7
Energy =   -266.386641691     
    C   -0.000790   -0.039758    3.848417
    C    0.000213    0.146072    2.564724
    C    0.000535    0.131030    1.276323
    C    0.000325    0.125127    0.000006
    C    0.000216    0.131180   -1.276325
    C    0.000205    0.146086   -2.564720
    C   -0.000704   -0.039736   -3.848426

FREQUENCIES   15
75.6319
130.2751
150.1591
190.2410
261.7714
432.5342
437.3606
477.2822
577.7009
639.5157
1065.9885
1488.4160
1528.9917
1844.8630
1956.4034

SYMMETRY C1
ELECTRONIC_STATE 3-A
