8
Energy =   -304.396132020     
    C   -0.533365    1.174505    2.143986
    C   -0.988102    0.998049   -0.146716
    C   -1.157820    1.494422    0.979782
    C    1.395827    0.116192    0.025447
    C   -0.017428   -0.043606   -0.260058
    C    0.769027   -0.446122    1.206322
    C    0.344197    0.316115    2.336968
    C   -0.094590   -1.316390    0.430989

FREQUENCIES   18
70.6006
299.2502
345.0061
423.9938
433.2403
497.9967
577.7918
580.0489
587.9051
717.1551
870.5736
974.0898
1169.3931
1199.3606
1215.6693
1357.0910
1892.4127
1953.7884
