8
Energy =   -304.305900216     
    C    1.203730    0.006028    0.803480
    C   -0.000200   -0.000445    0.019971
    C   -0.834606   -1.794168   -1.653500
    C   -0.901787   -1.937773    0.888138
    C   -0.771112    0.924710    0.803115
    C   -0.610877   -1.312392    1.902842
    C   -0.010570   -0.021944    1.602255
    C   -0.641584   -1.379953   -0.425302

FREQUENCIES   18
159.1444
175.8947
210.4159
365.9272
368.4458
492.5607
504.0210
582.1276
604.6323
704.4192
887.6361
938.4003
958.5501
1119.9304
1230.9503
1311.4669
1727.4876
2016.2344
