8
Energy =   -304.505814189     
    C    0.000000    0.000000    4.484444
    C    0.000000    0.000000    3.195756
    C    0.000000    0.000000    1.908678
    C    0.000000    0.000000    0.639302
    C    0.000000    0.000000   -0.639302
    C    0.000000    0.000000   -1.908678
    C    0.000000    0.000000   -3.195756
    C    0.000000    0.000000   -4.484444

FREQUENCIES   19
60.5929
64.9688
136.2984
161.4637
219.9097
254.8219
353.1197
421.8091
514.4069
514.4716
564.0012
590.1742
686.1661
976.4732
1402.8028
1779.9117
2036.2143
2131.4644
2159.8461
