8
Energy =   -304.287669519     
    C   -0.820105   -0.064070    2.477271
    C    0.020870   -0.048241    1.488268
    C    0.011875    0.088527    0.020974
    C    1.268677   -0.048340    0.778262
    C   -0.673704   -0.633887   -1.183925
    C   -0.793654   -1.910705   -1.394308
    C    2.548556   -0.064555    0.560812
    C   -0.611224    0.759648   -1.074342

FREQUENCIES   18
100.3995
105.4795
140.0033
146.6633
211.8891
285.1151
402.0459
410.7497
450.8021
517.5335
679.8921
685.0834
773.8182
942.7004
1290.5455
1641.3206
1765.6224
1881.1449
