9
Energy =   -342.429673744     
    C    0.096632    0.850468   -1.036888
    C   -1.230630    0.159632   -0.665810
    C    1.182048   -1.110695    0.507335
    C    0.719186   -1.417058   -0.602476
    C   -1.624691    0.005303    0.675789
    C   -0.141753   -0.501992   -1.316221
    C    0.868232    0.166661    1.106370
    C   -0.473756    0.660837    1.149589
    C    0.604732    1.186844    0.182311

FREQUENCIES   21
311.9298
350.1648
399.0925
461.6065
524.6046
611.7679
615.8451
634.4950
664.7598
713.1501
737.6128
880.7341
889.5162
930.5715
968.5572
1124.0209
1161.5601
1271.4083
1329.9913
1406.0003
1931.5839
