9
Energy =   -342.423945376     
    C    0.738085   -0.000442   -1.438028
    C    0.028159    0.000096    1.378631
    C    0.047254   -0.000009   -0.053842
    C    1.355788   -0.000356    2.019004
    C    3.628673    0.000333    0.765701
    C    1.471815   -0.000321    3.333650
    C    2.313828    0.000356    0.879200
    C    1.454827   -0.000129   -0.318615
    C   -1.197683    0.000472    0.865159

FREQUENCIES   21
89.7446
166.6465
186.7582
202.8043
304.9778
305.3143
466.0535
489.8687
588.1438
616.2523
626.6947
634.4988
694.2579
740.2563
904.9428
960.2188
1123.1802
1643.2455
1652.6930
1694.4654
1700.2825
