9
Energy =   -342.518098879     
    C    0.663773    0.687907    0.000164
    C   -0.401967   -1.545618    0.001018
    C    3.164911   -0.398983   -0.000870
    C    0.633897   -0.662592    0.000306
    C   -1.538191   -0.931876    0.001090
    C   -0.427247    1.540472    0.000827
    C    1.979232    0.116212   -0.000607
    C   -1.549608    0.913162    0.001102
    C   -2.524801   -0.018684   -0.003031

FREQUENCIES   21
40.3779
117.4015
159.1873
285.8875
385.2520
396.5558
497.3907
534.1743
547.6244
575.2181
605.9832
667.4403
768.6794
1035.3532
1076.5742
1200.9731
1363.6525
1561.8127
1668.1762
1791.7437
1846.1308
