9
Energy =   -342.419250930     
C  0.874977491 -0.119210376  2.310495424
C  2.163960482  0.715024532 -3.187622487
C -0.130061622  0.008056544 -0.087962814
C -0.095781145 -0.078877131  1.444953821
C  2.161477923 -0.697479393 -3.170791360
C  2.288905483 -1.983639928 -3.321505200
C  1.406854230  0.168500453 -2.151385644
C  0.641630359  0.084372099 -1.117569129
C -1.287862202 -0.054470800  0.687455389

FREQUENCIES 21
67.2315
94.2557
95.4110
203.6953
206.9626
278.4080
321.9209
377.4939
383.8481
468.9274
520.7995
543.9019
546.9484
745.2428
859.4594
946.0237
1157.6985
1559.7767
1712.9563
1790.8801
1957.8397

SYMMETRY C2
ELECTRONIC_STATE 1-A
