9
Energy =   -342.423945485     
C  0.738093722  0.000087988 -1.438050673
C  0.028282417 -0.000077656  1.378598782
C  0.047140366 -0.000010103 -0.053706796
C  1.355976087 -0.000042707  2.018824824
C  3.628895818  0.000126382  0.766276161
C  1.471210058 -0.000098252  3.333529496
C  2.313972165  0.000057028  0.878983856
C  1.454837484  0.000070861 -0.318742101
C -1.197662118 -0.000113541  0.865146450

FREQUENCIES 21
89.7444
166.6479
186.7577
202.8060
304.9785
305.2779
466.0535
489.8669
588.1476
616.2581
626.6908
634.5195
694.2578
740.2557
904.9427
960.2188
1123.1793
1643.2479
1652.6910
1694.4732
1700.2753

SYMMETRY C2V
ELECTRONIC_STATE 1-A1
