9
Energy =   -342.580201749     
    C   -0.517517   -0.044750   -0.878779
    C   -3.373248    0.055311    1.482855
    C    0.620857   -0.045041   -0.108497
    C   -1.953977    0.047015    1.745819
    C    0.455509   -0.002408    1.352974
    C    1.718552   -0.048431    0.655411
    C   -2.573501    0.021876    0.411241
    C   -1.739987   -0.021534   -0.681175
    C   -0.675867    0.037964    1.994833

FREQUENCIES 21
119.3193
213.6359
361.0516
377.9685
449.5348
478.5498
497.8474
536.3094
573.6503
579.8135
596.8327
709.1997
804.7596
839.1898
866.5154
1058.2312
1455.6049
1513.6438
1663.0501
1804.8557
2019.6956

SYMMETRY C1
ELECTRONIC_STATE 1-A
