9
Energy =   -342.603363571     
    C    0.569373    1.658978   -0.099580
    C   -0.698791    1.859223    0.054792
    C   -1.495566    0.830562   -0.011990
    C   -1.983732   -0.375232   -0.024087
    C   -1.106095   -1.326256    0.056708
    C    0.036195   -1.944722   -0.093391
    C    1.173788   -1.383053    0.148081
    C    1.843131   -0.283953   -0.154099
    C    1.661696    0.964453    0.123566

FREQUENCIES   21
39.4863
118.2287
188.7446
268.5208
327.6625
399.8446
410.3204
453.0010
508.7782
523.4645
552.0638
619.9501
916.0246
1103.2709
1111.6700
1260.8047
1405.3819
1531.8057
1639.3891
1814.0326
1839.8541
