9
Energy =   -342.341015036     
C -0.314998386  1.062331535 -0.980327076
C -0.489531737 -2.260805561 -1.022774948
C -0.433441264 -0.955044256 -1.034974562
C -0.785817281  0.172985504 -1.972370591
C -1.318947954  0.101102275 -3.197334933
C  1.044287087 -0.060556260  2.284820838
C -0.114772670  0.011119234  1.484550658
C  1.258112757 -0.053401734  0.890827777
C  0.073819449  0.049941263  0.028767838

FREQUENCIES 21
89.8217
116.7026
163.4345
209.8611
289.6346
350.5891
404.9754
458.5012
465.0154
521.9558
684.5329
690.3497
792.2825
923.1750
974.6808
1019.1314
1064.7555
1303.3649
1443.0116
1468.1095
1697.9451

SYMMETRY CS
ELECTRONIC_STATE 3-A"
