9
Energy =   -342.385131082     
    C   -0.002788    0.122368   -0.008825
    C    1.277878   -0.002418    0.757396
    C   -0.017440    0.004382    1.402171
    C   -0.478886    0.748717   -1.216321
    C   -0.660099   -0.080923    2.542946
    C   -1.312877   -0.159914    3.638353
    C   -0.650128   -0.631122   -1.233695
    C    2.575271   -0.021690    0.793585
    C   -0.942150   -1.896229   -1.305112

FREQUENCIES   21
56.0456
82.0150
117.5307
128.0453
164.1632
231.3094
289.8986
299.1560
408.6009
500.7287
528.9530
551.7647
623.3379
687.3794
812.9292
928.4461
1174.8524
1466.7310
1772.4762
1781.2692
2050.8358
