2
Energy =   -137.318895848     
    C    0.797976    0.000000    0.000000
    F   -0.412995    0.000000    0.000000

FREQUENCIES   1
1618.6292

SYMMETRY C*V
ELECTRONIC_STATE --
