3
Energy =   -237.790561936     
    C   -0.640109   -0.081121   -0.005423
    F    0.022052    1.038431    0.010018
    F    0.273153   -1.007338   -0.024976

FREQUENCIES 3
671.4080
1103.8977
1225.8671

SYMMETRY C2V
ELECTRONIC_STATE 1-A1
