4
Energy =   -337.693201240     
    C   -0.302127    0.236407   -0.045951
    F    0.638938    0.306669   -0.966525
    F   -0.878724   -0.949146   -0.037814
    F    0.166559    0.551160    1.145431

FREQUENCIES   6
503.7193
504.7064
697.9218
1076.6915
1235.8508
1235.9537

SYMMETRY C1
ELECTRONIC_STATE 2-A
