5
Energy =   -437.086117161     
    C   -0.017450    0.084423    0.060967
    F   -0.261316    0.324180    1.340187
    F    0.778925    1.026479   -0.420534
    F   -1.157361    0.082646   -0.612928
    F    0.570124   -1.095759   -0.062437

FREQUENCIES   9
-834.9209
-833.3290
321.1171
387.4440
554.2359
654.8938
655.0009
761.5876
881.8876

SYMMETRY C1
ELECTRONIC_STATE 2-A
