2
Energy =   -38.0573612340     
    C    0.166386    0.000000    0.000000
    H   -0.975414    0.000000    0.000000

FREQUENCIES   1
2614.5370

SYMMETRY C*V
ELECTRONIC_STATE --
