1
Energy =   -99.2370849399     
  F            0.00000000          0.00000000          0.00000000

FREQUENCIES 0

SYMMETRY SO3
ELECTRONIC_STATE 4-P
