2
Energy =   -199.581116226     
    F    0.697367    0.000000    0.000000
    F   -0.697367    0.000000    0.000000

FREQUENCIES 1
1038.5395

SYMMETRY D*H
ELECTRONIC_STATE 1-SGG
