2
Energy =   -199.004883581     
    F    0.645307    0.000000    0.000000
    F   -0.645307    0.000000    0.000000

FREQUENCIES   1
1233.6131

SYMMETRY D*H
ELECTRONIC_STATE --
