3
Energy =   -299.308792371     
F -0.960205555 -0.509487130 -0.000000000
F  0.920723555 -0.577788870  0.000000000
F  0.039482000  1.087276000  0.000000000

FREQUENCIES 3
369.0353
370.7586
580.9947

SYMMETRY C2V
ELECTRONIC_STATE 4-A1
