3
Energy =   -299.288917819     
    F   -0.647438   -0.905382   -0.000000
    F    1.073672   -0.083443    0.000000
    F   -0.426235    0.988825    0.000000

FREQUENCIES   3
322.3785
423.8897
577.1789

SYMMETRY CS
ELECTRONIC_STATE 2-A'
