1
Energy =  -0.502256981542     
  H            0.00000000          0.00000000          0.00000000

FREQUENCIES   0

SYMMETRY OH
ELECTRONIC_STATE 2-S
