3
Energy =   -39.1500530430     
    C    0.000000   -0.000000    0.174790
    H    0.000000    0.861670   -0.523961
    H    0.000000   -0.861670   -0.523961

FREQUENCIES 3
1402.5511
2909.4522
2973.5642

SYMMETRY C2V
ELECTRONIC_STATE 1-A1
