3
Energy =   -38.7848298787     
    C    0.000000    0.000000    0.090641
    H    0.000000    1.034967   -0.271924
    H    0.000000   -1.034967   -0.271924

FREQUENCIES 3
920.6538
2975.1000
3226.0734

SYMMETRY C2V
ELECTRONIC_STATE 2-A1
