4
Energy =   -77.2049139167     
    C    0.554564    0.318430   -0.078290
    C   -0.693444   -0.020166    0.371463
    H    0.850464    1.358312   -0.240506
    H   -0.989305   -1.060045    0.533771

FREQUENCIES 6
808.3604
845.7567
1104.2422
1425.0287
3048.2807
3058.0619

SYMMETRY C2H
ELECTRONIC_STATE 3-AU
