4
Energy =   -76.8178201691     
    C    0.558061    0.393627   -0.083959
    C   -0.696939   -0.095404    0.376925
    H    0.922944    1.404638   -0.268068
    H   -1.061788   -1.106331    0.561539

FREQUENCIES   6
725.8902
802.9696
1037.8745
1342.3300
3128.7929
3136.6454

SYMMETRY C1
ELECTRONIC_STATE 4-A
