4
Energy =   -77.2169360916     
    C    0.858194    0.400909   -0.146351
    C   -0.291186   -0.062585    0.274897
    H   -1.217006    0.491351    0.116487
    H   -0.359095   -1.017190    0.797577

FREQUENCIES   6
753.6047
991.0677
1399.0464
1582.0028
3018.8356
3085.2221

SYMMETRY C1
ELECTRONIC_STATE 3-A
