4
Energy =   -77.2928493739     
C  0.839675472  0.393273214 -0.139539213
C -0.293419472 -0.063464214  0.275732213
H -1.208352251  0.498820630  0.111197134
H -0.346997749 -1.016144630  0.795219866

FREQUENCIES 6
346.8564
758.8501
1217.0470
1711.4548
3113.7631
3188.8697

SYMMETRY C2V
ELECTRONIC_STATE 1-A1
