4
Energy =   -77.2049154005     
    C    0.554564    0.318430   -0.078290
    C   -0.693444   -0.020166    0.371463
    H    0.850464    1.358312   -0.240506
    H   -0.989305   -1.060045    0.533771

FREQUENCIES   6
808.5621
846.8314
1104.3619
1425.1109
3048.3066
3058.0816

SYMMETRY C1
ELECTRONIC_STATE 3-A
