4
Energy =   -138.645705011     
    C   -0.086509    0.339404    0.044080
    H    0.192830   -0.139817    1.089775
    H    0.916288   -0.153437   -0.346730
    F   -1.142149   -0.067220   -0.483766

FREQUENCIES   6
779.2267
894.8959
1003.7806
1445.5814
1994.2126
2378.3307

SYMMETRY C1
ELECTRONIC_STATE 3-A
