4
Energy =   -138.649268603     
    H    1.038289   -0.560092    0.767818
    H   -0.569055   -0.048258   -1.496328
    C   -0.705761   -0.343556   -0.429815
    F    0.862302   -0.325535   -0.143675

FREQUENCIES 6
541.5085
625.5784
864.4196
1303.7175
2943.5223
3587.4508

SYMMETRY CS
ELECTRONIC_STATE 1-A'
