4
Energy =   -200.253219474     
    H    0.113608   -1.068304    0.153358
    H   -0.154350   -2.247797    0.241826
    F    0.507165   -0.032874    0.106529
    F   -0.578969    0.821683   -0.207661

FREQUENCIES   6
244.2684
689.4385
874.0110
998.8446
1110.8216
1652.1513

SYMMETRY C1
ELECTRONIC_STATE 2-A
