3
Energy =   -1.13496968535     
    H   -0.360902    1.353316    0.035939
    H    0.361099   -1.353254   -0.041328
    H   -0.000197   -0.000063   -0.002698

FREQUENCIES   3
598.3271
967.7001
1109.5340

SYMMETRY C*V
ELECTRONIC_STATE 3-SG
