4
Energy =   -39.4937544807     
    H   -0.531277    0.718148    0.797715
    H    1.298203    1.132324    0.575064
    H    0.528516   -0.295447   -0.392958
    C    0.431723    0.518518    0.326391

FREQUENCIES   6
1409.5567
1409.7366
1423.1462
3024.2638
3215.5899
3215.7017

SYMMETRY C1
ELECTRONIC_STATE 1-A
