5
Energy =   -139.341315857     
    H    0.174084    0.033083    1.621347
    H    0.451893   -1.334878    0.278122
    H   -1.075192   -0.460547    1.087828
    C   -0.033966   -0.403561    0.554855
    F   -0.031210    0.535583   -0.320602

FREQUENCIES   9
763.1025
960.1387
1003.2792
1072.3897
1308.0828
1459.7131
2154.6497
2521.6007
3179.8513

SYMMETRY C1
ELECTRONIC_STATE 2-A
