5
Energy =   -139.341315572     
H  0.174094870  0.033087295  1.621351642
H  0.452107628 -1.334793193  0.278213660
H -1.075181130 -0.460542705  1.087832642
C -0.033988391 -0.403569847  0.554845438
F -0.031208299  0.535583672 -0.320601274

FREQUENCIES 9
763.1138
959.9780
1003.4160
1072.4977
1308.0972
1459.8088
2154.5987
2521.6284
3179.8980

SYMMETRY CS
ELECTRONIC_STATE 2-A"
