5
Energy =   -40.5367918994     
    C   -0.308595   -0.391576    0.035758
    H   -1.096511   -1.050082   -0.324212
    H   -0.512150    0.627505   -0.286902
    H   -0.274042   -0.427752    1.122736
    H    0.648165   -0.715755   -0.368602

FREQUENCIES   9
1342.0352
1342.2718
1342.3271
1559.6321
1559.7486
3026.7400
3128.2699
3128.5566
3128.8119

SYMMETRY C1
ELECTRONIC_STATE 1-A
