5
Energy =   -40.0700875186     
    C   -0.399906    0.168927    0.117367
    H   -1.358883    0.643778   -0.212771
    H    0.175228   -0.076002    1.046601
    H   -0.690108   -0.883947   -0.130481
    H    0.274210    0.991565   -0.233273

FREQUENCIES   9
357.7680
358.1562
1065.4990
1296.6494
1446.3296
2665.6997
2800.0521
2861.8052
2861.9839

SYMMETRY C1
ELECTRONIC_STATE 2-A
