3
Energy =   -76.5020129404     
    H    0.000000    0.459234   -1.465379
    C    0.000000   -0.304966   -0.662948
    C    0.000000    0.145732    0.718260

FREQUENCIES 3
868.8825
1171.5500
2871.8953

SYMMETRY CS
ELECTRONIC_STATE 4-A"
