3
Energy =   -76.5996787030     
    H    0.000000    0.000000    1.023106
    C    0.000000    0.634100   -0.085259
    C    0.000000   -0.634100   -0.085259

FREQUENCIES   3
341.5803
1809.9825
2369.1891

SYMMETRY C2V
ELECTRONIC_STATE 2-A1
