4
Energy =   -114.719146899     
    C   -0.000000   -0.007994   -1.408572
    C    0.000000    0.028822   -0.084747
    C   -0.000000   -0.026196    1.160594
    H   -0.000000    0.305369    2.175221

FREQUENCIES   6
242.8161
283.1928
374.0630
1194.3622
1892.2841
3387.2516

SYMMETRY CS
ELECTRONIC_STATE 2-A'
