4
Energy =   -114.287622275     
    H    0.000000    0.000000    1.448151
    C    0.000000    0.000000    0.334635
    C    0.000000    1.201987   -0.287997
    C    0.000000   -1.201987   -0.287997

FREQUENCIES 6
354.6010
463.1683
707.5523
1229.6004
1622.1109
2895.2342

SYMMETRY C2V
ELECTRONIC_STATE 1-A1
