4
Energy =   -114.377374595     
    C   -1.424252    0.000168    0.000001
    C   -0.086835   -0.000304    0.000004
    C    1.140849    0.000083   -0.000011
    H    2.221427    0.000318    0.000036

FREQUENCIES   7
148.9486
148.9582
838.6741
838.6743
1205.1067
2180.6559
3301.5496

SYMMETRY C*V
ELECTRONIC_STATE 1-SG
