4
Energy =   -114.320961967     
    C   -1.387550    0.000149    0.000015
    C   -0.117676   -0.000276    0.000010
    C    1.136358    0.000099   -0.000072
    H    2.213206    0.000166    0.000281

FREQUENCIES   7
279.3312
330.8493
409.3433
893.8934
1313.8107
1920.7956
3314.3111

SYMMETRY C*V
ELECTRONIC_STATE 3-??
