3
Energy =   -137.870128914     
    H    0.710313    1.164367   -0.018348
    C   -0.766595   -0.246266   -0.137717
    F    0.597924    0.201173   -0.004016

FREQUENCIES   3
880.1500
1014.9402
3404.3631

SYMMETRY CS
ELECTRONIC_STATE 4-A"
