3
Energy =   -138.460360162     
    H   -0.512624    1.006935    0.082118
    C   -0.116919   -0.040875    0.012805
    F    1.171185    0.153214   -0.094923

FREQUENCIES   3
1201.8541
1437.5035
2767.6350

SYMMETRY CS
ELECTRONIC_STATE 1-A'
