3
Energy =   -137.994115196     
    H    0.749476    1.196107    0.028768
    C   -0.838211   -0.322001    0.039311
    F    0.630377    0.245168   -0.068728

FREQUENCIES   3
544.6111
814.6956
3500.5892

SYMMETRY CS
ELECTRONIC_STATE 2-A'
