4
Energy =   -238.085751484     
    H    0.177050   -0.024026   -1.415173
    C    0.047637    0.002623   -0.326984
    F    0.792413   -0.637781    0.415086
    F   -0.846833    0.673585    0.188012

FREQUENCIES   6
669.4951
1084.2770
1314.5000
1391.1242
1635.6440
3126.0769

SYMMETRY C1
ELECTRONIC_STATE 1-A
