4
Energy =   -237.861601514     
    H   -0.740994    0.517662    1.246562
    C   -0.149417    0.504003    0.327142
    F   -0.663883   -0.159980   -0.762499
    F    0.946700   -0.326938    0.276141

FREQUENCIES   6
504.0081
512.8180
1014.1693
1118.9413
1132.7499
3109.7993

SYMMETRY C1
ELECTRONIC_STATE 3-A
