4
Energy =   -237.886791761     
    H   -0.991016   -0.876856    0.854272
    C   -0.129218    0.654268   -0.371856
    F   -0.429333   -0.803780    0.077309
    F    1.026445    1.065336   -0.154336

FREQUENCIES 6
239.2663
352.7172
644.9758
902.2796
1458.5355
3521.8554

SYMMETRY C1
ELECTRONIC_STATE 3-A
