5
Energy =   -338.370729900     
H  1.360589340  0.001233814 -0.675778039
C  0.411078731 -0.010720101 -0.142574485
F -0.291122871 -1.103078656 -0.465087117
F  0.618562439 -0.013478422  1.179277096
F -0.313914627  1.069041152 -0.456977038

FREQUENCIES 9
500.3935
500.3999
693.4540
1133.8627
1133.8707
1134.6987
1385.2249
1385.2269
3121.2535

SYMMETRY C3V
ELECTRONIC_STATE 1-A1
