5
Energy =   -337.869933997     
    C   -0.103257    0.079203    0.065425
    F   -1.252169   -0.350604   -0.294293
    F    0.049507    1.347341    0.116207
    F    0.527084   -0.614165    0.934919
    H    0.614753   -0.204852   -1.034921

FREQUENCIES   9
511.2351
512.0135
736.4853
736.5361
746.2931
848.5115
1298.8521
1398.4746
1398.5177

SYMMETRY C1
ELECTRONIC_STATE 2-A
