2
Energy =   -100.485884716     
    H    1.325256    0.000000    0.000000
    F    0.403190    0.000000    0.000000

FREQUENCIES   1
4093.2574

SYMMETRY C*V
ELECTRONIC_STATE 1-SG
