2
Energy =   -99.8917257513     
    H    1.006211    0.000000    0.000000
    F   -0.005804    0.000000    0.000000

FREQUENCIES   1
3002.9553

SYMMETRY C*V
ELECTRONIC_STATE --
