5
Energy =   -206.997049766     
    C    1.257122    0.000000   -0.000000
    C    0.003644   -0.000000    0.000000
    C   -1.333687   -0.000000    0.000000
    N   -2.500646    0.000000   -0.000000
    C    2.573567    0.000000   -0.000000

FREQUENCIES 10
115.8816
133.6266
307.3506
368.0559
448.0057
592.1604
752.3240
1421.6888
1989.2068
2181.5361

SYMMETRY C*V
ELECTRONIC_STATE ??
