5
Energy =   -206.588956550     
    N   -2.292523   -0.724840   -0.382209
    C    2.436320    0.793753    0.369824
    C    1.256870    0.415014    0.182233
    C    0.056786    0.029638   -0.008602
    C   -1.186271   -0.369596   -0.206282

FREQUENCIES 10
135.8937
143.2668
313.9581
386.0693
442.4234
604.8080
774.7119
1578.7169
1955.4695
2137.0930

SYMMETRY C*V
ELECTRONIC_STATE ??
