5
Energy =   -206.997049786     
    N   -2.299833   -0.727403   -0.383531
    C    2.477051    0.806768    0.376054
    C    1.237761    0.408856    0.179310
    C    0.057519    0.029918   -0.008129
    C   -1.201314   -0.374170   -0.208739

FREQUENCIES 10
116.3068
133.8063
307.8819
368.3972
448.2293
592.3446
752.3230
1421.8812
1988.4729
2180.7469

SYMMETRY C*V
ELECTRONIC_STATE ??
