5
Energy =   -206.449756430     
N -0.135683000 -0.311320000 -0.014279000
C  0.770885000 -1.530273000  0.023741000
C -0.646674012 -1.490658676 -0.038101954
C  0.087381510  2.183630956 -0.001340877
C -0.075990498  0.979217719 -0.010018169

FREQUENCIES 9
195.6521
211.6702
397.7873
510.8694
558.1557
914.8188
1099.2705
1671.3483
2112.3358

SYMMETRY CS
ELECTRONIC_STATE 3-A'
