5
Energy =   -206.997049818     
    N   -2.299821   -0.727161   -0.383296
    C    2.476894    0.806811    0.376361
    C    1.237684    0.408859    0.179138
    C    0.057591    0.029822   -0.008573
    C   -1.201165   -0.374362   -0.208665

FREQUENCIES 10
116.0148
133.6965
307.6764
368.2823
448.0556
592.1644
752.4964
1421.9771
1988.8776
2181.0603

SYMMETRY C*V
ELECTRONIC_STATE ??
