5
Energy =   -206.588956537     
    C    1.277487   -0.000000   -0.000000
    C    0.002770    0.000000    0.000000
    C   -1.317775   -0.000000    0.000000
    N   -2.492842    0.000000   -0.000000
    C    2.530360    0.000000   -0.000000

FREQUENCIES 10
135.5936
142.9203
313.7146
385.8714
442.3265
604.7403
774.7224
1578.7992
1955.8755
2137.4906

SYMMETRY C*V
ELECTRONIC_STATE ??
