5
Energy =   -206.588956411     
    N   -0.672070   -1.845314   -1.547342
    C    0.750329    1.878633    1.508498
    C    0.396268    0.950641    0.744808
    C   -0.338887   -0.973795   -0.833049
    C    0.033286    0.005463   -0.030007

FREQUENCIES 10
135.4179
142.8743
313.6113
386.1645
441.7622
604.4994
775.1931
1579.1780
1955.4157
2138.0467

SYMMETRY C*V
ELECTRONIC_STATE ??
