5
Energy =   -206.588956517     
    N   -2.292567   -0.724736   -0.381906
    C    2.436245    0.793889    0.370124
    C    1.256891    0.415038    0.182065
    C    0.056818    0.029250   -0.008907
    C   -1.186203   -0.369472   -0.206411

FREQUENCIES 10
136.0501
143.4852
314.0977
386.2939
442.3277
604.7932
774.8388
1578.7727
1955.0970
2136.9773

SYMMETRY C*V
ELECTRONIC_STATE ??
