5
Energy =   -206.588956518     
    C   -2.029178    1.175515    0.000000
    C   -0.754435    1.175515    0.000000
    C    0.566147    1.175515    0.000000
    N    1.741193    1.175515   -0.000000
    C   -3.282049    1.175515   -0.000000

FREQUENCIES 10
135.5860
142.8584
313.7041
385.8823
442.3268
604.7845
774.6654
1578.7579
1955.7613
2137.5877

SYMMETRY C*V
ELECTRONIC_STATE ??
