6
Energy =   -245.100597996     
    C    0.390982    0.305522   -0.386256
    N   -1.910124   -1.492017    1.956136
    C    1.189882    0.939392   -1.212683
    C   -1.191882   -0.934843    1.230025
    C    1.900365    1.648514   -2.013604
    C   -0.361755   -0.290874    0.390802

FREQUENCIES 12
70.4963
139.0525
167.2706
410.8717
454.1958
533.2422
568.8698
640.7886
1207.1891
1893.6239
2083.3381
2217.0929

SYMMETRY C1
ELECTRONIC_STATE 2-A
