6
Energy =   -245.100604633     
    N   -2.255007   -1.805156    1.182112
    C    2.319885    1.807878   -1.299703
    C    1.403537    1.122669   -0.716943
    C   -0.439869   -0.358240    0.232404
    C    0.453571    0.358578   -0.229756
    C   -1.412950   -1.134279    0.741386

FREQUENCIES 12
78.0995
146.1816
172.8603
412.3566
448.6951
527.1549
569.1683
640.9256
1207.0842
1890.9603
2080.4210
2217.8511

SYMMETRY C1
ELECTRONIC_STATE 2-A
