6
Energy =   -244.905561696     
    N   -1.424447    0.196840   -0.211420
    C    1.572329    0.378541    2.023520
    C   -1.295649   -0.246636   -1.435914
    C    0.058085   -0.033156   -0.036696
    C    0.098563   -0.510589   -1.413201
    C    0.819977    0.176085    1.015612

FREQUENCIES 12
134.4833
152.8805
275.6302
453.4684
574.9307
669.4373
675.5600
928.9007
1037.9578
1319.9247
1436.8834
2065.1765

SYMMETRY C1
ELECTRONIC_STATE 4-A
