6
Energy =   -244.640687397     
C -0.276734219 -1.055849418  0.776426364
C -0.189394906  1.396559357  0.527670158
C -0.378207923  0.250881947  1.097053056
N  0.123728956 -1.252994963 -0.451190195
C  0.186994721  0.955023272 -0.628098288
C  0.380787378 -0.236695202 -1.230507396

FREQUENCIES 12
343.0704
444.7921
503.6766
535.5857
667.7704
676.1471
1105.0486
1150.1765
1235.4678
1323.0303
1633.0463
1749.7280

SYMMETRY C2V
ELECTRONIC_STATE 3-B2
