6
Energy =   -244.640687553     
C -0.770640484  0.882567355  0.204469608
N -0.346156263 -1.100126806 -0.690300523
C  0.331373296  1.233898932  0.782840510
C -1.236927264 -0.161461347 -0.512685863
C  1.027603223  0.187343221  0.478922460
C  0.854821704 -0.970158388 -0.193437439

FREQUENCIES 12
343.0339
444.9540
503.9275
535.5838
667.8510
676.1598
1103.9095
1149.3643
1235.0068
1322.8613
1633.2088
1748.9652

SYMMETRY C2V
ELECTRONIC_STATE 3-B2
