6
Energy =   -244.640687509     
N -0.291963682 -1.043990499  0.823290286
C -0.133959550  1.116693272  0.355878747
C -0.435866052  0.173830482  1.273243453
C  0.107997445 -1.249559110 -0.403097226
C  0.267329350  1.167008663 -0.872626400
C  0.333611603 -0.107025391 -1.085307409

FREQUENCIES 12
343.4805
445.0281
503.9726
535.6369
667.8286
676.1319
1103.8837
1149.2310
1234.6630
1322.5642
1632.4425
1748.3750

SYMMETRY C2V
ELECTRONIC_STATE 3-B2
