6
Energy =   -244.811184605     
C  0.690774536 -0.055752097 -0.924029997
C  0.593011088  0.897228998  0.319447815
C -0.790659660 -0.332118062 -0.858896503
N  0.994324694 -0.548456921  0.468192960
C -0.462130955 -0.723136502  0.487556564
C -0.891402819  0.649908737  0.422481001

FREQUENCIES 12
409.2423
498.9519
523.9435
578.6374
742.0507
781.8312
845.1469
902.2537
936.1955
1011.6830
1097.8723
1240.8700

SYMMETRY CS
ELECTRONIC_STATE 4-A'
