6
Energy =   -244.640687497     
C -0.276877403 -1.055614041  0.776900917
C -0.189179884  1.396753169  0.527116390
C -0.378191020  0.251365558  1.097121512
N  0.123531810 -1.253202449 -0.450684641
C  0.187142642  0.954842073 -0.628582434
C  0.380741554 -0.237301735 -1.230507637

FREQUENCIES 12
343.1812
444.7890
503.7780
535.6259
667.7447
676.1240
1104.6261
1149.8592
1235.0427
1322.7390
1632.8462
1749.2216

SYMMETRY C2V
ELECTRONIC_STATE 3-B2
