6
Energy =   -244.640687433     
N -0.939876077  0.990769753  0.201268135
C -0.246447577 -0.962615769 -0.582217640
C  0.261622065  1.119347755  0.697578446
C -1.260528790 -0.078438771 -0.477281040
C  1.061410767  0.066543133  0.427241952
C  0.983872626 -1.063548393 -0.196737876

FREQUENCIES 12
343.4294
445.7330
503.8371
535.7193
667.8824
676.3745
1104.9758
1149.7455
1235.0072
1322.7141
1632.9462
1749.6613

SYMMETRY C2V
ELECTRONIC_STATE 3-B2
