6
Energy =   -244.982528569     
    N   -1.033962   -0.032925   -0.835771
    C    0.942174   -0.915234    0.534391
    C    1.167222    0.102290    1.554792
    C    0.123071   -0.027470   -0.180403
    C    1.045286    0.895500    0.336893
    C   -2.047109   -0.039246   -1.436390

FREQUENCIES 12
166.3399
174.9398
337.4347
477.3000
578.3442
625.6908
661.6414
880.4183
984.3753
1176.9549
1550.9450
2156.5780

SYMMETRY C1
ELECTRONIC_STATE 2-A
