1
Energy = -36.2394057070
  C            0.00          0.00          0.000

FREQUENCIES 0

SYMMETRY OH
ELECTRONIC_STATE ??
