4
Energy = -150.6962450200
    C   -0.024144    0.000344   -0.058879
    C   -0.454747    0.001569    1.136699
    C    0.414287   -0.000904   -1.274845
    C   -0.950419    0.002985    2.496993

FREQUENCIES 7
93.4147
141.4273
349.7845
389.7648
818.1591
1365.8861
2022.3644

SYMMETRY C*V
ELECTRONIC_STATE ??
