4
Energy = -150.6601479700
    C   -1.163323    0.191551   -0.194768
    C    0.221995    0.106688    0.047169
    C    1.533252    0.733676    0.261192
    C   -0.591925   -1.031915   -0.113594

FREQUENCIES 6
218.4608
264.0851
773.7469
938.2713
1333.5276
1579.2404

SYMMETRY C2V
ELECTRONIC_STATE 3-B2
