4
Energy = -150.6970798500
C  1.995418431  0.463160266  0.291783632
C -1.995438860 -0.463082211 -0.291771708
C -0.596871539 -0.138500527 -0.087309734
C  0.596890967  0.138422473  0.087296809

FREQUENCIES 7
127.8514
127.8514
248.9457
248.9457
793.9589
1083.2302
2164.8344

SYMMETRY D*H
ELECTRONIC_STATE 1-SGG
