5
Energy = -188.7133265900
    C    0.647971    0.158589   -1.126753
    C    1.097120    0.087861    0.195916
    C   -1.233965   -0.174173    0.578189
    C   -0.053913    0.414118    0.915283
    C   -0.457213   -0.486395   -0.562635

FREQUENCIES 9
160.5068
458.6391
488.7263
534.5663
840.8084
1057.8639
1113.0997
1159.1592
1399.3304

SYMMETRY C1
ELECTRONIC_STATE 3-A
