5
Energy = -188.7133503600
C -0.129588835 -0.000859047 -0.069565344
C  0.118332402  0.000611804  1.274115388
C  0.456722063  0.000200299 -1.418286605
C  1.771455536  0.004480946 -0.877791942
C  1.239629833  0.003598998  0.493328503

FREQUENCIES 9
202.3229
500.0089
535.5345
708.7550
797.0656
1060.5203
1167.7572
1279.9065
1467.2868

SYMMETRY C2V
ELECTRONIC_STATE 3-A2
