5
Energy = -188.7512399200
C -0.589993665  0.852506649  0.082245628
C  0.874028140  0.560629827 -0.022053333
C  1.271386658 -0.655075970 -0.112551668
C -1.426844944 -0.118604770  0.079593925
C -0.128577189 -0.639455736 -0.027234552

FREQUENCIES 9
264.8852
367.3340
424.3207
740.2886
816.6793
1116.7345
1125.9979
1715.5962
1728.9012

SYMMETRY C2V
ELECTRONIC_STATE 1-A1
