5
Energy = -188.6917945900
    C    0.017183   -0.679515   -0.000000
    C    0.017183    0.679515   -0.000000
    C   -0.714215   -1.934505   -0.000000
    C   -0.714215    1.934505   -0.000000
    C    1.334062   -0.000000   -0.000000

FREQUENCIES 9
137.4672
212.9409
265.5763
279.7643
628.5669
741.6033
882.0400
1100.2835
1688.1426

SYMMETRY C2V
ELECTRONIC_STATE 1-A1
