6
Energy = -226.6925980000
    C   -0.540765    0.029796   -0.689565
    C    0.343493   -0.753187    0.633153
    C   -1.131094   -0.474199    0.613603
    C    0.615925    0.656224    0.602324
    C    0.028096    1.393296   -0.333105
    C    0.684345   -0.851930   -0.826411

FREQUENCIES 12
145.4525
313.9796
337.2605
620.1302
650.6068
722.9656
763.4326
863.0738
909.2711
942.8656
1139.7048
1484.7003

SYMMETRY C1
ELECTRONIC_STATE 3-A
