6
Energy = -226.7470232400
    C    1.217306   -1.607313   -1.112072
    C   -1.014573    0.909726    0.299209
    C    0.435521   -0.619238   -0.506812
    C   -0.759624    0.171670   -0.791121
    C   -0.299861    1.027464    1.411252
    C    0.421232    0.117691    0.699542

FREQUENCIES 12
66.4850
213.7621
249.1468
361.4165
416.3215
596.1100
758.4730
843.9059
1192.0795
1389.9065
1468.5140
1595.2865

SYMMETRY C1
ELECTRONIC_STATE 3-A
