6
Energy = -226.7970588700
C  0.988121226  0.397618637  0.010458911
C -0.488243619  0.784233122 -0.530273445
C -0.988121226 -0.397618637 -0.010458578
C  0.488243619 -0.784233122  0.530273778
C -0.632392798 -1.495155070  0.657615497
C  0.632392798  1.495155070 -0.657615163

FREQUENCIES 12
257.6641
369.6063
414.7355
460.7537
528.5876
765.9446
850.8841
1122.8859
1189.9902
1408.2922
1471.9833
1818.8083

SYMMETRY D2H
ELECTRONIC_STATE 3-B1G
