6
Energy = -226.7502711800
    C    1.193244   -1.589598   -1.163309
    C   -0.954680    1.210949    0.150568
    C    0.451932   -0.613881   -0.457723
    C   -0.835359    0.020808   -0.533550
    C   -0.471363    0.766791    1.316273
    C    0.616227    0.204931    0.687739

FREQUENCIES 12
53.8549
165.5525
233.0989
445.4834
551.1877
598.5958
781.5397
893.8945
1039.7365
1233.1241
1365.8509
1539.2011

SYMMETRY C1
ELECTRONIC_STATE 1-A
