6
Energy = -226.8818777800
    C   -1.898932   -0.164225    0.109072
    C    0.670081    0.057932   -0.038470
    C   -0.670085   -0.057892    0.038538
    C    1.898927    0.164247   -0.109058
    C   -3.276353   -0.283336    0.188037
    C    3.276363    0.283274   -0.188119

FREQUENCIES 13
85.1562
85.1562
160.3988
160.3988
329.4789
329.4789
629.4533
694.7453
694.7453
1078.2423
1399.6391
2125.4597
2233.5925

SYMMETRY D*H
ELECTRONIC_STATE 1-SGG
