6
Energy = -227.3025041200
    C   -0.750201    0.148423   -0.909721
    C    0.069354    1.232713   -0.083956
    C    0.017078    0.239305    0.993929
    C    0.719351   -0.910290    0.433440
    C    0.796037    0.094147   -0.633773
    C   -0.851619   -0.804300    0.200080

FREQUENCIES 12
353.7647
485.6499
498.2020
646.2826
660.0543
753.0137
845.5548
904.6302
983.9515
1104.8353
1138.5431
1208.8333

SYMMETRY C1
ELECTRONIC_STATE 4-A
