6
Energy = -226.7034201600
C  0.146381842 -1.124878359 -0.147061829
C  0.619582292  0.953096656 -0.139166315
C  0.049591193  0.077061283 -1.140179104
C -0.717537497 -0.429352865  0.782584390
C  0.716670299 -0.248407713  0.853983103
C -0.814687129  0.772480998 -0.210160246

FREQUENCIES 12
85.8658
88.1431
514.1572
656.2075
656.6032
831.4068
832.3123
998.2558
1002.1220
1002.7821
1243.0460
1301.7014

SYMMETRY C1
ELECTRONIC_STATE 1-A
