6
Energy = -227.2904476900
    C   -0.579342    0.001048   -0.735917
    C    0.312464   -0.668796    0.576307
    C   -1.147768   -0.484648    0.532090
    C    0.762813    0.734338    0.770641
    C    0.041206    1.276239   -0.290746
    C    0.610628   -0.858181   -0.852376

FREQUENCIES 12
188.3161
279.2544
304.8108
672.0772
748.7558
783.3970
830.2145
932.8612
954.3349
1058.2563
1108.9133
1353.7451

SYMMETRY C1
ELECTRONIC_STATE 4-A
