6
Energy = -226.7737534300
C  2.207585178  0.991701559  0.819186580
C -0.986939905 -0.443357812 -0.366231966
C -2.207585512 -0.991701892 -0.819186913
C  0.378699764 -0.699493195 -0.173738296
C -0.378700097  0.699492861  0.173737963
C  0.986939571  0.443357479  0.366231633

FREQUENCIES 12
132.4739
156.0022
254.9588
265.2948
605.6911
624.9121
696.7962
918.3335
929.8963
975.2767
1600.3046
1670.4772

SYMMETRY D2H
ELECTRONIC_STATE 1-AG
