7
Energy = -264.9961525700
C  0.052936164 -1.421525130 -0.435551049
C  1.432924384  0.331041853  0.224453878
C -0.690647160  1.274197296  0.335659675
C  0.595260030  1.287301935  0.449176195
C -1.456482844  0.301595997 -0.030615426
C -1.125557133 -0.898113347 -0.373836487
C  1.191567558 -0.874499604 -0.169286787

FREQUENCIES 15
391.9089
392.3628
435.6394
435.7378
508.2744
508.3609
510.7413
511.1643
1112.9706
1377.3070
1377.3328
1801.2505
1801.2640
1818.7900
1818.9123

SYMMETRY D7H
ELECTRONIC_STATE 1-A1'
