7
Energy = -265.2700820100
    C    1.219944   -0.472184    0.248005
    C    0.895148    0.849607    0.499399
    C   -0.565483   -0.207224    0.359184
    C   -0.449494    1.214183    0.190444
    C   -1.209436    2.299407   -0.059268
    C   -0.050946   -2.415899   -0.956149
    C    0.160268   -1.267888   -0.281616

FREQUENCIES 15
117.2952
198.9237
235.1535
238.9537
347.9908
424.6337
466.2961
580.4477
718.5938
903.6212
918.6376
1052.5714
1344.7263
1570.1861
1599.6475

SYMMETRY CS
ELECTRONIC_STATE 4-A"
