7
Energy = -265.2998945500
    C   -0.894286   -0.311149   -1.262737
    C   -0.714668    0.992627   -0.996486
    C    1.283327   -0.248113    1.838045
    C    0.029166   -0.054820    1.421428
    C   -0.038083    0.267218   -0.039247
    C   -0.967700   -1.645261   -1.377931
    C    1.315367   -0.047511    0.517961

FREQUENCIES 15
106.9401
192.7247
244.3257
363.3770
444.5595
471.8629
495.8120
561.7591
654.1765
888.8585
1058.5629
1232.7870
1366.7715
1612.8980
1672.4473

SYMMETRY C1
ELECTRONIC_STATE 4-A
