7
Energy = -264.9961525700
    C    0.052936   -1.421525   -0.435551
    C    1.432924    0.331042    0.224454
    C   -0.690647    1.274197    0.335660
    C    0.595260    1.287302    0.449176
    C   -1.456483    0.301596   -0.030615
    C   -1.125557   -0.898113   -0.373836
    C    1.191568   -0.874500   -0.169287

FREQUENCIES 15
391.9089
392.3628
435.6394
435.7378
508.2744
508.3609
510.7413
511.1643
1112.9706
1377.3070
1377.3328
1801.2505
1801.2640
1818.7900
1818.9123

SYMMETRY D7H
ELECTRONIC_STATE 1-A1'
