7
Energy = -264.8127136100
C  2.863034000  0.086967000  0.117545000
C  1.597886000  0.628972000  0.410114000
C -0.789309000 -0.292087352 -0.191540552
C  0.241421264  0.481619010  0.291419120
C -1.764053555 -0.932724943 -0.594229488
C -2.872087786 -1.621140687 -1.028345880
C  0.723109077  1.648393973  0.995037801

FREQUENCIES 15
86.3257
107.1075
156.4625
217.0701
293.0760
294.5444
559.7412
577.7034
611.3679
762.1737
916.8095
1106.0789
1341.7614
1665.1649
2172.6425

SYMMETRY CS
ELECTRONIC_STATE 1-A'
