7
Energy = -265.3799779100
    C   -0.566544   -0.781516    1.357679
    C    0.519213   -1.466232   -0.984436
    C   -0.007134   -0.873725    0.119919
    C   -0.339905    0.394872    0.710937
    C   -0.321414    1.738950    0.508899
    C    0.998275   -1.939967   -1.991304
    C   -0.282491    2.927620    0.278308

FREQUENCIES 15
101.2979
194.0743
201.3020
217.8995
370.8831
460.0190
586.7334
603.6488
726.0654
824.5436
1044.5467
1445.2404
1755.4872
2165.7441
2182.3583

SYMMETRY C1
ELECTRONIC_STATE 4-A
