7
Energy = -265.2862898200
    C    1.155871   -0.077241    0.653461
    C    0.206939    0.138851   -0.717348
    C   -1.062169   -0.199882   -0.031852
    C   -0.158723    0.475424    0.936806
    C   -2.271026   -0.763357   -0.180542
    C    0.693364    1.293792    0.066020
    C    1.435743   -0.867586   -0.426422

FREQUENCIES 15
154.4650
180.7673
269.4743
428.2104
571.5385
610.0400
638.2593
690.4831
785.5594
835.9325
915.9226
975.5271
1208.9080
1283.9192
1641.3954

SYMMETRY C1
ELECTRONIC_STATE 2-A
