7
Energy = -264.7160310800
    C    1.218592    0.187385   -0.407864
    C    0.586388    0.844002    0.659620
    C   -0.479452   -1.417022    0.248084
    C    0.872742   -1.081378    0.020715
    C   -0.040105    0.772560   -0.943886
    C   -0.821916    0.989407    0.202476
    C   -1.336249   -0.294954    0.220855

FREQUENCIES 15
97.8753
257.0003
305.6990
508.9537
511.9386
537.4112
565.7682
610.1223
777.6131
816.6482
1057.1962
1197.7598
1233.2659
1295.7235
1319.2889

SYMMETRY C1
ELECTRONIC_STATE 3-A
