7
Energy = -264.7695587800
C -0.656803632 -0.902601338  1.558839304
C  0.342969893 -0.463732766 -0.703263726
C -0.124972553 -1.179473120  0.415944359
C -0.516478593  0.297969824  1.106457932
C -0.020300497  0.907156109 -0.062550405
C  0.901814693 -0.892071239 -1.887939035
C  0.073770689  2.232753530 -0.427487430

FREQUENCIES 15
145.8901
173.0570
197.2754
262.9149
427.5099
559.7700
587.3391
604.0649
707.3397
940.5911
1010.3946
1480.2981
1544.2657
1591.7568
1825.7594

SYMMETRY C2V
ELECTRONIC_STATE 1-A1
