7
Energy = -265.3249785000
    C    1.034265    0.961124    0.951800
    C    1.836119    1.706054    1.689900
    C   -0.306109    0.560131    0.734305
    C    0.962832    0.051530   -0.130887
    C   -0.375714   -0.349342   -0.345780
    C   -1.180810   -1.097796   -1.086507
    C   -1.970583   -1.831700   -1.812830

FREQUENCIES 15
118.8553
131.4013
302.5070
350.0054
506.8660
541.5156
580.1334
624.9939
744.2937
890.8635
922.4233
1076.6915
1294.6296
1606.0110
1937.1259

SYMMETRY C1
ELECTRONIC_STATE 4-A
