7
Energy = -265.4293837600
    C   -0.131982   -1.378939    0.606763
    C    0.498855    0.919006   -0.878135
    C   -0.792091   -0.391941    1.040490
    C   -1.035890    0.894031    0.900204
    C    1.014981   -0.213716   -1.099172
    C    0.790781   -1.425952   -0.441017
    C   -0.344655    1.597509   -0.129132

FREQUENCIES 15
118.2680
306.1596
349.1772
454.4389
508.0627
508.6963
529.9640
598.2017
754.2633
992.8750
1133.7075
1156.4020
1418.3616
1660.2696
1805.9602

SYMMETRY C1
ELECTRONIC_STATE 4-A
