2
Energy =   -1.1708642654
    H    0.000000    0.000000    0.000000
    H    0.742800    0.000000    0.000000

FREQUENCIES 1
4420.4463

SYMMETRY D*H
ELECTRONIC_STATE 1-SGG
