3
Energy =   -38.55848187900
    C    0.000000    0.000000    0.230158
    H    0.000000    0.774208   -0.690474
    H    0.000000   -0.774208   -0.690474

FREQUENCIES 3
1024.3381
1860.5175
2379.1247

SYMMETRY C2V
ELECTRONIC_STATE 4-A2
