4
Energy =   -75.99004426700
    H    0.002413    1.800961    0.000000
    C    0.001508    0.673121   -0.000000
    C   -0.001508   -0.673121   -0.000000
    H   -0.002413   -1.800961    0.000000

FREQUENCIES 7
465.3018
651.6589
694.1323
985.6859
1539.0360
2771.9961
2888.0055

SYMMETRY C*V
ELECTRONIC_STATE ??
