6
Energy =   -151.14961969000
    C   -1.711279   -0.304665    0.000158
    C   -0.516685    0.315036    0.000252
    C    0.819611   -0.016743    0.000007
    C    2.111697   -0.164311   -0.000139
    H   -2.816386   -0.627476    0.000183
    H   -0.857773    1.459870    0.000710

FREQUENCIES 12
172.7272
293.8063
307.5525
565.0093
788.8235
825.8070
927.6834
962.8581
1448.1053
1785.6701
2191.5417
2622.4822

SYMMETRY CS
ELECTRONIC_STATE 2-A'
