7
Energy =   -189.27748607000
C -0.690445000 -0.000017000 -0.000037000
C  0.551679000  0.827920000 -0.000337000
C  1.682746941 -0.000019058 -0.000384785
C  0.551781034 -0.828029967 -0.000101064
C -2.036751972 -0.000042973  0.000160301
H -3.161597955 -0.000641957  0.000325230
H  2.807750923  0.000061925 -0.000549663

FREQUENCIES 15
200.5981
318.2007
378.7354
478.0707
524.6718
686.7614
735.6248
821.0450
905.4435
985.9655
997.0624
1336.7012
1558.6382
2810.0082
2838.7732

SYMMETRY CS
ELECTRONIC_STATE 4-A"
