7
Energy =   -189.36556206000
C -2.628876012 -0.000223546  0.066780585
C -1.296554961  0.000277472  0.032839062
C  0.000005399  0.000477063 -0.000107402
C  1.296569602  0.000541894 -0.033014637
C  2.628896972  0.000636117 -0.066837608
H -3.750770000 -0.000908000  0.095438000
H  3.750789000 -0.001174000 -0.094767000

FREQUENCIES 16
140.8142
145.6865
325.6157
384.2653
407.4799
418.9437
525.1140
588.8775
743.7101
807.1506
812.6398
1138.9443
1698.9233
1840.7699
2853.9759
2878.1599

SYMMETRY C*V
ELECTRONIC_STATE ??
