7
Energy =   -190.02846238000
    C   -0.658267   -0.140909    0.296757
    C    0.610986    0.847009   -0.001183
    C    1.565846   -0.124401    0.054489
    C    0.493564   -0.929483   -0.274685
    C   -1.950741    0.086683   -0.247719
    H    0.524501    1.885948   -0.351547
    H   -0.892831   -0.319339    1.385586

FREQUENCIES 15
204.1731
253.4002
366.8972
407.0029
567.1745
780.1226
824.2345
920.0206
1034.7426
1073.7837
1275.4430
1287.7189
1463.3049
2740.7424
3040.1723

SYMMETRY C1
ELECTRONIC_STATE 3-A
