7
Energy =   -191.07305729000
C  1.303171629 -0.341913617 -0.123106561
C -0.000042194 -0.764696682 -0.000242346
C -1.303221379 -0.341901273  0.122946368
C -0.660693779  0.856373611 -0.191689154
C  0.660742194  0.856172063  0.192448588
H  2.254501196 -0.792232105  0.088699760
H -2.254587831 -0.791979120 -0.089205489

FREQUENCIES 15
382.4008
462.3141
614.0906
643.9714
737.6954
747.5701
880.8900
1066.2216
1094.0030
1157.7899
1159.1685
1290.6685
1599.7564
3275.8327
3277.7976

SYMMETRY C2
ELECTRONIC_STATE 1-A
