7
Energy =   -190.66336448000
    C    0.525935    0.188720   -0.000060
    C   -0.657330    1.010278   -0.000068
    C   -1.366891   -0.234130    0.000100
    C   -0.248592   -1.094652    0.000116
    C    1.892625    0.142858   -0.000141
    H   -0.869820    2.064991   -0.000160
    H   -0.004659   -2.143440    0.000205

FREQUENCIES 15
87.7121
129.4292
521.4029
570.8339
614.5271
699.2433
838.3472
937.6503
1082.3496
1120.3746
1157.3070
1262.4458
1470.3320
3269.7193
3280.3331

SYMMETRY CS
ELECTRONIC_STATE 4-A'
