7
Energy =   -189.22615258000
C -0.692076996 -0.024655906 -0.000180004
C  2.023168983 -0.069124417  0.000145132
C  0.670457988 -0.057507297 -0.000069030
C -1.242826744  1.355810304  0.006546017
C -1.633742229 -1.174001640 -0.006061175
H  2.624707232 -0.081948794 -0.959449129
H  2.624321746 -0.091453744  0.959806860

FREQUENCIES 15
152.4935
177.6495
273.3589
326.8456
438.2821
478.8761
710.3075
844.9191
972.2661
974.4954
1085.1589
1200.3887
1588.7670
2669.8135
2729.7489

SYMMETRY CS
ELECTRONIC_STATE 2-A'
