7
Energy =   -190.72416841000
    C   -2.383708    0.000291    0.000376
    C   -1.078468    0.000471    0.000166
    C    1.490648   -0.000612   -0.000780
    C    2.747845   -0.000417    0.000424
    C    0.205333    0.000715    0.000167
    H   -2.945609   -0.932899    0.000011
    H   -2.945704    0.933474    0.000006

FREQUENCIES 15
143.9295
146.1921
368.5763
381.0139
470.0516
545.2190
768.8104
814.9306
882.7564
1312.5029
1451.8446
1839.9549
1939.4814
3072.7871
3153.1175

SYMMETRY C1
ELECTRONIC_STATE 4-A
