7
Energy =   -191.11839993000
    C    1.070487   -0.000694    0.000037
    C    2.384885   -0.001055   -0.000513
    C   -0.190032   -0.000049    0.000515
    C   -1.485807    0.000373    0.000597
    C   -2.763816    0.000980   -0.000708
    H    2.952372   -0.926288   -0.000733
    H    2.952837    0.923862   -0.000740

FREQUENCIES 15
130.6999
145.6900
276.2126
286.9538
514.9969
623.8816
770.3228
980.4810
1035.1157
1373.7020
1515.9852
1977.8539
2207.0434
3099.2236
3175.1224

SYMMETRY C1
ELECTRONIC_STATE 1-A
