7
Energy =   -191.02133312000
    C   -1.900309    0.683695   -0.000086
    C   -0.715972    0.173072   -0.000045
    C    0.000477   -1.146678   -0.000129
    C    0.715843    0.173659    0.000073
    C    1.899761    0.685253    0.000225
    H    0.000782   -1.706901   -0.926549
    H    0.000630   -1.707102    0.926168

FREQUENCIES 15
63.0627
166.1011
223.2447
338.0405
679.0631
757.2580
953.0182
982.5166
994.4371
1060.4821
1460.3196
1693.9785
1921.2355
3108.3378
3209.7450

SYMMETRY C2V
ELECTRONIC_STATE 1-A1
