7
Energy =   -191.13319754000
C -2.537905997 -0.000631876 -0.000563767
C -1.301642997 -0.000635716 -0.000526050
C  0.000029000 -0.000356034 -0.000435808
C  1.301707000  0.000032803 -0.000326126
C  2.537950994  0.000686823 -0.000171249
H -3.599648000  0.000894000 -0.000325000
H  3.599671000  0.001160000 -0.000054000

FREQUENCIES 16
133.2345
133.2346
406.9407
406.9407
452.5412
452.5412
454.7314
454.7314
497.2831
497.2831
767.9793
1570.0935
1735.4016
1965.3658
3443.8670
3451.1935

SYMMETRY C*V
ELECTRONIC_STATE 3-SG
