7
Energy =   -191.04375246000
C  0.012781003 -0.876288045 -0.000768171
C -1.252542002  0.168116036  0.000196614
C -0.083220381  0.397611154 -0.898884299
C  1.049677995  0.200627070  0.000096741
C -0.083120610  0.396070708  0.899539610
H  0.014101956 -1.947755317 -0.001686013
H  2.124433985  0.230936237  0.000063077

FREQUENCIES 15
288.8563
319.7788
528.3417
752.7820
786.3366
817.2441
878.0693
923.3495
964.3421
1090.7298
1102.9431
1207.5319
1326.0734
3274.0624
3305.3572

SYMMETRY CS
ELECTRONIC_STATE 1-A'
