7
Energy =   -190.11884325000
    C   -0.591766   -0.082002    0.084814
    C    0.677415    0.832538    0.058708
    C    1.559664   -0.147984   -0.326031
    C    0.563881   -0.938155    0.250590
    C   -1.842333    0.008096   -0.110192
    H   -2.923184    0.119677   -0.238042
    H    0.720016    1.844908    0.489646

FREQUENCIES 15
236.4833
260.4638
415.2746
469.4877
617.3014
647.2100
837.0315
919.2912
938.0766
1087.8578
1217.7470
1427.6863
1781.3155
3027.7431
3148.8098

SYMMETRY C1
ELECTRONIC_STATE 3-A
