7
Energy =   -153.40949784000
    C    0.000000    0.000000   -1.737820
    H    0.000000    1.034271   -2.112389
    H    0.895705   -0.517136   -2.112389
    H   -0.895705   -0.517136   -2.112389
    C    0.000000    0.000000   -0.335534
    C    0.000000    0.000000    0.905820
    C    0.000000    0.000000    2.223729

FREQUENCIES 15
118.6967
118.7034
417.4051
417.4063
815.6988
964.9864
964.9881
1350.5721
1359.5065
1359.5067
1470.8673
2245.1699
2955.3109
3019.3691
3019.3699

SYMMETRY C3V
ELECTRONIC_STATE 1-A1
