7
Energy =   -151.84968089000
    C    1.725070    0.108304    0.000077
    H    2.248714    1.120813    0.000104
    H    2.890000   -0.474497    0.000106
    H    2.114685   -1.114798    0.000075
    C    0.371863   -0.010260    0.000035
    C   -0.885761   -0.018428   -0.000003
    C   -2.419847   -0.001387   -0.000049

FREQUENCIES 15
165.8052
289.8074
344.7053
367.7312
387.7538
688.3124
714.5268
894.4130
1093.3545
1289.4569
1434.4275
1483.5795
1998.3254
2263.6108
2668.9819

SYMMETRY CS
ELECTRONIC_STATE 1-A'
