7
Energy =   -151.84715780000
C -0.000490308 -0.994049066 -0.359617992
C  1.079885911 -0.081415224  0.163193597
C  0.000388500  0.914324036 -0.055879005
H  0.000860510  1.824961790 -0.784646101
C -1.080071016 -0.080399841  0.163063412
H -2.097010922 -0.186874114  0.659914097
H  2.096665362 -0.188845537  0.660166858

FREQUENCIES 15
402.9921
472.5898
564.3511
732.4706
825.4854
931.2121
940.2422
973.2534
974.6057
1035.1505
1083.8008
1113.7009
2306.4587
2662.2493
2715.5307

SYMMETRY C1
ELECTRONIC_STATE 3-A
