7
Energy =   -153.46091630000
C  1.166318980 -0.000063551  0.000134759
H  1.747800304  0.000018989 -0.917859170
H  1.747583684 -0.000218683  0.918265855
C -0.089575332  0.779806348  0.000087540
C -1.191440977  0.000083647 -0.000143383
H -2.269164939  0.000150931 -0.000270520
C -0.089672675 -0.779776630 -0.000114347

FREQUENCIES 15
454.6169
585.6021
823.1182
865.5711
1023.0278
1047.1981
1052.0598
1125.8063
1174.0330
1187.3141
1462.9931
1654.5591
3101.8204
3184.1104
3283.5103

SYMMETRY C1
ELECTRONIC_STATE 1-A
