8
Energy =   -189.94410653000
C  0.694626959 -0.979266810 -0.141359668
C  1.250110820  0.240684034  0.240844810
H  2.247385559  0.633603439  0.574208912
C  0.000083522  0.967619007 -0.223360009
H  0.000195288  1.788438980 -0.999790972
C -0.694702116 -0.979185174 -0.141473356
C -1.250105150  0.240830945  0.240640219
H -2.247388252  0.633867548  0.573841106

FREQUENCIES 18
277.1335
322.0780
377.1108
489.5159
753.2183
783.6900
863.2789
865.7052
959.5023
1001.3927
1059.1858
1086.4371
1119.5691
1224.9054
1495.5215
2738.4114
2814.6194
2835.4898

SYMMETRY C1
ELECTRONIC_STATE 3-A
