8
Energy =   -191.34360027000
C  2.287412000 -0.045932000  0.000186000
H  3.313557000  0.285752000  0.000104000
C  1.075605996 -0.391496971  0.000264209
H  0.844155962 -1.462720700  0.000685054
C -0.131645990  0.560595922 -0.000181345
H  0.112856029  1.615049768 -0.000594758
C -1.347739999  0.085261995 -0.000050953
C -2.595645006 -0.281275951  0.000033898

FREQUENCIES 18
55.2013
149.0515
202.6092
224.4048
487.1855
644.0283
692.2666
698.0442
871.2223
970.0927
1081.0410
1165.9778
1326.1398
1733.1440
1997.6429
3044.3089
3184.6523
3298.8937

SYMMETRY CS
ELECTRONIC_STATE 1-A'
