8
Energy =   -189.89842827000
C  0.609864011  0.446250895  0.000276753
H  0.757963003  1.580345971  0.001157031
C  1.936806991 -0.062340913 -0.000231025
H  2.514906055 -0.192686895 -0.961097957
H  2.515061899 -0.194198652  0.960335819
C -1.787378975  0.963040755  0.000877792
C -0.723283977 -0.056572228 -0.000010732
C -1.001075047 -1.489824544 -0.001115863

FREQUENCIES 18
174.1183
190.8588
326.2931
344.4416
384.0197
521.7818
731.2388
747.5748
920.1557
988.7165
1083.4511
1159.0387
1233.6982
1280.5074
1406.2169
2612.2226
2708.4232
2791.5789

SYMMETRY CS
ELECTRONIC_STATE 1-A'
