8
Energy =   -190.00337862000
    C   -2.148777   -0.000002   -0.229162
    C   -0.581583   -0.000009    0.024803
    C    0.431814   -1.002623    0.230039
    H    0.507447   -2.015204    0.685701
    C    1.333054    0.000008   -0.312131
    H    2.187265    0.000009   -1.032945
    C    0.431804    1.002624    0.230040
    H    0.507408    2.015204    0.685709

FREQUENCIES 18
231.6522
288.8412
425.6725
495.7867
715.6393
888.3663
938.6108
944.6742
1004.0807
1057.8572
1059.5825
1118.7503
1242.2943
1257.0312
1295.1888
2873.2660
2930.4076
2945.7918

SYMMETRY CS
ELECTRONIC_STATE 1-A'
