8
Energy =   -191.37856273000
    C    0.000000    0.000000   -0.973894
    C    0.000000    0.000000    0.280238
    C    0.000000    0.000000    1.567906
    C    0.000000    0.000000    2.896008
    C    0.000000    0.000000   -2.386917
    H    0.000000    1.030539   -2.766681
    H    0.892473   -0.515270   -2.766681
    H   -0.892473   -0.515270   -2.766681

FREQUENCIES 18
60.5787
60.5812
227.8358
227.8387
459.5790
459.5931
691.2457
961.7464
961.7498
1177.1918
1366.5511
1373.8542
1373.8549
1776.8365
2171.3540
2962.6752
3028.0666
3028.0670

SYMMETRY C3V
ELECTRONIC_STATE 3-A1
