5
Energy =   -39.13725495100
    C    0.000000    0.000000    0.000000
    H    0.000000    0.741251   -0.987390
    H   -0.741251    0.000000    0.987390
    H    0.000000   -0.741251   -0.987390
    H    0.741251    0.000000    0.987390

FREQUENCIES 9
626.7315
626.7315
920.0357
1054.2257
1217.5292
1535.3734
1535.3734
2179.5613
2372.6668

SYMMETRY D2D
ELECTRONIC_STATE 3-A1
