5
Energy =   -40.43298181800
    C    0.000000    0.000000    0.000000
    H    0.628470    0.628470    0.628470
    H   -0.628470   -0.628470    0.628470
    H   -0.628470    0.628470   -0.628470
    H    0.628470   -0.628470   -0.628470

FREQUENCIES 9
1343.3771
1343.3771
1343.3771
1560.8380
1560.8380
3023.0473
3125.0951
3125.0951
3125.0951

SYMMETRY TD
ELECTRONIC_STATE 1-A1
