5
Energy =   -39.96105956300
    C    0.000000    0.000000    0.000000
    H    0.000000    1.055625    0.373451
    H    0.000000   -1.055625    0.373451
    H   -1.055625    0.000000   -0.373451
    H    1.055625    0.000000   -0.373451

FREQUENCIES 9
358.1058
358.1058
1064.8487
1296.0774
1446.5416
2667.0412
2801.2550
2863.5457
2863.5457

SYMMETRY D2D
ELECTRONIC_STATE 2-B2
