7
Energy =   -115.32268914000
C  0.947066160 -0.266626805 -0.001047415
H  1.136454395 -1.341504716 -0.002345120
H  1.894350065  0.379622398 -0.489879622
H  1.895087875  0.378572110  0.487741848
C -0.227217666  0.411206524  0.000567032
C -1.484693367 -0.300264901  0.000751692
H -0.336825869  1.517416390  0.001838187

FREQUENCIES 15
275.3539
341.0935
487.6317
827.1483
864.0566
949.5292
967.4521
1142.4064
1238.2733
1458.0615
1581.5733
1902.8050
2463.7056
2902.3715
3123.8912

SYMMETRY CS
ELECTRONIC_STATE 1-A'
