8
Energy =   -154.32528954000
    C    1.545447   -0.116296    0.000007
    H    2.044814   -1.078416    0.000043
    H    2.169942    0.770519   -0.000795
    C    0.220881    0.008981    0.000587
    C   -1.127719   -0.518946   -0.000066
    H   -1.576385   -0.924961    0.905403
    H   -1.574016   -0.926626   -0.906086
    C   -0.816001    0.986176   -0.000289

FREQUENCIES 18
122.2146
324.2194
340.6920
674.6492
694.1425
938.8782
979.2539
981.0802
1017.6918
1054.1585
1199.9891
1388.6093
1472.9254
1768.5661
3048.1051
3104.1356
3110.1998
3195.9096

SYMMETRY C1
ELECTRONIC_STATE 1-A
