8
Energy =   -152.48837827000
    C   -1.810576   -0.621918    0.050800
    C    0.461310    0.234459    0.365245
    H    0.523069    0.486791    1.479997
    C    1.665481   -0.229429   -0.178850
    H    1.925743   -1.305099   -0.420209
    H    2.512805    0.517654   -0.344439
    C   -0.938750    0.436568   -0.228267
    H   -1.226408    1.382573   -0.768920

FREQUENCIES 18
156.5729
263.2510
338.5654
475.1930
639.1774
746.2497
792.8826
897.3801
1026.6342
1083.2866
1153.4314
1177.6125
1224.2892
1292.6018
2583.0824
2607.3906
2711.3803
2754.1111

SYMMETRY C1
ELECTRONIC_STATE 4-A
