8
Energy =   -153.90449960000
    C    0.010802    0.020500    0.077009
    C   -1.469153   -0.098646   -0.007274
    H   -1.792430   -0.571373    0.927255
    H   -1.938381    0.876928   -0.101057
    H   -1.731607   -0.738702   -0.849167
    C    0.896156    1.054308   -0.011398
    C    1.144308   -0.714821   -0.127633
    H    1.969738   -1.134899    0.438747

FREQUENCIES 18
70.8065
233.5238
355.1905
377.8122
604.1337
761.2759
809.7337
945.3911
983.7386
1098.7899
1355.2774
1407.8668
1452.6638
1511.6168
3008.1908
3099.2187
3151.1053
3173.5408

SYMMETRY C1
ELECTRONIC_STATE 4-A
