8
Energy =   -153.40341529000
    C    1.850904    0.001793   -0.003733
    H    2.304695   -0.818789    0.620910
    H    2.285034    0.959928    0.413351
    H    2.216078   -0.099961   -1.058617
    C    0.484706   -0.032279    0.005445
    C   -0.816526   -0.002946    0.001150
    C   -2.127741    0.077545    0.003955
    H   -3.153865   -0.305853   -0.016549

FREQUENCIES 18
130.5822
182.7659
206.9359
299.8539
407.0533
462.3857
701.8930
799.6265
808.0443
954.6942
1076.3323
1239.1443
1460.1942
1856.9029
2601.8115
2691.1504
2798.7113
3113.5745

SYMMETRY C1
ELECTRONIC_STATE 3-A
