8
Energy =   -153.36279629000
C -1.267293911 -0.000333607 -0.000145964
C  0.000247021 -0.756483747  0.000404031
H -1.883218042 -0.000608370 -0.929026017
H -1.883859941 -0.000401050  0.928108024
H  1.884086857  0.000644908  0.927972942
C -0.000172985  0.756520253  0.000234983
C  1.267220898  0.000369967 -0.000156041
H  1.882980843  0.000437112 -0.929077063

FREQUENCIES 18
259.1164
390.0956
428.7268
783.2974
817.2507
881.4435
917.0703
944.3328
1090.9977
1100.0215
1124.5168
1182.8335
1332.8182
1343.8454
2767.5278
2840.2838
2843.4270
2876.1290

SYMMETRY C1
ELECTRONIC_STATE 3-A
