8
Energy =   -154.27982790000
    C   -1.143470    0.000008    0.131898
    C   -0.000021   -0.863306   -0.253507
    H   -2.044332   -0.000039   -0.474443
    H   -1.380306    0.000089    1.205540
    H    1.380561    0.000091    1.205259
    C   -0.000022    0.863265   -0.253638
    C    1.143505    0.000010    0.131665
    H    2.044244   -0.000036   -0.474860

FREQUENCIES 18
364.1665
629.7709
768.4270
821.9021
848.2026
891.4965
1044.5238
1059.2619
1100.6577
1111.8840
1136.1648
1215.2884
1421.5799
1442.1046
2932.5609
2944.7406
3122.6804
3122.7266

SYMMETRY C2V
ELECTRONIC_STATE 3-B2
