9
Energy =   -191.97735967000
    C   -0.546393   -0.985483    0.000102
    H   -0.605780   -1.594400    0.902227
    H   -0.605970   -1.593536   -0.902623
    C   -1.469109    0.232416   -0.000131
    H   -2.543935    0.353209   -0.000218
    C    0.607311    0.096426    0.000244
    C   -0.383481    1.094148    0.000019
    C    1.950077    0.124168    0.000082
    H    2.805255   -0.535324   -0.001278

FREQUENCIES 21
155.8387
336.9028
483.4851
684.9258
718.8991
755.6603
805.7496
826.5629
911.0771
970.6978
1094.3257
1104.1726
1187.3268
1235.0429
1337.8208
1449.9925
1557.6692
3051.6596
3123.7276
3223.6585
3243.2016

SYMMETRY C1
ELECTRONIC_STATE 4-A
