9
Energy =   -191.84678953000
    C    1.369754   -0.692848   -0.501052
    C    0.230232   -0.296241    0.069281
    H    2.026851    0.661683    1.133068
    C   -1.174792   -0.345417    0.341520
    H   -1.446147    0.121544    1.316053
    H   -1.597122   -1.359663    0.316336
    C   -2.035617    0.598662   -0.465779
    C    1.520390    0.580632    0.165210
    H    1.556613    1.507708   -0.420538

FREQUENCIES 21
117.5598
174.4188
310.3723
480.5099
525.9121
636.7644
822.7424
858.0383
866.6368
947.6840
1009.4113
1079.8141
1104.1342
1152.3201
1319.7889
1365.4498
1675.1424
2871.8121
2970.8790
2997.7198
3038.0659

SYMMETRY C1
ELECTRONIC_STATE 4-A
