9
Energy =   -192.37645559000
    C   -0.573425   -0.957770   -0.302426
    C    0.557792   -0.000949   -0.041859
    C    1.870109   -0.028420    0.110146
    H    2.429269    0.867464    0.338877
    H    2.410132   -0.961891    0.040103
    C   -0.592375    0.880258   -0.067888
    H   -0.757893    1.701396   -0.765135
    C   -1.515293   -0.130287    0.279427
    H   -2.562355   -0.183963    0.521751

FREQUENCIES 21
271.3618
349.2829
539.2932
654.6129
707.1217
779.4788
810.2935
899.4278
903.8040
1000.9561
1059.2089
1090.0748
1200.6713
1291.0255
1422.3388
1452.2811
1776.0456
3078.9663
3147.7613
3233.6416
3257.7085

SYMMETRY C1
ELECTRONIC_STATE 1-A
