9
Energy =   -191.50965606000
    C   -1.476938   -0.263235    0.056603
    H   -2.483796   -0.655340   -0.109670
    C   -0.634983    0.763281   -0.257217
    C   -0.195684   -0.657903    0.292837
    H    1.349183   -0.980464   -1.131878
    C    0.715566    0.857428    0.015044
    H    1.068616    1.558133    0.784687
    C    1.258229   -0.546202   -0.123813
    H    2.062164   -0.837965    0.556717

FREQUENCIES 21
379.6996
420.0859
508.4989
603.0535
687.1730
843.5854
918.1993
933.6659
984.9437
1043.3354
1070.4071
1123.5735
1149.5220
1224.4926
1329.7511
1422.3744
1625.5217
2980.7640
3039.6750
3102.4121
3131.6871

SYMMETRY C1
ELECTRONIC_STATE 1-A
