9
Energy =   -191.44193374000
C -0.000395610  2.303181995  0.000000000
C -1.225270484 -1.057220793 -0.000000000
H -1.239848964 -2.147381338 -0.000000000
H -2.184563630 -0.539949239 -0.000000000
C -0.000186033  1.058202013  0.000000000
C  0.000051319 -0.351769991 -0.000000000
C  1.225610560 -1.056808217  0.000000000
H  2.184729499 -0.539213722  0.000000000
H  1.240556069 -2.146963792  0.000000000

FREQUENCIES 21
177.8705
263.5233
344.9241
404.1469
521.3223
524.1223
600.6551
815.0717
987.4734
1009.3134
1166.2756
1188.2802
1314.6100
1353.7870
1504.9807
1515.4065
2086.9111
3087.6170
3090.3962
3196.1597
3199.0210

SYMMETRY C2V
ELECTRONIC_STATE 3-B1
