9
Energy =   -191.99144215000
C  1.320115000  0.349565000  0.000043000
H  2.190138000  1.009049000  0.000107000
C  1.558606010 -1.031210997  0.000035181
H  2.432172020 -1.666906995  0.000078361
C -1.086238997  0.186161001 -0.000107042
C -2.107770019 -0.507257005 -0.000180873
H -2.997627985 -1.100712996 -0.000245015
C  0.050222003  0.956533001 -0.000024922
H -0.032562000  2.035414000 -0.000012469

FREQUENCIES 21
142.8959
199.3763
363.9099
448.5616
524.3377
614.9836
642.1446
670.2725
678.7316
877.2634
958.3537
980.0895
1102.6678
1228.0871
1401.9618
1476.8073
2035.5147
3086.9887
3187.3868
3229.8780
3381.3542

SYMMETRY C1
ELECTRONIC_STATE 4-A
