9
Energy =   -192.08816793000
    C    0.000182   -1.236153    0.000011
    C    1.167717   -0.448773    0.000056
    H    2.192013   -0.789753    0.000111
    C    0.710456    0.902415    0.000014
    H    1.342914    1.778523    0.000032
    C   -0.710717    0.902207   -0.000055
    H   -1.343432    1.778129   -0.000099
    C   -1.167582   -0.449114   -0.000058
    H   -2.191779   -0.790394   -0.000103

FREQUENCIES 21
401.4957
482.2941
724.5264
816.0304
818.9094
850.8504
894.7817
939.0794
982.7561
1021.9107
1109.2357
1134.9484
1233.6828
1366.0427
1373.6014
1403.9925
1421.7635
3214.4721
3223.4871
3233.6988
3238.7504

SYMMETRY C2V
ELECTRONIC_STATE 4-B1
