9
Energy =   -191.95408731000
    C   -0.430946    1.084186    0.000000
    H   -1.502593    1.291002    0.000000
    C    0.463027    2.096661    0.000000
    H    0.458378    3.178162    0.000000
    C    0.000000   -0.234882    0.000000
    C    0.894974   -1.229413    0.000000
    C   -0.455868   -1.745210    0.000000
    H   -0.891454   -2.148609   -0.917551
    H   -0.891454   -2.148609    0.917551

FREQUENCIES 21
156.3439
214.4433
315.6009
435.1995
674.2412
681.9910
850.0265
856.5330
872.6882
950.7870
997.4874
1015.2464
1124.5307
1261.2540
1379.0118
1467.4732
1725.2777
3009.6712
3074.7319
3083.8845
3226.3864

SYMMETRY CS
ELECTRONIC_STATE 4-A"
