9
Energy =   -191.47087410000
    H   -2.799858    1.121191    0.000151
    C    0.254726   -0.399136   -0.000023
    H    1.277149    1.572646   -0.000278
    H    0.417288   -1.495948    0.000048
    C    2.535217   -0.178178   -0.000260
    C   -1.080885   -0.088056    0.000081
    C    1.329459    0.477832   -0.000196
    C   -2.344696    0.111249    0.000187
    H   -3.058869   -0.739318    0.000323

FREQUENCIES 21
136.9974
149.0346
211.5426
346.9914
401.0018
403.8220
756.7954
818.3946
891.9911
917.9536
943.9286
1061.7930
1217.1067
1231.6023
1346.5987
1527.1394
1752.5601
2897.2531
2934.1303
2957.4444
3055.2871

SYMMETRY CS
ELECTRONIC_STATE 1-A'
