9
Energy =   -192.04842186000
    C   -1.442188   -0.065151   -0.008198
    H   -2.509497   -0.090674   -0.158662
    C   -0.444963    0.928055   -0.042025
    C   -0.428987   -0.887435    0.161818
    H    1.319967   -1.092077   -1.041377
    C    0.904615    0.815262   -0.009349
    H    1.619726    1.560916    0.307719
    C    1.055543   -0.670507   -0.068767
    H    1.703166   -1.093049    0.700593

FREQUENCIES 21
256.2586
410.4972
425.4773
547.5272
719.6025
770.7377
821.6237
885.4876
984.2952
997.0560
1076.5690
1119.3162
1164.4333
1232.7794
1316.5591
1419.1763
1651.8554
3052.5628
3106.8730
3209.7912
3256.0188

SYMMETRY C1
ELECTRONIC_STATE 2-A
