9
Energy =   -191.90177933000
    C    2.463730    0.168157    0.006216
    H    2.876259    1.164811   -0.126127
    H    3.154328   -0.659481    0.143723
    C    1.143166   -0.032753   -0.001553
    C   -0.093809   -0.239319   -0.012886
    C   -2.407888    0.762501   -0.003912
    C   -1.484636   -0.428043   -0.024878
    H   -1.897686   -0.732348    0.978655
    H   -1.858908   -1.154091   -0.762903

FREQUENCIES 21
129.1681
139.6142
301.2676
341.6970
384.9857
419.2246
533.8258
742.9567
784.2007
876.7364
918.5708
1008.6228
1120.8581
1269.7844
1321.7345
1399.8585
1959.6008
2766.8613
2973.4366
3090.3832
3180.1083

SYMMETRY C1
ELECTRONIC_STATE 4-A
