9
Energy =   -190.48186473000
    C   -0.756646   -0.058029    0.274762
    C    0.350618   -1.037113   -0.145503
    C    1.437612   -0.102974   -0.037795
    H   -0.984294   -0.158658    1.401236
    H    2.263545   -0.059554   -0.851729
    H    2.278812   -0.237858    0.755856
    C   -2.114085   -0.008210   -0.278951
    C    0.420354    0.946765    0.020648
    H    0.414826    2.013436   -0.304335

FREQUENCIES 21
227.9321
351.3760
401.9010
477.3426
663.8600
694.2895
744.8220
747.1530
800.5857
851.8843
881.8772
943.6247
1048.9169
1062.1853
1129.7636
1141.9384
1247.3407
2353.6242
2485.1313
2539.3092
2902.7571

SYMMETRY C1
ELECTRONIC_STATE 4-A
