9
Energy =   -192.33987923000
C -1.541218951  0.000363306  0.000070882
C -0.620748504 -1.046682635  0.000120480
H -0.645432417 -2.121376106  0.000216292
C  0.444713024 -0.000126173 -0.000021063
C  1.774842942 -0.000454015 -0.000082646
H  2.332612249 -0.926213031 -0.000026932
H  2.333068524  0.925029938 -0.000190028
C -0.620232487  1.046955377 -0.000063971
H -0.644386639  2.121660885 -0.000157522

FREQUENCIES 21
240.2089
349.1868
497.0755
563.2880
643.1030
719.8402
731.6143
809.8629
881.4669
900.2365
1010.6646
1106.7315
1136.5867
1186.8360
1373.7794
1447.6773
1706.1138
3144.5422
3230.5640
3264.5509
3269.2830

SYMMETRY C1
ELECTRONIC_STATE 3-A
