9
Energy =   -190.64359968000
    C    0.009123    0.623158   -0.004040
    H    0.054969    1.551723   -0.745135
    H    3.462887   -0.870002   -0.000883
    H   -3.497817   -0.894778    0.003862
    C   -1.281013   -0.001942   -0.000839
    C    1.237711   -0.010963   -0.002667
    C   -2.467365   -0.478058    0.002199
    H    0.052896    1.561128    0.723758
    C    2.430904   -0.462412   -0.002012

FREQUENCIES 21
143.2256
248.1092
313.8271
321.0919
518.3296
524.2257
558.1030
712.6905
755.1577
761.0555
857.2650
861.2618
928.0914
968.1224
1251.7421
1840.6883
1954.5902
2143.9234
2347.2586
2990.5313
3011.2080

SYMMETRY C1
ELECTRONIC_STATE 2-A
