9
Energy =   -192.02255346000
C  1.047341776 -0.619220797  0.000866363
H  1.623219790 -0.927097810  0.881430039
H  1.623948790 -0.927757810 -0.878988961
C -0.338666961 -1.119742036  0.000480060
C -0.584887944  1.063823949 -0.000440544
C -1.308964907 -0.132223084 -0.000291978
H -2.382304736 -0.258585239 -0.000689080
C  0.781105056  0.886188950  0.000191719
H  1.558923921  1.639063071  0.000231558

FREQUENCIES 21
343.5155
447.3419
730.1687
768.4012
803.1023
863.8337
903.6617
929.0890
953.0801
1093.0554
1109.6608
1190.1785
1229.1668
1338.1829
1367.8824
1370.8697
1444.4785
3018.7807
3049.4199
3204.2907
3217.7251

SYMMETRY CS
ELECTRONIC_STATE 4-A"
