9
Energy =   -191.41982217000
    C    0.375304   -0.038197    0.060851
    C   -1.634871   -0.165658   -0.317709
    C   -0.670851   -1.019838    0.243384
    H    2.229044   -0.406276    0.836855
    C    1.784083    0.039533   -0.090368
    H    2.170006    1.039437   -0.279894
    H    2.126727   -0.707057   -0.841820
    C   -0.787226    0.878190    0.079050
    H   -0.924412    1.909710    0.433603

FREQUENCIES 21
83.6309
256.8052
358.4292
453.9980
608.9039
791.3932
860.6045
910.3303
960.4265
1016.6291
1068.7352
1179.5839
1240.6919
1308.3460
1353.2436
1410.0992
1461.0670
2799.9046
2861.3581
3049.1462
3131.6880

SYMMETRY C1
ELECTRONIC_STATE 3-A
