9
Energy =   -192.34461003000
    C   -0.468009   -0.000702    0.516808
    C    0.737579   -0.738168    0.072906
    C    1.852159    0.000423   -0.354583
    C    0.737610    0.738019    0.074626
    H   -0.635558   -0.002102    1.590942
    C   -1.728719    0.000437   -0.316869
    H   -2.322465   -0.883744   -0.086275
    H   -2.323621    0.882358   -0.081388
    H   -1.502077    0.003427   -1.380598

FREQUENCIES 21
191.2935
267.8061
370.6857
502.0491
560.9996
827.3195
943.6590
1030.6011
1037.8546
1117.7295
1132.3372
1224.3487
1396.8204
1418.6532
1492.8080
1494.4899
1518.6749
3044.0084
3103.4725
3109.0138
3130.1723

SYMMETRY C1
ELECTRONIC_STATE 1-A
