9
Energy =   -192.08816793000
C  0.000182302 -1.236152999  0.000010602
C  1.167716601 -0.448772641  0.000056144
H  2.192012995 -0.789752760  0.000111212
C  0.710455884  0.902414979  0.000013996
H  1.342914228  1.778522543  0.000032080
C -0.710717113  0.902207021 -0.000055476
H -1.343431828  1.778129455 -0.000099238
C -1.167582378 -0.449114361 -0.000058014
H -2.191778939 -0.790394232 -0.000103083

FREQUENCIES 21
401.4957
482.2941
724.5264
816.0304
818.9094
850.8504
894.7817
939.0794
982.7561
1021.9107
1109.2357
1134.9484
1233.6828
1366.0427
1373.6014
1403.9925
1421.7635
3214.4721
3223.4871
3233.6988
3238.7504

SYMMETRY C2
ELECTRONIC_STATE 4-B
