9
Energy =   -190.65444066000
    C    0.651491    0.779706    0.053101
    C   -0.615751    0.000339    0.390257
    C    0.651502   -0.779798    0.053812
    C    1.745403   -0.000083   -0.212868
    H   -0.884302    0.000903    1.495038
    H    2.840614    0.000006   -0.447514
    C   -1.936763   -0.000187   -0.297012
    H   -2.465412   -0.960605   -0.485846
    H   -2.466186    0.959838   -0.485422

FREQUENCIES 21
253.1913
307.4139
369.3919
445.0596
521.0214
688.5009
805.9952
890.3962
930.1300
968.8724
1009.3640
1078.6294
1089.0611
1186.1318
1364.0582
1388.6815
1530.1278
2653.3417
2852.5149
2876.6269
2989.2560

SYMMETRY C1
ELECTRONIC_STATE 2-A
