9
Energy =   -192.30975133000
C -1.127750434 -0.517552139  0.000236018
H -1.169058090 -1.600739336  0.000443116
H -2.086932643 -0.016744841  0.000148347
H  1.163989874 -1.604297764  0.000424525
C  0.000062140  0.103877790 -0.802004412
C  0.000075390  0.104184002  0.802220523
C  0.002003027  1.372211824 -0.000134028
C  1.125986612 -0.520989601  0.000218059
H  2.086692043 -0.023110568  0.000115090

FREQUENCIES 21
222.3332
429.1271
475.4327
615.2160
738.2728
877.8193
950.3240
967.4261
1063.5455
1085.3525
1097.3788
1140.4606
1155.0488
1161.2375
1229.7190
1474.9344
1512.1940
3106.8429
3114.5886
3200.9359
3204.1368

SYMMETRY CS
ELECTRONIC_STATE 1-A'
