2
Energy =   -38.38349419700
    H    0.000000    0.000000   -0.937165
    C    0.000000    0.000000    0.156194

FREQUENCIES 1
3047.0349

SYMMETRY C*V
ELECTRONIC_STATE 4-SG
