2
Energy =   -37.97812560400
    H    0.000000    0.000000   -0.978702
    C    0.000000    0.000000    0.163117

FREQUENCIES 1
2614.3758

SYMMETRY C*V
ELECTRONIC_STATE ??
