4
Energy =   -113.42220592000
    C   -1.396729    0.000227   -0.001027
    C   -0.126581   -0.000482    0.001272
    C    1.146681    0.000288    0.000645
    H    2.260737    0.001139   -0.000830

FREQUENCIES 7
251.1417
251.1478
837.0839
837.0840
1262.2436
2129.6335
2983.2099

SYMMETRY C*V
ELECTRONIC_STATE 2-SG
