4
Energy =   -113.30220853000
    H    0.000000    0.000000    1.765156
    C    0.000000    0.000000    0.615289
    C    0.000000    0.835405   -0.454741
    C    0.000000   -0.835405   -0.454741

FREQUENCIES 6
123.1092
607.9603
818.2237
1161.9574
1479.3347
2537.0716

SYMMETRY C2V
ELECTRONIC_STATE 4-B2
