4
Energy =   -112.29107616000
    H    0.000000    0.000000    1.588768
    C    0.000000    0.000000    0.299969
    C    0.000000    1.229850   -0.282382
    C    0.000000   -1.229850   -0.282382

FREQUENCIES 6
385.8644
491.3376
746.6986
1054.6169
1461.5201
1550.1396

SYMMETRY C2V
ELECTRONIC_STATE 3-B2
