4
Energy =   -114.12667816000
    C   -1.424252    0.000168    0.000001
    C   -0.086835   -0.000304    0.000004
    C    1.140849    0.000083   -0.000011
    H    2.221427    0.000318    0.000036

FREQUENCIES 7
148.9482
148.9584
838.6738
838.6741
1205.0527
2180.6441
3301.5388

SYMMETRY C*V
ELECTRONIC_STATE 1-SG
