5
Energy =   -150.48582619000
C -0.002360378  1.099631684  0.000000000
H -0.004759497  2.258764294  0.000000000
C  0.002385919 -1.193537959 -0.000000000
C  0.000208000 -0.141278000  0.803935000
C  0.000208000 -0.141278000 -0.803935000

FREQUENCIES 9
368.4927
661.7060
773.0184
856.7271
936.2446
1163.6223
1507.4761
1606.9740
2547.9259

SYMMETRY C2V
ELECTRONIC_STATE 1-A1
