5
Energy =   -152.47298011000
C -2.041711000  0.056540000  0.000005000
C -0.769739000 -0.072601000  0.000052000
C  0.558438000 -0.017071991 -0.000040354
C  1.779338999  0.023592977 -0.000117539
H  2.842017009  0.057056168 -0.000183285

FREQUENCIES 9
152.8616
410.8148
426.7518
526.2018
703.0801
929.5853
1831.8419
2064.6165
3442.5961

SYMMETRY CS
ELECTRONIC_STATE 2-A'
