5
Energy =   -150.42757897000
    C    0.000497    0.844054    0.000001
    H    0.001970    2.034158   -0.000000
    C    0.000246   -0.892121   -0.000000
    C   -0.000664   -0.145466    1.150113
    C   -0.000664   -0.145466   -1.150113

FREQUENCIES 9
295.2966
647.0457
694.5887
755.5707
865.5354
887.9534
1291.6437
1431.5675
2186.4839

SYMMETRY CS
ELECTRONIC_STATE 3-A"
