5
Energy =   -150.46661440000
    H    1.642487   -0.803186    0.000000
    C    0.478409   -0.614328   -0.000000
    C   -0.000020    0.585275   -0.000000
    C   -0.503164    2.172658    0.000000
    C   -0.248725   -2.009222    0.000000

FREQUENCIES 9
185.9865
247.2359
412.5859
569.4555
571.9528
687.1867
850.2068
1699.0118
2278.5471

SYMMETRY CS
ELECTRONIC_STATE 1-A'
