5
Energy =   -151.36257690000
    H    1.549633   -0.868311    0.000000
    C    0.450305   -0.588836    0.000000
    C    0.000000    0.666835    0.000000
    C   -0.441390    1.866246    0.000000
    C   -0.267188   -1.799526    0.000000

FREQUENCIES 9
215.1487
349.5093
488.9109
629.6636
841.1695
1003.5794
1321.6408
1877.4660
2685.5451

SYMMETRY CS
ELECTRONIC_STATE 4-A"
