5
Energy =   -152.36466378000
    H    1.045217   -2.154902    0.000000
    C    0.146056   -1.550807    0.000000
    C    0.000000   -0.168848    0.000000
    C    0.525120    1.067447    0.000000
    C   -0.845379    1.011358    0.000000

FREQUENCIES 9
344.7483
406.3054
625.0233
679.4940
897.0115
950.5201
1315.5221
1647.6888
3173.0396

SYMMETRY CS
ELECTRONIC_STATE 4-A"
