5
Energy =   -151.45756317000
    H    2.936722    0.000359   -0.000007
    C    1.833749   -0.000330   -0.000005
    C    0.551818    0.000373   -0.000007
    C   -0.717727    0.000261    0.000003
    C   -2.157292   -0.000290    0.000002

FREQUENCIES 10
61.5693
131.1214
315.4665
346.6813
629.1424
822.7541
893.1857
1385.1939
2074.1302
3065.5854

SYMMETRY C*V
ELECTRONIC_STATE ??
