5
Energy =   -152.05509183000
    H    1.134144   -1.747253    0.000000
    C    0.282163   -1.079378    0.000000
    C    0.000000    0.366791    0.000000
    C    0.476426    1.649467    0.000000
    C   -0.947613   -0.645671    0.000000

FREQUENCIES 9
246.2423
334.8419
730.2567
823.3457
918.8156
992.2889
1402.8150
1723.0468
3236.6523

SYMMETRY CS
ELECTRONIC_STATE 3-A"
