5
Energy =   -152.10296022000
    H    2.864525   -0.088572    0.000000
    C    1.789621   -0.035205    0.000000
    C    0.544867    0.028446    0.000000
    C   -0.746221    0.099285    0.000000
    C   -2.065606   -0.078411    0.000000

FREQUENCIES 9
145.1367
367.4629
394.9246
669.9635
677.6740
930.2299
1630.4878
2027.9630
3317.8566

SYMMETRY CS
ELECTRONIC_STATE 3-A"
