6
Energy =   -190.36440563000
    H   -1.405942    0.000000    1.470518
    C   -1.087699    0.000000    0.425192
    C    0.317552    0.000000    0.172861
    C    1.509084   -0.677631   -0.028527
    C    1.509084    0.677631   -0.028527
    C   -1.981078    0.000000   -0.558181

FREQUENCIES 12
43.2921
226.6113
287.0058
587.7508
652.9968
751.3645
835.0661
1223.2799
1293.9158
1466.1394
1641.5749
3039.0340

SYMMETRY CS
ELECTRONIC_STATE 4-A"
