6
Energy =   -190.03205141000
H  0.000502319  2.072261125 -0.000000000
C  0.000235730  0.989603934 -0.000000000
C  0.960541363 -0.092356529  0.000000000
C -0.000149624 -0.575370971  1.061167000
C -0.000149624 -0.575370971 -1.061167000
C -0.960602622 -0.091883474 -0.000000000

FREQUENCIES 12
468.5344
496.3911
529.0382
548.1377
716.5057
768.4607
930.5222
938.0437
1034.3046
1071.7817
1313.2827
3221.3837

SYMMETRY C2V
ELECTRONIC_STATE 1-A1
