6
Energy =   -188.54445473000
    H    2.529449    0.159883    0.000000
    C    1.441860   -0.149776    0.000000
    C    0.403346   -0.931897    0.000000
    C   -0.964530   -0.516435    0.000000
    C   -1.302251    0.733237    0.000000
    C    0.000000    0.838225    0.000000

FREQUENCIES 12
183.5330
205.8841
342.0948
447.4878
526.5823
752.0561
915.2081
1090.1233
1412.3945
1653.9430
1731.8693
2779.0783

SYMMETRY CS
ELECTRONIC_STATE 1-A'
