6
Energy =   -189.97859666000
    C    1.112591    1.550900    0.000000
    C   -0.106942    0.800970   -0.000002
    C   -0.282732   -0.505707    0.771158
    C   -0.280977   -1.591314   -0.000000
    C   -0.282732   -0.505705   -0.771156
    H   -0.953293    1.506855    0.000000

FREQUENCIES 12
172.7739
374.0400
482.9459
484.5994
693.6935
913.2319
965.8497
1008.5027
1233.6709
1263.9143
1702.3947
2992.9364

SYMMETRY CS
ELECTRONIC_STATE 3-A"
