6
Energy =   -189.48627859000
    H    0.000000    0.000000   -3.538177
    C    0.000000    0.000000   -2.446851
    C    0.000000    0.000000   -1.175083
    C    0.000000    0.000000    0.117790
    C    0.000000    0.000000    1.404633
    C    0.000000    0.000000    2.689208

FREQUENCIES 13
137.5652
147.9061
314.5836
412.2297
508.0920
562.5693
638.9525
786.8345
829.9022
1380.6858
1841.5074
1905.1087
3172.1226

SYMMETRY C*V
ELECTRONIC_STATE ??
