6
Energy =   -190.05066864000
    C    0.704134    0.703028    0.163974
    C    1.233093   -0.541677   -0.214056
    C   -1.344154   -0.310870    0.239959
    C   -0.725106    0.696517   -0.438741
    C   -0.033799   -0.781851    0.092069
    H    0.994994    1.409120    0.940773

FREQUENCIES 12
326.9823
369.6979
579.3920
598.9471
766.1400
927.1214
1009.6660
1089.6165
1183.6439
1193.9144
1557.7224
3146.3274

SYMMETRY C1
ELECTRONIC_STATE 1-A
