6
Energy =   -189.47028251000
    C    0.000000    0.000000    2.165958
    C    0.000000    0.000000    0.714787
    C    0.000000    0.822174   -0.436323
    C    0.000000    0.000000   -1.564698
    C    0.000000   -0.822174   -0.436323
    H    0.000000    0.000000   -2.660415

FREQUENCIES 12
28.6890
223.4864
447.6518
661.5635
700.2424
794.4603
891.7454
1010.9827
1136.0807
1394.1142
1567.3978
3118.7218

SYMMETRY C2V
ELECTRONIC_STATE 2-B1
