6
Energy =   -189.46461590000
    C   -1.426076   -0.832556    0.000004
    C   -1.511007    0.539548   -0.000015
    C   -0.265128   -0.112850    0.000002
    C    1.128472    0.003144    0.000000
    C    2.378362    0.130178   -0.000000
    H   -2.045435    1.494869   -0.000025

FREQUENCIES 12
195.9543
229.7553
464.9936
558.4834
710.3041
951.3868
963.0284
1138.5694
1304.3695
1569.5862
2001.8686
3121.3219

SYMMETRY CS
ELECTRONIC_STATE 4-A"
