6
Energy =   -188.46378890000
    H    1.526975    1.190929    0.000000
    C    0.407271    0.887791    0.000000
    C   -0.019844   -0.520086    0.000000
    C   -0.213974   -1.310612    1.186109
    C   -0.213974   -1.310612   -1.186109
    C   -0.213974    2.055030    0.000000

FREQUENCIES 12
32.8916
267.5367
289.5313
347.3897
454.4534
617.8926
719.8575
764.4500
954.0681
1149.3369
1432.6653
2462.5120

SYMMETRY CS
ELECTRONIC_STATE 3-A"
