6
Energy =   -189.39673432000
H  0.000637823  1.544173165 -0.002343636
C  0.000180264  0.409775009 -0.000649389
C -1.268120761 -0.065821295 -0.000424387
C -2.501436833 -0.266228799 -0.000597039
C  1.268097213 -0.066842826  0.000547762
C  2.501251215 -0.268243768  0.001320523

FREQUENCIES 12
164.5203
206.6633
279.2420
309.0291
555.5847
770.3536
818.0744
927.9998
1125.1997
1998.4615
2013.6104
2671.8434

SYMMETRY C2V
ELECTRONIC_STATE 4-B2
