6
Energy =   -189.40859593000
    H    0.000000    0.000000    3.129554
    C    0.000000    0.000000    2.039464
    C    0.000000    0.000000    0.794946
    C    0.000000    0.000000   -0.612937
    C    0.000000    1.194270   -1.371533
    C    0.000000   -1.194270   -1.371533

FREQUENCIES 12
206.5104
235.1581
327.1969
442.4737
502.3137
717.3049
794.8181
805.9130
1233.6763
1265.2276
2031.4375
3196.9075

SYMMETRY C2V
ELECTRONIC_STATE 2-B2
