6
Energy =   -188.58067041000
C -2.508835000 -0.623955000  0.000272000
C -1.303056000  0.433429000 -0.000301000
C  0.027154001  0.165910088 -0.000169572
C  1.278762002 -0.031044848 -0.000075065
C  2.787573996 -0.195293235 -0.000000103
H -1.685844001  1.504488954 -0.000868128

FREQUENCIES 12
138.2966
151.5627
255.4112
348.3302
491.9320
651.1985
676.5975
700.1113
1084.9581
1265.3873
1923.4416
2649.6805

SYMMETRY CS
ELECTRONIC_STATE 1-A'
