6
Energy =   -188.55708126000
H  0.000068834  3.132798995  0.000000000
C  0.000045696  2.009238000  0.000000000
C  0.000019017  0.713711000  0.000000000
C -0.000008866 -0.640330000 -0.000000000
C  1.407806000 -1.302404491  0.000000000
C -1.407851000 -1.302346509 -0.000000000

FREQUENCIES 12
73.8001
245.8976
277.6045
364.0541
452.0674
645.0655
696.3959
885.7632
909.6944
1095.8740
1898.7034
2876.9783

SYMMETRY C2V
ELECTRONIC_STATE 1-A1
