6
Energy =   -190.31258127000
    H    0.317952   -1.626947    0.000000
    C    0.258498   -0.542950    0.000000
    C   -1.026242    0.018831    0.000000
    C   -2.236892    0.248241    0.000000
    C    1.472593    0.270978    0.643210
    C    1.472593    0.270978   -0.643210

FREQUENCIES 12
180.9365
197.9579
393.7060
422.8553
547.3368
738.1930
840.2861
966.8621
1307.0105
1521.6945
1725.6378
3110.7614

SYMMETRY CS
ELECTRONIC_STATE 4-A"
