6
Energy =   -190.47178886000
    H    0.000000    0.000000   -3.482485
    C    0.000000    0.000000   -2.419380
    C    0.000000    0.000000   -1.198461
    C    0.000000    0.000000    0.121860
    C    0.000000    0.000000    1.386063
    C    0.000000    0.000000    2.690332

FREQUENCIES 13
134.1631
134.6018
296.8491
374.5134
421.5716
475.5130
623.4636
761.7838
771.7313
1463.0530
1957.1767
2054.3752
3445.0447

SYMMETRY C*V
ELECTRONIC_STATE ??
