6
Energy =   -188.58760769000
C -1.916341970  0.000309864 -0.000115492
C -0.601983017  0.000184357 -0.000046107
C  0.661140178 -0.773230715  0.000019014
C  1.704476942 -0.000035884  0.000075650
C  0.661287860  0.773358186  0.000022138
H -3.051850914  0.000418293 -0.000175435

FREQUENCIES 12
252.5965
293.5840
453.6393
640.2901
681.6552
694.9180
953.4955
973.5994
1447.7286
1730.7162
1777.8994
2763.7899

SYMMETRY CS
ELECTRONIC_STATE 1-A'
