6
Energy =   -190.27108357000
    C    1.005108    1.631854   -0.000001
    C   -0.089399    0.718665   -0.000002
    C   -0.089170   -0.551723    0.876718
    C   -0.566386   -1.461799   -0.000000
    C   -0.089167   -0.551721   -0.876716
    H   -1.024997    1.290804    0.000002

FREQUENCIES 12
213.0708
299.8666
491.4196
544.6602
553.1004
810.6747
865.8267
1028.5996
1163.6059
1177.7210
1528.9794
3027.9740

SYMMETRY CS
ELECTRONIC_STATE 4-A'
