6
Energy =   -189.39397462000
    C   -2.264153   -0.612179    0.000071
    C   -1.285461    0.382933   -0.000123
    C    0.020681    0.194738   -0.000071
    C    1.293412   -0.013379   -0.000013
    C    2.527589   -0.186246    0.000061
    H   -1.752821    1.405575   -0.000319

FREQUENCIES 12
148.0352
202.8942
287.0226
462.1458
564.4446
635.1718
865.9931
926.6806
1327.1141
1768.2539
2153.9933
2777.5076

SYMMETRY CS
ELECTRONIC_STATE 2-A'
