6
Energy =   -190.35223779000
    H    2.453020   -0.200007    0.000000
    C    1.485757   -0.661930    0.000000
    C    0.000000   -0.244409    0.000000
    C   -0.841536    0.758295    0.000000
    C   -1.606976    1.743371    0.000000
    C    0.553918   -1.561992    0.000000

FREQUENCIES 12
176.4962
196.7464
324.1213
448.3728
569.5368
576.0750
734.3490
884.4460
1397.1450
1677.1589
1871.3441
3318.7480

SYMMETRY CS
ELECTRONIC_STATE 4-A"
