6
Energy =   -190.39152632000
    H    0.000000    0.000000    1.873042
    C    0.000000    0.000000    0.786472
    C    0.000000    1.134018    0.033099
    C    0.000000    2.253932   -0.582422
    C    0.000000   -1.134018    0.033099
    C    0.000000   -2.253932   -0.582422

FREQUENCIES 12
97.4477
185.9582
218.8852
252.4236
518.2544
757.1598
1035.0715
1039.7012
1317.9832
1741.1845
1906.0639
3128.8084

SYMMETRY C2V
ELECTRONIC_STATE 2-B2
