6
Energy =   -190.43833427000
    H    2.252733   -0.894519    0.000000
    C    1.182101   -1.009373    0.000000
    C    0.000000   -0.242977    0.000000
    C   -0.544706    0.956614    0.000000
    C   -1.046715    2.128932    0.000000
    C    0.033864   -1.684110    0.000000

FREQUENCIES 12
165.0428
171.8623
458.2927
531.4249
737.8038
828.2282
850.4157
987.7142
1296.1240
1636.1429
2009.1399
3263.3369

SYMMETRY CS
ELECTRONIC_STATE 2-A'
