6
Energy =   -190.10662148000
    H    0.000000    0.000000   -3.482149
    C    0.000000    0.000000   -2.410308
    C    0.000000    0.000000   -1.179144
    C    0.000000    0.000000    0.117057
    C    0.000000    0.000000    1.404883
    C    0.000000    0.000000    2.647871

FREQUENCIES 13
145.8369
146.5115
310.7849
378.6367
495.2565
547.2878
642.8792
796.4622
851.9917
1591.5173
1947.0865
2053.1033
3366.1240

SYMMETRY C*V
ELECTRONIC_STATE ??
