6
Energy =   -190.36990352000
    C    0.000000   -0.000000   -1.089935
    C   -0.000000    1.051960   -0.073117
    C   -0.911024   -0.525980   -0.073117
    C    0.911024   -0.525980   -0.073117
    C    0.000000   -0.000000    0.972488
    H    0.000000   -0.000000    2.047325

FREQUENCIES 12
508.3370
508.3397
677.9336
677.9393
741.0461
845.9116
845.9135
1054.5685
1054.5699
1256.7311
1352.2190
3279.0169

SYMMETRY C3V
ELECTRONIC_STATE 2-A1
