6
Energy =   -189.42502866000
    C    0.090638    0.713018    0.000000
    C   -1.131969    0.072260    0.000000
    C    0.579366   -2.018887    0.000000
    C    0.000000   -0.718025    0.000000
    C    0.833291    1.927981    0.000000
    H   -2.227956    0.141911    0.000000

FREQUENCIES 12
130.8990
157.6965
231.4877
279.9564
737.8543
800.7061
889.2974
980.9344
1111.2593
1280.7185
1676.3409
3087.5653

SYMMETRY CS
ELECTRONIC_STATE 2-A"
