6
Energy =   -188.67666830000
    H    0.000000    0.000000   -3.603902
    C    0.000000    0.000000   -2.476506
    C    0.000000    0.000000   -1.182346
    C    0.000000    0.000000    0.115594
    C    0.000000    0.000000    1.426401
    C    0.000000    0.000000    2.717507

FREQUENCIES 13
151.9809
155.2214
313.8423
327.6896
617.6209
641.6397
757.0327
792.2125
850.4035
1315.8538
1876.6310
1926.9382
2850.4482

SYMMETRY C*V
ELECTRONIC_STATE ??
