6
Energy =   -190.06378496000
C -0.003223353  1.886452325 -0.000000000
C -0.001273131  0.625695517 -0.000000000
C -0.770484068 -0.639470992  0.000000000
C  0.002368664 -1.728610480  0.000000000
C  0.771848201 -0.637085212  0.000000000
H -0.004881755  2.958557101 -0.000000000

FREQUENCIES 12
205.9196
230.7053
398.6737
512.8553
527.6524
711.4579
733.5931
976.7820
1214.4732
1687.8140
1822.2768
3352.1372

SYMMETRY C2V
ELECTRONIC_STATE 3-B2
