6
Energy =   -190.41560474000
    C   -0.033099    1.915380    0.000000
    C    0.000000    0.631761    0.000000
    C   -0.723731   -0.637108    0.000000
    C    0.086180   -1.802227    0.000000
    C    0.780101   -0.572102    0.000000
    H   -0.656706    2.785770    0.000000

FREQUENCIES 12
253.3184
328.0721
478.3821
581.2770
624.2749
664.7599
807.8129
895.3020
1077.5875
1433.6583
1780.3230
3332.2380

SYMMETRY CS
ELECTRONIC_STATE 2-A'
