6
Energy =   -190.00737552000
    C    1.970512   -0.025989   -0.170710
    C   -1.462491    0.174983   -0.368371
    C   -0.464755    0.886763    0.310061
    C    0.654248    0.066430    0.070164
    C   -0.579117   -0.809112    0.062188
    H   -0.709236   -1.758243    0.578996

FREQUENCIES 12
210.9201
226.5558
510.6726
610.5699
711.6420
855.1205
963.6698
1116.6421
1140.9075
1345.1508
1612.4560
3144.8985

SYMMETRY C1
ELECTRONIC_STATE 3-A
