6
Energy =   -189.40490405000
    H    1.492806    1.357254    0.000000
    C    0.402639    1.040081    0.000000
    C    0.036350   -0.354335    0.000000
    C   -0.229264   -1.532529    0.683579
    C   -0.229264   -1.532529   -0.683579
    C   -0.229264    2.153103    0.000000

FREQUENCIES 12
74.1889
230.4532
319.9000
475.4695
555.9274
749.2949
940.9721
1140.8049
1283.3827
1642.6201
1715.8028
2701.3685

SYMMETRY CS
ELECTRONIC_STATE 4-A"
