6
Energy =   -190.32517633000
    H    2.690852   -0.691640    0.000000
    C    1.615609   -0.679339    0.000000
    C    0.605763    0.226401    0.000000
    C   -0.848279    0.116968    0.000000
    C   -1.684384   -0.925356    0.000000
    C   -0.137185    1.376600    0.000000

FREQUENCIES 12
186.4644
300.6696
360.7105
368.8641
478.2639
613.6430
744.3215
832.8794
997.0792
1327.7919
1637.4389
3274.4134

SYMMETRY CS
ELECTRONIC_STATE 4-A'
