3
Energy = -151.0070366300
    C   -0.098828    0.315117    0.000000
    C   -1.498727   -0.212279   -0.000000
    O    1.035089   -0.126013    0.000000

FREQUENCIES 3
498.0313
792.2891
1593.5998

SYMMETRY CS
ELECTRONIC_STATE 4-A"
