4
Energy = -189.1093480200
    C    1.060319   -0.776873   -0.094440
    C    1.205621    0.563237    0.019660
    C   -0.123886    0.023789    0.029173
    O   -1.328847    0.148888    0.094303

FREQUENCIES 6
490.9316
578.5774
706.9400
893.3893
1457.5512
1830.1154

SYMMETRY C2V
ELECTRONIC_STATE 2-B2
