4
Energy = -188.9400778500
    C    1.052456   -0.630283    0.461093
    C    0.092650    0.314925    0.033730
    C   -0.459511    1.592878   -0.162281
    O   -0.372838   -0.895650   -0.290738

FREQUENCIES 6
376.3948
456.8095
474.5845
914.8719
1006.1058
1445.7680

SYMMETRY CS
ELECTRONIC_STATE 4-A'
