4
Energy = -188.9400916900
    C   -0.087297    1.289288    0.043787
    C    1.288427   -1.103982    0.019136
    C    0.353379   -0.053081    0.012819
    O   -0.981357   -0.073718   -0.057038

FREQUENCIES 6
376.6637
457.2501
474.6062
914.2169
1006.1993
1444.8455

SYMMETRY CS
ELECTRONIC_STATE 4-A'
