4
Energy = -189.1175875300
    C    0.706723   -0.214839    0.068206
    C    1.907726   -0.548989    0.255506
    C   -0.606203   -0.117566   -0.261581
    O   -1.560578    0.619726   -0.190345

FREQUENCIES 6
225.1479
239.4156
526.6904
915.3071
1772.6487
1936.2984

SYMMETRY CS
ELECTRONIC_STATE 2-A'
