5
Energy = -227.1336721200
    C   -0.121642   -0.017526    0.014761
    C   -1.096635    0.876607   -0.123702
    C    0.799390   -0.861573    0.145720
    C   -2.027317    1.730267   -0.255735
    O    1.681836   -1.670516    0.271344

FREQUENCIES 10
124.8418
151.6590
406.8008
433.9602
464.9132
569.4352
753.3637
1466.7785
1942.7427
2248.6043

SYMMETRY C*V
ELECTRONIC_STATE ??
