2
Energy = -112.9213055000
    C   -0.815306    0.000000    0.000000
    O    0.484683    0.000000    0.000000

FREQUENCIES 1
1239.4158

SYMMETRY C*V
ELECTRONIC_STATE 4-SG
