5
Energy = -152.1509665000
C  1.362707000 -0.544114000  0.356350000
C  0.246325000  0.203389000  0.050714000
H  2.346769334 -0.050925735  0.353236799
H -1.136201666 -1.147512933  0.210738434
O -0.991034167 -0.182878458 -0.000691890

FREQUENCIES 9
430.9335
451.0929
614.5196
901.3062
1089.5651
1211.3273
1465.8288
2936.9905
3038.3253

SYMMETRY CS
ELECTRONIC_STATE 4-A"
