5
Energy = -152.3417202500
    C   -1.417840   -0.218402   -0.317797
    O   -0.505241   -0.749159    0.309178
    C   -2.573151    0.457181   -0.072933
    H   -3.195223    0.818020   -0.877816
    H   -2.898840    0.654573    0.957056

FREQUENCIES 9
456.2713
506.0245
628.5656
1002.2267
1111.3222
1421.9181
1715.3189
2942.7987
3181.2469

SYMMETRY C1
ELECTRONIC_STATE 2-A
