5
Energy = -152.2703039000
    C    1.432716    0.526428    0.414213
    C    0.622273   -0.208638   -0.327408
    H    0.891002   -1.092786   -0.911934
    H   -0.962556    0.802404    0.024512
    O   -0.793782    0.016097   -0.512532

FREQUENCIES 9
440.0424
470.7009
720.3305
832.7227
1139.6030
1284.8749
1566.3804
3010.9919
3715.8242

SYMMETRY CS
ELECTRONIC_STATE 2-A'
