5
Energy = -152.2377071400
    C    0.814139   -0.557504    0.434758
    C   -0.017240    0.488394   -0.062919
    H    1.855752   -0.369902    0.685128
    H    0.438111   -1.568407    0.579101
    O   -1.172079    0.484822   -0.391515

FREQUENCIES 9
403.2653
453.3614
813.6398
973.2072
1067.7751
1423.7677
1761.3475
3006.4041
3139.7186

SYMMETRY CS
ELECTRONIC_STATE 4-A"
