6
Energy = -190.1359011600
    C   -1.820285    1.013284    0.118231
    C   -0.806822    0.382341   -0.206540
    C    1.885397   -0.003798   -0.149384
    H    0.224046   -1.248462   -0.410373
    H    1.743082    1.091309   -0.056763
    O    0.309723   -0.311894   -0.614381

FREQUENCIES 12
157.8218
222.6746
314.7646
350.9410
404.5359
619.8277
883.7541
1173.9106
1288.0428
2057.8516
2905.0563
3796.7567

SYMMETRY C1
ELECTRONIC_STATE 2-A
