6
Energy = -190.2149764600
    C    0.045903   -0.023435   -0.132771
    C   -0.495867    0.986675    0.688627
    C    0.796490    1.042028    0.138014
    H    0.642447   -1.461336   -1.225734
    H    1.714414    1.592719    0.037076
    O   -0.155335   -1.177444   -0.702033

FREQUENCIES 12
437.6618
455.0898
558.4979
818.9168
908.4570
948.3342
1148.1720
1258.3337
1393.2456
1784.7837
3059.2765
3248.5678

SYMMETRY C1
ELECTRONIC_STATE 2-A
