6
Energy = -190.1615536000
    C   -0.053464   -0.030912   -0.086262
    C   -0.492113    0.988918    0.607881
    C    0.951111    0.975176    0.460731
    H    0.697462   -1.417222   -1.206042
    H    1.612773    1.556269   -0.188413
    O   -0.167718   -1.113022   -0.784717

FREQUENCIES 12
264.4315
384.8880
439.9898
641.1624
910.5085
955.6053
1058.8366
1113.9876
1167.7643
1800.5982
2731.0845
2982.9298

SYMMETRY C1
ELECTRONIC_STATE 4-A
