7
Energy = -228.3151422000
C -0.618044839  0.874277987  0.098626347
C  1.039100262 -0.541766718 -0.077039096
O  0.775240983  0.826580512  0.015133036
C -0.106647142 -1.265700555 -0.051250419
C -1.155239609 -0.369669295  0.059905484
H -1.009389185  1.877568034  0.177685624
H  2.091455384 -0.772130253 -0.151018987

FREQUENCIES 15
535.8996
589.7872
597.1048
664.8934
716.9739
890.1135
970.4738
975.6393
1188.7382
1226.8780
1374.3699
1433.8450
1441.1870
3187.7696
3192.9495

SYMMETRY C2V
ELECTRONIC_STATE 2-B2
