7
Energy = -228.3125123600
    C   -0.910286   -0.424469   -0.287366
    C    0.850363    0.873343    0.127834
    O   -0.481171    0.907569   -0.199751
    C    1.279689   -0.410617    0.250447
    C    0.159878   -1.258276   -0.013237
    H    1.346047    1.825681    0.237062
    H    0.112154   -2.334675   -0.010597

FREQUENCIES 15
493.4705
623.6657
663.9033
675.6973
752.8225
826.9183
914.0366
1049.3779
1062.2439
1185.5169
1235.3834
1305.4989
1491.2205
3194.8335
3211.9312

SYMMETRY CS
ELECTRONIC_STATE 2-A'
