4
Energy = -114.2307297900
    C    0.821182   -0.015753    0.336360
    H    0.977186    1.089616    0.402042
    H   -0.802170   -1.038967    0.374607
    O   -0.639061   -0.099186    0.428356

FREQUENCIES 6
563.1436
833.5661
1061.0691
1365.1414
2722.3532
3893.2718

SYMMETRY CS
ELECTRONIC_STATE 2-A"
