4
Energy = -114.2968956700
    C    0.125016    0.226173   -0.419517
    H    0.677447   -0.473106   -1.072394
    H    0.366877    1.295133   -0.558130
    O   -0.734371   -0.174235    0.438035

FREQUENCIES 6
523.2880
1163.4407
1312.7663
1523.8197
2872.8683
2877.4646

SYMMETRY C2V
ELECTRONIC_STATE 2-B1
