4
Energy = -114.0740435200
    C    1.094830   -0.277589    0.355733
    H   -0.283502    0.732612   -1.083885
    H   -0.612259    1.166662    0.392690
    O   -0.345528    0.381582   -0.156161

FREQUENCIES 6
423.7104
628.7517
691.8320
1464.8044
3050.8703
3183.5620

SYMMETRY C1
ELECTRONIC_STATE 2-A
