4
Energy = -114.1146716400
C  1.134631439  0.116253855  0.086335008
H -0.800081495 -0.924136101 -0.401258317
H -0.992857495  0.637378899 -0.428924317
O -0.347234893 -0.080088379 -0.669939091

FREQUENCIES 6
375.8695
610.6820
717.9368
1461.9281
3089.0372
3188.3950

SYMMETRY CS
ELECTRONIC_STATE 4-A"
