4
Energy = -114.1768106700
    C    0.693035    0.134539    0.096812
    H    1.037395    0.977588    0.700165
    H   -0.809943   -0.918643    0.722014
    O   -0.563350   -0.257774    0.022375

FREQUENCIES 6
452.5759
1077.1395
1102.6051
1315.7098
3008.7549
3111.9317

SYMMETRY C1
ELECTRONIC_STATE 4-A
