6
Energy = -152.8013515500
    C   -0.607553    1.288454   -0.042703
    C    0.594693   -0.724212    0.274655
    H    0.520263   -0.438928    1.318672
    H   -1.268920    1.583540   -0.894271
    O   -0.029095    0.039373   -0.624313
    H    0.790591   -1.748195   -0.032050

FREQUENCIES 12
97.4837
285.5490
454.4522
466.6119
716.0172
1157.9256
1191.9874
1329.7342
1440.7834
2745.9432
3048.9791
3179.9155

SYMMETRY C1
ELECTRONIC_STATE 3-A
