6
Energy = -152.9208225000
C  0.157527000  0.054743000  0.291992000
C  0.862188000 -1.070084000  0.042586000
H  1.664784468 -1.367949405  0.707630366
H  0.666164413 -1.723240424 -0.820515865
H -1.278314144  1.078514922 -0.423940382
O -0.857246546  0.269470369 -0.705121382

FREQUENCIES 12
440.4088
485.7484
692.8149
741.0609
830.2851
1030.7086
1183.1328
1358.4584
1540.4556
2937.5556
3133.8976
3918.4263

SYMMETRY CS
ELECTRONIC_STATE 1-A'
