6
Energy = -152.8811590400
    C    0.136880   -0.038392   -0.404755
    C    1.104069   -1.158771   -0.208745
    H   -0.739189   -0.114797   -1.066289
    H    0.490554    0.997610   -0.325123
    H    0.653224   -2.044758   -0.712589
    O    0.007976   -0.731594    0.811179

FREQUENCIES 12
548.4377
851.8537
877.6903
1055.1058
1123.2481
1174.5614
1191.5976
1234.2334
1503.7250
2723.5800
2905.7706
2942.4801

SYMMETRY C1
ELECTRONIC_STATE 1-A
