6
Energy = -152.7728760500
    C    1.453410    0.748916    0.870182
    C    1.347607   -0.259210    0.105278
    H    1.578343   -1.126010   -0.474168
    H   -0.976113   -1.455968   -0.369658
    H   -0.683043   -0.561764   -1.580954
    O   -0.827796   -0.515934   -0.611003

FREQUENCIES 12
82.6227
138.9260
229.8327
476.4867
526.8709
615.7274
768.6578
1532.9444
1737.6732
3341.2854
3409.1259
3424.5839

SYMMETRY C1
ELECTRONIC_STATE 3-A
