8
Energy = -228.8997984700
    C    0.726636    0.971617   -0.000297
    H   -2.067515   -0.851707    0.000324
    C    1.088513   -0.338160   -0.000084
    C   -1.114466   -0.354166    0.000186
    C   -0.690684    0.922423   -0.000212
    H    1.383231    1.826208   -0.000538
    H    2.046818   -0.829774   -0.000099
    O    0.000327   -1.157386    0.000055

FREQUENCIES 18
537.1416
612.1636
719.8981
821.0991
852.7072
863.7204
879.3104
1003.9701
1039.0308
1131.7726
1168.7929
1238.5203
1372.1081
1485.1326
1538.8298
3208.3730
3227.0524
3244.4245

SYMMETRY CS
ELECTRONIC_STATE 3-A'
