8
Energy = -228.8937041700
C -1.631895311  0.657980438  0.182643500
C  0.814901163 -0.111933321  0.082798177
O  1.965615650 -0.153289434  0.461371702
C -0.432537565 -0.064500626  0.811470600
C -1.681720637 -0.700007373  0.185743630
H -1.593318938  1.384988733 -0.629881312
H -0.306905656 -0.066629103  1.898265605
H -1.696660594 -1.431585102 -0.623451397

FREQUENCIES 18
174.9683
305.2284
487.4276
492.1186
638.3647
646.3538
853.1621
908.8786
971.5216
979.2145
1039.2542
1048.9778
1250.1126
1439.7620
1706.3638
2975.3495
2986.3169
3034.1733

SYMMETRY CS
ELECTRONIC_STATE 3-A"
