8
Energy = -228.9092325100
    C   -1.598719   -0.793912    0.069044
    C    0.931178   -0.003270   -0.452262
    O    1.728227    0.972079   -0.366049
    C   -0.379978   -0.066535    0.038096
    C   -1.486028    0.558658    0.631941
    H   -2.180705   -1.206028   -0.756658
    H    1.273642   -0.930885   -0.957525
    H   -1.963889    1.518427    0.459391

FREQUENCIES 18
216.8538
229.0407
348.5247
573.1671
656.7567
756.3787
812.0383
851.5430
946.7247
986.3390
1099.9022
1145.9004
1356.2391
1482.6329
1676.4240
2825.4219
3006.5804
3085.3538

SYMMETRY C1
ELECTRONIC_STATE 3-A
