8
Energy = -228.8178519700
    C    0.264953    0.643863   -0.476615
    C   -0.760798   -0.462607   -0.297193
    O   -0.916225    0.761956    0.494047
    C    0.371568   -1.303078    0.109312
    C    1.335799   -0.221966    0.014812
    H    0.254815    1.452047   -1.203743
    H   -1.628803   -0.715801   -0.897369
    H    2.176445    0.039699    0.649174

FREQUENCIES 18
167.3716
413.9806
519.3998
584.8326
633.2200
776.4259
812.4808
875.8359
992.1892
1010.7472
1085.0963
1140.0719
1186.2191
1211.9346
1245.5665
3059.3722
3099.4710
3108.6597

SYMMETRY C1
ELECTRONIC_STATE 3-A
