8
Energy = -228.8628284700
C  0.229988000  1.054302000 -0.138843000
C -0.737807000 -0.909335000  0.110511000
O -0.978623990  0.436705158 -0.024674384
C  0.595286100 -1.084863970  0.076685922
C  1.252862932  0.161297805 -0.083274277
H  0.202470074  2.124909390 -0.252849683
H -1.598315074 -1.545520847  0.212917993
H  2.306335452  0.378754902 -0.148293902

FREQUENCIES 18
535.0094
612.2279
715.7150
821.2059
853.5408
864.2132
877.6999
1005.4749
1038.6519
1132.3382
1168.9329
1238.1807
1372.4359
1484.7387
1539.1659
3209.2051
3226.9956
3243.8255

SYMMETRY CS
ELECTRONIC_STATE 3-A'
