8
Energy = -228.9973172400
    C    0.780441   -1.032537    0.000000
    C   -0.018269    1.113660    0.000000
    O    1.112356    0.353776   -0.000000
    C   -1.115272    0.312638   -0.000000
    C   -0.607322   -1.030789    0.000000
    H    0.103705    2.186678    0.000000
    H   -2.143837    0.647095   -0.000000
    H   -1.211184   -1.928231    0.000000

FREQUENCIES 18
599.6997
617.3587
655.2419
750.7380
801.6376
811.0488
855.2491
898.8268
985.5246
1076.8575
1110.8790
1166.4734
1354.9807
1370.6556
1541.3107
3157.1856
3172.5084
3200.3792

SYMMETRY CS
ELECTRONIC_STATE 1-A'
