5
Energy = -114.7510222600
    C   -1.151538    0.236317   -0.319667
    H   -1.442957   -0.816429   -0.543595
    H    0.908002    0.621989    0.288259
    H    0.821907   -0.907782   -0.107416
    O    0.316725   -0.163490    0.329577

FREQUENCIES 9
324.3294
421.9165
618.0046
774.0898
1258.6836
1476.7989
2813.5552
3023.5304
3340.5397

SYMMETRY C1
ELECTRONIC_STATE 3-A
