5
Energy = -114.7700636000
    C   -0.940820    0.311986    0.625935
    H    1.151282   -0.672415   -1.462044
    H    0.573048    0.099892   -0.205480
    H   -0.707816    1.006429    1.480213
    O    1.458561   -0.080473   -0.769011

FREQUENCIES 9
213.3779
214.2470
285.8777
586.5294
623.7493
1644.7734
1958.3451
2744.7411
3829.3366

SYMMETRY C1
ELECTRONIC_STATE 1-A
