8
Energy = -191.5249728800
    C   -0.179819    0.556516   -0.448806
    C    0.722005    0.169416    0.406150
    C   -1.254051    1.141230   -0.974784
    H    1.837587   -0.866858   -0.756384
    H   -1.202578    2.122779   -1.436185
    H    0.680586    0.460895    1.455202
    H   -2.203135    0.621033   -1.062188
    O    1.833633   -0.627241    0.187402

FREQUENCIES 18
188.8495
205.0881
392.5616
492.5123
526.8823
715.2991
853.0599
854.3526
1027.2097
1160.3418
1233.8801
1370.3094
1473.4416
1871.1651
3052.8210
3074.3033
3133.8714
3545.2315

SYMMETRY C1
ELECTRONIC_STATE 2-A
