8
Energy = -191.3706047600
    C   -2.123952    1.050359   -0.252575
    C    0.320302    0.290062   -0.611068
    C   -1.088947    0.018196   -0.317875
    H    1.901965   -0.837725   -0.857675
    H    0.432969    0.441133   -1.719428
    H    0.615361    1.250834   -0.171148
    H   -1.358221   -1.042919   -0.340545
    O    1.177116   -0.768509   -0.206437

FREQUENCIES 18
144.5534
296.8765
318.1533
456.8280
491.7742
760.2711
934.3376
1046.7579
1089.0869
1158.3258
1234.5836
1295.6034
1392.9896
1419.2756
2649.1796
2971.7319
3006.4111
3478.7114

SYMMETRY C1
ELECTRONIC_STATE 4-A
