8
Energy = -191.4971754100
    C   -0.254189    0.997561   -0.179870
    C    0.639049   -0.175511   -0.063418
    C   -0.500366   -0.459067   -0.599190
    H    2.018504   -1.456267    0.233930
    H   -0.057876    1.759564   -0.939435
    H   -0.744808    1.400431    0.710689
    H   -1.202319   -1.136048   -1.037889
    O    1.850042   -0.494498    0.371391

FREQUENCIES 18
314.9922
412.9447
484.4260
689.7428
691.8896
940.1839
991.2289
1018.5153
1043.4015
1104.4126
1132.0247
1341.5914
1513.2567
1847.3874
2967.5389
3013.6936
3285.2522
3316.0428

SYMMETRY C1
ELECTRONIC_STATE 2-A
