9
Energy = -229.5470720800
    C   -0.917137   -0.700993    0.000000
    C    1.170393    0.174157   -0.000000
    O    0.391645   -1.114721   -0.000000
    C    0.227049    1.329739    0.000000
    C   -1.015441    0.696331   -0.000000
    H   -1.659111   -1.486452    0.000000
    H    1.822353    0.130353    0.886774
    H    1.822353    0.130353   -0.886774
    H   -1.979275    1.198515   -0.000000

FREQUENCIES 21
176.5118
340.1761
502.7555
639.7279
775.9480
830.3800
853.0594
936.3232
938.2626
1012.5131
1094.2283
1134.3999
1204.2542
1272.0153
1324.4418
1399.8077
1453.5933
2872.7197
2899.1185
3095.8421
3189.9353

SYMMETRY CS
ELECTRONIC_STATE 2-A"
