9
Energy = -229.5471879000
C  0.172952000 -0.524366000  0.830783000
C  0.393699000  2.043876000 -1.612427000
O -0.046240632 -1.674722800  1.487307921
C  0.183082237  0.995454917 -1.053551171
C -0.089977202 -0.260055478 -0.460121768
H  0.610733967  0.224939956  1.476664186
H -0.442694405 -2.353743584  0.902971629
H  0.575762149  2.963532689 -2.112438136
H -0.529436018 -1.031068519 -1.084665141

FREQUENCIES 21
167.7181
207.8408
433.3383
435.3589
542.5622
542.9712
618.6553
685.3381
883.9590
944.8036
1030.5385
1133.9956
1258.1904
1338.9878
1378.3672
1651.5483
2166.0727
3112.8691
3175.0061
3397.9218
3434.0025

SYMMETRY CS
ELECTRONIC_STATE 2-A'
