9
Energy = -229.4883863700
    O   -3.463687   -0.729792    0.000000
    C    1.201746    0.738881    0.000000
    C    0.351734   -0.499940    0.000000
    C   -0.999575   -0.537072   -0.000000
    C   -2.268808   -0.677198    0.000000
    H    1.856948    0.759231    0.879472
    H    1.856948    0.759231   -0.879472
    H    0.604590    1.649286   -0.000000
    H    0.860302   -1.462728   -0.000000

FREQUENCIES 21
68.1135
120.5083
157.2821
251.4240
368.0539
471.4289
582.0268
766.6837
1004.3564
1020.1828
1076.3473
1277.9542
1380.9427
1463.4865
1464.3302
1523.5806
2111.8564
2946.1821
2994.8899
3066.2355
3087.3107

SYMMETRY CS
ELECTRONIC_STATE 4-A"
