9
Energy = -229.5628018400
    O   -2.684013   -1.137036    0.164646
    C    1.031927   -0.288103    0.028278
    C    0.118650    0.942566   -0.108755
    C   -0.400802   -0.444524   -0.212715
    C   -1.457197   -1.225981    0.087126
    H    1.457740   -0.474710    1.018661
    H    1.756529   -0.468166   -0.770991
    H    0.231567    1.564252   -0.999913
    H   -0.054500    1.531801    0.793663

FREQUENCIES 21
87.2087
221.6721
395.3937
564.5726
719.3200
792.2908
895.2373
916.1390
981.0982
1003.9483
1051.5150
1062.8737
1131.5612
1413.8384
1467.2243
1500.8136
1748.7710
2963.3498
2983.3707
2996.3956
3031.4383

SYMMETRY C1
ELECTRONIC_STATE 2-A
