9
Energy = -229.4425073300
    O   -2.860337    1.078113    0.311178
    C    1.814073   -0.013284   -0.009445
    C    0.363939   -0.040000   -0.012575
    C   -0.858537   -0.033147   -0.005986
    C   -2.231190   -0.055162   -0.007045
    H    2.218165    0.165077    0.994652
    H    2.207158    0.766859   -0.673273
    H    2.218343   -0.966658   -0.356862
    H   -2.871713   -0.901799   -0.240644

FREQUENCIES 21
27.4864
94.1607
172.9397
215.5443
291.6967
381.6444
434.4382
756.8728
1024.0148
1027.6621
1112.2715
1191.4815
1340.3271
1391.5047
1440.5446
1442.4072
2110.3303
2938.5946
2991.4593
3029.4730
3088.3174

SYMMETRY C1
ELECTRONIC_STATE 4-A
