9
Energy = -229.5471955000
    C    0.173260   -0.524070    0.830857
    C    0.393393    2.043204   -1.613149
    O   -0.045470   -1.673723    1.488212
    C    0.182940    0.994930   -1.053897
    C   -0.090095   -0.260584   -0.459980
    H    0.610868    0.226115    1.475866
    H   -0.442410   -2.353428    0.904790
    H    0.575252    2.962674   -2.113571
    H   -0.529457   -1.031407   -1.084711

FREQUENCIES 21
168.0297
207.8520
435.0681
435.8686
543.1585
543.7931
618.5528
685.1786
883.9569
945.0604
1029.5368
1134.3531
1258.4388
1338.9545
1378.2867
1652.1078
2165.9081
3113.5088
3174.8102
3395.9141
3433.9866

SYMMETRY CS
ELECTRONIC_STATE 2-A'
