9
Energy = -229.5046826400
    O    0.060423   -0.477556    0.000498
    C    1.085429    0.467029   -0.000134
    C    2.348854    0.086690   -0.000030
    C   -1.172913   -0.056242    0.000353
    C   -2.329368    0.259771    0.000261
    H    0.741855    1.491736   -0.000688
    H    3.127324    0.839623   -0.000529
    H    2.640214   -0.953168    0.000537
    H   -3.352615    0.543418    0.000175

FREQUENCIES 21
81.3760
131.7958
414.5661
439.7486
556.1650
637.9365
685.0298
688.3103
842.4799
884.7262
976.2149
1107.2454
1144.8903
1328.2533
1410.0670
1688.7495
2242.2557
3114.6005
3184.4876
3222.1150
3440.2852

SYMMETRY CS
ELECTRONIC_STATE 2-A'
