9
Energy = -229.5155076200
O  1.527590000 -2.460987000  0.469278000
C  0.159152000  1.530323000 -0.118646000
C  1.074770731 -1.321517471  0.291740083
C -0.730784949  0.397428399 -0.151150509
C -0.262827862 -0.902616904  0.043814763
H -0.199657895  2.540734111 -0.269412392
H  1.214356998  1.384284241  0.059633439
H -1.787578346  0.549544554 -0.330247911
H -0.995361800 -1.717308197  0.006003825

FREQUENCIES 21
192.5865
219.6795
265.0503
393.0742
407.0560
489.9827
622.5664
628.4196
942.6690
953.1026
972.3082
1076.0394
1222.1443
1361.2199
1442.7347
1470.5709
1651.0841
2987.8642
3124.8343
3151.7446
3227.7050

SYMMETRY CS
ELECTRONIC_STATE 4-A'
