9
Energy = -229.5439529700
    C   -1.108030   -0.002795    0.397907
    C    2.039169   -0.458627   -0.048479
    O   -0.865957   -1.167236    0.489011
    C    1.494019    0.749087   -0.099340
    C    0.089933    1.122157    0.081006
    H   -0.050143    1.825538    0.909072
    H    1.451666   -1.364145    0.147530
    H    3.107581   -0.613966   -0.199366
    H   -0.320789    1.632664   -0.797004

FREQUENCIES 21
89.2256
197.4850
203.1712
349.3665
398.6370
553.6565
672.9230
831.2453
879.3910
923.0740
1056.9471
1160.8970
1169.9358
1408.9477
1414.0453
1640.0539
1761.9468
2966.8458
2990.1066
3011.4220
3045.1639

SYMMETRY C1
ELECTRONIC_STATE 2-A
