9
Energy = -229.5850141800
    C    3.086275    3.317723    0.902995
    C    3.168756    1.792741    0.866896
    O    4.323472    1.257126    0.869140
    C    1.964818    1.097511    0.842935
    C    0.880788    0.502904    0.646400
    H    3.622092    3.735217    0.041847
    H    3.583541    3.701518    1.801589
    H    2.057123    3.681659    0.887511
    H    0.099445    0.039296    1.230214

FREQUENCIES 21
118.8996
193.8772
268.5744
425.9902
506.7923
615.4895
622.3218
639.2548
764.1349
977.3304
1007.4948
1202.6338
1356.1617
1451.7771
1464.7690
1495.4003
1960.1044
2962.5776
2991.1046
3061.8534
3159.6016

SYMMETRY C1
ELECTRONIC_STATE 2-A
