9
Energy = -229.4524054100
    C   -0.970948    0.616537   -0.000000
    C    0.268104   -1.177131    0.000000
    O   -1.031158   -0.777834    0.000000
    C    1.259862   -0.057560   -0.000000
    C    0.269457    1.089430    0.000000
    H   -1.929653    1.108977   -0.000000
    H    1.924217   -0.047343    0.878963
    H    1.924217   -0.047343   -0.878963
    H    0.547613    2.132242    0.000000

FREQUENCIES 21
199.2176
464.7437
734.2109
741.9942
798.5117
907.9200
930.8390
957.5430
962.9237
999.5962
1099.5370
1135.2652
1165.6436
1251.0244
1335.9118
1452.1937
1651.0681
2888.0776
2898.1832
3191.2972
3220.9134

SYMMETRY CS
ELECTRONIC_STATE 4-A"
