9
Energy = -229.4661384600
    C   -0.919222    0.671433   -0.000088
    C    1.217176   -0.150445   -0.000516
    O    0.394969    1.055992   -0.000404
    C    0.192225   -1.223558   -0.000182
    C   -1.078439   -0.701230    0.000128
    H   -1.645744    1.467494    0.000010
    H    1.863344   -0.129158   -0.888109
    H    1.863809   -0.129035    0.886733
    H   -2.025805   -1.218752    0.000403

FREQUENCIES 21
244.3035
503.7666
641.6402
743.0620
820.0799
852.8505
867.8503
934.5689
995.3790
1061.7738
1130.9362
1159.8769
1245.7015
1316.5169
1340.8251
1454.0901
1474.3816
2928.9858
2961.1292
3188.8857
3218.4941

SYMMETRY CS
ELECTRONIC_STATE 4-A"
