9
Energy = -229.5432395900
    C   -0.321199    0.836786    0.000002
    C    0.165046   -1.571389   -0.678141
    O   -0.048112    2.046909   -0.000023
    C    0.165055   -1.571387    0.678135
    C    0.615629   -0.270671   -0.000005
    H   -1.386741    0.511343    0.000035
    H   -0.620068   -1.698158    1.425843
    H   -0.620096   -1.698151   -1.425830
    H    1.666093    0.013783   -0.000016

FREQUENCIES 21
177.5756
324.9151
415.2391
509.2495
617.3641
629.4522
823.7739
914.6372
918.3759
1006.4792
1010.4827
1052.8454
1135.1198
1262.6394
1381.3997
1436.8866
1621.0197
2810.2186
2979.8317
3031.1695
3057.5366

SYMMETRY CS
ELECTRONIC_STATE 2-A"
