9
Energy = -229.4405855600
    C    3.156292    3.386713    0.871778
    C    3.039702    1.892971    0.903717
    O    4.185098    1.212571    0.920961
    C    1.901976    1.123078    0.919828
    C    0.919846    0.396908    0.936143
    H    3.699558    3.728859   -0.016035
    H    3.687061    3.767351    1.751557
    H    2.154866    3.817798    0.855260
    H    0.041911   -0.200554    0.946317

FREQUENCIES 21
75.0814
171.3657
243.5436
315.8892
335.2172
460.9299
540.9070
725.6526
750.4874
964.8555
1013.7744
1198.3964
1309.0391
1382.2713
1434.3832
1468.4542
2009.8456
2955.7763
3011.1015
3073.4122
3425.5941

SYMMETRY C1
ELECTRONIC_STATE 4-A
