9
Energy = -229.4661167200
    C   -0.919073   -0.672224   -0.000000
    C    1.216629    0.149921   -0.000000
    O    0.394543   -1.055686    0.000000
    C    0.191901    1.222879   -0.000000
    C   -1.078024    0.701633    0.000000
    H   -1.645983   -1.467721   -0.000000
    H    1.863803    0.129176    0.887114
    H    1.863803    0.129176   -0.887114
    H   -2.024772    1.220128    0.000000

FREQUENCIES 21
244.8466
501.9920
637.9524
742.8058
821.0565
854.7966
868.2135
934.0441
996.1419
1061.7351
1131.3168
1159.6541
1245.0299
1318.4901
1338.6918
1453.2618
1473.4977
2927.7967
2959.3088
3190.8960
3220.2933

SYMMETRY CS
ELECTRONIC_STATE 4-A"
