4
Energy = -151.7630349600
    C   -0.061300   -0.291862    0.014344
    C   -0.259523    0.945303    0.095381
    H   -0.936383    1.658083    0.510137
    O    0.248088   -1.460060   -0.142202

FREQUENCIES 6
416.1323
588.1395
600.7423
1240.0874
2078.4963
3357.0531

SYMMETRY CS
ELECTRONIC_STATE 1-A'
