4
Energy = -151.5900699400
    C    0.344276   -0.373956    0.243806
    C    1.582326   -0.678273    0.390785
    H   -0.984895    0.686346   -0.771125
    O   -0.849456   -0.022359    0.034198

FREQUENCIES 6
274.2813
287.6898
1038.9059
1072.9681
1466.1321
1982.3877

SYMMETRY CS
ELECTRONIC_STATE 3-A"
