4
Energy = -151.5830821100
    C   -0.786941   -0.460232   -0.542132
    C   -0.265587   -0.061678    0.788854
    H   -0.339569    0.868634    1.388908
    O    0.678361   -0.103736   -0.184277

FREQUENCIES 6
525.1875
874.7943
950.3930
1083.8215
1270.5944
2712.4173

SYMMETRY C1
ELECTRONIC_STATE 3-A
