4
Energy = -151.6634940200
    C   -0.293851   -0.378462    0.171881
    C   -0.118867    1.022342   -0.003637
    H   -0.927760    1.560069    0.510828
    O    0.331360   -1.352486   -0.201413

FREQUENCIES 6
313.9729
557.7866
979.6925
1038.1371
1629.9687
2961.1039

SYMMETRY CS
ELECTRONIC_STATE 3-A"
