4
Energy = -151.5830809700
    C   -0.276874   -0.120622    0.740944
    C   -0.500679    0.822218   -0.382755
    H   -0.715041   -1.103291    1.010894
    O    0.717711   -0.113472   -0.181471

FREQUENCIES 6
525.8556
874.3235
950.1121
1083.3522
1270.6421
2714.5795

SYMMETRY C1
ELECTRONIC_STATE 3-A
