4
Energy = -151.6850314200
    C   -0.841455    1.077241   -0.430430
    C   -0.177258    0.128580    0.009617
    H    1.380904   -0.626590    0.768908
    O    0.519126   -0.945152    0.485665

FREQUENCIES 6
306.5321
364.7116
932.8137
1219.5888
2050.8944
3772.4898

SYMMETRY CS
ELECTRONIC_STATE 1-A'
