5
Energy = -189.6738531400
    C   -0.642025    0.060797   -0.162528
    C   -1.867750   -0.424234    0.151391
    C    0.590667   -0.511643    0.300430
    H   -0.495104    0.952192   -0.812079
    O    1.745143   -0.218065    0.124059

FREQUENCIES 9
173.5851
354.0711
554.1582
733.1550
1005.9464
1172.1371
1468.1877
1765.5624
2765.0032

SYMMETRY CS
ELECTRONIC_STATE 3-A'
