5
Energy = -189.7369358700
    C   -1.107236    0.509841    0.314397
    C    0.310777    0.298838    0.086930
    C   -0.639082   -0.326201   -0.689325
    H   -0.993355   -0.981399   -1.488937
    O    1.488596    0.528069    0.387931

FREQUENCIES 9
526.6278
528.3632
814.1419
847.7215
877.2432
1183.0942
1366.1675
1790.3781
2996.2666

SYMMETRY CS
ELECTRONIC_STATE 1-A'
