6
Energy = -227.6029779300
    C   -1.709725   -0.552429    0.153722
    C    0.868694    0.003222    0.734172
    C    1.977292    0.480008    0.096081
    C   -0.396755   -0.188049    0.144798
    H    0.881871   -0.278242    1.799154
    O   -0.912225   -0.001410   -1.082819

FREQUENCIES 12
170.6828
236.1367
399.2413
472.6603
577.0860
761.8196
907.6170
1094.8885
1224.4979
1426.3509
1664.8375
2899.5127

SYMMETRY CS
ELECTRONIC_STATE 3-A"
