6
Energy = -227.6011436900
    C   -0.669073   -0.061225    0.607246
    C    0.182159    0.122692   -1.270351
    C    1.755216   -0.963603    0.653559
    C    0.756731   -0.508091   -0.003340
    H    0.685987    1.087157   -1.444251
    O   -1.059000    0.516325   -0.473876

FREQUENCIES 12
206.7280
261.1043
505.6164
561.5300
617.2318
663.7229
827.1968
1010.8998
1200.1937
1342.8033
1785.5036
2921.3434

SYMMETRY C1
ELECTRONIC_STATE 1-A
