3
Energy = -113.6850082300
    C   -0.638215   -0.314397    0.000000
    H   -0.381331   -1.678899    0.000000
    O    0.315116    0.430620    0.000000

FREQUENCIES 3
468.4595
1126.7608
1673.1131

SYMMETRY CS
ELECTRONIC_STATE 1-A'
