3
Energy = -113.5956423500
    C    1.143701    0.023319    0.000000
    H   -0.139939    1.488018    0.000000
    O   -0.200294    0.526180    0.000000

FREQUENCIES 3
814.7982
1017.5362
3666.2793

SYMMETRY CS
ELECTRONIC_STATE 3-A"
