3
Energy = -113.6896242900
    C   -0.856730   -0.001226    0.000000
    H   -1.430253   -1.110126    0.000000
    O    0.356799   -0.146459    0.000000

FREQUENCIES 3
1255.4396
1347.8816
1751.1309

SYMMETRY CS
ELECTRONIC_STATE 1-A'
