3
Energy = -113.6896296400
    C   -0.850952   -0.136473    0.000000
    H   -1.135510   -1.352404    0.000000
    O    0.361432    0.019273    0.000000

FREQUENCIES 3
1255.6273
1345.7266
1749.9318

SYMMETRY CS
ELECTRONIC_STATE 1-A'
