3
Energy = -113.5754868400
    C    1.039798   -0.211992    0.000000
    H   -0.442602    1.080819    0.000000
    O   -0.177139    0.069966    0.000000

FREQUENCIES 3
1053.1032
1472.2086
2211.6899

SYMMETRY CS
ELECTRONIC_STATE 3-A'
