3
Energy = -113.6896254600
    C   -0.556026   -0.643331    0.000000
    H    0.044843   -1.737510    0.000000
    O    0.241005    0.283249    0.000000

FREQUENCIES 3
1255.4692
1348.3948
1751.3779

SYMMETRY CS
ELECTRONIC_STATE 1-A'
