3
Energy = -113.6488120500
    C   -0.450837   -0.703954    0.000000
    H   -0.040154   -1.740946    0.000000
    O    0.220813    0.347307    0.000000

FREQUENCIES 3
1027.5171
1443.5427
2697.5590

SYMMETRY CS
ELECTRONIC_STATE 3-A"
