2
Energy = -75.6960672760
    H   -0.845370    0.000000    0.000000
    O    0.118672    0.000000    0.000000

FREQUENCIES 1
3770.0333

SYMMETRY C*V
ELECTRONIC_STATE 1-SG
