2
Energy = -75.6960673060
    H   -0.840131    0.000000    0.000000
    O    0.123950    0.000000    0.000000

FREQUENCIES 1
3769.5036

SYMMETRY C*V
ELECTRONIC_STATE 1-SG
