5
Energy = -115.06860524000
C 0.000000 0.000000 -1.263406
H 0.000000 0.000000 -2.324735
C 0.000000 0.000000 0.000022
C 0.000000 0.000000 1.263403
H 0.000000 0.000000 2.324621
