5
Energy =   -114.78545869000
    C    0.000000    0.000000   -1.258395
    H    0.000000    0.000000   -2.334129
    C    0.000000    0.000000    0.000082
    C    0.000000    0.000000    1.258294
    H    0.000000    0.000000    2.334247

FREQUENCIES 10
244.2438
270.4012
285.2288
381.9223
891.7743
895.8875
1308.0336
1930.3512
3320.2941
3324.2691

SYMMETRY C*V
ELECTRONIC_STATE ??
