 Entering Gaussian System, Link 0=/home/proyectos/fulerenos/M3C-v2.0/M3C-deps_CCC/g09-AM64L-G09RevC.01/g09
 Initial command:
 /home/proyectos/fulerenos/M3C-v2.0/M3C-deps_CCC/g09-AM64L-G09RevC.01/l1.exe "/scratch/naguirre/gaussian/Gau-5128.inp" -scrdir="/scratch/naguirre/gaussian/"
 Entering Link 1 = /home/proyectos/fulerenos/M3C-v2.0/M3C-deps_CCC/g09-AM64L-G09RevC.01/l1.exe PID=      5135.
  
 Copyright (c) 1988,1990,1992,1993,1995,1998,2003,2009,2015,
            Gaussian, Inc.  All Rights Reserved.
  
 This is part of the Gaussian(R) 09 program.  It is based on
 the Gaussian(R) 03 system (copyright 2003, Gaussian, Inc.),
 the Gaussian(R) 98 system (copyright 1998, Gaussian, Inc.),
 the Gaussian(R) 94 system (copyright 1995, Gaussian, Inc.),
 the Gaussian 92(TM) system (copyright 1992, Gaussian, Inc.),
 the Gaussian 90(TM) system (copyright 1990, Gaussian, Inc.),
 the Gaussian 88(TM) system (copyright 1988, Gaussian, Inc.),
 the Gaussian 86(TM) system (copyright 1986, Carnegie Mellon
 University), and the Gaussian 82(TM) system (copyright 1983,
 Carnegie Mellon University). Gaussian is a federally registered
 trademark of Gaussian, Inc.
  
 This software contains proprietary and confidential information,
 including trade secrets, belonging to Gaussian, Inc.
  
 This software is provided under written license and may be
 used, copied, transmitted, or stored only in accord with that
 written license.
  
 The following legend is applicable only to US Government
 contracts under FAR:
  
                    RESTRICTED RIGHTS LEGEND
  
 Use, reproduction and disclosure by the US Government is
 subject to restrictions as set forth in subparagraphs (a)
 and (c) of the Commercial Computer Software - Restricted
 Rights clause in FAR 52.227-19.
  
 Gaussian, Inc.
 340 Quinnipiac St., Bldg. 40, Wallingford CT 06492
  
  
 ---------------------------------------------------------------
 Warning -- This program may not be used in any manner that
 competes with the business of Gaussian, Inc. or will provide
 assistance to any competitor of Gaussian, Inc.  The licensee
 of this program is prohibited from giving any competitor of
 Gaussian, Inc. access to this program.  By using this program,
 the user acknowledges that Gaussian, Inc. is engaged in the
 business of creating and licensing software in the field of
 computational chemistry and represents and warrants to the
 licensee that it is not a competitor of Gaussian, Inc. and that
 it will not use this program in any manner prohibited above.
 ---------------------------------------------------------------
  

 Cite this work as:
 Gaussian 09, Revision E.01,
 M. J. Frisch, G. W. Trucks, H. B. Schlegel, G. E. Scuseria, 
 M. A. Robb, J. R. Cheeseman, G. Scalmani, V. Barone, B. Mennucci, 
 G. A. Petersson, H. Nakatsuji, M. Caricato, X. Li, H. P. Hratchian, 
 A. F. Izmaylov, J. Bloino, G. Zheng, J. L. Sonnenberg, M. Hada, 
 M. Ehara, K. Toyota, R. Fukuda, J. Hasegawa, M. Ishida, T. Nakajima, 
 Y. Honda, O. Kitao, H. Nakai, T. Vreven, J. A. Montgomery, Jr., 
 J. E. Peralta, F. Ogliaro, M. Bearpark, J. J. Heyd, E. Brothers, 
 K. N. Kudin, V. N. Staroverov, T. Keith, R. Kobayashi, J. Normand, 
 K. Raghavachari, A. Rendell, J. C. Burant, S. S. Iyengar, J. Tomasi, 
 M. Cossi, N. Rega, J. M. Millam, M. Klene, J. E. Knox, J. B. Cross, 
 V. Bakken, C. Adamo, J. Jaramillo, R. Gomperts, R. E. Stratmann, 
 O. Yazyev, A. J. Austin, R. Cammi, C. Pomelli, J. W. Ochterski, 
 R. L. Martin, K. Morokuma, V. G. Zakrzewski, G. A. Voth, 
 P. Salvador, J. J. Dannenberg, S. Dapprich, A. D. Daniels, 
 O. Farkas, J. B. Foresman, J. V. Ortiz, J. Cioslowski, 
 and D. J. Fox, Gaussian, Inc., Wallingford CT, 2013.
 
 ******************************************
 Gaussian 09:  EM64L-G09RevE.01 30-Nov-2015
                31-Jan-2019 
 ******************************************
 %NProcShared=4
 Will use up to    4 processors via shared memory.
 ------------------------------------------------------
 #p b3lyp/6-311++G(3df,2p) freq IOp(2/17=3) IOp(2/18=3)
 ------------------------------------------------------
 1/10=4,30=1,38=1/1,3;
 2/12=2,17=3,18=3,40=1/2;
 3/5=4,6=6,7=1216,11=2,16=1,25=1,30=1,71=2,74=-5,140=1/1,2,3;
 4//1;
 5/5=2,38=5,98=1/2;
 8/6=4,10=90,11=11/1;
 11/6=1,8=1,9=11,15=111,16=1/1,2,10;
 10/6=1/2;
 6/7=2,8=2,9=2,10=2,18=1,28=1/1;
 7/8=1,10=1,25=1/1,2,3,16;
 1/10=4,30=1/3;
 99//99;
 Leave Link    1 at Thu Jan 31 04:12:33 2019, MaxMem=           0 cpu:         0.2
 (Enter /home/proyectos/fulerenos/M3C-v2.0/M3C-deps_CCC/g09-AM64L-G09RevC.01/l101.exe)
 ---------
 b3lyp opt
 ---------
 Symbolic Z-matrix:
 Charge =  2 Multiplicity = 1
 C                     0.00004   0.00058  -0.00081 
 C                    -1.26375  -0.00073  -0.00025 
 C                     1.26384  -0.00022  -0.00026 
 H                     2.373    -0.00112   0.00031 
 H                    -2.37289  -0.00237   0.00048 
 
 NAtoms=      5 NQM=        5 NQMF=       0 NMMI=      0 NMMIF=      0
                NMic=       0 NMicF=      0.
                    Isotopes and Nuclear Properties:
 (Nuclear quadrupole moments (NQMom) in fm**2, nuclear magnetic moments (NMagM)
  in nuclear magnetons)

  Atom         1           2           3           4           5
 IAtWgt=          12          12          12           1           1
 AtmWgt=  12.0000000  12.0000000  12.0000000   1.0078250   1.0078250
 NucSpn=           0           0           0           1           1
 AtZEff=   0.0000000   0.0000000   0.0000000   0.0000000   0.0000000
 NQMom=    0.0000000   0.0000000   0.0000000   0.0000000   0.0000000
 NMagM=    0.0000000   0.0000000   0.0000000   2.7928460   2.7928460
 AtZNuc=   6.0000000   6.0000000   6.0000000   1.0000000   1.0000000
 Leave Link  101 at Thu Jan 31 04:12:33 2019, MaxMem=    33554432 cpu:         0.3
 (Enter /home/proyectos/fulerenos/M3C-v2.0/M3C-deps_CCC/g09-AM64L-G09RevC.01/l103.exe)

 GradGradGradGradGradGradGradGradGradGradGradGradGradGradGradGradGradGrad
 Berny optimization.
 Initialization pass.
 Trust Radius=3.00D-01 FncErr=1.00D-07 GrdErr=1.00D-07
 Number of steps in this run=      2 maximum allowed number of steps=      2.
 GradGradGradGradGradGradGradGradGradGradGradGradGradGradGradGradGradGrad

 Leave Link  103 at Thu Jan 31 04:12:33 2019, MaxMem=    33554432 cpu:         0.1
 (Enter /home/proyectos/fulerenos/M3C-v2.0/M3C-deps_CCC/g09-AM64L-G09RevC.01/l202.exe)
                          Input orientation:                          
 ---------------------------------------------------------------------
 Center     Atomic      Atomic             Coordinates (Angstroms)
 Number     Number       Type             X           Y           Z
 ---------------------------------------------------------------------
      1          6           0        0.000043    0.000581   -0.000807
      2          6           0       -1.263752   -0.000734   -0.000253
      3          6           0        1.263845   -0.000223   -0.000262
      4          1           0        2.372998   -0.001116    0.000314
      5          1           0       -2.372887   -0.002369    0.000481
 ---------------------------------------------------------------------
                    Distance matrix (angstroms):
                    1          2          3          4          5
     1  C    0.000000
     2  C    1.263796   0.000000
     3  C    1.263802   2.527597   0.000000
     4  H    2.372956   3.636750   1.109154   0.000000
     5  H    2.372932   1.109136   3.636733   4.745885   0.000000
 Stoichiometry    C3H2(2+)
 Framework group  D*H[O(C),C*(C.C),X(H2)]
 NUMDOF-- UNRECOGNIZED SYMMETRIC SUBSPACE, ICHAR= X   "
 Deg. of freedom    -1
 Full point group                         NOp   0
 Largest Abelian subgroup         D2H     NOp   8
 Largest concise Abelian subgroup C2      NOp   2
                         Standard orientation:                         
 ---------------------------------------------------------------------
 Center     Atomic      Atomic             Coordinates (Angstroms)
 Number     Number       Type             X           Y           Z
 ---------------------------------------------------------------------
      1          6           0       -0.000000    0.000000   -0.000000
      2          6           0        0.000000    0.000000   -1.263798
      3          6           0       -0.000000   -0.000000    1.263798
      4          1           0        0.000000    0.000000    2.372951
      5          1           0        0.000000    0.000000   -2.372951
 ---------------------------------------------------------------------
 Rotational constants (GHZ):      0.0000000     10.1721948     10.1721948
 Leave Link  202 at Thu Jan 31 04:12:33 2019, MaxMem=    33554432 cpu:         0.0
 (Enter /home/proyectos/fulerenos/M3C-v2.0/M3C-deps_CCC/g09-AM64L-G09RevC.01/l301.exe)
 Standard basis: 6-311++G(3df,2p) (5D, 7F)
 Ernie: Thresh=  0.10000D-02 Tol=  0.10000D-05 Strict=F.
 There are    41 symmetry adapted cartesian basis functions of AG  symmetry.
 There are     7 symmetry adapted cartesian basis functions of B1G symmetry.
 There are    15 symmetry adapted cartesian basis functions of B2G symmetry.
 There are    15 symmetry adapted cartesian basis functions of B3G symmetry.
 There are     5 symmetry adapted cartesian basis functions of AU  symmetry.
 There are    34 symmetry adapted cartesian basis functions of B1U symmetry.
 There are    19 symmetry adapted cartesian basis functions of B2U symmetry.
 There are    19 symmetry adapted cartesian basis functions of B3U symmetry.
 There are    34 symmetry adapted basis functions of AG  symmetry.
 There are     7 symmetry adapted basis functions of B1G symmetry.
 There are    14 symmetry adapted basis functions of B2G symmetry.
 There are    14 symmetry adapted basis functions of B3G symmetry.
 There are     5 symmetry adapted basis functions of AU  symmetry.
 There are    29 symmetry adapted basis functions of B1U symmetry.
 There are    17 symmetry adapted basis functions of B2U symmetry.
 There are    17 symmetry adapted basis functions of B3U symmetry.
   137 basis functions,   198 primitive gaussians,   155 cartesian basis functions
     9 alpha electrons        9 beta electrons
       nuclear repulsion energy        47.9436173850 Hartrees.
 IExCor=  402 DFT=T Ex+Corr=B3LYP ExCW=0 ScaHFX=  0.200000
 ScaDFX=  0.800000  0.720000  1.000000  0.810000 ScalE2=  1.000000  1.000000
 IRadAn=      0 IRanWt=     -1 IRanGd=            0 ICorTp=0 IEmpDi=  4
 NAtoms=    5 NActive=    5 NUniq=    3 SFac= 2.78D+00 NAtFMM=   60 NAOKFM=F Big=F
 Integral buffers will be    131072 words long.
 Raffenetti 2 integral format.
 Two-electron integral symmetry is turned on.
 Leave Link  301 at Thu Jan 31 04:12:33 2019, MaxMem=    33554432 cpu:         0.3
 (Enter /home/proyectos/fulerenos/M3C-v2.0/M3C-deps_CCC/g09-AM64L-G09RevC.01/l302.exe)
 NPDir=0 NMtPBC=     1 NCelOv=     1 NCel=       1 NClECP=     1 NCelD=      1
         NCelK=      1 NCelE2=     1 NClLst=     1 CellRange=     0.0.
 One-electron integrals computed using PRISM.
 One-electron integral symmetry used in STVInt
 NBasis=   137 RedAO= T EigKep=  1.45D-06  NBF=    34     7    14    14     5    29    17    17
 NBsUse=   137 1.00D-06 EigRej= -1.00D+00 NBFU=    34     7    14    14     5    29    17    17
 Precomputing XC quadrature grid using
 IXCGrd= 4 IRadAn=           0 IRanWt=          -1 IRanGd=           0 AccXCQ= 0.00D+00.
 Generated NRdTot=       0 NPtTot=           0 NUsed=           0 NTot=          32
 NSgBfM=   155   155   155   155   155 MxSgAt=     5 MxSgA2=     5.
 Leave Link  302 at Thu Jan 31 04:12:34 2019, MaxMem=    33554432 cpu:         1.7
 (Enter /home/proyectos/fulerenos/M3C-v2.0/M3C-deps_CCC/g09-AM64L-G09RevC.01/l303.exe)
 DipDrv:  MaxL=1.
 Leave Link  303 at Thu Jan 31 04:12:34 2019, MaxMem=    33554432 cpu:         0.2
 (Enter /home/proyectos/fulerenos/M3C-v2.0/M3C-deps_CCC/g09-AM64L-G09RevC.01/l401.exe)
 ExpMin= 3.60D-02 ExpMax= 4.56D+03 ExpMxC= 6.82D+02 IAcc=3 IRadAn=         5 AccDes= 0.00D+00
 Harris functional with IExCor=  402 and IRadAn=       5 diagonalized for initial guess.
 HarFok:  IExCor=  402 AccDes= 0.00D+00 IRadAn=         5 IDoV= 1 UseB2=F ITyADJ=14
 ICtDFT=  3500011 ScaDFX=  1.000000  1.000000  1.000000  1.000000
 FoFCou: FMM=F IPFlag=           0 FMFlag=      100000 FMFlg1=           0
         NFxFlg=           0 DoJE=T BraDBF=F KetDBF=T FulRan=T
         wScrn=  0.000000 ICntrl=     500 IOpCl=  0 I1Cent=   200000004 NGrid=           0
         NMat0=    1 NMatS0=      1 NMatT0=    0 NMatD0=    1 NMtDS0=    0 NMtDT0=    0
 Petite list used in FoFCou.
 Harris En= -114.875068432508    
 JPrj=0 DoOrth=F DoCkMO=F.
 Initial guess orbital symmetries:
       Occupied  (SGG) (SGU) (SGG) (SGG) (SGU) (SGG) (SGU) (PIU)
                 (PIU)
       Virtual   (PIG) (PIG) (PIU) (PIU) (SGG) (SGU) (SGG) (PIU)
                 (PIU) (SGU) (SGG) (PIG) (PIG) (SGU) (PIU) (PIU)
                 (SGG) (SGU) (SGG) (DLTG) (DLTG) (SGG) (SGU) (DLTU)
                 (DLTU) (PIG) (PIG) (SGG) (SGU) (PIU) (PIU) (PIG)
                 (PIG) (PIU) (PIU) (SGU) (SGG) (DLTG) (DLTG) (SGG)
                 (SGU) (PIU) (PIU) (SGU) (PIG) (PIG) (SGG) (SGG)
                 (PIG) (PIG) (SGU) (PIU) (PIU) (SGU) (SGG) (DLTG)
                 (DLTG) (SGU) (SGG) (DLTU) (DLTU) (PIG) (PIG) (PIU)
                 (PIU) (DLTG) (DLTG) (PIG) (PIG) (SGG) (SGU) (DLTU)
                 (DLTU) (PHIU) (PHIU) (PIU) (PIU) (SGU) (PHIG)
                 (PHIG) (PIG) (PIG) (PIU) (PIU) (SGG) (PHIU) (PHIU)
                 (DLTG) (DLTG) (SGG) (SGU) (PIU) (PIU) (SGG) (PIG)
                 (PIG) (DLTU) (DLTU) (SGU) (SGG) (SGU) (PIU) (PIU)
                 (PIG) (PIG) (SGU) (SGG) (PIU) (PIU) (SGU) (DLTG)
                 (DLTG) (DLTU) (DLTU) (DLTG) (DLTG) (PIU) (PIU)
                 (PIG) (PIG) (PIG) (PIG) (SGG) (SGU) (SGG) (SGG)
                 (SGG) (SGU)
 The electronic state of the initial guess is 1-SGG.
 Leave Link  401 at Thu Jan 31 04:12:35 2019, MaxMem=    33554432 cpu:         2.0
 (Enter /home/proyectos/fulerenos/M3C-v2.0/M3C-deps_CCC/g09-AM64L-G09RevC.01/l502.exe)
 Closed shell SCF:
 Using DIIS extrapolation, IDIIS=  1040.
 Integral symmetry usage will be decided dynamically.
 IVT=       93109 IEndB=       93109 NGot=    33554432 MDV=    33502144
 LenX=    33502144 LenY=    33477678
 Requested convergence on RMS density matrix=1.00D-08 within 128 cycles.
 Requested convergence on MAX density matrix=1.00D-06.
 Requested convergence on             energy=1.00D-06.
 No special actions if energy rises.
 Fock matrices will be formed incrementally for  20 cycles.

 Cycle   1  Pass 1  IDiag  1:
 FoFJK:  IHMeth= 1 ICntrl=       0 DoSepK=F KAlg= 0 I1Cent=   0 FoldK=F
 IRaf= 990000000 NMat=   1 IRICut=       1 DoRegI=T DoRafI=F ISym2E= 1.
 FoFCou: FMM=F IPFlag=           0 FMFlag=      100000 FMFlg1=           0
         NFxFlg=           0 DoJE=F BraDBF=F KetDBF=F FulRan=T
         wScrn=  0.000000 ICntrl=       0 IOpCl=  0 I1Cent=           0 NGrid=           0
         NMat0=    1 NMatS0=      1 NMatT0=    0 NMatD0=    1 NMtDS0=    0 NMtDT0=    0
 Petite list used in FoFCou.
 E= -114.386948073528    
 DIIS: error= 2.98D-02 at cycle   1 NSaved=   1.
 NSaved= 1 IEnMin= 1 EnMin= -114.386948073528     IErMin= 1 ErrMin= 2.98D-02
 ErrMax= 2.98D-02  0.00D+00 EMaxC= 1.00D-01 BMatC= 4.90D-02 BMatP= 4.90D-02
 IDIUse=3 WtCom= 7.02D-01 WtEn= 2.98D-01
 Coeff-Com:  0.100D+01
 Coeff-En:   0.100D+01
 Coeff:      0.100D+01
 Gap=     0.156 Goal=   None    Shift=    0.000
 GapD=    0.156 DampG=1.000 DampE=0.500 DampFc=0.5000 IDamp=-1.
 Damping current iteration by 5.00D-01
 RMSDP=4.06D-03 MaxDP=8.47D-02              OVMax= 1.44D-01

 Cycle   2  Pass 1  IDiag  1:
 RMSU=  2.02D-03    CP:  1.01D+00
 E= -114.404267772280     Delta-E=       -0.017319698752 Rises=F Damp=T
 DIIS: error= 8.75D-03 at cycle   2 NSaved=   2.
 NSaved= 2 IEnMin= 2 EnMin= -114.404267772280     IErMin= 2 ErrMin= 8.75D-03
 ErrMax= 8.75D-03  0.00D+00 EMaxC= 1.00D-01 BMatC= 4.92D-03 BMatP= 4.90D-02
 IDIUse=3 WtCom= 9.12D-01 WtEn= 8.75D-02
 Coeff-Com:  0.962D-01 0.904D+00
 Coeff-En:   0.181D+00 0.819D+00
 Coeff:      0.104D+00 0.896D+00
 Gap=     0.204 Goal=   None    Shift=    0.000
 RMSDP=2.63D-03 MaxDP=8.21D-02 DE=-1.73D-02 OVMax= 1.06D-01

 Cycle   3  Pass 1  IDiag  1:
 RMSU=  2.59D-03    CP:  1.01D+00  1.23D+00
 E= -114.430044319093     Delta-E=       -0.025776546813 Rises=F Damp=F
 DIIS: error= 6.11D-03 at cycle   3 NSaved=   3.
 NSaved= 3 IEnMin= 3 EnMin= -114.430044319093     IErMin= 3 ErrMin= 6.11D-03
 ErrMax= 6.11D-03  0.00D+00 EMaxC= 1.00D-01 BMatC= 1.43D-03 BMatP= 4.92D-03
 IDIUse=3 WtCom= 9.39D-01 WtEn= 6.11D-02
 Coeff-Com: -0.911D-01 0.276D+00 0.815D+00
 Coeff-En:   0.000D+00 0.000D+00 0.100D+01
 Coeff:     -0.856D-01 0.259D+00 0.827D+00
 Gap=     0.201 Goal=   None    Shift=    0.000
 RMSDP=9.36D-04 MaxDP=3.26D-02 DE=-2.58D-02 OVMax= 1.74D-02

 Cycle   4  Pass 1  IDiag  1:
 RMSU=  5.39D-04    CP:  9.77D-01  1.33D+00  1.05D+00
 E= -114.431430853102     Delta-E=       -0.001386534009 Rises=F Damp=F
 DIIS: error= 1.84D-03 at cycle   4 NSaved=   4.
 NSaved= 4 IEnMin= 4 EnMin= -114.431430853102     IErMin= 4 ErrMin= 1.84D-03
 ErrMax= 1.84D-03  0.00D+00 EMaxC= 1.00D-01 BMatC= 1.18D-04 BMatP= 1.43D-03
 IDIUse=3 WtCom= 9.82D-01 WtEn= 1.84D-02
 Coeff-Com: -0.227D-01 0.494D-01 0.312D+00 0.662D+00
 Coeff-En:   0.000D+00 0.000D+00 0.000D+00 0.100D+01
 Coeff:     -0.223D-01 0.485D-01 0.306D+00 0.668D+00
 Gap=     0.202 Goal=   None    Shift=    0.000
 RMSDP=2.58D-04 MaxDP=9.61D-03 DE=-1.39D-03 OVMax= 3.51D-03

 Cycle   5  Pass 1  IDiag  1:
 RMSU=  5.98D-05    CP:  9.85D-01  1.32D+00  1.01D+00  7.45D-01
 E= -114.431554343087     Delta-E=       -0.000123489985 Rises=F Damp=F
 DIIS: error= 3.62D-05 at cycle   5 NSaved=   5.
 NSaved= 5 IEnMin= 5 EnMin= -114.431554343087     IErMin= 5 ErrMin= 3.62D-05
 ErrMax= 3.62D-05  0.00D+00 EMaxC= 1.00D-01 BMatC= 8.15D-08 BMatP= 1.18D-04
 IDIUse=1 WtCom= 1.00D+00 WtEn= 0.00D+00
 Coeff-Com: -0.119D-02 0.138D-02 0.236D-01 0.575D-01 0.919D+00
 Coeff:     -0.119D-02 0.138D-02 0.236D-01 0.575D-01 0.919D+00
 Gap=     0.202 Goal=   None    Shift=    0.000
 RMSDP=1.90D-05 MaxDP=8.64D-04 DE=-1.23D-04 OVMax= 1.10D-04

 Cycle   6  Pass 1  IDiag  1:
 RMSU=  6.33D-06    CP:  9.85D-01  1.32D+00  1.01D+00  7.31D-01  9.71D-01
 E= -114.431554418132     Delta-E=       -0.000000075045 Rises=F Damp=F
 DIIS: error= 4.63D-06 at cycle   6 NSaved=   6.
 NSaved= 6 IEnMin= 6 EnMin= -114.431554418132     IErMin= 6 ErrMin= 4.63D-06
 ErrMax= 4.63D-06  0.00D+00 EMaxC= 1.00D-01 BMatC= 7.31D-10 BMatP= 8.15D-08
 IDIUse=1 WtCom= 1.00D+00 WtEn= 0.00D+00
 Coeff-Com: -0.502D-04 0.104D-03-0.405D-03-0.135D-02 0.241D-01 0.978D+00
 Coeff:     -0.502D-04 0.104D-03-0.405D-03-0.135D-02 0.241D-01 0.978D+00
 Gap=     0.202 Goal=   None    Shift=    0.000
 RMSDP=1.15D-06 MaxDP=6.00D-05 DE=-7.50D-08 OVMax= 7.65D-06

 Cycle   7  Pass 1  IDiag  1:
 RMSU=  4.65D-07    CP:  9.85D-01  1.32D+00  1.01D+00  7.32D-01  9.79D-01
                    CP:  1.00D+00
 E= -114.431554418859     Delta-E=       -0.000000000727 Rises=F Damp=F
 DIIS: error= 4.00D-07 at cycle   7 NSaved=   7.
 NSaved= 7 IEnMin= 7 EnMin= -114.431554418859     IErMin= 7 ErrMin= 4.00D-07
 ErrMax= 4.00D-07  0.00D+00 EMaxC= 1.00D-01 BMatC= 4.59D-12 BMatP= 7.31D-10
 IDIUse=1 WtCom= 1.00D+00 WtEn= 0.00D+00
 Coeff-Com: -0.599D-06 0.177D-05-0.174D-03-0.390D-03-0.334D-02 0.777D-01
 Coeff-Com:  0.926D+00
 Coeff:     -0.599D-06 0.177D-05-0.174D-03-0.390D-03-0.334D-02 0.777D-01
 Coeff:      0.926D+00
 Gap=     0.202 Goal=   None    Shift=    0.000
 RMSDP=7.50D-08 MaxDP=3.42D-06 DE=-7.27D-10 OVMax= 4.71D-07

 Cycle   8  Pass 1  IDiag  1:
 RMSU=  2.22D-08    CP:  9.85D-01  1.32D+00  1.01D+00  7.32D-01  9.79D-01
                    CP:  1.01D+00  9.58D-01
 E= -114.431554418863     Delta-E=       -0.000000000003 Rises=F Damp=F
 DIIS: error= 6.19D-08 at cycle   8 NSaved=   8.
 NSaved= 8 IEnMin= 8 EnMin= -114.431554418863     IErMin= 8 ErrMin= 6.19D-08
 ErrMax= 6.19D-08  0.00D+00 EMaxC= 1.00D-01 BMatC= 1.87D-13 BMatP= 4.59D-12
 IDIUse=1 WtCom= 1.00D+00 WtEn= 0.00D+00
 Coeff-Com: -0.572D-06 0.117D-05-0.242D-05 0.582D-05-0.263D-03-0.855D-02
 Coeff-Com:  0.187D-01 0.990D+00
 Coeff:     -0.572D-06 0.117D-05-0.242D-05 0.582D-05-0.263D-03-0.855D-02
 Coeff:      0.187D-01 0.990D+00
 Gap=     0.202 Goal=   None    Shift=    0.000
 RMSDP=1.04D-08 MaxDP=5.17D-07 DE=-3.35D-12 OVMax= 9.69D-08

 Cycle   9  Pass 1  IDiag  1:
 RMSU=  2.21D-09    CP:  9.85D-01  1.32D+00  1.01D+00  7.32D-01  9.79D-01
                    CP:  1.01D+00  9.65D-01  1.02D+00
 E= -114.431554418863     Delta-E=        0.000000000000 Rises=F Damp=F
 DIIS: error= 4.66D-09 at cycle   9 NSaved=   9.
 NSaved= 9 IEnMin= 8 EnMin= -114.431554418863     IErMin= 9 ErrMin= 4.66D-09
 ErrMax= 4.66D-09  0.00D+00 EMaxC= 1.00D-01 BMatC= 7.74D-16 BMatP= 1.87D-13
 IDIUse=1 WtCom= 1.00D+00 WtEn= 0.00D+00
 Coeff-Com: -0.698D-07 0.166D-06 0.727D-06 0.141D-05 0.646D-05-0.922D-03
 Coeff-Com: -0.378D-02 0.155D-01 0.989D+00
 Coeff:     -0.698D-07 0.166D-06 0.727D-06 0.141D-05 0.646D-05-0.922D-03
 Coeff:     -0.378D-02 0.155D-01 0.989D+00
 Gap=     0.202 Goal=   None    Shift=    0.000
 RMSDP=6.10D-10 MaxDP=4.05D-08 DE= 2.27D-13 OVMax= 6.46D-09

 SCF Done:  E(RB3LYP) =  -114.431554419     A.U. after    9 cycles
            NFock=  9  Conv=0.61D-09     -V/T= 2.0045
 KE= 1.139215956299D+02 PE=-3.504156595953D+02 EE= 7.411889216161D+01
 Leave Link  502 at Thu Jan 31 04:12:50 2019, MaxMem=    33554432 cpu:        48.5
 (Enter /home/proyectos/fulerenos/M3C-v2.0/M3C-deps_CCC/g09-AM64L-G09RevC.01/l801.exe)
 DoSCS=F DFT=T ScalE2(SS,OS)=  1.000000  1.000000
 Range of M.O.s used for correlation:     1   137
 NBasis=   137 NAE=     9 NBE=     9 NFC=     0 NFV=     0
 NROrb=    137 NOA=     9 NOB=     9 NVA=   128 NVB=   128

 **** Warning!!: The largest alpha MO coefficient is  0.38408010D+03

 Leave Link  801 at Thu Jan 31 04:12:50 2019, MaxMem=    33554432 cpu:         0.1
 (Enter /home/proyectos/fulerenos/M3C-v2.0/M3C-deps_CCC/g09-AM64L-G09RevC.01/l1101.exe)
 Using compressed storage, NAtomX=     5.
 Will process      6 centers per pass.
 Leave Link 1101 at Thu Jan 31 04:12:50 2019, MaxMem=    33554432 cpu:         1.1
 (Enter /home/proyectos/fulerenos/M3C-v2.0/M3C-deps_CCC/g09-AM64L-G09RevC.01/l1102.exe)
 Symmetrizing basis deriv contribution to polar:
 IMax=3 JMax=2 DiffMx= 0.00D+00
 Leave Link 1102 at Thu Jan 31 04:12:50 2019, MaxMem=    33554432 cpu:         0.1
 (Enter /home/proyectos/fulerenos/M3C-v2.0/M3C-deps_CCC/g09-AM64L-G09RevC.01/l1110.exe)
 Forming Gx(P) for the SCF density, NAtomX=     5.
 Integral derivatives from FoFJK, PRISM(SPDF).
 Do as many integral derivatives as possible in FoFJK.
 G2DrvN: MDV=      33554288.
 G2DrvN: will do     6 centers at a time, making    1 passes.
 Calling FoFCou, ICntrl=  3107 FMM=F I1Cent=   0 AccDes= 0.00D+00.
 FoFJK:  IHMeth= 1 ICntrl=    3107 DoSepK=F KAlg= 0 I1Cent=   0 FoldK=F
 IRaf=         0 NMat=   1 IRICut=       1 DoRegI=T DoRafI=F ISym2E= 1.
 FoFCou: FMM=F IPFlag=           0 FMFlag=      100000 FMFlg1=           0
         NFxFlg=           0 DoJE=F BraDBF=F KetDBF=F FulRan=T
         wScrn=  0.000000 ICntrl=    3107 IOpCl=  0 I1Cent=           0 NGrid=           0
         NMat0=    1 NMatS0=      1 NMatT0=    0 NMatD0=    1 NMtDS0=    0 NMtDT0=    0
 Petite list used in FoFCou.
 End of G2Drv F.D. properties file   721 does not exist.
 End of G2Drv F.D. properties file   722 does not exist.
 End of G2Drv F.D. properties file   788 does not exist.
 Leave Link 1110 at Thu Jan 31 04:12:56 2019, MaxMem=    33554432 cpu:        21.2
 (Enter /home/proyectos/fulerenos/M3C-v2.0/M3C-deps_CCC/g09-AM64L-G09RevC.01/l1002.exe)
 Minotr:  Closed shell wavefunction.
          IDoAtm=11111
          Direct CPHF calculation.
          Differentiating once with respect to electric field.
                with respect to dipole field.
          Differentiating once with respect to nuclear coordinates.
          Using symmetry in CPHF.
          Requested convergence is 1.0D-08 RMS, and 1.0D-07 maximum.
          Secondary convergence is 1.0D-12 RMS, and 1.0D-12 maximum.
          NewPWx=T KeepS1=F KeepF1=F KeepIn=T MapXYZ=F SortEE=F KeepMc=T.
          MDV=      33554241 using IRadAn=       2.
 Generate precomputed XC quadrature information.
          Solving linear equations simultaneously, MaxMat=       0.
 FoFJK:  IHMeth= 1 ICntrl=       0 DoSepK=F KAlg= 0 I1Cent=   0 FoldK=F
 IRaf= 990000000 NMat=  12 IRICut=      30 DoRegI=T DoRafI=T ISym2E= 2.
 FoFCou: FMM=F IPFlag=           0 FMFlag=      100000 FMFlg1=           0
         NFxFlg=           0 DoJE=F BraDBF=F KetDBF=F FulRan=T
         wScrn=  0.000000 ICntrl=       0 IOpCl=  0 I1Cent=           0 NGrid=           0
         NMat0=   12 NMatS0=     12 NMatT0=    0 NMatD0=   12 NMtDS0=    0 NMtDT0=    0
 Integrals replicated using symmetry in FoFCou.
          There are    12 degrees of freedom in the 1st order CPHF.  IDoFFX=4 NUNeed=    12.
     12 vectors produced by pass  0 Test12= 9.60D-15 8.33D-09 XBig12= 1.51D+02 8.57D+00.
 AX will form    12 AO Fock derivatives at one time.
     12 vectors produced by pass  1 Test12= 9.60D-15 8.33D-09 XBig12= 4.23D+01 2.60D+00.
     12 vectors produced by pass  2 Test12= 9.60D-15 8.33D-09 XBig12= 4.72D-01 1.87D-01.
     12 vectors produced by pass  3 Test12= 9.60D-15 8.33D-09 XBig12= 1.37D-03 1.53D-02.
     12 vectors produced by pass  4 Test12= 9.60D-15 8.33D-09 XBig12= 3.89D-06 5.56D-04.
     10 vectors produced by pass  5 Test12= 9.60D-15 8.33D-09 XBig12= 1.22D-08 2.72D-05.
      3 vectors produced by pass  6 Test12= 9.60D-15 8.33D-09 XBig12= 9.85D-12 9.34D-07.
      3 vectors produced by pass  7 Test12= 9.60D-15 8.33D-09 XBig12= 9.12D-14 9.76D-08.
      2 vectors produced by pass  8 Test12= 9.60D-15 8.33D-09 XBig12= 8.94D-15 4.50D-08.
      2 vectors produced by pass  9 Test12= 9.60D-15 8.33D-09 XBig12= 1.10D-15 1.19D-08.
 InvSVY:  IOpt=1 It=  1 EMax= 3.55D-15
 Solved reduced A of dimension    80 with    12 vectors.
 FullF1:  Do perturbations    1 to    12.
 Isotropic polarizability for W=    0.000000       23.81 Bohr**3.
 End of Minotr F.D. properties file   721 does not exist.
 End of Minotr F.D. properties file   722 does not exist.
 End of Minotr F.D. properties file   788 does not exist.
 Leave Link 1002 at Thu Jan 31 04:13:24 2019, MaxMem=    33554432 cpu:       111.6
 (Enter /home/proyectos/fulerenos/M3C-v2.0/M3C-deps_CCC/g09-AM64L-G09RevC.01/l601.exe)
 Copying SCF densities to generalized density rwf, IOpCl= 0 IROHF=0.

 **********************************************************************

            Population analysis using the SCF density.

 **********************************************************************

 Orbital symmetries:
       Occupied  (SGU) (SGG) (SGG) (SGG) (SGU) (SGG) (SGU) (PIU)
                 (PIU)
       Virtual   (PIG) (PIG) (PIU) (PIU) (SGG) (SGU) (SGG) (SGU)
                 (PIU) (PIU) (SGG) (PIG) (PIG) (DLTG) (DLTG) (PIU)
                 (PIU) (SGU) (SGG) (SGG) (SGU) (DLTU) (DLTU) (SGG)
                 (PIG) (PIG) (SGU) (PIU) (PIU) (SGG) (SGU) (PIG)
                 (PIG) (PIU) (PIU) (DLTG) (DLTG) (SGG) (SGU) (SGG)
                 (SGU) (PIU) (PIU) (PIG) (PIG) (SGU) (SGG) (SGG)
                 (PIG) (PIG) (SGU) (PIU) (PIU) (DLTG) (DLTG) (SGU)
                 (SGG) (DLTU) (DLTU) (SGU) (SGG) (PIG) (PIG) (PIU)
                 (PIU) (DLTG) (DLTG) (PIG) (PIG) (SGG) (SGU) (DLTU)
                 (DLTU) (PHIU) (PHIU) (PIU) (PIU) (SGU) (PHIG)
                 (PHIG) (PIG) (PIG) (PIU) (PIU) (SGG) (DLTG) (DLTG)
                 (PHIU) (PHIU) (SGG) (SGU) (PIU) (PIU) (SGG) (PIG)
                 (PIG) (DLTU) (DLTU) (SGU) (SGG) (SGU) (PIU) (PIU)
                 (PIG) (PIG) (SGU) (SGG) (PIU) (PIU) (SGU) (DLTG)
                 (DLTG) (DLTU) (DLTU) (DLTG) (DLTG) (PIU) (PIU)
                 (PIG) (PIG) (PIG) (PIG) (SGG) (SGU) (SGG) (SGG)
                 (SGU) (SGG)
 The electronic state is 1-SGG.
 Alpha  occ. eigenvalues --  -10.91029 -10.91022 -10.79463  -1.41316  -1.31014
 Alpha  occ. eigenvalues --   -1.11910  -1.09417  -0.92996  -0.92996
 Alpha virt. eigenvalues --   -0.72782  -0.72782  -0.47204  -0.47204  -0.40799
 Alpha virt. eigenvalues --   -0.37312  -0.35784  -0.27618  -0.27505  -0.27505
 Alpha virt. eigenvalues --   -0.25209  -0.22672  -0.22672  -0.19361  -0.19361
 Alpha virt. eigenvalues --   -0.15801  -0.15801  -0.14038  -0.13410  -0.10757
 Alpha virt. eigenvalues --   -0.09349  -0.06328  -0.06327  -0.06119  -0.01918
 Alpha virt. eigenvalues --   -0.01918  -0.00099   0.02684   0.02684   0.05909
 Alpha virt. eigenvalues --    0.08789   0.09016   0.09016   0.12715   0.12715
 Alpha virt. eigenvalues --    0.13782   0.13783   0.17856   0.18982   0.23464
 Alpha virt. eigenvalues --    0.30874   0.36205   0.36205   0.39354   0.39354
 Alpha virt. eigenvalues --    0.43180   0.54888   0.68345   0.69827   0.69827
 Alpha virt. eigenvalues --    0.74737   0.79648   0.79648   0.85452   0.85452
 Alpha virt. eigenvalues --    0.87871   0.89716   1.00244   1.00245   1.03577
 Alpha virt. eigenvalues --    1.05414   1.14883   1.14883   1.23841   1.23841
 Alpha virt. eigenvalues --    1.25307   1.25307   1.84522   1.84522   1.90342
 Alpha virt. eigenvalues --    1.94053   1.94060   1.94060   2.00457   2.00457
 Alpha virt. eigenvalues --    2.11649   2.11649   2.19400   2.21681   2.21681
 Alpha virt. eigenvalues --    2.27271   2.27271   2.34185   2.34185   2.35672
 Alpha virt. eigenvalues --    2.51673   2.51673   2.52108   2.52108   2.62173
 Alpha virt. eigenvalues --    2.65959   2.70806   2.70806   2.84036   3.39256
 Alpha virt. eigenvalues --    3.39256   3.44182   3.44182   3.50009   3.66102
 Alpha virt. eigenvalues --    3.69906   3.79216   3.79216   4.23960   4.23960
 Alpha virt. eigenvalues --    4.78534   5.31936   5.39929   5.39929   5.62570
 Alpha virt. eigenvalues --    6.26824   6.26825   6.35370   6.35370   6.48532
 Alpha virt. eigenvalues --    6.48533   6.52955   6.52955   6.73407   6.73407
 Alpha virt. eigenvalues --    6.98862   6.98862   7.02223   7.81503   8.06579
 Alpha virt. eigenvalues --   23.11780  25.80579  25.80972
          Condensed to atoms (all electrons):
               1          2          3          4          5
     1  C    6.049747  -0.159110  -0.159110   0.025333   0.025333
     2  C   -0.159110   6.327235  -0.839025   0.029275   0.233564
     3  C   -0.159110  -0.839025   6.327235   0.233564   0.029275
     4  H    0.025333   0.029275   0.233564   0.228831  -0.000038
     5  H    0.025333   0.233564   0.029275  -0.000038   0.228831
 Mulliken charges:
               1
     1  C    0.217806
     2  C    0.408062
     3  C    0.408062
     4  H    0.483036
     5  H    0.483036
 Sum of Mulliken charges =   2.00000
 Mulliken charges with hydrogens summed into heavy atoms:
               1
     1  C    0.217806
     2  C    0.891097
     3  C    0.891097
 APT charges:
               1
     1  C   -0.640923
     2  C    0.893006
     3  C    0.893006
     4  H    0.427455
     5  H    0.427455
 Sum of APT charges =   2.00000
 APT charges with hydrogens summed into heavy atoms:
               1
     1  C   -0.640923
     2  C    1.320461
     3  C    1.320461
 Electronic spatial extent (au):  <R**2>=            116.2894
 Charge=              2.0000 electrons
 Dipole moment (field-independent basis, Debye):
    X=              0.0000    Y=              0.0000    Z=             -0.0000  Tot=              0.0000
 Quadrupole moment (field-independent basis, Debye-Ang):
   XX=            -13.2043   YY=            -13.2043   ZZ=             16.1476
   XY=              0.0000   XZ=             -0.0000   YZ=              0.0000
 Traceless Quadrupole moment (field-independent basis, Debye-Ang):
   XX=             -9.7840   YY=             -9.7840   ZZ=             19.5679
   XY=              0.0000   XZ=             -0.0000   YZ=              0.0000
 Octapole moment (field-independent basis, Debye-Ang**2):
  XXX=              0.0000  YYY=             -0.0000  ZZZ=             -0.0000  XYY=              0.0000
  XXY=             -0.0000  XXZ=             -0.0000  XZZ=              0.0000  YZZ=              0.0000
  YYZ=             -0.0000  XYZ=             -0.0000
 Hexadecapole moment (field-independent basis, Debye-Ang**3):
 XXXX=            -11.4582 YYYY=            -11.4582 ZZZZ=             27.4297 XXXY=              0.0000
 XXXZ=              0.0000 YYYX=              0.0000 YYYZ=              0.0000 ZZZX=             -0.0000
 ZZZY=             -0.0000 XXYY=             -3.8194 XXZZ=            -20.2880 YYZZ=            -20.2880
 XXYZ=              0.0000 YYXZ=              0.0000 ZZXY=              0.0000
 N-N= 4.794361738499D+01 E-N=-3.504156596342D+02  KE= 1.139215956299D+02
 Symmetry AG   KE= 7.044094852662D+01
 Symmetry B1G  KE= 3.873378650941D-33
 Symmetry B2G  KE= 2.223512659519D-20
 Symmetry B3G  KE=-1.415400191595D-19
 Symmetry AU   KE= 4.189727317550D-33
 Symmetry B1U  KE= 3.849993365217D+01
 Symmetry B2U  KE= 2.490356725538D+00
 Symmetry B3U  KE= 2.490356725538D+00
  Exact polarizability:  13.581  -0.000  13.581  -0.000   0.000  44.283
 Approx polarizability:  18.334   0.000  18.334  -0.000  -0.000 131.643
 No NMR shielding tensors so no spin-rotation constants.
 Leave Link  601 at Thu Jan 31 04:13:24 2019, MaxMem=    33554432 cpu:         1.4
 (Enter /home/proyectos/fulerenos/M3C-v2.0/M3C-deps_CCC/g09-AM64L-G09RevC.01/l701.exe)
 Compute integral second derivatives.
 ... and contract with generalized density number  0.
 Leave Link  701 at Thu Jan 31 04:13:24 2019, MaxMem=    33554432 cpu:         1.9
 (Enter /home/proyectos/fulerenos/M3C-v2.0/M3C-deps_CCC/g09-AM64L-G09RevC.01/l702.exe)
 L702 exits ... SP integral derivatives will be done elsewhere.
 Leave Link  702 at Thu Jan 31 04:13:24 2019, MaxMem=    33554432 cpu:         0.1
 (Enter /home/proyectos/fulerenos/M3C-v2.0/M3C-deps_CCC/g09-AM64L-G09RevC.01/l703.exe)
 Compute integral second derivatives, UseDBF=F ICtDFT=           0.
 Integral derivatives from FoFJK, PRISM(SPDF).
 Calling FoFJK, ICntrl=    100127 FMM=F ISym2X=1 I1Cent= 0 IOpClX= 0 NMat=1 NMatS=1 NMatT=0.
 FoFJK:  IHMeth= 1 ICntrl=  100127 DoSepK=F KAlg= 0 I1Cent=   0 FoldK=F
 IRaf=         0 NMat=   1 IRICut=       1 DoRegI=T DoRafI=F ISym2E= 1.
 FoFCou: FMM=F IPFlag=           0 FMFlag=      100000 FMFlg1=         800
         NFxFlg=           0 DoJE=F BraDBF=F KetDBF=F FulRan=T
         wScrn=  0.000000 ICntrl=  100127 IOpCl=  0 I1Cent=           0 NGrid=           0
         NMat0=    1 NMatS0=      1 NMatT0=    0 NMatD0=    1 NMtDS0=    0 NMtDT0=    0
 Petite list used in FoFCou.
 Leave Link  703 at Thu Jan 31 04:13:37 2019, MaxMem=    33554432 cpu:        49.3
 (Enter /home/proyectos/fulerenos/M3C-v2.0/M3C-deps_CCC/g09-AM64L-G09RevC.01/l716.exe)
 Dipole        = 8.94293701D-17 8.48800186D-20-4.52372514D-15
 Polarizability= 1.35808378D+01-6.24898376D-10 1.35808378D+01
                -5.88227280D-09 9.92434661D-10 4.42828068D+01
 Full mass-weighted force constant matrix:
 Low frequencies ---   -0.0009   -0.0008   -0.0003    3.6865    3.6869  222.9928
 Low frequencies ---  222.9928  861.0467  861.0467
 Diagonal vibrational polarizability:
       30.4605135      30.4605144       9.8906935
 Harmonic frequencies (cm**-1), IR intensities (KM/Mole), Raman scattering
 activities (A**4/AMU), depolarization ratios for plane and unpolarized
 incident light, reduced masses (AMU), force constants (mDyne/A),
 and normal coordinates:
                      1                      2                      3
                     PIU                    PIU                    PIG
 Frequencies --    222.9928               222.9928               861.0467
 Red. masses --      2.9523                 2.9523                 1.2745
 Frc consts  --      0.0865                 0.0865                 0.5567
 IR Inten    --     54.9022                54.9022                 0.0000
  Atom  AN      X      Y      Z        X      Y      Z        X      Y      Z
     1   6     0.03   0.37  -0.00     0.37  -0.03  -0.00     0.00   0.00  -0.00
     2   6    -0.01  -0.13   0.00    -0.13   0.01   0.00     0.11   0.00   0.00
     3   6    -0.01  -0.13  -0.00    -0.13   0.01   0.00    -0.11  -0.00  -0.00
     4   1    -0.05  -0.64   0.00    -0.64   0.05   0.00     0.70   0.00   0.00
     5   1    -0.05  -0.64  -0.00    -0.64   0.05   0.00    -0.70  -0.00  -0.00
                      4                      5                      6
                     PIG                    PIU                    PIU
 Frequencies --    861.0467               866.7820               866.7820
 Red. masses --      1.2745                 1.4521                 1.4521
 Frc consts  --      0.5567                 0.6428                 0.6428
 IR Inten    --      0.0000                20.8794                20.8794
  Atom  AN      X      Y      Z        X      Y      Z        X      Y      Z
     1   6     0.00   0.00   0.00     0.12   0.00  -0.00    -0.00   0.12   0.00
     2   6    -0.00   0.11  -0.00    -0.12  -0.00   0.00     0.00  -0.12  -0.00
     3   6     0.00  -0.11  -0.00    -0.12  -0.00   0.00     0.00  -0.12   0.00
     4   1    -0.00   0.70   0.00     0.69   0.01   0.00    -0.01   0.69   0.00
     5   1     0.00  -0.70   0.00     0.69   0.01   0.00    -0.01   0.69  -0.00
                      7                      8                      9
                     SGG                    SGU                    SGG
 Frequencies --   1286.3080              2152.1796              3016.6104
 Red. masses --      5.1367                 4.3657                 1.1352
 Frc consts  --      5.0076                11.9141                 6.0865
 IR Inten    --      0.0000              1481.6905                 0.0000
  Atom  AN      X      Y      Z        X      Y      Z        X      Y      Z
     1   6    -0.00   0.00   0.00     0.00  -0.00   0.48     0.00  -0.00   0.00
     2   6    -0.00  -0.00   0.43    -0.00  -0.00  -0.19    -0.00   0.00   0.08
     3   6     0.00  -0.00  -0.43    -0.00   0.00  -0.19     0.00   0.00  -0.08
     4   1    -0.00   0.00  -0.56    -0.00  -0.00  -0.59    -0.00   0.00   0.70
     5   1     0.00   0.00   0.56    -0.00   0.00  -0.59     0.00   0.00  -0.70
                     10
                     SGU
 Frequencies --   3051.5955
 Red. masses --      1.2526
 Frc consts  --      6.8727
 IR Inten    --    443.6428
  Atom  AN      X      Y      Z
     1   6    -0.00  -0.00   0.07
     2   6     0.00  -0.00  -0.09
     3   6     0.00   0.00  -0.09
     4   1    -0.00  -0.00   0.70
     5   1    -0.00   0.00   0.70

 -------------------
 - Thermochemistry -
 -------------------
 Temperature   298.150 Kelvin.  Pressure   1.00000 Atm.
 Atom     1 has atomic number  6 and mass  12.00000
 Atom     2 has atomic number  6 and mass  12.00000
 Atom     3 has atomic number  6 and mass  12.00000
 Atom     4 has atomic number  1 and mass   1.00783
 Atom     5 has atomic number  1 and mass   1.00783
 Molecular mass:    38.01565 amu.
 Principal axes and moments of inertia in atomic units:
                           1         2         3
     Eigenvalues --     0.00000 177.41906 177.41906
           X           -0.00000   0.38227   0.92405
           Y           -0.00000   0.92405  -0.38227
           Z            1.00000   0.00000   0.00000
 This molecule is a prolate symmetric top.
 Rotational symmetry number  2.
 Rotational temperature (Kelvin)      0.48819
 Rotational constant (GHZ):          10.172195
 Zero-point vibrational energy      80199.7 (Joules/Mol)
                                   19.16818 (Kcal/Mol)
 Warning -- explicit consideration of   2 degrees of freedom as
           vibrations may cause significant error
 Vibrational temperatures:    320.84   320.84  1238.85  1238.85  1247.10
          (Kelvin)           1247.10  1850.71  3096.50  4340.22  4390.56
 
 Zero-point correction=                           0.030546 (Hartree/Particle)
 Thermal correction to Energy=                    0.034218
 Thermal correction to Enthalpy=                  0.035162
 Thermal correction to Gibbs Free Energy=         0.009155
 Sum of electronic and zero-point Energies=           -114.401008
 Sum of electronic and thermal Energies=              -114.397337
 Sum of electronic and thermal Enthalpies=            -114.396393
 Sum of electronic and thermal Free Energies=         -114.422399
 
                     E (Thermal)             CV                S
                      KCal/Mol        Cal/Mol-Kelvin    Cal/Mol-Kelvin
 Total                   21.472             10.947             54.736
 Electronic               0.000              0.000              0.000
 Translational            0.889              2.981             36.835
 Rotational               0.592              1.987             13.357
 Vibrational             19.991              5.979              4.544
 Vibration     1          0.649              1.806              1.935
 Vibration     2          0.649              1.806              1.935
                       Q            Log10(Q)             Ln(Q)
 Total Bot       0.615127D-04         -4.211035         -9.696266
 Total V=0       0.690751D+10          9.839321         22.655874
 Vib (Bot)       0.218649D-13        -13.660252        -31.453892
 Vib (Bot)    1  0.885922D+00         -0.052604         -0.121126
 Vib (Bot)    2  0.885922D+00         -0.052605         -0.121126
 Vib (V=0)       0.245530D+01          0.390105          0.898249
 Vib (V=0)    1  0.151728D+01          0.181066          0.416919
 Vib (V=0)    2  0.151728D+01          0.181066          0.416919
 Electronic      0.100000D+01          0.000000          0.000000
 Translational   0.921295D+07          6.964399         16.036121
 Rotational      0.305364D+03          2.484818          5.721505
 
                                                              b3lyp opt
                                                             IR Spectrum
 
     3 3                                   2                                   1                                                     
     0 0                                   1                                   2                88                         2         
     5 1                                   5                                   8                66                         2         
     2 7                                   2                                   6                71                         3         
 
     X                                     X                                                    X                          X         
     X                                     X                                                                                         
     X                                     X                                                                                         
     X                                     X                                                                                         
     X                                     X                                                                                         
     X                                     X                                                                                         
                                           X                                                                                         
                                           X                                                                                         
                                           X                                                                                         
                                           X                                                                                         
                                           X                                                                                         
                                           X                                                                                         
                                           X                                                                                         
                                           X                                                                                         
                                           X                                                                                         
                                           X                                                                                         
                                           X                                                                                         
                                           X                                                                                         
                                           X                                                                                         
                                           X                                                                                         
 
 ***** Axes restored to original set *****
 -------------------------------------------------------------------
 Center     Atomic                   Forces (Hartrees/Bohr)
 Number     Number              X              Y              Z
 -------------------------------------------------------------------
      1        6          -0.000000000   -0.000000000    0.000000000
      2        6          -0.000012458   -0.000000003    0.000000000
      3        6           0.000012458    0.000000003   -0.000000000
      4        1          -0.000003228   -0.000000001    0.000000000
      5        1           0.000003228    0.000000001   -0.000000000
 -------------------------------------------------------------------
 Cartesian Forces:  Max     0.000012458 RMS     0.000004699
 Z-matrix is all fixed cartesians, so copy forces.
 Force constants in Cartesian coordinates: 
                1             2             3             4             5 
      1  0.153753D+01
      2  0.334772D-03  0.508405D-01
      3 -0.223872D-04  0.000000D+00  0.508404D-01
      4 -0.795977D+00 -0.169650D-03  0.113462D-04  0.114824D+01
      5 -0.169650D-03 -0.425786D-01  0.000000D+00  0.240964D-03  0.781443D-01
      6  0.113451D-04  0.000000D+00 -0.425786D-01 -0.161139D-04  0.000000D+00
      7 -0.795977D+00 -0.169649D-03  0.113462D-04 -0.173369D-01 -0.417581D-05
      8 -0.169650D-03 -0.425786D-01  0.000000D+00 -0.417675D-05  0.120960D-02
      9  0.113454D-04  0.000000D+00 -0.425786D-01  0.000000D+00  0.000000D+00
     10  0.272125D-01  0.226356D-05  0.000000D+00 -0.683383D-02 -0.201036D-05
     11  0.226386D-05  0.171584D-01  0.000000D+00 -0.201059D-05  0.209546D-02
     12  0.000000D+00  0.000000D+00  0.171584D-01  0.000000D+00  0.000000D+00
     13  0.272125D-01  0.226427D-05  0.000000D+00 -0.328093D+00 -0.651266D-04
     14  0.226408D-05  0.171584D-01  0.000000D+00 -0.651268D-04 -0.388707D-01
     15  0.000000D+00  0.000000D+00  0.171584D-01  0.435538D-05  0.000000D+00
                6             7             8             9            10 
      6  0.781442D-01
      7  0.000000D+00  0.114824D+01
      8  0.000000D+00  0.240963D-03  0.781443D-01
      9  0.120960D-02 -0.161139D-04  0.000000D+00  0.781442D-01
     10  0.000000D+00 -0.328093D+00 -0.651269D-04  0.435310D-05  0.309998D+00
     11  0.000000D+00 -0.651268D-04 -0.388707D-01  0.000000D+00  0.651402D-04
     12  0.209546D-02  0.435538D-05  0.000000D+00 -0.388707D-01 -0.435628D-05
     13  0.435310D-05 -0.683383D-02 -0.201102D-05  0.000000D+00 -0.228418D-02
     14  0.000000D+00 -0.201080D-05  0.209546D-02  0.000000D+00  0.000000D+00
     15 -0.388707D-01  0.000000D+00  0.000000D+00  0.209546D-02  0.000000D+00
               11            12            13            14            15 
     11  0.207164D-01
     12  0.000000D+00  0.207164D-01
     13  0.000000D+00  0.000000D+00  0.309998D+00
     14 -0.109954D-02  0.000000D+00  0.651403D-04  0.207164D-01
     15  0.000000D+00 -0.109954D-02 -0.435628D-05  0.000000D+00  0.207164D-01
 Leave Link  716 at Thu Jan 31 04:13:37 2019, MaxMem=    33554432 cpu:         0.2
 (Enter /home/proyectos/fulerenos/M3C-v2.0/M3C-deps_CCC/g09-AM64L-G09RevC.01/l103.exe)

 GradGradGradGradGradGradGradGradGradGradGradGradGradGradGradGradGradGrad
 Berny optimization.
 Search for a local minimum.
 Step number   1 out of a maximum of    2
 All quantities printed in internal units (Hartrees-Bohrs-Radians)
 Second derivative matrix not updated -- analytic derivatives used.
 The second derivative matrix:
                          X1        Y1        Z1        X2        Y2
           X1           1.53753
           Y1           0.00033   0.05084
           Z1          -0.00002  -0.00000   0.05084
           X2          -0.79598  -0.00017   0.00001   1.14824
           Y2          -0.00017  -0.04258   0.00000   0.00024   0.07814
           Z2           0.00001   0.00000  -0.04258  -0.00002  -0.00000
           X3          -0.79598  -0.00017   0.00001  -0.01734  -0.00000
           Y3          -0.00017  -0.04258   0.00000  -0.00000   0.00121
           Z3           0.00001   0.00000  -0.04258   0.00000  -0.00000
           X4           0.02721   0.00000  -0.00000  -0.00683  -0.00000
           Y4           0.00000   0.01716   0.00000  -0.00000   0.00210
           Z4          -0.00000  -0.00000   0.01716   0.00000   0.00000
           X5           0.02721   0.00000  -0.00000  -0.32809  -0.00007
           Y5           0.00000   0.01716  -0.00000  -0.00007  -0.03887
           Z5          -0.00000  -0.00000   0.01716   0.00000   0.00000
                          Z2        X3        Y3        Z3        X4
           Z2           0.07814
           X3           0.00000   1.14824
           Y3           0.00000   0.00024   0.07814
           Z3           0.00121  -0.00002  -0.00000   0.07814
           X4           0.00000  -0.32809  -0.00007   0.00000   0.31000
           Y4           0.00000  -0.00007  -0.03887   0.00000   0.00007
           Z4           0.00210   0.00000   0.00000  -0.03887  -0.00000
           X5           0.00000  -0.00683  -0.00000   0.00000  -0.00228
           Y5           0.00000  -0.00000   0.00210   0.00000  -0.00000
           Z5          -0.03887   0.00000  -0.00000   0.00210   0.00000
                          Y4        Z4        X5        Y5        Z5
           Y4           0.02072
           Z4          -0.00000   0.02072
           X5          -0.00000   0.00000   0.31000
           Y5          -0.00110   0.00000   0.00007   0.02072
           Z5          -0.00000  -0.00110  -0.00000  -0.00000   0.02072
 ITU=  0
     Eigenvalues ---    0.00641   0.00641   0.08178   0.08178   0.13928
     Eigenvalues ---    0.13928   0.20486   0.41232   1.27300   2.49918
 Angle between quadratic step and forces=  19.32 degrees.
 ClnCor:  largest displacement from symmetrization is 5.95D-13 for atom     4.
 Linear search not attempted -- first point.
 ClnCor:  largest displacement from symmetrization is 1.78D-15 for atom     5.
 B after Tr=    -0.000000   -0.000000    0.000000
         Rot=    1.000000   -0.000000   -0.000000    0.000000 Ang=   0.00 deg.
 Variable       Old X    -DE/DX   Delta X   Delta X   Delta X     New X
                                 (Linear)    (Quad)   (Total)
    X1        0.00009  -0.00000   0.00000   0.00000  -0.00000   0.00009
    Y1       -0.00054  -0.00000   0.00000  -0.00000   0.00000  -0.00054
    Z1       -0.00067   0.00000   0.00000  -0.00000  -0.00000  -0.00067
    X2       -2.38815  -0.00001   0.00000  -0.00001  -0.00001  -2.38816
    Y2       -0.00108  -0.00000   0.00000  -0.00000  -0.00000  -0.00108
    Z2       -0.00064   0.00000   0.00000   0.00000   0.00000  -0.00064
    X3        2.38832   0.00001   0.00000   0.00001   0.00001   2.38833
    Y3       -0.00000   0.00000   0.00000   0.00000   0.00000  -0.00000
    Z3       -0.00071  -0.00000   0.00000  -0.00000  -0.00000  -0.00071
    X4        4.48432  -0.00000   0.00000   0.00000   0.00000   4.48432
    Y4        0.00047  -0.00000   0.00000   0.00000   0.00000   0.00047
    Z4       -0.00074   0.00000   0.00000  -0.00000  -0.00000  -0.00074
    X5       -4.48414   0.00000   0.00000  -0.00000  -0.00000  -4.48414
    Y5       -0.00155   0.00000   0.00000  -0.00000  -0.00000  -0.00155
    Z5       -0.00061  -0.00000   0.00000   0.00000   0.00000  -0.00061
         Item               Value     Threshold  Converged?
 Maximum Force            0.000012     0.000450     YES
 RMS     Force            0.000005     0.000300     YES
 Maximum Displacement     0.000011     0.001800     YES
 RMS     Displacement     0.000004     0.001200     YES
 Predicted change in Energy=-1.333412D-10
 Optimization completed.
    -- Stationary point found.
 GradGradGradGradGradGradGradGradGradGradGradGradGradGradGradGradGradGrad

 Leave Link  103 at Thu Jan 31 04:13:37 2019, MaxMem=    33554432 cpu:         0.1
 (Enter /home/proyectos/fulerenos/M3C-v2.0/M3C-deps_CCC/g09-AM64L-G09RevC.01/l9999.exe)

 Test job not archived.
 1\1\GINC-COPERNICIO\Freq\RB3LYP\6-311++G(3df,2p)\C3H2(2+)\ROOT\31-Jan-
 2019\0\\#p b3lyp/6-311++G(3df,2p) freq IOp(2/17=3) IOp(2/18=3)\\b3lyp 
 opt\\2,1\C,0.00004635,-0.00028705,-0.0003568497\C,-1.2637520369,-0.000
 5716313,-0.0003378189\C,1.2638447369,-0.0000024687,-0.0003758805\H,2.3
 729976824,0.0002472896,-0.0003925825\H,-2.3729049824,-0.0008213896,-0.
 0003211169\\Version=EM64L-G09RevE.01\State=1-SGG\HF=-114.4315544\RMSD=
 6.099e-10\RMSF=4.699e-06\ZeroPoint=0.0305464\Thermal=0.0342176\Dipole=
 0.,0.,0.\DipoleDeriv=-2.278455,-0.0005531,0.000037,-0.0005531,0.177843
 1,0.,0.000037,0.,0.1778433,1.3110607,0.0001412,-0.0000094,0.0001412,0.
 6839794,0.,-0.0000094,0.,0.6839793,1.3110607,0.0001412,-0.0000094,0.00
 01412,0.6839794,0.,-0.0000094,0.,0.6839793,0.8281668,0.0001353,-0.0000
 091,0.0001353,0.2270991,0.,-0.000009,0.,0.227099,0.8281668,0.0001353,-
 0.0000091,0.0001353,0.2270991,0.,-0.000009,0.,0.227099\Polar=44.282805
 3,0.0069134,13.5808393,-0.0004623,-0.0000001,13.5808378\PG=D*H [O(C1),
 C*(C1.C1),X(H2)]\NImag=0\\1.53752996,0.00033477,0.05084046,-0.00002239
 ,0.,0.05084038,-0.79597747,-0.00016965,0.00001135,1.14824068,-0.000169
 65,-0.04257862,0.,0.00024096,0.07814427,0.00001135,0.,-0.04257858,-0.0
 0001611,0.,0.07814421,-0.79597747,-0.00016965,0.00001135,-0.01733686,-
 0.00000418,0.00000028,1.14824068,-0.00016965,-0.04257862,0.,-0.0000041
 8,0.00120960,0.,0.00024096,0.07814427,0.00001135,0.,-0.04257858,0.0000
 0028,0.,0.00120960,-0.00001611,0.,0.07814421,0.02721248,0.00000226,-0.
 00000015,-0.00683383,-0.00000201,0.00000013,-0.32809252,-0.00006513,0.
 00000435,0.30999805,0.00000226,0.01715839,0.,-0.00000201,0.00209546,0.
 ,-0.00006513,-0.03887070,0.,0.00006514,0.02071639,-0.00000015,0.,0.017
 15839,0.00000013,0.,0.00209546,0.00000436,0.,-0.03887068,-0.00000436,0
 .,0.02071638,0.02721248,0.00000226,-0.00000015,-0.32809252,-0.00006513
 ,0.00000435,-0.00683383,-0.00000201,0.00000013,-0.00228418,-0.00000027
 ,0.00000002,0.30999805,0.00000226,0.01715839,0.,-0.00006513,-0.0388707
 0,0.,-0.00000201,0.00209546,0.,-0.00000027,-0.00109954,0.,0.00006514,0
 .02071639,-0.00000015,0.,0.01715839,0.00000436,0.,-0.03887068,0.000000
 13,0.,0.00209546,0.00000002,0.,-0.00109954,-0.00000436,0.,0.02071638\\
 0.,0.,0.,0.00001246,0.,0.,-0.00001246,0.,0.,0.00000323,0.,0.,-0.000003
 23,0.,0.\\\@


 ART, GLORY, FREEDOM FAIL, BUT NATURE STILL IS FAIR.

                                           -- BYRON
 Job cpu time:       0 days  0 hours  4 minutes  1.5 seconds.
 File lengths (MBytes):  RWF=     12 Int=      0 D2E=      0 Chk=      2 Scr=      1
 Normal termination of Gaussian 09 at Thu Jan 31 04:13:37 2019.
