 Entering Gaussian System, Link 0=/home/proyectos/fulerenos/M3C-v2.0/M3C-deps_CCC/g09-AM64L-G09RevC.01/g09
 Initial command:
 /home/proyectos/fulerenos/M3C-v2.0/M3C-deps_CCC/g09-AM64L-G09RevC.01/l1.exe "/scratch/naguirre/gaussian/Gau-13114.inp" -scrdir="/scratch/naguirre/gaussian/"
 Entering Link 1 = /home/proyectos/fulerenos/M3C-v2.0/M3C-deps_CCC/g09-AM64L-G09RevC.01/l1.exe PID=     13118.
  
 Copyright (c) 1988,1990,1992,1993,1995,1998,2003,2009,2015,
            Gaussian, Inc.  All Rights Reserved.
  
 This is part of the Gaussian(R) 09 program.  It is based on
 the Gaussian(R) 03 system (copyright 2003, Gaussian, Inc.),
 the Gaussian(R) 98 system (copyright 1998, Gaussian, Inc.),
 the Gaussian(R) 94 system (copyright 1995, Gaussian, Inc.),
 the Gaussian 92(TM) system (copyright 1992, Gaussian, Inc.),
 the Gaussian 90(TM) system (copyright 1990, Gaussian, Inc.),
 the Gaussian 88(TM) system (copyright 1988, Gaussian, Inc.),
 the Gaussian 86(TM) system (copyright 1986, Carnegie Mellon
 University), and the Gaussian 82(TM) system (copyright 1983,
 Carnegie Mellon University). Gaussian is a federally registered
 trademark of Gaussian, Inc.
  
 This software contains proprietary and confidential information,
 including trade secrets, belonging to Gaussian, Inc.
  
 This software is provided under written license and may be
 used, copied, transmitted, or stored only in accord with that
 written license.
  
 The following legend is applicable only to US Government
 contracts under FAR:
  
                    RESTRICTED RIGHTS LEGEND
  
 Use, reproduction and disclosure by the US Government is
 subject to restrictions as set forth in subparagraphs (a)
 and (c) of the Commercial Computer Software - Restricted
 Rights clause in FAR 52.227-19.
  
 Gaussian, Inc.
 340 Quinnipiac St., Bldg. 40, Wallingford CT 06492
  
  
 ---------------------------------------------------------------
 Warning -- This program may not be used in any manner that
 competes with the business of Gaussian, Inc. or will provide
 assistance to any competitor of Gaussian, Inc.  The licensee
 of this program is prohibited from giving any competitor of
 Gaussian, Inc. access to this program.  By using this program,
 the user acknowledges that Gaussian, Inc. is engaged in the
 business of creating and licensing software in the field of
 computational chemistry and represents and warrants to the
 licensee that it is not a competitor of Gaussian, Inc. and that
 it will not use this program in any manner prohibited above.
 ---------------------------------------------------------------
  

 Cite this work as:
 Gaussian 09, Revision E.01,
 M. J. Frisch, G. W. Trucks, H. B. Schlegel, G. E. Scuseria, 
 M. A. Robb, J. R. Cheeseman, G. Scalmani, V. Barone, B. Mennucci, 
 G. A. Petersson, H. Nakatsuji, M. Caricato, X. Li, H. P. Hratchian, 
 A. F. Izmaylov, J. Bloino, G. Zheng, J. L. Sonnenberg, M. Hada, 
 M. Ehara, K. Toyota, R. Fukuda, J. Hasegawa, M. Ishida, T. Nakajima, 
 Y. Honda, O. Kitao, H. Nakai, T. Vreven, J. A. Montgomery, Jr., 
 J. E. Peralta, F. Ogliaro, M. Bearpark, J. J. Heyd, E. Brothers, 
 K. N. Kudin, V. N. Staroverov, T. Keith, R. Kobayashi, J. Normand, 
 K. Raghavachari, A. Rendell, J. C. Burant, S. S. Iyengar, J. Tomasi, 
 M. Cossi, N. Rega, J. M. Millam, M. Klene, J. E. Knox, J. B. Cross, 
 V. Bakken, C. Adamo, J. Jaramillo, R. Gomperts, R. E. Stratmann, 
 O. Yazyev, A. J. Austin, R. Cammi, C. Pomelli, J. W. Ochterski, 
 R. L. Martin, K. Morokuma, V. G. Zakrzewski, G. A. Voth, 
 P. Salvador, J. J. Dannenberg, S. Dapprich, A. D. Daniels, 
 O. Farkas, J. B. Foresman, J. V. Ortiz, J. Cioslowski, 
 and D. J. Fox, Gaussian, Inc., Wallingford CT, 2013.
 
 ******************************************
 Gaussian 09:  EM64L-G09RevE.01 30-Nov-2015
                19-Jul-2016 
 ******************************************
 %NProcShared=1
 Will use up to    1 processors via shared memory.
 ---------------------------------------------
 #p b3lyp/6-311++G(3df,2p) freq symmetry=Loose
 ---------------------------------------------
 1/10=4,30=1,38=1/1,3;
 2/12=2,17=4,18=3,40=1/2;
 3/5=4,6=6,7=1216,11=2,16=1,25=1,30=1,71=2,74=-5,140=1/1,2,3;
 4//1;
 5/5=2,38=5,98=1/2;
 8/6=4,10=90,11=11/1;
 11/6=1,8=1,9=11,15=111,16=1/1,2,10;
 10/6=1/2;
 6/7=2,8=2,9=2,10=2,18=1,28=1/1;
 7/8=1,10=1,25=1/1,2,3,16;
 1/10=4,30=1/3;
 99//99;
 Leave Link    1 at Tue Jul 19 04:19:25 2016, MaxMem=           0 cpu:         0.1
 (Enter /home/proyectos/fulerenos/M3C-v2.0/M3C-deps_CCC/g09-AM64L-G09RevC.01/l101.exe)
 ---------
 b3lyp opt
 ---------
 Symbolic Z-matrix:
 Charge =  3 Multiplicity = 4
 C                    -0.00002  -0.5207   -0.00008 
 C                    -1.0503    0.48828   0.0003 
 C                     1.05035   0.48818  -0.00006 
 H                     0.0001   -1.36749   0.90427 
 H                    -0.00022  -1.36714  -0.90476 
 
 NAtoms=      5 NQM=        5 NQMF=       0 NMMI=      0 NMMIF=      0
                NMic=       0 NMicF=      0.
                    Isotopes and Nuclear Properties:
 (Nuclear quadrupole moments (NQMom) in fm**2, nuclear magnetic moments (NMagM)
  in nuclear magnetons)

  Atom         1           2           3           4           5
 IAtWgt=          12          12          12           1           1
 AtmWgt=  12.0000000  12.0000000  12.0000000   1.0078250   1.0078250
 NucSpn=           0           0           0           1           1
 AtZEff=   0.0000000   0.0000000   0.0000000   0.0000000   0.0000000
 NQMom=    0.0000000   0.0000000   0.0000000   0.0000000   0.0000000
 NMagM=    0.0000000   0.0000000   0.0000000   2.7928460   2.7928460
 AtZNuc=   6.0000000   6.0000000   6.0000000   1.0000000   1.0000000
 Leave Link  101 at Tue Jul 19 04:19:26 2016, MaxMem=    33554432 cpu:         0.4
 (Enter /home/proyectos/fulerenos/M3C-v2.0/M3C-deps_CCC/g09-AM64L-G09RevC.01/l103.exe)

 GradGradGradGradGradGradGradGradGradGradGradGradGradGradGradGradGradGrad
 Berny optimization.
 Initialization pass.
 Trust Radius=3.00D-01 FncErr=1.00D-07 GrdErr=1.00D-07
 Number of steps in this run=      2 maximum allowed number of steps=      2.
 GradGradGradGradGradGradGradGradGradGradGradGradGradGradGradGradGradGrad

 Leave Link  103 at Tue Jul 19 04:19:26 2016, MaxMem=    33554432 cpu:         0.1
 (Enter /home/proyectos/fulerenos/M3C-v2.0/M3C-deps_CCC/g09-AM64L-G09RevC.01/l202.exe)
                          Input orientation:                          
 ---------------------------------------------------------------------
 Center     Atomic      Atomic             Coordinates (Angstroms)
 Number     Number       Type             X           Y           Z
 ---------------------------------------------------------------------
      1          6           0       -0.000020   -0.520696   -0.000078
      2          6           0       -1.050296    0.488285    0.000303
      3          6           0        1.050352    0.488183   -0.000064
      4          1           0        0.000097   -1.367493    0.904268
      5          1           0       -0.000219   -1.367138   -0.904756
 ---------------------------------------------------------------------
                    Distance matrix (angstroms):
                    1          2          3          4          5
     1  C    0.000000
     2  C    1.456407   0.000000
     3  C    1.456407   2.100648   0.000000
     4  H    1.238913   2.316114   2.316114   0.000000
     5  H    1.238913   2.316114   2.316114   1.809023   0.000000
 Stoichiometry    C3H2(3+,4)
 Framework group  C2V[C2(C),SGV(C2),SGV'(H2)]
 Deg. of freedom     4
 Full point group                 C2V     NOp   4
 Largest Abelian subgroup         C2V     NOp   4
 Largest concise Abelian subgroup C2V     NOp   4
                         Standard orientation:                         
 ---------------------------------------------------------------------
 Center     Atomic      Atomic             Coordinates (Angstroms)
 Number     Number       Type             X           Y           Z
 ---------------------------------------------------------------------
      1          6           0        0.000000    0.000000    0.520696
      2          6           0        0.000000   -1.050324   -0.488234
      3          6           0        0.000000    1.050324   -0.488234
      4          1           0       -0.904512    0.000000    1.367316
      5          1           0        0.904512   -0.000000    1.367316
 ---------------------------------------------------------------------
 Rotational constants (GHZ):     35.5945029     17.9687638     12.9499765
 Leave Link  202 at Tue Jul 19 04:19:26 2016, MaxMem=    33554432 cpu:         0.0
 (Enter /home/proyectos/fulerenos/M3C-v2.0/M3C-deps_CCC/g09-AM64L-G09RevC.01/l301.exe)
 Standard basis: 6-311++G(3df,2p) (5D, 7F)
 Ernie: Thresh=  0.10000D-02 Tol=  0.10000D-05 Strict=F.
 There are    60 symmetry adapted cartesian basis functions of A1  symmetry.
 There are    20 symmetry adapted cartesian basis functions of A2  symmetry.
 There are    32 symmetry adapted cartesian basis functions of B1  symmetry.
 There are    43 symmetry adapted cartesian basis functions of B2  symmetry.
 There are    51 symmetry adapted basis functions of A1  symmetry.
 There are    19 symmetry adapted basis functions of A2  symmetry.
 There are    30 symmetry adapted basis functions of B1  symmetry.
 There are    37 symmetry adapted basis functions of B2  symmetry.
   137 basis functions,   198 primitive gaussians,   155 cartesian basis functions
    10 alpha electrons        7 beta electrons
       nuclear repulsion energy        46.1311220734 Hartrees.
 IExCor=  402 DFT=T Ex+Corr=B3LYP ExCW=0 ScaHFX=  0.200000
 ScaDFX=  0.800000  0.720000  1.000000  0.810000 ScalE2=  1.000000  1.000000
 IRadAn=      0 IRanWt=     -1 IRanGd=            0 ICorTp=0 IEmpDi=  4
 NAtoms=    5 NActive=    5 NUniq=    3 SFac= 2.78D+00 NAtFMM=   60 NAOKFM=F Big=F
 Integral buffers will be    131072 words long.
 Raffenetti 2 integral format.
 Two-electron integral symmetry is turned on.
 Leave Link  301 at Tue Jul 19 04:19:26 2016, MaxMem=    33554432 cpu:         0.2
 (Enter /home/proyectos/fulerenos/M3C-v2.0/M3C-deps_CCC/g09-AM64L-G09RevC.01/l302.exe)
 NPDir=0 NMtPBC=     1 NCelOv=     1 NCel=       1 NClECP=     1 NCelD=      1
         NCelK=      1 NCelE2=     1 NClLst=     1 CellRange=     0.0.
 One-electron integrals computed using PRISM.
 One-electron integral symmetry used in STVInt
 NBasis=   137 RedAO= T EigKep=  1.12D-04  NBF=    51    19    30    37
 NBsUse=   137 1.00D-06 EigRej= -1.00D+00 NBFU=    51    19    30    37
 Precomputing XC quadrature grid using
 IXCGrd= 4 IRadAn=           0 IRanWt=          -1 IRanGd=           0 AccXCQ= 0.00D+00.
 Generated NRdTot=       0 NPtTot=           0 NUsed=           0 NTot=          32
 NSgBfM=   155   155   155   155   155 MxSgAt=     5 MxSgA2=     5.
 Leave Link  302 at Tue Jul 19 04:19:27 2016, MaxMem=    33554432 cpu:         0.4
 (Enter /home/proyectos/fulerenos/M3C-v2.0/M3C-deps_CCC/g09-AM64L-G09RevC.01/l303.exe)
 DipDrv:  MaxL=1.
 Leave Link  303 at Tue Jul 19 04:19:27 2016, MaxMem=    33554432 cpu:         0.1
 (Enter /home/proyectos/fulerenos/M3C-v2.0/M3C-deps_CCC/g09-AM64L-G09RevC.01/l401.exe)
 ExpMin= 3.60D-02 ExpMax= 4.56D+03 ExpMxC= 6.82D+02 IAcc=3 IRadAn=         5 AccDes= 0.00D+00
 Harris functional with IExCor=  402 and IRadAn=       5 diagonalized for initial guess.
 HarFok:  IExCor=  402 AccDes= 0.00D+00 IRadAn=         5 IDoV= 1 UseB2=F ITyADJ=14
 ICtDFT=  3500011 ScaDFX=  1.000000  1.000000  1.000000  1.000000
 FoFCou: FMM=F IPFlag=           0 FMFlag=      100000 FMFlg1=           0
         NFxFlg=           0 DoJE=T BraDBF=F KetDBF=T FulRan=T
         wScrn=  0.000000 ICntrl=     500 IOpCl=  0 I1Cent=   200000004 NGrid=           0
         NMat0=    1 NMatS0=      1 NMatT0=    0 NMatD0=    1 NMtDS0=    0 NMtDT0=    0
 Petite list used in FoFCou.
 Harris En= -114.276305949427    
 JPrj=0 DoOrth=F DoCkMO=F.
 Initial guess orbital symmetries:
 Alpha Orbitals:
       Occupied  (A1) (B2) (A1) (A1) (B2) (A1) (B1) (A1) (B2) (A1)
       Virtual   (B1) (A2) (B2) (A1) (B1) (A1) (B2) (A1) (B2) (A1)
                 (B1) (A1) (A2) (B1) (B2) (A1) (B1) (B2) (B2) (A1)
                 (A1) (B1) (A1) (A2) (A1) (B1) (B2) (A1) (B2) (A1)
                 (B1) (A2) (B2) (B2) (A1) (A2) (B1) (A1) (B2) (A1)
                 (B1) (A2) (A1) (A1) (B2) (B1) (B2) (B1) (A1) (A1)
                 (B1) (B2) (A2) (A1) (A1) (A2) (B2) (A1) (B1) (A1)
                 (B2) (B1) (A2) (B2) (B2) (A1) (A2) (A1) (A1) (B1)
                 (B2) (A1) (B1) (B1) (B2) (A2) (A1) (B2) (B1) (A1)
                 (A2) (B1) (B2) (A1) (B2) (B1) (B1) (A2) (A1) (A1)
                 (A2) (B2) (B2) (A1) (B2) (A1) (B1) (A2) (B2) (B1)
                 (A1) (A1) (B2) (B1) (A1) (A2) (B2) (A1) (B1) (A2)
                 (A1) (B1) (A1) (B2) (A2) (B1) (A1) (B2) (A2) (B2)
                 (A1) (B2) (A1) (B1) (A1) (B2) (A1)
 Beta  Orbitals:
       Occupied  (A1) (B2) (A1) (A1) (B2) (A1) (B1)
       Virtual   (A1) (B2) (A1) (B1) (A2) (B2) (A1) (B1) (A1) (B2)
                 (A1) (B2) (A1) (B1) (A1) (A2) (B1) (B2) (A1) (B1)
                 (B2) (B2) (A1) (A1) (B1) (A1) (A2) (A1) (B1) (B2)
                 (A1) (B2) (A1) (B1) (A2) (B2) (B2) (A1) (A2) (B1)
                 (A1) (B2) (A1) (B1) (A2) (A1) (A1) (B2) (B1) (B2)
                 (B1) (A1) (A1) (B1) (B2) (A2) (A1) (A1) (A2) (B2)
                 (A1) (B1) (A1) (B2) (B1) (A2) (B2) (B2) (A1) (A2)
                 (A1) (A1) (B1) (B2) (A1) (B1) (B1) (B2) (A2) (A1)
                 (B2) (B1) (A1) (A2) (B1) (B2) (A1) (B2) (B1) (B1)
                 (A2) (A1) (A1) (A2) (B2) (B2) (A1) (B2) (A1) (B1)
                 (A2) (B2) (B1) (A1) (A1) (B2) (B1) (A1) (A2) (B2)
                 (A1) (B1) (A2) (A1) (B1) (A1) (B2) (A2) (B1) (A1)
                 (B2) (A2) (B2) (A1) (B2) (A1) (B1) (A1) (B2) (A1)
 The electronic state of the initial guess is 4-B2.
 Initial guess <Sx>= 0.0000 <Sy>= 0.0000 <Sz>= 1.5000 <S**2>= 3.7500 S= 1.5000
 Leave Link  401 at Tue Jul 19 04:19:29 2016, MaxMem=    33554432 cpu:         1.3
 (Enter /home/proyectos/fulerenos/M3C-v2.0/M3C-deps_CCC/g09-AM64L-G09RevC.01/l502.exe)
 UHF open shell SCF:
 Using DIIS extrapolation, IDIIS=  1040.
 Integral symmetry usage will be decided dynamically.
 IVT=       93211 IEndB=       93211 NGot=    33554432 MDV=    33502042
 LenX=    33502042 LenY=    33477576
 Requested convergence on RMS density matrix=1.00D-08 within 128 cycles.
 Requested convergence on MAX density matrix=1.00D-06.
 Requested convergence on             energy=1.00D-06.
 No special actions if energy rises.
 Fock matrices will be formed incrementally for  20 cycles.

 Cycle   1  Pass 1  IDiag  1:
 FoFJK:  IHMeth= 1 ICntrl=       0 DoSepK=F KAlg= 0 I1Cent=   0 FoldK=F
 IRaf= 990000000 NMat=   1 IRICut=       1 DoRegI=T DoRafI=F ISym2E= 1.
 FoFCou: FMM=F IPFlag=           0 FMFlag=      100000 FMFlg1=           0
         NFxFlg=           0 DoJE=F BraDBF=F KetDBF=F FulRan=T
         wScrn=  0.000000 ICntrl=       0 IOpCl=  1 I1Cent=           0 NGrid=           0
         NMat0=    1 NMatS0=      1 NMatT0=    0 NMatD0=    1 NMtDS0=    0 NMtDT0=    0
 Petite list used in FoFCou.
 E= -112.986402166654    
 DIIS: error= 4.28D-02 at cycle   1 NSaved=   1.
 NSaved= 1 IEnMin= 1 EnMin= -112.986402166654     IErMin= 1 ErrMin= 4.28D-02
 ErrMax= 4.28D-02  0.00D+00 EMaxC= 1.00D-01 BMatC= 5.19D-01 BMatP= 5.19D-01
 IDIUse=3 WtCom= 5.72D-01 WtEn= 4.28D-01
 Coeff-Com:  0.100D+01
 Coeff-En:   0.100D+01
 Coeff:      0.100D+01
 Gap=     0.138 Goal=   None    Shift=    0.000
 Gap=     0.065 Goal=   None    Shift=    0.000
 GapD=    0.065 DampG=0.500 DampE=0.500 DampFc=0.2500 IDamp=-1.
 Damping current iteration by 2.50D-01
 RMSDP=7.87D-03 MaxDP=4.44D-01              OVMax= 4.53D-01

 Cycle   2  Pass 1  IDiag  1:
 RMSU=  1.96D-03    CP:  1.01D+00
 E= -113.046870928447     Delta-E=       -0.060468761793 Rises=F Damp=T
 DIIS: error= 2.39D-02 at cycle   2 NSaved=   2.
 NSaved= 2 IEnMin= 2 EnMin= -113.046870928447     IErMin= 2 ErrMin= 2.39D-02
 ErrMax= 2.39D-02  0.00D+00 EMaxC= 1.00D-01 BMatC= 1.60D-01 BMatP= 5.19D-01
 IDIUse=3 WtCom= 7.61D-01 WtEn= 2.39D-01
 Coeff-Com: -0.800D+00 0.180D+01
 Coeff-En:   0.000D+00 0.100D+01
 Coeff:     -0.609D+00 0.161D+01
 Gap=     0.196 Goal=   None    Shift=    0.000
 Gap=     0.178 Goal=   None    Shift=    0.000
 RMSDP=3.88D-03 MaxDP=1.40D-01 DE=-6.05D-02 OVMax= 3.26D-01

 Cycle   3  Pass 1  IDiag  1:
 RMSU=  2.94D-03    CP:  1.10D+00  2.13D+00
 E= -113.170349673418     Delta-E=       -0.123478744971 Rises=F Damp=F
 DIIS: error= 1.76D-02 at cycle   3 NSaved=   3.
 NSaved= 3 IEnMin= 3 EnMin= -113.170349673418     IErMin= 3 ErrMin= 1.76D-02
 ErrMax= 1.76D-02  0.00D+00 EMaxC= 1.00D-01 BMatC= 5.28D-02 BMatP= 1.60D-01
 IDIUse=3 WtCom= 8.24D-01 WtEn= 1.76D-01
 Coeff-Com: -0.513D+00 0.914D+00 0.599D+00
 Coeff-En:   0.000D+00 0.000D+00 0.100D+01
 Coeff:     -0.423D+00 0.753D+00 0.670D+00
 Gap=     0.148 Goal=   None    Shift=    0.000
 Gap=     0.191 Goal=   None    Shift=    0.000
 RMSDP=9.41D-04 MaxDP=4.11D-02 DE=-1.23D-01 OVMax= 5.38D-02

 Cycle   4  Pass 1  IDiag  1:
 RMSU=  8.97D-04    CP:  1.11D+00  2.23D+00  9.71D-01
 E= -113.182544057762     Delta-E=       -0.012194384344 Rises=F Damp=F
 DIIS: error= 5.26D-03 at cycle   4 NSaved=   4.
 NSaved= 4 IEnMin= 4 EnMin= -113.182544057762     IErMin= 4 ErrMin= 5.26D-03
 ErrMax= 5.26D-03  0.00D+00 EMaxC= 1.00D-01 BMatC= 4.95D-03 BMatP= 5.28D-02
 IDIUse=3 WtCom= 9.47D-01 WtEn= 5.26D-02
 Coeff-Com: -0.116D+00 0.161D+00 0.261D+00 0.694D+00
 Coeff-En:   0.000D+00 0.000D+00 0.000D+00 0.100D+01
 Coeff:     -0.110D+00 0.153D+00 0.247D+00 0.710D+00
 Gap=     0.149 Goal=   None    Shift=    0.000
 Gap=     0.199 Goal=   None    Shift=    0.000
 RMSDP=2.42D-04 MaxDP=1.01D-02 DE=-1.22D-02 OVMax= 1.57D-02

 Cycle   5  Pass 1  IDiag  1:
 RMSU=  2.00D-04    CP:  1.11D+00  2.22D+00  9.97D-01  8.79D-01
 E= -113.183815826369     Delta-E=       -0.001271768607 Rises=F Damp=F
 DIIS: error= 1.13D-03 at cycle   5 NSaved=   5.
 NSaved= 5 IEnMin= 5 EnMin= -113.183815826369     IErMin= 5 ErrMin= 1.13D-03
 ErrMax= 1.13D-03  0.00D+00 EMaxC= 1.00D-01 BMatC= 1.77D-04 BMatP= 4.95D-03
 IDIUse=3 WtCom= 9.89D-01 WtEn= 1.13D-02
 Coeff-Com: -0.787D-02 0.348D-02-0.638D-02 0.117D+00 0.894D+00
 Coeff-En:   0.000D+00 0.000D+00 0.000D+00 0.000D+00 0.100D+01
 Coeff:     -0.778D-02 0.344D-02-0.631D-02 0.116D+00 0.895D+00
 Gap=     0.149 Goal=   None    Shift=    0.000
 Gap=     0.199 Goal=   None    Shift=    0.000
 RMSDP=9.39D-05 MaxDP=5.40D-03 DE=-1.27D-03 OVMax= 5.58D-03

 Cycle   6  Pass 1  IDiag  1:
 RMSU=  7.72D-05    CP:  1.11D+00  2.21D+00  9.94D-01  8.74D-01  9.85D-01
 E= -113.183884687339     Delta-E=       -0.000068860970 Rises=F Damp=F
 DIIS: error= 2.92D-04 at cycle   6 NSaved=   6.
 NSaved= 6 IEnMin= 6 EnMin= -113.183884687339     IErMin= 6 ErrMin= 2.92D-04
 ErrMax= 2.92D-04  0.00D+00 EMaxC= 1.00D-01 BMatC= 6.42D-06 BMatP= 1.77D-04
 IDIUse=3 WtCom= 9.97D-01 WtEn= 2.92D-03
 Coeff-Com:  0.486D-02-0.623D-02-0.128D-01-0.468D-01-0.404D-01 0.110D+01
 Coeff-En:   0.000D+00 0.000D+00 0.000D+00 0.000D+00 0.000D+00 0.100D+01
 Coeff:      0.484D-02-0.621D-02-0.128D-01-0.467D-01-0.402D-01 0.110D+01
 Gap=     0.149 Goal=   None    Shift=    0.000
 Gap=     0.200 Goal=   None    Shift=    0.000
 RMSDP=3.09D-05 MaxDP=1.93D-03 DE=-6.89D-05 OVMax= 2.87D-03

 Cycle   7  Pass 1  IDiag  1:
 RMSU=  1.59D-05    CP:  1.11D+00  2.21D+00  9.96D-01  8.71D-01  1.03D+00
                    CP:  1.25D+00
 E= -113.183893663683     Delta-E=       -0.000008976344 Rises=F Damp=F
 DIIS: error= 9.36D-05 at cycle   7 NSaved=   7.
 NSaved= 7 IEnMin= 7 EnMin= -113.183893663683     IErMin= 7 ErrMin= 9.36D-05
 ErrMax= 9.36D-05  0.00D+00 EMaxC= 1.00D-01 BMatC= 8.49D-07 BMatP= 6.42D-06
 IDIUse=1 WtCom= 1.00D+00 WtEn= 0.00D+00
 Coeff-Com:  0.527D-03-0.224D-03 0.253D-02-0.261D-03-0.711D-01-0.191D+00
 Coeff-Com:  0.126D+01
 Coeff:      0.527D-03-0.224D-03 0.253D-02-0.261D-03-0.711D-01-0.191D+00
 Coeff:      0.126D+01
 Gap=     0.149 Goal=   None    Shift=    0.000
 Gap=     0.200 Goal=   None    Shift=    0.000
 RMSDP=1.33D-05 MaxDP=7.86D-04 DE=-8.98D-06 OVMax= 1.70D-03

 Cycle   8  Pass 1  IDiag  1:
 RMSU=  4.16D-06    CP:  1.11D+00  2.21D+00  9.96D-01  8.68D-01  1.04D+00
                    CP:  1.36D+00  1.37D+00
 E= -113.183895127794     Delta-E=       -0.000001464111 Rises=F Damp=F
 DIIS: error= 4.78D-05 at cycle   8 NSaved=   8.
 NSaved= 8 IEnMin= 8 EnMin= -113.183895127794     IErMin= 8 ErrMin= 4.78D-05
 ErrMax= 4.78D-05  0.00D+00 EMaxC= 1.00D-01 BMatC= 1.27D-07 BMatP= 8.49D-07
 IDIUse=1 WtCom= 1.00D+00 WtEn= 0.00D+00
 Coeff-Com:  0.570D-04-0.144D-03 0.166D-02 0.632D-02 0.147D-01-0.112D+00
 Coeff-Com: -0.889D-01 0.118D+01
 Coeff:      0.570D-04-0.144D-03 0.166D-02 0.632D-02 0.147D-01-0.112D+00
 Coeff:     -0.889D-01 0.118D+01
 Gap=     0.149 Goal=   None    Shift=    0.000
 Gap=     0.200 Goal=   None    Shift=    0.000
 RMSDP=3.59D-06 MaxDP=2.35D-04 DE=-1.46D-06 OVMax= 5.01D-04

 Cycle   9  Pass 1  IDiag  1:
 RMSU=  1.01D-06    CP:  1.11D+00  2.21D+00  9.96D-01  8.68D-01  1.04D+00
                    CP:  1.37D+00  1.52D+00  1.32D+00
 E= -113.183895264812     Delta-E=       -0.000000137018 Rises=F Damp=F
 DIIS: error= 6.47D-06 at cycle   9 NSaved=   9.
 NSaved= 9 IEnMin= 9 EnMin= -113.183895264812     IErMin= 9 ErrMin= 6.47D-06
 ErrMax= 6.47D-06  0.00D+00 EMaxC= 1.00D-01 BMatC= 5.01D-09 BMatP= 1.27D-07
 IDIUse=1 WtCom= 1.00D+00 WtEn= 0.00D+00
 Coeff-Com: -0.117D-03 0.137D-03-0.225D-03-0.736D-03 0.304D-02 0.230D-01
 Coeff-Com: -0.559D-01-0.195D+00 0.123D+01
 Coeff:     -0.117D-03 0.137D-03-0.225D-03-0.736D-03 0.304D-02 0.230D-01
 Coeff:     -0.559D-01-0.195D+00 0.123D+01
 Gap=     0.149 Goal=   None    Shift=    0.000
 Gap=     0.201 Goal=   None    Shift=    0.000
 RMSDP=6.78D-07 MaxDP=2.54D-05 DE=-1.37D-07 OVMax= 1.06D-04

 Cycle  10  Pass 1  IDiag  1:
 RMSU=  2.53D-07    CP:  1.11D+00  2.21D+00  9.96D-01  8.68D-01  1.04D+00
                    CP:  1.37D+00  1.54D+00  1.42D+00  1.32D+00
 E= -113.183895271039     Delta-E=       -0.000000006227 Rises=F Damp=F
 DIIS: error= 2.58D-06 at cycle  10 NSaved=  10.
 NSaved=10 IEnMin=10 EnMin= -113.183895271039     IErMin=10 ErrMin= 2.58D-06
 ErrMax= 2.58D-06  0.00D+00 EMaxC= 1.00D-01 BMatC= 5.48D-10 BMatP= 5.01D-09
 IDIUse=1 WtCom= 1.00D+00 WtEn= 0.00D+00
 Coeff-Com: -0.510D-04 0.722D-04-0.120D-03-0.337D-03-0.734D-03 0.460D-02
 Coeff-Com:  0.601D-02-0.617D-01-0.664D-02 0.106D+01
 Coeff:     -0.510D-04 0.722D-04-0.120D-03-0.337D-03-0.734D-03 0.460D-02
 Coeff:      0.601D-02-0.617D-01-0.664D-02 0.106D+01
 Gap=     0.149 Goal=   None    Shift=    0.000
 Gap=     0.201 Goal=   None    Shift=    0.000
 RMSDP=1.65D-07 MaxDP=5.83D-06 DE=-6.23D-09 OVMax= 2.35D-05

 Cycle  11  Pass 1  IDiag  1:
 RMSU=  6.50D-08    CP:  1.11D+00  2.21D+00  9.96D-01  8.68D-01  1.04D+00
                    CP:  1.37D+00  1.54D+00  1.42D+00  1.40D+00  1.33D+00
 E= -113.183895271379     Delta-E=       -0.000000000340 Rises=F Damp=F
 DIIS: error= 2.96D-07 at cycle  11 NSaved=  11.
 NSaved=11 IEnMin=11 EnMin= -113.183895271379     IErMin=11 ErrMin= 2.96D-07
 ErrMax= 2.96D-07  0.00D+00 EMaxC= 1.00D-01 BMatC= 1.39D-11 BMatP= 5.48D-10
 IDIUse=1 WtCom= 1.00D+00 WtEn= 0.00D+00
 Coeff-Com:  0.917D-05-0.112D-04 0.106D-04 0.490D-04-0.123D-03-0.111D-02
 Coeff-Com:  0.243D-02 0.116D-01-0.560D-01-0.128D+00 0.117D+01
 Coeff:      0.917D-05-0.112D-04 0.106D-04 0.490D-04-0.123D-03-0.111D-02
 Coeff:      0.243D-02 0.116D-01-0.560D-01-0.128D+00 0.117D+01
 Gap=     0.149 Goal=   None    Shift=    0.000
 Gap=     0.201 Goal=   None    Shift=    0.000
 RMSDP=4.15D-08 MaxDP=2.13D-06 DE=-3.40D-10 OVMax= 3.60D-06

 Cycle  12  Pass 1  IDiag  1:
 RMSU=  1.67D-08    CP:  1.11D+00  2.21D+00  9.96D-01  8.68D-01  1.04D+00
                    CP:  1.37D+00  1.54D+00  1.43D+00  1.42D+00  1.43D+00
                    CP:  1.18D+00
 E= -113.183895271392     Delta-E=       -0.000000000012 Rises=F Damp=F
 DIIS: error= 5.16D-08 at cycle  12 NSaved=  12.
 NSaved=12 IEnMin=12 EnMin= -113.183895271392     IErMin=12 ErrMin= 5.16D-08
 ErrMax= 5.16D-08  0.00D+00 EMaxC= 1.00D-01 BMatC= 4.72D-13 BMatP= 1.39D-11
 IDIUse=1 WtCom= 1.00D+00 WtEn= 0.00D+00
 Coeff-Com:  0.407D-06-0.945D-06 0.213D-05 0.143D-06 0.608D-04 0.110D-03
 Coeff-Com: -0.796D-03-0.103D-02 0.149D-01-0.104D-02-0.289D+00 0.128D+01
 Coeff:      0.407D-06-0.945D-06 0.213D-05 0.143D-06 0.608D-04 0.110D-03
 Coeff:     -0.796D-03-0.103D-02 0.149D-01-0.104D-02-0.289D+00 0.128D+01
 Gap=     0.149 Goal=   None    Shift=    0.000
 Gap=     0.201 Goal=   None    Shift=    0.000
 RMSDP=7.97D-09 MaxDP=4.62D-07 DE=-1.21D-11 OVMax= 4.71D-07

 SCF Done:  E(UB3LYP) =  -113.183895271     A.U. after   12 cycles
            NFock= 12  Conv=0.80D-08     -V/T= 2.0036
 <Sx>= 0.0000 <Sy>= 0.0000 <Sz>= 1.5000 <S**2>= 3.7639 S= 1.5035
 <L.S>= 0.000000000000E+00
 KE= 1.127812489899D+02 PE=-3.390559940719D+02 EE= 6.695972773713D+01
 Annihilation of the first spin contaminant:
 S**2 before annihilation     3.7639,   after     3.7501
 Leave Link  502 at Tue Jul 19 04:20:13 2016, MaxMem=    33554432 cpu:        44.2
 (Enter /home/proyectos/fulerenos/M3C-v2.0/M3C-deps_CCC/g09-AM64L-G09RevC.01/l801.exe)
 DoSCS=F DFT=T ScalE2(SS,OS)=  1.000000  1.000000
 Range of M.O.s used for correlation:     1   137
 NBasis=   137 NAE=    10 NBE=     7 NFC=     0 NFV=     0
 NROrb=    137 NOA=    10 NOB=     7 NVA=   127 NVB=   130

 **** Warning!!: The largest alpha MO coefficient is  0.37595909D+02


 **** Warning!!: The largest beta MO coefficient is  0.45609944D+02

 Leave Link  801 at Tue Jul 19 04:20:13 2016, MaxMem=    33554432 cpu:         0.1
 (Enter /home/proyectos/fulerenos/M3C-v2.0/M3C-deps_CCC/g09-AM64L-G09RevC.01/l1101.exe)
 Using compressed storage, NAtomX=     5.
 Will process      6 centers per pass.
 Leave Link 1101 at Tue Jul 19 04:20:13 2016, MaxMem=    33554432 cpu:         0.4
 (Enter /home/proyectos/fulerenos/M3C-v2.0/M3C-deps_CCC/g09-AM64L-G09RevC.01/l1102.exe)
 Symmetrizing basis deriv contribution to polar:
 IMax=3 JMax=2 DiffMx= 0.00D+00
 Leave Link 1102 at Tue Jul 19 04:20:14 2016, MaxMem=    33554432 cpu:         0.1
 (Enter /home/proyectos/fulerenos/M3C-v2.0/M3C-deps_CCC/g09-AM64L-G09RevC.01/l1110.exe)
 Forming Gx(P) for the SCF density, NAtomX=     5.
 Integral derivatives from FoFJK, PRISM(SPDF).
 Do as many integral derivatives as possible in FoFJK.
 G2DrvN: MDV=      33554288.
 G2DrvN: will do     6 centers at a time, making    1 passes.
 Calling FoFCou, ICntrl=  3107 FMM=F I1Cent=   0 AccDes= 0.00D+00.
 FoFJK:  IHMeth= 1 ICntrl=    3107 DoSepK=F KAlg= 0 I1Cent=   0 FoldK=F
 IRaf=         0 NMat=   1 IRICut=       1 DoRegI=T DoRafI=F ISym2E= 1.
 FoFCou: FMM=F IPFlag=           0 FMFlag=      100000 FMFlg1=           0
         NFxFlg=           0 DoJE=F BraDBF=F KetDBF=F FulRan=T
         wScrn=  0.000000 ICntrl=    3107 IOpCl=  1 I1Cent=           0 NGrid=           0
         NMat0=    1 NMatS0=      1 NMatT0=    0 NMatD0=    1 NMtDS0=    0 NMtDT0=    0
 Petite list used in FoFCou.
 End of G2Drv F.D. properties file   721 does not exist.
 End of G2Drv F.D. properties file   722 does not exist.
 End of G2Drv F.D. properties file   788 does not exist.
 Leave Link 1110 at Tue Jul 19 04:20:50 2016, MaxMem=    33554432 cpu:        36.7
 (Enter /home/proyectos/fulerenos/M3C-v2.0/M3C-deps_CCC/g09-AM64L-G09RevC.01/l1002.exe)
 Minotr:  UHF open shell wavefunction.
          IDoAtm=11111
          Direct CPHF calculation.
          Differentiating once with respect to electric field.
                with respect to dipole field.
          Differentiating once with respect to nuclear coordinates.
          Using symmetry in CPHF.
          Requested convergence is 1.0D-08 RMS, and 1.0D-07 maximum.
          Secondary convergence is 1.0D-12 RMS, and 1.0D-12 maximum.
          NewPWx=T KeepS1=F KeepF1=F KeepIn=T MapXYZ=F SortEE=F KeepMc=T.
          MDV=      33554104 using IRadAn=       2.
 Generate precomputed XC quadrature information.
          Solving linear equations simultaneously, MaxMat=       0.
 FoFJK:  IHMeth= 1 ICntrl=       0 DoSepK=F KAlg= 0 I1Cent=   0 FoldK=F
 IRaf= 990000000 NMat=  12 IRICut=      30 DoRegI=T DoRafI=T ISym2E= 2.
 FoFCou: FMM=F IPFlag=           0 FMFlag=      100000 FMFlg1=           0
         NFxFlg=           0 DoJE=F BraDBF=F KetDBF=F FulRan=T
         wScrn=  0.000000 ICntrl=       0 IOpCl=  1 I1Cent=           0 NGrid=           0
         NMat0=   12 NMatS0=     12 NMatT0=    0 NMatD0=   12 NMtDS0=    0 NMtDT0=    0
 Integrals replicated using symmetry in FoFCou.
          There are    12 degrees of freedom in the 1st order CPHF.  IDoFFX=4 NUNeed=    12.
     12 vectors produced by pass  0 Test12= 1.82D-14 8.33D-09 XBig12= 1.49D+02 9.50D+00.
 AX will form    12 AO Fock derivatives at one time.
     12 vectors produced by pass  1 Test12= 1.82D-14 8.33D-09 XBig12= 2.63D+01 1.57D+00.
     12 vectors produced by pass  2 Test12= 1.82D-14 8.33D-09 XBig12= 1.01D+00 3.50D-01.
     12 vectors produced by pass  3 Test12= 1.82D-14 8.33D-09 XBig12= 2.62D-02 4.76D-02.
     12 vectors produced by pass  4 Test12= 1.82D-14 8.33D-09 XBig12= 2.60D-04 5.24D-03.
     12 vectors produced by pass  5 Test12= 1.82D-14 8.33D-09 XBig12= 2.39D-06 4.01D-04.
     12 vectors produced by pass  6 Test12= 1.82D-14 8.33D-09 XBig12= 1.42D-08 3.06D-05.
      6 vectors produced by pass  7 Test12= 1.82D-14 8.33D-09 XBig12= 5.00D-11 1.53D-06.
      4 vectors produced by pass  8 Test12= 1.82D-14 8.33D-09 XBig12= 1.34D-13 7.26D-08.
 InvSVY:  IOpt=1 It=  1 EMax= 5.33D-15
 Solved reduced A of dimension    94 with    12 vectors.
 FullF1:  Do perturbations    1 to    12.
 Isotropic polarizability for W=    0.000000       22.89 Bohr**3.
 End of Minotr F.D. properties file   721 does not exist.
 End of Minotr F.D. properties file   722 does not exist.
 End of Minotr F.D. properties file   788 does not exist.
 Leave Link 1002 at Tue Jul 19 04:24:13 2016, MaxMem=    33554432 cpu:       202.3
 (Enter /home/proyectos/fulerenos/M3C-v2.0/M3C-deps_CCC/g09-AM64L-G09RevC.01/l601.exe)
 Copying SCF densities to generalized density rwf, IOpCl= 1 IROHF=0.

 **********************************************************************

            Population analysis using the SCF density.

 **********************************************************************

 Orbital symmetries:
 Alpha Orbitals:
       Occupied  (A1) (B2) (A1) (A1) (B2) (A1) (A1) (B1) (B2) (A1)
       Virtual   (A2) (B1) (B2) (B2) (A1) (B1) (A1) (A1) (B2) (B1)
                 (A1) (A1) (A2) (B2) (B1) (A1) (B1) (A2) (A1) (B2)
                 (A1) (B2) (B1) (A1) (A1) (B2) (B2) (A1) (A1) (B1)
                 (B1) (A2) (B2) (A2) (A1) (B1) (B2) (B2) (A1) (A1)
                 (B1) (A2) (A1) (A1) (B2) (B1) (B2) (A1) (B1) (A1)
                 (A2) (B1) (B2) (A1) (A1) (A2) (B2) (B1) (A1) (B2)
                 (A1) (A2) (B1) (B2) (B2) (A1) (A2) (A1) (A1) (B1)
                 (B2) (A1) (B1) (B1) (B2) (A2) (A1) (B2) (B1) (A1)
                 (A2) (B2) (B1) (B2) (A1) (B1) (A2) (A1) (B1) (A2)
                 (A1) (B2) (B2) (A1) (B2) (A1) (B1) (A2) (B2) (B1)
                 (A1) (A1) (B2) (B1) (A1) (A2) (B2) (A1) (B1) (A1)
                 (B1) (A2) (A1) (B2) (A2) (B1) (A1) (B2) (B2) (A2)
                 (A1) (B2) (A1) (B1) (A1) (B2) (A1)
 Beta  Orbitals:
       Occupied  (B2) (A1) (A1) (A1) (B2) (A1) (B1)
       Virtual   (A1) (B2) (A1) (B1) (A2) (B2) (B1) (A1) (B2) (A1)
                 (A1) (B1) (B2) (A1) (A2) (A1) (B2) (B1) (A1) (B1)
                 (A2) (A1) (B2) (B1) (A1) (B2) (A1) (A1) (B2) (B2)
                 (B1) (A1) (A1) (B1) (A2) (A2) (B2) (A1) (B1) (B2)
                 (B2) (A1) (B1) (A1) (A2) (A1) (A1) (B2) (B1) (B2)
                 (A1) (B1) (A1) (B1) (B2) (A2) (A1) (A2) (A1) (B2)
                 (B1) (A1) (A1) (B2) (A2) (B1) (B2) (B2) (A1) (A2)
                 (A1) (A1) (B1) (B2) (A1) (B1) (B1) (A2) (B2) (A1)
                 (B2) (B1) (A1) (A2) (B2) (B1) (A1) (B2) (B1) (A2)
                 (B1) (A1) (A1) (A2) (B2) (B2) (A1) (B2) (A1) (B1)
                 (A2) (B2) (B1) (A1) (A1) (B2) (B1) (A1) (A2) (B2)
                 (A1) (B1) (A1) (B1) (A2) (B2) (A1) (A2) (B1) (A1)
                 (B2) (A2) (B2) (A1) (B2) (A1) (B1) (A1) (B2) (A1)
 The electronic state is 4-B2.
 Alpha  occ. eigenvalues --  -11.33384 -11.33383 -11.15747  -1.77576  -1.53616
 Alpha  occ. eigenvalues --   -1.42941  -1.30745  -1.29275  -1.27651  -1.18202
 Alpha virt. eigenvalues --   -1.03309  -1.01616  -1.00587  -0.66156  -0.65282
 Alpha virt. eigenvalues --   -0.65223  -0.59082  -0.54457  -0.47973  -0.47036
 Alpha virt. eigenvalues --   -0.45685  -0.42104  -0.42090  -0.40874  -0.39603
 Alpha virt. eigenvalues --   -0.36022  -0.35023  -0.34592  -0.33266  -0.32200
 Alpha virt. eigenvalues --   -0.29663  -0.29507  -0.29092  -0.25345  -0.23712
 Alpha virt. eigenvalues --   -0.21485  -0.17150  -0.17112  -0.15752  -0.15316
 Alpha virt. eigenvalues --   -0.13669  -0.12888  -0.12502  -0.11945  -0.11216
 Alpha virt. eigenvalues --   -0.08724  -0.08077  -0.05934  -0.05906  -0.03019
 Alpha virt. eigenvalues --   -0.02424  -0.00097   0.04801   0.05687   0.08811
 Alpha virt. eigenvalues --    0.09916   0.18523   0.29910   0.36237   0.41777
 Alpha virt. eigenvalues --    0.45195   0.45923   0.45926   0.47917   0.53116
 Alpha virt. eigenvalues --    0.54005   0.60195   0.64700   0.67612   0.69797
 Alpha virt. eigenvalues --    0.70828   0.75555   0.78630   0.81319   0.91430
 Alpha virt. eigenvalues --    1.00979   1.06910   1.13960   1.20245   1.24601
 Alpha virt. eigenvalues --    1.25621   1.61185   1.66131   1.74280   1.75216
 Alpha virt. eigenvalues --    1.78271   1.86464   1.86728   1.89688   1.89939
 Alpha virt. eigenvalues --    1.90176   1.94533   1.99171   2.04925   2.06682
 Alpha virt. eigenvalues --    2.14315   2.14782   2.19692   2.23707   2.23780
 Alpha virt. eigenvalues --    2.23904   2.32757   2.44343   2.49408   2.58023
 Alpha virt. eigenvalues --    2.69219   2.76796   3.06451   3.06746   3.12428
 Alpha virt. eigenvalues --    3.25278   3.39301   3.48988   3.52033   3.56525
 Alpha virt. eigenvalues --    3.66599   4.06894   4.15270   4.30194   5.89850
 Alpha virt. eigenvalues --    5.91200   5.91510   5.96084   5.96634   6.03364
 Alpha virt. eigenvalues --    6.13915   6.25082   6.33415   6.48577   6.49046
 Alpha virt. eigenvalues --    6.55476   6.94578   6.97721   7.15661  22.63152
 Alpha virt. eigenvalues --   23.40973  23.76602
  Beta  occ. eigenvalues --  -11.30226 -11.30224 -11.15197  -1.73540  -1.46071
  Beta  occ. eigenvalues --   -1.38780  -1.28248
  Beta virt. eigenvalues --   -1.08196  -1.04516  -1.01553  -0.97822  -0.97713
  Beta virt. eigenvalues --   -0.88365  -0.63887  -0.63786  -0.61816  -0.56107
  Beta virt. eigenvalues --   -0.50725  -0.46085  -0.45818  -0.44457  -0.41286
  Beta virt. eigenvalues --   -0.40694  -0.39238  -0.38594  -0.34611  -0.34174
  Beta virt. eigenvalues --   -0.33771  -0.32231  -0.31503  -0.29053  -0.29011
  Beta virt. eigenvalues --   -0.28732  -0.23975  -0.23156  -0.19685  -0.16001
  Beta virt. eigenvalues --   -0.14722  -0.14657  -0.13909  -0.12705  -0.11662
  Beta virt. eigenvalues --   -0.10739  -0.10488  -0.08873  -0.08112  -0.05921
  Beta virt. eigenvalues --   -0.04269  -0.04160  -0.02113  -0.01709   0.01015
  Beta virt. eigenvalues --    0.05528   0.07035   0.10162   0.10473   0.20009
  Beta virt. eigenvalues --    0.32550   0.36868   0.43902   0.46660   0.47134
  Beta virt. eigenvalues --    0.47643   0.49190   0.55159   0.55248   0.64656
  Beta virt. eigenvalues --    0.68938   0.70017   0.75421   0.76702   0.81358
  Beta virt. eigenvalues --    0.83586   0.87276   0.99930   1.07249   1.11949
  Beta virt. eigenvalues --    1.18956   1.27222   1.28399   1.31194   1.67898
  Beta virt. eigenvalues --    1.70477   1.77780   1.80735   1.81938   1.90263
  Beta virt. eigenvalues --    1.91124   1.93213   1.95370   1.96970   1.99593
  Beta virt. eigenvalues --    2.01957   2.11795   2.12549   2.18505   2.18851
  Beta virt. eigenvalues --    2.24192   2.24470   2.29061   2.30199   2.36830
  Beta virt. eigenvalues --    2.48699   2.52315   2.64706   2.73572   2.79342
  Beta virt. eigenvalues --    3.08942   3.10201   3.14585   3.29215   3.42267
  Beta virt. eigenvalues --    3.51502   3.53824   3.59625   3.68176   4.12139
  Beta virt. eigenvalues --    4.16662   4.31172   5.95907   5.97762   5.98384
  Beta virt. eigenvalues --    6.04444   6.05841   6.08042   6.20642   6.29479
  Beta virt. eigenvalues --    6.43408   6.52282   6.56307   6.61396   6.97870
  Beta virt. eigenvalues --    7.01646   7.17131  22.66118  23.44738  23.78081
          Condensed to atoms (all electrons):
               1          2          3          4          5
     1  C    6.112659  -0.519378  -0.519378   0.334459   0.334459
     2  C   -0.519378   5.461441   0.141422  -0.018329  -0.018329
     3  C   -0.519378   0.141422   5.461441  -0.018329  -0.018329
     4  H    0.334459  -0.018329  -0.018329   0.300164  -0.016199
     5  H    0.334459  -0.018329  -0.018329  -0.016199   0.300164
          Atomic-Atomic Spin Densities.
               1          2          3          4          5
     1  C    0.860278  -0.322402  -0.322402  -0.009198  -0.009198
     2  C   -0.322402   1.632730   0.057023   0.007490   0.007490
     3  C   -0.322402   0.057023   1.632730   0.007490   0.007490
     4  H   -0.009198   0.007490   0.007490   0.011449   0.001897
     5  H   -0.009198   0.007490   0.007490   0.001897   0.011449
 Mulliken charges and spin densities:
               1          2
     1  C    0.257181   0.197078
     2  C    0.953174   1.382331
     3  C    0.953174   1.382331
     4  H    0.418236   0.019130
     5  H    0.418236   0.019130
 Sum of Mulliken charges =   3.00000   3.00000
 Mulliken charges and spin densities with hydrogens summed into heavy atoms:
               1          2
     1  C    1.093652   0.235337
     2  C    0.953174   1.382331
     3  C    0.953174   1.382331
 APT charges:
               1
     1  C   -0.277829
     2  C    1.010199
     3  C    1.010199
     4  H    0.628715
     5  H    0.628715
 Sum of APT charges =   3.00000
 APT charges with hydrogens summed into heavy atoms:
               1
     1  C    0.979602
     2  C    1.010199
     3  C    1.010199
 Electronic spatial extent (au):  <R**2>=             86.9301
 Charge=              3.0000 electrons
 Dipole moment (field-independent basis, Debye):
    X=              0.0000    Y=              0.0000    Z=              1.0354  Tot=              1.0354
 Quadrupole moment (field-independent basis, Debye-Ang):
   XX=             -7.5485   YY=              1.8116   ZZ=             -0.2294
   XY=             -0.0000   XZ=              0.0000   YZ=             -0.0000
 Traceless Quadrupole moment (field-independent basis, Debye-Ang):
   XX=             -5.5597   YY=              3.8004   ZZ=              1.7593
   XY=             -0.0000   XZ=              0.0000   YZ=             -0.0000
 Octapole moment (field-independent basis, Debye-Ang**2):
  XXX=              0.0000  YYY=             -0.0000  ZZZ=             12.0250  XYY=              0.0000
  XXY=             -0.0000  XXZ=              5.6766  XZZ=              0.0000  YZZ=             -0.0000
  YYZ=             -7.3671  XYZ=             -0.0000
 Hexadecapole moment (field-independent basis, Debye-Ang**3):
 XXXX=             -8.6848 YYYY=            -31.9391 ZZZZ=            -14.5376 XXXY=             -0.0000
 XXXZ=              0.0000 YYYX=              0.0000 YYYZ=              0.0000 ZZZX=             -0.0000
 ZZZY=             -0.0000 XXYY=             -9.5394 XXZZ=              1.7791 YYZZ=            -10.7558
 XXYZ=              0.0000 YYXZ=             -0.0000 ZZXY=             -0.0000
 N-N= 4.613112207343D+01 E-N=-3.390559939929D+02  KE= 1.127812489899D+02
 Symmetry A1   KE= 7.307460840798D+01
 Symmetry A2   KE=-5.073296393171D-19
 Symmetry B1   KE= 2.220104142579D+00
 Symmetry B2   KE= 3.748653643936D+01
  Exact polarizability:  16.553  -0.000  29.216   0.000  -0.000  22.911
 Approx polarizability:  24.916   0.000  73.314  -0.000   0.000  41.544
                          Isotropic Fermi Contact Couplings
        Atom                 a.u.       MegaHertz       Gauss      10(-4) cm-1
     1  C(13)              0.09501      35.60150      12.70350      11.87538
     2  C(13)              1.32277     495.68288     176.87197     165.34201
     3  C(13)              1.32277     495.68288     176.87197     165.34201
     4  H(1)               0.00941      14.02035       5.00281       4.67668
     5  H(1)               0.00941      14.02035       5.00281       4.67668
 --------------------------------------------------------
       Center         ----  Spin Dipole Couplings  ----
                      3XX-RR        3YY-RR        3ZZ-RR
 --------------------------------------------------------
     1   Atom       -0.419750      0.233212      0.186537
     2   Atom       -0.877457      0.108458      0.768999
     3   Atom       -0.877457      0.108458      0.768999
     4   Atom        0.007084     -0.016662      0.009578
     5   Atom        0.007084     -0.016662      0.009578
 --------------------------------------------------------
                        XY            XZ            YZ
 --------------------------------------------------------
     1   Atom        0.000000     -0.000000      0.000000
     2   Atom       -0.000000     -0.000000      0.104377
     3   Atom        0.000000     -0.000000     -0.104377
     4   Atom       -0.000000     -0.035334      0.000000
     5   Atom       -0.000000      0.035334     -0.000000
 --------------------------------------------------------


 ---------------------------------------------------------------------------------
              Anisotropic Spin Dipole Couplings in Principal Axis System
 ---------------------------------------------------------------------------------

       Atom             a.u.   MegaHertz   Gauss  10(-4) cm-1        Axes

              Baa    -0.4197   -56.326   -20.099   -18.788  1.0000 -0.0000  0.0000
     1 C(13)  Bbb     0.1865    25.031     8.932     8.350 -0.0000 -0.0000  1.0000
              Bcc     0.2332    31.295    11.167    10.439  0.0000  1.0000  0.0000
 
              Baa    -0.8775  -117.746   -42.015   -39.276  1.0000  0.0000  0.0000
     2 C(13)  Bbb     0.0924    12.393     4.422     4.134 -0.0000  0.9883 -0.1525
              Bcc     0.7851   105.353    37.593    35.142 -0.0000  0.1525  0.9883
 
              Baa    -0.8775  -117.746   -42.015   -39.276  1.0000 -0.0000  0.0000
     3 C(13)  Bbb     0.0924    12.393     4.422     4.134  0.0000  0.9883  0.1525
              Bcc     0.7851   105.353    37.593    35.142 -0.0000 -0.1525  0.9883
 
              Baa    -0.0270   -14.419    -5.145    -4.810  0.7195  0.0000  0.6945
     4 H(1)   Bbb    -0.0167    -8.890    -3.172    -2.965  0.0000  1.0000 -0.0000
              Bcc     0.0437    23.309     8.317     7.775 -0.6945  0.0000  0.7195
 
              Baa    -0.0270   -14.419    -5.145    -4.810  0.7195 -0.0000 -0.6945
     5 H(1)   Bbb    -0.0167    -8.890    -3.172    -2.965  0.0000  1.0000  0.0000
              Bcc     0.0437    23.309     8.317     7.775  0.6945 -0.0000  0.7195
 

 ---------------------------------------------------------------------------------

 No NMR shielding tensors so no spin-rotation constants.
 Leave Link  601 at Tue Jul 19 04:24:13 2016, MaxMem=    33554432 cpu:         0.5
 (Enter /home/proyectos/fulerenos/M3C-v2.0/M3C-deps_CCC/g09-AM64L-G09RevC.01/l701.exe)
 Compute integral second derivatives.
 ... and contract with generalized density number  0.
 Leave Link  701 at Tue Jul 19 04:24:14 2016, MaxMem=    33554432 cpu:         0.6
 (Enter /home/proyectos/fulerenos/M3C-v2.0/M3C-deps_CCC/g09-AM64L-G09RevC.01/l702.exe)
 L702 exits ... SP integral derivatives will be done elsewhere.
 Leave Link  702 at Tue Jul 19 04:24:14 2016, MaxMem=    33554432 cpu:         0.1
 (Enter /home/proyectos/fulerenos/M3C-v2.0/M3C-deps_CCC/g09-AM64L-G09RevC.01/l703.exe)
 Compute integral second derivatives, UseDBF=F ICtDFT=           0.
 Integral derivatives from FoFJK, PRISM(SPDF).
 Calling FoFJK, ICntrl=    100127 FMM=F ISym2X=1 I1Cent= 0 IOpClX= 1 NMat=1 NMatS=1 NMatT=0.
 FoFJK:  IHMeth= 1 ICntrl=  100127 DoSepK=F KAlg= 0 I1Cent=   0 FoldK=F
 IRaf=         0 NMat=   1 IRICut=       1 DoRegI=T DoRafI=F ISym2E= 1.
 FoFCou: FMM=F IPFlag=           0 FMFlag=      100000 FMFlg1=         800
         NFxFlg=           0 DoJE=F BraDBF=F KetDBF=F FulRan=T
         wScrn=  0.000000 ICntrl=  100127 IOpCl=  1 I1Cent=           0 NGrid=           0
         NMat0=    1 NMatS0=      1 NMatT0=    0 NMatD0=    1 NMtDS0=    0 NMtDT0=    0
 Petite list used in FoFCou.
 Leave Link  703 at Tue Jul 19 04:25:37 2016, MaxMem=    33554432 cpu:        82.4
 (Enter /home/proyectos/fulerenos/M3C-v2.0/M3C-deps_CCC/g09-AM64L-G09RevC.01/l716.exe)
 Dipole        = 5.91107024D-16-2.80174391D-14 4.07356382D-01
 Polarizability= 1.65529676D+01-1.95513784D-07 2.92159875D+01
                 1.59262124D-07-3.29975148D-08 2.29109105D+01
 Full mass-weighted force constant matrix:
 Low frequencies ---  -16.7859   -9.3933   -9.2090    0.0009    0.0016    0.0017
 Low frequencies ---  374.6653  501.2708  596.6698
 Diagonal vibrational polarizability:
       22.6336050       4.4948589      44.8280099
 Harmonic frequencies (cm**-1), IR intensities (KM/Mole), Raman scattering
 activities (A**4/AMU), depolarization ratios for plane and unpolarized
 incident light, reduced masses (AMU), force constants (mDyne/A),
 and normal coordinates:
                      1                      2                      3
                     A1                     B1                     A1
 Frequencies --    374.6653               501.2706               596.6698
 Red. masses --      7.8672                 1.5975                 1.3743
 Frc consts  --      0.6507                 0.2365                 0.2883
 IR Inten    --     56.2282               125.3047               326.4143
  Atom  AN      X      Y      Z        X      Y      Z        X      Y      Z
     1   6     0.00  -0.00   0.22     0.21  -0.00  -0.00     0.00  -0.00   0.17
     2   6     0.00   0.51  -0.15    -0.07   0.00   0.00    -0.00  -0.02  -0.04
     3   6    -0.00  -0.51  -0.15    -0.07   0.00  -0.00     0.00   0.02  -0.04
     4   1    -0.01   0.00   0.43    -0.41  -0.00  -0.56    -0.50  -0.00  -0.49
     5   1     0.01  -0.00   0.43    -0.41  -0.00   0.56     0.50   0.00  -0.49
                      4                      5                      6
                     B2                     A2                     B2
 Frequencies --    729.0080               758.1381               977.5846
 Red. masses --      3.6962                 1.0650                 1.5159
 Frc consts  --      1.1574                 0.3607                 0.8536
 IR Inten    --      0.1718                 0.0000               159.3126
  Atom  AN      X      Y      Z        X      Y      Z        X      Y      Z
     1   6     0.00   0.27   0.00    -0.00   0.00   0.00     0.00   0.21  -0.00
     2   6    -0.00  -0.19  -0.22     0.05  -0.00  -0.00    -0.00  -0.04   0.00
     3   6    -0.00  -0.19   0.22    -0.05   0.00  -0.00    -0.00  -0.04  -0.00
     4   1    -0.00   0.61  -0.00    -0.00   0.71  -0.00    -0.00  -0.69  -0.00
     5   1    -0.00   0.61   0.00     0.00  -0.71  -0.00     0.00  -0.69  -0.00
                      7                      8                      9
                     A1                     B1                     A1
 Frequencies --   1049.7242              1665.5695              1920.7472
 Red. masses --      3.2142                 1.0665                 1.0672
 Frc consts  --      2.0868                 1.7431                 2.3197
 IR Inten    --      3.3738               949.7674              1273.8960
  Atom  AN      X      Y      Z        X      Y      Z        X      Y      Z
     1   6    -0.00   0.00   0.28     0.07   0.00   0.00    -0.00   0.00   0.07
     2   6    -0.00  -0.16  -0.19     0.00  -0.00  -0.00    -0.00   0.02   0.00
     3   6     0.00   0.16  -0.19     0.00  -0.00   0.00     0.00  -0.02   0.00
     4   1     0.29  -0.00   0.56    -0.49   0.00   0.51     0.56  -0.00  -0.43
     5   1    -0.29   0.00   0.56    -0.49   0.00  -0.51    -0.56   0.00  -0.43

 -------------------
 - Thermochemistry -
 -------------------
 Temperature   298.150 Kelvin.  Pressure   1.00000 Atm.
 Atom     1 has atomic number  6 and mass  12.00000
 Atom     2 has atomic number  6 and mass  12.00000
 Atom     3 has atomic number  6 and mass  12.00000
 Atom     4 has atomic number  1 and mass   1.00783
 Atom     5 has atomic number  1 and mass   1.00783
 Molecular mass:    38.01565 amu.
 Principal axes and moments of inertia in atomic units:
                           1         2         3
     Eigenvalues --    50.70281 100.43769 139.36251
           X            0.00000   0.00000   1.00000
           Y            1.00000   0.00000   0.00000
           Z            0.00000   1.00000   0.00000
 This molecule is an asymmetric top.
 Rotational symmetry number  2.
 Rotational temperatures (Kelvin)      1.70826     0.86236     0.62150
 Rotational constants (GHZ):          35.59450    17.96876    12.94998
 Zero-point vibrational energy      51280.2 (Joules/Mol)
                                   12.25626 (Kcal/Mol)
 Warning -- explicit consideration of   3 degrees of freedom as
           vibrations may cause significant error
 Vibrational temperatures:    539.06   721.22   858.47  1048.88  1090.79
          (Kelvin)           1406.52  1510.32  2396.38  2763.52
 
 Zero-point correction=                           0.019532 (Hartree/Particle)
 Thermal correction to Energy=                    0.023351
 Thermal correction to Enthalpy=                  0.024295
 Thermal correction to Gibbs Free Energy=        -0.005295
 Sum of electronic and zero-point Energies=           -113.164364
 Sum of electronic and thermal Energies=              -113.160545
 Sum of electronic and thermal Enthalpies=            -113.159600
 Sum of electronic and thermal Free Energies=         -113.189190
 
                     E (Thermal)             CV                S
                      KCal/Mol        Cal/Mol-Kelvin    Cal/Mol-Kelvin
 Total                   14.653             12.055             62.277
 Electronic               0.000              0.000              2.755
 Translational            0.889              2.981             36.835
 Rotational               0.889              2.981             19.812
 Vibrational             12.875              6.093              2.875
 Vibration     1          0.746              1.524              1.061
 Vibration     2          0.857              1.247              0.655
 Vibration     3          0.955              1.039              0.455
                       Q            Log10(Q)             Ln(Q)
 Total Bot       0.272613D+03          2.435546          5.608052
 Total V=0       0.262685D+12         11.419435         26.294221
 Vib (Bot)       0.155143D-08         -8.809267        -20.284086
 Vib (Bot)    1  0.484371D+00         -0.314822         -0.724904
 Vib (Bot)    2  0.327503D+00         -0.484785         -1.116258
 Vib (Bot)    3  0.251112D+00         -0.600132         -1.381856
 Vib (V=0)       0.149494D+01          0.174622          0.402083
 Vib (V=0)    1  0.119614D+01          0.077783          0.179102
 Vib (V=0)    2  0.109771D+01          0.040488          0.093227
 Vib (V=0)    3  0.105952D+01          0.025107          0.057811
 Electronic      0.400000D+01          0.602060          1.386294
 Translational   0.921295D+07          6.964399         16.036121
 Rotational      0.476819D+04          3.678354          8.469723
 
                                                              b3lyp opt
                                                             IR Spectrum
 
     1                1                                        1                                                                     
     9                6                                        0    9             7 7        5     5        3                        
     2                6                                        5    7             5 2        9     0        7                        
     1                6                                        0    8             8 9        7     1        5                        
 
     X                X                                        X    X               X        X     X        X                        
     X                X                                             X                        X     X                                 
     X                X                                             X                        X                                       
     X                X                                                                      X                                       
     X                X                                                                      X                                       
     X                X                                                                                                              
     X                X                                                                                                              
     X                X                                                                                                              
     X                X                                                                                                              
     X                X                                                                                                              
     X                X                                                                                                              
     X                X                                                                                                              
     X                X                                                                                                              
     X                X                                                                                                              
     X                X                                                                                                              
     X                                                                                                                               
     X                                                                                                                               
     X                                                                                                                               
     X                                                                                                                               
     X                                                                                                                               
 
 ***** Axes restored to original set *****
 -------------------------------------------------------------------
 Center     Atomic                   Forces (Hartrees/Bohr)
 Number     Number              X              Y              Z
 -------------------------------------------------------------------
      1        6          -0.000000005   -0.000110047   -0.000000022
      2        6          -0.000139406    0.000058019    0.000000036
      3        6           0.000139411    0.000058005   -0.000000013
      4        1          -0.000000001   -0.000002987   -0.000007081
      5        1           0.000000001   -0.000002990    0.000007080
 -------------------------------------------------------------------
 Cartesian Forces:  Max     0.000139411 RMS     0.000062091
 Z-matrix is all fixed cartesians, so copy forces.
 Force constants in Cartesian coordinates: 
                1             2             3             4             5 
      1  0.203474D+00
      2  0.404894D-05  0.287492D+00
      3 -0.159035D-04  0.343016D-04  0.112523D+00
      4 -0.718556D-01  0.532156D-01  0.215866D-04  0.111221D+00
      5  0.449919D-01 -0.112288D+00 -0.282992D-04 -0.813083D-01  0.110670D+00
      6  0.199747D-04 -0.297268D-04 -0.810268D-02 -0.332674D-04  0.335327D-04
      7 -0.718651D-01 -0.532195D-01  0.000000D+00 -0.419570D-01  0.168082D-01
      8 -0.449958D-01 -0.112279D+00 -0.125481D-04 -0.168009D-01  0.331161D-01
      9  0.233660D-05 -0.111216D-04 -0.810268D-02  0.348527D-05  0.417699D-05
     10 -0.298767D-01  0.111298D-04 -0.145700D-05  0.129271D-02  0.975507D-02
     11  0.621862D-05 -0.314822D-01  0.360113D-01  0.224495D-01 -0.157491D-01
     12  0.000000D+00  0.640876D-01 -0.481392D-01 -0.865527D-02 -0.458200D-02
     13 -0.298767D-01 -0.112810D-04 -0.493516D-05  0.129884D-02  0.975319D-02
     14 -0.637026D-05 -0.314430D-01 -0.360047D-01  0.224442D-01 -0.157487D-01
     15 -0.628707D-05 -0.640810D-01 -0.481785D-01  0.866346D-02  0.457259D-02
                6             7             8             9            10 
      6  0.121286D-01
      7  0.100743D-04  0.111237D+00
      8  0.100346D-04  0.813083D-01  0.110654D+00
      9 -0.313191D-02 -0.138926D-05  0.510213D-05  0.121286D-01
     10 -0.888357D-02  0.129574D-02 -0.975832D-02  0.888348D-02  0.239624D-01
     11  0.545087D-02 -0.224492D-01 -0.157460D-01  0.545786D-02 -0.718750D-05
     12 -0.443772D-03  0.865422D-02 -0.457942D-02 -0.449904D-03  0.547624D-05
     13  0.888678D-02  0.128960D-02 -0.975323D-02 -0.888792D-02  0.332580D-02
     14 -0.546471D-02 -0.224477D-01 -0.157456D-01 -0.545601D-02  0.000000D+00
     15 -0.450251D-03 -0.866363D-02  0.457683D-02 -0.444115D-03 -0.393511D-05
               11            12            13            14            15 
     11  0.595613D-01
     12 -0.509277D-01  0.693181D-01
     13  0.000000D+00 -0.432102D-05  0.239624D-01
     14  0.341590D-02 -0.399842D-02  0.106168D-04  0.595214D-01
     15  0.400771D-02 -0.202852D-01  0.103926D-04  0.509239D-01  0.693580D-01
 Leave Link  716 at Tue Jul 19 04:25:37 2016, MaxMem=    33554432 cpu:         0.1
 (Enter /home/proyectos/fulerenos/M3C-v2.0/M3C-deps_CCC/g09-AM64L-G09RevC.01/l103.exe)

 GradGradGradGradGradGradGradGradGradGradGradGradGradGradGradGradGradGrad
 Berny optimization.
 Search for a local minimum.
 Step number   1 out of a maximum of    2
 All quantities printed in internal units (Hartrees-Bohrs-Radians)
 Second derivative matrix not updated -- analytic derivatives used.
 The second derivative matrix:
                          X1        Y1        Z1        X2        Y2
           X1           0.20347
           Y1           0.00000   0.28749
           Z1          -0.00002   0.00003   0.11252
           X2          -0.07186   0.05322   0.00002   0.11122
           Y2           0.04499  -0.11229  -0.00003  -0.08131   0.11067
           Z2           0.00002  -0.00003  -0.00810  -0.00003   0.00003
           X3          -0.07187  -0.05322   0.00000  -0.04196   0.01681
           Y3          -0.04500  -0.11228  -0.00001  -0.01680   0.03312
           Z3           0.00000  -0.00001  -0.00810   0.00000   0.00000
           X4          -0.02988   0.00001  -0.00000   0.00129   0.00976
           Y4           0.00001  -0.03148   0.03601   0.02245  -0.01575
           Z4          -0.00000   0.06409  -0.04814  -0.00866  -0.00458
           X5          -0.02988  -0.00001  -0.00000   0.00130   0.00975
           Y5          -0.00001  -0.03144  -0.03600   0.02244  -0.01575
           Z5          -0.00001  -0.06408  -0.04818   0.00866   0.00457
                          Z2        X3        Y3        Z3        X4
           Z2           0.01213
           X3           0.00001   0.11124
           Y3           0.00001   0.08131   0.11065
           Z3          -0.00313  -0.00000   0.00001   0.01213
           X4          -0.00888   0.00130  -0.00976   0.00888   0.02396
           Y4           0.00545  -0.02245  -0.01575   0.00546  -0.00001
           Z4          -0.00044   0.00865  -0.00458  -0.00045   0.00001
           X5           0.00889   0.00129  -0.00975  -0.00889   0.00333
           Y5          -0.00546  -0.02245  -0.01575  -0.00546  -0.00000
           Z5          -0.00045  -0.00866   0.00458  -0.00044  -0.00000
                          Y4        Z4        X5        Y5        Z5
           Y4           0.05956
           Z4          -0.05093   0.06932
           X5           0.00000  -0.00000   0.02396
           Y5           0.00342  -0.00400   0.00001   0.05952
           Z5           0.00401  -0.02029   0.00001   0.05092   0.06936
 ITU=  0
     Eigenvalues ---    0.01814   0.03117   0.03295   0.05031   0.06750
     Eigenvalues ---    0.17429   0.20411   0.29448   0.45125
 Angle between quadratic step and forces=  54.25 degrees.
 ClnCor:  largest displacement from symmetrization is 1.76D-10 for atom     5.
 Linear search not attempted -- first point.
 ClnCor:  largest displacement from symmetrization is 1.40D-15 for atom     5.
 B after Tr=    -0.000000   -0.000216   -0.000000
         Rot=    1.000000   -0.000000   -0.000000    0.000000 Ang=   0.00 deg.
 Variable       Old X    -DE/DX   Delta X   Delta X   Delta X     New X
                                 (Linear)    (Quad)   (Total)
    X1       -0.00004  -0.00000   0.00000  -0.00000  -0.00000  -0.00004
    Y1       -0.98397  -0.00011   0.00000  -0.00005  -0.00026  -0.98424
    Z1       -0.00015  -0.00000   0.00000  -0.00000  -0.00000  -0.00015
    X2       -1.98477  -0.00014   0.00000  -0.00136  -0.00136  -1.98613
    Y2        0.92272   0.00006   0.00000  -0.00035  -0.00056   0.92216
    Z2        0.00057   0.00000   0.00000   0.00000   0.00000   0.00057
    X3        1.98488   0.00014   0.00000   0.00136   0.00136   1.98624
    Y3        0.92253   0.00006   0.00000  -0.00035  -0.00056   0.92197
    Z3       -0.00012  -0.00000   0.00000  -0.00000  -0.00000  -0.00012
    X4        0.00018  -0.00000   0.00000   0.00000   0.00000   0.00018
    Y4       -2.58419  -0.00000   0.00000   0.00091   0.00070  -2.58349
    Z4        1.70882  -0.00001   0.00000   0.00022   0.00022   1.70903
    X5       -0.00041   0.00000   0.00000   0.00000  -0.00000  -0.00041
    Y5       -2.58352  -0.00000   0.00000   0.00091   0.00070  -2.58282
    Z5       -1.70974   0.00001   0.00000  -0.00022  -0.00022  -1.70996
         Item               Value     Threshold  Converged?
 Maximum Force            0.000139     0.000450     YES
 RMS     Force            0.000062     0.000300     YES
 Maximum Displacement     0.001359     0.001800     YES
 RMS     Displacement     0.000604     0.001200     YES
 Predicted change in Energy=-1.676802D-07
 Optimization completed.
    -- Stationary point found.
 GradGradGradGradGradGradGradGradGradGradGradGradGradGradGradGradGradGrad

 Leave Link  103 at Tue Jul 19 04:25:37 2016, MaxMem=    33554432 cpu:         0.1
 (Enter /home/proyectos/fulerenos/M3C-v2.0/M3C-deps_CCC/g09-AM64L-G09RevC.01/l9999.exe)
 1\1\GINC-EINSTENIO\Freq\UB3LYP\6-311++G(3df,2p)\C3H2(3+,4)\ROOT\19-Jul
 -2016\0\\#p b3lyp/6-311++G(3df,2p) freq symmetry=Loose\\b3lyp opt\\3,4
 \C,-0.0000202982,-0.520695955,-0.0000781067\C,-1.050295608,0.488284614
 ,0.000303317\C,1.050352345,0.4881833592,-0.000063947\H,0.0000969948,-1
 .367492927,0.904267625\H,-0.0002192663,-1.367138269,-0.9047557826\\Ver
 sion=EM64L-G09RevE.01\State=4-B2\HF=-113.1838953\S2=3.76389\S2-1=0.\S2
 A=3.750061\RMSD=7.965e-09\RMSF=6.209e-05\ZeroPoint=0.0195316\Thermal=0
 .0233507\Dipole=-0.0000196,-0.4073564,-0.0000799\DipoleDeriv=0.1931619
 ,-0.0000403,-0.000101,-0.0000402,-0.642115,-0.0000505,-0.0001009,-0.00
 00505,-0.3845327,1.0836779,-0.3398776,-0.0000838,-0.1421452,0.9615204,
 0.0000202,-0.000045,0.0000547,0.985399,1.0837244,0.3398658,0.0000494,0
 .1421334,0.9614739,-0.0000295,0.0000106,-0.0000641,0.985399,0.3197179,
 -0.0000379,0.0000529,-0.0000276,0.8596922,-0.3067777,0.0000501,-0.3657
 568,0.7067355,0.3197179,0.00009,0.0000825,0.0000797,0.8594285,0.306837
 5,0.0000853,0.3658166,0.7069992\Polar=29.2159871,-0.0003037,22.9109103
 ,-0.0022137,0.0012467,16.5529682\PG=C02V [C2(C1),SGV(C2),SGV'(H2)]\NIm
 ag=0\\0.20347399,0.00000405,0.28749237,-0.00001590,0.00003430,0.112523
 03,-0.07185558,0.05321564,0.00002159,0.11122104,0.04499189,-0.11228832
 ,-0.00002830,-0.08130833,0.11066995,0.00001997,-0.00002973,-0.00810268
 ,-0.00003327,0.00003353,0.01212862,-0.07186506,-0.05321954,0.00000072,
 -0.04195700,0.01680816,0.00001007,0.11123673,-0.04499579,-0.11227885,-
 0.00001255,-0.01680092,0.03311614,0.00001003,0.08130828,0.11065428,0.0
 0000234,-0.00001112,-0.00810268,0.00000349,0.00000418,-0.00313191,-0.0
 0000139,0.00000510,0.01212861,-0.02987668,0.00001113,-0.00000146,0.001
 29271,0.00975507,-0.00888357,0.00129574,-0.00975832,0.00888348,0.02396
 243,0.00000622,-0.03148222,0.03601129,0.02244946,-0.01574906,0.0054508
 7,-0.02244919,-0.01574595,0.00545786,-0.00000719,0.05956134,-0.0000001
 0,0.06408756,-0.04813921,-0.00865527,-0.00458200,-0.00044377,0.0086542
 2,-0.00457942,-0.00044990,0.00000548,-0.05092772,0.06931811,-0.0298766
 8,-0.00001128,-0.00000494,0.00129884,0.00975319,0.00888678,0.00128960,
 -0.00975323,-0.00888792,0.00332580,0.00000070,-0.00000432,0.02396243,-
 0.00000637,-0.03144298,-0.03600474,0.02244416,-0.01574871,-0.00546471,
 -0.02244771,-0.01574561,-0.00545601,-0.00000069,0.00341590,-0.00399842
 ,0.00001062,0.05952140,-0.00000629,-0.06408101,-0.04817846,0.00866346,
 0.00457259,-0.00045025,-0.00866363,0.00457683,-0.00044411,-0.00000394,
 0.00400771,-0.02028522,0.00001039,0.05092388,0.06935804\\0.,0.00011005
 ,0.00000002,0.00013941,-0.00005802,-0.00000004,-0.00013941,-0.00005801
 ,0.00000001,0.,0.00000299,0.00000708,0.,0.00000299,-0.00000708\\\@


 STEINBACH'S GUIDELINES FOR SYSTEMS PROGRAMMING:
 NEVER TEST FOR AN ERROR CONDITION YOU DON'T KNOW HOW
 TO HANDLE.
 Job cpu time:       0 days  0 hours  6 minutes 11.1 seconds.
 File lengths (MBytes):  RWF=     20 Int=      0 D2E=      0 Chk=      3 Scr=      1
 Normal termination of Gaussian 09 at Tue Jul 19 04:25:37 2016.
