 Entering Gaussian System, Link 0=/home/proyectos/fulerenos/M3C-v2.0/M3C-deps_CCC/g09-AM64L-G09RevC.01/g09
 Initial command:
 /home/proyectos/fulerenos/M3C-v2.0/M3C-deps_CCC/g09-AM64L-G09RevC.01/l1.exe "/scratch/naguirre/gaussian/Gau-12859.inp" -scrdir="/scratch/naguirre/gaussian/"
 Entering Link 1 = /home/proyectos/fulerenos/M3C-v2.0/M3C-deps_CCC/g09-AM64L-G09RevC.01/l1.exe PID=     12863.
  
 Copyright (c) 1988,1990,1992,1993,1995,1998,2003,2009,2015,
            Gaussian, Inc.  All Rights Reserved.
  
 This is part of the Gaussian(R) 09 program.  It is based on
 the Gaussian(R) 03 system (copyright 2003, Gaussian, Inc.),
 the Gaussian(R) 98 system (copyright 1998, Gaussian, Inc.),
 the Gaussian(R) 94 system (copyright 1995, Gaussian, Inc.),
 the Gaussian 92(TM) system (copyright 1992, Gaussian, Inc.),
 the Gaussian 90(TM) system (copyright 1990, Gaussian, Inc.),
 the Gaussian 88(TM) system (copyright 1988, Gaussian, Inc.),
 the Gaussian 86(TM) system (copyright 1986, Carnegie Mellon
 University), and the Gaussian 82(TM) system (copyright 1983,
 Carnegie Mellon University). Gaussian is a federally registered
 trademark of Gaussian, Inc.
  
 This software contains proprietary and confidential information,
 including trade secrets, belonging to Gaussian, Inc.
  
 This software is provided under written license and may be
 used, copied, transmitted, or stored only in accord with that
 written license.
  
 The following legend is applicable only to US Government
 contracts under FAR:
  
                    RESTRICTED RIGHTS LEGEND
  
 Use, reproduction and disclosure by the US Government is
 subject to restrictions as set forth in subparagraphs (a)
 and (c) of the Commercial Computer Software - Restricted
 Rights clause in FAR 52.227-19.
  
 Gaussian, Inc.
 340 Quinnipiac St., Bldg. 40, Wallingford CT 06492
  
  
 ---------------------------------------------------------------
 Warning -- This program may not be used in any manner that
 competes with the business of Gaussian, Inc. or will provide
 assistance to any competitor of Gaussian, Inc.  The licensee
 of this program is prohibited from giving any competitor of
 Gaussian, Inc. access to this program.  By using this program,
 the user acknowledges that Gaussian, Inc. is engaged in the
 business of creating and licensing software in the field of
 computational chemistry and represents and warrants to the
 licensee that it is not a competitor of Gaussian, Inc. and that
 it will not use this program in any manner prohibited above.
 ---------------------------------------------------------------
  

 Cite this work as:
 Gaussian 09, Revision E.01,
 M. J. Frisch, G. W. Trucks, H. B. Schlegel, G. E. Scuseria, 
 M. A. Robb, J. R. Cheeseman, G. Scalmani, V. Barone, B. Mennucci, 
 G. A. Petersson, H. Nakatsuji, M. Caricato, X. Li, H. P. Hratchian, 
 A. F. Izmaylov, J. Bloino, G. Zheng, J. L. Sonnenberg, M. Hada, 
 M. Ehara, K. Toyota, R. Fukuda, J. Hasegawa, M. Ishida, T. Nakajima, 
 Y. Honda, O. Kitao, H. Nakai, T. Vreven, J. A. Montgomery, Jr., 
 J. E. Peralta, F. Ogliaro, M. Bearpark, J. J. Heyd, E. Brothers, 
 K. N. Kudin, V. N. Staroverov, T. Keith, R. Kobayashi, J. Normand, 
 K. Raghavachari, A. Rendell, J. C. Burant, S. S. Iyengar, J. Tomasi, 
 M. Cossi, N. Rega, J. M. Millam, M. Klene, J. E. Knox, J. B. Cross, 
 V. Bakken, C. Adamo, J. Jaramillo, R. Gomperts, R. E. Stratmann, 
 O. Yazyev, A. J. Austin, R. Cammi, C. Pomelli, J. W. Ochterski, 
 R. L. Martin, K. Morokuma, V. G. Zakrzewski, G. A. Voth, 
 P. Salvador, J. J. Dannenberg, S. Dapprich, A. D. Daniels, 
 O. Farkas, J. B. Foresman, J. V. Ortiz, J. Cioslowski, 
 and D. J. Fox, Gaussian, Inc., Wallingford CT, 2013.
 
 ******************************************
 Gaussian 09:  EM64L-G09RevE.01 30-Nov-2015
                19-Jul-2016 
 ******************************************
 %NProcShared=1
 Will use up to    1 processors via shared memory.
 ---------------------------------------------
 #p b3lyp/6-311++G(3df,2p) freq symmetry=Loose
 ---------------------------------------------
 1/10=4,30=1,38=1/1,3;
 2/12=2,17=4,18=3,40=1/2;
 3/5=4,6=6,7=1216,11=2,16=1,25=1,30=1,71=2,74=-5,140=1/1,2,3;
 4//1;
 5/5=2,38=5,98=1/2;
 8/6=4,10=90,11=11/1;
 11/6=1,8=1,9=11,15=111,16=1/1,2,10;
 10/6=1/2;
 6/7=2,8=2,9=2,10=2,18=1,28=1/1;
 7/8=1,10=1,25=1/1,2,3,16;
 1/10=4,30=1/3;
 99//99;
 Leave Link    1 at Tue Jul 19 04:08:54 2016, MaxMem=           0 cpu:         0.1
 (Enter /home/proyectos/fulerenos/M3C-v2.0/M3C-deps_CCC/g09-AM64L-G09RevC.01/l101.exe)
 ---------
 b3lyp opt
 ---------
 Symbolic Z-matrix:
 Charge =  3 Multiplicity = 2
 C                    -1.26077  -0.43782  -0.00049 
 C                    -0.15077   0.34731  -0.00003 
 C                     1.51201  -0.26048   0.00043 
 H                    -0.30109   1.0531   -0.97817 
 H                    -0.30172   1.05285   0.97819 
 
 NAtoms=      5 NQM=        5 NQMF=       0 NMMI=      0 NMMIF=      0
                NMic=       0 NMicF=      0.
                    Isotopes and Nuclear Properties:
 (Nuclear quadrupole moments (NQMom) in fm**2, nuclear magnetic moments (NMagM)
  in nuclear magnetons)

  Atom         1           2           3           4           5
 IAtWgt=          12          12          12           1           1
 AtmWgt=  12.0000000  12.0000000  12.0000000   1.0078250   1.0078250
 NucSpn=           0           0           0           1           1
 AtZEff=   0.0000000   0.0000000   0.0000000   0.0000000   0.0000000
 NQMom=    0.0000000   0.0000000   0.0000000   0.0000000   0.0000000
 NMagM=    0.0000000   0.0000000   0.0000000   2.7928460   2.7928460
 AtZNuc=   6.0000000   6.0000000   6.0000000   1.0000000   1.0000000
 Leave Link  101 at Tue Jul 19 04:08:54 2016, MaxMem=    33554432 cpu:         0.3
 (Enter /home/proyectos/fulerenos/M3C-v2.0/M3C-deps_CCC/g09-AM64L-G09RevC.01/l103.exe)

 GradGradGradGradGradGradGradGradGradGradGradGradGradGradGradGradGradGrad
 Berny optimization.
 Initialization pass.
 Trust Radius=3.00D-01 FncErr=1.00D-07 GrdErr=1.00D-07
 Number of steps in this run=      2 maximum allowed number of steps=      2.
 GradGradGradGradGradGradGradGradGradGradGradGradGradGradGradGradGradGrad

 Leave Link  103 at Tue Jul 19 04:08:54 2016, MaxMem=    33554432 cpu:         0.1
 (Enter /home/proyectos/fulerenos/M3C-v2.0/M3C-deps_CCC/g09-AM64L-G09RevC.01/l202.exe)
                          Input orientation:                          
 ---------------------------------------------------------------------
 Center     Atomic      Atomic             Coordinates (Angstroms)
 Number     Number       Type             X           Y           Z
 ---------------------------------------------------------------------
      1          6           0       -1.260771   -0.437824   -0.000487
      2          6           0       -0.150767    0.347308   -0.000029
      3          6           0        1.512008   -0.260475    0.000427
      4          1           0       -0.301094    1.053099   -0.978165
      5          1           0       -0.301723    1.052847    0.978193
 ---------------------------------------------------------------------
                    Distance matrix (angstroms):
                    1          2          3          4          5
     1  C    0.000000
     2  C    1.359611   0.000000
     3  C    2.778445   1.770373   0.000000
     4  H    2.024768   1.215520   2.443452   0.000000
     5  H    2.024768   1.215520   2.443452   1.956358   0.000000
 Stoichiometry    C3H2(3+,2)
 Framework group  CS[SG(C3),X(H2)]
 Deg. of freedom     6
 Full point group                 CS      NOp   2
 Largest Abelian subgroup         CS      NOp   2
 Largest concise Abelian subgroup CS      NOp   2
                         Standard orientation:                         
 ---------------------------------------------------------------------
 Center     Atomic      Atomic             Coordinates (Angstroms)
 Number     Number       Type             X           Y           Z
 ---------------------------------------------------------------------
      1          6           0        1.330845    0.100425   -0.000000
      2          6           0        0.000000    0.378621   -0.000000
      3          6           0       -1.283241   -0.841016    0.000000
      4          1           0       -0.142813    1.085911    0.978179
      5          1           0       -0.142813    1.085911   -0.978179
 ---------------------------------------------------------------------
 Rotational constants (GHZ):     58.7672433     10.3360996      9.4222190
 Leave Link  202 at Tue Jul 19 04:08:54 2016, MaxMem=    33554432 cpu:         0.0
 (Enter /home/proyectos/fulerenos/M3C-v2.0/M3C-deps_CCC/g09-AM64L-G09RevC.01/l301.exe)
 Standard basis: 6-311++G(3df,2p) (5D, 7F)
 Ernie: Thresh=  0.10000D-02 Tol=  0.10000D-05 Strict=F.
 There are   103 symmetry adapted cartesian basis functions of A'  symmetry.
 There are    52 symmetry adapted cartesian basis functions of A"  symmetry.
 There are    88 symmetry adapted basis functions of A'  symmetry.
 There are    49 symmetry adapted basis functions of A"  symmetry.
   137 basis functions,   198 primitive gaussians,   155 cartesian basis functions
     9 alpha electrons        8 beta electrons
       nuclear repulsion energy        42.8585457033 Hartrees.
 IExCor=  402 DFT=T Ex+Corr=B3LYP ExCW=0 ScaHFX=  0.200000
 ScaDFX=  0.800000  0.720000  1.000000  0.810000 ScalE2=  1.000000  1.000000
 IRadAn=      0 IRanWt=     -1 IRanGd=            0 ICorTp=0 IEmpDi=  4
 NAtoms=    5 NActive=    5 NUniq=    4 SFac= 1.56D+00 NAtFMM=   60 NAOKFM=F Big=F
 Integral buffers will be    131072 words long.
 Raffenetti 2 integral format.
 Two-electron integral symmetry is turned on.
 Leave Link  301 at Tue Jul 19 04:08:55 2016, MaxMem=    33554432 cpu:         0.3
 (Enter /home/proyectos/fulerenos/M3C-v2.0/M3C-deps_CCC/g09-AM64L-G09RevC.01/l302.exe)
 NPDir=0 NMtPBC=     1 NCelOv=     1 NCel=       1 NClECP=     1 NCelD=      1
         NCelK=      1 NCelE2=     1 NClLst=     1 CellRange=     0.0.
 One-electron integrals computed using PRISM.
 One-electron integral symmetry used in STVInt
 NBasis=   137 RedAO= T EigKep=  9.02D-05  NBF=    88    49
 NBsUse=   137 1.00D-06 EigRej= -1.00D+00 NBFU=    88    49
 Precomputing XC quadrature grid using
 IXCGrd= 4 IRadAn=           0 IRanWt=          -1 IRanGd=           0 AccXCQ= 0.00D+00.
 Generated NRdTot=       0 NPtTot=           0 NUsed=           0 NTot=          32
 NSgBfM=   155   155   155   155   155 MxSgAt=     5 MxSgA2=     5.
 Leave Link  302 at Tue Jul 19 04:08:55 2016, MaxMem=    33554432 cpu:         0.4
 (Enter /home/proyectos/fulerenos/M3C-v2.0/M3C-deps_CCC/g09-AM64L-G09RevC.01/l303.exe)
 DipDrv:  MaxL=1.
 Leave Link  303 at Tue Jul 19 04:08:55 2016, MaxMem=    33554432 cpu:         0.1
 (Enter /home/proyectos/fulerenos/M3C-v2.0/M3C-deps_CCC/g09-AM64L-G09RevC.01/l401.exe)
 ExpMin= 3.60D-02 ExpMax= 4.56D+03 ExpMxC= 6.82D+02 IAcc=3 IRadAn=         5 AccDes= 0.00D+00
 Harris functional with IExCor=  402 and IRadAn=       5 diagonalized for initial guess.
 HarFok:  IExCor=  402 AccDes= 0.00D+00 IRadAn=         5 IDoV= 1 UseB2=F ITyADJ=14
 ICtDFT=  3500011 ScaDFX=  1.000000  1.000000  1.000000  1.000000
 FoFCou: FMM=F IPFlag=           0 FMFlag=      100000 FMFlg1=           0
         NFxFlg=           0 DoJE=T BraDBF=F KetDBF=T FulRan=T
         wScrn=  0.000000 ICntrl=     500 IOpCl=  0 I1Cent=   200000004 NGrid=           0
         NMat0=    1 NMatS0=      1 NMatT0=    0 NMatD0=    1 NMtDS0=    0 NMtDT0=    0
 Petite list used in FoFCou.
 Harris En= -114.401890087468    
 JPrj=0 DoOrth=F DoCkMO=F.
 Initial guess orbital symmetries:
 Alpha Orbitals:
       Occupied  (A') (A') (A') (A') (A') (A') (A") (A') (A')
       Virtual   (A") (A') (A') (A") (A') (A") (A') (A') (A') (A')
                 (A') (A") (A") (A') (A') (A") (A') (A') (A") (A')
                 (A') (A') (A") (A') (A") (A') (A") (A') (A') (A')
                 (A") (A') (A") (A') (A') (A') (A') (A") (A") (A')
                 (A') (A") (A") (A') (A') (A') (A") (A') (A') (A")
                 (A') (A") (A') (A") (A') (A') (A') (A") (A') (A')
                 (A") (A') (A") (A') (A") (A') (A') (A') (A") (A")
                 (A') (A') (A") (A') (A') (A") (A') (A') (A") (A")
                 (A') (A') (A") (A') (A") (A') (A") (A') (A") (A')
                 (A") (A') (A") (A') (A") (A') (A') (A') (A") (A')
                 (A') (A') (A") (A') (A") (A') (A") (A') (A") (A')
                 (A") (A') (A') (A") (A') (A") (A') (A") (A') (A')
                 (A') (A") (A") (A') (A') (A') (A') (A')
 Beta  Orbitals:
       Occupied  (A') (A') (A') (A') (A') (A') (A") (A')
       Virtual   (A') (A") (A') (A') (A") (A') (A") (A') (A') (A')
                 (A') (A') (A") (A") (A') (A') (A") (A') (A') (A")
                 (A') (A') (A') (A") (A') (A") (A') (A") (A') (A')
                 (A') (A") (A') (A") (A') (A') (A') (A') (A") (A")
                 (A') (A') (A") (A") (A') (A') (A') (A") (A') (A')
                 (A") (A') (A") (A') (A") (A') (A') (A') (A") (A')
                 (A') (A") (A') (A") (A') (A") (A') (A') (A') (A")
                 (A") (A') (A') (A") (A') (A') (A") (A') (A') (A")
                 (A") (A') (A') (A") (A') (A") (A') (A") (A') (A")
                 (A') (A") (A') (A") (A') (A") (A') (A') (A') (A")
                 (A') (A') (A') (A") (A') (A") (A') (A") (A') (A")
                 (A') (A") (A') (A') (A") (A') (A") (A') (A") (A')
                 (A') (A') (A") (A") (A') (A') (A') (A') (A')
 The electronic state of the initial guess is 2-A'.
 Initial guess <Sx>= 0.0000 <Sy>= 0.0000 <Sz>= 0.5000 <S**2>= 0.7500 S= 0.5000
 Leave Link  401 at Tue Jul 19 04:08:57 2016, MaxMem=    33554432 cpu:         2.0
 (Enter /home/proyectos/fulerenos/M3C-v2.0/M3C-deps_CCC/g09-AM64L-G09RevC.01/l502.exe)
 UHF open shell SCF:
 Using DIIS extrapolation, IDIIS=  1040.
 Integral symmetry usage will be decided dynamically.
 IVT=       92851 IEndB=       92851 NGot=    33554432 MDV=    33502402
 LenX=    33502402 LenY=    33477936
 Requested convergence on RMS density matrix=1.00D-08 within 128 cycles.
 Requested convergence on MAX density matrix=1.00D-06.
 Requested convergence on             energy=1.00D-06.
 No special actions if energy rises.
 Fock matrices will be formed incrementally for  20 cycles.

 Cycle   1  Pass 1  IDiag  1:
 FoFJK:  IHMeth= 1 ICntrl=       0 DoSepK=F KAlg= 0 I1Cent=   0 FoldK=F
 IRaf= 990000000 NMat=   1 IRICut=       1 DoRegI=T DoRafI=F ISym2E= 1.
 FoFCou: FMM=F IPFlag=           0 FMFlag=      100000 FMFlg1=           0
         NFxFlg=           0 DoJE=F BraDBF=F KetDBF=F FulRan=T
         wScrn=  0.000000 ICntrl=       0 IOpCl=  1 I1Cent=           0 NGrid=           0
         NMat0=    1 NMatS0=      1 NMatT0=    0 NMatD0=    1 NMtDS0=    0 NMtDT0=    0
 Petite list used in FoFCou.
 E= -113.020806761552    
 DIIS: error= 2.60D-02 at cycle   1 NSaved=   1.
 NSaved= 1 IEnMin= 1 EnMin= -113.020806761552     IErMin= 1 ErrMin= 2.60D-02
 ErrMax= 2.60D-02  0.00D+00 EMaxC= 1.00D-01 BMatC= 4.85D-01 BMatP= 4.85D-01
 IDIUse=3 WtCom= 7.40D-01 WtEn= 2.60D-01
 Coeff-Com:  0.100D+01
 Coeff-En:   0.100D+01
 Coeff:      0.100D+01
 Gap=     0.152 Goal=   None    Shift=    0.000
 Gap=     0.094 Goal=   None    Shift=    0.000
 GapD=    0.094 DampG=0.500 DampE=0.500 DampFc=0.2500 IDamp=-1.
 Damping current iteration by 2.50D-01
 RMSDP=8.84D-03 MaxDP=3.84D-01              OVMax= 7.25D-01

 Cycle   2  Pass 1  IDiag  1:
 RMSU=  2.09D-03    CP:  9.57D-01
 E= -112.958060661957     Delta-E=        0.062746099594 Rises=F Damp=T
 DIIS: error= 2.60D-02 at cycle   2 NSaved=   2.
 NSaved= 2 IEnMin= 1 EnMin= -113.020806761552     IErMin= 2 ErrMin= 2.60D-02
 ErrMax= 2.60D-02  0.00D+00 EMaxC= 1.00D-01 BMatC= 2.08D-01 BMatP= 4.85D-01
 IDIUse=3 WtCom= 7.40D-01 WtEn= 2.60D-01
 Coeff-Com:  0.201D+00 0.799D+00
 Coeff-En:   0.667D+00 0.333D+00
 Coeff:      0.322D+00 0.678D+00
 Gap=    -0.033 Goal=   None    Shift=    0.000
 Gap=     0.043 Goal=   None    Shift=    0.000
 RMSDP=5.99D-03 MaxDP=2.38D-01 DE= 6.27D-02 OVMax= 8.08D-01

 Cycle   3  Pass 1  IDiag  1:
 RMSU=  5.43D-03    CP:  1.10D+00  6.38D-01
 E= -113.021677965069     Delta-E=       -0.063617303112 Rises=F Damp=F
 DIIS: error= 6.21D-02 at cycle   3 NSaved=   3.
 NSaved= 3 IEnMin= 3 EnMin= -113.021677965069     IErMin= 2 ErrMin= 2.60D-02
 ErrMax= 6.21D-02  0.00D+00 EMaxC= 1.00D-01 BMatC= 5.65D-01 BMatP= 2.08D-01
 IDIUse=2 WtCom= 0.00D+00 WtEn= 1.00D+00
 EnCoef did     1 forward-backward iterations
 Coeff-En:   0.865D-01 0.374D+00 0.540D+00
 Coeff:      0.865D-01 0.374D+00 0.540D+00
 Gap=     0.271 Goal=   None    Shift=    0.000
 Gap=     0.070 Goal=   None    Shift=    0.000
 RMSDP=8.87D-03 MaxDP=4.53D-01 DE=-6.36D-02 OVMax= 6.58D-01

 Cycle   4  Pass 1  IDiag  1:
 RMSU=  4.14D-03    CP:  8.80D-01  2.84D+00  4.94D-02
 E= -112.714580674526     Delta-E=        0.307097290543 Rises=F Damp=F
 DIIS: error= 7.60D-02 at cycle   4 NSaved=   4.
 NSaved= 4 IEnMin= 3 EnMin= -113.021677965069     IErMin= 2 ErrMin= 2.60D-02
 ErrMax= 7.60D-02  0.00D+00 EMaxC= 1.00D-01 BMatC= 1.33D+00 BMatP= 2.08D-01
 IDIUse=2 WtCom= 0.00D+00 WtEn= 1.00D+00
 Coeff-En:   0.000D+00 0.000D+00 0.648D+00 0.352D+00
 Coeff:      0.000D+00 0.000D+00 0.648D+00 0.352D+00
 Gap=     0.053 Goal=   None    Shift=    0.000
 Gap=     0.160 Goal=   None    Shift=    0.000
 RMSDP=5.97D-03 MaxDP=3.61D-01 DE= 3.07D-01 OVMax= 5.62D-01

 Cycle   5  Pass 1  IDiag  1:
 RMSU=  3.51D-03    CP:  1.09D+00  1.66D+00  3.35D-01  6.10D-01
 E= -113.210578197807     Delta-E=       -0.495997523280 Rises=F Damp=F
 DIIS: error= 1.35D-02 at cycle   5 NSaved=   5.
 NSaved= 5 IEnMin= 5 EnMin= -113.210578197807     IErMin= 5 ErrMin= 1.35D-02
 ErrMax= 1.35D-02  0.00D+00 EMaxC= 1.00D-01 BMatC= 5.52D-02 BMatP= 2.08D-01
 IDIUse=3 WtCom= 8.65D-01 WtEn= 1.35D-01
 Coeff-Com: -0.150D+00 0.193D+00 0.219D+00-0.832D-01 0.821D+00
 Coeff-En:   0.000D+00 0.000D+00 0.117D+00 0.000D+00 0.883D+00
 Coeff:     -0.130D+00 0.167D+00 0.205D+00-0.720D-01 0.830D+00
 Gap=     0.224 Goal=   None    Shift=    0.000
 Gap=     0.120 Goal=   None    Shift=    0.000
 RMSDP=1.64D-03 MaxDP=1.50D-01 DE=-4.96D-01 OVMax= 1.03D-01

 Cycle   6  Pass 1  IDiag  1:
 RMSU=  1.15D-03    CP:  1.06D+00  1.55D+00  4.72D-01  5.13D-01  8.15D-01
 E= -113.231406439867     Delta-E=       -0.020828242060 Rises=F Damp=F
 DIIS: error= 4.45D-03 at cycle   6 NSaved=   6.
 NSaved= 6 IEnMin= 6 EnMin= -113.231406439867     IErMin= 6 ErrMin= 4.45D-03
 ErrMax= 4.45D-03  0.00D+00 EMaxC= 1.00D-01 BMatC= 2.24D-03 BMatP= 5.52D-02
 IDIUse=3 WtCom= 9.56D-01 WtEn= 4.45D-02
 Coeff-Com: -0.554D-01 0.811D-01 0.141D-01-0.156D-01 0.831D-01 0.893D+00
 Coeff-En:   0.000D+00 0.000D+00 0.000D+00 0.000D+00 0.000D+00 0.100D+01
 Coeff:     -0.529D-01 0.775D-01 0.134D-01-0.149D-01 0.794D-01 0.898D+00
 Gap=     0.194 Goal=   None    Shift=    0.000
 Gap=     0.133 Goal=   None    Shift=    0.000
 RMSDP=7.61D-04 MaxDP=3.48D-02 DE=-2.08D-02 OVMax= 6.20D-02

 Cycle   7  Pass 1  IDiag  1:
 RMSU=  3.52D-04    CP:  1.04D+00  1.64D+00  4.23D-01  5.56D-01  8.16D-01
                    CP:  1.34D+00
 E= -113.233324421607     Delta-E=       -0.001917981740 Rises=F Damp=F
 DIIS: error= 2.00D-03 at cycle   7 NSaved=   7.
 NSaved= 7 IEnMin= 7 EnMin= -113.233324421607     IErMin= 7 ErrMin= 2.00D-03
 ErrMax= 2.00D-03  0.00D+00 EMaxC= 1.00D-01 BMatC= 5.27D-04 BMatP= 2.24D-03
 IDIUse=3 WtCom= 9.80D-01 WtEn= 2.00D-02
 Coeff-Com: -0.128D-01 0.238D-01-0.143D-02 0.230D-02-0.779D-01-0.734D-01
 Coeff-Com:  0.114D+01
 Coeff-En:   0.000D+00 0.000D+00 0.000D+00 0.000D+00 0.000D+00 0.000D+00
 Coeff-En:   0.100D+01
 Coeff:     -0.126D-01 0.233D-01-0.140D-02 0.226D-02-0.763D-01-0.720D-01
 Coeff:      0.114D+01
 Gap=     0.192 Goal=   None    Shift=    0.000
 Gap=     0.142 Goal=   None    Shift=    0.000
 RMSDP=5.57D-04 MaxDP=2.30D-02 DE=-1.92D-03 OVMax= 5.09D-02

 Cycle   8  Pass 1  IDiag  1:
 RMSU=  1.41D-04    CP:  1.03D+00  1.71D+00  3.88D-01  5.83D-01  8.21D-01
                    CP:  1.56D+00  1.89D+00
 E= -113.234312941067     Delta-E=       -0.000988519460 Rises=F Damp=F
 DIIS: error= 1.06D-03 at cycle   8 NSaved=   8.
 NSaved= 8 IEnMin= 8 EnMin= -113.234312941067     IErMin= 8 ErrMin= 1.06D-03
 ErrMax= 1.06D-03  0.00D+00 EMaxC= 1.00D-01 BMatC= 2.02D-04 BMatP= 5.27D-04
 IDIUse=3 WtCom= 9.89D-01 WtEn= 1.06D-02
 Coeff-Com: -0.190D-02 0.860D-02 0.144D-01-0.249D-02 0.827D-02-0.248D+00
 Coeff-Com:  0.590D-01 0.116D+01
 Coeff-En:   0.000D+00 0.000D+00 0.000D+00 0.000D+00 0.000D+00 0.000D+00
 Coeff-En:   0.000D+00 0.100D+01
 Coeff:     -0.188D-02 0.851D-02 0.142D-01-0.247D-02 0.818D-02-0.245D+00
 Coeff:      0.584D-01 0.116D+01
 Gap=     0.189 Goal=   None    Shift=    0.000
 Gap=     0.146 Goal=   None    Shift=    0.000
 RMSDP=4.04D-04 MaxDP=1.49D-02 DE=-9.89D-04 OVMax= 3.67D-02

 Cycle   9  Pass 1  IDiag  1:
 RMSU=  6.70D-05    CP:  1.02D+00  1.74D+00  3.64D-01  6.01D-01  8.23D-01
                    CP:  1.69D+00  2.66D+00  1.82D+00
 E= -113.234832218005     Delta-E=       -0.000519276938 Rises=F Damp=F
 DIIS: error= 6.88D-04 at cycle   9 NSaved=   9.
 NSaved= 9 IEnMin= 9 EnMin= -113.234832218005     IErMin= 9 ErrMin= 6.88D-04
 ErrMax= 6.88D-04  0.00D+00 EMaxC= 1.00D-01 BMatC= 7.46D-05 BMatP= 2.02D-04
 IDIUse=3 WtCom= 9.93D-01 WtEn= 6.88D-03
 Coeff-Com:  0.160D-02-0.294D-02 0.114D-01-0.283D-02 0.533D-01 0.803D-02
 Coeff-Com: -0.452D+00-0.372D-01 0.142D+01
 Coeff-En:   0.000D+00 0.000D+00 0.000D+00 0.000D+00 0.000D+00 0.000D+00
 Coeff-En:   0.000D+00 0.000D+00 0.100D+01
 Coeff:      0.159D-02-0.292D-02 0.113D-01-0.281D-02 0.529D-01 0.798D-02
 Coeff:     -0.449D+00-0.369D-01 0.142D+01
 Gap=     0.188 Goal=   None    Shift=    0.000
 Gap=     0.150 Goal=   None    Shift=    0.000
 RMSDP=3.65D-04 MaxDP=1.38D-02 DE=-5.19D-04 OVMax= 3.37D-02

 Cycle  10  Pass 1  IDiag  1:
 RMSU=  1.42D-04    CP:  1.01D+00  1.77D+00  3.43D-01  6.15D-01  8.23D-01
                    CP:  1.77D+00  3.00D+00  2.75D+00  2.02D+00
 E= -113.235153336964     Delta-E=       -0.000321118959 Rises=F Damp=F
 DIIS: error= 3.99D-04 at cycle  10 NSaved=  10.
 NSaved=10 IEnMin=10 EnMin= -113.235153336964     IErMin=10 ErrMin= 3.99D-04
 ErrMax= 3.99D-04  0.00D+00 EMaxC= 1.00D-01 BMatC= 2.77D-05 BMatP= 7.46D-05
 IDIUse=3 WtCom= 9.96D-01 WtEn= 3.99D-03
 Coeff-Com:  0.111D-02-0.217D-02 0.476D-03-0.455D-03 0.164D-01 0.750D-01
 Coeff-Com:  0.440D-02-0.352D+00-0.170D+00 0.143D+01
 Coeff-En:   0.000D+00 0.000D+00 0.000D+00 0.000D+00 0.000D+00 0.000D+00
 Coeff-En:   0.000D+00 0.000D+00 0.000D+00 0.100D+01
 Coeff:      0.111D-02-0.216D-02 0.474D-03-0.453D-03 0.163D-01 0.747D-01
 Coeff:      0.439D-02-0.351D+00-0.169D+00 0.143D+01
 Gap=     0.187 Goal=   None    Shift=    0.000
 Gap=     0.152 Goal=   None    Shift=    0.000
 RMSDP=1.96D-04 MaxDP=7.71D-03 DE=-3.21D-04 OVMax= 1.92D-02

 Cycle  11  Pass 1  IDiag  1:
 RMSU=  5.50D-05    CP:  1.01D+00  1.79D+00  3.33D-01  6.18D-01  8.23D-01
                    CP:  1.79D+00  3.00D+00  3.00D+00  3.00D+00  2.00D+00
 E= -113.235271627382     Delta-E=       -0.000118290418 Rises=F Damp=F
 DIIS: error= 2.24D-04 at cycle  11 NSaved=  11.
 NSaved=11 IEnMin=11 EnMin= -113.235271627382     IErMin=11 ErrMin= 2.24D-04
 ErrMax= 2.24D-04  0.00D+00 EMaxC= 1.00D-01 BMatC= 9.73D-06 BMatP= 2.77D-05
 IDIUse=3 WtCom= 9.98D-01 WtEn= 2.24D-03
 Coeff-Com:  0.728D-03-0.369D-03-0.496D-03 0.473D-03-0.127D-01-0.328D-01
 Coeff-Com:  0.827D-01 0.178D+00-0.366D+00-0.537D+00 0.169D+01
 Coeff-En:   0.000D+00 0.000D+00 0.000D+00 0.000D+00 0.000D+00 0.000D+00
 Coeff-En:   0.000D+00 0.000D+00 0.000D+00 0.000D+00 0.100D+01
 Coeff:      0.727D-03-0.368D-03-0.495D-03 0.472D-03-0.127D-01-0.328D-01
 Coeff:      0.825D-01 0.178D+00-0.365D+00-0.536D+00 0.169D+01
 Gap=     0.186 Goal=   None    Shift=    0.000
 Gap=     0.154 Goal=   None    Shift=    0.000
 RMSDP=1.31D-04 MaxDP=4.67D-03 DE=-1.18D-04 OVMax= 1.53D-02

 Cycle  12  Pass 1  IDiag  1:
 RMSU=  5.84D-05    CP:  1.00D+00  1.79D+00  3.28D-01  6.19D-01  8.21D-01
                    CP:  1.80D+00  3.00D+00  3.00D+00  3.00D+00  2.63D+00
                    CP:  2.11D+00
 E= -113.235320236319     Delta-E=       -0.000048608937 Rises=F Damp=F
 DIIS: error= 1.63D-04 at cycle  12 NSaved=  12.
 NSaved=12 IEnMin=12 EnMin= -113.235320236319     IErMin=12 ErrMin= 1.63D-04
 ErrMax= 1.63D-04  0.00D+00 EMaxC= 1.00D-01 BMatC= 2.90D-06 BMatP= 9.73D-06
 IDIUse=3 WtCom= 9.98D-01 WtEn= 1.63D-03
 Coeff-Com: -0.483D-04-0.980D-04 0.403D-03 0.258D-03-0.489D-04-0.208D-01
 Coeff-Com: -0.305D-01 0.119D+00 0.102D+00-0.427D+00-0.117D+00 0.137D+01
 Coeff-En:   0.000D+00 0.000D+00 0.000D+00 0.000D+00 0.000D+00 0.000D+00
 Coeff-En:   0.000D+00 0.000D+00 0.000D+00 0.000D+00 0.000D+00 0.100D+01
 Coeff:     -0.483D-04-0.979D-04 0.403D-03 0.257D-03-0.488D-04-0.207D-01
 Coeff:     -0.305D-01 0.119D+00 0.102D+00-0.426D+00-0.117D+00 0.137D+01
 Gap=     0.185 Goal=   None    Shift=    0.000
 Gap=     0.155 Goal=   None    Shift=    0.000
 RMSDP=5.96D-05 MaxDP=1.86D-03 DE=-4.86D-05 OVMax= 6.86D-03

 Cycle  13  Pass 1  IDiag  1:
 RMSU=  2.16D-05    CP:  1.00D+00  1.79D+00  3.27D-01  6.18D-01  8.20D-01
                    CP:  1.80D+00  3.00D+00  3.00D+00  3.00D+00  2.85D+00
                    CP:  2.66D+00  1.54D+00
 E= -113.235333996708     Delta-E=       -0.000013760389 Rises=F Damp=F
 DIIS: error= 1.08D-04 at cycle  13 NSaved=  13.
 NSaved=13 IEnMin=13 EnMin= -113.235333996708     IErMin=13 ErrMin= 1.08D-04
 ErrMax= 1.08D-04  0.00D+00 EMaxC= 1.00D-01 BMatC= 1.33D-06 BMatP= 2.90D-06
 IDIUse=3 WtCom= 9.99D-01 WtEn= 1.08D-03
 Coeff-Com:  0.687D-03-0.106D-02-0.627D-03-0.411D-04 0.196D-02 0.148D-01
 Coeff-Com: -0.776D-02-0.620D-01 0.112D-01 0.243D+00-0.215D+00-0.605D+00
 Coeff-Com:  0.162D+01
 Coeff-En:   0.000D+00 0.000D+00 0.000D+00 0.000D+00 0.000D+00 0.000D+00
 Coeff-En:   0.000D+00 0.000D+00 0.000D+00 0.000D+00 0.000D+00 0.000D+00
 Coeff-En:   0.100D+01
 Coeff:      0.686D-03-0.105D-02-0.626D-03-0.410D-04 0.195D-02 0.148D-01
 Coeff:     -0.775D-02-0.619D-01 0.111D-01 0.243D+00-0.215D+00-0.605D+00
 Coeff:      0.162D+01
 Gap=     0.185 Goal=   None    Shift=    0.000
 Gap=     0.155 Goal=   None    Shift=    0.000
 RMSDP=3.46D-05 MaxDP=1.07D-03 DE=-1.38D-05 OVMax= 4.13D-03

 Cycle  14  Pass 1  IDiag  1:
 RMSU=  1.03D-05    CP:  1.00D+00  1.79D+00  3.27D-01  6.18D-01  8.20D-01
                    CP:  1.80D+00  3.00D+00  3.00D+00  3.00D+00  2.89D+00
                    CP:  2.90D+00  1.85D+00  2.07D+00
 E= -113.235340729739     Delta-E=       -0.000006733031 Rises=F Damp=F
 DIIS: error= 8.33D-05 at cycle  14 NSaved=  14.
 NSaved=14 IEnMin=14 EnMin= -113.235340729739     IErMin=14 ErrMin= 8.33D-05
 ErrMax= 8.33D-05  0.00D+00 EMaxC= 1.00D-01 BMatC= 9.61D-07 BMatP= 1.33D-06
 IDIUse=1 WtCom= 1.00D+00 WtEn= 0.00D+00
 Coeff-Com:  0.782D-03-0.862D-03-0.314D-03 0.574D-04-0.414D-02 0.471D-02
 Coeff-Com:  0.216D-01-0.215D-01-0.594D-01 0.760D-01 0.159D+00-0.267D+00
 Coeff-Com: -0.119D+01 0.228D+01
 Coeff:      0.782D-03-0.862D-03-0.314D-03 0.574D-04-0.414D-02 0.471D-02
 Coeff:      0.216D-01-0.215D-01-0.594D-01 0.760D-01 0.159D+00-0.267D+00
 Coeff:     -0.119D+01 0.228D+01
 Gap=     0.185 Goal=   None    Shift=    0.000
 Gap=     0.155 Goal=   None    Shift=    0.000
 RMSDP=4.76D-05 MaxDP=1.64D-03 DE=-6.73D-06 OVMax= 5.61D-03

 Cycle  15  Pass 1  IDiag  1:
 RMSU=  1.58D-05    CP:  1.00D+00  1.79D+00  3.29D-01  6.17D-01  8.20D-01
                    CP:  1.79D+00  3.00D+00  3.00D+00  3.00D+00  2.88D+00
                    CP:  3.00D+00  2.22D+00  3.00D+00  2.98D+00
 E= -113.235347273343     Delta-E=       -0.000006543604 Rises=F Damp=F
 DIIS: error= 4.91D-05 at cycle  15 NSaved=  15.
 NSaved=15 IEnMin=15 EnMin= -113.235347273343     IErMin=15 ErrMin= 4.91D-05
 ErrMax= 4.91D-05  0.00D+00 EMaxC= 1.00D-01 BMatC= 3.56D-07 BMatP= 9.61D-07
 IDIUse=1 WtCom= 1.00D+00 WtEn= 0.00D+00
 Coeff-Com:  0.322D-03-0.363D-03-0.352D-04 0.994D-04-0.999D-03-0.410D-02
 Coeff-Com: -0.706D-02 0.297D-01 0.178D-01-0.107D+00 0.277D-01 0.367D+00
 Coeff-Com: -0.676D+00-0.610D+00 0.196D+01
 Coeff:      0.322D-03-0.363D-03-0.352D-04 0.994D-04-0.999D-03-0.410D-02
 Coeff:     -0.706D-02 0.297D-01 0.178D-01-0.107D+00 0.277D-01 0.367D+00
 Coeff:     -0.676D+00-0.610D+00 0.196D+01
 Gap=     0.185 Goal=   None    Shift=    0.000
 Gap=     0.156 Goal=   None    Shift=    0.000
 RMSDP=5.04D-05 MaxDP=1.70D-03 DE=-6.54D-06 OVMax= 5.77D-03

 Cycle  16  Pass 1  IDiag  1:
 RMSU=  2.51D-05    CP:  1.00D+00  1.79D+00  3.30D-01  6.16D-01  8.20D-01
                    CP:  1.79D+00  3.00D+00  3.00D+00  3.00D+00  2.86D+00
                    CP:  3.00D+00  2.57D+00  3.00D+00  3.00D+00  3.00D+00
 E= -113.235350189182     Delta-E=       -0.000002915840 Rises=F Damp=F
 DIIS: error= 1.13D-05 at cycle  16 NSaved=  16.
 NSaved=16 IEnMin=16 EnMin= -113.235350189182     IErMin=16 ErrMin= 1.13D-05
 ErrMax= 1.13D-05  0.00D+00 EMaxC= 1.00D-01 BMatC= 2.86D-08 BMatP= 3.56D-07
 IDIUse=1 WtCom= 1.00D+00 WtEn= 0.00D+00
 Coeff-Com:  0.533D-05-0.245D-04-0.101D-04 0.551D-05 0.672D-03-0.158D-03
 Coeff-Com: -0.619D-02 0.110D-01 0.114D-01-0.346D-01-0.896D-02 0.980D-01
 Coeff-Com:  0.102D+00-0.491D+00 0.334D+00 0.984D+00
 Coeff:      0.533D-05-0.245D-04-0.101D-04 0.551D-05 0.672D-03-0.158D-03
 Coeff:     -0.619D-02 0.110D-01 0.114D-01-0.346D-01-0.896D-02 0.980D-01
 Coeff:      0.102D+00-0.491D+00 0.334D+00 0.984D+00
 Gap=     0.185 Goal=   None    Shift=    0.000
 Gap=     0.156 Goal=   None    Shift=    0.000
 RMSDP=8.43D-06 MaxDP=2.75D-04 DE=-2.92D-06 OVMax= 9.24D-04

 Cycle  17  Pass 1  IDiag  1:
 RMSU=  4.58D-06    CP:  1.00D+00  1.79D+00  3.30D-01  6.16D-01  8.20D-01
                    CP:  1.79D+00  3.00D+00  3.00D+00  3.00D+00  2.84D+00
                    CP:  3.00D+00  2.62D+00  3.00D+00  3.00D+00  3.00D+00
                    CP:  1.21D+00
 E= -113.235350266655     Delta-E=       -0.000000077473 Rises=F Damp=F
 DIIS: error= 3.61D-06 at cycle  17 NSaved=  17.
 NSaved=17 IEnMin=17 EnMin= -113.235350266655     IErMin=17 ErrMin= 3.61D-06
 ErrMax= 3.61D-06  0.00D+00 EMaxC= 1.00D-01 BMatC= 2.62D-09 BMatP= 2.86D-08
 IDIUse=1 WtCom= 1.00D+00 WtEn= 0.00D+00
 Coeff-Com: -0.360D-04 0.590D-04 0.270D-04-0.132D-04 0.568D-04 0.389D-03
 Coeff-Com: -0.534D-03-0.228D-02 0.220D-02 0.267D-02-0.502D-02-0.112D-01
 Coeff-Com:  0.523D-01 0.135D-01-0.121D+00 0.976D-02 0.106D+01
 Coeff:     -0.360D-04 0.590D-04 0.270D-04-0.132D-04 0.568D-04 0.389D-03
 Coeff:     -0.534D-03-0.228D-02 0.220D-02 0.267D-02-0.502D-02-0.112D-01
 Coeff:      0.523D-01 0.135D-01-0.121D+00 0.976D-02 0.106D+01
 Gap=     0.185 Goal=   None    Shift=    0.000
 Gap=     0.156 Goal=   None    Shift=    0.000
 RMSDP=8.65D-07 MaxDP=2.40D-05 DE=-7.75D-08 OVMax= 8.48D-05

 Cycle  18  Pass 1  IDiag  1:
 RMSU=  4.74D-07    CP:  1.00D+00  1.79D+00  3.30D-01  6.16D-01  8.20D-01
                    CP:  1.79D+00  3.00D+00  3.00D+00  3.00D+00  2.85D+00
                    CP:  3.00D+00  2.62D+00  3.00D+00  3.00D+00  3.00D+00
                    CP:  1.23D+00  1.06D+00
 E= -113.235350269582     Delta-E=       -0.000000002927 Rises=F Damp=F
 DIIS: error= 1.23D-06 at cycle  18 NSaved=  18.
 NSaved=18 IEnMin=18 EnMin= -113.235350269582     IErMin=18 ErrMin= 1.23D-06
 ErrMax= 1.23D-06  0.00D+00 EMaxC= 1.00D-01 BMatC= 3.45D-10 BMatP= 2.62D-09
 IDIUse=1 WtCom= 1.00D+00 WtEn= 0.00D+00
 Coeff-Com: -0.361D-05 0.496D-05-0.413D-05 0.326D-05-0.119D-03 0.110D-04
 Coeff-Com:  0.972D-03-0.186D-02-0.208D-02 0.663D-02 0.166D-02-0.210D-01
 Coeff-Com: -0.491D-02 0.718D-01-0.616D-01-0.118D+00 0.740D-01 0.105D+01
 Coeff:     -0.361D-05 0.496D-05-0.413D-05 0.326D-05-0.119D-03 0.110D-04
 Coeff:      0.972D-03-0.186D-02-0.208D-02 0.663D-02 0.166D-02-0.210D-01
 Coeff:     -0.491D-02 0.718D-01-0.616D-01-0.118D+00 0.740D-01 0.105D+01
 Gap=     0.185 Goal=   None    Shift=    0.000
 Gap=     0.156 Goal=   None    Shift=    0.000
 RMSDP=2.79D-07 MaxDP=6.87D-06 DE=-2.93D-09 OVMax= 2.27D-05

 Cycle  19  Pass 1  IDiag  1:
 RMSU=  1.02D-07    CP:  1.00D+00  1.79D+00  3.30D-01  6.16D-01  8.20D-01
                    CP:  1.79D+00  3.00D+00  3.00D+00  3.00D+00  2.85D+00
                    CP:  3.00D+00  2.62D+00  3.00D+00  3.00D+00  3.00D+00
                    CP:  1.23D+00  1.07D+00  1.36D+00
 E= -113.235350269953     Delta-E=       -0.000000000371 Rises=F Damp=F
 DIIS: error= 5.92D-07 at cycle  19 NSaved=  19.
 NSaved=19 IEnMin=19 EnMin= -113.235350269953     IErMin=19 ErrMin= 5.92D-07
 ErrMax= 5.92D-07  0.00D+00 EMaxC= 1.00D-01 BMatC= 6.57D-11 BMatP= 3.45D-10
 IDIUse=1 WtCom= 1.00D+00 WtEn= 0.00D+00
 Coeff-Com: -0.110D-05 0.139D-05-0.307D-06-0.592D-06 0.176D-04-0.497D-04
 Coeff-Com: -0.199D-04 0.650D-03-0.650D-04-0.973D-03 0.129D-02 0.220D-02
 Coeff-Com: -0.108D-01-0.414D-03 0.166D-01 0.230D-02-0.131D+00-0.222D+00
 Coeff-Com:  0.134D+01
 Coeff:     -0.110D-05 0.139D-05-0.307D-06-0.592D-06 0.176D-04-0.497D-04
 Coeff:     -0.199D-04 0.650D-03-0.650D-04-0.973D-03 0.129D-02 0.220D-02
 Coeff:     -0.108D-01-0.414D-03 0.166D-01 0.230D-02-0.131D+00-0.222D+00
 Coeff:      0.134D+01
 Gap=     0.185 Goal=   None    Shift=    0.000
 Gap=     0.156 Goal=   None    Shift=    0.000
 RMSDP=3.12D-07 MaxDP=1.31D-05 DE=-3.71D-10 OVMax= 2.82D-05

 Cycle  20  Pass 1  IDiag  1:
 RMSU=  9.06D-08    CP:  1.00D+00  1.79D+00  3.30D-01  6.16D-01  8.20D-01
                    CP:  1.79D+00  3.00D+00  3.00D+00  3.00D+00  2.85D+00
                    CP:  3.00D+00  2.62D+00  3.00D+00  3.00D+00  3.00D+00
                    CP:  1.23D+00  1.10D+00  1.32D+00  1.58D+00
 E= -113.235350270062     Delta-E=       -0.000000000109 Rises=F Damp=F
 DIIS: error= 3.27D-07 at cycle  20 NSaved=  20.
 NSaved=20 IEnMin=20 EnMin= -113.235350270062     IErMin=20 ErrMin= 3.27D-07
 ErrMax= 3.27D-07  0.00D+00 EMaxC= 1.00D-01 BMatC= 2.50D-11 BMatP= 6.57D-11
 IDIUse=1 WtCom= 1.00D+00 WtEn= 0.00D+00
 Coeff-Com:  0.445D-06-0.608D-06 0.164D-06 0.159D-06 0.426D-06-0.908D-06
 Coeff-Com: -0.697D-04 0.102D-03 0.268D-03-0.763D-03-0.193D-03 0.258D-02
 Coeff-Com:  0.600D-03-0.843D-02 0.732D-02 0.106D-01-0.270D-01-0.772D-01
 Coeff-Com:  0.187D+00 0.905D+00
 Coeff:      0.445D-06-0.608D-06 0.164D-06 0.159D-06 0.426D-06-0.908D-06
 Coeff:     -0.697D-04 0.102D-03 0.268D-03-0.763D-03-0.193D-03 0.258D-02
 Coeff:      0.600D-03-0.843D-02 0.732D-02 0.106D-01-0.270D-01-0.772D-01
 Coeff:      0.187D+00 0.905D+00
 Gap=     0.185 Goal=   None    Shift=    0.000
 Gap=     0.156 Goal=   None    Shift=    0.000
 RMSDP=7.05D-08 MaxDP=2.80D-06 DE=-1.09D-10 OVMax= 6.09D-06

 Cycle  21  Pass 1  IDiag  1:
 Restarting incremental Fock formation.
 E= -113.235350270083     Delta-E=       -0.000000000021 Rises=F Damp=F
 DIIS: error= 2.27D-08 at cycle  21 NSaved=  20.
 NSaved=20 IEnMin=20 EnMin= -113.235350270083     IErMin=20 ErrMin= 2.27D-08
 ErrMax= 2.27D-08  0.00D+00 EMaxC= 1.00D-01 BMatC= 1.66D-13 BMatP= 2.50D-11
 IDIUse=1 WtCom= 1.00D+00 WtEn= 0.00D+00
 Coeff-Com:  0.200D-06-0.295D-06-0.228D-06 0.668D-06 0.335D-05 0.145D-04
 Coeff-Com: -0.199D-04-0.721D-04 0.186D-03-0.207D-04-0.549D-03 0.393D-03
 Coeff-Com:  0.131D-02-0.174D-02-0.167D-02 0.100D-01 0.215D-01-0.859D-01
 Coeff-Com: -0.241D+00 0.130D+01
 Coeff:      0.200D-06-0.295D-06-0.228D-06 0.668D-06 0.335D-05 0.145D-04
 Coeff:     -0.199D-04-0.721D-04 0.186D-03-0.207D-04-0.549D-03 0.393D-03
 Coeff:      0.131D-02-0.174D-02-0.167D-02 0.100D-01 0.215D-01-0.859D-01
 Coeff:     -0.241D+00 0.130D+01
 Gap=     0.185 Goal=   None    Shift=    0.000
 Gap=     0.156 Goal=   None    Shift=    0.000
 RMSDP=7.45D-09 MaxDP=2.68D-07 DE=-2.12D-11 OVMax= 5.93D-07

 SCF Done:  E(UB3LYP) =  -113.235350270     A.U. after   21 cycles
            NFock= 21  Conv=0.75D-08     -V/T= 2.0037
 <Sx>= 0.0000 <Sy>= 0.0000 <Sz>= 0.5000 <S**2>= 0.8342 S= 0.5413
 <L.S>= 0.000000000000E+00
 KE= 1.128155587108D+02 PE=-3.331177965234D+02 EE= 6.420834183916D+01
 Annihilation of the first spin contaminant:
 S**2 before annihilation     0.8342,   after     0.7521
 Leave Link  502 at Tue Jul 19 04:11:02 2016, MaxMem=    33554432 cpu:       124.4
 (Enter /home/proyectos/fulerenos/M3C-v2.0/M3C-deps_CCC/g09-AM64L-G09RevC.01/l801.exe)
 DoSCS=F DFT=T ScalE2(SS,OS)=  1.000000  1.000000
 Range of M.O.s used for correlation:     1   137
 NBasis=   137 NAE=     9 NBE=     8 NFC=     0 NFV=     0
 NROrb=    137 NOA=     9 NOB=     8 NVA=   128 NVB=   129

 **** Warning!!: The largest alpha MO coefficient is  0.44379581D+02


 **** Warning!!: The largest beta MO coefficient is  0.45298950D+02

 Leave Link  801 at Tue Jul 19 04:11:02 2016, MaxMem=    33554432 cpu:         0.1
 (Enter /home/proyectos/fulerenos/M3C-v2.0/M3C-deps_CCC/g09-AM64L-G09RevC.01/l1101.exe)
 Using compressed storage, NAtomX=     5.
 Will process      6 centers per pass.
 Leave Link 1101 at Tue Jul 19 04:11:02 2016, MaxMem=    33554432 cpu:         0.4
 (Enter /home/proyectos/fulerenos/M3C-v2.0/M3C-deps_CCC/g09-AM64L-G09RevC.01/l1102.exe)
 Symmetrizing basis deriv contribution to polar:
 IMax=3 JMax=2 DiffMx= 0.00D+00
 Leave Link 1102 at Tue Jul 19 04:11:03 2016, MaxMem=    33554432 cpu:         0.1
 (Enter /home/proyectos/fulerenos/M3C-v2.0/M3C-deps_CCC/g09-AM64L-G09RevC.01/l1110.exe)
 Forming Gx(P) for the SCF density, NAtomX=     5.
 Integral derivatives from FoFJK, PRISM(SPDF).
 Do as many integral derivatives as possible in FoFJK.
 G2DrvN: MDV=      33554288.
 G2DrvN: will do     6 centers at a time, making    1 passes.
 Calling FoFCou, ICntrl=  3107 FMM=F I1Cent=   0 AccDes= 0.00D+00.
 FoFJK:  IHMeth= 1 ICntrl=    3107 DoSepK=F KAlg= 0 I1Cent=   0 FoldK=F
 IRaf=         0 NMat=   1 IRICut=       1 DoRegI=T DoRafI=F ISym2E= 1.
 FoFCou: FMM=F IPFlag=           0 FMFlag=      100000 FMFlg1=           0
         NFxFlg=           0 DoJE=F BraDBF=F KetDBF=F FulRan=T
         wScrn=  0.000000 ICntrl=    3107 IOpCl=  1 I1Cent=           0 NGrid=           0
         NMat0=    1 NMatS0=      1 NMatT0=    0 NMatD0=    1 NMtDS0=    0 NMtDT0=    0
 Petite list used in FoFCou.
 End of G2Drv F.D. properties file   721 does not exist.
 End of G2Drv F.D. properties file   722 does not exist.
 End of G2Drv F.D. properties file   788 does not exist.
 Leave Link 1110 at Tue Jul 19 04:12:03 2016, MaxMem=    33554432 cpu:        59.9
 (Enter /home/proyectos/fulerenos/M3C-v2.0/M3C-deps_CCC/g09-AM64L-G09RevC.01/l1002.exe)
 Minotr:  UHF open shell wavefunction.
          IDoAtm=11111
          Direct CPHF calculation.
          Differentiating once with respect to electric field.
                with respect to dipole field.
          Differentiating once with respect to nuclear coordinates.
          Using symmetry in CPHF.
          Requested convergence is 1.0D-08 RMS, and 1.0D-07 maximum.
          Secondary convergence is 1.0D-12 RMS, and 1.0D-12 maximum.
          NewPWx=T KeepS1=F KeepF1=F KeepIn=T MapXYZ=F SortEE=F KeepMc=T.
          MDV=      33554104 using IRadAn=       2.
 Generate precomputed XC quadrature information.
          Solving linear equations simultaneously, MaxMat=       0.
 FoFJK:  IHMeth= 1 ICntrl=       0 DoSepK=F KAlg= 0 I1Cent=   0 FoldK=F
 IRaf= 990000000 NMat=  15 IRICut=      37 DoRegI=T DoRafI=T ISym2E= 2.
 FoFCou: FMM=F IPFlag=           0 FMFlag=      100000 FMFlg1=           0
         NFxFlg=           0 DoJE=F BraDBF=F KetDBF=F FulRan=T
         wScrn=  0.000000 ICntrl=       0 IOpCl=  1 I1Cent=           0 NGrid=           0
         NMat0=   15 NMatS0=     15 NMatT0=    0 NMatD0=   15 NMtDS0=    0 NMtDT0=    0
 Integrals replicated using symmetry in FoFCou.
          There are    15 degrees of freedom in the 1st order CPHF.  IDoFFX=4 NUNeed=    15.
     15 vectors produced by pass  0 Test12= 1.46D-14 6.67D-09 XBig12= 2.09D+02 7.96D+00.
 AX will form    15 AO Fock derivatives at one time.
     15 vectors produced by pass  1 Test12= 1.46D-14 6.67D-09 XBig12= 3.50D+01 1.29D+00.
     15 vectors produced by pass  2 Test12= 1.46D-14 6.67D-09 XBig12= 6.80D-01 2.48D-01.
     15 vectors produced by pass  3 Test12= 1.46D-14 6.67D-09 XBig12= 1.92D-02 3.40D-02.
     15 vectors produced by pass  4 Test12= 1.46D-14 6.67D-09 XBig12= 3.39D-04 4.27D-03.
     15 vectors produced by pass  5 Test12= 1.46D-14 6.67D-09 XBig12= 1.71D-06 3.55D-04.
     13 vectors produced by pass  6 Test12= 1.46D-14 6.67D-09 XBig12= 7.06D-09 1.28D-05.
      6 vectors produced by pass  7 Test12= 1.46D-14 6.67D-09 XBig12= 2.11D-11 7.89D-07.
      3 vectors produced by pass  8 Test12= 1.46D-14 6.67D-09 XBig12= 5.95D-14 3.66D-08.
      2 vectors produced by pass  9 Test12= 1.46D-14 6.67D-09 XBig12= 1.27D-15 1.03D-08.
 InvSVY:  IOpt=1 It=  1 EMax= 1.78D-15
 Solved reduced A of dimension   114 with    15 vectors.
 FullF1:  Do perturbations    1 to    15.
 Isotropic polarizability for W=    0.000000       26.11 Bohr**3.
 End of Minotr F.D. properties file   721 does not exist.
 End of Minotr F.D. properties file   722 does not exist.
 End of Minotr F.D. properties file   788 does not exist.
 Leave Link 1002 at Tue Jul 19 04:15:53 2016, MaxMem=    33554432 cpu:       230.3
 (Enter /home/proyectos/fulerenos/M3C-v2.0/M3C-deps_CCC/g09-AM64L-G09RevC.01/l601.exe)
 Copying SCF densities to generalized density rwf, IOpCl= 1 IROHF=0.

 **********************************************************************

            Population analysis using the SCF density.

 **********************************************************************

 Orbital symmetries:
 Alpha Orbitals:
       Occupied  (A') (A') (A') (A') (A') (A') (A") (A') (A')
       Virtual   (A') (A") (A') (A") (A') (A') (A") (A') (A') (A')
                 (A") (A') (A') (A") (A') (A') (A") (A') (A") (A')
                 (A") (A') (A') (A') (A") (A') (A') (A") (A') (A')
                 (A") (A') (A") (A') (A") (A') (A') (A') (A") (A')
                 (A') (A") (A") (A') (A') (A') (A") (A') (A') (A")
                 (A') (A") (A") (A') (A') (A') (A') (A") (A') (A")
                 (A') (A") (A') (A') (A") (A') (A') (A') (A") (A")
                 (A') (A') (A") (A') (A') (A') (A") (A") (A') (A")
                 (A') (A") (A') (A') (A") (A') (A") (A') (A") (A')
                 (A') (A") (A") (A') (A") (A') (A') (A') (A") (A')
                 (A') (A') (A") (A') (A") (A') (A") (A') (A") (A')
                 (A") (A') (A") (A') (A') (A") (A') (A") (A') (A')
                 (A') (A") (A") (A') (A') (A') (A') (A')
 Beta  Orbitals:
       Occupied  (A') (A') (A') (A') (A') (A') (A") (A')
       Virtual   (A') (A") (A') (A') (A") (A') (A') (A") (A') (A')
                 (A") (A') (A') (A") (A') (A') (A') (A") (A') (A")
                 (A') (A") (A') (A') (A') (A") (A') (A') (A") (A')
                 (A') (A") (A") (A') (A') (A") (A') (A') (A") (A')
                 (A') (A") (A') (A") (A') (A') (A') (A") (A') (A')
                 (A") (A') (A") (A') (A") (A') (A') (A') (A") (A')
                 (A") (A') (A") (A') (A') (A") (A') (A') (A') (A")
                 (A") (A') (A') (A") (A') (A') (A') (A") (A") (A')
                 (A") (A') (A") (A') (A') (A") (A') (A") (A') (A')
                 (A") (A") (A') (A") (A') (A") (A') (A') (A') (A")
                 (A') (A') (A') (A") (A') (A") (A') (A") (A') (A")
                 (A') (A") (A') (A") (A') (A') (A") (A') (A") (A')
                 (A') (A') (A") (A") (A') (A') (A') (A') (A')
 The electronic state is 2-A'.
 Alpha  occ. eigenvalues --  -11.35025 -11.31208 -11.10752  -1.70221  -1.50743
 Alpha  occ. eigenvalues --   -1.35607  -1.28015  -1.26323  -1.20459
 Alpha virt. eigenvalues --   -1.01926  -1.01780  -1.00384  -0.97286  -0.75244
 Alpha virt. eigenvalues --   -0.64502  -0.62382  -0.52832  -0.50586  -0.48579
 Alpha virt. eigenvalues --   -0.48474  -0.44606  -0.40851  -0.40643  -0.39335
 Alpha virt. eigenvalues --   -0.36212  -0.35651  -0.34550  -0.33418  -0.33255
 Alpha virt. eigenvalues --   -0.32827  -0.29798  -0.27611  -0.26866  -0.26666
 Alpha virt. eigenvalues --   -0.21707  -0.21017  -0.20609  -0.18999  -0.17728
 Alpha virt. eigenvalues --   -0.16603  -0.13083  -0.12252  -0.11131  -0.10613
 Alpha virt. eigenvalues --   -0.10165  -0.09057  -0.07036  -0.06661  -0.03826
 Alpha virt. eigenvalues --   -0.02187  -0.01262   0.01774   0.03567   0.04908
 Alpha virt. eigenvalues --    0.14508   0.18086   0.18633   0.20380   0.31177
 Alpha virt. eigenvalues --    0.41776   0.48905   0.50769   0.50771   0.54363
 Alpha virt. eigenvalues --    0.55738   0.60623   0.62818   0.64111   0.73108
 Alpha virt. eigenvalues --    0.73647   0.75275   0.76544   0.78944   0.82960
 Alpha virt. eigenvalues --    0.88734   0.93888   1.05640   1.12109   1.23220
 Alpha virt. eigenvalues --    1.25159   1.36858   1.68519   1.71539   1.75753
 Alpha virt. eigenvalues --    1.79224   1.81310   1.82548   1.85612   1.88395
 Alpha virt. eigenvalues --    1.91518   1.92811   1.93775   1.94427   1.99246
 Alpha virt. eigenvalues --    2.00274   2.07868   2.08094   2.14369   2.15434
 Alpha virt. eigenvalues --    2.25834   2.26356   2.41643   2.44954   2.48423
 Alpha virt. eigenvalues --    2.48674   2.55775   2.66314   2.88061   2.88647
 Alpha virt. eigenvalues --    3.23940   3.34049   3.38539   3.38762   3.53224
 Alpha virt. eigenvalues --    3.55538   3.61770   3.75699   4.31788   4.33072
 Alpha virt. eigenvalues --    5.92637   5.92815   5.94742   5.96573   5.99261
 Alpha virt. eigenvalues --    6.00509   6.08842   6.15481   6.19603   6.25436
 Alpha virt. eigenvalues --    6.41980   6.58507   6.98910   6.99606   7.22616
 Alpha virt. eigenvalues --   22.44247  22.60473  24.45368
  Beta  occ. eigenvalues --  -11.35117 -11.28781 -11.10489  -1.68006  -1.49987
  Beta  occ. eigenvalues --   -1.32833  -1.27796  -1.20726
  Beta virt. eigenvalues --   -1.05174  -1.01133  -1.00523  -0.97823  -0.94267
  Beta virt. eigenvalues --   -0.74147  -0.64299  -0.62259  -0.52007  -0.50280
  Beta virt. eigenvalues --   -0.48457  -0.47962  -0.42204  -0.40147  -0.39778
  Beta virt. eigenvalues --   -0.39109  -0.36008  -0.35512  -0.34330  -0.33267
  Beta virt. eigenvalues --   -0.33006  -0.32363  -0.29268  -0.27379  -0.26450
  Beta virt. eigenvalues --   -0.26405  -0.21119  -0.20498  -0.20251  -0.18680
  Beta virt. eigenvalues --   -0.17201  -0.16385  -0.11801  -0.11605  -0.10612
  Beta virt. eigenvalues --   -0.10044  -0.09856  -0.08690  -0.06703  -0.06516
  Beta virt. eigenvalues --   -0.03558  -0.01312  -0.01292   0.02381   0.03939
  Beta virt. eigenvalues --    0.05666   0.15167   0.18119   0.18692   0.20831
  Beta virt. eigenvalues --    0.31123   0.42234   0.49762   0.50934   0.51284
  Beta virt. eigenvalues --    0.55045   0.58231   0.62612   0.63902   0.64383
  Beta virt. eigenvalues --    0.74159   0.74869   0.76790   0.77414   0.80138
  Beta virt. eigenvalues --    0.84470   0.89251   0.98998   1.07314   1.13516
  Beta virt. eigenvalues --    1.25760   1.28730   1.40662   1.69499   1.72092
  Beta virt. eigenvalues --    1.77420   1.81018   1.82876   1.83977   1.87841
  Beta virt. eigenvalues --    1.90493   1.92275   1.93103   1.94673   1.95381
  Beta virt. eigenvalues --    2.00359   2.00845   2.09069   2.10256   2.16193
  Beta virt. eigenvalues --    2.16251   2.26836   2.27440   2.43419   2.48345
  Beta virt. eigenvalues --    2.48471   2.49953   2.57251   2.67506   2.88899
  Beta virt. eigenvalues --    2.92757   3.24798   3.33947   3.38050   3.39463
  Beta virt. eigenvalues --    3.54532   3.57771   3.62941   3.77251   4.31490
  Beta virt. eigenvalues --    4.33447   5.92403   5.93201   5.96517   5.98713
  Beta virt. eigenvalues --    5.99936   6.02299   6.11942   6.20653   6.23178
  Beta virt. eigenvalues --    6.28934   6.45108   6.60747   6.99366   7.02121
  Beta virt. eigenvalues --    7.24615  22.44500  22.61718  24.47028
          Condensed to atoms (all electrons):
               1          2          3          4          5
     1  C    6.260546  -1.138476   0.044847  -0.022370  -0.022370
     2  C   -1.138476   6.558569  -0.183499   0.330810   0.330810
     3  C    0.044847  -0.183499   4.952446   0.011933   0.011933
     4  H   -0.022370   0.330810   0.011933   0.262708  -0.012108
     5  H   -0.022370   0.330810   0.011933  -0.012108   0.262708
          Atomic-Atomic Spin Densities.
               1          2          3          4          5
     1  C    1.293995  -0.297215   0.005055   0.012703   0.012703
     2  C   -0.297215   0.426136  -0.022233  -0.021033  -0.021033
     3  C    0.005055  -0.022233  -0.031557   0.000286   0.000286
     4  H    0.012703  -0.021033   0.000286  -0.014858   0.001052
     5  H    0.012703  -0.021033   0.000286   0.001052  -0.014858
 Mulliken charges and spin densities:
               1          2
     1  C    0.877823   1.027240
     2  C    0.101785   0.064621
     3  C    1.162339  -0.048162
     4  H    0.429026  -0.021850
     5  H    0.429026  -0.021850
 Sum of Mulliken charges =   3.00000   1.00000
 Mulliken charges and spin densities with hydrogens summed into heavy atoms:
               1          2
     1  C    0.877823   1.027240
     2  C    0.959838   0.020922
     3  C    1.162339  -0.048162
 APT charges:
               1
     1  C    1.227320
     2  C   -0.586855
     3  C    1.336280
     4  H    0.511628
     5  H    0.511628
 Sum of APT charges =   3.00000
 APT charges with hydrogens summed into heavy atoms:
               1
     1  C    1.227320
     2  C    0.436400
     3  C    1.336280
 Electronic spatial extent (au):  <R**2>=            109.0191
 Charge=              3.0000 electrons
 Dipole moment (field-independent basis, Debye):
    X=             -0.3279    Y=              0.2562    Z=              0.0000  Tot=              0.4162
 Quadrupole moment (field-independent basis, Debye-Ang):
   XX=              7.6582   YY=             -2.9058   ZZ=             -7.3653
   XY=              5.3846   XZ=             -0.0000   YZ=              0.0000
 Traceless Quadrupole moment (field-independent basis, Debye-Ang):
   XX=              8.5291   YY=             -2.0348   ZZ=             -6.4943
   XY=              5.3846   XZ=             -0.0000   YZ=              0.0000
 Octapole moment (field-independent basis, Debye-Ang**2):
  XXX=              4.2675  YYY=              2.2350  ZZZ=              0.0000  XYY=             -4.9782
  XXY=             -5.6306  XXZ=             -0.0000  XZZ=             -0.8556  YZZ=              4.8683
  YYZ=              0.0000  XYZ=             -0.0000
 Hexadecapole moment (field-independent basis, Debye-Ang**3):
 XXXX=            -42.5392 YYYY=            -23.2876 ZZZZ=             -8.3815 XXXY=             -3.2582
 XXXZ=              0.0000 YYYX=             -9.7846 YYYZ=              0.0000 ZZZX=             -0.0000
 ZZZY=              0.0000 XXYY=            -13.0887 XXZZ=            -13.7045 YYZZ=             -1.1239
 XXYZ=              0.0000 YYXZ=             -0.0000 ZZXY=             -4.5973
 N-N= 4.285854570333D+01 E-N=-3.331177966230D+02  KE= 1.128155587108D+02
 Symmetry A'   KE= 1.106558784203D+02
 Symmetry A"   KE= 2.159680290563D+00
  Exact polarizability:  36.520   6.795  23.662  -0.000  -0.000  18.146
 Approx polarizability:  97.061  18.625  42.929  -0.000   0.000  28.301
                          Isotropic Fermi Contact Couplings
        Atom                 a.u.       MegaHertz       Gauss      10(-4) cm-1
     1  C(13)              1.09807    1234.43503     440.47710     411.76320
     2  C(13)              0.04998      56.19116      20.05040      18.74335
     3  C(13)              0.00811       9.11300       3.25174       3.03977
     4  H(1)              -0.01249     -55.83306     -19.92262     -18.62390
     5  H(1)              -0.01249     -55.83306     -19.92262     -18.62390
 --------------------------------------------------------
       Center         ----  Spin Dipole Couplings  ----
                      3XX-RR        3YY-RR        3ZZ-RR
 --------------------------------------------------------
     1   Atom        0.917139     -0.363615     -0.553524
     2   Atom        0.331568     -0.137412     -0.194155
     3   Atom       -0.383735      0.345465      0.038269
     4   Atom        0.012700     -0.006516     -0.006184
     5   Atom        0.012700     -0.006516     -0.006184
 --------------------------------------------------------
                        XY            XZ            YZ
 --------------------------------------------------------
     1   Atom       -0.193378      0.000000      0.000000
     2   Atom       -0.122110      0.000000     -0.000000
     3   Atom       -0.001367      0.000000     -0.000000
     4   Atom       -0.014166     -0.012387      0.009219
     5   Atom       -0.014166      0.012387     -0.009219
 --------------------------------------------------------


 ---------------------------------------------------------------------------------
              Anisotropic Spin Dipole Couplings in Principal Axis System
 ---------------------------------------------------------------------------------

       Atom             a.u.   MegaHertz   Gauss  10(-4) cm-1        Axes

              Baa    -0.5535   -74.278   -26.504   -24.776 -0.0000 -0.0000  1.0000
     1 C(13)  Bbb    -0.3922   -52.626   -18.778   -17.554  0.1461  0.9893  0.0000
              Bcc     0.9457   126.904    45.282    42.331  0.9893 -0.1461  0.0000
 
              Baa    -0.1942   -26.054    -9.297    -8.691  0.0000  0.0000  1.0000
     2 C(13)  Bbb    -0.1673   -22.450    -8.011    -7.489  0.2378  0.9713 -0.0000
              Bcc     0.3615    48.504    17.307    16.179  0.9713 -0.2378  0.0000
 
              Baa    -0.3837   -51.494   -18.374   -17.176  1.0000  0.0019 -0.0000
     3 C(13)  Bbb     0.0383     5.135     1.832     1.713  0.0000  0.0000  1.0000
              Bcc     0.3455    46.358    16.542    15.464 -0.0019  1.0000 -0.0000
 
              Baa    -0.0158    -8.421    -3.005    -2.809  0.1454  0.8006 -0.5813
     4 H(1)   Bbb    -0.0114    -6.098    -2.176    -2.034  0.5933  0.3996  0.6988
              Bcc     0.0272    14.519     5.181     4.843  0.7917 -0.4465 -0.4169
 
              Baa    -0.0158    -8.421    -3.005    -2.809  0.1454  0.8006  0.5813
     5 H(1)   Bbb    -0.0114    -6.098    -2.176    -2.034 -0.5933 -0.3996  0.6988
              Bcc     0.0272    14.519     5.181     4.843  0.7917 -0.4465  0.4169
 

 ---------------------------------------------------------------------------------

 No NMR shielding tensors so no spin-rotation constants.
 Leave Link  601 at Tue Jul 19 04:15:54 2016, MaxMem=    33554432 cpu:         0.5
 (Enter /home/proyectos/fulerenos/M3C-v2.0/M3C-deps_CCC/g09-AM64L-G09RevC.01/l701.exe)
 Compute integral second derivatives.
 ... and contract with generalized density number  0.
 Leave Link  701 at Tue Jul 19 04:15:54 2016, MaxMem=    33554432 cpu:         0.6
 (Enter /home/proyectos/fulerenos/M3C-v2.0/M3C-deps_CCC/g09-AM64L-G09RevC.01/l702.exe)
 L702 exits ... SP integral derivatives will be done elsewhere.
 Leave Link  702 at Tue Jul 19 04:15:54 2016, MaxMem=    33554432 cpu:         0.0
 (Enter /home/proyectos/fulerenos/M3C-v2.0/M3C-deps_CCC/g09-AM64L-G09RevC.01/l703.exe)
 Compute integral second derivatives, UseDBF=F ICtDFT=           0.
 Integral derivatives from FoFJK, PRISM(SPDF).
 Calling FoFJK, ICntrl=    100127 FMM=F ISym2X=1 I1Cent= 0 IOpClX= 1 NMat=1 NMatS=1 NMatT=0.
 FoFJK:  IHMeth= 1 ICntrl=  100127 DoSepK=F KAlg= 0 I1Cent=   0 FoldK=F
 IRaf=         0 NMat=   1 IRICut=       1 DoRegI=T DoRafI=F ISym2E= 1.
 FoFCou: FMM=F IPFlag=           0 FMFlag=      100000 FMFlg1=         800
         NFxFlg=           0 DoJE=F BraDBF=F KetDBF=F FulRan=T
         wScrn=  0.000000 ICntrl=  100127 IOpCl=  1 I1Cent=           0 NGrid=           0
         NMat0=    1 NMatS0=      1 NMatT0=    0 NMatD0=    1 NMtDS0=    0 NMtDT0=    0
 Petite list used in FoFCou.
 Leave Link  703 at Tue Jul 19 04:19:18 2016, MaxMem=    33554432 cpu:       203.2
 (Enter /home/proyectos/fulerenos/M3C-v2.0/M3C-deps_CCC/g09-AM64L-G09RevC.01/l716.exe)
 Dipole        =-1.29023189D-01 1.00804339D-01-1.39515136D-15
 Polarizability= 3.65196064D+01 6.79536020D+00 2.36620859D+01
                -6.47117581D-08-1.17572133D-07 1.81459485D+01
 Full mass-weighted force constant matrix:
 Low frequencies ---    0.0002    0.0007    0.0008    9.0590   10.8710   30.6730
 Low frequencies ---  332.5378  384.7451  484.8491
 Diagonal vibrational polarizability:
       28.6822958      32.0640779      11.9631448
 Harmonic frequencies (cm**-1), IR intensities (KM/Mole), Raman scattering
 activities (A**4/AMU), depolarization ratios for plane and unpolarized
 incident light, reduced masses (AMU), force constants (mDyne/A),
 and normal coordinates:
                      1                      2                      3
                     A'                     A'                     A"
 Frequencies --    332.5378               384.7451               484.8459
 Red. masses --      8.4903                 8.0270                 1.7212
 Frc consts  --      0.5532                 0.7001                 0.2384
 IR Inten    --     55.1984               159.1791                54.4908
  Atom  AN      X      Y      Z        X      Y      Z        X      Y      Z
     1   6    -0.31  -0.36  -0.00    -0.03  -0.23   0.00     0.00  -0.00  -0.12
     2   6    -0.22   0.17   0.00     0.17   0.59  -0.00     0.00   0.00   0.22
     3   6     0.59   0.15  -0.00    -0.17  -0.42   0.00    -0.00  -0.00  -0.06
     4   1    -0.33   0.22   0.02     0.14   0.40   0.00    -0.44   0.46  -0.25
     5   1    -0.33   0.22  -0.02     0.14   0.40  -0.00     0.44  -0.46  -0.25
                      4                      5                      6
                     A"                     A'                     A'
 Frequencies --    720.0465               783.1718               935.4675
 Red. masses --      1.0811                 1.1776                 1.0744
 Frc consts  --      0.3302                 0.4256                 0.5539
 IR Inten    --      0.5520               110.1458               115.8707
  Atom  AN      X      Y      Z        X      Y      Z        X      Y      Z
     1   6     0.00   0.00   0.02    -0.09   0.03  -0.00     0.03  -0.01   0.00
     2   6     0.00  -0.00   0.05    -0.04  -0.05   0.00     0.02  -0.07  -0.00
     3   6     0.00   0.00  -0.06     0.02  -0.03  -0.00    -0.01  -0.01   0.00
     4   1     0.60   0.37  -0.06     0.65   0.26  -0.04    -0.22   0.51  -0.44
     5   1    -0.60  -0.37  -0.06     0.65   0.26   0.04    -0.22   0.51   0.44
                      7                      8                      9
                     A'                     A"                     A'
 Frequencies --   1253.2180              1982.5932              2047.9832
 Red. masses --      9.3540                 1.0922                 1.0463
 Frc consts  --      8.6557                 2.5294                 2.5857
 IR Inten    --    282.7830               832.0290               800.0900
  Atom  AN      X      Y      Z        X      Y      Z        X      Y      Z
     1   6    -0.58   0.11   0.00     0.00   0.00  -0.01     0.02  -0.00   0.00
     2   6     0.63  -0.11  -0.00    -0.00   0.00  -0.09     0.02  -0.05  -0.00
     3   6     0.01   0.03   0.00     0.00   0.00   0.00    -0.01  -0.01   0.00
     4   1    -0.30  -0.17  -0.03    -0.15   0.41   0.56    -0.13   0.39   0.58
     5   1    -0.30  -0.17   0.03     0.15  -0.41   0.56    -0.13   0.39  -0.58

 -------------------
 - Thermochemistry -
 -------------------
 Temperature   298.150 Kelvin.  Pressure   1.00000 Atm.
 Atom     1 has atomic number  6 and mass  12.00000
 Atom     2 has atomic number  6 and mass  12.00000
 Atom     3 has atomic number  6 and mass  12.00000
 Atom     4 has atomic number  1 and mass   1.00783
 Atom     5 has atomic number  1 and mass   1.00783
 Molecular mass:    38.01565 amu.
 Principal axes and moments of inertia in atomic units:
                           1         2         3
     Eigenvalues --    30.70999 174.60563 191.54100
           X            0.92372  -0.38306   0.00000
           Y            0.38306   0.92372   0.00000
           Z           -0.00000   0.00000   1.00000
 This molecule is an asymmetric top.
 Rotational symmetry number  1.
 Rotational temperatures (Kelvin)      2.82038     0.49605     0.45219
 Rotational constants (GHZ):          58.76724    10.33610     9.42222
 Zero-point vibrational energy      53381.0 (Joules/Mol)
                                   12.75837 (Kcal/Mol)
 Warning -- explicit consideration of   3 degrees of freedom as
           vibrations may cause significant error
 Vibrational temperatures:    478.45   553.56   697.58  1035.99  1126.81
          (Kelvin)           1345.93  1803.10  2852.51  2946.59
 
 Zero-point correction=                           0.020332 (Hartree/Particle)
 Thermal correction to Energy=                    0.024355
 Thermal correction to Enthalpy=                  0.025300
 Thermal correction to Gibbs Free Energy=        -0.004822
 Sum of electronic and zero-point Energies=           -113.215019
 Sum of electronic and thermal Energies=              -113.210995
 Sum of electronic and thermal Enthalpies=            -113.210051
 Sum of electronic and thermal Free Energies=         -113.240172
 
                     E (Thermal)             CV                S
                      KCal/Mol        Cal/Mol-Kelvin    Cal/Mol-Kelvin
 Total                   15.283             12.477             63.396
 Electronic               0.000              0.000              1.377
 Translational            0.889              2.981             36.835
 Rotational               0.889              2.981             21.557
 Vibrational             13.506              6.516              3.627
 Vibration     1          0.714              1.611              1.248
 Vibration     2          0.754              1.503              1.020
 Vibration     3          0.841              1.284              0.697
                       Q            Log10(Q)             Ln(Q)
 Total Bot       0.165151D+03          2.217880          5.106857
 Total V=0       0.371380D+12         11.569818         26.640491
 Vib (Bot)       0.781277D-09         -9.107195        -20.970092
 Vib (Bot)    1  0.561001D+00         -0.251037         -0.578033
 Vib (Bot)    2  0.468371D+00         -0.329410         -0.758495
 Vib (Bot)    3  0.343511D+00         -0.464059         -1.068535
 Vib (V=0)       0.175688D+01          0.244743          0.563542
 Vib (V=0)    1  0.125148D+01          0.097424          0.224327
 Vib (V=0)    2  0.118511D+01          0.073758          0.169833
 Vib (V=0)    3  0.110663D+01          0.044002          0.101319
 Electronic      0.200000D+01          0.301030          0.693147
 Translational   0.921295D+07          6.964399         16.036121
 Rotational      0.114722D+05          4.059646          9.347681
 
                                                              b3lyp opt
                                                             IR Spectrum
 
     2    1                                            1                                                                             
     0    9                                            2                  9         7   7             4      3  3                    
     4    8                                            5                  3         8   2             8      8  3                    
     8    3                                            3                  5         3   0             5      5  3                    
 
     X    X                                            X                  X         X   X             X      X  X                    
     X    X                                            X                  X         X                        X                       
     X    X                                            X                  X         X                        X                       
     X    X                                            X                                                     X                       
     X    X                                            X                                                                             
     X    X                                            X                                                                             
     X    X                                            X                                                                             
     X    X                                                                                                                          
     X    X                                                                                                                          
     X    X                                                                                                                          
     X    X                                                                                                                          
     X    X                                                                                                                          
     X    X                                                                                                                          
     X    X                                                                                                                          
     X    X                                                                                                                          
     X    X                                                                                                                          
     X    X                                                                                                                          
     X    X                                                                                                                          
     X    X                                                                                                                          
          X                                                                                                                          
 
 ***** Axes restored to original set *****
 -------------------------------------------------------------------
 Center     Atomic                   Forces (Hartrees/Bohr)
 Number     Number              X              Y              Z
 -------------------------------------------------------------------
      1        6          -0.000018121    0.000066682    0.000000003
      2        6          -0.000055168    0.000106715   -0.000000004
      3        6           0.000038781    0.000036492    0.000000017
      4        1           0.000017209   -0.000104962    0.000139198
      5        1           0.000017299   -0.000104926   -0.000139214
 -------------------------------------------------------------------
 Cartesian Forces:  Max     0.000139214 RMS     0.000074575
 Z-matrix is all fixed cartesians, so copy forces.
 Force constants in Cartesian coordinates: 
                1             2             3             4             5 
      1  0.254539D+00
      2  0.160850D+00  0.127976D+00
      3  0.987716D-04  0.666747D-04  0.116744D-01
      4 -0.229506D+00 -0.148487D+00 -0.914106D-04  0.284763D+00
      5 -0.129601D+00 -0.107668D+00 -0.549284D-04  0.140787D+00  0.230842D+00
      6 -0.889755D-04 -0.609978D-04 -0.459201D-02  0.477797D-04  0.501793D-04
      7 -0.285734D-01 -0.890847D-02 -0.111737D-04 -0.103214D-01 -0.864287D-02
      8 -0.334437D-02  0.865507D-02  0.000000D+00 -0.490194D-02 -0.181054D-01
      9 -0.104578D-04 -0.208611D-05  0.262640D-02  0.236026D-05 -0.258110D-05
     10  0.176547D-02 -0.173065D-02  0.365141D-02 -0.224662D-01 -0.128691D-02
     11 -0.139568D-01 -0.144840D-01  0.897523D-02  0.628452D-02 -0.525474D-01
     12  0.105671D-01  0.851473D-02 -0.484757D-02 -0.555189D-02  0.464484D-01
     13  0.177461D-02 -0.172423D-02 -0.364760D-02 -0.224691D-01 -0.125676D-02
     14 -0.139483D-01 -0.144795D-01 -0.898668D-02  0.631699D-02 -0.525219D-01
     15 -0.105665D-01 -0.851832D-02 -0.486122D-02  0.559316D-02 -0.464410D-01
                6             7             8             9            10 
      6  0.192526D+00
      7  0.187672D-05  0.410480D-01
      8 -0.137868D-05 -0.620901D-02  0.152428D-01
      9 -0.196286D-01  0.859943D-05 -0.155139D-05  0.117985D-01
     10  0.116208D-02 -0.107057D-02  0.722809D-02 -0.812030D-02  0.201589D-01
     11  0.527478D-01  0.118806D-01 -0.289684D-02  0.282369D-02 -0.435794D-02
     12 -0.841413D-01 -0.107319D-01  0.191488D-02  0.259635D-02  0.450664D-02
     13 -0.112276D-02 -0.108269D-02  0.722723D-02  0.811980D-02  0.161240D-02
     14 -0.527356D-01  0.118797D-01 -0.289562D-02 -0.281747D-02  0.147403D-03
     15 -0.841641D-01  0.107326D-01 -0.191165D-02  0.260725D-02 -0.119983D-02
               11            12            13            14            15 
     11  0.627717D-01
     12 -0.607151D-01  0.100520D+00
     13  0.149557D-03  0.120998D-02  0.201647D-01
     14  0.715657D-02  0.383715D-02 -0.439579D-02  0.627404D-01
     15 -0.383157D-02 -0.141270D-01 -0.455942D-02  0.607026D-01  0.100545D+00
 Leave Link  716 at Tue Jul 19 04:19:18 2016, MaxMem=    33554432 cpu:         0.1
 (Enter /home/proyectos/fulerenos/M3C-v2.0/M3C-deps_CCC/g09-AM64L-G09RevC.01/l103.exe)

 GradGradGradGradGradGradGradGradGradGradGradGradGradGradGradGradGradGrad
 Berny optimization.
 Search for a local minimum.
 Step number   1 out of a maximum of    2
 All quantities printed in internal units (Hartrees-Bohrs-Radians)
 Second derivative matrix not updated -- analytic derivatives used.
 The second derivative matrix:
                          X1        Y1        Z1        X2        Y2
           X1           0.25454
           Y1           0.16085   0.12798
           Z1           0.00010   0.00007   0.01167
           X2          -0.22951  -0.14849  -0.00009   0.28476
           Y2          -0.12960  -0.10767  -0.00005   0.14079   0.23084
           Z2          -0.00009  -0.00006  -0.00459   0.00005   0.00005
           X3          -0.02857  -0.00891  -0.00001  -0.01032  -0.00864
           Y3          -0.00334   0.00866  -0.00000  -0.00490  -0.01811
           Z3          -0.00001  -0.00000   0.00263   0.00000  -0.00000
           X4           0.00177  -0.00173   0.00365  -0.02247  -0.00129
           Y4          -0.01396  -0.01448   0.00898   0.00628  -0.05255
           Z4           0.01057   0.00851  -0.00485  -0.00555   0.04645
           X5           0.00177  -0.00172  -0.00365  -0.02247  -0.00126
           Y5          -0.01395  -0.01448  -0.00899   0.00632  -0.05252
           Z5          -0.01057  -0.00852  -0.00486   0.00559  -0.04644
                          Z2        X3        Y3        Z3        X4
           Z2           0.19253
           X3           0.00000   0.04105
           Y3          -0.00000  -0.00621   0.01524
           Z3          -0.01963   0.00001  -0.00000   0.01180
           X4           0.00116  -0.00107   0.00723  -0.00812   0.02016
           Y4           0.05275   0.01188  -0.00290   0.00282  -0.00436
           Z4          -0.08414  -0.01073   0.00191   0.00260   0.00451
           X5          -0.00112  -0.00108   0.00723   0.00812   0.00161
           Y5          -0.05274   0.01188  -0.00290  -0.00282   0.00015
           Z5          -0.08416   0.01073  -0.00191   0.00261  -0.00120
                          Y4        Z4        X5        Y5        Z5
           Y4           0.06277
           Z4          -0.06072   0.10052
           X5           0.00015   0.00121   0.02016
           Y5           0.00716   0.00384  -0.00440   0.06274
           Z5          -0.00383  -0.01413  -0.00456   0.06070   0.10054
 ITU=  0
     Eigenvalues ---    0.02207   0.03019   0.03254   0.03968   0.05913
     Eigenvalues ---    0.07626   0.23600   0.28228   0.70322
 Angle between quadratic step and forces=  45.36 degrees.
 ClnCor:  largest displacement from symmetrization is 2.79D-11 for atom     5.
 Linear search not attempted -- first point.
 ClnCor:  largest displacement from symmetrization is 1.99D-15 for atom     1.
 B after Tr=    -0.000028    0.000326    0.000000
         Rot=    1.000000   -0.000000   -0.000000    0.000013 Ang=   0.00 deg.
 Variable       Old X    -DE/DX   Delta X   Delta X   Delta X     New X
                                 (Linear)    (Quad)   (Total)
    X1       -2.38251  -0.00002   0.00000  -0.00125  -0.00130  -2.38381
    Y1       -0.82737   0.00007   0.00000   0.00100   0.00139  -0.82598
    Z1       -0.00092   0.00000   0.00000  -0.00000  -0.00000  -0.00092
    X2       -0.28491  -0.00006   0.00000  -0.00027  -0.00028  -0.28519
    Y2        0.65632   0.00011   0.00000  -0.00049  -0.00016   0.65616
    Z2       -0.00005  -0.00000   0.00000  -0.00000  -0.00000  -0.00005
    X3        2.85728   0.00004   0.00000   0.00148   0.00144   2.85872
    Y3       -0.49223   0.00004   0.00000   0.00063   0.00088  -0.49135
    Z3        0.00081   0.00000   0.00000   0.00000   0.00000   0.00081
    X4       -0.56899   0.00002   0.00000   0.00004   0.00007  -0.56892
    Y4        1.99007  -0.00010   0.00000  -0.00140  -0.00106   1.98901
    Z4       -1.84846   0.00014   0.00000   0.00087   0.00087  -1.84759
    X5       -0.57017   0.00002   0.00000   0.00004   0.00007  -0.57011
    Y5        1.98959  -0.00010   0.00000  -0.00140  -0.00106   1.98853
    Z5        1.84852  -0.00014   0.00000  -0.00087  -0.00087   1.84764
         Item               Value     Threshold  Converged?
 Maximum Force            0.000139     0.000450     YES
 RMS     Force            0.000075     0.000300     YES
 Maximum Displacement     0.001440     0.001800     YES
 RMS     Displacement     0.000830     0.001200     YES
 Predicted change in Energy=-3.350013D-07
 Optimization completed.
    -- Stationary point found.
 GradGradGradGradGradGradGradGradGradGradGradGradGradGradGradGradGradGrad

 Leave Link  103 at Tue Jul 19 04:19:18 2016, MaxMem=    33554432 cpu:         0.0
 (Enter /home/proyectos/fulerenos/M3C-v2.0/M3C-deps_CCC/g09-AM64L-G09RevC.01/l9999.exe)
 1\1\GINC-EINSTENIO\Freq\UB3LYP\6-311++G(3df,2p)\C3H2(3+,2)\ROOT\19-Jul
 -2016\0\\#p b3lyp/6-311++G(3df,2p) freq symmetry=Loose\\b3lyp opt\\3,2
 \C,-1.260770872,-0.437823949,-0.0004865811\C,-0.150767035,0.347307986,
 -0.0000287152\C,1.512007881,-0.260475048,0.0004273309\H,-0.301094491,1
 .053098589,-0.97816532\H,-0.3017231882,1.0528465379,0.9781929\\Version
 =EM64L-G09RevE.01\State=2-A'\HF=-113.2353503\S2=0.834225\S2-1=0.\S2A=0
 .752099\RMSD=7.450e-09\RMSF=7.457e-05\ZeroPoint=0.0203318\Thermal=0.02
 43555\Dipole=0.0782123,0.1438448,0.0000437\DipoleDeriv=1.4916476,0.336
 0744,0.0001991,0.4200923,1.1832846,0.0001577,0.0002099,0.0001307,1.007
 0271,-1.0242576,0.1125347,-0.000218,0.060559,-0.4355331,0.0000021,-0.0
 002247,0.0000188,-0.300775,1.98011,-0.2396597,0.0002868,-0.3446937,1.0
 37091,-0.0001049,0.0002732,-0.0000712,0.9916391,0.2762128,-0.1043693,0
 .0810867,-0.0679025,0.6076576,-0.2511868,0.0342636,-0.3606307,0.651012
 8,0.2762871,-0.1045801,-0.0813545,-0.0680551,0.6074999,0.2511319,-0.03
 45221,0.3605523,0.6510961\Polar=39.4451334,0.0560942,20.7365566,0.0068
 518,0.0003519,18.1459507\PG=CS [SG(C3),X(H2)]\NImag=0\\0.25453942,0.16
 085001,0.12797598,0.00009877,0.00006667,0.01167439,-0.22950614,-0.1484
 8666,-0.00009141,0.28476281,-0.12960056,-0.10766759,-0.00005493,0.1407
 8709,0.23084234,-0.00008898,-0.00006100,-0.00459201,0.00004778,0.00005
 018,0.19252597,-0.02857336,-0.00890847,-0.00001117,-0.01032138,-0.0086
 4287,0.00000188,0.04104800,-0.00334437,0.00865507,-0.00000030,-0.00490
 194,-0.01810545,-0.00000138,-0.00620901,0.01524284,-0.00001046,-0.0000
 0209,0.00262640,0.00000236,-0.00000258,-0.01962856,0.00000860,-0.00000
 155,0.01179855,0.00176547,-0.00173065,0.00365141,-0.02246622,-0.001286
 91,0.00116208,-0.00107057,0.00722809,-0.00812030,0.02015891,-0.0139567
 9,-0.01448398,0.00897523,0.00628452,-0.05254743,0.05274777,0.01188065,
 -0.00289684,0.00282369,-0.00435794,0.06277168,0.01056713,0.00851473,-0
 .00484757,-0.00555189,0.04644836,-0.08414135,-0.01073186,0.00191488,0.
 00259635,0.00450664,-0.06071512,0.10051952,0.00177461,-0.00172423,-0.0
 0364760,-0.02246906,-0.00125676,-0.00112276,-0.00108269,0.00722723,0.0
 0811980,0.00161240,0.00014956,0.00120998,0.02016474,-0.01394829,-0.014
 47947,-0.00898668,0.00631699,-0.05252187,-0.05273558,0.01187969,-0.002
 89562,-0.00281747,0.00014740,0.00715657,0.00383715,-0.00439579,0.06274
 039,-0.01056647,-0.00851832,-0.00486122,0.00559316,-0.04644103,-0.0841
 6406,0.01073256,-0.00191165,0.00260725,-0.00119983,-0.00383157,-0.0141
 2696,-0.00455942,0.06070258,0.10054498\\0.00001812,-0.00006668,0.,0.00
 005517,-0.00010672,0.,-0.00003878,-0.00003649,-0.00000002,-0.00001721,
 0.00010496,-0.00013920,-0.00001730,0.00010493,0.00013921\\\@


 ANYONE WHO IS NOT SHOCKED BY QUANTUM THEORY HAS
 NOT UNDERSTOOD IT. -- NIELS BOHR(1885-1962)
 Job cpu time:       0 days  0 hours 10 minutes 24.0 seconds.
 File lengths (MBytes):  RWF=     20 Int=      0 D2E=      0 Chk=      3 Scr=      1
 Normal termination of Gaussian 09 at Tue Jul 19 04:19:18 2016.
