 Entering Gaussian System, Link 0=/home/proyectos/fulerenos/M3C-v1.9/M3C-deps_CCC/g09-AM64L-G09RevC.01/g09
 Initial command:
 /home/proyectos/fulerenos/M3C-v1.9/M3C-deps_CCC/g09-AM64L-G09RevC.01/l1.exe "/scratch/naguirre/gaussian/Gau-8794.inp" -scrdir="/scratch/naguirre/gaussian/"
 Entering Link 1 = /home/proyectos/fulerenos/M3C-v1.9/M3C-deps_CCC/g09-AM64L-G09RevC.01/l1.exe PID=      8802.
  
 Copyright (c) 1988,1990,1992,1993,1995,1998,2003,2009,2015,
            Gaussian, Inc.  All Rights Reserved.
  
 This is part of the Gaussian(R) 09 program.  It is based on
 the Gaussian(R) 03 system (copyright 2003, Gaussian, Inc.),
 the Gaussian(R) 98 system (copyright 1998, Gaussian, Inc.),
 the Gaussian(R) 94 system (copyright 1995, Gaussian, Inc.),
 the Gaussian 92(TM) system (copyright 1992, Gaussian, Inc.),
 the Gaussian 90(TM) system (copyright 1990, Gaussian, Inc.),
 the Gaussian 88(TM) system (copyright 1988, Gaussian, Inc.),
 the Gaussian 86(TM) system (copyright 1986, Carnegie Mellon
 University), and the Gaussian 82(TM) system (copyright 1983,
 Carnegie Mellon University). Gaussian is a federally registered
 trademark of Gaussian, Inc.
  
 This software contains proprietary and confidential information,
 including trade secrets, belonging to Gaussian, Inc.
  
 This software is provided under written license and may be
 used, copied, transmitted, or stored only in accord with that
 written license.
  
 The following legend is applicable only to US Government
 contracts under FAR:
  
                    RESTRICTED RIGHTS LEGEND
  
 Use, reproduction and disclosure by the US Government is
 subject to restrictions as set forth in subparagraphs (a)
 and (c) of the Commercial Computer Software - Restricted
 Rights clause in FAR 52.227-19.
  
 Gaussian, Inc.
 340 Quinnipiac St., Bldg. 40, Wallingford CT 06492
  
  
 ---------------------------------------------------------------
 Warning -- This program may not be used in any manner that
 competes with the business of Gaussian, Inc. or will provide
 assistance to any competitor of Gaussian, Inc.  The licensee
 of this program is prohibited from giving any competitor of
 Gaussian, Inc. access to this program.  By using this program,
 the user acknowledges that Gaussian, Inc. is engaged in the
 business of creating and licensing software in the field of
 computational chemistry and represents and warrants to the
 licensee that it is not a competitor of Gaussian, Inc. and that
 it will not use this program in any manner prohibited above.
 ---------------------------------------------------------------
  

 Cite this work as:
 Gaussian 09, Revision E.01,
 M. J. Frisch, G. W. Trucks, H. B. Schlegel, G. E. Scuseria, 
 M. A. Robb, J. R. Cheeseman, G. Scalmani, V. Barone, B. Mennucci, 
 G. A. Petersson, H. Nakatsuji, M. Caricato, X. Li, H. P. Hratchian, 
 A. F. Izmaylov, J. Bloino, G. Zheng, J. L. Sonnenberg, M. Hada, 
 M. Ehara, K. Toyota, R. Fukuda, J. Hasegawa, M. Ishida, T. Nakajima, 
 Y. Honda, O. Kitao, H. Nakai, T. Vreven, J. A. Montgomery, Jr., 
 J. E. Peralta, F. Ogliaro, M. Bearpark, J. J. Heyd, E. Brothers, 
 K. N. Kudin, V. N. Staroverov, T. Keith, R. Kobayashi, J. Normand, 
 K. Raghavachari, A. Rendell, J. C. Burant, S. S. Iyengar, J. Tomasi, 
 M. Cossi, N. Rega, J. M. Millam, M. Klene, J. E. Knox, J. B. Cross, 
 V. Bakken, C. Adamo, J. Jaramillo, R. Gomperts, R. E. Stratmann, 
 O. Yazyev, A. J. Austin, R. Cammi, C. Pomelli, J. W. Ochterski, 
 R. L. Martin, K. Morokuma, V. G. Zakrzewski, G. A. Voth, 
 P. Salvador, J. J. Dannenberg, S. Dapprich, A. D. Daniels, 
 O. Farkas, J. B. Foresman, J. V. Ortiz, J. Cioslowski, 
 and D. J. Fox, Gaussian, Inc., Wallingford CT, 2013.
 
 ******************************************
 Gaussian 09:  EM64L-G09RevE.01 30-Nov-2015
                19-Jun-2016 
 ******************************************
 %NProcShared=4
 Will use up to    4 processors via shared memory.
 ---------------------------------------------
 #p b3lyp/6-311++G(3df,2p) freq symmetry=Loose
 ---------------------------------------------
 1/10=4,30=1,38=1/1,3;
 2/12=2,17=4,18=3,40=1/2;
 3/5=4,6=6,7=1216,11=2,16=1,25=1,30=1,71=2,74=-5,140=1/1,2,3;
 4//1;
 5/5=2,38=5,98=1/2;
 8/6=4,10=90,11=11/1;
 11/6=1,8=1,9=11,15=111,16=1/1,2,10;
 10/6=1/2;
 6/7=2,8=2,9=2,10=2,18=1,28=1/1;
 7/8=1,10=1,25=1/1,2,3,16;
 1/10=4,30=1/3;
 99//99;
 Leave Link    1 at Sun Jun 19 00:31:38 2016, MaxMem=           0 cpu:         0.3
 (Enter /home/proyectos/fulerenos/M3C-v1.9/M3C-deps_CCC/g09-AM64L-G09RevC.01/l101.exe)
 ---------
 b3lyp opt
 ---------
 Symbolic Z-matrix:
 Charge =  1 Multiplicity = 2
 C                    -1.4892   -0.06394   0.00084 
 C                     1.11678  -0.04331  -0.00145 
 C                    -0.18675   0.14809  -0.001 
 H                     1.53952  -1.05217   0.00176 
 H                     1.80871   0.8041   -0.00506 
 
 NAtoms=      5 NQM=        5 NQMF=       0 NMMI=      0 NMMIF=      0
                NMic=       0 NMicF=      0.
                    Isotopes and Nuclear Properties:
 (Nuclear quadrupole moments (NQMom) in fm**2, nuclear magnetic moments (NMagM)
  in nuclear magnetons)

  Atom         1           2           3           4           5
 IAtWgt=          12          12          12           1           1
 AtmWgt=  12.0000000  12.0000000  12.0000000   1.0078250   1.0078250
 NucSpn=           0           0           0           1           1
 AtZEff=   0.0000000   0.0000000   0.0000000   0.0000000   0.0000000
 NQMom=    0.0000000   0.0000000   0.0000000   0.0000000   0.0000000
 NMagM=    0.0000000   0.0000000   0.0000000   2.7928460   2.7928460
 AtZNuc=   6.0000000   6.0000000   6.0000000   1.0000000   1.0000000
 Leave Link  101 at Sun Jun 19 00:31:38 2016, MaxMem=    33554432 cpu:         0.2
 (Enter /home/proyectos/fulerenos/M3C-v1.9/M3C-deps_CCC/g09-AM64L-G09RevC.01/l103.exe)

 GradGradGradGradGradGradGradGradGradGradGradGradGradGradGradGradGradGrad
 Berny optimization.
 Initialization pass.
 Trust Radius=3.00D-01 FncErr=1.00D-07 GrdErr=1.00D-07
 Number of steps in this run=      2 maximum allowed number of steps=      2.
 GradGradGradGradGradGradGradGradGradGradGradGradGradGradGradGradGradGrad

 Leave Link  103 at Sun Jun 19 00:31:38 2016, MaxMem=    33554432 cpu:         0.1
 (Enter /home/proyectos/fulerenos/M3C-v1.9/M3C-deps_CCC/g09-AM64L-G09RevC.01/l202.exe)
                          Input orientation:                          
 ---------------------------------------------------------------------
 Center     Atomic      Atomic             Coordinates (Angstroms)
 Number     Number       Type             X           Y           Z
 ---------------------------------------------------------------------
      1          6           0       -1.489200   -0.063940    0.000843
      2          6           0        1.116782   -0.043306   -0.001451
      3          6           0       -0.186748    0.148085   -0.000999
      4          1           0        1.539516   -1.052168    0.001763
      5          1           0        1.808712    0.804095   -0.005059
 ---------------------------------------------------------------------
                    Distance matrix (angstroms):
                    1          2          3          4          5
     1  C    0.000000
     2  C    2.606065   0.000000
     3  C    1.319598   1.317506   0.000000
     4  H    3.185862   1.093854   2.102523   0.000000
     5  H    3.410241   1.094015   2.100530   1.875693   0.000000
 Stoichiometry    C3H2(1+,2)
 Framework group  CS[SG(C3H2)]
 Deg. of freedom     7
 Full point group                 CS      NOp   2
 Largest Abelian subgroup         CS      NOp   2
 Largest concise Abelian subgroup C1      NOp   1
                         Standard orientation:                         
 ---------------------------------------------------------------------
 Center     Atomic      Atomic             Coordinates (Angstroms)
 Number     Number       Type             X           Y           Z
 ---------------------------------------------------------------------
      1          6           0       -0.892558   -1.193365   -0.000000
      2          6           0        0.594551    0.946747    0.000000
      3          6           0        0.017243   -0.237541    0.000000
      4          1           0        0.000000    1.864912   -0.000000
      5          1           0        1.684581    1.040040    0.000000
 ---------------------------------------------------------------------
 Rotational constants (GHZ):    240.6091093     10.6640875     10.2115013
 Leave Link  202 at Sun Jun 19 00:31:38 2016, MaxMem=    33554432 cpu:         0.0
 (Enter /home/proyectos/fulerenos/M3C-v1.9/M3C-deps_CCC/g09-AM64L-G09RevC.01/l301.exe)
 Standard basis: 6-311++G(3df,2p) (5D, 7F)
 Ernie: Thresh=  0.10000D-02 Tol=  0.10000D-05 Strict=F.
 There are   109 symmetry adapted cartesian basis functions of A'  symmetry.
 There are    46 symmetry adapted cartesian basis functions of A"  symmetry.
 There are    94 symmetry adapted basis functions of A'  symmetry.
 There are    43 symmetry adapted basis functions of A"  symmetry.
   137 basis functions,   198 primitive gaussians,   155 cartesian basis functions
    10 alpha electrons        9 beta electrons
       nuclear repulsion energy        47.2422442370 Hartrees.
 IExCor=  402 DFT=T Ex+Corr=B3LYP ExCW=0 ScaHFX=  0.200000
 ScaDFX=  0.800000  0.720000  1.000000  0.810000 ScalE2=  1.000000  1.000000
 IRadAn=      0 IRanWt=     -1 IRanGd=            0 ICorTp=0 IEmpDi=  4
 NAtoms=    5 NActive=    5 NUniq=    5 SFac= 1.00D+00 NAtFMM=   60 NAOKFM=F Big=F
 Integral buffers will be    131072 words long.
 Raffenetti 2 integral format.
 Two-electron integral symmetry is turned on.
 Leave Link  301 at Sun Jun 19 00:31:38 2016, MaxMem=    33554432 cpu:         0.3
 (Enter /home/proyectos/fulerenos/M3C-v1.9/M3C-deps_CCC/g09-AM64L-G09RevC.01/l302.exe)
 NPDir=0 NMtPBC=     1 NCelOv=     1 NCel=       1 NClECP=     1 NCelD=      1
         NCelK=      1 NCelE2=     1 NClLst=     1 CellRange=     0.0.
 One-electron integrals computed using PRISM.
 NBasis=   137 RedAO= T EigKep=  1.45D-05  NBF=    94    43
 NBsUse=   137 1.00D-06 EigRej= -1.00D+00 NBFU=    94    43
 Precomputing XC quadrature grid using
 IXCGrd= 4 IRadAn=           0 IRanWt=          -1 IRanGd=           0 AccXCQ= 0.00D+00.
 Generated NRdTot=       0 NPtTot=           0 NUsed=           0 NTot=          32
 NSgBfM=   155   155   155   155   155 MxSgAt=     5 MxSgA2=     5.
 Leave Link  302 at Sun Jun 19 00:31:39 2016, MaxMem=    33554432 cpu:         2.8
 (Enter /home/proyectos/fulerenos/M3C-v1.9/M3C-deps_CCC/g09-AM64L-G09RevC.01/l303.exe)
 DipDrv:  MaxL=1.
 Leave Link  303 at Sun Jun 19 00:31:39 2016, MaxMem=    33554432 cpu:         0.1
 (Enter /home/proyectos/fulerenos/M3C-v1.9/M3C-deps_CCC/g09-AM64L-G09RevC.01/l401.exe)
 ExpMin= 3.60D-02 ExpMax= 4.56D+03 ExpMxC= 6.82D+02 IAcc=3 IRadAn=         5 AccDes= 0.00D+00
 Harris functional with IExCor=  402 and IRadAn=       5 diagonalized for initial guess.
 HarFok:  IExCor=  402 AccDes= 0.00D+00 IRadAn=         5 IDoV= 1 UseB2=F ITyADJ=14
 ICtDFT=  3500011 ScaDFX=  1.000000  1.000000  1.000000  1.000000
 FoFCou: FMM=F IPFlag=           0 FMFlag=      100000 FMFlg1=           0
         NFxFlg=           0 DoJE=T BraDBF=F KetDBF=T FulRan=T
         wScrn=  0.000000 ICntrl=     500 IOpCl=  0 I1Cent=   200000004 NGrid=           0
         NMat0=    1 NMatS0=      1 NMatT0=    0 NMatD0=    1 NMtDS0=    0 NMtDT0=    0
 Petite list used in FoFCou.
 Harris En= -115.065955094504    
 JPrj=0 DoOrth=F DoCkMO=F.
 Initial guess orbital symmetries:
 Alpha Orbitals:
       Occupied  (A') (A') (A') (A') (A') (A') (A') (A") (A') (A')
       Virtual   (A") (A') (A") (A') (A') (A') (A") (A') (A') (A')
                 (A") (A') (A') (A') (A") (A') (A') (A') (A') (A")
                 (A') (A') (A') (A") (A') (A') (A') (A") (A') (A")
                 (A') (A') (A') (A") (A") (A") (A') (A') (A') (A')
                 (A') (A') (A') (A") (A") (A') (A") (A') (A") (A')
                 (A') (A') (A') (A') (A') (A') (A") (A") (A') (A')
                 (A") (A") (A') (A') (A") (A') (A') (A') (A") (A')
                 (A") (A') (A') (A") (A') (A") (A') (A') (A") (A')
                 (A') (A") (A') (A") (A') (A") (A') (A") (A') (A")
                 (A') (A') (A') (A') (A") (A') (A') (A") (A') (A")
                 (A') (A') (A") (A') (A') (A") (A') (A') (A') (A")
                 (A') (A") (A') (A') (A") (A") (A') (A") (A') (A')
                 (A") (A') (A') (A') (A') (A') (A')
 Beta  Orbitals:
       Occupied  (A') (A') (A') (A') (A') (A') (A') (A") (A')
       Virtual   (A') (A") (A') (A") (A') (A') (A') (A") (A') (A')
                 (A') (A") (A') (A') (A') (A") (A') (A') (A') (A')
                 (A") (A') (A') (A') (A") (A') (A') (A') (A") (A')
                 (A") (A') (A') (A') (A") (A") (A") (A') (A') (A')
                 (A') (A') (A') (A') (A") (A") (A') (A") (A') (A")
                 (A') (A') (A') (A') (A') (A') (A') (A") (A") (A')
                 (A') (A") (A") (A') (A') (A") (A') (A') (A') (A")
                 (A') (A") (A') (A') (A") (A') (A") (A') (A') (A")
                 (A') (A') (A") (A') (A") (A') (A") (A') (A") (A')
                 (A") (A') (A') (A') (A') (A") (A') (A') (A") (A')
                 (A") (A') (A') (A") (A') (A') (A") (A') (A') (A')
                 (A") (A') (A") (A') (A') (A") (A") (A') (A") (A')
                 (A') (A") (A') (A') (A') (A') (A') (A')
 The electronic state of the initial guess is 2-A'.
 Initial guess <Sx>= 0.0000 <Sy>= 0.0000 <Sz>= 0.5000 <S**2>= 0.7500 S= 0.5000
 Leave Link  401 at Sun Jun 19 00:31:40 2016, MaxMem=    33554432 cpu:         2.4
 (Enter /home/proyectos/fulerenos/M3C-v1.9/M3C-deps_CCC/g09-AM64L-G09RevC.01/l502.exe)
 UHF open shell SCF:
 Using DIIS extrapolation, IDIIS=  1040.
 Integral symmetry usage will be decided dynamically.
 IVT=       92714 IEndB=       92714 NGot=    33554432 MDV=    33502539
 LenX=    33502539 LenY=    33478073
 Requested convergence on RMS density matrix=1.00D-08 within 128 cycles.
 Requested convergence on MAX density matrix=1.00D-06.
 Requested convergence on             energy=1.00D-06.
 No special actions if energy rises.
 Fock matrices will be formed incrementally for  20 cycles.

 Cycle   1  Pass 1  IDiag  1:
 FoFJK:  IHMeth= 1 ICntrl=       0 DoSepK=F KAlg= 0 I1Cent=   0 FoldK=F
 IRaf= 990000000 NMat=   1 IRICut=       1 DoRegI=T DoRafI=F ISym2E= 1.
 FoFCou: FMM=F IPFlag=           0 FMFlag=      100000 FMFlg1=           0
         NFxFlg=           0 DoJE=F BraDBF=F KetDBF=F FulRan=T
         wScrn=  0.000000 ICntrl=       0 IOpCl=  1 I1Cent=           0 NGrid=           0
         NMat0=    1 NMatS0=      1 NMatT0=    0 NMatD0=    1 NMtDS0=    0 NMtDT0=    0
 Petite list used in FoFCou.
 E= -114.971145077370    
 DIIS: error= 1.44D-02 at cycle   1 NSaved=   1.
 NSaved= 1 IEnMin= 1 EnMin= -114.971145077370     IErMin= 1 ErrMin= 1.44D-02
 ErrMax= 1.44D-02  0.00D+00 EMaxC= 1.00D-01 BMatC= 1.04D-01 BMatP= 1.04D-01
 IDIUse=3 WtCom= 8.56D-01 WtEn= 1.44D-01
 Coeff-Com:  0.100D+01
 Coeff-En:   0.100D+01
 Coeff:      0.100D+01
 Gap=     0.190 Goal=   None    Shift=    0.000
 Gap=     0.115 Goal=   None    Shift=    0.000
 GapD=    0.115 DampG=1.000 DampE=0.500 DampFc=0.5000 IDamp=-1.
 Damping current iteration by 5.00D-01
 RMSDP=5.77D-03 MaxDP=2.72D-01              OVMax= 1.89D-01

 Cycle   2  Pass 1  IDiag  1:
 RMSU=  2.57D-03    CP:  1.06D+00
 E= -114.974478186054     Delta-E=       -0.003333108684 Rises=F Damp=T
 DIIS: error= 1.18D-02 at cycle   2 NSaved=   2.
 NSaved= 2 IEnMin= 2 EnMin= -114.974478186054     IErMin= 2 ErrMin= 1.18D-02
 ErrMax= 1.18D-02  0.00D+00 EMaxC= 1.00D-01 BMatC= 2.68D-02 BMatP= 1.04D-01
 IDIUse=3 WtCom= 8.82D-01 WtEn= 1.18D-01
 Coeff-Com:  0.171D+00 0.829D+00
 Coeff-En:   0.414D+00 0.586D+00
 Coeff:      0.199D+00 0.801D+00
 Gap=     0.167 Goal=   None    Shift=    0.000
 Gap=     0.090 Goal=   None    Shift=    0.000
 RMSDP=2.36D-03 MaxDP=1.22D-01 DE=-3.33D-03 OVMax= 1.94D-01

 Cycle   3  Pass 1  IDiag  1:
 RMSU=  2.21D-03    CP:  1.09D+00  1.11D+00
 E= -114.985135324278     Delta-E=       -0.010657138224 Rises=F Damp=F
 DIIS: error= 1.54D-02 at cycle   3 NSaved=   3.
 NSaved= 3 IEnMin= 3 EnMin= -114.985135324278     IErMin= 2 ErrMin= 1.18D-02
 ErrMax= 1.54D-02  0.00D+00 EMaxC= 1.00D-01 BMatC= 2.89D-02 BMatP= 2.68D-02
 IDIUse=3 WtCom= 8.46D-01 WtEn= 1.54D-01
 Coeff-Com: -0.212D+00 0.566D+00 0.645D+00
 Coeff-En:   0.000D+00 0.233D+00 0.767D+00
 Coeff:     -0.179D+00 0.515D+00 0.664D+00
 Gap=     0.179 Goal=   None    Shift=    0.000
 Gap=     0.110 Goal=   None    Shift=    0.000
 RMSDP=2.12D-03 MaxDP=8.26D-02 DE=-1.07D-02 OVMax= 7.82D-02

 Cycle   4  Pass 1  IDiag  1:
 RMSU=  1.14D-03    CP:  1.11D+00  1.56D+00  3.99D-01
 E= -114.994156064825     Delta-E=       -0.009020740547 Rises=F Damp=F
 DIIS: error= 4.62D-03 at cycle   4 NSaved=   4.
 NSaved= 4 IEnMin= 4 EnMin= -114.994156064825     IErMin= 4 ErrMin= 4.62D-03
 ErrMax= 4.62D-03  0.00D+00 EMaxC= 1.00D-01 BMatC= 2.71D-03 BMatP= 2.68D-02
 IDIUse=3 WtCom= 9.54D-01 WtEn= 4.62D-02
 Coeff-Com: -0.272D-01 0.406D-01 0.266D+00 0.721D+00
 Coeff-En:   0.000D+00 0.000D+00 0.965D-01 0.903D+00
 Coeff:     -0.260D-01 0.388D-01 0.258D+00 0.729D+00
 Gap=     0.169 Goal=   None    Shift=    0.000
 Gap=     0.108 Goal=   None    Shift=    0.000
 RMSDP=4.75D-04 MaxDP=1.31D-02 DE=-9.02D-03 OVMax= 2.77D-02

 Cycle   5  Pass 1  IDiag  1:
 RMSU=  2.58D-04    CP:  1.11D+00  1.49D+00  5.60D-01  1.01D+00
 E= -114.995227079042     Delta-E=       -0.001071014217 Rises=F Damp=F
 DIIS: error= 5.02D-04 at cycle   5 NSaved=   5.
 NSaved= 5 IEnMin= 5 EnMin= -114.995227079042     IErMin= 5 ErrMin= 5.02D-04
 ErrMax= 5.02D-04  0.00D+00 EMaxC= 1.00D-01 BMatC= 1.49D-04 BMatP= 2.71D-03
 IDIUse=3 WtCom= 9.95D-01 WtEn= 5.02D-03
 Coeff-Com:  0.204D-01-0.554D-01-0.169D-01 0.227D+00 0.825D+00
 Coeff-En:   0.000D+00 0.000D+00 0.000D+00 0.000D+00 0.100D+01
 Coeff:      0.203D-01-0.552D-01-0.168D-01 0.226D+00 0.826D+00
 Gap=     0.167 Goal=   None    Shift=    0.000
 Gap=     0.110 Goal=   None    Shift=    0.000
 RMSDP=2.61D-04 MaxDP=1.17D-02 DE=-1.07D-03 OVMax= 1.79D-02

 Cycle   6  Pass 1  IDiag  1:
 RMSU=  1.12D-04    CP:  1.11D+00  1.49D+00  5.70D-01  1.17D+00  1.58D+00
 E= -114.995386574894     Delta-E=       -0.000159495852 Rises=F Damp=F
 DIIS: error= 7.08D-04 at cycle   6 NSaved=   6.
 NSaved= 6 IEnMin= 6 EnMin= -114.995386574894     IErMin= 5 ErrMin= 5.02D-04
 ErrMax= 7.08D-04  0.00D+00 EMaxC= 1.00D-01 BMatC= 7.55D-05 BMatP= 1.49D-04
 IDIUse=3 WtCom= 9.95D-01 WtEn= 5.02D-03
 Coeff-Com:  0.228D-01-0.396D-01-0.118D+00-0.137D+00 0.406D+00 0.866D+00
 Coeff-En:   0.000D+00 0.000D+00 0.000D+00 0.000D+00 0.000D+00 0.100D+01
 Coeff:      0.227D-01-0.394D-01-0.117D+00-0.136D+00 0.404D+00 0.866D+00
 Gap=     0.167 Goal=   None    Shift=    0.000
 Gap=     0.111 Goal=   None    Shift=    0.000
 RMSDP=2.84D-04 MaxDP=1.63D-02 DE=-1.59D-04 OVMax= 2.25D-02

 Cycle   7  Pass 1  IDiag  1:
 RMSU=  8.30D-05    CP:  1.10D+00  1.47D+00  6.12D-01  1.30D+00  2.22D+00
                    CP:  1.98D+00
 E= -114.995512965159     Delta-E=       -0.000126390264 Rises=F Damp=F
 DIIS: error= 4.50D-04 at cycle   7 NSaved=   7.
 NSaved= 7 IEnMin= 7 EnMin= -114.995512965159     IErMin= 7 ErrMin= 4.50D-04
 ErrMax= 4.50D-04  0.00D+00 EMaxC= 1.00D-01 BMatC= 5.28D-05 BMatP= 7.55D-05
 IDIUse=3 WtCom= 9.96D-01 WtEn= 4.50D-03
 Coeff-Com: -0.323D-02 0.208D-01-0.435D-01-0.152D+00-0.423D+00 0.539D+00
 Coeff-Com:  0.106D+01
 Coeff-En:   0.000D+00 0.000D+00 0.000D+00 0.000D+00 0.000D+00 0.000D+00
 Coeff-En:   0.100D+01
 Coeff:     -0.322D-02 0.207D-01-0.433D-01-0.151D+00-0.421D+00 0.536D+00
 Coeff:      0.106D+01
 Gap=     0.166 Goal=   None    Shift=    0.000
 Gap=     0.113 Goal=   None    Shift=    0.000
 RMSDP=3.47D-04 MaxDP=1.97D-02 DE=-1.26D-04 OVMax= 2.48D-02

 Cycle   8  Pass 1  IDiag  1:
 RMSU=  7.90D-05    CP:  1.10D+00  1.46D+00  6.36D-01  1.48D+00  3.00D+00
                    CP:  3.00D+00  1.75D+00
 E= -114.995608819608     Delta-E=       -0.000095854450 Rises=F Damp=F
 DIIS: error= 1.96D-04 at cycle   8 NSaved=   8.
 NSaved= 8 IEnMin= 8 EnMin= -114.995608819608     IErMin= 8 ErrMin= 1.96D-04
 ErrMax= 1.96D-04  0.00D+00 EMaxC= 1.00D-01 BMatC= 1.11D-05 BMatP= 5.28D-05
 IDIUse=3 WtCom= 9.98D-01 WtEn= 1.96D-03
 Coeff-Com:  0.302D-03-0.422D-03 0.194D-01 0.698D-01 0.387D-01-0.149D+00
 Coeff-Com: -0.746D+00 0.177D+01
 Coeff-En:   0.000D+00 0.000D+00 0.000D+00 0.000D+00 0.000D+00 0.000D+00
 Coeff-En:   0.000D+00 0.100D+01
 Coeff:      0.302D-03-0.421D-03 0.193D-01 0.697D-01 0.386D-01-0.149D+00
 Coeff:     -0.744D+00 0.177D+01
 Gap=     0.165 Goal=   None    Shift=    0.000
 Gap=     0.113 Goal=   None    Shift=    0.000
 RMSDP=2.77D-04 MaxDP=1.61D-02 DE=-9.59D-05 OVMax= 2.03D-02

 Cycle   9  Pass 1  IDiag  1:
 RMSU=  1.55D-04    CP:  1.10D+00  1.45D+00  6.53D-01  1.61D+00  3.00D+00
                    CP:  3.00D+00  2.60D+00  2.85D+00
 E= -114.995645482822     Delta-E=       -0.000036663213 Rises=F Damp=F
 DIIS: error= 8.94D-05 at cycle   9 NSaved=   9.
 NSaved= 9 IEnMin= 9 EnMin= -114.995645482822     IErMin= 9 ErrMin= 8.94D-05
 ErrMax= 8.94D-05  0.00D+00 EMaxC= 1.00D-01 BMatC= 2.70D-06 BMatP= 1.11D-05
 IDIUse=1 WtCom= 1.00D+00 WtEn= 0.00D+00
 Coeff-Com:  0.393D-02-0.913D-02 0.434D-02 0.452D-01 0.156D+00-0.101D+00
 Coeff-Com: -0.537D+00 0.305D+00 0.113D+01
 Coeff:      0.393D-02-0.913D-02 0.434D-02 0.452D-01 0.156D+00-0.101D+00
 Coeff:     -0.537D+00 0.305D+00 0.113D+01
 Gap=     0.164 Goal=   None    Shift=    0.000
 Gap=     0.113 Goal=   None    Shift=    0.000
 RMSDP=1.30D-04 MaxDP=7.39D-03 DE=-3.67D-05 OVMax= 9.30D-03

 Cycle  10  Pass 1  IDiag  1:
 RMSU=  6.96D-05    CP:  1.10D+00  1.44D+00  6.61D-01  1.66D+00  3.00D+00
                    CP:  3.00D+00  3.00D+00  3.00D+00  1.42D+00
 E= -114.995653143154     Delta-E=       -0.000007660333 Rises=F Damp=F
 DIIS: error= 5.52D-05 at cycle  10 NSaved=  10.
 NSaved=10 IEnMin=10 EnMin= -114.995653143154     IErMin=10 ErrMin= 5.52D-05
 ErrMax= 5.52D-05  0.00D+00 EMaxC= 1.00D-01 BMatC= 4.81D-07 BMatP= 2.70D-06
 IDIUse=1 WtCom= 1.00D+00 WtEn= 0.00D+00
 Coeff-Com:  0.132D-02-0.308D-02-0.510D-02-0.447D-02 0.418D-01 0.213D-01
 Coeff-Com:  0.755D-02-0.355D+00 0.689D-01 0.123D+01
 Coeff:      0.132D-02-0.308D-02-0.510D-02-0.447D-02 0.418D-01 0.213D-01
 Coeff:      0.755D-02-0.355D+00 0.689D-01 0.123D+01
 Gap=     0.164 Goal=   None    Shift=    0.000
 Gap=     0.113 Goal=   None    Shift=    0.000
 RMSDP=7.79D-05 MaxDP=4.53D-03 DE=-7.66D-06 OVMax= 5.73D-03

 Cycle  11  Pass 1  IDiag  1:
 RMSU=  2.08D-05    CP:  1.10D+00  1.44D+00  6.65D-01  1.69D+00  3.00D+00
                    CP:  3.00D+00  3.00D+00  3.00D+00  1.66D+00  1.74D+00
 E= -114.995654895754     Delta-E=       -0.000001752600 Rises=F Damp=F
 DIIS: error= 2.09D-05 at cycle  11 NSaved=  11.
 NSaved=11 IEnMin=11 EnMin= -114.995654895754     IErMin=11 ErrMin= 2.09D-05
 ErrMax= 2.09D-05  0.00D+00 EMaxC= 1.00D-01 BMatC= 4.95D-08 BMatP= 4.81D-07
 IDIUse=1 WtCom= 1.00D+00 WtEn= 0.00D+00
 Coeff-Com: -0.388D-03 0.101D-02-0.921D-03-0.323D-02-0.115D-01 0.288D-02
 Coeff-Com:  0.428D-01 0.434D-01-0.152D+00-0.238D+00 0.132D+01
 Coeff:     -0.388D-03 0.101D-02-0.921D-03-0.323D-02-0.115D-01 0.288D-02
 Coeff:      0.428D-01 0.434D-01-0.152D+00-0.238D+00 0.132D+01
 Gap=     0.164 Goal=   None    Shift=    0.000
 Gap=     0.113 Goal=   None    Shift=    0.000
 RMSDP=1.31D-05 MaxDP=6.57D-04 DE=-1.75D-06 OVMax= 9.74D-04

 Cycle  12  Pass 1  IDiag  1:
 RMSU=  3.22D-06    CP:  1.10D+00  1.44D+00  6.66D-01  1.70D+00  3.00D+00
                    CP:  3.00D+00  3.00D+00  3.00D+00  1.70D+00  1.88D+00
                    CP:  1.22D+00
 E= -114.995655009289     Delta-E=       -0.000000113535 Rises=F Damp=F
 DIIS: error= 9.12D-06 at cycle  12 NSaved=  12.
 NSaved=12 IEnMin=12 EnMin= -114.995655009289     IErMin=12 ErrMin= 9.12D-06
 ErrMax= 9.12D-06  0.00D+00 EMaxC= 1.00D-01 BMatC= 5.11D-09 BMatP= 4.95D-08
 IDIUse=1 WtCom= 1.00D+00 WtEn= 0.00D+00
 Coeff-Com:  0.148D-04-0.290D-04 0.810D-03 0.142D-02 0.750D-03-0.429D-02
 Coeff-Com: -0.186D-01 0.388D-01 0.210D-01-0.111D+00-0.212D+00 0.128D+01
 Coeff:      0.148D-04-0.290D-04 0.810D-03 0.142D-02 0.750D-03-0.429D-02
 Coeff:     -0.186D-01 0.388D-01 0.210D-01-0.111D+00-0.212D+00 0.128D+01
 Gap=     0.164 Goal=   None    Shift=    0.000
 Gap=     0.113 Goal=   None    Shift=    0.000
 RMSDP=4.91D-06 MaxDP=3.06D-04 DE=-1.14D-07 OVMax= 3.67D-04

 Cycle  13  Pass 1  IDiag  1:
 RMSU=  7.15D-07    CP:  1.10D+00  1.44D+00  6.66D-01  1.70D+00  3.00D+00
                    CP:  3.00D+00  3.00D+00  3.00D+00  1.72D+00  1.92D+00
                    CP:  1.30D+00  1.21D+00
 E= -114.995655023063     Delta-E=       -0.000000013774 Rises=F Damp=F
 DIIS: error= 3.73D-06 at cycle  13 NSaved=  13.
 NSaved=13 IEnMin=13 EnMin= -114.995655023063     IErMin=13 ErrMin= 3.73D-06
 ErrMax= 3.73D-06  0.00D+00 EMaxC= 1.00D-01 BMatC= 8.01D-10 BMatP= 5.11D-09
 IDIUse=1 WtCom= 1.00D+00 WtEn= 0.00D+00
 Coeff-Com:  0.586D-04-0.143D-03-0.141D-03 0.237D-03 0.169D-02 0.105D-02
 Coeff-Com: -0.298D-02-0.825D-02 0.906D-02 0.399D-01-0.641D-01-0.318D+00
 Coeff-Com:  0.134D+01
 Coeff:      0.586D-04-0.143D-03-0.141D-03 0.237D-03 0.169D-02 0.105D-02
 Coeff:     -0.298D-02-0.825D-02 0.906D-02 0.399D-01-0.641D-01-0.318D+00
 Coeff:      0.134D+01
 Gap=     0.164 Goal=   None    Shift=    0.000
 Gap=     0.113 Goal=   None    Shift=    0.000
 RMSDP=5.43D-07 MaxDP=1.93D-05 DE=-1.38D-08 OVMax= 7.49D-05

 Cycle  14  Pass 1  IDiag  1:
 RMSU=  2.55D-07    CP:  1.10D+00  1.44D+00  6.66D-01  1.70D+00  3.00D+00
                    CP:  3.00D+00  3.00D+00  3.00D+00  1.72D+00  1.92D+00
                    CP:  1.30D+00  1.24D+00  1.46D+00
 E= -114.995655025489     Delta-E=       -0.000000002426 Rises=F Damp=F
 DIIS: error= 1.79D-06 at cycle  14 NSaved=  14.
 NSaved=14 IEnMin=14 EnMin= -114.995655025489     IErMin=14 ErrMin= 1.79D-06
 ErrMax= 1.79D-06  0.00D+00 EMaxC= 1.00D-01 BMatC= 2.74D-10 BMatP= 8.01D-10
 IDIUse=1 WtCom= 1.00D+00 WtEn= 0.00D+00
 Coeff-Com: -0.203D-04 0.473D-04-0.243D-03-0.577D-03-0.123D-02 0.169D-02
 Coeff-Com:  0.551D-02-0.591D-02-0.136D-01 0.151D-01 0.888D-01-0.263D+00
 Coeff-Com: -0.401D+00 0.157D+01
 Coeff:     -0.203D-04 0.473D-04-0.243D-03-0.577D-03-0.123D-02 0.169D-02
 Coeff:      0.551D-02-0.591D-02-0.136D-01 0.151D-01 0.888D-01-0.263D+00
 Coeff:     -0.401D+00 0.157D+01
 Gap=     0.164 Goal=   None    Shift=    0.000
 Gap=     0.113 Goal=   None    Shift=    0.000
 RMSDP=8.72D-07 MaxDP=4.84D-05 DE=-2.43D-09 OVMax= 5.63D-05

 Cycle  15  Pass 1  IDiag  1:
 RMSU=  1.31D-07    CP:  1.10D+00  1.44D+00  6.66D-01  1.70D+00  3.00D+00
                    CP:  3.00D+00  3.00D+00  3.00D+00  1.72D+00  1.93D+00
                    CP:  1.31D+00  1.22D+00  1.80D+00  1.71D+00
 E= -114.995655026298     Delta-E=       -0.000000000809 Rises=F Damp=F
 DIIS: error= 6.07D-07 at cycle  15 NSaved=  15.
 NSaved=15 IEnMin=15 EnMin= -114.995655026298     IErMin=15 ErrMin= 6.07D-07
 ErrMax= 6.07D-07  0.00D+00 EMaxC= 1.00D-01 BMatC= 2.94D-11 BMatP= 2.74D-10
 IDIUse=1 WtCom= 1.00D+00 WtEn= 0.00D+00
 Coeff-Com: -0.797D-05 0.207D-04 0.579D-05-0.579D-04-0.432D-03 0.135D-03
 Coeff-Com:  0.673D-03 0.230D-02-0.276D-02-0.910D-02 0.210D-01 0.608D-01
 Coeff-Com: -0.324D+00 0.109D+00 0.114D+01
 Coeff:     -0.797D-05 0.207D-04 0.579D-05-0.579D-04-0.432D-03 0.135D-03
 Coeff:      0.673D-03 0.230D-02-0.276D-02-0.910D-02 0.210D-01 0.608D-01
 Coeff:     -0.324D+00 0.109D+00 0.114D+01
 Gap=     0.164 Goal=   None    Shift=    0.000
 Gap=     0.113 Goal=   None    Shift=    0.000
 RMSDP=2.58D-07 MaxDP=1.50D-05 DE=-8.09D-10 OVMax= 2.11D-05

 Cycle  16  Pass 1  IDiag  1:
 RMSU=  3.93D-08    CP:  1.10D+00  1.44D+00  6.66D-01  1.70D+00  3.00D+00
                    CP:  3.00D+00  3.00D+00  3.00D+00  1.72D+00  1.93D+00
                    CP:  1.31D+00  1.22D+00  1.86D+00  2.03D+00  1.27D+00
 E= -114.995655026393     Delta-E=       -0.000000000095 Rises=F Damp=F
 DIIS: error= 8.26D-08 at cycle  16 NSaved=  16.
 NSaved=16 IEnMin=16 EnMin= -114.995655026393     IErMin=16 ErrMin= 8.26D-08
 ErrMax= 8.26D-08  0.00D+00 EMaxC= 1.00D-01 BMatC= 8.83D-13 BMatP= 2.94D-11
 IDIUse=1 WtCom= 1.00D+00 WtEn= 0.00D+00
 Coeff-Com:  0.131D-05-0.303D-05 0.140D-04 0.353D-04 0.423D-04-0.101D-03
 Coeff-Com: -0.233D-03 0.363D-03 0.708D-03-0.768D-03-0.506D-02 0.152D-01
 Coeff-Com:  0.306D-01-0.108D+00-0.159D-01 0.108D+01
 Coeff:      0.131D-05-0.303D-05 0.140D-04 0.353D-04 0.423D-04-0.101D-03
 Coeff:     -0.233D-03 0.363D-03 0.708D-03-0.768D-03-0.506D-02 0.152D-01
 Coeff:      0.306D-01-0.108D+00-0.159D-01 0.108D+01
 Gap=     0.164 Goal=   None    Shift=    0.000
 Gap=     0.113 Goal=   None    Shift=    0.000
 RMSDP=4.97D-08 MaxDP=2.85D-06 DE=-9.50D-11 OVMax= 3.56D-06

 Cycle  17  Pass 1  IDiag  1:
 RMSU=  6.93D-09    CP:  1.10D+00  1.44D+00  6.66D-01  1.70D+00  3.00D+00
                    CP:  3.00D+00  3.00D+00  3.00D+00  1.72D+00  1.93D+00
                    CP:  1.31D+00  1.22D+00  1.87D+00  2.06D+00  1.33D+00
                    CP:  1.17D+00
 E= -114.995655026394     Delta-E=       -0.000000000001 Rises=F Damp=F
 DIIS: error= 1.32D-08 at cycle  17 NSaved=  17.
 NSaved=17 IEnMin=17 EnMin= -114.995655026394     IErMin=17 ErrMin= 1.32D-08
 ErrMax= 1.32D-08  0.00D+00 EMaxC= 1.00D-01 BMatC= 4.35D-14 BMatP= 8.83D-13
 IDIUse=1 WtCom= 1.00D+00 WtEn= 0.00D+00
 Coeff-Com:  0.116D-06-0.499D-06 0.144D-06 0.242D-05 0.131D-04-0.962D-05
 Coeff-Com: -0.277D-04-0.821D-04 0.602D-04 0.385D-03-0.724D-03-0.337D-02
 Coeff-Com:  0.157D-01-0.767D-02-0.546D-01 0.430D-02 0.105D+01
 Coeff:      0.116D-06-0.499D-06 0.144D-06 0.242D-05 0.131D-04-0.962D-05
 Coeff:     -0.277D-04-0.821D-04 0.602D-04 0.385D-03-0.724D-03-0.337D-02
 Coeff:      0.157D-01-0.767D-02-0.546D-01 0.430D-02 0.105D+01
 Gap=     0.164 Goal=   None    Shift=    0.000
 Gap=     0.113 Goal=   None    Shift=    0.000
 RMSDP=1.47D-08 MaxDP=8.65D-07 DE=-9.95D-13 OVMax= 9.51D-07

 Cycle  18  Pass 1  IDiag  1:
 RMSU=  1.78D-09    CP:  1.10D+00  1.44D+00  6.66D-01  1.70D+00  3.00D+00
                    CP:  3.00D+00  3.00D+00  3.00D+00  1.72D+00  1.93D+00
                    CP:  1.31D+00  1.22D+00  1.87D+00  2.06D+00  1.34D+00
                    CP:  1.20D+00  1.23D+00
 E= -114.995655026395     Delta-E=       -0.000000000001 Rises=F Damp=F
 DIIS: error= 4.31D-09 at cycle  18 NSaved=  18.
 NSaved=18 IEnMin=18 EnMin= -114.995655026395     IErMin=18 ErrMin= 4.31D-09
 ErrMax= 4.31D-09  0.00D+00 EMaxC= 1.00D-01 BMatC= 2.22D-15 BMatP= 4.35D-14
 IDIUse=1 WtCom= 1.00D+00 WtEn= 0.00D+00
 Coeff-Com:  0.275D-07 0.121D-07-0.578D-06-0.121D-05-0.527D-06 0.632D-05
 Coeff-Com:  0.521D-05-0.949D-05-0.265D-04-0.142D-04 0.249D-03-0.222D-03
 Coeff-Com: -0.313D-02 0.574D-02 0.538D-02-0.459D-01-0.860D-01 0.112D+01
 Coeff:      0.275D-07 0.121D-07-0.578D-06-0.121D-05-0.527D-06 0.632D-05
 Coeff:      0.521D-05-0.949D-05-0.265D-04-0.142D-04 0.249D-03-0.222D-03
 Coeff:     -0.313D-02 0.574D-02 0.538D-02-0.459D-01-0.860D-01 0.112D+01
 Gap=     0.164 Goal=   None    Shift=    0.000
 Gap=     0.113 Goal=   None    Shift=    0.000
 RMSDP=2.11D-09 MaxDP=8.71D-08 DE=-1.39D-12 OVMax= 9.37D-08

 SCF Done:  E(UB3LYP) =  -114.995655026     A.U. after   18 cycles
            NFock= 18  Conv=0.21D-08     -V/T= 2.0044
 <Sx>= 0.0000 <Sy>= 0.0000 <Sz>= 0.5000 <S**2>= 0.7746 S= 0.5122
 <L.S>= 0.000000000000E+00
 KE= 1.144884987738D+02 PE=-3.555582008572D+02 EE= 7.883180282003D+01
 Annihilation of the first spin contaminant:
 S**2 before annihilation     0.7746,   after     0.7503
 Leave Link  502 at Sun Jun 19 00:32:17 2016, MaxMem=    33554432 cpu:       140.2
 (Enter /home/proyectos/fulerenos/M3C-v1.9/M3C-deps_CCC/g09-AM64L-G09RevC.01/l801.exe)
 DoSCS=F DFT=T ScalE2(SS,OS)=  1.000000  1.000000
 Range of M.O.s used for correlation:     1   137
 NBasis=   137 NAE=    10 NBE=     9 NFC=     0 NFV=     0
 NROrb=    137 NOA=    10 NOB=     9 NVA=   127 NVB=   128

 **** Warning!!: The largest alpha MO coefficient is  0.14386638D+03


 **** Warning!!: The largest beta MO coefficient is  0.14418356D+03

 Leave Link  801 at Sun Jun 19 00:32:17 2016, MaxMem=    33554432 cpu:         0.1
 (Enter /home/proyectos/fulerenos/M3C-v1.9/M3C-deps_CCC/g09-AM64L-G09RevC.01/l1101.exe)
 Using compressed storage, NAtomX=     5.
 Will process      6 centers per pass.
 Leave Link 1101 at Sun Jun 19 00:32:17 2016, MaxMem=    33554432 cpu:         0.9
 (Enter /home/proyectos/fulerenos/M3C-v1.9/M3C-deps_CCC/g09-AM64L-G09RevC.01/l1102.exe)
 Symmetrizing basis deriv contribution to polar:
 IMax=3 JMax=2 DiffMx= 0.00D+00
 Leave Link 1102 at Sun Jun 19 00:32:17 2016, MaxMem=    33554432 cpu:         0.1
 (Enter /home/proyectos/fulerenos/M3C-v1.9/M3C-deps_CCC/g09-AM64L-G09RevC.01/l1110.exe)
 Forming Gx(P) for the SCF density, NAtomX=     5.
 Integral derivatives from FoFJK, PRISM(SPDF).
 Do as many integral derivatives as possible in FoFJK.
 G2DrvN: MDV=      33554288.
 G2DrvN: will do     6 centers at a time, making    1 passes.
 Calling FoFCou, ICntrl=  3107 FMM=F I1Cent=   0 AccDes= 0.00D+00.
 FoFJK:  IHMeth= 1 ICntrl=    3107 DoSepK=F KAlg= 0 I1Cent=   0 FoldK=F
 IRaf=         0 NMat=   1 IRICut=       1 DoRegI=T DoRafI=F ISym2E= 1.
 FoFCou: FMM=F IPFlag=           0 FMFlag=      100000 FMFlg1=           0
         NFxFlg=           0 DoJE=F BraDBF=F KetDBF=F FulRan=T
         wScrn=  0.000000 ICntrl=    3107 IOpCl=  1 I1Cent=           0 NGrid=           0
         NMat0=    1 NMatS0=      1 NMatT0=    0 NMatD0=    1 NMtDS0=    0 NMtDT0=    0
 Petite list used in FoFCou.
 End of G2Drv F.D. properties file   721 does not exist.
 End of G2Drv F.D. properties file   722 does not exist.
 End of G2Drv F.D. properties file   788 does not exist.
 Leave Link 1110 at Sun Jun 19 00:32:31 2016, MaxMem=    33554432 cpu:        54.3
 (Enter /home/proyectos/fulerenos/M3C-v1.9/M3C-deps_CCC/g09-AM64L-G09RevC.01/l1002.exe)
 Minotr:  UHF open shell wavefunction.
          IDoAtm=11111
          Direct CPHF calculation.
          Differentiating once with respect to electric field.
                with respect to dipole field.
          Differentiating once with respect to nuclear coordinates.
          Using symmetry in CPHF.
          Requested convergence is 1.0D-08 RMS, and 1.0D-07 maximum.
          Secondary convergence is 1.0D-12 RMS, and 1.0D-12 maximum.
          NewPWx=T KeepS1=F KeepF1=F KeepIn=T MapXYZ=F SortEE=F KeepMc=T.
          MDV=      33554104 using IRadAn=       2.
 Generate precomputed XC quadrature information.
          Solving linear equations simultaneously, MaxMat=       0.
 FoFJK:  IHMeth= 1 ICntrl=       0 DoSepK=F KAlg= 0 I1Cent=   0 FoldK=F
 IRaf= 990000000 NMat=  18 IRICut=      45 DoRegI=T DoRafI=T ISym2E= 2.
 FoFCou: FMM=F IPFlag=           0 FMFlag=      100000 FMFlg1=           0
         NFxFlg=           0 DoJE=F BraDBF=F KetDBF=F FulRan=T
         wScrn=  0.000000 ICntrl=       0 IOpCl=  1 I1Cent=           0 NGrid=           0
         NMat0=   18 NMatS0=     18 NMatT0=    0 NMatD0=   18 NMtDS0=    0 NMtDT0=    0
 Integrals replicated using symmetry in FoFCou.
          There are    18 degrees of freedom in the 1st order CPHF.  IDoFFX=6 NUNeed=     3.
     15 vectors produced by pass  0 Test12= 1.35D-14 5.56D-09 XBig12= 1.01D+02 4.46D+00.
 AX will form    15 AO Fock derivatives at one time.
     15 vectors produced by pass  1 Test12= 1.35D-14 5.56D-09 XBig12= 3.01D+01 1.36D+00.
     15 vectors produced by pass  2 Test12= 1.35D-14 5.56D-09 XBig12= 1.13D+00 4.44D-01.
     15 vectors produced by pass  3 Test12= 1.35D-14 5.56D-09 XBig12= 1.75D-02 2.97D-02.
     15 vectors produced by pass  4 Test12= 1.35D-14 5.56D-09 XBig12= 1.18D-04 2.56D-03.
     15 vectors produced by pass  5 Test12= 1.35D-14 5.56D-09 XBig12= 6.59D-07 1.14D-04.
     13 vectors produced by pass  6 Test12= 1.35D-14 5.56D-09 XBig12= 2.76D-09 8.80D-06.
      7 vectors produced by pass  7 Test12= 1.35D-14 5.56D-09 XBig12= 1.03D-11 4.68D-07.
      4 vectors produced by pass  8 Test12= 1.35D-14 5.56D-09 XBig12= 6.55D-14 4.76D-08.
      4 vectors produced by pass  9 Test12= 1.35D-14 5.56D-09 XBig12= 2.08D-14 3.81D-08.
 InvSVY:  IOpt=1 It=  1 EMax= 8.88D-16
 Solved reduced A of dimension   118 with    15 vectors.
 FullF1:  Do perturbations    1 to     3.
 Isotropic polarizability for W=    0.000000       33.05 Bohr**3.
 End of Minotr F.D. properties file   721 does not exist.
 End of Minotr F.D. properties file   722 does not exist.
 End of Minotr F.D. properties file   788 does not exist.
 Leave Link 1002 at Sun Jun 19 00:33:21 2016, MaxMem=    33554432 cpu:       199.9
 (Enter /home/proyectos/fulerenos/M3C-v1.9/M3C-deps_CCC/g09-AM64L-G09RevC.01/l601.exe)
 Copying SCF densities to generalized density rwf, IOpCl= 1 IROHF=0.

 **********************************************************************

            Population analysis using the SCF density.

 **********************************************************************

 Orbital symmetries:
 Alpha Orbitals:
       Occupied  (A') (A') (A') (A') (A') (A') (A') (A") (A') (A')
       Virtual   (A") (A') (A") (A') (A') (A') (A") (A') (A') (A')
                 (A") (A') (A') (A") (A') (A') (A') (A") (A') (A')
                 (A') (A') (A") (A') (A') (A') (A') (A") (A') (A")
                 (A') (A') (A') (A") (A") (A") (A') (A') (A') (A')
                 (A') (A') (A') (A") (A") (A') (A") (A') (A") (A')
                 (A') (A') (A') (A') (A') (A") (A') (A') (A") (A')
                 (A") (A') (A") (A") (A') (A') (A') (A') (A") (A')
                 (A") (A') (A') (A") (A") (A') (A') (A') (A") (A')
                 (A') (A") (A") (A') (A') (A") (A') (A") (A') (A")
                 (A') (A') (A') (A') (A") (A') (A') (A") (A') (A")
                 (A') (A') (A") (A') (A') (A") (A') (A') (A') (A")
                 (A') (A") (A') (A') (A") (A") (A') (A") (A') (A')
                 (A") (A') (A') (A') (A') (A') (A')
 Beta  Orbitals:
       Occupied  (A') (A') (A') (A') (A') (A') (A') (A") (A')
       Virtual   (A') (A") (A') (A") (A') (A') (A') (A") (A') (A')
                 (A') (A") (A') (A') (A') (A") (A') (A") (A') (A')
                 (A') (A') (A') (A") (A') (A') (A') (A") (A') (A')
                 (A") (A') (A') (A") (A") (A') (A") (A') (A') (A')
                 (A') (A') (A') (A") (A') (A") (A') (A") (A') (A")
                 (A') (A') (A') (A') (A') (A') (A') (A") (A") (A')
                 (A") (A') (A") (A') (A") (A') (A') (A') (A') (A")
                 (A') (A') (A") (A') (A") (A") (A') (A') (A') (A")
                 (A') (A') (A") (A") (A') (A') (A") (A') (A") (A')
                 (A") (A') (A') (A') (A') (A") (A') (A') (A") (A')
                 (A") (A') (A') (A") (A') (A') (A") (A') (A') (A')
                 (A") (A') (A") (A') (A') (A") (A") (A") (A') (A')
                 (A') (A") (A') (A') (A') (A') (A') (A')
 The electronic state is 2-A'.
 Alpha  occ. eigenvalues --  -10.57547 -10.54451 -10.53110  -1.13075  -1.02094
 Alpha  occ. eigenvalues --   -0.81539  -0.76871  -0.64126  -0.62377  -0.59494
 Alpha virt. eigenvalues --   -0.43112  -0.30846  -0.21739  -0.18364  -0.13415
 Alpha virt. eigenvalues --   -0.12493  -0.10479  -0.09410  -0.07668  -0.07360
 Alpha virt. eigenvalues --   -0.05591  -0.04100  -0.02644  -0.01629  -0.01587
 Alpha virt. eigenvalues --   -0.00106   0.02400   0.02958   0.03552   0.05789
 Alpha virt. eigenvalues --    0.07840   0.11515   0.13047   0.15170   0.16925
 Alpha virt. eigenvalues --    0.20823   0.22296   0.22396   0.25066   0.27650
 Alpha virt. eigenvalues --    0.28504   0.31717   0.32676   0.32733   0.33286
 Alpha virt. eigenvalues --    0.34826   0.35166   0.39975   0.44060   0.45743
 Alpha virt. eigenvalues --    0.52802   0.54866   0.58928   0.59006   0.61442
 Alpha virt. eigenvalues --    0.67729   0.71025   0.77494   0.79662   0.87260
 Alpha virt. eigenvalues --    0.93496   0.97539   1.03907   1.07477   1.09707
 Alpha virt. eigenvalues --    1.16109   1.16244   1.20689   1.21162   1.32374
 Alpha virt. eigenvalues --    1.33135   1.40993   1.41852   1.52340   1.55280
 Alpha virt. eigenvalues --    1.77154   1.79431   1.83185   1.97984   2.06531
 Alpha virt. eigenvalues --    2.30051   2.30286   2.32165   2.34007   2.35908
 Alpha virt. eigenvalues --    2.36111   2.42043   2.46498   2.49095   2.54211
 Alpha virt. eigenvalues --    2.55701   2.57563   2.59995   2.60184   2.64829
 Alpha virt. eigenvalues --    2.72322   2.79869   2.82623   2.90820   2.96593
 Alpha virt. eigenvalues --    3.00813   3.12187   3.27500   3.39900   3.42903
 Alpha virt. eigenvalues --    3.54874   3.69620   3.85243   3.87221   3.88432
 Alpha virt. eigenvalues --    3.91616   4.00382   4.09809   4.35816   4.83841
 Alpha virt. eigenvalues --    5.01280   5.05168   5.24373   5.70620   6.59569
 Alpha virt. eigenvalues --    6.61108   6.70213   6.72902   6.74228   6.76102
 Alpha virt. eigenvalues --    6.90080   6.91573   6.94306   7.13060   7.27382
 Alpha virt. eigenvalues --    7.28930   7.38997   7.67378   8.12002  23.49577
 Alpha virt. eigenvalues --   25.32792  25.60014
  Beta  occ. eigenvalues --  -10.56560 -10.54570 -10.52410  -1.11136  -0.99985
  Beta  occ. eigenvalues --   -0.80701  -0.75446  -0.63466  -0.58537
  Beta virt. eigenvalues --   -0.47219  -0.42550  -0.26122  -0.20736  -0.18099
  Beta virt. eigenvalues --   -0.13130  -0.12338  -0.10462  -0.09224  -0.07173
  Beta virt. eigenvalues --   -0.06974  -0.05534  -0.03715  -0.02455  -0.01494
  Beta virt. eigenvalues --   -0.01385   0.00303   0.03221   0.03495   0.03888
  Beta virt. eigenvalues --    0.06327   0.08022   0.12699   0.13658   0.15479
  Beta virt. eigenvalues --    0.17427   0.21458   0.22530   0.22766   0.26208
  Beta virt. eigenvalues --    0.27827   0.29016   0.33018   0.33150   0.33656
  Beta virt. eigenvalues --    0.34065   0.35232   0.35644   0.40176   0.44673
  Beta virt. eigenvalues --    0.46449   0.53477   0.55801   0.59382   0.59861
  Beta virt. eigenvalues --    0.61563   0.68180   0.71281   0.78694   0.80030
  Beta virt. eigenvalues --    0.87935   0.93615   0.98228   1.04610   1.08481
  Beta virt. eigenvalues --    1.11270   1.16558   1.17372   1.23314   1.23443
  Beta virt. eigenvalues --    1.33895   1.34583   1.42094   1.43715   1.54698
  Beta virt. eigenvalues --    1.56617   1.78760   1.80281   1.84385   1.98548
  Beta virt. eigenvalues --    2.08472   2.32326   2.32364   2.34587   2.35352
  Beta virt. eigenvalues --    2.37443   2.37774   2.44068   2.47811   2.49421
  Beta virt. eigenvalues --    2.55221   2.57941   2.58720   2.61178   2.62983
  Beta virt. eigenvalues --    2.67417   2.72651   2.80321   2.83970   2.91831
  Beta virt. eigenvalues --    2.98158   3.02839   3.14458   3.28724   3.40774
  Beta virt. eigenvalues --    3.44116   3.55854   3.71195   3.85918   3.88095
  Beta virt. eigenvalues --    3.89519   3.92732   4.02241   4.10683   4.37557
  Beta virt. eigenvalues --    4.85282   5.01819   5.06701   5.25034   5.71571
  Beta virt. eigenvalues --    6.62908   6.64772   6.71386   6.75573   6.76983
  Beta virt. eigenvalues --    6.78049   6.91028   6.94524   6.94922   7.13792
  Beta virt. eigenvalues --    7.29363   7.29484   7.40293   7.67920   8.13273
  Beta virt. eigenvalues --   23.50232  25.33411  25.60717
          Condensed to atoms (all electrons):
               1          2          3          4          5
     1  C    8.635616  -1.114182  -1.558185   0.035891   0.000707
     2  C   -1.114182   8.057555  -1.535874   0.381486   0.461101
     3  C   -1.558185  -1.535874   8.528007  -0.043196  -0.105850
     4  H    0.035891   0.381486  -0.043196   0.365229  -0.008073
     5  H    0.000707   0.461101  -0.105850  -0.008073   0.385941
          Atomic-Atomic Spin Densities.
               1          2          3          4          5
     1  C    0.866195  -0.289086   0.008818  -0.004296  -0.000062
     2  C   -0.289086   0.490638  -0.347467   0.001518   0.039569
     3  C    0.008818  -0.347467   0.807590   0.011991  -0.031823
     4  H   -0.004296   0.001518   0.011991   0.023206  -0.000629
     5  H   -0.000062   0.039569  -0.031823  -0.000629   0.035306
 Mulliken charges and spin densities:
               1          2
     1  C    0.000152   0.581569
     2  C   -0.250086  -0.104828
     3  C    0.715098   0.449108
     4  H    0.268662   0.031789
     5  H    0.266174   0.042361
 Sum of Mulliken charges =   1.00000   1.00000
 Mulliken charges and spin densities with hydrogens summed into heavy atoms:
               1          2
     1  C    0.000152   0.581569
     2  C    0.284750  -0.030678
     3  C    0.715098   0.449108
 APT charges:
               1
     1  C    0.049909
     2  C    0.153389
     3  C    0.324415
     4  H    0.206200
     5  H    0.266086
 Sum of APT charges =   1.00000
 APT charges with hydrogens summed into heavy atoms:
               1
     1  C    0.049909
     2  C    0.625676
     3  C    0.324415
 Electronic spatial extent (au):  <R**2>=            128.8601
 Charge=              1.0000 electrons
 Dipole moment (field-independent basis, Debye):
    X=              1.7483    Y=              2.0060    Z=              0.0000  Tot=              2.6609
 Quadrupole moment (field-independent basis, Debye-Ang):
   XX=            -12.4715   YY=             -8.1455   ZZ=            -15.5183
   XY=              2.4787   XZ=             -0.0000   YZ=              0.0000
 Traceless Quadrupole moment (field-independent basis, Debye-Ang):
   XX=             -0.4264   YY=              3.8996   ZZ=             -3.4732
   XY=              2.4787   XZ=             -0.0000   YZ=              0.0000
 Octapole moment (field-independent basis, Debye-Ang**2):
  XXX=             10.6205  YYY=             10.7905  ZZZ=              0.0000  XYY=              2.9196
  XXY=              5.8964  XXZ=              0.0000  XZZ=              0.6379  YZZ=              0.7749
  YYZ=              0.0000  XYZ=              0.0000
 Hexadecapole moment (field-independent basis, Debye-Ang**3):
 XXXX=            -51.9875 YYYY=            -81.3803 ZZZZ=            -15.3318 XXXY=            -23.7899
 XXXZ=             -0.0000 YYYX=            -27.6623 YYYZ=             -0.0000 ZZZX=             -0.0000
 ZZZY=             -0.0000 XXYY=            -25.1988 XXZZ=            -12.4364 YYZZ=            -18.3941
 XXYZ=             -0.0000 YYXZ=             -0.0000 ZZXY=             -8.6561
 N-N= 4.724224423696D+01 E-N=-3.555582008485D+02  KE= 1.144884987738D+02
 Symmetry A'   KE= 1.121894893597D+02
 Symmetry A"   KE= 2.299009414146D+00
  Exact polarizability:  32.265  17.080  47.525   0.000   0.000  19.364
 Approx polarizability:  57.538  36.985  79.161   0.000   0.000  27.320
                          Isotropic Fermi Contact Couplings
        Atom                 a.u.       MegaHertz       Gauss      10(-4) cm-1
     1  C(13)              0.18600     209.09544      74.61045      69.74673
     2  C(13)             -0.02249     -25.28256      -9.02145      -8.43336
     3  C(13)              0.02412      27.11627       9.67576       9.04501
     4  H(1)               0.01948      87.09212      31.07663      29.05081
     5  H(1)               0.02399     107.21098      38.25554      35.76173
 --------------------------------------------------------
       Center         ----  Spin Dipole Couplings  ----
                      3XX-RR        3YY-RR        3ZZ-RR
 --------------------------------------------------------
     1   Atom       -0.490099      0.812331     -0.322232
     2   Atom        0.073517      0.039895     -0.113412
     3   Atom        0.445648     -0.156784     -0.288865
     4   Atom       -0.005781      0.014443     -0.008662
     5   Atom        0.005141      0.003154     -0.008295
 --------------------------------------------------------
                        XY            XZ            YZ
 --------------------------------------------------------
     1   Atom       -0.257183     -0.000000      0.000000
     2   Atom        0.005494      0.000000      0.000000
     3   Atom       -0.277537      0.000000      0.000000
     4   Atom        0.003266      0.000000     -0.000000
     5   Atom        0.007717      0.000000      0.000000
 --------------------------------------------------------


 ---------------------------------------------------------------------------------
              Anisotropic Spin Dipole Couplings in Principal Axis System
 ---------------------------------------------------------------------------------

       Atom             a.u.   MegaHertz   Gauss  10(-4) cm-1        Axes

              Baa    -0.5390   -72.335   -25.811   -24.128  0.9824  0.1870  0.0000
     1 C(13)  Bbb    -0.3222   -43.241   -15.429   -14.423  0.0000  0.0000  1.0000
              Bcc     0.8613   115.575    41.240    38.552 -0.1870  0.9824 -0.0000
 
              Baa    -0.1134   -15.219    -5.430    -5.076  0.0000  0.0000  1.0000
     2 C(13)  Bbb     0.0390     5.236     1.868     1.747 -0.1573  0.9876 -0.0000
              Bcc     0.0744     9.983     3.562     3.330  0.9876  0.1573 -0.0000
 
              Baa    -0.2889   -38.763   -13.832   -12.930  0.0000  0.0000  1.0000
     3 C(13)  Bbb    -0.2652   -35.581   -12.696   -11.868  0.3637  0.9315  0.0000
              Bcc     0.5540    74.343    26.528    24.798  0.9315 -0.3637  0.0000
 
              Baa    -0.0087    -4.622    -1.649    -1.542  0.0000  0.0000  1.0000
     4 H(1)   Bbb    -0.0063    -3.359    -1.199    -1.120  0.9878 -0.1555  0.0000
              Bcc     0.0150     7.981     2.848     2.662  0.1555  0.9878 -0.0000
 
              Baa    -0.0083    -4.426    -1.579    -1.476  0.0000  0.0000  1.0000
     5 H(1)   Bbb    -0.0036    -1.939    -0.692    -0.647 -0.6604  0.7509  0.0000
              Bcc     0.0119     6.365     2.271     2.123  0.7509  0.6604 -0.0000
 

 ---------------------------------------------------------------------------------

 No NMR shielding tensors so no spin-rotation constants.
 Leave Link  601 at Sun Jun 19 00:33:21 2016, MaxMem=    33554432 cpu:         1.4
 (Enter /home/proyectos/fulerenos/M3C-v1.9/M3C-deps_CCC/g09-AM64L-G09RevC.01/l701.exe)
 Compute integral second derivatives.
 ... and contract with generalized density number  0.
 Leave Link  701 at Sun Jun 19 00:33:22 2016, MaxMem=    33554432 cpu:         1.1
 (Enter /home/proyectos/fulerenos/M3C-v1.9/M3C-deps_CCC/g09-AM64L-G09RevC.01/l702.exe)
 L702 exits ... SP integral derivatives will be done elsewhere.
 Leave Link  702 at Sun Jun 19 00:33:22 2016, MaxMem=    33554432 cpu:         0.0
 (Enter /home/proyectos/fulerenos/M3C-v1.9/M3C-deps_CCC/g09-AM64L-G09RevC.01/l703.exe)
 Compute integral second derivatives, UseDBF=F ICtDFT=           0.
 Integral derivatives from FoFJK, PRISM(SPDF).
 Calling FoFJK, ICntrl=    100127 FMM=F ISym2X=1 I1Cent= 0 IOpClX= 1 NMat=1 NMatS=1 NMatT=0.
 FoFJK:  IHMeth= 1 ICntrl=  100127 DoSepK=F KAlg= 0 I1Cent=   0 FoldK=F
 IRaf=         0 NMat=   1 IRICut=       1 DoRegI=T DoRafI=F ISym2E= 1.
 FoFCou: FMM=F IPFlag=           0 FMFlag=      100000 FMFlg1=         800
         NFxFlg=           0 DoJE=F BraDBF=F KetDBF=F FulRan=T
         wScrn=  0.000000 ICntrl=  100127 IOpCl=  1 I1Cent=           0 NGrid=           0
         NMat0=    1 NMatS0=      1 NMatT0=    0 NMatD0=    1 NMtDS0=    0 NMtDT0=    0
 Petite list used in FoFCou.
 Leave Link  703 at Sun Jun 19 00:33:42 2016, MaxMem=    33554432 cpu:        79.8
 (Enter /home/proyectos/fulerenos/M3C-v1.9/M3C-deps_CCC/g09-AM64L-G09RevC.01/l716.exe)
 Dipole        = 6.87822757D-01 7.89220592D-01 6.77383598D-19
 Polarizability= 3.22650457D+01 1.70795800D+01 4.75253061D+01
                 2.59628628D-08 2.16413166D-08 1.93635631D+01
 Full mass-weighted force constant matrix:
 Low frequencies ---   -7.4713   -0.0009   -0.0004    0.0001    9.4743   10.0657
 Low frequencies ---  256.1484  282.1064  858.9325
 Diagonal vibrational polarizability:
        4.2967982       7.3904068       1.5760155
 Harmonic frequencies (cm**-1), IR intensities (KM/Mole), Raman scattering
 activities (A**4/AMU), depolarization ratios for plane and unpolarized
 incident light, reduced masses (AMU), force constants (mDyne/A),
 and normal coordinates:
                      1                      2                      3
                     A"                     A'                     A'
 Frequencies --    256.1483               282.1054               858.9325
 Red. masses --      3.2434                 3.5080                 1.5410
 Frc consts  --      0.1254                 0.1645                 0.6698
 IR Inten    --      2.5985                24.6838                39.6042
  Atom  AN      X      Y      Z        X      Y      Z        X      Y      Z
     1   6    -0.00   0.00  -0.21    -0.12   0.23   0.00    -0.07  -0.09   0.00
     2   6    -0.00  -0.00  -0.12    -0.11  -0.01   0.00     0.16  -0.02  -0.00
     3   6     0.00  -0.00   0.38     0.30  -0.24  -0.00    -0.06   0.08  -0.00
     4   1    -0.00  -0.00   0.18    -0.59  -0.32  -0.00    -0.47  -0.39   0.00
     5   1    -0.00   0.00  -0.87    -0.17   0.54   0.00     0.08   0.76   0.00
                      4                      5                      6
                     A"                     A'                     A'
 Frequencies --   1055.7697              1057.3248              1375.5092
 Red. masses --      1.3500                 4.1998                 1.1755
 Frc consts  --      0.8866                 2.7663                 1.3104
 IR Inten    --     21.1326                18.8140                32.9731
  Atom  AN      X      Y      Z        X      Y      Z        X      Y      Z
     1   6    -0.00  -0.00  -0.00     0.29   0.28  -0.00     0.04   0.04  -0.00
     2   6     0.00   0.00  -0.17    -0.05  -0.29  -0.00    -0.03  -0.08  -0.00
     3   6     0.00  -0.00   0.05    -0.19   0.08   0.00    -0.05  -0.05   0.00
     4   1     0.00   0.00   0.70    -0.54  -0.62   0.00     0.59   0.33   0.00
     5   1     0.00   0.00   0.69    -0.09  -0.15   0.00    -0.10   0.72   0.00
                      7                      8                      9
                     A'                     A'                     A'
 Frequencies --   1607.8033              3032.7338              3122.3640
 Red. masses --      9.5456                 1.0532                 1.1143
 Frc consts  --     14.5385                 5.7075                 6.4003
 IR Inten    --     18.4108               176.7622                95.9930
  Atom  AN      X      Y      Z        X      Y      Z        X      Y      Z
     1   6    -0.17  -0.14   0.00     0.00   0.00  -0.00    -0.00  -0.00  -0.00
     2   6    -0.25  -0.42   0.00    -0.03  -0.06   0.00    -0.09   0.04  -0.00
     3   6     0.41   0.57  -0.00     0.00   0.00   0.00    -0.00   0.00   0.00
     4   1     0.35  -0.05  -0.00    -0.39   0.59  -0.00     0.37  -0.60   0.00
     5   1    -0.31   0.06  -0.00     0.70   0.06  -0.00     0.70   0.07  -0.00

 -------------------
 - Thermochemistry -
 -------------------
 Temperature   298.150 Kelvin.  Pressure   1.00000 Atm.
 Atom     1 has atomic number  6 and mass  12.00000
 Atom     2 has atomic number  6 and mass  12.00000
 Atom     3 has atomic number  6 and mass  12.00000
 Atom     4 has atomic number  1 and mass   1.00783
 Atom     5 has atomic number  1 and mass   1.00783
 Molecular mass:    38.01565 amu.
 Principal axes and moments of inertia in atomic units:
                           1         2         3
     Eigenvalues --     7.50072 169.23541 176.73613
           X            0.56566   0.82464   0.00000
           Y            0.82464  -0.56566   0.00000
           Z           -0.00000  -0.00000   1.00000
 This molecule is an asymmetric top.
 Rotational symmetry number  1.
 Rotational temperatures (Kelvin)     11.54740     0.51179     0.49007
 Rotational constants (GHZ):         240.60911    10.66409    10.21150
 Zero-point vibrational energy      75656.0 (Joules/Mol)
                                   18.08221 (Kcal/Mol)
 Warning -- explicit consideration of   2 degrees of freedom as
           vibrations may cause significant error
 Vibrational temperatures:    368.54   405.89  1235.81  1519.02  1521.25
          (Kelvin)           1979.05  2313.27  4363.42  4492.38
 
 Zero-point correction=                           0.028816 (Hartree/Particle)
 Thermal correction to Energy=                    0.032703
 Thermal correction to Enthalpy=                  0.033647
 Thermal correction to Gibbs Free Energy=         0.004281
 Sum of electronic and zero-point Energies=           -114.966839
 Sum of electronic and thermal Energies=              -114.962952
 Sum of electronic and thermal Enthalpies=            -114.962008
 Sum of electronic and thermal Free Energies=         -114.991374
 
                     E (Thermal)             CV                S
                      KCal/Mol        Cal/Mol-Kelvin    Cal/Mol-Kelvin
 Total                   20.521             10.784             61.807
 Electronic               0.000              0.000              1.377
 Translational            0.889              2.981             36.835
 Rotational               0.889              2.981             20.045
 Vibrational             18.744              4.823              3.549
 Vibration     1          0.666              1.752              1.688
 Vibration     2          0.681              1.707              1.521
                       Q            Log10(Q)             Ln(Q)
 Total Bot       0.107418D-01         -1.968922         -4.533610
 Total V=0       0.192937D+12         11.285416         25.985630
 Vib (Bot)       0.108728D-12        -12.963657        -29.849923
 Vib (Bot)    1  0.759706D+00         -0.119354         -0.274824
 Vib (Bot)    2  0.680766D+00         -0.167002         -0.384537
 Vib (V=0)       0.195290D+01          0.290681          0.669317
 Vib (V=0)    1  0.140948D+01          0.149059          0.343221
 Vib (V=0)    2  0.134465D+01          0.128611          0.296137
 Electronic      0.200000D+01          0.301030          0.693147
 Translational   0.921295D+07          6.964399         16.036121
 Rotational      0.536174D+04          3.729306          8.587045
 
                                                              b3lyp opt
                                                             IR Spectrum
 
     3   3                                                         1         1           11                                          
     1   0                                                         6         3           00       8                      22          
     2   3                                                         0         7           55       5                      85          
     2   3                                                         8         6           76       9                      26          
 
     X   X                                                         X         X           XX       X                      XX          
     X   X                                                         X         X           XX       X                      X           
     X   X                                                                   X                    X                      X           
     X   X                                                                   X                    X                                  
     X   X                                                                                                                           
     X   X                                                                                                                           
     X   X                                                                                                                           
     X   X                                                                                                                           
     X   X                                                                                                                           
     X   X                                                                                                                           
     X   X                                                                                                                           
         X                                                                                                                           
         X                                                                                                                           
         X                                                                                                                           
         X                                                                                                                           
         X                                                                                                                           
         X                                                                                                                           
         X                                                                                                                           
         X                                                                                                                           
         X                                                                                                                           
 
 ***** Axes restored to original set *****
 -------------------------------------------------------------------
 Center     Atomic                   Forces (Hartrees/Bohr)
 Number     Number              X              Y              Z
 -------------------------------------------------------------------
      1        6           0.000017624    0.000000973   -0.000000018
      2        6           0.000014719    0.000000706   -0.000000015
      3        6          -0.000027929    0.000003059    0.000000013
      4        1           0.000002744   -0.000005203    0.000000016
      5        1          -0.000007158    0.000000465    0.000000004
 -------------------------------------------------------------------
 Cartesian Forces:  Max     0.000027929 RMS     0.000009675
 Z-matrix is all fixed cartesians, so copy forces.
 Force constants in Cartesian coordinates: 
                1             2             3             4             5 
      1  0.354348D+00
      2  0.685999D-01  0.226132D-01
      3 -0.541439D-03 -0.121606D-03  0.481752D-02
      4 -0.696870D-01  0.135496D-02  0.579719D-04  0.731822D+00
      5  0.303394D-01  0.166090D-01 -0.712569D-04 -0.169674D-01  0.535278D+00
      6 -0.446548D-04 -0.465004D-04  0.380323D-02 -0.454819D-03 -0.142410D-02
      7 -0.286767D+00 -0.696987D-01  0.483905D-03 -0.436092D+00  0.246308D-01
      8 -0.940041D-01 -0.370974D-01  0.179238D-03  0.537341D-01 -0.693762D-01
      9  0.569964D-03  0.158478D-03 -0.915349D-02  0.143780D-03  0.652734D-04
     10 -0.110516D-02 -0.173268D-02  0.643614D-05 -0.801295D-01  0.994656D-01
     11 -0.549033D-02 -0.610720D-03  0.418695D-05  0.923851D-01 -0.274874D+00
     12  0.197414D-04  0.000000D+00 -0.752660D-03 -0.296886D-03  0.729907D-03
     13  0.321183D-02  0.147651D-02 -0.687339D-05 -0.145914D+00 -0.137468D+00
     14  0.555154D-03 -0.151410D-02  0.943830D-05 -0.130507D+00 -0.207637D+00
     15 -0.361145D-05  0.865131D-05  0.128539D-02  0.549953D-03  0.700179D-03
                6             7             8             9            10 
      6  0.128991D+00
      7  0.246827D-03  0.769353D+00
      8  0.404152D-04  0.329483D-01  0.100848D+00
      9 -0.450003D-01 -0.749219D-03 -0.283393D-03  0.287610D-01
     10 -0.321956D-03 -0.167306D-01  0.243222D-01 -0.593142D-04  0.878441D-01
     11  0.735955D-03  0.909565D-02 -0.118503D-02  0.483100D-04 -0.105589D+00
     12 -0.447395D-01 -0.540066D-05  0.353047D-04  0.146529D-01  0.312151D-03
     13  0.574602D-03 -0.297630D-01 -0.170005D-01  0.947897D-04  0.101212D-01
     14  0.694233D-03  0.302393D-02  0.681036D-02  0.113316D-04 -0.164661D-01
     15 -0.430542D-01  0.238881D-04  0.284349D-04  0.107400D-01  0.626832D-04
               11            12            13            14            15 
     11  0.290079D+00
     12 -0.881729D-03  0.155901D-01
     13  0.959857D-02 -0.296062D-04  0.162344D+00
     14 -0.134096D-01  0.115540D-03  0.143394D+00  0.215751D+00
     15  0.932775D-04  0.152493D-01 -0.632913D-03 -0.830542D-03  0.157795D-01
 Leave Link  716 at Sun Jun 19 00:33:42 2016, MaxMem=    33554432 cpu:         0.1
 (Enter /home/proyectos/fulerenos/M3C-v1.9/M3C-deps_CCC/g09-AM64L-G09RevC.01/l103.exe)

 GradGradGradGradGradGradGradGradGradGradGradGradGradGradGradGradGradGrad
 Berny optimization.
 Search for a local minimum.
 Step number   1 out of a maximum of    2
 All quantities printed in internal units (Hartrees-Bohrs-Radians)
 Second derivative matrix not updated -- analytic derivatives used.
 The second derivative matrix:
                          X1        Y1        Z1        X2        Y2
           X1           0.35435
           Y1           0.06860   0.02261
           Z1          -0.00054  -0.00012   0.00482
           X2          -0.06969   0.00135   0.00006   0.73182
           Y2           0.03034   0.01661  -0.00007  -0.01697   0.53528
           Z2          -0.00004  -0.00005   0.00380  -0.00045  -0.00142
           X3          -0.28677  -0.06970   0.00048  -0.43609   0.02463
           Y3          -0.09400  -0.03710   0.00018   0.05373  -0.06938
           Z3           0.00057   0.00016  -0.00915   0.00014   0.00007
           X4          -0.00111  -0.00173   0.00001  -0.08013   0.09947
           Y4          -0.00549  -0.00061   0.00000   0.09239  -0.27487
           Z4           0.00002   0.00000  -0.00075  -0.00030   0.00073
           X5           0.00321   0.00148  -0.00001  -0.14591  -0.13747
           Y5           0.00056  -0.00151   0.00001  -0.13051  -0.20764
           Z5          -0.00000   0.00001   0.00129   0.00055   0.00070
                          Z2        X3        Y3        Z3        X4
           Z2           0.12899
           X3           0.00025   0.76935
           Y3           0.00004   0.03295   0.10085
           Z3          -0.04500  -0.00075  -0.00028   0.02876
           X4          -0.00032  -0.01673   0.02432  -0.00006   0.08784
           Y4           0.00074   0.00910  -0.00119   0.00005  -0.10559
           Z4          -0.04474  -0.00001   0.00004   0.01465   0.00031
           X5           0.00057  -0.02976  -0.01700   0.00009   0.01012
           Y5           0.00069   0.00302   0.00681   0.00001  -0.01647
           Z5          -0.04305   0.00002   0.00003   0.01074   0.00006
                          Y4        Z4        X5        Y5        Z5
           Y4           0.29008
           Z4          -0.00088   0.01559
           X5           0.00960  -0.00003   0.16234
           Y5          -0.01341   0.00012   0.14339   0.21575
           Z5           0.00009   0.01525  -0.00063  -0.00083   0.01578
 ITU=  0
     Eigenvalues ---    0.01389   0.01685   0.08109   0.11036   0.15510
     Eigenvalues ---    0.30037   0.65410   0.74385   1.23942
 Angle between quadratic step and forces=  60.27 degrees.
 ClnCor:  largest displacement from symmetrization is 1.84D-12 for atom     3.
 Linear search not attempted -- first point.
 ClnCor:  largest displacement from symmetrization is 5.18D-15 for atom     5.
 B after Tr=     0.000008    0.000005   -0.000000
         Rot=    1.000000    0.000000    0.000000    0.000002 Ang=   0.00 deg.
 Variable       Old X    -DE/DX   Delta X   Delta X   Delta X     New X
                                 (Linear)    (Quad)   (Total)
    X1       -2.81418   0.00002   0.00000   0.00004   0.00005  -2.81413
    Y1       -0.12083   0.00000   0.00000   0.00000   0.00002  -0.12081
    Z1        0.00161  -0.00000   0.00000  -0.00000  -0.00000   0.00161
    X2        2.11041   0.00001   0.00000   0.00000   0.00001   2.11042
    Y2       -0.08184   0.00000   0.00000  -0.00004  -0.00004  -0.08188
    Z2       -0.00274  -0.00000   0.00000   0.00000   0.00000  -0.00274
    X3       -0.35290  -0.00003   0.00000  -0.00002  -0.00001  -0.35291
    Y3        0.27984   0.00000   0.00000   0.00003   0.00004   0.27988
    Z3       -0.00191   0.00000   0.00000  -0.00000  -0.00000  -0.00191
    X4        2.90926   0.00000   0.00000   0.00003   0.00003   2.90929
    Y4       -1.98831  -0.00001   0.00000  -0.00004  -0.00004  -1.98835
    Z4        0.00333   0.00000   0.00000   0.00000   0.00000   0.00333
    X5        3.41797  -0.00001   0.00000  -0.00010  -0.00008   3.41789
    Y5        1.51952   0.00000   0.00000   0.00003   0.00002   1.51954
    Z5       -0.00952   0.00000   0.00000  -0.00000  -0.00000  -0.00952
         Item               Value     Threshold  Converged?
 Maximum Force            0.000028     0.000450     YES
 RMS     Force            0.000010     0.000300     YES
 Maximum Displacement     0.000084     0.001800     YES
 RMS     Displacement     0.000033     0.001200     YES
 Predicted change in Energy=-1.189378D-09
 Optimization completed.
    -- Stationary point found.
 GradGradGradGradGradGradGradGradGradGradGradGradGradGradGradGradGradGrad

 Leave Link  103 at Sun Jun 19 00:33:42 2016, MaxMem=    33554432 cpu:         0.1
 (Enter /home/proyectos/fulerenos/M3C-v1.9/M3C-deps_CCC/g09-AM64L-G09RevC.01/l9999.exe)
 1\1\GINC-BELVIS4\Freq\UB3LYP\6-311++G(3df,2p)\C3H2(1+,2)\ROOT\19-Jun-2
 016\0\\#p b3lyp/6-311++G(3df,2p) freq symmetry=Loose\\b3lyp opt\\1,2\C
 ,-1.4891999935,-0.063939973,0.0008506305\C,1.1167820023,-0.0433059903,
 -0.0014482594\C,-0.1867480116,0.148084952,-0.0010125574\H,1.5395159999
 ,-1.0521680006,0.0017628318\H,1.8087120165,0.8040950683,-0.0050397133\
 \Version=EM64L-G09RevE.01\State=2-A'\HF=-114.995655\S2=0.774647\S2-1=0
 .\S2A=0.750292\RMSD=2.106e-09\RMSF=9.675e-06\ZeroPoint=0.0288158\Therm
 al=0.0327028\Dipole=1.0396667,0.122722,-0.0013225\DipoleDeriv=-0.18943
 73,0.3825744,-0.0010761,0.2018009,0.2025066,-0.0004055,-0.000436,-0.00
 05599,0.1366586,0.0812709,0.0317316,0.0000549,0.3193952,0.1017979,0.00
 03479,-0.0009636,0.0005936,0.2770996,0.4770098,-0.3860776,0.0012116,-0
 .4535001,0.2012188,0.0007195,0.0014503,0.0006619,0.2950158,0.2433858,-
 0.081827,0.0001703,-0.1964897,0.2716359,-0.0004272,0.0005763,-0.000525
 2,0.1035781,0.3877708,0.0535985,-0.0003607,0.1287937,0.2228407,-0.0002
 346,-0.000627,-0.0001704,0.187648\Polar=58.5799918,-0.8987368,21.21031
 37,-0.0303135,-0.0057713,19.3636094\PG=CS [SG(C3H2)]\NImag=0\\0.354347
 51,0.06859987,0.02261318,-0.00054144,-0.00012161,0.00481752,-0.0696870
 0,0.00135496,0.00005797,0.73182221,0.03033943,0.01660905,-0.00007126,-
 0.01696736,0.53527833,-0.00004465,-0.00004650,0.00380323,-0.00045482,-
 0.00142410,0.12899077,-0.28676718,-0.06969866,0.00048390,-0.43609203,0
 .02463078,0.00024683,0.76935280,-0.09400412,-0.03709741,0.00017924,0.0
 5373409,-0.06937617,0.00004042,0.03294831,0.10084826,0.00056996,0.0001
 5848,-0.00915349,0.00014378,0.00006527,-0.04500031,-0.00074922,-0.0002
 8339,0.02876097,-0.00110516,-0.00173268,0.00000644,-0.08012952,0.09946
 557,-0.00032196,-0.01673058,0.02432223,-0.00005931,0.08784410,-0.00549
 033,-0.00061072,0.00000419,0.09238513,-0.27487371,0.00073595,0.0090956
 5,-0.00118503,0.00004831,-0.10558902,0.29007901,0.00001974,0.00000098,
 -0.00075266,-0.00029689,0.00072991,-0.04473953,-0.00000540,0.00003530,
 0.01465286,0.00031215,-0.00088173,0.01559006,0.00321183,0.00147651,-0.
 00000687,-0.14591365,-0.13746842,0.00057460,-0.02976301,-0.01700050,0.
 00009479,0.01012115,0.00959857,-0.00002961,0.16234368,0.00055515,-0.00
 151410,0.00000944,-0.13050683,-0.20763750,0.00069423,0.00302393,0.0068
 1036,0.00001133,-0.01646609,-0.01340956,0.00011554,0.14339384,0.215750
 80,-0.00000361,0.00000865,0.00128539,0.00054995,0.00070018,-0.04305417
 ,0.00002389,0.00002843,0.01073997,0.00006268,0.00009328,0.01524926,-0.
 00063291,-0.00083054,0.01577955\\-0.00001762,-0.00000097,0.00000002,-0
 .00001472,-0.00000071,0.00000002,0.00002793,-0.00000306,-0.00000001,-0
 .00000274,0.00000520,-0.00000002,0.00000716,-0.00000047,0.\\\@


 A SOLDIER'S LIFE IS A LIFE OF HONOR, BUT A DOG WOULD NOT LEAD IT.
 -- PRINCE RUPERT, FOUNDER OF THE HUDSON'S BAY COMPANY
 Job cpu time:       0 days  0 hours  8 minutes  4.6 seconds.
 File lengths (MBytes):  RWF=     20 Int=      0 D2E=      0 Chk=      3 Scr=      1
 Normal termination of Gaussian 09 at Sun Jun 19 00:33:42 2016.
