 Entering Gaussian System, Link 0=/home/proyectos/fulerenos/M3C-v2.0/M3C-deps_CCC/g09-AM64L-G09RevC.01/g09
 Initial command:
 /home/proyectos/fulerenos/M3C-v2.0/M3C-deps_CCC/g09-AM64L-G09RevC.01/l1.exe "/scratch/naguirre/gaussian/Gau-6801.inp" -scrdir="/scratch/naguirre/gaussian/"
 Entering Link 1 = /home/proyectos/fulerenos/M3C-v2.0/M3C-deps_CCC/g09-AM64L-G09RevC.01/l1.exe PID=      6810.
  
 Copyright (c) 1988,1990,1992,1993,1995,1998,2003,2009,2015,
            Gaussian, Inc.  All Rights Reserved.
  
 This is part of the Gaussian(R) 09 program.  It is based on
 the Gaussian(R) 03 system (copyright 2003, Gaussian, Inc.),
 the Gaussian(R) 98 system (copyright 1998, Gaussian, Inc.),
 the Gaussian(R) 94 system (copyright 1995, Gaussian, Inc.),
 the Gaussian 92(TM) system (copyright 1992, Gaussian, Inc.),
 the Gaussian 90(TM) system (copyright 1990, Gaussian, Inc.),
 the Gaussian 88(TM) system (copyright 1988, Gaussian, Inc.),
 the Gaussian 86(TM) system (copyright 1986, Carnegie Mellon
 University), and the Gaussian 82(TM) system (copyright 1983,
 Carnegie Mellon University). Gaussian is a federally registered
 trademark of Gaussian, Inc.
  
 This software contains proprietary and confidential information,
 including trade secrets, belonging to Gaussian, Inc.
  
 This software is provided under written license and may be
 used, copied, transmitted, or stored only in accord with that
 written license.
  
 The following legend is applicable only to US Government
 contracts under FAR:
  
                    RESTRICTED RIGHTS LEGEND
  
 Use, reproduction and disclosure by the US Government is
 subject to restrictions as set forth in subparagraphs (a)
 and (c) of the Commercial Computer Software - Restricted
 Rights clause in FAR 52.227-19.
  
 Gaussian, Inc.
 340 Quinnipiac St., Bldg. 40, Wallingford CT 06492
  
  
 ---------------------------------------------------------------
 Warning -- This program may not be used in any manner that
 competes with the business of Gaussian, Inc. or will provide
 assistance to any competitor of Gaussian, Inc.  The licensee
 of this program is prohibited from giving any competitor of
 Gaussian, Inc. access to this program.  By using this program,
 the user acknowledges that Gaussian, Inc. is engaged in the
 business of creating and licensing software in the field of
 computational chemistry and represents and warrants to the
 licensee that it is not a competitor of Gaussian, Inc. and that
 it will not use this program in any manner prohibited above.
 ---------------------------------------------------------------
  

 Cite this work as:
 Gaussian 09, Revision E.01,
 M. J. Frisch, G. W. Trucks, H. B. Schlegel, G. E. Scuseria, 
 M. A. Robb, J. R. Cheeseman, G. Scalmani, V. Barone, B. Mennucci, 
 G. A. Petersson, H. Nakatsuji, M. Caricato, X. Li, H. P. Hratchian, 
 A. F. Izmaylov, J. Bloino, G. Zheng, J. L. Sonnenberg, M. Hada, 
 M. Ehara, K. Toyota, R. Fukuda, J. Hasegawa, M. Ishida, T. Nakajima, 
 Y. Honda, O. Kitao, H. Nakai, T. Vreven, J. A. Montgomery, Jr., 
 J. E. Peralta, F. Ogliaro, M. Bearpark, J. J. Heyd, E. Brothers, 
 K. N. Kudin, V. N. Staroverov, T. Keith, R. Kobayashi, J. Normand, 
 K. Raghavachari, A. Rendell, J. C. Burant, S. S. Iyengar, J. Tomasi, 
 M. Cossi, N. Rega, J. M. Millam, M. Klene, J. E. Knox, J. B. Cross, 
 V. Bakken, C. Adamo, J. Jaramillo, R. Gomperts, R. E. Stratmann, 
 O. Yazyev, A. J. Austin, R. Cammi, C. Pomelli, J. W. Ochterski, 
 R. L. Martin, K. Morokuma, V. G. Zakrzewski, G. A. Voth, 
 P. Salvador, J. J. Dannenberg, S. Dapprich, A. D. Daniels, 
 O. Farkas, J. B. Foresman, J. V. Ortiz, J. Cioslowski, 
 and D. J. Fox, Gaussian, Inc., Wallingford CT, 2013.
 
 ******************************************
 Gaussian 09:  EM64L-G09RevE.01 30-Nov-2015
                31-Jan-2019 
 ******************************************
 %NProcShared=4
 Will use up to    4 processors via shared memory.
 ------------------------------------------------------
 #p b3lyp/6-311++G(3df,2p) freq IOp(2/17=3) IOp(2/18=3)
 ------------------------------------------------------
 1/10=4,30=1,38=1/1,3;
 2/12=2,17=3,18=3,40=1/2;
 3/5=4,6=6,7=1216,11=2,16=1,25=1,30=1,71=2,74=-5,140=1/1,2,3;
 4//1;
 5/5=2,38=5,98=1/2;
 8/6=4,10=90,11=11/1;
 11/6=1,8=1,9=11,15=111,16=1/1,2,10;
 10/6=1/2;
 6/7=2,8=2,9=2,10=2,18=1,28=1/1;
 7/8=1,10=1,25=1/1,2,3,16;
 1/10=4,30=1/3;
 99//99;
 Leave Link    1 at Thu Jan 31 04:18:05 2019, MaxMem=           0 cpu:         0.2
 (Enter /home/proyectos/fulerenos/M3C-v2.0/M3C-deps_CCC/g09-AM64L-G09RevC.01/l101.exe)
 ---------
 b3lyp opt
 ---------
 Symbolic Z-matrix:
 Charge =  3 Multiplicity = 4
 C                    -1.83437  -0.55317   0.00009 
 C                    -0.62669   0.39776  -0.00002 
 C                     0.73192   0.03647  -0.00002 
 C                     2.02896  -0.23398  -0.00003 
 H                    -0.89946   1.05868  -0.9389 
 H                    -0.89942   1.05884   0.93877 
 
 NAtoms=      6 NQM=        6 NQMF=       0 NMMI=      0 NMMIF=      0
                NMic=       0 NMicF=      0.
                    Isotopes and Nuclear Properties:
 (Nuclear quadrupole moments (NQMom) in fm**2, nuclear magnetic moments (NMagM)
  in nuclear magnetons)

  Atom         1           2           3           4           5           6
 IAtWgt=          12          12          12          12           1           1
 AtmWgt=  12.0000000  12.0000000  12.0000000  12.0000000   1.0078250   1.0078250
 NucSpn=           0           0           0           0           1           1
 AtZEff=   0.0000000   0.0000000   0.0000000   0.0000000   0.0000000   0.0000000
 NQMom=    0.0000000   0.0000000   0.0000000   0.0000000   0.0000000   0.0000000
 NMagM=    0.0000000   0.0000000   0.0000000   0.0000000   2.7928460   2.7928460
 AtZNuc=   6.0000000   6.0000000   6.0000000   6.0000000   1.0000000   1.0000000
 Leave Link  101 at Thu Jan 31 04:18:05 2019, MaxMem=    33554432 cpu:         0.3
 (Enter /home/proyectos/fulerenos/M3C-v2.0/M3C-deps_CCC/g09-AM64L-G09RevC.01/l103.exe)

 GradGradGradGradGradGradGradGradGradGradGradGradGradGradGradGradGradGrad
 Berny optimization.
 Initialization pass.
 Trust Radius=3.00D-01 FncErr=1.00D-07 GrdErr=1.00D-07
 Number of steps in this run=      2 maximum allowed number of steps=      2.
 GradGradGradGradGradGradGradGradGradGradGradGradGradGradGradGradGradGrad

 Leave Link  103 at Thu Jan 31 04:18:05 2019, MaxMem=    33554432 cpu:         0.1
 (Enter /home/proyectos/fulerenos/M3C-v2.0/M3C-deps_CCC/g09-AM64L-G09RevC.01/l202.exe)
                          Input orientation:                          
 ---------------------------------------------------------------------
 Center     Atomic      Atomic             Coordinates (Angstroms)
 Number     Number       Type             X           Y           Z
 ---------------------------------------------------------------------
      1          6           0       -1.834374   -0.553174    0.000091
      2          6           0       -0.626687    0.397756   -0.000017
      3          6           0        0.731916    0.036475   -0.000020
      4          6           0        2.028958   -0.233976   -0.000029
      5          1           0       -0.899462    1.058680   -0.938896
      6          1           0       -0.899416    1.058836    0.938765
 ---------------------------------------------------------------------
                    Distance matrix (angstroms):
                    1          2          3          4          5
     1  C    0.000000
     2  C    1.537132   0.000000
     3  C    2.633160   1.405819   0.000000
     4  C    3.876496   2.729750   1.324938   0.000000
     5  H    2.086584   1.180136   2.141911   3.335877   0.000000
     6  H    2.086584   1.180136   2.141911   3.335877   1.877661
                    6
     6  H    0.000000
 Stoichiometry    C4H2(3+,4)
 Framework group  CS[SG(C4),X(H2)]
 Deg. of freedom     8
 Full point group                 CS      NOp   2
 Largest Abelian subgroup         CS      NOp   2
 Largest concise Abelian subgroup CS      NOp   2
                         Standard orientation:                         
 ---------------------------------------------------------------------
 Center     Atomic      Atomic             Coordinates (Angstroms)
 Number     Number       Type             X           Y           Z
 ---------------------------------------------------------------------
      1          6           0        1.450036    1.252328    0.000000
      2          6           0        0.000000    0.742258    0.000000
      3          6           0       -0.423010   -0.598410    0.000000
      4          6           0       -0.889718   -1.838428    0.000000
      5          1           0       -0.411845    1.326732    0.938897
      6          1           0       -0.411845    1.326732   -0.938897
 ---------------------------------------------------------------------
 Rotational constants (GHZ):     49.7902740      4.8451884      4.5569959
 Leave Link  202 at Thu Jan 31 04:18:05 2019, MaxMem=    33554432 cpu:         0.0
 (Enter /home/proyectos/fulerenos/M3C-v2.0/M3C-deps_CCC/g09-AM64L-G09RevC.01/l301.exe)
 Standard basis: 6-311++G(3df,2p) (5D, 7F)
 Ernie: Thresh=  0.10000D-02 Tol=  0.10000D-05 Strict=F.
 There are   134 symmetry adapted cartesian basis functions of A'  symmetry.
 There are    66 symmetry adapted cartesian basis functions of A"  symmetry.
 There are   114 symmetry adapted basis functions of A'  symmetry.
 There are    62 symmetry adapted basis functions of A"  symmetry.
   176 basis functions,   256 primitive gaussians,   200 cartesian basis functions
    13 alpha electrons       10 beta electrons
       nuclear repulsion energy        73.0250181519 Hartrees.
 IExCor=  402 DFT=T Ex+Corr=B3LYP ExCW=0 ScaHFX=  0.200000
 ScaDFX=  0.800000  0.720000  1.000000  0.810000 ScalE2=  1.000000  1.000000
 IRadAn=      0 IRanWt=     -1 IRanGd=            0 ICorTp=0 IEmpDi=  4
 NAtoms=    6 NActive=    6 NUniq=    5 SFac= 1.44D+00 NAtFMM=   60 NAOKFM=F Big=F
 Integral buffers will be    131072 words long.
 Raffenetti 2 integral format.
 Two-electron integral symmetry is turned on.
 Leave Link  301 at Thu Jan 31 04:18:06 2019, MaxMem=    33554432 cpu:         0.3
 (Enter /home/proyectos/fulerenos/M3C-v2.0/M3C-deps_CCC/g09-AM64L-G09RevC.01/l302.exe)
 NPDir=0 NMtPBC=     1 NCelOv=     1 NCel=       1 NClECP=     1 NCelD=      1
         NCelK=      1 NCelE2=     1 NClLst=     1 CellRange=     0.0.
 One-electron integrals computed using PRISM.
 One-electron integral symmetry used in STVInt
 NBasis=   176 RedAO= T EigKep=  5.48D-06  NBF=   114    62
 NBsUse=   176 1.00D-06 EigRej= -1.00D+00 NBFU=   114    62
 Precomputing XC quadrature grid using
 IXCGrd= 4 IRadAn=           0 IRanWt=          -1 IRanGd=           0 AccXCQ= 0.00D+00.
 Generated NRdTot=       0 NPtTot=           0 NUsed=           0 NTot=          32
 NSgBfM=   200   200   200   200   200 MxSgAt=     6 MxSgA2=     6.
 Leave Link  302 at Thu Jan 31 04:18:06 2019, MaxMem=    33554432 cpu:         1.3
 (Enter /home/proyectos/fulerenos/M3C-v2.0/M3C-deps_CCC/g09-AM64L-G09RevC.01/l303.exe)
 DipDrv:  MaxL=1.
 Leave Link  303 at Thu Jan 31 04:18:06 2019, MaxMem=    33554432 cpu:         0.1
 (Enter /home/proyectos/fulerenos/M3C-v2.0/M3C-deps_CCC/g09-AM64L-G09RevC.01/l401.exe)
 ExpMin= 3.60D-02 ExpMax= 4.56D+03 ExpMxC= 6.82D+02 IAcc=3 IRadAn=         5 AccDes= 0.00D+00
 Harris functional with IExCor=  402 and IRadAn=       5 diagonalized for initial guess.
 HarFok:  IExCor=  402 AccDes= 0.00D+00 IRadAn=         5 IDoV= 1 UseB2=F ITyADJ=14
 ICtDFT=  3500011 ScaDFX=  1.000000  1.000000  1.000000  1.000000
 FoFCou: FMM=F IPFlag=           0 FMFlag=      100000 FMFlg1=           0
         NFxFlg=           0 DoJE=T BraDBF=F KetDBF=T FulRan=T
         wScrn=  0.000000 ICntrl=     500 IOpCl=  0 I1Cent=   200000004 NGrid=           0
         NMat0=    1 NMatS0=      1 NMatT0=    0 NMatD0=    1 NMtDS0=    0 NMtDT0=    0
 Petite list used in FoFCou.
 Harris En= -152.398012720690    
 JPrj=0 DoOrth=F DoCkMO=F.
 Initial guess orbital symmetries:
 Alpha Orbitals:
       Occupied  (A') (A') (A') (A') (A') (A') (A') (A') (A") (A')
                 (A') (A") (A')
       Virtual   (A') (A") (A') (A") (A') (A") (A') (A') (A') (A')
                 (A') (A") (A") (A') (A') (A') (A") (A") (A') (A')
                 (A') (A") (A') (A') (A') (A') (A") (A') (A') (A")
                 (A') (A') (A") (A') (A") (A') (A') (A') (A") (A")
                 (A') (A') (A') (A") (A') (A") (A') (A') (A") (A')
                 (A") (A') (A') (A') (A") (A') (A") (A') (A') (A")
                 (A") (A') (A') (A") (A') (A') (A') (A') (A') (A")
                 (A") (A') (A') (A") (A') (A") (A') (A') (A") (A')
                 (A") (A') (A') (A") (A') (A") (A') (A') (A") (A')
                 (A") (A') (A") (A') (A") (A') (A') (A') (A') (A")
                 (A') (A") (A") (A') (A') (A") (A") (A') (A') (A")
                 (A") (A') (A') (A") (A') (A") (A') (A') (A") (A')
                 (A') (A') (A") (A') (A") (A') (A') (A') (A") (A')
                 (A") (A') (A") (A') (A') (A") (A') (A") (A') (A")
                 (A') (A') (A") (A") (A') (A') (A") (A') (A") (A')
                 (A') (A") (A') (A') (A") (A') (A") (A') (A') (A')
                 (A') (A') (A')
 Beta  Orbitals:
       Occupied  (A') (A') (A') (A') (A') (A') (A') (A') (A") (A')
       Virtual   (A') (A") (A') (A') (A") (A') (A") (A') (A") (A')
                 (A') (A') (A') (A') (A") (A") (A') (A') (A') (A")
                 (A") (A') (A') (A') (A") (A') (A') (A') (A') (A")
                 (A') (A') (A") (A') (A') (A") (A') (A") (A') (A')
                 (A') (A") (A") (A') (A') (A') (A") (A') (A") (A')
                 (A') (A") (A') (A") (A') (A') (A') (A") (A') (A")
                 (A') (A') (A") (A") (A') (A') (A") (A') (A') (A')
                 (A') (A') (A") (A") (A') (A') (A") (A') (A") (A')
                 (A') (A") (A') (A") (A') (A') (A") (A') (A") (A')
                 (A') (A") (A') (A") (A') (A") (A') (A") (A') (A')
                 (A') (A') (A") (A') (A") (A") (A') (A') (A") (A")
                 (A') (A') (A") (A") (A') (A') (A") (A') (A") (A')
                 (A') (A") (A') (A') (A') (A") (A') (A") (A') (A')
                 (A') (A") (A') (A") (A') (A") (A') (A') (A") (A')
                 (A") (A') (A") (A') (A') (A") (A") (A') (A') (A")
                 (A') (A") (A') (A') (A") (A') (A') (A") (A') (A")
                 (A') (A') (A') (A') (A') (A')
 The electronic state of the initial guess is 4-A".
 Initial guess <Sx>= 0.0000 <Sy>= 0.0000 <Sz>= 1.5000 <S**2>= 3.7500 S= 1.5000
 Leave Link  401 at Thu Jan 31 04:18:07 2019, MaxMem=    33554432 cpu:         4.1
 (Enter /home/proyectos/fulerenos/M3C-v2.0/M3C-deps_CCC/g09-AM64L-G09RevC.01/l502.exe)
 UHF open shell SCF:
 Using DIIS extrapolation, IDIIS=  1040.
 Integral symmetry usage will be decided dynamically.
 IVT=      141414 IEndB=      141414 NGot=    33554432 MDV=    33469859
 LenX=    33469859 LenY=    33429418
 Requested convergence on RMS density matrix=1.00D-08 within 128 cycles.
 Requested convergence on MAX density matrix=1.00D-06.
 Requested convergence on             energy=1.00D-06.
 No special actions if energy rises.
 Fock matrices will be formed incrementally for  20 cycles.

 Cycle   1  Pass 1  IDiag  1:
 FoFJK:  IHMeth= 1 ICntrl=       0 DoSepK=F KAlg= 0 I1Cent=   0 FoldK=F
 IRaf= 990000000 NMat=   1 IRICut=       1 DoRegI=T DoRafI=F ISym2E= 1.
 FoFCou: FMM=F IPFlag=           0 FMFlag=      100000 FMFlg1=           0
         NFxFlg=           0 DoJE=F BraDBF=F KetDBF=F FulRan=T
         wScrn=  0.000000 ICntrl=       0 IOpCl=  1 I1Cent=           0 NGrid=           0
         NMat0=    1 NMatS0=      1 NMatT0=    0 NMatD0=    1 NMtDS0=    0 NMtDT0=    0
 Petite list used in FoFCou.
 E= -151.284651423056    
 DIIS: error= 2.37D-02 at cycle   1 NSaved=   1.
 NSaved= 1 IEnMin= 1 EnMin= -151.284651423056     IErMin= 1 ErrMin= 2.37D-02
 ErrMax= 2.37D-02  0.00D+00 EMaxC= 1.00D-01 BMatC= 4.05D-01 BMatP= 4.05D-01
 IDIUse=3 WtCom= 7.63D-01 WtEn= 2.37D-01
 Coeff-Com:  0.100D+01
 Coeff-En:   0.100D+01
 Coeff:      0.100D+01
 Gap=     0.076 Goal=   None    Shift=    0.000
 Gap=     0.164 Goal=   None    Shift=    0.000
 GapD=    0.076 DampG=0.500 DampE=0.500 DampFc=0.2500 IDamp=-1.
 Damping current iteration by 2.50D-01
 RMSDP=1.19D-02 MaxDP=9.16D-01              OVMax= 4.89D-01

 Cycle   2  Pass 1  IDiag  1:
 RMSU=  2.91D-03    CP:  1.03D+00
 E= -151.311670546083     Delta-E=       -0.027019123027 Rises=F Damp=T
 DIIS: error= 1.30D-02 at cycle   2 NSaved=   2.
 NSaved= 2 IEnMin= 2 EnMin= -151.311670546083     IErMin= 2 ErrMin= 1.30D-02
 ErrMax= 1.30D-02  0.00D+00 EMaxC= 1.00D-01 BMatC= 1.13D-01 BMatP= 4.05D-01
 IDIUse=3 WtCom= 8.70D-01 WtEn= 1.30D-01
 Coeff-Com: -0.240D+00 0.124D+01
 Coeff-En:   0.249D+00 0.751D+00
 Coeff:     -0.177D+00 0.118D+01
 Gap=     0.188 Goal=   None    Shift=    0.000
 Gap=     0.144 Goal=   None    Shift=    0.000
 RMSDP=7.79D-03 MaxDP=7.62D-01 DE=-2.70D-02 OVMax= 6.53D-01

 Cycle   3  Pass 1  IDiag  1:
 RMSU=  6.79D-03    CP:  1.19D+00  5.96D-01
 E= -151.353634489676     Delta-E=       -0.041963943593 Rises=F Damp=F
 DIIS: error= 2.69D-02 at cycle   3 NSaved=   3.
 NSaved= 3 IEnMin= 3 EnMin= -151.353634489676     IErMin= 2 ErrMin= 1.30D-02
 ErrMax= 2.69D-02  0.00D+00 EMaxC= 1.00D-01 BMatC= 2.04D-01 BMatP= 1.13D-01
 IDIUse=2 WtCom= 0.00D+00 WtEn= 1.00D+00
 Coeff-En:   0.000D+00 0.269D+00 0.731D+00
 Coeff:      0.000D+00 0.269D+00 0.731D+00
 Gap=     0.042 Goal=   None    Shift=    0.000
 Gap=     0.168 Goal=   None    Shift=    0.000
 RMSDP=1.73D-02 MaxDP=1.48D+00 DE=-4.20D-02 OVMax= 6.64D-01

 Cycle   4  Pass 1  IDiag  1:
 RMSU=  9.46D-03    CP:  1.36D+00  3.00D+00  1.16D-03
 E= -150.781798779031     Delta-E=        0.571835710645 Rises=F Damp=F
 DIIS: error= 1.05D-01 at cycle   4 NSaved=   4.
 NSaved= 4 IEnMin= 3 EnMin= -151.353634489676     IErMin= 2 ErrMin= 1.30D-02
 ErrMax= 1.05D-01  0.00D+00 EMaxC= 1.00D-01 BMatC= 2.08D+00 BMatP= 1.13D-01
 IDIUse=2 WtCom= 0.00D+00 WtEn= 1.00D+00
 Coeff-En:   0.000D+00 0.000D+00 0.810D+00 0.190D+00
 Coeff:      0.000D+00 0.000D+00 0.810D+00 0.190D+00
 Gap=     0.058 Goal=   None    Shift=    0.000
 Gap=     0.146 Goal=   None    Shift=    0.000
 RMSDP=1.05D-02 MaxDP=9.01D-01 DE= 5.72D-01 OVMax= 4.75D-01

 Cycle   5  Pass 1  IDiag  1:
 RMSU=  3.57D-03    CP:  1.25D+00  2.80D+00  4.58D-01  9.85D-02
 E= -151.393893815343     Delta-E=       -0.612095036311 Rises=F Damp=F
 DIIS: error= 2.16D-02 at cycle   5 NSaved=   5.
 NSaved= 5 IEnMin= 5 EnMin= -151.393893815343     IErMin= 2 ErrMin= 1.30D-02
 ErrMax= 2.16D-02  0.00D+00 EMaxC= 1.00D-01 BMatC= 1.30D-01 BMatP= 1.13D-01
 IDIUse=2 WtCom= 0.00D+00 WtEn= 1.00D+00
 Coeff-En:   0.000D+00 0.000D+00 0.391D+00 0.000D+00 0.609D+00
 Coeff:      0.000D+00 0.000D+00 0.391D+00 0.000D+00 0.609D+00
 Gap=     0.201 Goal=   None    Shift=    0.000
 Gap=     0.095 Goal=   None    Shift=    0.000
 RMSDP=4.85D-03 MaxDP=3.91D-01 DE=-6.12D-01 OVMax= 2.22D-01

 Cycle   6  Pass 1  IDiag  1:
 RMSU=  1.15D-03    CP:  1.24D+00  1.50D+00  8.51D-01  4.72D-02  7.96D-01
 E= -151.436833989604     Delta-E=       -0.042940174261 Rises=F Damp=F
 DIIS: error= 4.45D-03 at cycle   6 NSaved=   6.
 NSaved= 6 IEnMin= 6 EnMin= -151.436833989604     IErMin= 6 ErrMin= 4.45D-03
 ErrMax= 4.45D-03  0.00D+00 EMaxC= 1.00D-01 BMatC= 1.10D-02 BMatP= 1.13D-01
 IDIUse=3 WtCom= 9.56D-01 WtEn= 4.45D-02
 Coeff-Com: -0.394D-01 0.405D-01 0.136D+00-0.372D-01 0.376D+00 0.524D+00
 Coeff-En:   0.000D+00 0.000D+00 0.000D+00 0.000D+00 0.733D-01 0.927D+00
 Coeff:     -0.377D-01 0.387D-01 0.130D+00-0.356D-01 0.363D+00 0.542D+00
 Gap=     0.181 Goal=   None    Shift=    0.000
 Gap=     0.110 Goal=   None    Shift=    0.000
 RMSDP=1.29D-03 MaxDP=1.23D-01 DE=-4.29D-02 OVMax= 9.35D-02

 Cycle   7  Pass 1  IDiag  1:
 RMSU=  5.11D-04    CP:  1.23D+00  1.76D+00  7.40D-01  3.66D-02  8.99D-01
                    CP:  9.14D-01
 E= -151.439819898612     Delta-E=       -0.002985909008 Rises=F Damp=F
 DIIS: error= 2.63D-03 at cycle   7 NSaved=   7.
 NSaved= 7 IEnMin= 7 EnMin= -151.439819898612     IErMin= 7 ErrMin= 2.63D-03
 ErrMax= 2.63D-03  0.00D+00 EMaxC= 1.00D-01 BMatC= 3.14D-03 BMatP= 1.10D-02
 IDIUse=3 WtCom= 9.74D-01 WtEn= 2.63D-02
 Coeff-Com: -0.379D-01 0.539D-01-0.803D-02 0.109D-02-0.850D-01 0.292D+00
 Coeff-Com:  0.784D+00
 Coeff-En:   0.000D+00 0.000D+00 0.000D+00 0.000D+00 0.000D+00 0.220D+00
 Coeff-En:   0.780D+00
 Coeff:     -0.369D-01 0.525D-01-0.781D-02 0.106D-02-0.827D-01 0.290D+00
 Coeff:      0.784D+00
 Gap=     0.184 Goal=   None    Shift=    0.000
 Gap=     0.113 Goal=   None    Shift=    0.000
 RMSDP=5.81D-04 MaxDP=5.56D-02 DE=-2.99D-03 OVMax= 2.06D-02

 Cycle   8  Pass 1  IDiag  1:
 RMSU=  2.04D-04    CP:  1.23D+00  1.64D+00  7.91D-01  3.48D-02  8.82D-01
                    CP:  1.10D+00  9.37D-01
 E= -151.440859218144     Delta-E=       -0.001039319533 Rises=F Damp=F
 DIIS: error= 6.27D-04 at cycle   8 NSaved=   8.
 NSaved= 8 IEnMin= 8 EnMin= -151.440859218144     IErMin= 8 ErrMin= 6.27D-04
 ErrMax= 6.27D-04  0.00D+00 EMaxC= 1.00D-01 BMatC= 9.11D-05 BMatP= 3.14D-03
 IDIUse=3 WtCom= 9.94D-01 WtEn= 6.27D-03
 Coeff-Com: -0.163D-01 0.226D-01-0.120D-01 0.270D-02-0.403D-01 0.623D-01
 Coeff-Com:  0.107D+00 0.874D+00
 Coeff-En:   0.000D+00 0.000D+00 0.000D+00 0.000D+00 0.000D+00 0.000D+00
 Coeff-En:   0.000D+00 0.100D+01
 Coeff:     -0.162D-01 0.224D-01-0.119D-01 0.268D-02-0.400D-01 0.619D-01
 Coeff:      0.107D+00 0.875D+00
 Gap=     0.184 Goal=   None    Shift=    0.000
 Gap=     0.115 Goal=   None    Shift=    0.000
 RMSDP=1.72D-04 MaxDP=7.29D-03 DE=-1.04D-03 OVMax= 1.53D-02

 Cycle   9  Pass 1  IDiag  1:
 RMSU=  8.88D-05    CP:  1.23D+00  1.65D+00  7.92D-01  3.35D-02  8.99D-01
                    CP:  1.19D+00  9.99D-01  1.33D+00
 E= -151.440969168460     Delta-E=       -0.000109950316 Rises=F Damp=F
 DIIS: error= 3.59D-04 at cycle   9 NSaved=   9.
 NSaved= 9 IEnMin= 9 EnMin= -151.440969168460     IErMin= 9 ErrMin= 3.59D-04
 ErrMax= 3.59D-04  0.00D+00 EMaxC= 1.00D-01 BMatC= 5.90D-05 BMatP= 9.11D-05
 IDIUse=3 WtCom= 9.96D-01 WtEn= 3.59D-03
 Coeff-Com: -0.521D-02 0.821D-02 0.499D-02-0.590D-03 0.111D-01-0.893D-01
 Coeff-Com: -0.285D+00 0.377D+00 0.978D+00
 Coeff-En:   0.000D+00 0.000D+00 0.000D+00 0.000D+00 0.000D+00 0.000D+00
 Coeff-En:   0.000D+00 0.000D+00 0.100D+01
 Coeff:     -0.519D-02 0.819D-02 0.497D-02-0.588D-03 0.110D-01-0.890D-01
 Coeff:     -0.283D+00 0.376D+00 0.978D+00
 Gap=     0.184 Goal=   None    Shift=    0.000
 Gap=     0.115 Goal=   None    Shift=    0.000
 RMSDP=1.82D-04 MaxDP=9.31D-03 DE=-1.10D-04 OVMax= 1.30D-02

 Cycle  10  Pass 1  IDiag  1:
 RMSU=  7.74D-05    CP:  1.23D+00  1.64D+00  8.00D-01  3.23D-02  9.12D-01
                    CP:  1.27D+00  1.08D+00  1.83D+00  1.40D+00
 E= -151.441065249661     Delta-E=       -0.000096081201 Rises=F Damp=F
 DIIS: error= 2.05D-04 at cycle  10 NSaved=  10.
 NSaved=10 IEnMin=10 EnMin= -151.441065249661     IErMin=10 ErrMin= 2.05D-04
 ErrMax= 2.05D-04  0.00D+00 EMaxC= 1.00D-01 BMatC= 2.25D-05 BMatP= 5.90D-05
 IDIUse=3 WtCom= 9.98D-01 WtEn= 2.05D-03
 Coeff-Com:  0.323D-02-0.398D-02 0.350D-02-0.841D-04 0.695D-03-0.107D-01
 Coeff-Com: -0.224D-01-0.853D-01-0.185D+00 0.130D+01
 Coeff-En:   0.000D+00 0.000D+00 0.000D+00 0.000D+00 0.000D+00 0.000D+00
 Coeff-En:   0.000D+00 0.000D+00 0.000D+00 0.100D+01
 Coeff:      0.323D-02-0.397D-02 0.350D-02-0.839D-04 0.693D-03-0.107D-01
 Coeff:     -0.223D-01-0.851D-01-0.184D+00 0.130D+01
 Gap=     0.185 Goal=   None    Shift=    0.000
 Gap=     0.115 Goal=   None    Shift=    0.000
 RMSDP=1.98D-04 MaxDP=1.19D-02 DE=-9.61D-05 OVMax= 1.11D-02

 Cycle  11  Pass 1  IDiag  1:
 RMSU=  3.16D-05    CP:  1.23D+00  1.63D+00  8.12D-01  3.23D-02  9.23D-01
                    CP:  1.34D+00  1.10D+00  2.21D+00  1.79D+00  2.50D+00
 E= -151.441136033462     Delta-E=       -0.000070783801 Rises=F Damp=F
 DIIS: error= 1.48D-04 at cycle  11 NSaved=  11.
 NSaved=11 IEnMin=11 EnMin= -151.441136033462     IErMin=11 ErrMin= 1.48D-04
 ErrMax= 1.48D-04  0.00D+00 EMaxC= 1.00D-01 BMatC= 1.37D-05 BMatP= 2.25D-05
 IDIUse=3 WtCom= 9.99D-01 WtEn= 1.48D-03
 Coeff-Com:  0.512D-02-0.698D-02-0.301D-02 0.367D-03-0.895D-02 0.470D-01
 Coeff-Com:  0.177D+00-0.109D+00-0.522D+00-0.579D+00 0.200D+01
 Coeff-En:   0.000D+00 0.000D+00 0.000D+00 0.000D+00 0.000D+00 0.000D+00
 Coeff-En:   0.000D+00 0.000D+00 0.000D+00 0.000D+00 0.100D+01
 Coeff:      0.511D-02-0.697D-02-0.300D-02 0.367D-03-0.894D-02 0.470D-01
 Coeff:      0.176D+00-0.109D+00-0.521D+00-0.578D+00 0.200D+01
 Gap=     0.186 Goal=   None    Shift=    0.000
 Gap=     0.116 Goal=   None    Shift=    0.000
 RMSDP=3.55D-04 MaxDP=2.34D-02 DE=-7.08D-05 OVMax= 1.80D-02

 Cycle  12  Pass 1  IDiag  1:
 RMSU=  1.90D-04    CP:  1.23D+00  1.60D+00  8.36D-01  3.39D-02  9.40D-01
                    CP:  1.44D+00  1.08D+00  2.81D+00  2.27D+00  3.00D+00
                    CP:  3.00D+00
 E= -151.441229456479     Delta-E=       -0.000093423016 Rises=F Damp=F
 DIIS: error= 1.19D-04 at cycle  12 NSaved=  12.
 NSaved=12 IEnMin=12 EnMin= -151.441229456479     IErMin=12 ErrMin= 1.19D-04
 ErrMax= 1.19D-04  0.00D+00 EMaxC= 1.00D-01 BMatC= 8.69D-06 BMatP= 1.37D-05
 IDIUse=3 WtCom= 9.99D-01 WtEn= 1.19D-03
 Coeff-Com:  0.306D-02-0.439D-02-0.468D-02-0.804D-04 0.729D-02-0.144D-01
 Coeff-Com: -0.384D-01 0.644D-01 0.427D+00-0.102D+01-0.732D+00 0.232D+01
 Coeff-En:   0.000D+00 0.000D+00 0.000D+00 0.000D+00 0.000D+00 0.000D+00
 Coeff-En:   0.000D+00 0.000D+00 0.000D+00 0.000D+00 0.000D+00 0.100D+01
 Coeff:      0.305D-02-0.438D-02-0.467D-02-0.803D-04 0.728D-02-0.144D-01
 Coeff:     -0.384D-01 0.644D-01 0.427D+00-0.102D+01-0.731D+00 0.231D+01
 Gap=     0.187 Goal=   None    Shift=    0.000
 Gap=     0.116 Goal=   None    Shift=    0.000
 RMSDP=5.73D-04 MaxDP=3.77D-02 DE=-9.34D-05 OVMax= 2.79D-02

 Cycle  13  Pass 1  IDiag  1:
 RMSU=  2.00D-04    CP:  1.24D+00  1.58D+00  8.72D-01  3.77D-02  9.66D-01
                    CP:  1.60D+00  1.00D+00  3.00D+00  2.97D+00  3.00D+00
                    CP:  3.00D+00  3.00D+00
 E= -151.441324047456     Delta-E=       -0.000094590977 Rises=F Damp=F
 DIIS: error= 6.05D-05 at cycle  13 NSaved=  13.
 NSaved=13 IEnMin=13 EnMin= -151.441324047456     IErMin=13 ErrMin= 6.05D-05
 ErrMax= 6.05D-05  0.00D+00 EMaxC= 1.00D-01 BMatC= 2.43D-06 BMatP= 8.69D-06
 IDIUse=1 WtCom= 1.00D+00 WtEn= 0.00D+00
 Coeff-Com: -0.113D-02 0.222D-02 0.756D-03-0.222D-03 0.289D-02-0.248D-01
 Coeff-Com: -0.784D-01 0.387D-01 0.275D+00 0.455D+00-0.134D+01 0.216D+00
 Coeff-Com:  0.145D+01
 Coeff:     -0.113D-02 0.222D-02 0.756D-03-0.222D-03 0.289D-02-0.248D-01
 Coeff:     -0.784D-01 0.387D-01 0.275D+00 0.455D+00-0.134D+01 0.216D+00
 Coeff:      0.145D+01
 Gap=     0.189 Goal=   None    Shift=    0.000
 Gap=     0.116 Goal=   None    Shift=    0.000
 RMSDP=3.65D-04 MaxDP=2.53D-02 DE=-9.46D-05 OVMax= 1.69D-02

 Cycle  14  Pass 1  IDiag  1:
 RMSU=  2.39D-04    CP:  1.24D+00  1.56D+00  8.96D-01  4.08D-02  9.82D-01
                    CP:  1.70D+00  9.34D-01  3.00D+00  3.00D+00  3.00D+00
                    CP:  3.00D+00  3.00D+00  1.74D+00
 E= -151.441343404828     Delta-E=       -0.000019357372 Rises=F Damp=F
 DIIS: error= 2.08D-05 at cycle  14 NSaved=  14.
 NSaved=14 IEnMin=14 EnMin= -151.441343404828     IErMin=14 ErrMin= 2.08D-05
 ErrMax= 2.08D-05  0.00D+00 EMaxC= 1.00D-01 BMatC= 2.21D-07 BMatP= 2.43D-06
 IDIUse=1 WtCom= 1.00D+00 WtEn= 0.00D+00
 Coeff-Com:  0.926D-03-0.117D-02 0.360D-03-0.152D-04 0.528D-03 0.615D-03
 Coeff-Com: -0.399D-02-0.177D-01-0.388D-01 0.201D+00 0.234D-01-0.294D+00
 Coeff-Com:  0.986D-01 0.103D+01
 Coeff:      0.926D-03-0.117D-02 0.360D-03-0.152D-04 0.528D-03 0.615D-03
 Coeff:     -0.399D-02-0.177D-01-0.388D-01 0.201D+00 0.234D-01-0.294D+00
 Coeff:      0.986D-01 0.103D+01
 Gap=     0.189 Goal=   None    Shift=    0.000
 Gap=     0.116 Goal=   None    Shift=    0.000
 RMSDP=1.48D-05 MaxDP=1.00D-03 DE=-1.94D-05 OVMax= 6.04D-04

 Cycle  15  Pass 1  IDiag  1:
 RMSU=  6.15D-06    CP:  1.24D+00  1.56D+00  8.97D-01  4.10D-02  9.82D-01
                    CP:  1.70D+00  9.28D-01  3.00D+00  3.00D+00  3.00D+00
                    CP:  3.00D+00  3.00D+00  1.78D+00  1.03D+00
 E= -151.441343564082     Delta-E=       -0.000000159254 Rises=F Damp=F
 DIIS: error= 8.15D-06 at cycle  15 NSaved=  15.
 NSaved=15 IEnMin=15 EnMin= -151.441343564082     IErMin=15 ErrMin= 8.15D-06
 ErrMax= 8.15D-06  0.00D+00 EMaxC= 1.00D-01 BMatC= 2.55D-08 BMatP= 2.21D-07
 IDIUse=1 WtCom= 1.00D+00 WtEn= 0.00D+00
 Coeff-Com:  0.489D-03-0.684D-03-0.576D-04 0.866D-05 0.120D-03 0.623D-03
 Coeff-Com:  0.183D-02-0.702D-02-0.814D-02 0.785D-02 0.560D-01-0.783D-01
 Coeff-Com: -0.989D-02 0.179D+00 0.858D+00
 Coeff:      0.489D-03-0.684D-03-0.576D-04 0.866D-05 0.120D-03 0.623D-03
 Coeff:      0.183D-02-0.702D-02-0.814D-02 0.785D-02 0.560D-01-0.783D-01
 Coeff:     -0.989D-02 0.179D+00 0.858D+00
 Gap=     0.189 Goal=   None    Shift=    0.000
 Gap=     0.116 Goal=   None    Shift=    0.000
 RMSDP=1.47D-05 MaxDP=1.07D-03 DE=-1.59D-07 OVMax= 6.31D-04

 Cycle  16  Pass 1  IDiag  1:
 RMSU=  1.35D-06    CP:  1.24D+00  1.56D+00  8.98D-01  4.11D-02  9.83D-01
                    CP:  1.70D+00  9.25D-01  3.00D+00  3.00D+00  3.00D+00
                    CP:  3.00D+00  3.00D+00  1.81D+00  1.07D+00  8.94D-01
 E= -151.441343600238     Delta-E=       -0.000000036156 Rises=F Damp=F
 DIIS: error= 3.08D-06 at cycle  16 NSaved=  16.
 NSaved=16 IEnMin=16 EnMin= -151.441343600238     IErMin=16 ErrMin= 3.08D-06
 ErrMax= 3.08D-06  0.00D+00 EMaxC= 1.00D-01 BMatC= 4.08D-09 BMatP= 2.55D-08
 IDIUse=1 WtCom= 1.00D+00 WtEn= 0.00D+00
 Coeff-Com:  0.366D-04-0.579D-04-0.765D-05 0.389D-05-0.101D-03 0.711D-03
 Coeff-Com:  0.272D-02-0.774D-03-0.396D-02-0.623D-02 0.217D-01-0.962D-02
 Coeff-Com: -0.139D-01-0.652D-01-0.697D-01 0.114D+01
 Coeff:      0.366D-04-0.579D-04-0.765D-05 0.389D-05-0.101D-03 0.711D-03
 Coeff:      0.272D-02-0.774D-03-0.396D-02-0.623D-02 0.217D-01-0.962D-02
 Coeff:     -0.139D-01-0.652D-01-0.697D-01 0.114D+01
 Gap=     0.189 Goal=   None    Shift=    0.000
 Gap=     0.116 Goal=   None    Shift=    0.000
 RMSDP=1.35D-06 MaxDP=9.75D-05 DE=-3.62D-08 OVMax= 1.11D-04

 Cycle  17  Pass 1  IDiag  1:
 RMSU=  8.40D-07    CP:  1.24D+00  1.56D+00  8.98D-01  4.11D-02  9.83D-01
                    CP:  1.70D+00  9.24D-01  3.00D+00  3.00D+00  3.00D+00
                    CP:  3.00D+00  3.00D+00  1.81D+00  1.07D+00  9.45D-01
                    CP:  1.31D+00
 E= -151.441343603086     Delta-E=       -0.000000002848 Rises=F Damp=F
 DIIS: error= 1.34D-06 at cycle  17 NSaved=  17.
 NSaved=17 IEnMin=17 EnMin= -151.441343603086     IErMin=17 ErrMin= 1.34D-06
 ErrMax= 1.34D-06  0.00D+00 EMaxC= 1.00D-01 BMatC= 6.30D-10 BMatP= 4.08D-09
 IDIUse=1 WtCom= 1.00D+00 WtEn= 0.00D+00
 Coeff-Com: -0.324D-04 0.445D-04 0.772D-05-0.102D-05 0.243D-04-0.235D-03
 Coeff-Com: -0.630D-03-0.161D-03 0.884D-03 0.642D-02-0.925D-02-0.281D-02
 Coeff-Com:  0.130D-01-0.219D-02-0.108D+00-0.113D+00 0.122D+01
 Coeff:     -0.324D-04 0.445D-04 0.772D-05-0.102D-05 0.243D-04-0.235D-03
 Coeff:     -0.630D-03-0.161D-03 0.884D-03 0.642D-02-0.925D-02-0.281D-02
 Coeff:      0.130D-01-0.219D-02-0.108D+00-0.113D+00 0.122D+01
 Gap=     0.189 Goal=   None    Shift=    0.000
 Gap=     0.116 Goal=   None    Shift=    0.000
 RMSDP=2.12D-06 MaxDP=1.52D-04 DE=-2.85D-09 OVMax= 9.38D-05

 Cycle  18  Pass 1  IDiag  1:
 RMSU=  1.18D-07    CP:  1.24D+00  1.56D+00  8.98D-01  4.11D-02  9.83D-01
                    CP:  1.70D+00  9.24D-01  3.00D+00  3.00D+00  3.00D+00
                    CP:  3.00D+00  3.00D+00  1.81D+00  1.07D+00  9.34D-01
                    CP:  1.49D+00  1.08D+00
 E= -151.441343603639     Delta-E=       -0.000000000552 Rises=F Damp=F
 DIIS: error= 1.94D-07 at cycle  18 NSaved=  18.
 NSaved=18 IEnMin=18 EnMin= -151.441343603639     IErMin=18 ErrMin= 1.94D-07
 ErrMax= 1.94D-07  0.00D+00 EMaxC= 1.00D-01 BMatC= 1.89D-11 BMatP= 6.30D-10
 IDIUse=1 WtCom= 1.00D+00 WtEn= 0.00D+00
 Coeff-Com: -0.418D-05 0.555D-05-0.164D-05-0.363D-06 0.221D-05 0.134D-04
 Coeff-Com:  0.842D-05-0.418D-04-0.400D-03 0.872D-04 0.111D-02-0.664D-03
 Coeff-Com:  0.384D-03 0.260D-02 0.444D-02-0.835D-01 0.102D+00 0.973D+00
 Coeff:     -0.418D-05 0.555D-05-0.164D-05-0.363D-06 0.221D-05 0.134D-04
 Coeff:      0.842D-05-0.418D-04-0.400D-03 0.872D-04 0.111D-02-0.664D-03
 Coeff:      0.384D-03 0.260D-02 0.444D-02-0.835D-01 0.102D+00 0.973D+00
 Gap=     0.189 Goal=   None    Shift=    0.000
 Gap=     0.116 Goal=   None    Shift=    0.000
 RMSDP=6.02D-07 MaxDP=4.16D-05 DE=-5.52D-10 OVMax= 2.89D-05

 Cycle  19  Pass 1  IDiag  1:
 RMSU=  3.23D-08    CP:  1.24D+00  1.56D+00  8.98D-01  4.11D-02  9.83D-01
                    CP:  1.70D+00  9.24D-01  3.00D+00  3.00D+00  3.00D+00
                    CP:  3.00D+00  3.00D+00  1.81D+00  1.07D+00  9.42D-01
                    CP:  1.49D+00  1.12D+00  9.96D-01
 E= -151.441343603685     Delta-E=       -0.000000000046 Rises=F Damp=F
 DIIS: error= 5.92D-08 at cycle  19 NSaved=  19.
 NSaved=19 IEnMin=19 EnMin= -151.441343603685     IErMin=19 ErrMin= 5.92D-08
 ErrMax= 5.92D-08  0.00D+00 EMaxC= 1.00D-01 BMatC= 1.37D-12 BMatP= 1.89D-11
 IDIUse=1 WtCom= 1.00D+00 WtEn= 0.00D+00
 Coeff-Com: -0.302D-06 0.330D-06-0.106D-06-0.345D-07 0.140D-06 0.329D-05
 Coeff-Com:  0.305D-05 0.167D-04 0.117D-04-0.293D-03 0.216D-03 0.919D-04
 Coeff-Com: -0.262D-03 0.425D-03 0.705D-02 0.233D-02-0.746D-01 0.525D-02
 Coeff-Com:  0.106D+01
 Coeff:     -0.302D-06 0.330D-06-0.106D-06-0.345D-07 0.140D-06 0.329D-05
 Coeff:      0.305D-05 0.167D-04 0.117D-04-0.293D-03 0.216D-03 0.919D-04
 Coeff:     -0.262D-03 0.425D-03 0.705D-02 0.233D-02-0.746D-01 0.525D-02
 Coeff:      0.106D+01
 Gap=     0.189 Goal=   None    Shift=    0.000
 Gap=     0.116 Goal=   None    Shift=    0.000
 RMSDP=8.85D-08 MaxDP=5.58D-06 DE=-4.63D-11 OVMax= 5.29D-06

 Cycle  20  Pass 1  IDiag  1:
 RMSU=  6.60D-09    CP:  1.24D+00  1.56D+00  8.98D-01  4.11D-02  9.83D-01
                    CP:  1.70D+00  9.24D-01  3.00D+00  3.00D+00  3.00D+00
                    CP:  3.00D+00  3.00D+00  1.81D+00  1.07D+00  9.41D-01
                    CP:  1.49D+00  1.11D+00  1.07D+00  1.13D+00
 E= -151.441343603685     Delta-E=       -0.000000000000 Rises=F Damp=F
 DIIS: error= 2.48D-08 at cycle  20 NSaved=  20.
 NSaved=20 IEnMin=20 EnMin= -151.441343603685     IErMin=20 ErrMin= 2.48D-08
 ErrMax= 2.48D-08  0.00D+00 EMaxC= 1.00D-01 BMatC= 1.84D-13 BMatP= 1.37D-12
 IDIUse=1 WtCom= 1.00D+00 WtEn= 0.00D+00
 Coeff-Com: -0.727D-07 0.101D-06 0.125D-06 0.394D-07-0.795D-06 0.618D-06
 Coeff-Com:  0.353D-05 0.120D-04 0.195D-05-0.946D-04 0.272D-04 0.121D-03
 Coeff-Com: -0.171D-03-0.214D-04 0.790D-03 0.386D-02-0.109D-01-0.551D-01
 Coeff-Com:  0.129D+00 0.932D+00
 Coeff:     -0.727D-07 0.101D-06 0.125D-06 0.394D-07-0.795D-06 0.618D-06
 Coeff:      0.353D-05 0.120D-04 0.195D-05-0.946D-04 0.272D-04 0.121D-03
 Coeff:     -0.171D-03-0.214D-04 0.790D-03 0.386D-02-0.109D-01-0.551D-01
 Coeff:      0.129D+00 0.932D+00
 Gap=     0.189 Goal=   None    Shift=    0.000
 Gap=     0.116 Goal=   None    Shift=    0.000
 RMSDP=1.79D-08 MaxDP=1.21D-06 DE=-2.27D-13 OVMax= 6.98D-07

 Cycle  21  Pass 1  IDiag  1:
 Restarting incremental Fock formation.
 E= -151.441343603688     Delta-E=       -0.000000000003 Rises=F Damp=F
 DIIS: error= 4.66D-09 at cycle  21 NSaved=  20.
 NSaved=20 IEnMin=20 EnMin= -151.441343603688     IErMin=20 ErrMin= 4.66D-09
 ErrMax= 4.66D-09  0.00D+00 EMaxC= 1.00D-01 BMatC= 8.68D-15 BMatP= 1.84D-13
 IDIUse=1 WtCom= 1.00D+00 WtEn= 0.00D+00
 Coeff-Com:  0.137D-08 0.868D-08 0.264D-07 0.804D-07-0.111D-05-0.290D-05
 Coeff-Com:  0.287D-06 0.374D-05 0.235D-04-0.346D-04 0.113D-04 0.252D-04
 Coeff-Com: -0.122D-04-0.476D-03-0.813D-03 0.631D-02 0.318D-02-0.736D-01
 Coeff-Com: -0.143D+00 0.121D+01
 Coeff:      0.137D-08 0.868D-08 0.264D-07 0.804D-07-0.111D-05-0.290D-05
 Coeff:      0.287D-06 0.374D-05 0.235D-04-0.346D-04 0.113D-04 0.252D-04
 Coeff:     -0.122D-04-0.476D-03-0.813D-03 0.631D-02 0.318D-02-0.736D-01
 Coeff:     -0.143D+00 0.121D+01
 Gap=     0.189 Goal=   None    Shift=    0.000
 Gap=     0.116 Goal=   None    Shift=    0.000
 RMSDP=1.69D-08 MaxDP=1.16D-06 DE=-2.93D-12 OVMax= 2.40D-07

 Cycle  22  Pass 1  IDiag  1:
 RMSU=  1.15D-08    CP:  1.00D+00
 E= -151.441343603687     Delta-E=        0.000000000001 Rises=F Damp=F
 DIIS: error= 3.87D-10 at cycle  22 NSaved=  20.
 NSaved=20 IEnMin=19 EnMin= -151.441343603688     IErMin=20 ErrMin= 3.87D-10
 ErrMax= 3.87D-10  0.00D+00 EMaxC= 1.00D-01 BMatC= 1.07D-16 BMatP= 8.68D-15
 IDIUse=1 WtCom= 1.00D+00 WtEn= 0.00D+00
 Large coefficients: NSaved= 20 BigCof=    0.00 CofMax=   10.00 Det=-4.33D-16
 Inversion failed.  Reducing to 19 matrices.
 Large coefficients: NSaved= 19 BigCof=    0.00 CofMax=   10.00 Det=-4.41D-16
 Inversion failed.  Reducing to 18 matrices.
 Large coefficients: NSaved= 18 BigCof=    0.00 CofMax=   10.00 Det=-4.43D-16
 Inversion failed.  Reducing to 17 matrices.
 Large coefficients: NSaved= 17 BigCof=    0.00 CofMax=   10.00 Det=-4.58D-16
 Inversion failed.  Reducing to 16 matrices.
 Large coefficients: NSaved= 16 BigCof=    0.00 CofMax=   10.00 Det=-6.36D-16
 Inversion failed.  Reducing to 15 matrices.
 Coeff-Com: -0.312D-06-0.673D-06 0.545D-05-0.120D-05-0.792D-05 0.728D-05
 Coeff-Com:  0.244D-05-0.330D-04-0.770D-04 0.248D-03 0.212D-02-0.569D-02
 Coeff-Com: -0.315D-01-0.128D-01 0.105D+01
 Coeff:     -0.312D-06-0.673D-06 0.545D-05-0.120D-05-0.792D-05 0.728D-05
 Coeff:      0.244D-05-0.330D-04-0.770D-04 0.248D-03 0.212D-02-0.569D-02
 Coeff:     -0.315D-01-0.128D-01 0.105D+01
 Gap=     0.189 Goal=   None    Shift=    0.000
 Gap=     0.116 Goal=   None    Shift=    0.000
 RMSDP=1.83D-09 MaxDP=1.28D-07 DE= 1.48D-12 OVMax= 3.66D-08

 SCF Done:  E(UB3LYP) =  -151.441343604     A.U. after   22 cycles
            NFock= 22  Conv=0.18D-08     -V/T= 2.0039
 <Sx>= 0.0000 <Sy>= 0.0000 <Sz>= 1.5000 <S**2>= 3.8116 S= 1.5153
 <L.S>= 0.000000000000E+00
 KE= 1.508556604352D+02 PE=-4.785996002335D+02 EE= 1.032775780427D+02
 Annihilation of the first spin contaminant:
 S**2 before annihilation     3.8116,   after     3.7502
 Leave Link  502 at Thu Jan 31 04:19:43 2019, MaxMem=    33554432 cpu:       367.4
 (Enter /home/proyectos/fulerenos/M3C-v2.0/M3C-deps_CCC/g09-AM64L-G09RevC.01/l801.exe)
 DoSCS=F DFT=T ScalE2(SS,OS)=  1.000000  1.000000
 Range of M.O.s used for correlation:     1   176
 NBasis=   176 NAE=    13 NBE=    10 NFC=     0 NFV=     0
 NROrb=    176 NOA=    13 NOB=    10 NVA=   163 NVB=   166

 **** Warning!!: The largest alpha MO coefficient is  0.17460950D+03


 **** Warning!!: The largest beta MO coefficient is  0.15312779D+03

 Leave Link  801 at Thu Jan 31 04:19:43 2019, MaxMem=    33554432 cpu:         0.1
 (Enter /home/proyectos/fulerenos/M3C-v2.0/M3C-deps_CCC/g09-AM64L-G09RevC.01/l1101.exe)
 Using compressed storage, NAtomX=     6.
 Will process      7 centers per pass.
 Leave Link 1101 at Thu Jan 31 04:19:44 2019, MaxMem=    33554432 cpu:         3.8
 (Enter /home/proyectos/fulerenos/M3C-v2.0/M3C-deps_CCC/g09-AM64L-G09RevC.01/l1102.exe)
 Symmetrizing basis deriv contribution to polar:
 IMax=3 JMax=2 DiffMx= 0.00D+00
 Leave Link 1102 at Thu Jan 31 04:19:44 2019, MaxMem=    33554432 cpu:         0.4
 (Enter /home/proyectos/fulerenos/M3C-v2.0/M3C-deps_CCC/g09-AM64L-G09RevC.01/l1110.exe)
 Forming Gx(P) for the SCF density, NAtomX=     6.
 Integral derivatives from FoFJK, PRISM(SPDF).
 Do as many integral derivatives as possible in FoFJK.
 G2DrvN: MDV=      33554280.
 G2DrvN: will do     7 centers at a time, making    1 passes.
 Calling FoFCou, ICntrl=  3107 FMM=F I1Cent=   0 AccDes= 0.00D+00.
 FoFJK:  IHMeth= 1 ICntrl=    3107 DoSepK=F KAlg= 0 I1Cent=   0 FoldK=F
 IRaf=         0 NMat=   1 IRICut=       1 DoRegI=T DoRafI=F ISym2E= 1.
 FoFCou: FMM=F IPFlag=           0 FMFlag=      100000 FMFlg1=           0
         NFxFlg=           0 DoJE=F BraDBF=F KetDBF=F FulRan=T
         wScrn=  0.000000 ICntrl=    3107 IOpCl=  1 I1Cent=           0 NGrid=           0
         NMat0=    1 NMatS0=      1 NMatT0=    0 NMatD0=    1 NMtDS0=    0 NMtDT0=    0
 Petite list used in FoFCou.
 End of G2Drv F.D. properties file   721 does not exist.
 End of G2Drv F.D. properties file   722 does not exist.
 End of G2Drv F.D. properties file   788 does not exist.
 Leave Link 1110 at Thu Jan 31 04:20:30 2019, MaxMem=    33554432 cpu:       158.1
 (Enter /home/proyectos/fulerenos/M3C-v2.0/M3C-deps_CCC/g09-AM64L-G09RevC.01/l1002.exe)
 Minotr:  UHF open shell wavefunction.
          IDoAtm=111111
          Direct CPHF calculation.
          Differentiating once with respect to electric field.
                with respect to dipole field.
          Differentiating once with respect to nuclear coordinates.
          Using symmetry in CPHF.
          Requested convergence is 1.0D-08 RMS, and 1.0D-07 maximum.
          Secondary convergence is 1.0D-12 RMS, and 1.0D-12 maximum.
          NewPWx=T KeepS1=F KeepF1=F KeepIn=T MapXYZ=F SortEE=F KeepMc=T.
          MDV=      33554016 using IRadAn=       2.
 Generate precomputed XC quadrature information.
          Solving linear equations simultaneously, MaxMat=       0.
 FoFJK:  IHMeth= 1 ICntrl=       0 DoSepK=F KAlg= 0 I1Cent=   0 FoldK=F
 IRaf= 990000000 NMat=  18 IRICut=      45 DoRegI=T DoRafI=T ISym2E= 2.
 FoFCou: FMM=F IPFlag=           0 FMFlag=      100000 FMFlg1=           0
         NFxFlg=           0 DoJE=F BraDBF=F KetDBF=F FulRan=T
         wScrn=  0.000000 ICntrl=       0 IOpCl=  1 I1Cent=           0 NGrid=           0
         NMat0=   18 NMatS0=     18 NMatT0=    0 NMatD0=   18 NMtDS0=    0 NMtDT0=    0
 Integrals replicated using symmetry in FoFCou.
          There are    18 degrees of freedom in the 1st order CPHF.  IDoFFX=4 NUNeed=    18.
     18 vectors produced by pass  0 Test12= 2.10D-14 5.56D-09 XBig12= 2.47D+02 1.34D+01.
 AX will form    18 AO Fock derivatives at one time.
     18 vectors produced by pass  1 Test12= 2.10D-14 5.56D-09 XBig12= 4.48D+01 1.78D+00.
     18 vectors produced by pass  2 Test12= 2.10D-14 5.56D-09 XBig12= 2.28D+00 5.21D-01.
     18 vectors produced by pass  3 Test12= 2.10D-14 5.56D-09 XBig12= 4.69D-02 6.48D-02.
     18 vectors produced by pass  4 Test12= 2.10D-14 5.56D-09 XBig12= 7.39D-04 9.36D-03.
     18 vectors produced by pass  5 Test12= 2.10D-14 5.56D-09 XBig12= 4.36D-06 4.39D-04.
     18 vectors produced by pass  6 Test12= 2.10D-14 5.56D-09 XBig12= 1.91D-08 2.70D-05.
      8 vectors produced by pass  7 Test12= 2.10D-14 5.56D-09 XBig12= 6.34D-11 1.29D-06.
      3 vectors produced by pass  8 Test12= 2.10D-14 5.56D-09 XBig12= 6.32D-13 1.80D-07.
      3 vectors produced by pass  9 Test12= 2.10D-14 5.56D-09 XBig12= 3.83D-14 3.76D-08.
      1 vectors produced by pass 10 Test12= 2.10D-14 5.56D-09 XBig12= 2.58D-15 9.94D-09.
 InvSVY:  IOpt=1 It=  1 EMax= 5.33D-15
 Solved reduced A of dimension   141 with    18 vectors.
 FullF1:  Do perturbations    1 to    18.
 Isotropic polarizability for W=    0.000000       41.36 Bohr**3.
 End of Minotr F.D. properties file   721 does not exist.
 End of Minotr F.D. properties file   722 does not exist.
 End of Minotr F.D. properties file   788 does not exist.
 Leave Link 1002 at Thu Jan 31 04:22:33 2019, MaxMem=    33554432 cpu:       494.3
 (Enter /home/proyectos/fulerenos/M3C-v2.0/M3C-deps_CCC/g09-AM64L-G09RevC.01/l601.exe)
 Copying SCF densities to generalized density rwf, IOpCl= 1 IROHF=0.

 **********************************************************************

            Population analysis using the SCF density.

 **********************************************************************

 Orbital symmetries:
 Alpha Orbitals:
       Occupied  (A') (A') (A') (A') (A') (A') (A') (A') (A") (A')
                 (A') (A") (A')
       Virtual   (A') (A") (A') (A") (A') (A') (A") (A') (A') (A')
                 (A") (A') (A") (A') (A') (A') (A") (A') (A') (A")
                 (A') (A") (A') (A') (A") (A') (A") (A') (A') (A")
                 (A') (A') (A') (A') (A") (A') (A') (A") (A') (A')
                 (A") (A") (A') (A") (A') (A') (A") (A') (A') (A')
                 (A") (A') (A') (A") (A') (A") (A') (A') (A') (A")
                 (A') (A") (A') (A') (A") (A') (A') (A") (A') (A')
                 (A') (A") (A") (A') (A') (A") (A') (A") (A') (A")
                 (A') (A') (A') (A") (A') (A") (A') (A') (A") (A')
                 (A") (A') (A") (A') (A") (A') (A') (A') (A") (A')
                 (A") (A') (A") (A") (A') (A') (A") (A') (A') (A")
                 (A") (A') (A') (A') (A") (A') (A") (A') (A") (A')
                 (A') (A') (A") (A') (A") (A') (A') (A') (A") (A')
                 (A") (A') (A") (A') (A") (A') (A') (A") (A') (A")
                 (A') (A") (A') (A") (A') (A") (A') (A') (A") (A')
                 (A') (A") (A') (A') (A") (A') (A") (A') (A') (A')
                 (A') (A') (A')
 Beta  Orbitals:
       Occupied  (A') (A') (A') (A') (A') (A') (A') (A') (A") (A')
       Virtual   (A') (A") (A') (A') (A") (A') (A") (A') (A') (A")
                 (A') (A') (A') (A") (A') (A") (A') (A') (A') (A")
                 (A') (A') (A") (A") (A') (A') (A') (A") (A') (A")
                 (A') (A') (A") (A') (A') (A') (A') (A") (A') (A')
                 (A") (A') (A') (A") (A") (A') (A") (A') (A') (A")
                 (A') (A') (A') (A") (A') (A') (A") (A') (A') (A")
                 (A') (A') (A") (A') (A") (A') (A') (A") (A') (A')
                 (A") (A') (A') (A") (A') (A') (A") (A') (A") (A')
                 (A") (A') (A") (A') (A') (A') (A") (A') (A") (A')
                 (A') (A") (A') (A") (A') (A") (A") (A') (A') (A')
                 (A') (A") (A') (A") (A') (A") (A') (A') (A") (A")
                 (A') (A') (A") (A") (A') (A') (A') (A") (A") (A')
                 (A') (A") (A') (A') (A') (A") (A') (A") (A') (A')
                 (A') (A") (A') (A") (A') (A") (A') (A") (A') (A')
                 (A") (A') (A") (A') (A") (A') (A") (A') (A') (A")
                 (A') (A") (A') (A') (A") (A') (A') (A") (A') (A")
                 (A') (A') (A') (A') (A') (A')
 The electronic state is 4-A".
 Alpha  occ. eigenvalues --  -11.20815 -11.17957 -11.13480 -11.02641  -1.66105
 Alpha  occ. eigenvalues --   -1.58669  -1.42602  -1.26506  -1.23594  -1.20414
 Alpha  occ. eigenvalues --   -1.15904  -1.13020  -1.10302
 Alpha virt. eigenvalues --   -0.91412  -0.90672  -0.83642  -0.82806  -0.61663
 Alpha virt. eigenvalues --   -0.58172  -0.55266  -0.50762  -0.48556  -0.45431
 Alpha virt. eigenvalues --   -0.45153  -0.44296  -0.39352  -0.38981  -0.37653
 Alpha virt. eigenvalues --   -0.35620  -0.33794  -0.33443  -0.32111  -0.31462
 Alpha virt. eigenvalues --   -0.30878  -0.29836  -0.29513  -0.26217  -0.25973
 Alpha virt. eigenvalues --   -0.24495  -0.23705  -0.22320  -0.20686  -0.19286
 Alpha virt. eigenvalues --   -0.18646  -0.17327  -0.16538  -0.13956  -0.12732
 Alpha virt. eigenvalues --   -0.12099  -0.09455  -0.07856  -0.07397  -0.07295
 Alpha virt. eigenvalues --   -0.06980  -0.06283  -0.04453  -0.03632  -0.03415
 Alpha virt. eigenvalues --   -0.02912  -0.01881  -0.00688   0.00228   0.04285
 Alpha virt. eigenvalues --    0.07063   0.08044   0.10142   0.13806   0.15505
 Alpha virt. eigenvalues --    0.20350   0.20782   0.25582   0.26977   0.29525
 Alpha virt. eigenvalues --    0.35637   0.39567   0.47592   0.55222   0.58303
 Alpha virt. eigenvalues --    0.58650   0.64058   0.65078   0.68044   0.68995
 Alpha virt. eigenvalues --    0.71403   0.71941   0.75989   0.76325   0.81190
 Alpha virt. eigenvalues --    0.81492   0.84385   0.85410   0.87767   0.91493
 Alpha virt. eigenvalues --    0.93076   0.95571   1.05377   1.07648   1.18277
 Alpha virt. eigenvalues --    1.26534   1.28025   1.28901   1.48907   1.57427
 Alpha virt. eigenvalues --    1.76458   1.80368   1.81387   1.82785   1.82921
 Alpha virt. eigenvalues --    1.84236   1.88063   1.93891   1.96434   1.97782
 Alpha virt. eigenvalues --    1.99797   2.00010   2.01100   2.05124   2.05321
 Alpha virt. eigenvalues --    2.06008   2.07839   2.10528   2.15014   2.15790
 Alpha virt. eigenvalues --    2.21975   2.23816   2.32660   2.37313   2.40371
 Alpha virt. eigenvalues --    2.45854   2.46319   2.53974   2.60580   2.71602
 Alpha virt. eigenvalues --    2.78119   2.83725   2.85864   3.00562   3.09103
 Alpha virt. eigenvalues --    3.17670   3.25038   3.42257   3.43076   3.52775
 Alpha virt. eigenvalues --    3.54121   3.56809   3.76979   3.82609   4.39986
 Alpha virt. eigenvalues --    4.42500   4.56209   4.63456   5.06895   6.00443
 Alpha virt. eigenvalues --    6.01313   6.06395   6.07095   6.12962   6.15156
 Alpha virt. eigenvalues --    6.17919   6.20006   6.28633   6.32161   6.35219
 Alpha virt. eigenvalues --    6.42490   6.55926   6.60826   6.70246   6.77509
 Alpha virt. eigenvalues --    6.96670   7.21489   7.26636   7.49501  22.81619
 Alpha virt. eigenvalues --   23.08260  24.21186  24.83714
  Beta  occ. eigenvalues --  -11.20280 -11.13838 -11.12113 -11.02560  -1.62028
  Beta  occ. eigenvalues --   -1.53350  -1.40474  -1.24888  -1.21157  -1.09786
  Beta virt. eigenvalues --   -0.98150  -0.97718  -0.93680  -0.90283  -0.88885
  Beta virt. eigenvalues --   -0.74668  -0.72693  -0.59294  -0.56648  -0.53858
  Beta virt. eigenvalues --   -0.49077  -0.46996  -0.44811  -0.44376  -0.43039
  Beta virt. eigenvalues --   -0.38399  -0.36881  -0.36845  -0.33725  -0.32325
  Beta virt. eigenvalues --   -0.32225  -0.31608  -0.30742  -0.29709  -0.29480
  Beta virt. eigenvalues --   -0.29041  -0.25702  -0.25242  -0.24094  -0.22909
  Beta virt. eigenvalues --   -0.21846  -0.20022  -0.18169  -0.17367  -0.16558
  Beta virt. eigenvalues --   -0.15687  -0.12698  -0.11748  -0.10664  -0.08390
  Beta virt. eigenvalues --   -0.06888  -0.06182  -0.05419  -0.05190  -0.04431
  Beta virt. eigenvalues --   -0.03637  -0.02059  -0.01888  -0.01590  -0.01428
  Beta virt. eigenvalues --    0.00275   0.00937   0.05407   0.07481   0.10519
  Beta virt. eigenvalues --    0.11333   0.15844   0.16714   0.21657   0.21916
  Beta virt. eigenvalues --    0.26650   0.27820   0.30099   0.37516   0.40194
  Beta virt. eigenvalues --    0.49124   0.56513   0.58959   0.60284   0.65699
  Beta virt. eigenvalues --    0.69275   0.69995   0.72589   0.73664   0.76324
  Beta virt. eigenvalues --    0.77722   0.78744   0.82643   0.85287   0.86134
  Beta virt. eigenvalues --    0.88641   0.90231   0.97848   0.97861   0.99541
  Beta virt. eigenvalues --    1.07864   1.11349   1.25065   1.27961   1.32346
  Beta virt. eigenvalues --    1.34014   1.54229   1.61137   1.80392   1.85156
  Beta virt. eigenvalues --    1.86783   1.87782   1.88289   1.89352   1.91285
  Beta virt. eigenvalues --    1.95881   1.98497   2.01278   2.01287   2.02968
  Beta virt. eigenvalues --    2.04044   2.06883   2.08140   2.10157   2.12969
  Beta virt. eigenvalues --    2.15577   2.19403   2.20685   2.26116   2.27744
  Beta virt. eigenvalues --    2.35740   2.40192   2.43176   2.47512   2.48478
  Beta virt. eigenvalues --    2.56460   2.63654   2.74557   2.81951   2.86575
  Beta virt. eigenvalues --    2.90124   3.05000   3.13502   3.21641   3.30906
  Beta virt. eigenvalues --    3.43907   3.44906   3.54314   3.55667   3.58159
  Beta virt. eigenvalues --    3.78495   3.84806   4.43397   4.43912   4.59408
  Beta virt. eigenvalues --    4.65778   5.09120   6.07263   6.07673   6.09010
  Beta virt. eigenvalues --    6.10565   6.17195   6.21953   6.23114   6.23434
  Beta virt. eigenvalues --    6.34683   6.41559   6.42507   6.45876   6.60572
  Beta virt. eigenvalues --    6.64030   6.73597   6.79684   6.98894   7.22052
  Beta virt. eigenvalues --    7.27932   7.52822  22.83151  23.09857  24.21898
  Beta virt. eigenvalues --   24.87388
          Condensed to atoms (all electrons):
               1          2          3          4          5          6
     1  C    6.075924  -0.756791  -0.013546  -0.058650  -0.001477  -0.001477
     2  C   -0.756791   9.430940  -0.433593  -2.562015   0.263070   0.263070
     3  C   -0.013546  -0.433593   7.431976  -1.912438   0.030246   0.030246
     4  C   -0.058650  -2.562015  -1.912438   9.700098   0.030740   0.030740
     5  H   -0.001477   0.263070   0.030246   0.030740   0.286417  -0.014008
     6  H   -0.001477   0.263070   0.030246   0.030740  -0.014008   0.286417
          Atomic-Atomic Spin Densities.
               1          2          3          4          5          6
     1  C    0.218592  -0.140562   0.145959   0.041847   0.004538   0.004538
     2  C   -0.140562   0.550427  -0.369179  -0.036899  -0.019418  -0.019418
     3  C    0.145959  -0.369179   1.209431  -0.132572   0.019494   0.019494
     4  C    0.041847  -0.036899  -0.132572   1.880930   0.007063   0.007063
     5  H    0.004538  -0.019418   0.019494   0.007063   0.039115  -0.000752
     6  H    0.004538  -0.019418   0.019494   0.007063  -0.000752   0.039115
 Mulliken charges and spin densities:
               1          2
     1  C    0.756018   0.274912
     2  C   -0.204681  -0.035050
     3  C    0.867111   0.892627
     4  C    0.771526   1.767432
     5  H    0.405013   0.050039
     6  H    0.405013   0.050039
 Sum of Mulliken charges =   3.00000   3.00000
 Mulliken charges and spin densities with hydrogens summed into heavy atoms:
               1          2
     1  C    0.756018   0.274912
     2  C    0.605345   0.065029
     3  C    0.867111   0.892627
     4  C    0.771526   1.767432
 APT charges:
               1
     1  C    1.085254
     2  C   -0.563453
     3  C    0.248206
     4  C    1.303111
     5  H    0.463441
     6  H    0.463441
 Sum of APT charges =   3.00000
 APT charges with hydrogens summed into heavy atoms:
               1
     1  C    1.085254
     2  C    0.363429
     3  C    0.248206
     4  C    1.303111
 Electronic spatial extent (au):  <R**2>=            213.0008
 Charge=              3.0000 electrons
 Dipole moment (field-independent basis, Debye):
    X=             -0.3886    Y=              0.1338    Z=             -0.0000  Tot=              0.4110
 Quadrupole moment (field-independent basis, Debye-Ang):
   XX=             -3.2788   YY=             13.9635   ZZ=            -12.8060
   XY=             13.8168   XZ=              0.0000   YZ=             -0.0000
 Traceless Quadrupole moment (field-independent basis, Debye-Ang):
   XX=             -2.5717   YY=             14.6706   ZZ=            -12.0989
   XY=             13.8168   XZ=              0.0000   YZ=             -0.0000
 Octapole moment (field-independent basis, Debye-Ang**2):
  XXX=              6.4137  YYY=            -17.0157  ZZZ=             -0.0000  XYY=            -10.5069
  XXY=              2.2248  XXZ=             -0.0000  XZZ=             -1.7862  YZZ=              4.5895
  YYZ=             -0.0000  XYZ=              0.0000
 Hexadecapole moment (field-independent basis, Debye-Ang**3):
 XXXX=            -65.1920 YYYY=            -62.1171 ZZZZ=            -13.8528 XXXY=            -20.4008
 XXXZ=             -0.0000 YYYX=             -1.3451 YYYZ=             -0.0000 ZZZX=              0.0000
 ZZZY=             -0.0000 XXYY=            -11.6139 XXZZ=            -15.0281 YYZZ=            -19.7433
 XXYZ=             -0.0000 YYXZ=              0.0000 ZZXY=            -14.6926
 N-N= 7.302501815190D+01 E-N=-4.785996002373D+02  KE= 1.508556604352D+02
 Symmetry A'   KE= 1.473547367964D+02
 Symmetry A"   KE= 3.500923638774D+00
  Exact polarizability:  42.135  24.949  60.707   0.000   0.000  21.228
 Approx polarizability:  90.949  61.365 120.570  -0.000   0.000  32.427
                          Isotropic Fermi Contact Couplings
        Atom                 a.u.       MegaHertz       Gauss      10(-4) cm-1
     1  C(13)              0.05514      20.66158       7.37256       6.89196
     2  C(13)             -0.01894      -7.09647      -2.53220      -2.36713
     3  C(13)              0.22300      83.56443      29.81787      27.87410
     4  C(13)              1.60734     602.32000     214.92275     200.91233
     5  H(1)               0.02446      36.44846      13.00572      12.15790
     6  H(1)               0.02446      36.44846      13.00572      12.15790
 --------------------------------------------------------
       Center         ----  Spin Dipole Couplings  ----
                      3XX-RR        3YY-RR        3ZZ-RR
 --------------------------------------------------------
     1   Atom       -0.042823      0.236591     -0.193769
     2   Atom        0.050521     -0.009053     -0.041467
     3   Atom       -0.120894     -0.192753      0.313647
     4   Atom       -0.080867      0.070900      0.009967
     5   Atom       -0.012139      0.011373      0.000766
     6   Atom       -0.012139      0.011373      0.000766
 --------------------------------------------------------
                        XY            XZ            YZ
 --------------------------------------------------------
     1   Atom        0.533612     -0.000000      0.000000
     2   Atom       -0.010461     -0.000000      0.000000
     3   Atom       -0.029138      0.000000      0.000000
     4   Atom        0.050696     -0.000000     -0.000000
     5   Atom        0.001105     -0.008490      0.018073
     6   Atom        0.001105      0.008490     -0.018073
 --------------------------------------------------------


 ---------------------------------------------------------------------------------
              Anisotropic Spin Dipole Couplings in Principal Axis System
 ---------------------------------------------------------------------------------

       Atom             a.u.   MegaHertz   Gauss  10(-4) cm-1        Axes

              Baa    -0.4547   -61.018   -21.773   -20.353  0.7916 -0.6110  0.0000
     1 C(13)  Bbb    -0.1938   -26.002    -9.278    -8.673 -0.0000  0.0000  1.0000
              Bcc     0.6485    87.020    31.051    29.027  0.6110  0.7916 -0.0000
 
              Baa    -0.0415    -5.564    -1.986    -1.856 -0.0000 -0.0000  1.0000
     2 C(13)  Bbb    -0.0108    -1.454    -0.519    -0.485  0.1681  0.9858  0.0000
              Bcc     0.0523     7.019     2.504     2.341  0.9858 -0.1681 -0.0000
 
              Baa    -0.2031   -27.252    -9.724    -9.090  0.3341  0.9425 -0.0000
     3 C(13)  Bbb    -0.1106   -14.837    -5.294    -4.949  0.9425 -0.3341  0.0000
              Bcc     0.3136    42.088    15.018    14.039 -0.0000  0.0000  1.0000
 
              Baa    -0.0962   -12.915    -4.608    -4.308  0.9570 -0.2903 -0.0000
     4 C(13)  Bbb     0.0100     1.337     0.477     0.446  0.0000  0.0000  1.0000
              Bcc     0.0863    11.578     4.131     3.862  0.2903  0.9570 -0.0000
 
              Baa    -0.0201   -10.729    -3.828    -3.579  0.7001 -0.3738  0.6084
     5 H(1)   Bbb    -0.0053    -2.821    -1.006    -0.941  0.7047  0.4997 -0.5037
              Bcc     0.0254    13.549     4.835     4.520 -0.1157  0.7814  0.6133
 
              Baa    -0.0201   -10.729    -3.828    -3.579  0.7001 -0.3738 -0.6084
     6 H(1)   Bbb    -0.0053    -2.821    -1.006    -0.941  0.7047  0.4997  0.5037
              Bcc     0.0254    13.549     4.835     4.520 -0.1157  0.7814 -0.6133
 

 ---------------------------------------------------------------------------------

 No NMR shielding tensors so no spin-rotation constants.
 Leave Link  601 at Thu Jan 31 04:22:34 2019, MaxMem=    33554432 cpu:         2.7
 (Enter /home/proyectos/fulerenos/M3C-v2.0/M3C-deps_CCC/g09-AM64L-G09RevC.01/l701.exe)
 Compute integral second derivatives.
 ... and contract with generalized density number  0.
 Leave Link  701 at Thu Jan 31 04:22:35 2019, MaxMem=    33554432 cpu:         2.0
 (Enter /home/proyectos/fulerenos/M3C-v2.0/M3C-deps_CCC/g09-AM64L-G09RevC.01/l702.exe)
 L702 exits ... SP integral derivatives will be done elsewhere.
 Leave Link  702 at Thu Jan 31 04:22:35 2019, MaxMem=    33554432 cpu:         0.1
 (Enter /home/proyectos/fulerenos/M3C-v2.0/M3C-deps_CCC/g09-AM64L-G09RevC.01/l703.exe)
 Compute integral second derivatives, UseDBF=F ICtDFT=           0.
 Integral derivatives from FoFJK, PRISM(SPDF).
 Calling FoFJK, ICntrl=    100127 FMM=F ISym2X=1 I1Cent= 0 IOpClX= 1 NMat=1 NMatS=1 NMatT=0.
 FoFJK:  IHMeth= 1 ICntrl=  100127 DoSepK=F KAlg= 0 I1Cent=   0 FoldK=F
 IRaf=         0 NMat=   1 IRICut=       1 DoRegI=T DoRafI=F ISym2E= 1.
 FoFCou: FMM=F IPFlag=           0 FMFlag=      100000 FMFlg1=         800
         NFxFlg=           0 DoJE=F BraDBF=F KetDBF=F FulRan=T
         wScrn=  0.000000 ICntrl=  100127 IOpCl=  1 I1Cent=           0 NGrid=           0
         NMat0=    1 NMatS0=      1 NMatT0=    0 NMatD0=    1 NMtDS0=    0 NMtDT0=    0
 Petite list used in FoFCou.
 Leave Link  703 at Thu Jan 31 04:23:13 2019, MaxMem=    33554432 cpu:       152.7
 (Enter /home/proyectos/fulerenos/M3C-v2.0/M3C-deps_CCC/g09-AM64L-G09RevC.01/l716.exe)
 Dipole        =-1.52899229D-01 5.26446062D-02 1.37802096D-15
 Polarizability= 4.21354176D+01 2.49488991D+01 6.07066323D+01
                 1.06983073D-08 2.56852028D-07 2.12284725D+01
 Full mass-weighted force constant matrix:
 Low frequencies ---  -14.3970   -0.0008   -0.0006   -0.0002    7.7570   15.5506
 Low frequencies ---  241.6653  339.7725  500.7370
 Diagonal vibrational polarizability:
       17.0296122       9.8660114       8.2704045
 Harmonic frequencies (cm**-1), IR intensities (KM/Mole), Raman scattering
 activities (A**4/AMU), depolarization ratios for plane and unpolarized
 incident light, reduced masses (AMU), force constants (mDyne/A),
 and normal coordinates:
                      1                      2                      3
                     A'                     A"                     A'
 Frequencies --    241.6645               339.7725               500.7369
 Red. masses --      9.0724                 3.0971                 7.8815
 Frc consts  --      0.3122                 0.2107                 1.1643
 IR Inten    --      3.3354                17.9902                14.1701
  Atom  AN      X      Y      Z        X      Y      Z        X      Y      Z
     1   6    -0.04   0.51   0.00     0.00   0.00  -0.08    -0.18  -0.31   0.00
     2   6     0.23  -0.23  -0.00    -0.00  -0.00   0.04    -0.23   0.14  -0.00
     3   6     0.28  -0.25  -0.00     0.00  -0.00   0.35     0.59  -0.06  -0.00
     4   6    -0.48   0.03   0.00    -0.00   0.00  -0.24    -0.11   0.24   0.00
     5   1     0.06  -0.36   0.01    -0.19   0.49  -0.36    -0.43  -0.03   0.03
     6   1     0.06  -0.36  -0.01     0.19  -0.49  -0.36    -0.43  -0.03  -0.03
                      4                      5                      6
                     A"                     A'                     A'
 Frequencies --    619.9013               633.8091               870.8353
 Red. masses --      2.0104                 3.6345                 2.5866
 Frc consts  --      0.4552                 0.8602                 1.1557
 IR Inten    --     14.0750                53.7845                18.9102
  Atom  AN      X      Y      Z        X      Y      Z        X      Y      Z
     1   6     0.00   0.00  -0.10     0.39   0.10   0.00     0.02   0.01  -0.00
     2   6    -0.00   0.00   0.24    -0.25   0.07  -0.00    -0.04   0.25   0.00
     3   6    -0.00  -0.00  -0.15     0.00  -0.04   0.00     0.05  -0.13  -0.00
     4   6    -0.00  -0.00   0.04    -0.04  -0.08  -0.00    -0.10  -0.22   0.00
     5   1    -0.62   0.18  -0.20    -0.57  -0.24  -0.04     0.42   0.50   0.03
     6   1     0.62  -0.18  -0.20    -0.57  -0.24   0.04     0.42   0.50  -0.03
                      7                      8                      9
                     A"                     A'                     A'
 Frequencies --    944.5198              1006.7090              1161.3799
 Red. masses --      1.1488                 1.2898                 1.7472
 Frc consts  --      0.6038                 0.7702                 1.3885
 IR Inten    --      1.3134               274.5622               360.5986
  Atom  AN      X      Y      Z        X      Y      Z        X      Y      Z
     1   6     0.00   0.00   0.03     0.03   0.02   0.00    -0.05  -0.04  -0.00
     2   6    -0.00   0.00   0.06    -0.14  -0.03  -0.00     0.13   0.19   0.00
     3   6     0.00  -0.00  -0.09     0.01  -0.00   0.00    -0.02   0.03  -0.00
     4   6    -0.00  -0.00   0.02     0.02   0.06   0.00    -0.03  -0.09  -0.00
     5   1     0.43   0.55  -0.07     0.51  -0.26   0.40    -0.17  -0.57   0.33
     6   1    -0.43  -0.55  -0.07     0.51  -0.26  -0.40    -0.17  -0.57  -0.33
                     10                     11                     12
                     A'                     A"                     A'
 Frequencies --   1733.0634              2260.4877              2284.8264
 Red. masses --     11.3511                 1.0905                 1.0515
 Frc consts  --     20.0870                 3.2830                 3.2341
 IR Inten    --    140.4024               579.3991               741.1196
  Atom  AN      X      Y      Z        X      Y      Z        X      Y      Z
     1   6    -0.02  -0.01   0.00     0.00  -0.00  -0.00     0.01   0.00   0.00
     2   6    -0.09  -0.23  -0.00     0.00  -0.00  -0.09     0.03  -0.05   0.00
     3   6     0.28   0.72  -0.00     0.00   0.00  -0.00    -0.00  -0.00   0.00
     4   6    -0.19  -0.49   0.00    -0.00  -0.00  -0.00    -0.00  -0.00  -0.00
     5   1     0.17   0.03  -0.03    -0.27   0.35   0.55    -0.25   0.33   0.57
     6   1     0.17   0.03   0.03     0.27  -0.35   0.55    -0.25   0.33  -0.57

 -------------------
 - Thermochemistry -
 -------------------
 Temperature   298.150 Kelvin.  Pressure   1.00000 Atm.
 Atom     1 has atomic number  6 and mass  12.00000
 Atom     2 has atomic number  6 and mass  12.00000
 Atom     3 has atomic number  6 and mass  12.00000
 Atom     4 has atomic number  6 and mass  12.00000
 Atom     5 has atomic number  1 and mass   1.00783
 Atom     6 has atomic number  1 and mass   1.00783
 Molecular mass:    50.01565 amu.
 Principal axes and moments of inertia in atomic units:
                           1         2         3
     Eigenvalues --    36.24686 372.48112 396.03749
           X            0.55338   0.83293   0.00000
           Y            0.83293  -0.55338   0.00000
           Z           -0.00000   0.00000   1.00000
 This molecule is an asymmetric top.
 Rotational symmetry number  1.
 Rotational temperatures (Kelvin)      2.38955     0.23253     0.21870
 Rotational constants (GHZ):          49.79027     4.84519     4.55700
 Zero-point vibrational energy      75351.0 (Joules/Mol)
                                   18.00932 (Kcal/Mol)
 Warning -- explicit consideration of   4 degrees of freedom as
           vibrations may cause significant error
 Vibrational temperatures:    347.70   488.86   720.45   891.90   911.91
          (Kelvin)           1252.94  1358.95  1448.43  1670.96  2493.49
                             3252.33  3287.35
 
 Zero-point correction=                           0.028700 (Hartree/Particle)
 Thermal correction to Energy=                    0.033082
 Thermal correction to Enthalpy=                  0.034026
 Thermal correction to Gibbs Free Energy=         0.001483
 Sum of electronic and zero-point Energies=           -151.412644
 Sum of electronic and thermal Energies=              -151.408262
 Sum of electronic and thermal Enthalpies=            -151.407317
 Sum of electronic and thermal Free Energies=         -151.439861
 
                     E (Thermal)             CV                S
                      KCal/Mol        Cal/Mol-Kelvin    Cal/Mol-Kelvin
 Total                   20.759             14.159             68.494
 Electronic               0.000              0.000              2.755
 Translational            0.889              2.981             37.653
 Rotational               0.889              2.981             23.196
 Vibrational             18.982              8.197              4.890
 Vibration     1          0.658              1.777              1.791
 Vibration     2          0.720              1.596              1.213
 Vibration     3          0.856              1.248              0.656
 Vibration     4          0.980              0.990              0.417
                       Q            Log10(Q)             Ln(Q)
 Total Bot       0.208004D+00         -0.681928         -1.570198
 Total V=0       0.330356D+13         12.518982         28.826022
 Vib (Bot)       0.142888D-12        -12.845004        -29.576716
 Vib (Bot)    1  0.810759D+00         -0.091108         -0.209784
 Vib (Bot)    2  0.546577D+00         -0.262349         -0.604080
 Vib (Bot)    3  0.328008D+00         -0.484116         -1.114718
 Vib (Bot)    4  0.235934D+00         -0.627209         -1.444202
 Vib (V=0)       0.226938D+01          0.355906          0.819505
 Vib (V=0)    1  0.145254D+01          0.162128          0.373313
 Vib (V=0)    2  0.124077D+01          0.093693          0.215735
 Vib (V=0)    3  0.109799D+01          0.040597          0.093479
 Vib (V=0)    4  0.105287D+01          0.022375          0.051520
 Electronic      0.400000D+01          0.602060          1.386294
 Translational   0.139032D+08          7.143114         16.447628
 Rotational      0.261759D+05          4.417902         10.172595
 
                                                              b3lyp opt
                                                             IR Spectrum
 
      22                            1                               1        1                                                       
      22                            7                               1        0  9   8            66      5        3    2             
      86                            3                               6        0  4   7            32      0        4    4             
      50                            3                               1        7  5   1            40      1        0    2             
 
      XX                            X                               X        X  X   X            XX      X        X    X             
      XX                            X                               X        X                                                       
      XX                            X                               X        X                                                       
      XX                            X                               X        X                                                       
      XX                                                            X        X                                                       
      XX                                                            X        X                                                       
      XX                                                            X        X                                                       
      XX                                                            X                                                                
      XX                                                            X                                                                
      XX                                                            X                                                                
      XX                                                                                                                             
      XX                                                                                                                             
      XX                                                                                                                             
      XX                                                                                                                             
      XX                                                                                                                             
      XX                                                                                                                             
      X                                                                                                                              
      X                                                                                                                              
      X                                                                                                                              
      X                                                                                                                              
 
 ***** Axes restored to original set *****
 -------------------------------------------------------------------
 Center     Atomic                   Forces (Hartrees/Bohr)
 Number     Number              X              Y              Z
 -------------------------------------------------------------------
      1        6          -0.000055512   -0.000022463   -0.000000000
      2        6           0.000025089    0.000035029   -0.000000000
      3        6          -0.000035962   -0.000035480    0.000000000
      4        6           0.000073089    0.000014041    0.000000000
      5        1          -0.000003352    0.000004437    0.000045494
      6        1          -0.000003352    0.000004437   -0.000045494
 -------------------------------------------------------------------
 Cartesian Forces:  Max     0.000073089 RMS     0.000031389
 Z-matrix is all fixed cartesians, so copy forces.
 Force constants in Cartesian coordinates: 
                1             2             3             4             5 
      1  0.100387D+00
      2  0.528406D-01  0.546950D-01
      3  0.000000D+00  0.000000D+00  0.144789D-01
      4 -0.800148D-01 -0.411928D-01  0.000000D+00  0.439868D+00
      5 -0.297995D-01 -0.419890D-01  0.000000D+00 -0.445869D-01  0.229313D+00
      6  0.000000D+00  0.000000D+00 -0.899786D-02  0.000000D+00  0.000000D+00
      7 -0.469393D-01 -0.227965D-01  0.000000D+00 -0.279672D+00  0.582852D-01
      8 -0.686391D-02  0.106143D-01  0.000000D+00  0.495416D-01 -0.673364D-01
      9  0.000000D+00  0.000000D+00 -0.110924D-02  0.000000D+00  0.000000D+00
     10  0.556905D-02  0.794274D-02  0.000000D+00  0.474924D-02 -0.181558D-03
     11  0.207716D-03  0.126312D-03  0.000000D+00  0.373874D-02  0.909174D-02
     12  0.000000D+00  0.000000D+00  0.187575D-02  0.000000D+00  0.000000D+00
     13  0.104988D-01  0.160297D-02  0.652782D-02 -0.424653D-01  0.814140D-02
     14 -0.819245D-02 -0.117233D-01  0.993196D-02  0.162497D-01 -0.645396D-01
     15  0.910523D-02  0.872354D-02 -0.312377D-02 -0.214014D-01  0.574423D-01
     16  0.104988D-01  0.160297D-02 -0.652782D-02 -0.424653D-01  0.814140D-02
     17 -0.819245D-02 -0.117233D-01 -0.993196D-02  0.162497D-01 -0.645396D-01
     18 -0.910523D-02 -0.872354D-02 -0.312377D-02  0.214014D-01 -0.574423D-01
                6             7             8             9            10 
      6  0.266792D+00
      7  0.000000D+00  0.856172D+00
      8  0.000000D+00 -0.165312D+00  0.115045D+00
      9 -0.540961D-01  0.000000D+00  0.000000D+00  0.837986D-01
     10  0.000000D+00 -0.527989D+00  0.976581D-01  0.000000D+00  0.533093D+00
     11  0.000000D+00  0.102479D+00 -0.472799D-01  0.000000D+00 -0.106976D+00
     12  0.126536D-01  0.000000D+00  0.000000D+00 -0.300131D-01  0.000000D+00
     13 -0.159757D-01 -0.785928D-03  0.124884D-01 -0.187165D-01 -0.771112D-02
     14  0.654453D-01  0.136724D-01 -0.552143D-02  0.498844D-02  0.778421D-03
     15 -0.108176D+00 -0.504825D-02  0.912918D-04  0.709900D-03 -0.546218D-02
     16  0.159757D-01 -0.785928D-03  0.124884D-01  0.187165D-01 -0.771112D-02
     17 -0.654453D-01  0.136724D-01 -0.552143D-02 -0.498844D-02  0.778421D-03
     18 -0.108176D+00  0.504825D-02 -0.912917D-04  0.709900D-03  0.546218D-02
               11            12            13            14            15 
     11  0.359325D-01
     12  0.000000D+00  0.148643D-01
     13  0.275310D-03  0.203912D-02  0.388828D-01
     14  0.106468D-02 -0.619855D-04 -0.200553D-01  0.746055D-01
     15  0.137150D-02  0.309701D-03  0.244659D-01 -0.739662D-01  0.125147D+00
     16  0.275310D-03 -0.203912D-02  0.158082D-02 -0.245270D-02 -0.165931D-02
     17  0.106468D-02  0.619857D-04 -0.245270D-02  0.611417D-02  0.633752D-02
     18 -0.137150D-02  0.309701D-03  0.165931D-02 -0.633752D-02 -0.148671D-01
               16            17            18 
     16  0.388828D-01
     17 -0.200553D-01  0.746055D-01
     18 -0.244659D-01  0.739662D-01  0.125147D+00
 Leave Link  716 at Thu Jan 31 04:23:13 2019, MaxMem=    33554432 cpu:         0.1
 (Enter /home/proyectos/fulerenos/M3C-v2.0/M3C-deps_CCC/g09-AM64L-G09RevC.01/l103.exe)

 GradGradGradGradGradGradGradGradGradGradGradGradGradGradGradGradGradGrad
 Berny optimization.
 Search for a local minimum.
 Step number   1 out of a maximum of    2
 All quantities printed in internal units (Hartrees-Bohrs-Radians)
 Second derivative matrix not updated -- analytic derivatives used.
 The second derivative matrix:
                          X1        Y1        Z1        X2        Y2
           X1           0.10039
           Y1           0.05284   0.05469
           Z1           0.00000  -0.00000   0.01448
           X2          -0.08001  -0.04119  -0.00000   0.43987
           Y2          -0.02980  -0.04199  -0.00000  -0.04459   0.22931
           Z2          -0.00000   0.00000  -0.00900   0.00000   0.00000
           X3          -0.04694  -0.02280   0.00000  -0.27967   0.05829
           Y3          -0.00686   0.01061   0.00000   0.04954  -0.06734
           Z3           0.00000  -0.00000  -0.00111   0.00000   0.00000
           X4           0.00557   0.00794  -0.00000   0.00475  -0.00018
           Y4           0.00021   0.00013   0.00000   0.00374   0.00909
           Z4          -0.00000   0.00000   0.00188   0.00000  -0.00000
           X5           0.01050   0.00160   0.00653  -0.04247   0.00814
           Y5          -0.00819  -0.01172   0.00993   0.01625  -0.06454
           Z5           0.00911   0.00872  -0.00312  -0.02140   0.05744
           X6           0.01050   0.00160  -0.00653  -0.04247   0.00814
           Y6          -0.00819  -0.01172  -0.00993   0.01625  -0.06454
           Z6          -0.00911  -0.00872  -0.00312   0.02140  -0.05744
                          Z2        X3        Y3        Z3        X4
           Z2           0.26679
           X3          -0.00000   0.85617
           Y3          -0.00000  -0.16531   0.11504
           Z3          -0.05410  -0.00000  -0.00000   0.08380
           X4          -0.00000  -0.52799   0.09766   0.00000   0.53309
           Y4          -0.00000   0.10248  -0.04728  -0.00000  -0.10698
           Z4           0.01265   0.00000   0.00000  -0.03001  -0.00000
           X5          -0.01598  -0.00079   0.01249  -0.01872  -0.00771
           Y5           0.06545   0.01367  -0.00552   0.00499   0.00078
           Z5          -0.10818  -0.00505   0.00009   0.00071  -0.00546
           X6           0.01598  -0.00079   0.01249   0.01872  -0.00771
           Y6          -0.06545   0.01367  -0.00552  -0.00499   0.00078
           Z6          -0.10818   0.00505  -0.00009   0.00071   0.00546
                          Y4        Z4        X5        Y5        Z5
           Y4           0.03593
           Z4           0.00000   0.01486
           X5           0.00028   0.00204   0.03888
           Y5           0.00106  -0.00006  -0.02006   0.07461
           Z5           0.00137   0.00031   0.02447  -0.07397   0.12515
           X6           0.00028  -0.00204   0.00158  -0.00245  -0.00166
           Y6           0.00106   0.00006  -0.00245   0.00611   0.00634
           Z6          -0.00137   0.00031   0.00166  -0.00634  -0.01487
                          X6        Y6        Z6
           X6           0.03888
           Y6          -0.02006   0.07461
           Z6          -0.02447   0.07397   0.12515
 ITU=  0
     Eigenvalues ---    0.01953   0.02051   0.03705   0.03728   0.06051
     Eigenvalues ---    0.11182   0.11908   0.19509   0.31770   0.38106
     Eigenvalues ---    0.49836   1.36096
 Angle between quadratic step and forces=  51.02 degrees.
 ClnCor:  largest displacement from symmetrization is 3.16D-11 for atom     6.
 Linear search not attempted -- first point.
 ClnCor:  largest displacement from symmetrization is 2.75D-15 for atom     1.
 B after Tr=    -0.000071   -0.000025    0.000000
         Rot=    1.000000    0.000000    0.000000   -0.000012 Ang=  -0.00 deg.
 Variable       Old X    -DE/DX   Delta X   Delta X   Delta X     New X
                                 (Linear)    (Quad)   (Total)
    X1       -3.46646  -0.00006   0.00000  -0.00096  -0.00100  -3.46747
    Y1       -1.04535  -0.00002   0.00000   0.00022   0.00011  -1.04524
    Z1        0.00000  -0.00000   0.00000   0.00000   0.00000   0.00000
    X2       -1.18427   0.00003   0.00000   0.00008  -0.00001  -1.18428
    Y2        0.75165   0.00004   0.00000  -0.00041  -0.00046   0.75119
    Z2        0.00000  -0.00000   0.00000   0.00000  -0.00000   0.00000
    X3        1.38312  -0.00004   0.00000   0.00003  -0.00005   1.38308
    Y3        0.06893  -0.00004   0.00000  -0.00078  -0.00078   0.06815
    Z3        0.00000   0.00000   0.00000   0.00000   0.00000   0.00000
    X4        3.83417   0.00007   0.00000   0.00050   0.00044   3.83462
    Y4       -0.44215   0.00001   0.00000   0.00082   0.00089  -0.44126
    Z4        0.00000   0.00000   0.00000   0.00000   0.00000   0.00000
    X5       -1.69974  -0.00000   0.00000   0.00043   0.00031  -1.69943
    Y5        2.00062   0.00000   0.00000   0.00018   0.00012   2.00073
    Z5       -1.77426   0.00005   0.00000   0.00058   0.00058  -1.77367
    X6       -1.69974  -0.00000   0.00000   0.00043   0.00031  -1.69943
    Y6        2.00062   0.00000   0.00000   0.00018   0.00012   2.00073
    Z6        1.77426  -0.00005   0.00000  -0.00058  -0.00058   1.77367
         Item               Value     Threshold  Converged?
 Maximum Force            0.000073     0.000450     YES
 RMS     Force            0.000031     0.000300     YES
 Maximum Displacement     0.001005     0.001800     YES
 RMS     Displacement     0.000454     0.001200     YES
 Predicted change in Energy=-8.148950D-08
 Optimization completed.
    -- Stationary point found.
 GradGradGradGradGradGradGradGradGradGradGradGradGradGradGradGradGradGrad

 Leave Link  103 at Thu Jan 31 04:23:13 2019, MaxMem=    33554432 cpu:         0.1
 (Enter /home/proyectos/fulerenos/M3C-v2.0/M3C-deps_CCC/g09-AM64L-G09RevC.01/l9999.exe)

 Test job not archived.
 1\1\GINC-COPERNICIO\Freq\UB3LYP\6-311++G(3df,2p)\C4H2(3+,4)\ROOT\31-Ja
 n-2019\0\\#p b3lyp/6-311++G(3df,2p) freq IOp(2/17=3) IOp(2/18=3)\\b3ly
 p opt\\3,4\C,-1.834373998,-0.553173994,0.0000008554\C,-0.626687,0.3977
 56,0.0000008554\C,0.731915998,0.036474992,0.0000008554\C,2.028958,-0.2
 33975999,0.0000008554\H,-0.899461607,1.058680173,-0.938895761\H,-0.899
 461607,1.058680173,0.9388974718\\Version=EM64L-G09RevE.01\State=4-A"\H
 F=-151.4413436\S2=3.811594\S2-1=0.\S2A=3.750187\RMSD=1.834e-09\RMSF=3.
 139e-05\ZeroPoint=0.0286997\Thermal=0.033082\Dipole=0.0374868,0.157303
 4,0.\DipoleDeriv=1.4345635,0.5036203,0.,0.5799629,1.0717089,0.,0.,0.,0
 .7494903,-0.9538823,-0.1182122,0.,-0.330819,-0.5060007,0.,0.,0.,-0.230
 4756,-0.356112,-0.2525107,0.,0.2132607,0.5214064,0.,0.,0.,0.579323,2.2
 53384,0.0608981,0.,-0.2914136,0.8377544,0.,0.,0.,0.8181938,0.3110234,-
 0.0968977,0.0750147,-0.0854955,0.5375655,-0.2062382,0.1901645,-0.30378
 39,0.5417342,0.3110234,-0.0968977,-0.0750147,-0.0854955,0.5375655,0.20
 62382,-0.1901645,0.3037839,0.5417342\Polar=77.9493268,2.2179433,24.892
 7231,0.0000002,-0.0000001,21.2284725\PG=CS [SG(C4),X(H2)]\NImag=0\\0.1
 0038745,0.05284063,0.05469499,0.,0.,0.01447890,-0.08001477,-0.04119278
 ,0.,0.43986807,-0.02979953,-0.04198898,0.,-0.04458689,0.22931286,0.,0.
 ,-0.00899786,0.,0.,0.26679154,-0.04693931,-0.02279655,0.,-0.27967188,0
 .05828517,0.,0.85617171,-0.00686391,0.01061432,0.,0.04954158,-0.067336
 38,0.,-0.16531244,0.11504482,0.,0.,-0.00110924,0.,0.,-0.05409606,0.,0.
 ,0.08379858,0.00556905,0.00794274,0.,0.00474924,-0.00018156,0.,-0.5279
 8866,0.09765808,0.,0.53309261,0.00020772,0.00012631,0.,0.00373874,0.00
 909174,0.,0.10247903,-0.04727989,0.,-0.10697610,0.03593248,0.,0.,0.001
 87575,0.,0.,0.01265360,0.,0.,-0.03001308,0.,0.,0.01486433,0.01049879,0
 .00160297,0.00652782,-0.04246533,0.00814140,-0.01597569,-0.00078593,0.
 01248835,-0.01871648,-0.00771112,0.00027531,0.00203912,0.03888277,-0.0
 0819245,-0.01172332,0.00993196,0.01624967,-0.06453962,0.06544526,0.013
 67240,-0.00552143,0.00498844,0.00077842,0.00106468,-0.00006199,-0.0200
 5534,0.07460552,0.00910523,0.00872354,-0.00312377,-0.02140140,0.057442
 31,-0.10817560,-0.00504825,0.00009129,0.00070990,-0.00546218,0.0013715
 0,0.00030970,0.02446592,-0.07396616,0.12514691,0.01049879,0.00160297,-
 0.00652782,-0.04246533,0.00814140,0.01597570,-0.00078593,0.01248835,0.
 01871648,-0.00771112,0.00027531,-0.00203912,0.00158082,-0.00245270,-0.
 00165931,0.03888277,-0.00819245,-0.01172332,-0.00993196,0.01624967,-0.
 06453962,-0.06544526,0.01367240,-0.00552143,-0.00498844,0.00077842,0.0
 0106468,0.00006199,-0.00245270,0.00611417,0.00633752,-0.02005534,0.074
 60552,-0.00910523,-0.00872354,-0.00312377,0.02140140,-0.05744231,-0.10
 817560,0.00504825,-0.00009129,0.00070990,0.00546218,-0.00137150,0.0003
 0970,0.00165931,-0.00633752,-0.01486713,-0.02446592,0.07396616,0.12514
 691\\0.00005551,0.00002246,0.,-0.00002509,-0.00003503,0.,0.00003596,0.
 00003548,0.,-0.00007309,-0.00001404,0.,0.00000335,-0.00000444,-0.00004
 549,0.00000335,-0.00000444,0.00004549\\\@


 My opinions may have changed, but not the fact that I am right.
                       -- Ashleigh Brilliant
 Job cpu time:       0 days  0 hours 19 minutes 49.6 seconds.
 File lengths (MBytes):  RWF=     35 Int=      0 D2E=      0 Chk=      3 Scr=      1
 Normal termination of Gaussian 09 at Thu Jan 31 04:23:13 2019.
