 Entering Gaussian System, Link 0=/home/proyectos/fulerenos/M3C-v2.0/M3C-deps_CCC/g09-AM64L-G09RevC.01/g09
 Initial command:
 /home/proyectos/fulerenos/M3C-v2.0/M3C-deps_CCC/g09-AM64L-G09RevC.01/l1.exe "/scratch/naguirre/gaussian/Gau-11869.inp" -scrdir="/scratch/naguirre/gaussian/"
 Entering Link 1 = /home/proyectos/fulerenos/M3C-v2.0/M3C-deps_CCC/g09-AM64L-G09RevC.01/l1.exe PID=     11873.
  
 Copyright (c) 1988,1990,1992,1993,1995,1998,2003,2009,2015,
            Gaussian, Inc.  All Rights Reserved.
  
 This is part of the Gaussian(R) 09 program.  It is based on
 the Gaussian(R) 03 system (copyright 2003, Gaussian, Inc.),
 the Gaussian(R) 98 system (copyright 1998, Gaussian, Inc.),
 the Gaussian(R) 94 system (copyright 1995, Gaussian, Inc.),
 the Gaussian 92(TM) system (copyright 1992, Gaussian, Inc.),
 the Gaussian 90(TM) system (copyright 1990, Gaussian, Inc.),
 the Gaussian 88(TM) system (copyright 1988, Gaussian, Inc.),
 the Gaussian 86(TM) system (copyright 1986, Carnegie Mellon
 University), and the Gaussian 82(TM) system (copyright 1983,
 Carnegie Mellon University). Gaussian is a federally registered
 trademark of Gaussian, Inc.
  
 This software contains proprietary and confidential information,
 including trade secrets, belonging to Gaussian, Inc.
  
 This software is provided under written license and may be
 used, copied, transmitted, or stored only in accord with that
 written license.
  
 The following legend is applicable only to US Government
 contracts under FAR:
  
                    RESTRICTED RIGHTS LEGEND
  
 Use, reproduction and disclosure by the US Government is
 subject to restrictions as set forth in subparagraphs (a)
 and (c) of the Commercial Computer Software - Restricted
 Rights clause in FAR 52.227-19.
  
 Gaussian, Inc.
 340 Quinnipiac St., Bldg. 40, Wallingford CT 06492
  
  
 ---------------------------------------------------------------
 Warning -- This program may not be used in any manner that
 competes with the business of Gaussian, Inc. or will provide
 assistance to any competitor of Gaussian, Inc.  The licensee
 of this program is prohibited from giving any competitor of
 Gaussian, Inc. access to this program.  By using this program,
 the user acknowledges that Gaussian, Inc. is engaged in the
 business of creating and licensing software in the field of
 computational chemistry and represents and warrants to the
 licensee that it is not a competitor of Gaussian, Inc. and that
 it will not use this program in any manner prohibited above.
 ---------------------------------------------------------------
  

 Cite this work as:
 Gaussian 09, Revision E.01,
 M. J. Frisch, G. W. Trucks, H. B. Schlegel, G. E. Scuseria, 
 M. A. Robb, J. R. Cheeseman, G. Scalmani, V. Barone, B. Mennucci, 
 G. A. Petersson, H. Nakatsuji, M. Caricato, X. Li, H. P. Hratchian, 
 A. F. Izmaylov, J. Bloino, G. Zheng, J. L. Sonnenberg, M. Hada, 
 M. Ehara, K. Toyota, R. Fukuda, J. Hasegawa, M. Ishida, T. Nakajima, 
 Y. Honda, O. Kitao, H. Nakai, T. Vreven, J. A. Montgomery, Jr., 
 J. E. Peralta, F. Ogliaro, M. Bearpark, J. J. Heyd, E. Brothers, 
 K. N. Kudin, V. N. Staroverov, T. Keith, R. Kobayashi, J. Normand, 
 K. Raghavachari, A. Rendell, J. C. Burant, S. S. Iyengar, J. Tomasi, 
 M. Cossi, N. Rega, J. M. Millam, M. Klene, J. E. Knox, J. B. Cross, 
 V. Bakken, C. Adamo, J. Jaramillo, R. Gomperts, R. E. Stratmann, 
 O. Yazyev, A. J. Austin, R. Cammi, C. Pomelli, J. W. Ochterski, 
 R. L. Martin, K. Morokuma, V. G. Zakrzewski, G. A. Voth, 
 P. Salvador, J. J. Dannenberg, S. Dapprich, A. D. Daniels, 
 O. Farkas, J. B. Foresman, J. V. Ortiz, J. Cioslowski, 
 and D. J. Fox, Gaussian, Inc., Wallingford CT, 2013.
 
 ******************************************
 Gaussian 09:  EM64L-G09RevE.01 30-Nov-2015
                31-Jan-2019 
 ******************************************
 %NProcShared=4
 Will use up to    4 processors via shared memory.
 ------------------------------------------------------
 #p b3lyp/6-311++G(3df,2p) freq IOp(2/17=3) IOp(2/18=3)
 ------------------------------------------------------
 1/10=4,30=1,38=1/1,3;
 2/12=2,17=3,18=3,40=1/2;
 3/5=4,6=6,7=1216,11=2,16=1,25=1,30=1,71=2,74=-5,140=1/1,2,3;
 4//1;
 5/5=2,38=5,98=1/2;
 8/6=4,10=90,11=11/1;
 11/6=1,8=1,9=11,15=111,16=1/1,2,10;
 10/6=1/2;
 6/7=2,8=2,9=2,10=2,18=1,28=1/1;
 7/8=1,10=1,25=1/1,2,3,16;
 1/10=4,30=1/3;
 99//99;
 Leave Link    1 at Thu Jan 31 05:04:12 2019, MaxMem=           0 cpu:         0.2
 (Enter /home/proyectos/fulerenos/M3C-v2.0/M3C-deps_CCC/g09-AM64L-G09RevC.01/l101.exe)
 ---------
 b3lyp opt
 ---------
 Symbolic Z-matrix:
 Charge =  3 Multiplicity = 4
 C                     1.32573  -0.35913   0.06981 
 C                    -0.00069  -0.83678  -0.00013 
 C                    -1.32632  -0.35691  -0.06992 
 C                    -0.71611   0.90838   0.16466 
 C                     0.71762   0.90725  -0.16434 
 H                     2.37565  -0.79042   0.06371 
 H                    -2.37696  -0.78645  -0.06396 
 
 NAtoms=      7 NQM=        7 NQMF=       0 NMMI=      0 NMMIF=      0
                NMic=       0 NMicF=      0.
                    Isotopes and Nuclear Properties:
 (Nuclear quadrupole moments (NQMom) in fm**2, nuclear magnetic moments (NMagM)
  in nuclear magnetons)

  Atom         1           2           3           4           5           6           7
 IAtWgt=          12          12          12          12          12           1           1
 AtmWgt=  12.0000000  12.0000000  12.0000000  12.0000000  12.0000000   1.0078250   1.0078250
 NucSpn=           0           0           0           0           0           1           1
 AtZEff=   0.0000000   0.0000000   0.0000000   0.0000000   0.0000000   0.0000000   0.0000000
 NQMom=    0.0000000   0.0000000   0.0000000   0.0000000   0.0000000   0.0000000   0.0000000
 NMagM=    0.0000000   0.0000000   0.0000000   0.0000000   0.0000000   2.7928460   2.7928460
 AtZNuc=   6.0000000   6.0000000   6.0000000   6.0000000   6.0000000   1.0000000   1.0000000
 Leave Link  101 at Thu Jan 31 05:04:12 2019, MaxMem=    33554432 cpu:         0.3
 (Enter /home/proyectos/fulerenos/M3C-v2.0/M3C-deps_CCC/g09-AM64L-G09RevC.01/l103.exe)

 GradGradGradGradGradGradGradGradGradGradGradGradGradGradGradGradGradGrad
 Berny optimization.
 Initialization pass.
 Trust Radius=3.00D-01 FncErr=1.00D-07 GrdErr=1.00D-07
 Number of steps in this run=      2 maximum allowed number of steps=      2.
 GradGradGradGradGradGradGradGradGradGradGradGradGradGradGradGradGradGrad

 Leave Link  103 at Thu Jan 31 05:04:12 2019, MaxMem=    33554432 cpu:         0.1
 (Enter /home/proyectos/fulerenos/M3C-v2.0/M3C-deps_CCC/g09-AM64L-G09RevC.01/l202.exe)
                          Input orientation:                          
 ---------------------------------------------------------------------
 Center     Atomic      Atomic             Coordinates (Angstroms)
 Number     Number       Type             X           Y           Z
 ---------------------------------------------------------------------
      1          6           0        1.325726   -0.359128    0.069813
      2          6           0       -0.000693   -0.836783   -0.000133
      3          6           0       -1.326318   -0.356905   -0.069918
      4          6           0       -0.716110    0.908380    0.164659
      5          6           0        0.717618    0.907247   -0.164340
      6          1           0        2.375649   -0.790415    0.063707
      7          1           0       -2.376955   -0.786454   -0.063956
 ---------------------------------------------------------------------
                    Distance matrix (angstroms):
                    1          2          3          4          5
     1  C    0.000000
     2  C    1.411536   0.000000
     3  C    2.655723   1.411536   0.000000
     4  C    2.405134   1.893297   1.424194   0.000000
     5  C    1.424194   1.893297   2.405134   1.470992   0.000000
     6  H    1.135071   2.377652   3.729658   3.529175   2.383932
     7  H    3.729658   2.377652   1.135071   2.383932   3.529175
                    6          7
     6  H    0.000000
     7  H    4.754321   0.000000
 Stoichiometry    C5H2(3+,4)
 Framework group  C2[C2(C),X(C4H2)]
 Deg. of freedom     8
 Full point group                 C2      NOp   2
 Largest Abelian subgroup         C2      NOp   2
 Largest concise Abelian subgroup C2      NOp   2
                         Standard orientation:                         
 ---------------------------------------------------------------------
 Center     Atomic      Atomic             Coordinates (Angstroms)
 Number     Number       Type             X           Y           Z
 ---------------------------------------------------------------------
      1          6           0       -0.000000    1.327859    0.358028
      2          6           0        0.000000    0.000000    0.836783
      3          6           0       -0.000000   -1.327859    0.358028
      4          6           0       -0.202109   -0.707217   -0.907786
      5          6           0        0.202109    0.707217   -0.907786
      6          1           0        0.061311    2.376366    0.788445
      7          1           0       -0.061311   -2.376366    0.788445
 ---------------------------------------------------------------------
 Rotational constants (GHZ):     15.2018156      7.5778857      5.1366294
 Leave Link  202 at Thu Jan 31 05:04:12 2019, MaxMem=    33554432 cpu:         0.0
 (Enter /home/proyectos/fulerenos/M3C-v2.0/M3C-deps_CCC/g09-AM64L-G09RevC.01/l301.exe)
 Standard basis: 6-311++G(3df,2p) (5D, 7F)
 Ernie: Thresh=  0.10000D-02 Tol=  0.10000D-05 Strict=F.
 There are   125 symmetry adapted cartesian basis functions of A   symmetry.
 There are   120 symmetry adapted cartesian basis functions of B   symmetry.
 There are   109 symmetry adapted basis functions of A   symmetry.
 There are   106 symmetry adapted basis functions of B   symmetry.
   215 basis functions,   314 primitive gaussians,   245 cartesian basis functions
    16 alpha electrons       13 beta electrons
       nuclear repulsion energy       124.3762720197 Hartrees.
 IExCor=  402 DFT=T Ex+Corr=B3LYP ExCW=0 ScaHFX=  0.200000
 ScaDFX=  0.800000  0.720000  1.000000  0.810000 ScalE2=  1.000000  1.000000
 IRadAn=      0 IRanWt=     -1 IRanGd=            0 ICorTp=0 IEmpDi=  4
 NAtoms=    7 NActive=    7 NUniq=    4 SFac= 3.06D+00 NAtFMM=   60 NAOKFM=F Big=F
 Integral buffers will be    131072 words long.
 Raffenetti 2 integral format.
 Two-electron integral symmetry is turned on.
 Leave Link  301 at Thu Jan 31 05:04:12 2019, MaxMem=    33554432 cpu:         0.3
 (Enter /home/proyectos/fulerenos/M3C-v2.0/M3C-deps_CCC/g09-AM64L-G09RevC.01/l302.exe)
 NPDir=0 NMtPBC=     1 NCelOv=     1 NCel=       1 NClECP=     1 NCelD=      1
         NCelK=      1 NCelE2=     1 NClLst=     1 CellRange=     0.0.
 One-electron integrals computed using PRISM.
 One-electron integral symmetry used in STVInt
 NBasis=   215 RedAO= T EigKep=  1.11D-05  NBF=   109   106
 NBsUse=   215 1.00D-06 EigRej= -1.00D+00 NBFU=   109   106
 Precomputing XC quadrature grid using
 IXCGrd= 4 IRadAn=           0 IRanWt=          -1 IRanGd=           0 AccXCQ= 0.00D+00.
 Generated NRdTot=       0 NPtTot=           0 NUsed=           0 NTot=          32
 NSgBfM=   245   245   245   245   245 MxSgAt=     7 MxSgA2=     7.
 Leave Link  302 at Thu Jan 31 05:04:12 2019, MaxMem=    33554432 cpu:         1.5
 (Enter /home/proyectos/fulerenos/M3C-v2.0/M3C-deps_CCC/g09-AM64L-G09RevC.01/l303.exe)
 DipDrv:  MaxL=1.
 Leave Link  303 at Thu Jan 31 05:04:12 2019, MaxMem=    33554432 cpu:         0.2
 (Enter /home/proyectos/fulerenos/M3C-v2.0/M3C-deps_CCC/g09-AM64L-G09RevC.01/l401.exe)
 ExpMin= 3.60D-02 ExpMax= 4.56D+03 ExpMxC= 6.82D+02 IAcc=3 IRadAn=         5 AccDes= 0.00D+00
 Harris functional with IExCor=  402 and IRadAn=       5 diagonalized for initial guess.
 HarFok:  IExCor=  402 AccDes= 0.00D+00 IRadAn=         5 IDoV= 1 UseB2=F ITyADJ=14
 ICtDFT=  3500011 ScaDFX=  1.000000  1.000000  1.000000  1.000000
 FoFCou: FMM=F IPFlag=           0 FMFlag=      100000 FMFlg1=           0
         NFxFlg=           0 DoJE=T BraDBF=F KetDBF=T FulRan=T
         wScrn=  0.000000 ICntrl=     500 IOpCl=  0 I1Cent=   200000004 NGrid=           0
         NMat0=    1 NMatS0=      1 NMatT0=    0 NMatD0=    1 NMtDS0=    0 NMtDT0=    0
 Petite list used in FoFCou.
 Harris En= -190.559325605315    
 JPrj=0 DoOrth=F DoCkMO=F.
 Initial guess orbital symmetries:
 Alpha Orbitals:
       Occupied  (B) (A) (A) (A) (B) (A) (B) (A) (A) (B) (B) (A)
                 (B) (A) (A) (B)
       Virtual   (B) (A) (B) (A) (A) (B) (A) (A) (B) (B) (A) (A)
                 (A) (B) (B) (A) (B) (A) (B) (B) (A) (B) (A) (A)
                 (B) (B) (A) (A) (B) (B) (B) (A) (B) (A) (A) (B)
                 (A) (B) (A) (B) (A) (B) (A) (B) (A) (B) (B) (A)
                 (B) (B) (A) (B) (A) (A) (A) (A) (B) (B) (A) (B)
                 (B) (A) (B) (A) (B) (A) (B) (A) (B) (A) (B) (A)
                 (B) (A) (B) (A) (B) (A) (B) (A) (A) (B) (A) (B)
                 (A) (B) (B) (A) (A) (B) (A) (B) (B) (A) (A) (B)
                 (A) (B) (B) (A) (B) (A) (A) (B) (A) (B) (A) (A)
                 (B) (A) (B) (B) (A) (B) (A) (B) (A) (A) (B) (A)
                 (B) (B) (B) (B) (A) (A) (B) (B) (A) (A) (B) (A)
                 (B) (A) (A) (B) (A) (A) (B) (B) (B) (A) (B) (B)
                 (A) (A) (B) (A) (A) (B) (A) (A) (B) (A) (A) (B)
                 (B) (A) (B) (A) (A) (B) (B) (B) (A) (B) (A) (B)
                 (B) (B) (A) (B) (A) (A) (B) (B) (A) (A) (B) (B)
                 (A) (B) (A) (B) (A) (A) (A) (A) (B) (A) (B) (A)
                 (B) (B) (A) (B) (A) (B) (A)
 Beta  Orbitals:
       Occupied  (B) (A) (A) (A) (B) (A) (B) (A) (A) (B) (B) (A)
                 (B)
       Virtual   (A) (A) (B) (B) (A) (B) (A) (A) (B) (A) (A) (B)
                 (B) (A) (A) (A) (B) (B) (A) (B) (A) (B) (B) (A)
                 (B) (A) (A) (B) (B) (A) (A) (B) (B) (B) (A) (B)
                 (A) (A) (B) (A) (B) (A) (B) (A) (B) (A) (B) (A)
                 (B) (B) (A) (B) (B) (A) (B) (A) (A) (A) (A) (B)
                 (B) (A) (B) (B) (A) (B) (A) (B) (A) (B) (A) (B)
                 (A) (B) (A) (B) (A) (B) (A) (B) (A) (B) (A) (A)
                 (B) (A) (B) (A) (B) (B) (A) (A) (B) (A) (B) (B)
                 (A) (A) (B) (A) (B) (B) (A) (B) (A) (A) (B) (A)
                 (B) (A) (A) (B) (A) (B) (B) (A) (B) (A) (B) (A)
                 (A) (B) (A) (B) (B) (B) (B) (A) (A) (B) (B) (A)
                 (A) (B) (A) (B) (A) (A) (B) (A) (A) (B) (B) (B)
                 (A) (B) (B) (A) (A) (B) (A) (A) (B) (A) (A) (B)
                 (A) (A) (B) (B) (A) (B) (A) (A) (B) (B) (B) (A)
                 (B) (A) (B) (B) (B) (A) (B) (A) (A) (B) (B) (A)
                 (A) (B) (B) (A) (B) (A) (B) (A) (A) (A) (A) (B)
                 (A) (B) (A) (B) (B) (A) (B) (A) (B) (A)
 The electronic state of the initial guess is 4-B.
 Initial guess <Sx>= 0.0000 <Sy>= 0.0000 <Sz>= 1.5000 <S**2>= 3.7500 S= 1.5000
 Leave Link  401 at Thu Jan 31 05:04:14 2019, MaxMem=    33554432 cpu:         5.9
 (Enter /home/proyectos/fulerenos/M3C-v2.0/M3C-deps_CCC/g09-AM64L-G09RevC.01/l502.exe)
 UHF open shell SCF:
 Using DIIS extrapolation, IDIIS=  1040.
 Integral symmetry usage will be decided dynamically.
 IVT=      202127 IEndB=      202127 NGot=    33554432 MDV=    33429216
 LenX=    33429216 LenY=    33368750
 Requested convergence on RMS density matrix=1.00D-08 within 128 cycles.
 Requested convergence on MAX density matrix=1.00D-06.
 Requested convergence on             energy=1.00D-06.
 No special actions if energy rises.
 Fock matrices will be formed incrementally for  20 cycles.

 Cycle   1  Pass 1  IDiag  1:
 FoFJK:  IHMeth= 1 ICntrl=       0 DoSepK=F KAlg= 0 I1Cent=   0 FoldK=F
 IRaf= 990000000 NMat=   1 IRICut=       1 DoRegI=T DoRafI=F ISym2E= 1.
 FoFCou: FMM=F IPFlag=           0 FMFlag=      100000 FMFlg1=           0
         NFxFlg=           0 DoJE=F BraDBF=F KetDBF=F FulRan=T
         wScrn=  0.000000 ICntrl=       0 IOpCl=  1 I1Cent=           0 NGrid=           0
         NMat0=    1 NMatS0=      1 NMatT0=    0 NMatD0=    1 NMtDS0=    0 NMtDT0=    0
 Petite list used in FoFCou.
 E= -189.524666101031    
 DIIS: error= 3.12D-02 at cycle   1 NSaved=   1.
 NSaved= 1 IEnMin= 1 EnMin= -189.524666101031     IErMin= 1 ErrMin= 3.12D-02
 ErrMax= 3.12D-02  0.00D+00 EMaxC= 1.00D-01 BMatC= 3.81D-01 BMatP= 3.81D-01
 IDIUse=3 WtCom= 6.88D-01 WtEn= 3.12D-01
 Coeff-Com:  0.100D+01
 Coeff-En:   0.100D+01
 Coeff:      0.100D+01
 Gap=     0.069 Goal=   None    Shift=    0.000
 Gap=     0.164 Goal=   None    Shift=    0.000
 GapD=    0.069 DampG=0.500 DampE=0.500 DampFc=0.2500 IDamp=-1.
 Damping current iteration by 2.50D-01
 RMSDP=6.58D-03 MaxDP=3.31D-01              OVMax= 3.17D-01

 Cycle   2  Pass 1  IDiag  1:
 RMSU=  1.57D-03    CP:  1.04D+00
 E= -189.567369858260     Delta-E=       -0.042703757229 Rises=F Damp=T
 DIIS: error= 1.79D-02 at cycle   2 NSaved=   2.
 NSaved= 2 IEnMin= 2 EnMin= -189.567369858260     IErMin= 2 ErrMin= 1.79D-02
 ErrMax= 1.79D-02  0.00D+00 EMaxC= 1.00D-01 BMatC= 1.11D-01 BMatP= 3.81D-01
 IDIUse=3 WtCom= 8.21D-01 WtEn= 1.79D-01
 Coeff-Com: -0.757D+00 0.176D+01
 Coeff-En:   0.000D+00 0.100D+01
 Coeff:     -0.621D+00 0.162D+01
 Gap=     0.123 Goal=   None    Shift=    0.000
 Gap=     0.215 Goal=   None    Shift=    0.000
 RMSDP=3.65D-03 MaxDP=1.62D-01 DE=-4.27D-02 OVMax= 1.94D-01

 Cycle   3  Pass 1  IDiag  1:
 RMSU=  2.05D-03    CP:  1.14D+00  2.74D+00
 E= -189.644989015615     Delta-E=       -0.077619157355 Rises=F Damp=F
 DIIS: error= 1.04D-02 at cycle   3 NSaved=   3.
 NSaved= 3 IEnMin= 3 EnMin= -189.644989015615     IErMin= 3 ErrMin= 1.04D-02
 ErrMax= 1.04D-02  0.00D+00 EMaxC= 1.00D-01 BMatC= 4.21D-02 BMatP= 1.11D-01
 IDIUse=3 WtCom= 8.96D-01 WtEn= 1.04D-01
 Coeff-Com: -0.423D+00 0.886D+00 0.537D+00
 Coeff-En:   0.000D+00 0.000D+00 0.100D+01
 Coeff:     -0.379D+00 0.793D+00 0.586D+00
 Gap=     0.118 Goal=   None    Shift=    0.000
 Gap=     0.169 Goal=   None    Shift=    0.000
 RMSDP=1.14D-03 MaxDP=5.96D-02 DE=-7.76D-02 OVMax= 1.03D-01

 Cycle   4  Pass 1  IDiag  1:
 RMSU=  1.05D-03    CP:  1.15D+00  2.69D+00  7.94D-01
 E= -189.645591218515     Delta-E=       -0.000602202900 Rises=F Damp=F
 DIIS: error= 1.23D-02 at cycle   4 NSaved=   4.
 NSaved= 4 IEnMin= 4 EnMin= -189.645591218515     IErMin= 3 ErrMin= 1.04D-02
 ErrMax= 1.23D-02  0.00D+00 EMaxC= 1.00D-01 BMatC= 4.24D-02 BMatP= 4.21D-02
 IDIUse=3 WtCom= 8.77D-01 WtEn= 1.23D-01
 Coeff-Com: -0.117D+00 0.204D+00 0.479D+00 0.434D+00
 Coeff-En:   0.000D+00 0.000D+00 0.491D+00 0.509D+00
 Coeff:     -0.103D+00 0.179D+00 0.480D+00 0.443D+00
 Gap=     0.122 Goal=   None    Shift=    0.000
 Gap=     0.176 Goal=   None    Shift=    0.000
 RMSDP=6.36D-04 MaxDP=2.94D-02 DE=-6.02D-04 OVMax= 5.91D-02

 Cycle   5  Pass 1  IDiag  1:
 RMSU=  2.91D-04    CP:  1.16D+00  2.76D+00  9.51D-01  5.87D-01
 E= -189.657204832382     Delta-E=       -0.011613613867 Rises=F Damp=F
 DIIS: error= 1.70D-03 at cycle   5 NSaved=   5.
 NSaved= 5 IEnMin= 5 EnMin= -189.657204832382     IErMin= 5 ErrMin= 1.70D-03
 ErrMax= 1.70D-03  0.00D+00 EMaxC= 1.00D-01 BMatC= 1.42D-03 BMatP= 4.21D-02
 IDIUse=3 WtCom= 9.83D-01 WtEn= 1.70D-02
 Coeff-Com: -0.979D-02 0.124D-02 0.166D+00 0.215D+00 0.628D+00
 Coeff-En:   0.000D+00 0.000D+00 0.000D+00 0.000D+00 0.100D+01
 Coeff:     -0.963D-02 0.122D-02 0.163D+00 0.212D+00 0.634D+00
 Gap=     0.124 Goal=   None    Shift=    0.000
 Gap=     0.178 Goal=   None    Shift=    0.000
 RMSDP=1.68D-04 MaxDP=6.41D-03 DE=-1.16D-02 OVMax= 1.71D-02

 Cycle   6  Pass 1  IDiag  1:
 RMSU=  1.18D-04    CP:  1.16D+00  2.77D+00  9.49D-01  6.81D-01  7.71D-01
 E= -189.657651434087     Delta-E=       -0.000446601705 Rises=F Damp=F
 DIIS: error= 7.74D-04 at cycle   6 NSaved=   6.
 NSaved= 6 IEnMin= 6 EnMin= -189.657651434087     IErMin= 6 ErrMin= 7.74D-04
 ErrMax= 7.74D-04  0.00D+00 EMaxC= 1.00D-01 BMatC= 1.18D-04 BMatP= 1.42D-03
 IDIUse=3 WtCom= 9.92D-01 WtEn= 7.74D-03
 Coeff-Com: -0.420D-03-0.572D-02-0.166D-01-0.320D-01 0.128D+00 0.927D+00
 Coeff-En:   0.000D+00 0.000D+00 0.000D+00 0.000D+00 0.000D+00 0.100D+01
 Coeff:     -0.416D-03-0.567D-02-0.164D-01-0.317D-01 0.127D+00 0.927D+00
 Gap=     0.123 Goal=   None    Shift=    0.000
 Gap=     0.179 Goal=   None    Shift=    0.000
 RMSDP=7.97D-05 MaxDP=3.98D-03 DE=-4.47D-04 OVMax= 1.08D-02

 Cycle   7  Pass 1  IDiag  1:
 RMSU=  4.81D-05    CP:  1.16D+00  2.78D+00  9.60D-01  7.06D-01  8.96D-01
                    CP:  1.31D+00
 E= -189.657730732337     Delta-E=       -0.000079298250 Rises=F Damp=F
 DIIS: error= 2.91D-04 at cycle   7 NSaved=   7.
 NSaved= 7 IEnMin= 7 EnMin= -189.657730732337     IErMin= 7 ErrMin= 2.91D-04
 ErrMax= 2.91D-04  0.00D+00 EMaxC= 1.00D-01 BMatC= 1.72D-05 BMatP= 1.18D-04
 IDIUse=3 WtCom= 9.97D-01 WtEn= 2.91D-03
 Coeff-Com: -0.664D-03 0.253D-02-0.207D-01-0.417D-01-0.781D-01 0.657D-02
 Coeff-Com:  0.113D+01
 Coeff-En:   0.000D+00 0.000D+00 0.000D+00 0.000D+00 0.000D+00 0.000D+00
 Coeff-En:   0.100D+01
 Coeff:     -0.662D-03 0.252D-02-0.206D-01-0.416D-01-0.779D-01 0.655D-02
 Coeff:      0.113D+01
 Gap=     0.123 Goal=   None    Shift=    0.000
 Gap=     0.181 Goal=   None    Shift=    0.000
 RMSDP=6.32D-05 MaxDP=4.73D-03 DE=-7.93D-05 OVMax= 8.74D-03

 Cycle   8  Pass 1  IDiag  1:
 RMSU=  2.23D-05    CP:  1.16D+00  2.78D+00  9.67D-01  7.31D-01  9.61D-01
                    CP:  1.63D+00  1.45D+00
 E= -189.657754949920     Delta-E=       -0.000024217584 Rises=F Damp=F
 DIIS: error= 1.50D-04 at cycle   8 NSaved=   8.
 NSaved= 8 IEnMin= 8 EnMin= -189.657754949920     IErMin= 8 ErrMin= 1.50D-04
 ErrMax= 1.50D-04  0.00D+00 EMaxC= 1.00D-01 BMatC= 2.92D-06 BMatP= 1.72D-05
 IDIUse=3 WtCom= 9.98D-01 WtEn= 1.50D-03
 Coeff-Com: -0.686D-03 0.113D-02 0.882D-02 0.131D-01 0.290D-01-0.117D+00
 Coeff-Com: -0.477D+00 0.154D+01
 Coeff-En:   0.000D+00 0.000D+00 0.000D+00 0.000D+00 0.000D+00 0.000D+00
 Coeff-En:   0.000D+00 0.100D+01
 Coeff:     -0.685D-03 0.113D-02 0.880D-02 0.131D-01 0.290D-01-0.117D+00
 Coeff:     -0.476D+00 0.154D+01
 Gap=     0.123 Goal=   None    Shift=    0.000
 Gap=     0.181 Goal=   None    Shift=    0.000
 RMSDP=4.26D-05 MaxDP=3.48D-03 DE=-2.42D-05 OVMax= 6.24D-03

 Cycle   9  Pass 1  IDiag  1:
 RMSU=  7.56D-06    CP:  1.16D+00  2.79D+00  9.72D-01  7.49D-01  1.00D+00
                    CP:  1.79D+00  1.84D+00  1.76D+00
 E= -189.657761458870     Delta-E=       -0.000006508950 Rises=F Damp=F
 DIIS: error= 4.57D-05 at cycle   9 NSaved=   9.
 NSaved= 9 IEnMin= 9 EnMin= -189.657761458870     IErMin= 9 ErrMin= 4.57D-05
 ErrMax= 4.57D-05  0.00D+00 EMaxC= 1.00D-01 BMatC= 4.14D-07 BMatP= 2.92D-06
 IDIUse=1 WtCom= 1.00D+00 WtEn= 0.00D+00
 Coeff-Com: -0.644D-03 0.707D-03 0.201D-02 0.217D-02 0.989D-02 0.401D-01
 Coeff-Com: -0.126D+00-0.341D+00 0.141D+01
 Coeff:     -0.644D-03 0.707D-03 0.201D-02 0.217D-02 0.989D-02 0.401D-01
 Coeff:     -0.126D+00-0.341D+00 0.141D+01
 Gap=     0.123 Goal=   None    Shift=    0.000
 Gap=     0.181 Goal=   None    Shift=    0.000
 RMSDP=1.70D-05 MaxDP=1.36D-03 DE=-6.51D-06 OVMax= 2.43D-03

 Cycle  10  Pass 1  IDiag  1:
 RMSU=  2.43D-06    CP:  1.16D+00  2.79D+00  9.74D-01  7.56D-01  1.02D+00
                    CP:  1.85D+00  1.97D+00  2.11D+00  1.61D+00
 E= -189.657762258113     Delta-E=       -0.000000799243 Rises=F Damp=F
 DIIS: error= 8.27D-06 at cycle  10 NSaved=  10.
 NSaved=10 IEnMin=10 EnMin= -189.657762258113     IErMin=10 ErrMin= 8.27D-06
 ErrMax= 8.27D-06  0.00D+00 EMaxC= 1.00D-01 BMatC= 2.30D-08 BMatP= 4.14D-07
 IDIUse=1 WtCom= 1.00D+00 WtEn= 0.00D+00
 Coeff-Com: -0.261D-03 0.326D-03-0.121D-02-0.160D-02-0.329D-02 0.669D-02
 Coeff-Com:  0.535D-01-0.781D-01-0.184D+00 0.121D+01
 Coeff:     -0.261D-03 0.326D-03-0.121D-02-0.160D-02-0.329D-02 0.669D-02
 Coeff:      0.535D-01-0.781D-01-0.184D+00 0.121D+01
 Gap=     0.123 Goal=   None    Shift=    0.000
 Gap=     0.181 Goal=   None    Shift=    0.000
 RMSDP=2.26D-06 MaxDP=1.47D-04 DE=-7.99D-07 OVMax= 2.78D-04

 Cycle  11  Pass 1  IDiag  1:
 RMSU=  6.99D-07    CP:  1.16D+00  2.79D+00  9.74D-01  7.57D-01  1.02D+00
                    CP:  1.86D+00  1.98D+00  2.16D+00  1.74D+00  1.31D+00
 E= -189.657762286958     Delta-E=       -0.000000028846 Rises=F Damp=F
 DIIS: error= 2.03D-06 at cycle  11 NSaved=  11.
 NSaved=11 IEnMin=11 EnMin= -189.657762286958     IErMin=11 ErrMin= 2.03D-06
 ErrMax= 2.03D-06  0.00D+00 EMaxC= 1.00D-01 BMatC= 1.62D-09 BMatP= 2.30D-08
 IDIUse=1 WtCom= 1.00D+00 WtEn= 0.00D+00
 Coeff-Com:  0.472D-04-0.470D-04-0.583D-04-0.133D-04-0.183D-03-0.526D-02
 Coeff-Com:  0.589D-02 0.377D-01-0.103D+00-0.150D+00 0.121D+01
 Coeff:      0.472D-04-0.470D-04-0.583D-04-0.133D-04-0.183D-03-0.526D-02
 Coeff:      0.589D-02 0.377D-01-0.103D+00-0.150D+00 0.121D+01
 Gap=     0.123 Goal=   None    Shift=    0.000
 Gap=     0.181 Goal=   None    Shift=    0.000
 RMSDP=4.83D-07 MaxDP=2.23D-05 DE=-2.88D-08 OVMax= 6.42D-05

 Cycle  12  Pass 1  IDiag  1:
 RMSU=  1.54D-07    CP:  1.16D+00  2.79D+00  9.74D-01  7.57D-01  1.02D+00
                    CP:  1.86D+00  1.99D+00  2.16D+00  1.77D+00  1.39D+00
                    CP:  1.41D+00
 E= -189.657762288847     Delta-E=       -0.000000001889 Rises=F Damp=F
 DIIS: error= 3.19D-07 at cycle  12 NSaved=  12.
 NSaved=12 IEnMin=12 EnMin= -189.657762288847     IErMin=12 ErrMin= 3.19D-07
 ErrMax= 3.19D-07  0.00D+00 EMaxC= 1.00D-01 BMatC= 6.84D-11 BMatP= 1.62D-09
 IDIUse=1 WtCom= 1.00D+00 WtEn= 0.00D+00
 Coeff-Com:  0.722D-05-0.916D-05 0.590D-04 0.860D-04 0.219D-03-0.387D-03
 Coeff-Com: -0.202D-02 0.258D-02 0.125D-01-0.513D-01-0.625D-01 0.110D+01
 Coeff:      0.722D-05-0.916D-05 0.590D-04 0.860D-04 0.219D-03-0.387D-03
 Coeff:     -0.202D-02 0.258D-02 0.125D-01-0.513D-01-0.625D-01 0.110D+01
 Gap=     0.123 Goal=   None    Shift=    0.000
 Gap=     0.181 Goal=   None    Shift=    0.000
 RMSDP=9.81D-08 MaxDP=4.41D-06 DE=-1.89D-09 OVMax= 1.04D-05

 Cycle  13  Pass 1  IDiag  1:
 RMSU=  3.82D-08    CP:  1.16D+00  2.79D+00  9.74D-01  7.57D-01  1.02D+00
                    CP:  1.86D+00  1.99D+00  2.16D+00  1.77D+00  1.40D+00
                    CP:  1.49D+00  1.27D+00
 E= -189.657762288903     Delta-E=       -0.000000000056 Rises=F Damp=F
 DIIS: error= 1.34D-07 at cycle  13 NSaved=  13.
 NSaved=13 IEnMin=13 EnMin= -189.657762288903     IErMin=13 ErrMin= 1.34D-07
 ErrMax= 1.34D-07  0.00D+00 EMaxC= 1.00D-01 BMatC= 5.87D-12 BMatP= 6.84D-11
 IDIUse=1 WtCom= 1.00D+00 WtEn= 0.00D+00
 Coeff-Com: -0.170D-05 0.161D-05 0.953D-05 0.677D-05 0.346D-04 0.217D-03
 Coeff-Com: -0.515D-03-0.169D-02 0.601D-02 0.549D-02-0.812D-01 0.127D+00
 Coeff-Com:  0.945D+00
 Coeff:     -0.170D-05 0.161D-05 0.953D-05 0.677D-05 0.346D-04 0.217D-03
 Coeff:     -0.515D-03-0.169D-02 0.601D-02 0.549D-02-0.812D-01 0.127D+00
 Coeff:      0.945D+00
 Gap=     0.123 Goal=   None    Shift=    0.000
 Gap=     0.181 Goal=   None    Shift=    0.000
 RMSDP=1.95D-08 MaxDP=8.54D-07 DE=-5.60D-11 OVMax= 1.61D-06

 Cycle  14  Pass 1  IDiag  1:
 RMSU=  8.37D-09    CP:  1.16D+00  2.79D+00  9.74D-01  7.57D-01  1.02D+00
                    CP:  1.86D+00  1.99D+00  2.16D+00  1.77D+00  1.40D+00
                    CP:  1.50D+00  1.33D+00  1.05D+00
 E= -189.657762288906     Delta-E=       -0.000000000002 Rises=F Damp=F
 DIIS: error= 2.85D-08 at cycle  14 NSaved=  14.
 NSaved=14 IEnMin=14 EnMin= -189.657762288906     IErMin=14 ErrMin= 2.85D-08
 ErrMax= 2.85D-08  0.00D+00 EMaxC= 1.00D-01 BMatC= 4.96D-13 BMatP= 5.87D-12
 IDIUse=1 WtCom= 1.00D+00 WtEn= 0.00D+00
 Coeff-Com: -0.371D-07 0.403D-07-0.486D-05-0.776D-05-0.175D-04 0.260D-04
 Coeff-Com:  0.136D-03 0.179D-04-0.171D-02 0.446D-02 0.759D-02-0.853D-01
 Coeff-Com: -0.661D-01 0.114D+01
 Coeff:     -0.371D-07 0.403D-07-0.486D-05-0.776D-05-0.175D-04 0.260D-04
 Coeff:      0.136D-03 0.179D-04-0.171D-02 0.446D-02 0.759D-02-0.853D-01
 Coeff:     -0.661D-01 0.114D+01
 Gap=     0.123 Goal=   None    Shift=    0.000
 Gap=     0.181 Goal=   None    Shift=    0.000
 RMSDP=8.57D-09 MaxDP=5.90D-07 DE=-2.27D-12 OVMax= 9.25D-07

 SCF Done:  E(UB3LYP) =  -189.657762289     A.U. after   14 cycles
            NFock= 14  Conv=0.86D-08     -V/T= 2.0040
 <Sx>= 0.0000 <Sy>= 0.0000 <Sz>= 1.5000 <S**2>= 3.7665 S= 1.5041
 <L.S>= 0.000000000000E+00
 KE= 1.888982478775D+02 PE=-6.647694054857D+02 EE= 1.618371232996D+02
 Annihilation of the first spin contaminant:
 S**2 before annihilation     3.7665,   after     3.7501
 Leave Link  502 at Thu Jan 31 05:05:35 2019, MaxMem=    33554432 cpu:       324.4
 (Enter /home/proyectos/fulerenos/M3C-v2.0/M3C-deps_CCC/g09-AM64L-G09RevC.01/l801.exe)
 DoSCS=F DFT=T ScalE2(SS,OS)=  1.000000  1.000000
 Range of M.O.s used for correlation:     1   215
 NBasis=   215 NAE=    16 NBE=    13 NFC=     0 NFV=     0
 NROrb=    215 NOA=    16 NOB=    13 NVA=   199 NVB=   202

 **** Warning!!: The largest alpha MO coefficient is  0.76467943D+02


 **** Warning!!: The largest beta MO coefficient is  0.74408889D+02

 Leave Link  801 at Thu Jan 31 05:05:35 2019, MaxMem=    33554432 cpu:         0.1
 (Enter /home/proyectos/fulerenos/M3C-v2.0/M3C-deps_CCC/g09-AM64L-G09RevC.01/l1101.exe)
 Using compressed storage, NAtomX=     7.
 Will process      8 centers per pass.
 Leave Link 1101 at Thu Jan 31 05:05:36 2019, MaxMem=    33554432 cpu:         1.5
 (Enter /home/proyectos/fulerenos/M3C-v2.0/M3C-deps_CCC/g09-AM64L-G09RevC.01/l1102.exe)
 Symmetrizing basis deriv contribution to polar:
 IMax=3 JMax=2 DiffMx= 0.00D+00
 Leave Link 1102 at Thu Jan 31 05:05:36 2019, MaxMem=    33554432 cpu:         0.1
 (Enter /home/proyectos/fulerenos/M3C-v2.0/M3C-deps_CCC/g09-AM64L-G09RevC.01/l1110.exe)
 Forming Gx(P) for the SCF density, NAtomX=     7.
 Integral derivatives from FoFJK, PRISM(SPDF).
 Do as many integral derivatives as possible in FoFJK.
 G2DrvN: MDV=      33554272.
 G2DrvN: will do     8 centers at a time, making    1 passes.
 Calling FoFCou, ICntrl=  3107 FMM=F I1Cent=   0 AccDes= 0.00D+00.
 FoFJK:  IHMeth= 1 ICntrl=    3107 DoSepK=F KAlg= 0 I1Cent=   0 FoldK=F
 IRaf=         0 NMat=   1 IRICut=       1 DoRegI=T DoRafI=F ISym2E= 1.
 FoFCou: FMM=F IPFlag=           0 FMFlag=      100000 FMFlg1=           0
         NFxFlg=           0 DoJE=F BraDBF=F KetDBF=F FulRan=T
         wScrn=  0.000000 ICntrl=    3107 IOpCl=  1 I1Cent=           0 NGrid=           0
         NMat0=    1 NMatS0=      1 NMatT0=    0 NMatD0=    1 NMtDS0=    0 NMtDT0=    0
 Petite list used in FoFCou.
 End of G2Drv F.D. properties file   721 does not exist.
 End of G2Drv F.D. properties file   722 does not exist.
 End of G2Drv F.D. properties file   788 does not exist.
 Leave Link 1110 at Thu Jan 31 05:06:31 2019, MaxMem=    33554432 cpu:       218.8
 (Enter /home/proyectos/fulerenos/M3C-v2.0/M3C-deps_CCC/g09-AM64L-G09RevC.01/l1002.exe)
 Minotr:  UHF open shell wavefunction.
          IDoAtm=1111111
          Direct CPHF calculation.
          Differentiating once with respect to electric field.
                with respect to dipole field.
          Differentiating once with respect to nuclear coordinates.
          Using symmetry in CPHF.
          Requested convergence is 1.0D-08 RMS, and 1.0D-07 maximum.
          Secondary convergence is 1.0D-12 RMS, and 1.0D-12 maximum.
          NewPWx=T KeepS1=F KeepF1=F KeepIn=T MapXYZ=F SortEE=F KeepMc=T.
          MDV=      33553928 using IRadAn=       2.
 Generate precomputed XC quadrature information.
          Solving linear equations simultaneously, MaxMat=       0.
 FoFJK:  IHMeth= 1 ICntrl=       0 DoSepK=F KAlg= 0 I1Cent=   0 FoldK=F
 IRaf= 990000000 NMat=  15 IRICut=      37 DoRegI=T DoRafI=T ISym2E= 2.
 FoFCou: FMM=F IPFlag=           0 FMFlag=      100000 FMFlg1=           0
         NFxFlg=           0 DoJE=F BraDBF=F KetDBF=F FulRan=T
         wScrn=  0.000000 ICntrl=       0 IOpCl=  1 I1Cent=           0 NGrid=           0
         NMat0=   15 NMatS0=     15 NMatT0=    0 NMatD0=   15 NMtDS0=    0 NMtDT0=    0
 Integrals replicated using symmetry in FoFCou.
          There are    15 degrees of freedom in the 1st order CPHF.  IDoFFX=4 NUNeed=    15.
     15 vectors produced by pass  0 Test12= 3.87D-14 6.67D-09 XBig12= 1.65D+02 6.66D+00.
 AX will form    15 AO Fock derivatives at one time.
     15 vectors produced by pass  1 Test12= 3.87D-14 6.67D-09 XBig12= 5.27D+01 2.02D+00.
     15 vectors produced by pass  2 Test12= 3.87D-14 6.67D-09 XBig12= 1.98D+00 5.99D-01.
     15 vectors produced by pass  3 Test12= 3.87D-14 6.67D-09 XBig12= 9.83D-02 1.29D-01.
     15 vectors produced by pass  4 Test12= 3.87D-14 6.67D-09 XBig12= 1.81D-03 1.06D-02.
     15 vectors produced by pass  5 Test12= 3.87D-14 6.67D-09 XBig12= 3.33D-05 1.06D-03.
     15 vectors produced by pass  6 Test12= 3.87D-14 6.67D-09 XBig12= 3.36D-07 1.29D-04.
     14 vectors produced by pass  7 Test12= 3.87D-14 6.67D-09 XBig12= 2.67D-09 9.97D-06.
      7 vectors produced by pass  8 Test12= 3.87D-14 6.67D-09 XBig12= 2.00D-11 5.98D-07.
      3 vectors produced by pass  9 Test12= 3.87D-14 6.67D-09 XBig12= 1.45D-13 5.98D-08.
      1 vectors produced by pass 10 Test12= 3.87D-14 6.67D-09 XBig12= 2.02D-14 1.60D-08.
 InvSVY:  IOpt=1 It=  1 EMax= 1.07D-14
 Solved reduced A of dimension   130 with    15 vectors.
 FullF1:  Do perturbations    1 to    15.
 Isotropic polarizability for W=    0.000000       35.80 Bohr**3.
 End of Minotr F.D. properties file   721 does not exist.
 End of Minotr F.D. properties file   722 does not exist.
 End of Minotr F.D. properties file   788 does not exist.
 Leave Link 1002 at Thu Jan 31 05:13:05 2019, MaxMem=    33554432 cpu:      1527.4
 (Enter /home/proyectos/fulerenos/M3C-v2.0/M3C-deps_CCC/g09-AM64L-G09RevC.01/l601.exe)
 Copying SCF densities to generalized density rwf, IOpCl= 1 IROHF=0.

 **********************************************************************

            Population analysis using the SCF density.

 **********************************************************************

 Orbital symmetries:
 Alpha Orbitals:
       Occupied  (A) (A) (B) (B) (A) (A) (B) (A) (A) (B) (A) (B)
                 (B) (A) (B) (A)
       Virtual   (B) (A) (A) (B) (A) (B) (A) (A) (B) (B) (B) (A)
                 (B) (A) (A) (A) (B) (A) (B) (B) (B) (A) (B) (A)
                 (B) (B) (A) (A) (A) (B) (A) (B) (B) (A) (A) (A)
                 (B) (B) (A) (B) (A) (B) (B) (B) (A) (A) (A) (B)
                 (B) (A) (B) (A) (B) (A) (B) (A) (A) (B) (B) (A)
                 (A) (B) (A) (B) (B) (A) (B) (A) (B) (A) (B) (A)
                 (B) (A) (B) (A) (B) (B) (A) (A) (A) (B) (A) (A)
                 (B) (B) (A) (B) (A) (B) (A) (B) (A) (A) (B) (B)
                 (A) (B) (A) (B) (A) (B) (A) (B) (A) (B) (A) (B)
                 (A) (B) (A) (B) (A) (B) (A) (B) (A) (A) (B) (A)
                 (B) (B) (B) (A) (A) (B) (B) (A) (A) (B) (B) (A)
                 (B) (A) (A) (B) (A) (A) (B) (B) (B) (A) (B) (B)
                 (A) (A) (B) (A) (A) (B) (A) (A) (B) (A) (A) (B)
                 (B) (A) (B) (A) (B) (A) (B) (B) (A) (B) (A) (B)
                 (B) (B) (A) (B) (A) (A) (B) (B) (A) (A) (B) (B)
                 (A) (B) (A) (B) (A) (A) (A) (A) (B) (A) (B) (A)
                 (B) (B) (A) (B) (A) (B) (A)
 Beta  Orbitals:
       Occupied  (A) (A) (B) (B) (A) (A) (B) (A) (A) (B) (A) (B)
                 (B)
       Virtual   (A) (A) (B) (B) (A) (B) (A) (A) (B) (A) (A) (B)
                 (B) (B) (A) (A) (B) (A) (A) (A) (B) (B) (B) (B)
                 (A) (B) (A) (B) (B) (A) (A) (A) (B) (B) (A) (B)
                 (A) (A) (A) (B) (B) (A) (B) (A) (B) (B) (B) (A)
                 (A) (B) (A) (B) (A) (B) (A) (B) (A) (A) (B) (B)
                 (A) (B) (A) (A) (B) (A) (B) (B) (A) (B) (A) (B)
                 (A) (B) (A) (B) (A) (B) (A) (B) (A) (B) (A) (A)
                 (B) (A) (B) (A) (B) (A) (B) (A) (B) (A) (B) (A)
                 (B) (A) (B) (A) (B) (B) (A) (B) (A) (A) (B) (A)
                 (B) (A) (A) (B) (A) (B) (B) (A) (B) (A) (B) (A)
                 (A) (B) (B) (A) (B) (B) (A) (A) (B) (B) (A) (A)
                 (B) (B) (A) (B) (A) (A) (B) (A) (A) (B) (B) (B)
                 (A) (B) (B) (A) (A) (B) (A) (A) (B) (A) (A) (B)
                 (A) (A) (B) (B) (A) (B) (A) (B) (A) (B) (B) (A)
                 (B) (A) (B) (B) (B) (A) (B) (A) (A) (B) (B) (A)
                 (A) (B) (B) (A) (B) (A) (B) (A) (A) (A) (A) (A)
                 (B) (B) (A) (B) (B) (A) (B) (A) (B) (A)
 The electronic state is 4-B.
 Alpha  occ. eigenvalues --  -11.15254 -11.14548 -11.14515 -11.07076 -11.07074
 Alpha  occ. eigenvalues --   -1.78877  -1.60290  -1.49780  -1.34187  -1.32186
 Alpha  occ. eigenvalues --   -1.26580  -1.24083  -1.23718  -1.13649  -1.07741
 Alpha  occ. eigenvalues --   -1.06669
 Alpha virt. eigenvalues --   -0.94344  -0.88092  -0.79235  -0.77825  -0.63117
 Alpha virt. eigenvalues --   -0.58372  -0.55809  -0.52439  -0.49546  -0.47284
 Alpha virt. eigenvalues --   -0.45022  -0.43097  -0.42472  -0.42339  -0.39489
 Alpha virt. eigenvalues --   -0.38454  -0.38190  -0.37733  -0.37229  -0.34469
 Alpha virt. eigenvalues --   -0.31476  -0.31322  -0.30075  -0.29219  -0.27457
 Alpha virt. eigenvalues --   -0.25893  -0.24854  -0.23389  -0.22336  -0.21764
 Alpha virt. eigenvalues --   -0.21029  -0.20930  -0.19900  -0.19392  -0.17496
 Alpha virt. eigenvalues --   -0.16271  -0.15496  -0.14135  -0.13864  -0.12617
 Alpha virt. eigenvalues --   -0.12436  -0.11990  -0.11555  -0.08755  -0.08325
 Alpha virt. eigenvalues --   -0.07806  -0.06483  -0.06235  -0.05931  -0.04151
 Alpha virt. eigenvalues --   -0.02310  -0.01118  -0.00117  -0.00024   0.02456
 Alpha virt. eigenvalues --    0.02557   0.06108   0.06128   0.07527   0.09828
 Alpha virt. eigenvalues --    0.11053   0.11270   0.14958   0.16868   0.17973
 Alpha virt. eigenvalues --    0.21950   0.26914   0.27248   0.29466   0.31055
 Alpha virt. eigenvalues --    0.35376   0.37246   0.40459   0.41743   0.43989
 Alpha virt. eigenvalues --    0.45206   0.51851   0.52941   0.53301   0.54904
 Alpha virt. eigenvalues --    0.58328   0.60855   0.61433   0.63828   0.64828
 Alpha virt. eigenvalues --    0.66384   0.66987   0.69641   0.70617   0.75309
 Alpha virt. eigenvalues --    0.78385   0.83347   0.91111   0.94396   0.94948
 Alpha virt. eigenvalues --    0.96667   0.99767   1.08671   1.09761   1.11267
 Alpha virt. eigenvalues --    1.13565   1.14103   1.20689   1.28035   1.35842
 Alpha virt. eigenvalues --    1.36871   1.43097   1.52673   1.52838   1.64686
 Alpha virt. eigenvalues --    1.66309   1.74031   1.76569   1.81502   1.84125
 Alpha virt. eigenvalues --    1.90891   1.95555   1.97278   2.00398   2.04764
 Alpha virt. eigenvalues --    2.04829   2.05361   2.10155   2.14218   2.15809
 Alpha virt. eigenvalues --    2.16296   2.21040   2.26579   2.27244   2.27701
 Alpha virt. eigenvalues --    2.35184   2.38851   2.41722   2.43389   2.45546
 Alpha virt. eigenvalues --    2.47804   2.49608   2.58585   2.59263   2.63190
 Alpha virt. eigenvalues --    2.67006   2.71796   2.71882   2.82567   2.85791
 Alpha virt. eigenvalues --    2.92504   3.05276   3.07176   3.16813   3.22621
 Alpha virt. eigenvalues --    3.23598   3.35715   3.36332   3.40677   3.42347
 Alpha virt. eigenvalues --    3.44733   3.47385   3.60811   3.68042   3.77248
 Alpha virt. eigenvalues --    3.83402   3.84085   3.92313   4.13955   4.16266
 Alpha virt. eigenvalues --    4.29644   4.93828   5.11660   5.26358   6.04630
 Alpha virt. eigenvalues --    6.07153   6.15447   6.19013   6.21605   6.25093
 Alpha virt. eigenvalues --    6.28599   6.36564   6.40167   6.44027   6.49712
 Alpha virt. eigenvalues --    6.51437   6.59067   6.62117   6.63034   6.67946
 Alpha virt. eigenvalues --    6.76346   6.82421   7.13604   7.18962   7.19173
 Alpha virt. eigenvalues --    7.21022   7.33536   7.34036   7.97017  23.05733
 Alpha virt. eigenvalues --   23.80822  24.04893  24.20885  24.42176
  Beta  occ. eigenvalues --  -11.14437 -11.12559 -11.12532 -11.06462 -11.06460
  Beta  occ. eigenvalues --   -1.76076  -1.57451  -1.45789  -1.31214  -1.28470
  Beta  occ. eigenvalues --   -1.23887  -1.22432  -1.17580
  Beta virt. eigenvalues --   -0.99468  -0.95094  -0.92605  -0.86790  -0.81233
  Beta virt. eigenvalues --   -0.72257  -0.71784  -0.61562  -0.56012  -0.53182
  Beta virt. eigenvalues --   -0.51426  -0.48626  -0.44951  -0.43882  -0.41898
  Beta virt. eigenvalues --   -0.41109  -0.41062  -0.38976  -0.37612  -0.37029
  Beta virt. eigenvalues --   -0.36520  -0.36242  -0.32961  -0.30583  -0.30487
  Beta virt. eigenvalues --   -0.29431  -0.28646  -0.26181  -0.25314  -0.24558
  Beta virt. eigenvalues --   -0.22919  -0.22095  -0.21068  -0.20213  -0.20072
  Beta virt. eigenvalues --   -0.19121  -0.18830  -0.16941  -0.15160  -0.14562
  Beta virt. eigenvalues --   -0.13596  -0.13432  -0.11582  -0.11204  -0.10960
  Beta virt. eigenvalues --   -0.10520  -0.07828  -0.07632  -0.06580  -0.05314
  Beta virt. eigenvalues --   -0.05149  -0.04450  -0.02485  -0.01282  -0.00034
  Beta virt. eigenvalues --    0.00731   0.00993   0.03436   0.03906   0.06872
  Beta virt. eigenvalues --    0.06892   0.08199   0.10792   0.11580   0.11997
  Beta virt. eigenvalues --    0.16102   0.17686   0.19019   0.23027   0.27535
  Beta virt. eigenvalues --    0.28521   0.30521   0.32167   0.36408   0.38203
  Beta virt. eigenvalues --    0.41283   0.42983   0.45236   0.46737   0.53326
  Beta virt. eigenvalues --    0.54405   0.54492   0.56464   0.59568   0.62351
  Beta virt. eigenvalues --    0.62985   0.65853   0.66226   0.69354   0.69839
  Beta virt. eigenvalues --    0.71978   0.73015   0.76302   0.79885   0.87126
  Beta virt. eigenvalues --    0.93792   0.96859   0.97506   0.99617   1.03213
  Beta virt. eigenvalues --    1.12484   1.14770   1.14906   1.16775   1.17832
  Beta virt. eigenvalues --    1.24412   1.31829   1.38896   1.40056   1.45739
  Beta virt. eigenvalues --    1.55280   1.56101   1.68850   1.69246   1.77428
  Beta virt. eigenvalues --    1.80966   1.84278   1.86994   1.93957   1.99016
  Beta virt. eigenvalues --    1.99502   2.02237   2.07522   2.08777   2.09117
  Beta virt. eigenvalues --    2.13056   2.17804   2.20012   2.20148   2.23980
  Beta virt. eigenvalues --    2.29147   2.29603   2.29968   2.39075   2.41624
  Beta virt. eigenvalues --    2.45008   2.46707   2.47951   2.50301   2.52792
  Beta virt. eigenvalues --    2.61135   2.62638   2.66628   2.69346   2.74514
  Beta virt. eigenvalues --    2.74682   2.84971   2.88840   2.95453   3.07671
  Beta virt. eigenvalues --    3.10308   3.19136   3.24623   3.25412   3.36866
  Beta virt. eigenvalues --    3.39658   3.44235   3.45712   3.47392   3.49623
  Beta virt. eigenvalues --    3.63045   3.70010   3.79139   3.85937   3.85938
  Beta virt. eigenvalues --    3.94294   4.16396   4.17892   4.31259   4.95123
  Beta virt. eigenvalues --    5.13743   5.27652   6.09944   6.12654   6.19796
  Beta virt. eigenvalues --    6.23128   6.24842   6.29690   6.33286   6.39690
  Beta virt. eigenvalues --    6.44093   6.47303   6.53181   6.56458   6.63771
  Beta virt. eigenvalues --    6.65390   6.66950   6.71244   6.79754   6.86616
  Beta virt. eigenvalues --    7.17226   7.21169   7.21726   7.23124   7.34956
  Beta virt. eigenvalues --    7.36419   7.99472  23.07302  23.82603  24.06568
  Beta virt. eigenvalues --   24.22232  24.43115
          Condensed to atoms (all electrons):
               1          2          3          4          5          6
     1  C    6.770407  -0.479253  -0.629607   0.091334  -0.355668   0.449275
     2  C   -0.479253   6.646296  -0.479253  -0.104383  -0.104383  -0.107719
     3  C   -0.629607  -0.479253   6.770407  -0.355668   0.091334  -0.012344
     4  C    0.091334  -0.104383  -0.355668   6.098940  -0.223490   0.018599
     5  C   -0.355668  -0.104383   0.091334  -0.223490   6.098940  -0.069695
     6  H    0.449275  -0.107719  -0.012344   0.018599  -0.069695   0.301225
     7  H   -0.012344  -0.107719   0.449275  -0.069695   0.018599  -0.000917
               7
     1  C   -0.012344
     2  C   -0.107719
     3  C    0.449275
     4  C   -0.069695
     5  C    0.018599
     6  H   -0.000917
     7  H    0.301225
          Atomic-Atomic Spin Densities.
               1          2          3          4          5          6
     1  C    0.410344  -0.008271   0.012447   0.003971  -0.074012   0.022632
     2  C   -0.008271   0.553122  -0.008271  -0.094241  -0.094241  -0.012818
     3  C    0.012447  -0.008271   0.410344  -0.074012   0.003971   0.005472
     4  C    0.003971  -0.094241  -0.074012   1.279978  -0.184753  -0.001862
     5  C   -0.074012  -0.094241   0.003971  -0.184753   1.279978   0.001746
     6  H    0.022632  -0.012818   0.005472  -0.001862   0.001746   0.019517
     7  H    0.005472  -0.012818   0.022632   0.001746  -0.001862   0.000671
               7
     1  C    0.005472
     2  C   -0.012818
     3  C    0.022632
     4  C    0.001746
     5  C   -0.001862
     6  H    0.000671
     7  H    0.019517
 Mulliken charges and spin densities:
               1          2
     1  C    0.165855   0.372584
     2  C    0.736413   0.322462
     3  C    0.165855   0.372584
     4  C    0.544362   0.930827
     5  C    0.544362   0.930827
     6  H    0.421576   0.035359
     7  H    0.421576   0.035359
 Sum of Mulliken charges =   3.00000   3.00000
 Mulliken charges and spin densities with hydrogens summed into heavy atoms:
               1          2
     1  C    0.587431   0.407942
     2  C    0.736413   0.322462
     3  C    0.587431   0.407942
     4  C    0.544362   0.930827
     5  C    0.544362   0.930827
 APT charges:
               1
     1  C    0.266625
     2  C    0.430161
     3  C    0.266625
     4  C    0.499419
     5  C    0.499419
     6  H    0.518876
     7  H    0.518876
 Sum of APT charges =   3.00000
 APT charges with hydrogens summed into heavy atoms:
               1
     1  C    0.785501
     2  C    0.430161
     3  C    0.785501
     4  C    0.499419
     5  C    0.499419
 Electronic spatial extent (au):  <R**2>=            214.3003
 Charge=              3.0000 electrons
 Dipole moment (field-independent basis, Debye):
    X=             -0.0000    Y=              0.0000    Z=              0.6882  Tot=              0.6882
 Quadrupole moment (field-independent basis, Debye-Ang):
   XX=            -21.1707   YY=              9.2506   ZZ=             -8.1872
   XY=              1.2295   XZ=             -0.0000   YZ=             -0.0000
 Traceless Quadrupole moment (field-independent basis, Debye-Ang):
   XX=            -14.4682   YY=             15.9530   ZZ=             -1.4848
   XY=              1.2295   XZ=             -0.0000   YZ=             -0.0000
 Octapole moment (field-independent basis, Debye-Ang**2):
  XXX=              0.0000  YYY=              0.0000  ZZZ=             -1.6543  XYY=             -0.0000
  XXY=             -0.0000  XXZ=             -0.0763  XZZ=              0.0000  YZZ=             -0.0000
  YYZ=             15.7591  XYZ=             -0.3759
 Hexadecapole moment (field-independent basis, Debye-Ang**3):
 XXXX=            -20.3941 YYYY=             -8.2678 ZZZZ=            -62.8003 XXXY=             -3.8088
 XXXZ=              0.0000 YYYX=             -0.2616 YYYZ=              0.0000 ZZZX=              0.0000
 ZZZY=             -0.0000 XXYY=            -28.7786 XXZZ=            -16.0697 YYZZ=            -18.2246
 XXYZ=             -0.0000 YYXZ=             -0.0000 ZZXY=              0.1033
 N-N= 1.243762720197D+02 E-N=-6.647694054071D+02  KE= 1.888982478775D+02
 Symmetry A    KE= 1.115002876236D+02
 Symmetry B    KE= 7.739796025393D+01
  Exact polarizability:  20.326   1.945  49.691   0.000   0.000  37.379
 Approx polarizability:  31.966   6.525  99.844  -0.000   0.000  95.829
                          Isotropic Fermi Contact Couplings
        Atom                 a.u.       MegaHertz       Gauss      10(-4) cm-1
     1  C(13)              0.04169      15.62353       5.57486       5.21145
     2  C(13)              0.27445     102.84545      36.69781      34.30555
     3  C(13)              0.04169      15.62353       5.57486       5.21145
     4  C(13)              0.67657     253.53201      90.46652      84.56917
     5  C(13)              0.67657     253.53201      90.46652      84.56917
     6  H(1)               0.01712      25.50774       9.10180       8.50847
     7  H(1)               0.01712      25.50774       9.10180       8.50847
 --------------------------------------------------------
       Center         ----  Spin Dipole Couplings  ----
                      3XX-RR        3YY-RR        3ZZ-RR
 --------------------------------------------------------
     1   Atom        0.456458     -0.232562     -0.223896
     2   Atom        0.124078     -0.249973      0.125895
     3   Atom        0.456458     -0.232562     -0.223896
     4   Atom        0.213300     -0.115203     -0.098097
     5   Atom        0.213300     -0.115203     -0.098097
     6   Atom       -0.025516      0.045526     -0.020010
     7   Atom       -0.025516      0.045526     -0.020010
 --------------------------------------------------------
                        XY            XZ            YZ
 --------------------------------------------------------
     1   Atom        0.019886      0.084243      0.082809
     2   Atom       -0.152831      0.000000     -0.000000
     3   Atom        0.019886     -0.084243     -0.082809
     4   Atom        0.043953      0.433478      0.380400
     5   Atom        0.043953     -0.433478     -0.380400
     6   Atom       -0.001880     -0.000318      0.038518
     7   Atom       -0.001880      0.000318     -0.038518
 --------------------------------------------------------


 ---------------------------------------------------------------------------------
              Anisotropic Spin Dipole Couplings in Principal Axis System
 ---------------------------------------------------------------------------------

       Atom             a.u.   MegaHertz   Gauss  10(-4) cm-1        Axes

              Baa    -0.3137   -42.099   -15.022   -14.043 -0.0590 -0.7058  0.7060
     1 C(13)  Bbb    -0.1543   -20.704    -7.388    -6.906 -0.1192  0.7071  0.6970
              Bcc     0.4680    62.803    22.410    20.949  0.9911  0.0430  0.1258
 
              Baa    -0.3045   -40.858   -14.579   -13.629  0.3359  0.9419  0.0000
     2 C(13)  Bbb     0.1259    16.894     6.028     5.635 -0.0000  0.0000  1.0000
              Bcc     0.1786    23.964     8.551     7.993  0.9419 -0.3359  0.0000
 
              Baa    -0.3137   -42.099   -15.022   -14.043  0.0590  0.7058  0.7060
     3 C(13)  Bbb    -0.1543   -20.704    -7.388    -6.906 -0.1192  0.7071 -0.6970
              Bcc     0.4680    62.803    22.410    20.949  0.9911  0.0430 -0.1258
 
              Baa    -0.5963   -80.012   -28.550   -26.689 -0.3688 -0.5556  0.7452
     4 C(13)  Bbb    -0.0214    -2.870    -1.024    -0.957 -0.6118  0.7487  0.2553
              Bcc     0.6176    82.882    29.574    27.647  0.6997  0.3617  0.6160
 
              Baa    -0.5963   -80.012   -28.550   -26.689  0.3688  0.5556  0.7452
     5 C(13)  Bbb    -0.0214    -2.870    -1.024    -0.957 -0.6118  0.7487 -0.2553
              Bcc     0.6176    82.882    29.574    27.647  0.6997  0.3617 -0.6160
 
              Baa    -0.0378   -20.186    -7.203    -6.733 -0.0407 -0.4199  0.9067
     6 H(1)   Bbb    -0.0255   -13.623    -4.861    -4.544  0.9990  0.0017  0.0456
              Bcc     0.0634    33.809    12.064    11.278 -0.0207  0.9076  0.4194
 
              Baa    -0.0378   -20.186    -7.203    -6.733  0.0407  0.4199  0.9067
     7 H(1)   Bbb    -0.0255   -13.623    -4.861    -4.544  0.9990  0.0017 -0.0456
              Bcc     0.0634    33.809    12.064    11.278 -0.0207  0.9076 -0.4194
 

 ---------------------------------------------------------------------------------

 No NMR shielding tensors so no spin-rotation constants.
 Leave Link  601 at Thu Jan 31 05:13:06 2019, MaxMem=    33554432 cpu:         3.1
 (Enter /home/proyectos/fulerenos/M3C-v2.0/M3C-deps_CCC/g09-AM64L-G09RevC.01/l701.exe)
 Compute integral second derivatives.
 ... and contract with generalized density number  0.
 Leave Link  701 at Thu Jan 31 05:13:07 2019, MaxMem=    33554432 cpu:         2.2
 (Enter /home/proyectos/fulerenos/M3C-v2.0/M3C-deps_CCC/g09-AM64L-G09RevC.01/l702.exe)
 L702 exits ... SP integral derivatives will be done elsewhere.
 Leave Link  702 at Thu Jan 31 05:13:07 2019, MaxMem=    33554432 cpu:         0.1
 (Enter /home/proyectos/fulerenos/M3C-v2.0/M3C-deps_CCC/g09-AM64L-G09RevC.01/l703.exe)
 Compute integral second derivatives, UseDBF=F ICtDFT=           0.
 Integral derivatives from FoFJK, PRISM(SPDF).
 Calling FoFJK, ICntrl=    100127 FMM=F ISym2X=1 I1Cent= 0 IOpClX= 1 NMat=1 NMatS=1 NMatT=0.
 FoFJK:  IHMeth= 1 ICntrl=  100127 DoSepK=F KAlg= 0 I1Cent=   0 FoldK=F
 IRaf=         0 NMat=   1 IRICut=       1 DoRegI=T DoRafI=F ISym2E= 1.
 FoFCou: FMM=F IPFlag=           0 FMFlag=      100000 FMFlg1=         800
         NFxFlg=           0 DoJE=F BraDBF=F KetDBF=F FulRan=T
         wScrn=  0.000000 ICntrl=  100127 IOpCl=  1 I1Cent=           0 NGrid=           0
         NMat0=    1 NMatS0=      1 NMatT0=    0 NMatD0=    1 NMtDS0=    0 NMtDT0=    0
 Petite list used in FoFCou.
 Leave Link  703 at Thu Jan 31 05:14:44 2019, MaxMem=    33554432 cpu:       386.5
 (Enter /home/proyectos/fulerenos/M3C-v2.0/M3C-deps_CCC/g09-AM64L-G09RevC.01/l716.exe)
 Dipole        =-7.36881395D-16-3.77952877D-16 2.70742690D-01
 Polarizability= 2.03263849D+01 1.94477677D+00 4.96906840D+01
                 8.30760567D-08 1.80761948D-08 3.73792988D+01
 Full mass-weighted force constant matrix:
 Low frequencies ---   -0.0014   -0.0010   -0.0002    3.5077    5.1642    8.2096
 Low frequencies ---  320.4949  452.6499  515.5622
 Diagonal vibrational polarizability:
        8.3239758       9.9694977       5.1974867
 Harmonic frequencies (cm**-1), IR intensities (KM/Mole), Raman scattering
 activities (A**4/AMU), depolarization ratios for plane and unpolarized
 incident light, reduced masses (AMU), force constants (mDyne/A),
 and normal coordinates:
                      1                      2                      3
                      B                      B                      A
 Frequencies --    320.4944               452.6498               515.5621
 Red. masses --      3.9840                 9.3195                 7.4735
 Frc consts  --      0.2411                 1.1250                 1.1704
 IR Inten    --     17.0743                 5.9769                 4.5609
  Atom  AN      X      Y      Z        X      Y      Z        X      Y      Z
     1   6    -0.21  -0.06   0.00     0.15  -0.14  -0.15     0.18  -0.09   0.06
     2   6     0.37  -0.01  -0.00    -0.27  -0.27  -0.00     0.00   0.00   0.21
     3   6    -0.21  -0.06  -0.00     0.15  -0.14   0.15    -0.18   0.09   0.06
     4   6     0.07   0.06   0.11     0.00   0.30   0.39     0.45  -0.04  -0.15
     5   6     0.07   0.06  -0.11     0.00   0.30  -0.39    -0.45   0.04  -0.15
     6   1    -0.60  -0.02  -0.04    -0.20  -0.26   0.12     0.44  -0.06  -0.09
     7   1    -0.60  -0.02   0.04    -0.20  -0.26  -0.12    -0.44   0.06  -0.09
                      4                      5                      6
                      A                      A                      B
 Frequencies --    572.9258               711.3191               723.0191
 Red. masses --      4.6893                 7.3644                 1.3222
 Frc consts  --      0.9069                 2.1954                 0.4072
 IR Inten    --     14.8943                 0.7858                92.6956
  Atom  AN      X      Y      Z        X      Y      Z        X      Y      Z
     1   6    -0.04  -0.08  -0.14     0.03   0.30  -0.12    -0.10  -0.02  -0.02
     2   6    -0.00  -0.00   0.37     0.00   0.00  -0.26     0.03   0.00   0.00
     3   6     0.04   0.08  -0.14    -0.03  -0.30  -0.12    -0.10  -0.02   0.02
     4   6    -0.04   0.27   0.01     0.20   0.21   0.26     0.03   0.03   0.03
     5   6     0.04  -0.27   0.01    -0.20  -0.21   0.26     0.03   0.03  -0.03
     6   1    -0.14   0.08  -0.55     0.28   0.34  -0.13     0.68  -0.11   0.08
     7   1     0.14  -0.08  -0.55    -0.28  -0.34  -0.13     0.68  -0.11  -0.08
                      7                      8                      9
                      A                      A                      B
 Frequencies --    789.9728               880.0699               962.5537
 Red. masses --      1.6027                 3.9726                 2.1174
 Frc consts  --      0.5893                 1.8128                 1.1558
 IR Inten    --      2.4625                 8.6358                28.3658
  Atom  AN      X      Y      Z        X      Y      Z        X      Y      Z
     1   6    -0.12  -0.07   0.04    -0.07   0.16  -0.14     0.00  -0.04   0.18
     2   6    -0.00   0.00  -0.06     0.00  -0.00   0.25    -0.05   0.06   0.00
     3   6     0.12   0.07   0.04     0.07  -0.16  -0.14     0.00  -0.04  -0.18
     4   6    -0.01   0.07  -0.01    -0.04  -0.22   0.02     0.01  -0.01   0.11
     5   6     0.01  -0.07  -0.01     0.04   0.22   0.02     0.01  -0.01  -0.11
     6   1     0.68  -0.12   0.05     0.58   0.11  -0.14     0.12   0.28  -0.60
     7   1    -0.68   0.12   0.05    -0.58  -0.11  -0.14     0.12   0.28   0.60
                     10                     11                     12
                      A                      B                      A
 Frequencies --    988.3574               993.4159              1190.2542
 Red. masses --      1.2512                 2.1327                 6.6423
 Frc consts  --      0.7201                 1.2401                 5.5443
 IR Inten    --     80.8698                 5.0546                 1.2304
  Atom  AN      X      Y      Z        X      Y      Z        X      Y      Z
     1   6     0.01   0.00  -0.09     0.01   0.06   0.10    -0.04   0.31   0.20
     2   6    -0.00   0.00   0.05    -0.03   0.12  -0.00     0.00  -0.00   0.13
     3   6    -0.01  -0.00  -0.09     0.01   0.06  -0.10     0.04  -0.31   0.20
     4   6     0.01   0.03   0.01     0.01  -0.10   0.14    -0.05   0.16  -0.29
     5   6    -0.01  -0.03   0.01     0.01  -0.10  -0.14     0.05  -0.16  -0.29
     6   1    -0.03  -0.30   0.63    -0.07  -0.16   0.65    -0.02   0.30   0.39
     7   1     0.03   0.30   0.63    -0.07  -0.16  -0.65     0.02  -0.30   0.39
                     13                     14                     15
                      B                      B                      A
 Frequencies --   1280.4193              2648.6505              2701.7232
 Red. masses --      7.5092                 1.1016                 1.1107
 Frc consts  --      7.2535                 4.5534                 4.7768
 IR Inten    --     91.2652              1512.8460               221.1418
  Atom  AN      X      Y      Z        X      Y      Z        X      Y      Z
     1   6     0.05  -0.34  -0.05    -0.00  -0.06  -0.02    -0.00  -0.06  -0.03
     2   6    -0.04   0.57  -0.00    -0.00   0.01   0.00    -0.00  -0.00   0.00
     3   6     0.05  -0.34   0.05    -0.00  -0.06   0.02     0.00   0.06  -0.03
     4   6    -0.02   0.09  -0.08    -0.00   0.00  -0.00    -0.00  -0.00   0.00
     5   6    -0.02   0.09   0.08    -0.00   0.00   0.00     0.00   0.00   0.00
     6   1    -0.09  -0.44   0.05     0.04   0.65   0.27     0.04   0.65   0.27
     7   1    -0.09  -0.44  -0.05     0.04   0.65  -0.27    -0.04  -0.65   0.27

 -------------------
 - Thermochemistry -
 -------------------
 Temperature   298.150 Kelvin.  Pressure   1.00000 Atm.
 Atom     1 has atomic number  6 and mass  12.00000
 Atom     2 has atomic number  6 and mass  12.00000
 Atom     3 has atomic number  6 and mass  12.00000
 Atom     4 has atomic number  6 and mass  12.00000
 Atom     5 has atomic number  6 and mass  12.00000
 Atom     6 has atomic number  1 and mass   1.00783
 Atom     7 has atomic number  1 and mass   1.00783
 Molecular mass:    62.01565 amu.
 Principal axes and moments of inertia in atomic units:
                           1         2         3
     Eigenvalues --   118.71879 238.15894 351.34737
           X            0.05726  -0.00000   0.99836
           Y            0.99836  -0.00000  -0.05726
           Z            0.00000   1.00000   0.00000
 This molecule is an asymmetric top.
 Rotational symmetry number  2.
 Rotational temperatures (Kelvin)      0.72957     0.36368     0.24652
 Rotational constants (GHZ):          15.20182     7.57789     5.13663
 Zero-point vibrational energy      94094.6 (Joules/Mol)
                                   22.48915 (Kcal/Mol)
 Warning -- explicit consideration of   4 degrees of freedom as
           vibrations may cause significant error
 Vibrational temperatures:    461.12   651.26   741.78   824.31  1023.43
          (Kelvin)           1040.26  1136.59  1266.22  1384.90  1422.02
                             1429.30  1712.51  1842.24  3810.81  3887.17
 
 Zero-point correction=                           0.035839 (Hartree/Particle)
 Thermal correction to Energy=                    0.040216
 Thermal correction to Enthalpy=                  0.041161
 Thermal correction to Gibbs Free Energy=         0.008846
 Sum of electronic and zero-point Energies=           -189.621924
 Sum of electronic and thermal Energies=              -189.617546
 Sum of electronic and thermal Enthalpies=            -189.616602
 Sum of electronic and thermal Free Energies=         -189.648917
 
                     E (Thermal)             CV                S
                      KCal/Mol        Cal/Mol-Kelvin    Cal/Mol-Kelvin
 Total                   25.236             15.611             68.012
 Electronic               0.000              0.000              2.755
 Translational            0.889              2.981             38.294
 Rotational               0.889              2.981             22.434
 Vibrational             23.459              9.649              4.530
 Vibration     1          0.706              1.634              1.308
 Vibration     2          0.811              1.355              0.788
 Vibration     3          0.871              1.216              0.620
 Vibration     4          0.929              1.090              0.499
                       Q            Log10(Q)             Ln(Q)
 Total Bot       0.853669D-04         -4.068711         -9.368552
 Total V=0       0.260573D+13         12.415929         28.588733
 Vib (Bot)       0.623224D-16        -16.205356        -37.314210
 Vib (Bot)    1  0.586366D+00         -0.231831         -0.533812
 Vib (Bot)    2  0.378036D+00         -0.422467         -0.972765
 Vib (Bot)    3  0.314355D+00         -0.502579         -1.157231
 Vib (Bot)    4  0.267854D+00         -0.572102         -1.317314
 Vib (V=0)       0.190232D+01          0.279284          0.643075
 Vib (V=0)    1  0.127060D+01          0.104009          0.239489
 Vib (V=0)    2  0.112683D+01          0.051857          0.119405
 Vib (V=0)    3  0.109061D+01          0.037669          0.086736
 Vib (V=0)    4  0.106723D+01          0.028257          0.065063
 Electronic      0.400000D+01          0.602060          1.386294
 Translational   0.191958D+08          7.283207         16.770204
 Rotational      0.178393D+05          4.251378          9.789159
 
                                                              b3lyp opt
                                                             IR Spectrum
 
     2  2                                                               1    1                                                       
     7  6                                                               2    1       999   8   7  77      5 5  4     3               
     0  4                                                               8    9       986   8   9  21      7 1  5     2               
     2  9                                                               0    0       383   0   0  31      3 6  3     0               
 
     X  X                                                               X    X       XXX   X   X  XX      X X  X     X               
     X  X                                                                                                                            
     X  X                                                                                                                            
        X                                                                                                                            
        X                                                                                                                            
        X                                                                                                                            
        X                                                                                                                            
        X                                                                                                                            
        X                                                                                                                            
        X                                                                                                                            
        X                                                                                                                            
        X                                                                                                                            
        X                                                                                                                            
        X                                                                                                                            
        X                                                                                                                            
        X                                                                                                                            
        X                                                                                                                            
        X                                                                                                                            
        X                                                                                                                            
        X                                                                                                                            
 
 ***** Axes restored to original set *****
 -------------------------------------------------------------------
 Center     Atomic                   Forces (Hartrees/Bohr)
 Number     Number              X              Y              Z
 -------------------------------------------------------------------
      1        6          -0.000115522    0.000062170   -0.000021683
      2        6          -0.000000082   -0.000099441   -0.000000000
      3        6           0.000115625    0.000061979    0.000021683
      4        6          -0.000120176   -0.000032592   -0.000007326
      5        6           0.000120122   -0.000032791    0.000007326
      6        1          -0.000019950    0.000020354   -0.000002687
      7        1           0.000019983    0.000020321    0.000002687
 -------------------------------------------------------------------
 Cartesian Forces:  Max     0.000120176 RMS     0.000060947
 Z-matrix is all fixed cartesians, so copy forces.
 Force constants in Cartesian coordinates: 
                1             2             3             4             5 
      1  0.600361D+00
      2 -0.160651D+00  0.272773D+00
      3  0.408698D-01 -0.109536D-01  0.822394D-01
      4 -0.219684D+00 -0.244822D-01 -0.406663D-01  0.434716D+00
      5 -0.464823D-01 -0.442467D-01 -0.137697D-01 -0.199426D-03  0.194185D+00
      6 -0.276312D-01 -0.235759D-01 -0.275449D-01  0.544243D-01 -0.451214D-04
      7 -0.490065D-01  0.191639D-01  0.396855D-02 -0.219566D+00  0.467730D-01
      8 -0.190610D-01  0.130302D-01 -0.112750D-01  0.247729D-01 -0.443649D-01
      9  0.398724D-02  0.112684D-01 -0.106864D-01 -0.406434D-01  0.138371D-01
     10 -0.321160D-01  0.575403D-02  0.624237D-02  0.176643D-01  0.240145D-01
     11  0.382976D-01 -0.135207D-01  0.111286D-01  0.720837D-02 -0.638206D-01
     12 -0.463322D-02 -0.372620D-02  0.181391D-01  0.101925D-01 -0.185947D-01
     13 -0.938802D-01  0.857414D-01 -0.129806D-01  0.176123D-01 -0.241495D-01
     14  0.104366D+00 -0.168516D+00  0.253859D-01 -0.734339D-02 -0.637686D-01
     15 -0.170092D-01  0.265079D-01 -0.384910D-01  0.102234D-01  0.185778D-01
     16 -0.210162D+00  0.779723D-01  0.163488D-02 -0.153910D-01 -0.767160D-02
     17  0.784323D-01 -0.586845D-01 -0.447884D-03 -0.156732D-01  0.110274D-01
     18  0.257763D-02 -0.245423D-02 -0.279902D-01  0.323659D-02  0.219205D-02
     19  0.448693D-02 -0.349883D-02  0.931298D-03 -0.153522D-01  0.771534D-02
     20  0.509762D-02 -0.835794D-03 -0.682747D-04  0.157170D-01  0.109887D-01
     21  0.183889D-02  0.293369D-02  0.433409D-02  0.323295D-02 -0.219742D-02
                6             7             8             9            10 
      6  0.441942D-01
      7 -0.275920D-01  0.600893D+00
      8  0.236217D-01  0.160107D+00  0.272241D+00
      9 -0.275449D-01  0.408879D-01  0.108858D-01  0.822394D-01
     10  0.735429D-04 -0.941956D-01 -0.858646D-01 -0.130226D-01  0.191235D+00
     11 -0.243353D-01 -0.104490D+00 -0.168200D+00 -0.253643D-01  0.683999D-01
     12  0.432603D-02 -0.170531D-01 -0.264796D-01 -0.384910D-01  0.106353D-02
     13  0.113892D-03 -0.321890D-01 -0.572307D-02  0.622390D-02 -0.890752D-01
     14  0.243351D-01 -0.382666D-01 -0.134477D-01 -0.111390D-01  0.400346D-02
     15  0.432603D-02 -0.462704D-02  0.373388D-02  0.181391D-01  0.113708D-01
     16  0.306001D-03  0.448426D-02  0.349001D-02  0.931410D-03 -0.377559D-02
     17  0.330615D-03 -0.510644D-02 -0.833128D-03  0.667303D-04  0.846639D-03
     18  0.112177D-02  0.183403D-02 -0.293674D-02  0.433409D-02  0.629529D-03
     19  0.305452D-03 -0.210421D+00 -0.777207D-01  0.163562D-02  0.102629D-01
     20 -0.331122D-03 -0.781807D-01 -0.584256D-01  0.445173D-03 -0.171539D-01
     21  0.112177D-02  0.258170D-02  0.244995D-02 -0.279902D-01 -0.635712D-02
               11            12            13            14            15 
     11  0.239224D+00
     12  0.396126D-01  0.644965D-01
     13 -0.381705D-02  0.113855D-01  0.191009D+00
     14  0.233415D-01  0.888443D-02 -0.683200D-01  0.239451D+00
     15 -0.890330D-02 -0.552331D-01  0.997845D-03 -0.396143D-01  0.644965D-01
     16 -0.396984D-03  0.779757D-03  0.102999D-01  0.516044D-02 -0.173422D-02
     17 -0.216298D-02  0.804318D-03  0.171121D-01 -0.148979D-01  0.503612D-03
     18  0.572369D-02  0.550596D-02 -0.636066D-02 -0.212746D-02  0.125646D-02
     19 -0.520216D-02 -0.173505D-02 -0.377633D-02  0.399660D-03  0.778422D-03
     20 -0.148609D-01 -0.500736D-03 -0.843964D-03 -0.216224D-02 -0.805610D-03
     21  0.213801D-02  0.125646D-02  0.620037D-03 -0.572473D-02  0.550596D-02
               16            17            18            19            20 
     16  0.217934D+00
     17 -0.770868D-01  0.640678D-01
     18 -0.145522D-02 -0.827736D-03  0.177868D-01
     19 -0.338972D-02  0.147544D-02 -0.461901D-03  0.218189D+00
     20 -0.146736D-02  0.148336D-02  0.430421D-03  0.768313D-01  0.638125D-01
     21 -0.462614D-03 -0.429655D-03 -0.201480D-02 -0.145384D-02  0.830148D-03
               21 
     21  0.177868D-01
 Leave Link  716 at Thu Jan 31 05:14:44 2019, MaxMem=    33554432 cpu:         0.2
 (Enter /home/proyectos/fulerenos/M3C-v2.0/M3C-deps_CCC/g09-AM64L-G09RevC.01/l103.exe)

 GradGradGradGradGradGradGradGradGradGradGradGradGradGradGradGradGradGrad
 Berny optimization.
 Search for a local minimum.
 Step number   1 out of a maximum of    2
 All quantities printed in internal units (Hartrees-Bohrs-Radians)
 Second derivative matrix not updated -- analytic derivatives used.
 ITU=  0
     Eigenvalues ---    0.01491   0.03342   0.05119   0.06442   0.09006
     Eigenvalues ---    0.09623   0.11287   0.14089   0.22312   0.28278
     Eigenvalues ---    0.31493   0.38412   0.47201   0.91026   0.91325
 Angle between quadratic step and forces=  43.76 degrees.
 ClnCor:  largest displacement from symmetrization is 1.66D-10 for atom     7.
 Linear search not attempted -- first point.
 ClnCor:  largest displacement from symmetrization is 3.55D-15 for atom     6.
 B after Tr=    -0.000000   -0.000080   -0.000000
         Rot=    1.000000    0.000000    0.000003   -0.000000 Ang=   0.00 deg.
 Variable       Old X    -DE/DX   Delta X   Delta X   Delta X     New X
                                 (Linear)    (Quad)   (Total)
    X1        2.50526  -0.00012   0.00000  -0.00038  -0.00038   2.50488
    Y1       -0.67865   0.00006   0.00000   0.00004  -0.00005  -0.67870
    Z1        0.13193  -0.00002   0.00000  -0.00009  -0.00007   0.13185
    X2       -0.00131  -0.00000   0.00000  -0.00000  -0.00000  -0.00131
    Y2       -1.58129  -0.00010   0.00000  -0.00066  -0.00074  -1.58203
    Z2        0.00001  -0.00000   0.00000   0.00000   0.00000   0.00001
    X3       -2.50638   0.00012   0.00000   0.00038   0.00038  -2.50600
    Y3       -0.67450   0.00006   0.00000   0.00003  -0.00005  -0.67454
    Z3       -0.13190   0.00002   0.00000   0.00009   0.00007  -0.13183
    X4       -1.35325  -0.00012   0.00000  -0.00029  -0.00029  -1.35355
    Y4        1.71659  -0.00003   0.00000   0.00010   0.00002   1.71661
    Z4        0.31116  -0.00001   0.00000  -0.00013  -0.00014   0.31102
    X5        1.35610   0.00012   0.00000   0.00029   0.00029   1.35639
    Y5        1.71434  -0.00003   0.00000   0.00010   0.00002   1.71436
    Z5       -0.31113   0.00001   0.00000   0.00013   0.00014  -0.31099
    X6        4.48933  -0.00002   0.00000  -0.00034  -0.00034   4.48899
    Y6       -1.49367   0.00002   0.00000   0.00048   0.00040  -1.49327
    Z6        0.12039  -0.00000   0.00000  -0.00007  -0.00004   0.12035
    X7       -4.49179   0.00002   0.00000   0.00034   0.00034  -4.49145
    Y7       -1.48622   0.00002   0.00000   0.00048   0.00040  -1.48583
    Z7       -0.12036   0.00000   0.00000   0.00007   0.00004  -0.12032
         Item               Value     Threshold  Converged?
 Maximum Force            0.000120     0.000450     YES
 RMS     Force            0.000061     0.000300     YES
 Maximum Displacement     0.000737     0.001800     YES
 RMS     Displacement     0.000276     0.001200     YES
 Predicted change in Energy=-1.295171D-07
 Optimization completed.
    -- Stationary point found.
 GradGradGradGradGradGradGradGradGradGradGradGradGradGradGradGradGradGrad

 Leave Link  103 at Thu Jan 31 05:14:44 2019, MaxMem=    33554432 cpu:         0.1
 (Enter /home/proyectos/fulerenos/M3C-v2.0/M3C-deps_CCC/g09-AM64L-G09RevC.01/l9999.exe)

 Test job not archived.
 1\1\GINC-COPERNICIO\Freq\UB3LYP\6-311++G(3df,2p)\C5H2(3+,4)\ROOT\31-Ja
 n-2019\0\\#p b3lyp/6-311++G(3df,2p) freq IOp(2/17=3) IOp(2/18=3)\\b3ly
 p opt\\3,4\C,1.325726073,-0.359127641,0.0698129\C,-0.0006928746,-0.836
 782873,0.0000073758\C,-1.3263179387,-0.3569287969,-0.0697981485\C,-0.7
 16110475,0.908380328,0.164658785\C,0.7176176152,0.9071916054,-0.164644
 0335\H,2.375649493,-0.790415463,0.063706874\H,-2.3769550874,-0.7864750
 169,-0.0636921225\\Version=EM64L-G09RevE.01\State=4-B\HF=-189.6577623\
 S2=3.766454\S2-1=0.\S2A=3.750105\RMSD=8.571e-09\RMSF=6.095e-05\ZeroPoi
 nt=0.0358387\Thermal=0.0402163\Dipole=-0.0002245,-0.2707426,0.\DipoleD
 eriv=0.2268364,0.0465466,-0.07122,-0.038311,0.1574667,-0.0557644,-0.05
 41356,-0.0092812,0.4155725,0.1431863,0.0003951,0.1422733,0.000395,0.61
 96514,-0.000118,0.091031,-0.0000755,0.5276449,0.2268226,-0.0466617,-0.
 0711274,0.038196,0.1574804,0.0558824,-0.0541201,0.0093709,0.4155725,0.
 2813079,0.1999043,-0.0137021,-0.1577136,0.6677166,-0.0536837,-0.011430
 3,-0.0587813,0.5492313,0.2812391,-0.1992635,-0.013613,0.1583544,0.6677
 855,0.0537064,-0.0113328,0.0588002,0.5492313,0.9199021,-0.2315297,0.01
 3687,-0.2539243,0.3653514,-0.0091601,0.019991,-0.0035659,0.2713738,0.9
 207056,0.2306088,0.0137022,0.2530034,0.364548,0.0091374,0.0199969,0.00
 35327,0.2713738\Polar=49.8137152,-0.0103096,37.3793074,-0.3924808,0.00
 03255,20.2033451\PG=C02 [C2(C1),X(C4H2)]\NImag=0\\0.60036119,-0.160650
 63,0.27277312,0.04086978,-0.01095362,0.08223938,-0.21968382,-0.0244821
 8,-0.04066630,0.43471607,-0.04648231,-0.04424673,-0.01376973,-0.000199
 43,0.19418482,-0.02763116,-0.02357593,-0.02754491,0.05442430,-0.000045
 12,0.04419424,-0.04900650,0.01916387,0.00396855,-0.21956567,0.04677303
 ,-0.02759203,0.60089308,-0.01906100,0.01303025,-0.01127502,0.02477289,
 -0.04436489,0.02362172,0.16010654,0.27224123,0.00398724,0.01126842,-0.
 01068641,-0.04064341,0.01383714,-0.02754491,0.04088789,0.01088584,0.08
 223938,-0.03211600,0.00575403,0.00624237,0.01766430,0.02401448,0.00007
 354,-0.09419565,-0.08586464,-0.01302265,0.19123525,0.03829758,-0.01352
 065,0.01112864,0.00720837,-0.06382064,-0.02433528,-0.10448969,-0.16820
 021,-0.02536434,0.06839991,0.23922394,-0.00463322,-0.00372620,0.018139
 11,0.01019253,-0.01859475,0.00432603,-0.01705310,-0.02647964,-0.038491
 03,0.00106353,0.03961258,0.06449653,-0.09388020,0.08574140,-0.01298057
 ,0.01761231,-0.02414952,0.00011389,-0.03218900,-0.00572307,0.00622390,
 -0.08907524,-0.00381705,0.01138555,0.19100854,0.10436645,-0.16851566,0
 .02538590,-0.00734339,-0.06376865,0.02433512,-0.03826663,-0.01344766,-
 0.01113898,0.00400346,0.02334149,0.00888443,-0.06831996,0.23945066,-0.
 01700916,0.02650788,-0.03849103,0.01022336,0.01857782,0.00432603,-0.00
 462704,0.00373388,0.01813911,0.01137080,-0.00890330,-0.05523308,0.0009
 9785,-0.03961429,0.06449653,-0.21016160,0.07797234,0.00163488,-0.01539
 099,-0.00767160,0.00030600,0.00448426,0.00349001,0.00093141,-0.0037755
 9,-0.00039698,0.00077976,0.01029994,0.00516044,-0.00173422,0.21793369,
 0.07843229,-0.05868453,-0.00044788,-0.01567325,0.01102744,0.00033061,-
 0.00510644,-0.00083313,0.00006673,0.00084664,-0.00216298,0.00080432,0.
 01711215,-0.01489794,0.00050361,-0.07708684,0.06406778,0.00257763,-0.0
 0245423,-0.02799025,0.00323659,0.00219205,0.00112177,0.00183403,-0.002
 93674,0.00433409,0.00062953,0.00572369,0.00550596,-0.00636066,-0.00212
 746,0.00125646,-0.00145522,-0.00082774,0.01778676,0.00448693,-0.003498
 83,0.00093130,-0.01535221,0.00771534,0.00030545,-0.21042053,-0.0777207
 3,0.00163562,0.01026294,-0.00520216,-0.00173505,-0.00377633,0.00039966
 ,0.00077842,-0.00338972,0.00147544,-0.00046190,0.21818892,0.00509762,-
 0.00083579,-0.00006827,0.01571699,0.01098865,-0.00033112,-0.07818068,-
 0.05842559,0.00044517,-0.01715387,-0.01486094,-0.00050074,-0.00084396,
 -0.00216224,-0.00080561,-0.00146736,0.00148336,0.00043042,0.07683127,0
 .06381255,0.00183889,0.00293369,0.00433409,0.00323295,-0.00219742,0.00
 112177,0.00258170,0.00244995,-0.02799025,-0.00635712,0.00213801,0.0012
 5646,0.00062004,-0.00572473,0.00550596,-0.00046261,-0.00042965,-0.0020
 1480,-0.00145384,0.00083015,0.01778676\\0.00011552,-0.00006217,0.00002
 168,0.00000008,0.00009944,0.,-0.00011562,-0.00006198,-0.00002168,0.000
 12018,0.00003259,0.00000733,-0.00012012,0.00003279,-0.00000733,0.00001
 995,-0.00002035,0.00000269,-0.00001998,-0.00002032,-0.00000269\\\@


 THE ONLY DIFFERENCE BETWEEN ECCENTRICS AND JOGGERS
 IS THAT JOGGERS WEAR SWEATBANDS WHEN THEY RUN IN THE RAIN.
 Job cpu time:       0 days  0 hours 41 minutes 14.1 seconds.
 File lengths (MBytes):  RWF=     46 Int=      0 D2E=      0 Chk=      5 Scr=      1
 Normal termination of Gaussian 09 at Thu Jan 31 05:14:44 2019.
