 Entering Gaussian System, Link 0=/home/proyectos/fulerenos/M3C-v2.0/M3C-deps_CCC/g09-AM64L-G09RevC.01/g09
 Initial command:
 /home/proyectos/fulerenos/M3C-v2.0/M3C-deps_CCC/g09-AM64L-G09RevC.01/l1.exe "/scratch/naguirre/gaussian/Gau-10892.inp" -scrdir="/scratch/naguirre/gaussian/"
 Entering Link 1 = /home/proyectos/fulerenos/M3C-v2.0/M3C-deps_CCC/g09-AM64L-G09RevC.01/l1.exe PID=     10899.
  
 Copyright (c) 1988,1990,1992,1993,1995,1998,2003,2009,2015,
            Gaussian, Inc.  All Rights Reserved.
  
 This is part of the Gaussian(R) 09 program.  It is based on
 the Gaussian(R) 03 system (copyright 2003, Gaussian, Inc.),
 the Gaussian(R) 98 system (copyright 1998, Gaussian, Inc.),
 the Gaussian(R) 94 system (copyright 1995, Gaussian, Inc.),
 the Gaussian 92(TM) system (copyright 1992, Gaussian, Inc.),
 the Gaussian 90(TM) system (copyright 1990, Gaussian, Inc.),
 the Gaussian 88(TM) system (copyright 1988, Gaussian, Inc.),
 the Gaussian 86(TM) system (copyright 1986, Carnegie Mellon
 University), and the Gaussian 82(TM) system (copyright 1983,
 Carnegie Mellon University). Gaussian is a federally registered
 trademark of Gaussian, Inc.
  
 This software contains proprietary and confidential information,
 including trade secrets, belonging to Gaussian, Inc.
  
 This software is provided under written license and may be
 used, copied, transmitted, or stored only in accord with that
 written license.
  
 The following legend is applicable only to US Government
 contracts under FAR:
  
                    RESTRICTED RIGHTS LEGEND
  
 Use, reproduction and disclosure by the US Government is
 subject to restrictions as set forth in subparagraphs (a)
 and (c) of the Commercial Computer Software - Restricted
 Rights clause in FAR 52.227-19.
  
 Gaussian, Inc.
 340 Quinnipiac St., Bldg. 40, Wallingford CT 06492
  
  
 ---------------------------------------------------------------
 Warning -- This program may not be used in any manner that
 competes with the business of Gaussian, Inc. or will provide
 assistance to any competitor of Gaussian, Inc.  The licensee
 of this program is prohibited from giving any competitor of
 Gaussian, Inc. access to this program.  By using this program,
 the user acknowledges that Gaussian, Inc. is engaged in the
 business of creating and licensing software in the field of
 computational chemistry and represents and warrants to the
 licensee that it is not a competitor of Gaussian, Inc. and that
 it will not use this program in any manner prohibited above.
 ---------------------------------------------------------------
  

 Cite this work as:
 Gaussian 09, Revision E.01,
 M. J. Frisch, G. W. Trucks, H. B. Schlegel, G. E. Scuseria, 
 M. A. Robb, J. R. Cheeseman, G. Scalmani, V. Barone, B. Mennucci, 
 G. A. Petersson, H. Nakatsuji, M. Caricato, X. Li, H. P. Hratchian, 
 A. F. Izmaylov, J. Bloino, G. Zheng, J. L. Sonnenberg, M. Hada, 
 M. Ehara, K. Toyota, R. Fukuda, J. Hasegawa, M. Ishida, T. Nakajima, 
 Y. Honda, O. Kitao, H. Nakai, T. Vreven, J. A. Montgomery, Jr., 
 J. E. Peralta, F. Ogliaro, M. Bearpark, J. J. Heyd, E. Brothers, 
 K. N. Kudin, V. N. Staroverov, T. Keith, R. Kobayashi, J. Normand, 
 K. Raghavachari, A. Rendell, J. C. Burant, S. S. Iyengar, J. Tomasi, 
 M. Cossi, N. Rega, J. M. Millam, M. Klene, J. E. Knox, J. B. Cross, 
 V. Bakken, C. Adamo, J. Jaramillo, R. Gomperts, R. E. Stratmann, 
 O. Yazyev, A. J. Austin, R. Cammi, C. Pomelli, J. W. Ochterski, 
 R. L. Martin, K. Morokuma, V. G. Zakrzewski, G. A. Voth, 
 P. Salvador, J. J. Dannenberg, S. Dapprich, A. D. Daniels, 
 O. Farkas, J. B. Foresman, J. V. Ortiz, J. Cioslowski, 
 and D. J. Fox, Gaussian, Inc., Wallingford CT, 2013.
 
 ******************************************
 Gaussian 09:  EM64L-G09RevE.01 30-Nov-2015
                31-Jan-2019 
 ******************************************
 %NProcShared=4
 Will use up to    4 processors via shared memory.
 ------------------------------------------------------
 #p b3lyp/6-311++G(3df,2p) freq IOp(2/17=3) IOp(2/18=3)
 ------------------------------------------------------
 1/10=4,30=1,38=1/1,3;
 2/12=2,17=3,18=3,40=1/2;
 3/5=4,6=6,7=1216,11=2,16=1,25=1,30=1,71=2,74=-5,140=1/1,2,3;
 4//1;
 5/5=2,38=5,98=1/2;
 8/6=4,10=90,11=11/1;
 11/6=1,8=1,9=11,15=111,16=1/1,2,10;
 10/6=1/2;
 6/7=2,8=2,9=2,10=2,18=1,28=1/1;
 7/8=1,10=1,25=1/1,2,3,16;
 1/10=4,30=1/3;
 99//99;
 Leave Link    1 at Thu Jan 31 04:55:44 2019, MaxMem=           0 cpu:         0.2
 (Enter /home/proyectos/fulerenos/M3C-v2.0/M3C-deps_CCC/g09-AM64L-G09RevC.01/l101.exe)
 ---------
 b3lyp opt
 ---------
 Symbolic Z-matrix:
 Charge =  2 Multiplicity = 3
 C                     0.56795   0.01554  -0.00004 
 C                    -0.50248   1.02802   0.00012 
 C                    -1.44924  -0.03432   0.00031 
 C                    -0.45114  -1.04859   0.00016 
 C                     1.99294   0.05077  -0.00028 
 H                    -0.52838   2.12213   0.0001 
 H                    -0.42296  -2.14264   0.00018 
 
 NAtoms=      7 NQM=        7 NQMF=       0 NMMI=      0 NMMIF=      0
                NMic=       0 NMicF=      0.
                    Isotopes and Nuclear Properties:
 (Nuclear quadrupole moments (NQMom) in fm**2, nuclear magnetic moments (NMagM)
  in nuclear magnetons)

  Atom         1           2           3           4           5           6           7
 IAtWgt=          12          12          12          12          12           1           1
 AtmWgt=  12.0000000  12.0000000  12.0000000  12.0000000  12.0000000   1.0078250   1.0078250
 NucSpn=           0           0           0           0           0           1           1
 AtZEff=   0.0000000   0.0000000   0.0000000   0.0000000   0.0000000   0.0000000   0.0000000
 NQMom=    0.0000000   0.0000000   0.0000000   0.0000000   0.0000000   0.0000000   0.0000000
 NMagM=    0.0000000   0.0000000   0.0000000   0.0000000   0.0000000   2.7928460   2.7928460
 AtZNuc=   6.0000000   6.0000000   6.0000000   6.0000000   6.0000000   1.0000000   1.0000000
 Leave Link  101 at Thu Jan 31 04:55:44 2019, MaxMem=    33554432 cpu:         0.3
 (Enter /home/proyectos/fulerenos/M3C-v2.0/M3C-deps_CCC/g09-AM64L-G09RevC.01/l103.exe)

 GradGradGradGradGradGradGradGradGradGradGradGradGradGradGradGradGradGrad
 Berny optimization.
 Initialization pass.
 Trust Radius=3.00D-01 FncErr=1.00D-07 GrdErr=1.00D-07
 Number of steps in this run=      2 maximum allowed number of steps=      2.
 GradGradGradGradGradGradGradGradGradGradGradGradGradGradGradGradGradGrad

 Leave Link  103 at Thu Jan 31 04:55:44 2019, MaxMem=    33554432 cpu:         0.1
 (Enter /home/proyectos/fulerenos/M3C-v2.0/M3C-deps_CCC/g09-AM64L-G09RevC.01/l202.exe)
                          Input orientation:                          
 ---------------------------------------------------------------------
 Center     Atomic      Atomic             Coordinates (Angstroms)
 Number     Number       Type             X           Y           Z
 ---------------------------------------------------------------------
      1          6           0        0.567955    0.015542   -0.000037
      2          6           0       -0.502478    1.028018    0.000123
      3          6           0       -1.449245   -0.034323    0.000310
      4          6           0       -0.451145   -1.048587    0.000162
      5          6           0        1.992942    0.050768   -0.000283
      6          1           0       -0.528381    2.122131    0.000102
      7          1           0       -0.422955   -2.142643    0.000183
 ---------------------------------------------------------------------
                    Distance matrix (angstroms):
                    1          2          3          4          5
     1  C    0.000000
     2  C    1.473409   0.000000
     3  C    2.017816   1.423002   0.000000
     4  C    1.473409   2.077240   1.423002   0.000000
     5  C    1.425423   2.679952   3.443238   2.679952   0.000000
     6  H    2.374798   1.094419   2.344842   3.171658   3.263068
     7  H    2.374798   3.171658   2.344842   1.094419   3.263068
                    6          7
     6  H    0.000000
     7  H    4.266077   0.000000
 Stoichiometry    C5H2(2+,3)
 Framework group  C2V[C2(CCC),SGV'(C2H2)]
 Deg. of freedom     6
 Full point group                 C2V     NOp   4
 Largest Abelian subgroup         C2V     NOp   4
 Largest concise Abelian subgroup C2      NOp   2
                         Standard orientation:                         
 ---------------------------------------------------------------------
 Center     Atomic      Atomic             Coordinates (Angstroms)
 Number     Number       Type             X           Y           Z
 ---------------------------------------------------------------------
      1          6           0        0.000000    0.000000    0.568227
      2          6           0        1.038620   -0.000000   -0.476858
      3          6           0       -0.000000    0.000000   -1.449589
      4          6           0       -1.038620    0.000000   -0.476858
      5          6           0        0.000000    0.000000    1.993650
      6          1           0        2.133038   -0.000000   -0.475714
      7          1           0       -2.133038    0.000000   -0.475714
 ---------------------------------------------------------------------
 Rotational constants (GHZ):     14.4145017      6.1120875      4.2921254
 Leave Link  202 at Thu Jan 31 04:55:44 2019, MaxMem=    33554432 cpu:         0.0
 (Enter /home/proyectos/fulerenos/M3C-v2.0/M3C-deps_CCC/g09-AM64L-G09RevC.01/l301.exe)
 Standard basis: 6-311++G(3df,2p) (5D, 7F)
 Ernie: Thresh=  0.10000D-02 Tol=  0.10000D-05 Strict=F.
 There are   102 symmetry adapted cartesian basis functions of A1  symmetry.
 There are    28 symmetry adapted cartesian basis functions of A2  symmetry.
 There are    69 symmetry adapted cartesian basis functions of B1  symmetry.
 There are    46 symmetry adapted cartesian basis functions of B2  symmetry.
 There are    85 symmetry adapted basis functions of A1  symmetry.
 There are    27 symmetry adapted basis functions of A2  symmetry.
 There are    61 symmetry adapted basis functions of B1  symmetry.
 There are    42 symmetry adapted basis functions of B2  symmetry.
   215 basis functions,   314 primitive gaussians,   245 cartesian basis functions
    16 alpha electrons       14 beta electrons
       nuclear repulsion energy       119.6169186344 Hartrees.
 IExCor=  402 DFT=T Ex+Corr=B3LYP ExCW=0 ScaHFX=  0.200000
 ScaDFX=  0.800000  0.720000  1.000000  0.810000 ScalE2=  1.000000  1.000000
 IRadAn=      0 IRanWt=     -1 IRanGd=            0 ICorTp=0 IEmpDi=  4
 NAtoms=    7 NActive=    7 NUniq=    5 SFac= 1.96D+00 NAtFMM=   60 NAOKFM=F Big=F
 Integral buffers will be    131072 words long.
 Raffenetti 2 integral format.
 Two-electron integral symmetry is turned on.
 Leave Link  301 at Thu Jan 31 04:55:44 2019, MaxMem=    33554432 cpu:         0.3
 (Enter /home/proyectos/fulerenos/M3C-v2.0/M3C-deps_CCC/g09-AM64L-G09RevC.01/l302.exe)
 NPDir=0 NMtPBC=     1 NCelOv=     1 NCel=       1 NClECP=     1 NCelD=      1
         NCelK=      1 NCelE2=     1 NClLst=     1 CellRange=     0.0.
 One-electron integrals computed using PRISM.
 One-electron integral symmetry used in STVInt
 NBasis=   215 RedAO= T EigKep=  4.22D-06  NBF=    85    27    61    42
 NBsUse=   215 1.00D-06 EigRej= -1.00D+00 NBFU=    85    27    61    42
 Precomputing XC quadrature grid using
 IXCGrd= 4 IRadAn=           0 IRanWt=          -1 IRanGd=           0 AccXCQ= 0.00D+00.
 Generated NRdTot=       0 NPtTot=           0 NUsed=           0 NTot=          32
 NSgBfM=   245   245   245   245   245 MxSgAt=     7 MxSgA2=     7.
 Leave Link  302 at Thu Jan 31 04:55:45 2019, MaxMem=    33554432 cpu:         1.6
 (Enter /home/proyectos/fulerenos/M3C-v2.0/M3C-deps_CCC/g09-AM64L-G09RevC.01/l303.exe)
 DipDrv:  MaxL=1.
 Leave Link  303 at Thu Jan 31 04:55:45 2019, MaxMem=    33554432 cpu:         0.1
 (Enter /home/proyectos/fulerenos/M3C-v2.0/M3C-deps_CCC/g09-AM64L-G09RevC.01/l401.exe)
 ExpMin= 3.60D-02 ExpMax= 4.56D+03 ExpMxC= 6.82D+02 IAcc=3 IRadAn=         5 AccDes= 0.00D+00
 Harris functional with IExCor=  402 and IRadAn=       5 diagonalized for initial guess.
 HarFok:  IExCor=  402 AccDes= 0.00D+00 IRadAn=         5 IDoV= 1 UseB2=F ITyADJ=14
 ICtDFT=  3500011 ScaDFX=  1.000000  1.000000  1.000000  1.000000
 FoFCou: FMM=F IPFlag=           0 FMFlag=      100000 FMFlg1=           0
         NFxFlg=           0 DoJE=T BraDBF=F KetDBF=T FulRan=T
         wScrn=  0.000000 ICntrl=     500 IOpCl=  0 I1Cent=   200000004 NGrid=           0
         NMat0=    1 NMatS0=      1 NMatT0=    0 NMatD0=    1 NMtDS0=    0 NMtDT0=    0
 Petite list used in FoFCou.
 Harris En= -190.860205689156    
 JPrj=0 DoOrth=F DoCkMO=F.
 Initial guess orbital symmetries:
 Alpha Orbitals:
       Occupied  (B1) (A1) (A1) (A1) (A1) (A1) (A1) (B1) (A1) (A1)
                 (B1) (B1) (B2) (A1) (B2) (A1)
       Virtual   (A2) (B1) (B2) (B2) (A1) (B1) (A1) (A1) (B2) (B1)
                 (A1) (A1) (A2) (B2) (B1) (A1) (B1) (A1) (B2) (B1)
                 (B1) (A1) (B2) (A1) (B1) (A1) (A1) (B1) (A1) (B1)
                 (A1) (B1) (A2) (B2) (A1) (A1) (B1) (B1) (A1) (A2)
                 (A2) (A1) (B2) (A1) (B2) (A1) (B1) (A1) (B2) (B1)
                 (B2) (A1) (A2) (B2) (A1) (B1) (A1) (B1) (A1) (A2)
                 (B2) (A1) (B1) (B1) (B2) (A2) (A1) (A1) (B2) (B1)
                 (A1) (B1) (B1) (A1) (A1) (B1) (B2) (B1) (A2) (A1)
                 (B1) (A1) (A2) (A1) (B2) (A1) (A1) (A2) (B1) (B2)
                 (A1) (A2) (B2) (A1) (B1) (B1) (A1) (A1) (B1) (A2)
                 (B2) (A1) (A1) (A2) (B1) (B2) (A1) (A1) (B1) (B1)
                 (B2) (A1) (B1) (B2) (A2) (B2) (B1) (A2) (A1) (B2)
                 (B2) (B1) (A1) (B1) (B2) (B1) (B2) (A1) (A2) (B2)
                 (A1) (B1) (A2) (A1) (B2) (B1) (A2) (B1) (A1) (A1)
                 (B1) (A1) (B1) (A1) (A1) (B1) (B2) (A1) (A1) (B1)
                 (B2) (B1) (A1) (B2) (A2) (B2) (A1) (A2) (A2) (B1)
                 (A1) (B1) (A1) (B2) (B1) (A1) (B1) (B1) (A1) (A2)
                 (A2) (B2) (A1) (A2) (B2) (A1) (A1) (B2) (B1) (A1)
                 (B1) (A2) (B2) (A1) (A2) (A1) (B1) (B2) (A1) (A1)
                 (B1) (B1) (A1) (B1) (A1) (A1) (B1) (A1) (A1)
 Beta  Orbitals:
       Occupied  (B1) (A1) (A1) (A1) (A1) (A1) (A1) (B1) (A1) (A1)
                 (B1) (B1) (B2) (A1)
       Virtual   (B2) (A1) (A2) (B1) (B2) (B2) (A1) (B1) (A1) (A1)
                 (B2) (B1) (A1) (A1) (A2) (B2) (B1) (A1) (B1) (A1)
                 (B2) (B1) (B1) (A1) (B2) (A1) (B1) (A1) (A1) (B1)
                 (A1) (B1) (A1) (B1) (A2) (B2) (A1) (A1) (B1) (B1)
                 (A1) (A2) (A2) (A1) (B2) (A1) (B2) (A1) (B1) (A1)
                 (B2) (B1) (B2) (A1) (A2) (B2) (A1) (B1) (A1) (B1)
                 (A1) (A2) (B2) (A1) (B1) (B1) (B2) (A2) (A1) (A1)
                 (B2) (B1) (A1) (B1) (B1) (A1) (A1) (B1) (B2) (B1)
                 (A2) (A1) (B1) (A1) (A2) (A1) (B2) (A1) (A1) (A2)
                 (B1) (B2) (A1) (A2) (B2) (A1) (B1) (B1) (A1) (A1)
                 (B1) (A2) (B2) (A1) (A1) (A2) (B1) (B2) (A1) (A1)
                 (B1) (B1) (B2) (A1) (B1) (B2) (A2) (B2) (B1) (A2)
                 (A1) (B2) (B2) (B1) (A1) (B1) (B2) (B1) (B2) (A1)
                 (A2) (B2) (A1) (B1) (A2) (A1) (B2) (B1) (A2) (B1)
                 (A1) (A1) (B1) (A1) (B1) (A1) (A1) (B1) (B2) (A1)
                 (A1) (B1) (B2) (B1) (A1) (B2) (A2) (B2) (A1) (A2)
                 (A2) (B1) (A1) (B1) (A1) (B2) (B1) (A1) (B1) (B1)
                 (A1) (A2) (A2) (B2) (A1) (A2) (B2) (A1) (A1) (B2)
                 (B1) (A1) (B1) (A2) (B2) (A1) (A2) (A1) (B1) (B2)
                 (A1) (A1) (B1) (B1) (A1) (B1) (A1) (A1) (B1) (A1)
                 (A1)
 The electronic state of the initial guess is 3-B2.
 Initial guess <Sx>= 0.0000 <Sy>= 0.0000 <Sz>= 1.0000 <S**2>= 2.0000 S= 1.0000
 Leave Link  401 at Thu Jan 31 04:55:46 2019, MaxMem=    33554432 cpu:         3.6
 (Enter /home/proyectos/fulerenos/M3C-v2.0/M3C-deps_CCC/g09-AM64L-G09RevC.01/l502.exe)
 UHF open shell SCF:
 Using DIIS extrapolation, IDIIS=  1040.
 Integral symmetry usage will be decided dynamically.
 IVT=      202249 IEndB=      202249 NGot=    33554432 MDV=    33429094
 LenX=    33429094 LenY=    33368628
 Requested convergence on RMS density matrix=1.00D-08 within 128 cycles.
 Requested convergence on MAX density matrix=1.00D-06.
 Requested convergence on             energy=1.00D-06.
 No special actions if energy rises.
 Fock matrices will be formed incrementally for  20 cycles.

 Cycle   1  Pass 1  IDiag  1:
 FoFJK:  IHMeth= 1 ICntrl=       0 DoSepK=F KAlg= 0 I1Cent=   0 FoldK=F
 IRaf= 990000000 NMat=   1 IRICut=       1 DoRegI=T DoRafI=F ISym2E= 1.
 FoFCou: FMM=F IPFlag=           0 FMFlag=      100000 FMFlg1=           0
         NFxFlg=           0 DoJE=F BraDBF=F KetDBF=F FulRan=T
         wScrn=  0.000000 ICntrl=       0 IOpCl=  1 I1Cent=           0 NGrid=           0
         NMat0=    1 NMatS0=      1 NMatT0=    0 NMatD0=    1 NMtDS0=    0 NMtDT0=    0
 Petite list used in FoFCou.
 E= -190.479780513934    
 DIIS: error= 2.04D-02 at cycle   1 NSaved=   1.
 NSaved= 1 IEnMin= 1 EnMin= -190.479780513934     IErMin= 1 ErrMin= 2.04D-02
 ErrMax= 2.04D-02  0.00D+00 EMaxC= 1.00D-01 BMatC= 1.47D-01 BMatP= 1.47D-01
 IDIUse=3 WtCom= 7.96D-01 WtEn= 2.04D-01
 Coeff-Com:  0.100D+01
 Coeff-En:   0.100D+01
 Coeff:      0.100D+01
 Gap=     0.065 Goal=   None    Shift=    0.000
 Gap=     0.124 Goal=   None    Shift=    0.000
 GapD=    0.065 DampG=0.500 DampE=0.500 DampFc=0.2500 IDamp=-1.
 Damping current iteration by 2.50D-01
 RMSDP=5.86D-03 MaxDP=3.73D-01              OVMax= 2.39D-01

 Cycle   2  Pass 1  IDiag  1:
 RMSU=  1.45D-03    CP:  1.01D+00
 E= -190.494320540490     Delta-E=       -0.014540026556 Rises=F Damp=T
 DIIS: error= 9.50D-03 at cycle   2 NSaved=   2.
 NSaved= 2 IEnMin= 2 EnMin= -190.494320540490     IErMin= 2 ErrMin= 9.50D-03
 ErrMax= 9.50D-03  0.00D+00 EMaxC= 1.00D-01 BMatC= 6.32D-02 BMatP= 1.47D-01
 IDIUse=3 WtCom= 9.05D-01 WtEn= 9.50D-02
 Coeff-Com: -0.987D+00 0.199D+01
 Coeff-En:   0.000D+00 0.100D+01
 Coeff:     -0.893D+00 0.189D+01
 Gap=     0.120 Goal=   None    Shift=    0.000
 Gap=     0.102 Goal=   None    Shift=    0.000
 RMSDP=5.02D-03 MaxDP=4.02D-01 DE=-1.45D-02 OVMax= 2.14D-01

 Cycle   3  Pass 1  IDiag  1:
 RMSU=  2.90D-03    CP:  1.04D+00  3.00D+00
 E= -190.518932178231     Delta-E=       -0.024611637740 Rises=F Damp=F
 DIIS: error= 1.35D-02 at cycle   3 NSaved=   3.
 NSaved= 3 IEnMin= 3 EnMin= -190.518932178231     IErMin= 2 ErrMin= 9.50D-03
 ErrMax= 1.35D-02  0.00D+00 EMaxC= 1.00D-01 BMatC= 3.72D-02 BMatP= 6.32D-02
 IDIUse=3 WtCom= 8.65D-01 WtEn= 1.35D-01
 Coeff-Com: -0.883D+00 0.129D+01 0.596D+00
 Coeff-En:   0.000D+00 0.000D+00 0.100D+01
 Coeff:     -0.764D+00 0.111D+01 0.650D+00
 Gap=     0.136 Goal=   None    Shift=    0.000
 Gap=     0.121 Goal=   None    Shift=    0.000
 RMSDP=1.43D-03 MaxDP=7.88D-02 DE=-2.46D-02 OVMax= 1.04D-01

 Cycle   4  Pass 1  IDiag  1:
 RMSU=  1.16D-03    CP:  1.05D+00  3.00D+00  7.17D-01
 E= -190.530042496159     Delta-E=       -0.011110317928 Rises=F Damp=F
 DIIS: error= 5.28D-03 at cycle   4 NSaved=   4.
 NSaved= 4 IEnMin= 4 EnMin= -190.530042496159     IErMin= 4 ErrMin= 5.28D-03
 ErrMax= 5.28D-03  0.00D+00 EMaxC= 1.00D-01 BMatC= 6.09D-03 BMatP= 3.72D-02
 IDIUse=3 WtCom= 9.47D-01 WtEn= 5.28D-02
 Coeff-Com: -0.107D+00 0.124D+00 0.321D+00 0.662D+00
 Coeff-En:   0.000D+00 0.000D+00 0.139D+00 0.861D+00
 Coeff:     -0.101D+00 0.117D+00 0.311D+00 0.672D+00
 Gap=     0.129 Goal=   None    Shift=    0.000
 Gap=     0.119 Goal=   None    Shift=    0.000
 RMSDP=4.90D-04 MaxDP=3.94D-02 DE=-1.11D-02 OVMax= 2.83D-02

 Cycle   5  Pass 1  IDiag  1:
 RMSU=  3.04D-04    CP:  1.04D+00  3.00D+00  8.44D-01  9.93D-01
 E= -190.531973078821     Delta-E=       -0.001930582662 Rises=F Damp=F
 DIIS: error= 6.23D-04 at cycle   5 NSaved=   5.
 NSaved= 5 IEnMin= 5 EnMin= -190.531973078821     IErMin= 5 ErrMin= 6.23D-04
 ErrMax= 6.23D-04  0.00D+00 EMaxC= 1.00D-01 BMatC= 1.49D-04 BMatP= 6.09D-03
 IDIUse=3 WtCom= 9.94D-01 WtEn= 6.23D-03
 Coeff-Com:  0.136D-01-0.282D-01 0.623D-01 0.204D+00 0.748D+00
 Coeff-En:   0.000D+00 0.000D+00 0.000D+00 0.000D+00 0.100D+01
 Coeff:      0.135D-01-0.281D-01 0.619D-01 0.203D+00 0.749D+00
 Gap=     0.126 Goal=   None    Shift=    0.000
 Gap=     0.119 Goal=   None    Shift=    0.000
 RMSDP=1.31D-04 MaxDP=5.58D-03 DE=-1.93D-03 OVMax= 6.90D-03

 Cycle   6  Pass 1  IDiag  1:
 RMSU=  1.17D-04    CP:  1.04D+00  3.00D+00  8.57D-01  1.03D+00  1.06D+00
 E= -190.532024814681     Delta-E=       -0.000051735860 Rises=F Damp=F
 DIIS: error= 5.75D-04 at cycle   6 NSaved=   6.
 NSaved= 6 IEnMin= 6 EnMin= -190.532024814681     IErMin= 6 ErrMin= 5.75D-04
 ErrMax= 5.75D-04  0.00D+00 EMaxC= 1.00D-01 BMatC= 9.99D-05 BMatP= 1.49D-04
 IDIUse=3 WtCom= 9.94D-01 WtEn= 5.75D-03
 Coeff-Com:  0.366D-01-0.533D-01-0.506D-01-0.543D-01 0.496D+00 0.625D+00
 Coeff-En:   0.000D+00 0.000D+00 0.000D+00 0.000D+00 0.000D+00 0.100D+01
 Coeff:      0.364D-01-0.530D-01-0.503D-01-0.539D-01 0.493D+00 0.628D+00
 Gap=     0.127 Goal=   None    Shift=    0.000
 Gap=     0.120 Goal=   None    Shift=    0.000
 RMSDP=7.14D-05 MaxDP=3.51D-03 DE=-5.17D-05 OVMax= 4.45D-03

 Cycle   7  Pass 1  IDiag  1:
 RMSU=  3.38D-05    CP:  1.04D+00  3.00D+00  8.61D-01  1.06D+00  1.21D+00
                    CP:  1.04D+00
 E= -190.532058974060     Delta-E=       -0.000034159379 Rises=F Damp=F
 DIIS: error= 1.62D-04 at cycle   7 NSaved=   7.
 NSaved= 7 IEnMin= 7 EnMin= -190.532058974060     IErMin= 7 ErrMin= 1.62D-04
 ErrMax= 1.62D-04  0.00D+00 EMaxC= 1.00D-01 BMatC= 5.63D-06 BMatP= 9.99D-05
 IDIUse=3 WtCom= 9.98D-01 WtEn= 1.62D-03
 Coeff-Com: -0.374D-02 0.600D-02-0.164D-01-0.255D-01 0.609D-02 0.697D-01
 Coeff-Com:  0.964D+00
 Coeff-En:   0.000D+00 0.000D+00 0.000D+00 0.000D+00 0.000D+00 0.000D+00
 Coeff-En:   0.100D+01
 Coeff:     -0.373D-02 0.599D-02-0.164D-01-0.254D-01 0.608D-02 0.696D-01
 Coeff:      0.964D+00
 Gap=     0.128 Goal=   None    Shift=    0.000
 Gap=     0.121 Goal=   None    Shift=    0.000
 RMSDP=2.46D-05 MaxDP=1.56D-03 DE=-3.42D-05 OVMax= 1.91D-03

 Cycle   8  Pass 1  IDiag  1:
 RMSU=  1.32D-05    CP:  1.04D+00  3.00D+00  8.57D-01  1.07D+00  1.23D+00
                    CP:  1.14D+00  1.13D+00
 E= -190.532062482935     Delta-E=       -0.000003508875 Rises=F Damp=F
 DIIS: error= 4.02D-05 at cycle   8 NSaved=   8.
 NSaved= 8 IEnMin= 8 EnMin= -190.532062482935     IErMin= 8 ErrMin= 4.02D-05
 ErrMax= 4.02D-05  0.00D+00 EMaxC= 1.00D-01 BMatC= 1.02D-06 BMatP= 5.63D-06
 IDIUse=1 WtCom= 1.00D+00 WtEn= 0.00D+00
 Coeff-Com: -0.689D-02 0.986D-02 0.316D-02 0.451D-02-0.530D-01-0.892D-01
 Coeff-Com:  0.201D+00 0.931D+00
 Coeff:     -0.689D-02 0.986D-02 0.316D-02 0.451D-02-0.530D-01-0.892D-01
 Coeff:      0.201D+00 0.931D+00
 Gap=     0.128 Goal=   None    Shift=    0.000
 Gap=     0.121 Goal=   None    Shift=    0.000
 RMSDP=9.56D-06 MaxDP=5.36D-04 DE=-3.51D-06 OVMax= 5.37D-04

 Cycle   9  Pass 1  IDiag  1:
 RMSU=  5.12D-06    CP:  1.04D+00  3.00D+00  8.56D-01  1.07D+00  1.23D+00
                    CP:  1.14D+00  1.25D+00  1.17D+00
 E= -190.532062948108     Delta-E=       -0.000000465173 Rises=F Damp=F
 DIIS: error= 2.13D-05 at cycle   9 NSaved=   9.
 NSaved= 9 IEnMin= 9 EnMin= -190.532062948108     IErMin= 9 ErrMin= 2.13D-05
 ErrMax= 2.13D-05  0.00D+00 EMaxC= 1.00D-01 BMatC= 2.45D-07 BMatP= 1.02D-06
 IDIUse=1 WtCom= 1.00D+00 WtEn= 0.00D+00
 Coeff-Com: -0.197D-02 0.276D-02 0.324D-02 0.522D-02-0.224D-01-0.566D-01
 Coeff-Com: -0.742D-01 0.453D+00 0.691D+00
 Coeff:     -0.197D-02 0.276D-02 0.324D-02 0.522D-02-0.224D-01-0.566D-01
 Coeff:     -0.742D-01 0.453D+00 0.691D+00
 Gap=     0.128 Goal=   None    Shift=    0.000
 Gap=     0.121 Goal=   None    Shift=    0.000
 RMSDP=3.37D-06 MaxDP=1.57D-04 DE=-4.65D-07 OVMax= 3.35D-04

 Cycle  10  Pass 1  IDiag  1:
 RMSU=  1.77D-06    CP:  1.04D+00  3.00D+00  8.56D-01  1.08D+00  1.24D+00
                    CP:  1.15D+00  1.27D+00  1.27D+00  1.03D+00
 E= -190.532063048274     Delta-E=       -0.000000100167 Rises=F Damp=F
 DIIS: error= 5.46D-06 at cycle  10 NSaved=  10.
 NSaved=10 IEnMin=10 EnMin= -190.532063048274     IErMin=10 ErrMin= 5.46D-06
 ErrMax= 5.46D-06  0.00D+00 EMaxC= 1.00D-01 BMatC= 1.39D-08 BMatP= 2.45D-07
 IDIUse=1 WtCom= 1.00D+00 WtEn= 0.00D+00
 Coeff-Com:  0.204D-03-0.324D-03 0.114D-03 0.343D-04 0.361D-02 0.169D-02
 Coeff-Com: -0.270D-01-0.703D-01 0.125D+00 0.967D+00
 Coeff:      0.204D-03-0.324D-03 0.114D-03 0.343D-04 0.361D-02 0.169D-02
 Coeff:     -0.270D-01-0.703D-01 0.125D+00 0.967D+00
 Gap=     0.128 Goal=   None    Shift=    0.000
 Gap=     0.121 Goal=   None    Shift=    0.000
 RMSDP=9.97D-07 MaxDP=5.03D-05 DE=-1.00D-07 OVMax= 8.53D-05

 Cycle  11  Pass 1  IDiag  1:
 RMSU=  4.98D-07    CP:  1.04D+00  3.00D+00  8.56D-01  1.08D+00  1.24D+00
                    CP:  1.15D+00  1.27D+00  1.28D+00  1.12D+00  9.90D-01
 E= -190.532063054238     Delta-E=       -0.000000005963 Rises=F Damp=F
 DIIS: error= 1.92D-06 at cycle  11 NSaved=  11.
 NSaved=11 IEnMin=11 EnMin= -190.532063054238     IErMin=11 ErrMin= 1.92D-06
 ErrMax= 1.92D-06  0.00D+00 EMaxC= 1.00D-01 BMatC= 7.73D-10 BMatP= 1.39D-08
 IDIUse=1 WtCom= 1.00D+00 WtEn= 0.00D+00
 Coeff-Com: -0.162D-04 0.206D-04-0.190D-03-0.310D-03 0.182D-02 0.256D-02
 Coeff-Com:  0.371D-02-0.283D-01-0.241D-01-0.436D-01 0.109D+01
 Coeff:     -0.162D-04 0.206D-04-0.190D-03-0.310D-03 0.182D-02 0.256D-02
 Coeff:      0.371D-02-0.283D-01-0.241D-01-0.436D-01 0.109D+01
 Gap=     0.128 Goal=   None    Shift=    0.000
 Gap=     0.121 Goal=   None    Shift=    0.000
 RMSDP=2.89D-07 MaxDP=1.72D-05 DE=-5.96D-09 OVMax= 1.97D-05

 Cycle  12  Pass 1  IDiag  1:
 RMSU=  1.36D-07    CP:  1.04D+00  3.00D+00  8.56D-01  1.08D+00  1.24D+00
                    CP:  1.15D+00  1.27D+00  1.29D+00  1.14D+00  1.02D+00
                    CP:  1.18D+00
 E= -190.532063054599     Delta-E=       -0.000000000361 Rises=F Damp=F
 DIIS: error= 2.45D-07 at cycle  12 NSaved=  12.
 NSaved=12 IEnMin=12 EnMin= -190.532063054599     IErMin=12 ErrMin= 2.45D-07
 ErrMax= 2.45D-07  0.00D+00 EMaxC= 1.00D-01 BMatC= 2.16D-11 BMatP= 7.73D-10
 IDIUse=1 WtCom= 1.00D+00 WtEn= 0.00D+00
 Coeff-Com: -0.209D-05 0.374D-05-0.829D-05 0.422D-06-0.136D-03-0.416D-03
 Coeff-Com:  0.740D-03 0.384D-02-0.191D-02-0.379D-01-0.563D-01 0.109D+01
 Coeff:     -0.209D-05 0.374D-05-0.829D-05 0.422D-06-0.136D-03-0.416D-03
 Coeff:      0.740D-03 0.384D-02-0.191D-02-0.379D-01-0.563D-01 0.109D+01
 Gap=     0.128 Goal=   None    Shift=    0.000
 Gap=     0.121 Goal=   None    Shift=    0.000
 RMSDP=5.37D-08 MaxDP=2.74D-06 DE=-3.61D-10 OVMax= 3.79D-06

 Cycle  13  Pass 1  IDiag  1:
 RMSU=  2.19D-08    CP:  1.04D+00  3.00D+00  8.56D-01  1.08D+00  1.24D+00
                    CP:  1.15D+00  1.27D+00  1.28D+00  1.13D+00  1.03D+00
                    CP:  1.22D+00  1.22D+00
 E= -190.532063054615     Delta-E=       -0.000000000016 Rises=F Damp=F
 DIIS: error= 6.97D-08 at cycle  13 NSaved=  13.
 NSaved=13 IEnMin=13 EnMin= -190.532063054615     IErMin=13 ErrMin= 6.97D-08
 ErrMax= 6.97D-08  0.00D+00 EMaxC= 1.00D-01 BMatC= 9.09D-13 BMatP= 2.16D-11
 IDIUse=1 WtCom= 1.00D+00 WtEn= 0.00D+00
 Coeff-Com:  0.290D-05-0.359D-05 0.674D-05 0.751D-05-0.781D-04-0.921D-04
 Coeff-Com: -0.104D-03 0.935D-03 0.140D-02 0.238D-02-0.444D-01-0.131D-01
 Coeff-Com:  0.105D+01
 Coeff:      0.290D-05-0.359D-05 0.674D-05 0.751D-05-0.781D-04-0.921D-04
 Coeff:     -0.104D-03 0.935D-03 0.140D-02 0.238D-02-0.444D-01-0.131D-01
 Coeff:      0.105D+01
 Gap=     0.128 Goal=   None    Shift=    0.000
 Gap=     0.121 Goal=   None    Shift=    0.000
 RMSDP=9.49D-09 MaxDP=4.79D-07 DE=-1.59D-11 OVMax= 8.12D-07

 SCF Done:  E(UB3LYP) =  -190.532063055     A.U. after   13 cycles
            NFock= 13  Conv=0.95D-08     -V/T= 2.0041
 <Sx>= 0.0000 <Sy>= 0.0000 <Sz>= 1.0000 <S**2>= 2.0135 S= 1.0045
 <L.S>= 0.000000000000E+00
 KE= 1.897506967075D+02 PE=-6.656694377679D+02 EE= 1.657697593714D+02
 Annihilation of the first spin contaminant:
 S**2 before annihilation     2.0135,   after     2.0001
 Leave Link  502 at Thu Jan 31 04:57:06 2019, MaxMem=    33554432 cpu:       313.9
 (Enter /home/proyectos/fulerenos/M3C-v2.0/M3C-deps_CCC/g09-AM64L-G09RevC.01/l801.exe)
 DoSCS=F DFT=T ScalE2(SS,OS)=  1.000000  1.000000
 Range of M.O.s used for correlation:     1   215
 NBasis=   215 NAE=    16 NBE=    14 NFC=     0 NFV=     0
 NROrb=    215 NOA=    16 NOB=    14 NVA=   199 NVB=   201

 **** Warning!!: The largest alpha MO coefficient is  0.11247780D+03


 **** Warning!!: The largest beta MO coefficient is  0.11326625D+03

 Leave Link  801 at Thu Jan 31 04:57:06 2019, MaxMem=    33554432 cpu:         0.1
 (Enter /home/proyectos/fulerenos/M3C-v2.0/M3C-deps_CCC/g09-AM64L-G09RevC.01/l1101.exe)
 Using compressed storage, NAtomX=     7.
 Will process      8 centers per pass.
 Leave Link 1101 at Thu Jan 31 04:57:06 2019, MaxMem=    33554432 cpu:         2.1
 (Enter /home/proyectos/fulerenos/M3C-v2.0/M3C-deps_CCC/g09-AM64L-G09RevC.01/l1102.exe)
 Symmetrizing basis deriv contribution to polar:
 IMax=3 JMax=2 DiffMx= 0.00D+00
 Leave Link 1102 at Thu Jan 31 04:57:06 2019, MaxMem=    33554432 cpu:         0.2
 (Enter /home/proyectos/fulerenos/M3C-v2.0/M3C-deps_CCC/g09-AM64L-G09RevC.01/l1110.exe)
 Forming Gx(P) for the SCF density, NAtomX=     7.
 Integral derivatives from FoFJK, PRISM(SPDF).
 Do as many integral derivatives as possible in FoFJK.
 G2DrvN: MDV=      33554272.
 G2DrvN: will do     8 centers at a time, making    1 passes.
 Calling FoFCou, ICntrl=  3107 FMM=F I1Cent=   0 AccDes= 0.00D+00.
 FoFJK:  IHMeth= 1 ICntrl=    3107 DoSepK=F KAlg= 0 I1Cent=   0 FoldK=F
 IRaf=         0 NMat=   1 IRICut=       1 DoRegI=T DoRafI=F ISym2E= 1.
 FoFCou: FMM=F IPFlag=           0 FMFlag=      100000 FMFlg1=           0
         NFxFlg=           0 DoJE=F BraDBF=F KetDBF=F FulRan=T
         wScrn=  0.000000 ICntrl=    3107 IOpCl=  1 I1Cent=           0 NGrid=           0
         NMat0=    1 NMatS0=      1 NMatT0=    0 NMatD0=    1 NMtDS0=    0 NMtDT0=    0
 Petite list used in FoFCou.
 End of G2Drv F.D. properties file   721 does not exist.
 End of G2Drv F.D. properties file   722 does not exist.
 End of G2Drv F.D. properties file   788 does not exist.
 Leave Link 1110 at Thu Jan 31 04:57:54 2019, MaxMem=    33554432 cpu:       185.7
 (Enter /home/proyectos/fulerenos/M3C-v2.0/M3C-deps_CCC/g09-AM64L-G09RevC.01/l1002.exe)
 Minotr:  UHF open shell wavefunction.
          IDoAtm=1111111
          Direct CPHF calculation.
          Differentiating once with respect to electric field.
                with respect to dipole field.
          Differentiating once with respect to nuclear coordinates.
          Using symmetry in CPHF.
          Requested convergence is 1.0D-08 RMS, and 1.0D-07 maximum.
          Secondary convergence is 1.0D-12 RMS, and 1.0D-12 maximum.
          NewPWx=T KeepS1=F KeepF1=F KeepIn=T MapXYZ=F SortEE=F KeepMc=T.
          MDV=      33553928 using IRadAn=       2.
 Generate precomputed XC quadrature information.
          Solving linear equations simultaneously, MaxMat=       0.
 FoFJK:  IHMeth= 1 ICntrl=       0 DoSepK=F KAlg= 0 I1Cent=   0 FoldK=F
 IRaf= 990000000 NMat=  18 IRICut=      45 DoRegI=T DoRafI=T ISym2E= 2.
 FoFCou: FMM=F IPFlag=           0 FMFlag=      100000 FMFlg1=           0
         NFxFlg=           0 DoJE=F BraDBF=F KetDBF=F FulRan=T
         wScrn=  0.000000 ICntrl=       0 IOpCl=  1 I1Cent=           0 NGrid=           0
         NMat0=   18 NMatS0=     18 NMatT0=    0 NMatD0=   18 NMtDS0=    0 NMtDT0=    0
 Integrals replicated using symmetry in FoFCou.
          There are    18 degrees of freedom in the 1st order CPHF.  IDoFFX=4 NUNeed=    18.
     18 vectors produced by pass  0 Test12= 3.33D-14 5.56D-09 XBig12= 2.23D+02 9.96D+00.
 AX will form    18 AO Fock derivatives at one time.
     18 vectors produced by pass  1 Test12= 3.33D-14 5.56D-09 XBig12= 4.80D+01 1.59D+00.
     18 vectors produced by pass  2 Test12= 3.33D-14 5.56D-09 XBig12= 1.53D+00 3.60D-01.
     18 vectors produced by pass  3 Test12= 3.33D-14 5.56D-09 XBig12= 2.84D-02 4.18D-02.
     18 vectors produced by pass  4 Test12= 3.33D-14 5.56D-09 XBig12= 4.35D-04 5.59D-03.
     18 vectors produced by pass  5 Test12= 3.33D-14 5.56D-09 XBig12= 3.58D-06 4.24D-04.
     18 vectors produced by pass  6 Test12= 3.33D-14 5.56D-09 XBig12= 2.82D-08 3.07D-05.
     15 vectors produced by pass  7 Test12= 3.33D-14 5.56D-09 XBig12= 1.33D-10 3.53D-06.
      4 vectors produced by pass  8 Test12= 3.33D-14 5.56D-09 XBig12= 1.27D-12 2.82D-07.
      3 vectors produced by pass  9 Test12= 3.33D-14 5.56D-09 XBig12= 1.70D-13 8.48D-08.
      2 vectors produced by pass 10 Test12= 3.33D-14 5.56D-09 XBig12= 3.17D-15 1.42D-08.
 InvSVY:  IOpt=1 It=  1 EMax= 7.11D-15
 Solved reduced A of dimension   150 with    18 vectors.
 FullF1:  Do perturbations    1 to    18.
 Isotropic polarizability for W=    0.000000       42.80 Bohr**3.
 End of Minotr F.D. properties file   721 does not exist.
 End of Minotr F.D. properties file   722 does not exist.
 End of Minotr F.D. properties file   788 does not exist.
 Leave Link 1002 at Thu Jan 31 05:02:40 2019, MaxMem=    33554432 cpu:      1060.0
 (Enter /home/proyectos/fulerenos/M3C-v2.0/M3C-deps_CCC/g09-AM64L-G09RevC.01/l601.exe)
 Copying SCF densities to generalized density rwf, IOpCl= 1 IROHF=0.

 **********************************************************************

            Population analysis using the SCF density.

 **********************************************************************

 Orbital symmetries:
 Alpha Orbitals:
       Occupied  (A1) (B1) (A1) (A1) (A1) (A1) (A1) (B1) (A1) (A1)
                 (B1) (B2) (B1) (A1) (B2) (A1)
       Virtual   (A2) (B1) (B2) (B2) (A1) (A1) (A1) (B1) (B1) (B2)
                 (A1) (B1) (A2) (A1) (B1) (B2) (A1) (B1) (A1) (A1)
                 (B1) (B2) (A1) (B2) (A2) (B1) (A1) (A1) (B1) (A1)
                 (B1) (B2) (A1) (B1) (A1) (A2) (A1) (B1) (A2) (B1)
                 (A1) (A1) (B2) (A1) (B2) (A1) (B2) (B1) (B2) (A2)
                 (B1) (A1) (A1) (B2) (A1) (A1) (B1) (B1) (A2) (B2)
                 (A1) (B1) (A1) (B2) (A2) (B1) (A1) (B2) (A1) (B1)
                 (A1) (B1) (B1) (A1) (A1) (B1) (B2) (B1) (A1) (A2)
                 (B1) (A1) (A2) (A1) (B2) (A1) (A2) (A1) (B1) (B2)
                 (A2) (A1) (B2) (A1) (B1) (A1) (B1) (A1) (B1) (A2)
                 (B2) (A1) (A2) (A1) (B1) (B2) (A1) (A1) (B1) (B2)
                 (B1) (A1) (B1) (B2) (A2) (B2) (B1) (B2) (A2) (A1)
                 (B2) (B1) (A1) (B1) (B2) (B1) (B2) (A1) (A2) (B2)
                 (B1) (A1) (A2) (B2) (A1) (B1) (A2) (B1) (A1) (B1)
                 (A1) (A1) (A1) (B1) (A1) (B1) (B2) (A1) (A1) (B2)
                 (B1) (B2) (A2) (A1) (B1) (B2) (A1) (A2) (A2) (B1)
                 (A1) (B1) (A1) (B2) (B1) (A1) (B1) (B1) (A1) (A2)
                 (A2) (A1) (B2) (A2) (B2) (A1) (A1) (B2) (B1) (A1)
                 (B1) (A2) (B2) (A1) (A2) (A1) (B1) (B2) (A1) (A1)
                 (B1) (B1) (A1) (B1) (A1) (A1) (B1) (A1) (A1)
 Beta  Orbitals:
       Occupied  (A1) (B1) (A1) (A1) (A1) (A1) (A1) (B1) (A1) (A1)
                 (B1) (B1) (B2) (A1)
       Virtual   (B2) (A2) (B1) (A1) (B2) (B2) (A1) (A1) (A1) (B1)
                 (B1) (B2) (A1) (B1) (A2) (B1) (A1) (B2) (A1) (A1)
                 (B1) (B1) (A1) (B2) (A1) (B2) (B1) (A2) (A1) (A1)
                 (B1) (A1) (B1) (B2) (A1) (B1) (A1) (A2) (A1) (B1)
                 (A2) (B1) (A1) (B2) (A1) (B2) (A1) (A1) (B1) (A2)
                 (B2) (B2) (B1) (A1) (B2) (A1) (A1) (A1) (B1) (B1)
                 (A2) (B2) (A1) (B1) (A1) (B2) (A2) (B1) (A1) (B2)
                 (A1) (B1) (A1) (B1) (B1) (A1) (A1) (B1) (B2) (B1)
                 (A2) (A1) (B1) (A1) (A2) (A1) (B2) (A2) (A1) (A1)
                 (B1) (B2) (A2) (A1) (B2) (A1) (B1) (A1) (B1) (A1)
                 (B1) (A2) (B2) (A1) (A2) (A1) (B1) (B2) (A1) (A1)
                 (B1) (B2) (B1) (A1) (B1) (B2) (A2) (B1) (B2) (A2)
                 (B2) (A1) (B2) (B1) (A1) (B1) (B2) (B1) (B2) (A1)
                 (A2) (B2) (B1) (A1) (A2) (A1) (B2) (B1) (A2) (B1)
                 (A1) (B1) (A1) (A1) (A1) (B1) (A1) (B1) (B2) (A1)
                 (A1) (B2) (B1) (B2) (B1) (A2) (A1) (B2) (A2) (A1)
                 (A2) (B1) (A1) (B1) (A1) (B2) (B1) (A1) (B1) (B1)
                 (A1) (A2) (A2) (A1) (B2) (A2) (B2) (A1) (A1) (B2)
                 (B1) (A1) (B1) (A2) (B2) (A1) (A2) (A1) (B1) (B2)
                 (A1) (A1) (B1) (B1) (A1) (B1) (A1) (A1) (B1) (A1)
                 (A1)
 The electronic state is 3-B2.
 Alpha  occ. eigenvalues --  -10.81683 -10.79679 -10.79678 -10.78450 -10.76749
 Alpha  occ. eigenvalues --   -1.46626  -1.27362  -1.19434  -1.08400  -1.04282
 Alpha  occ. eigenvalues --   -0.96852  -0.92945  -0.91758  -0.83228  -0.78291
 Alpha  occ. eigenvalues --   -0.77408
 Alpha virt. eigenvalues --   -0.64611  -0.62189  -0.57402  -0.42844  -0.35436
 Alpha virt. eigenvalues --   -0.33494  -0.32587  -0.30775  -0.27324  -0.27134
 Alpha virt. eigenvalues --   -0.25379  -0.23821  -0.21599  -0.21510  -0.21312
 Alpha virt. eigenvalues --   -0.20518  -0.18045  -0.17310  -0.16792  -0.15515
 Alpha virt. eigenvalues --   -0.14935  -0.14213  -0.13647  -0.13506  -0.12784
 Alpha virt. eigenvalues --   -0.12310  -0.12120  -0.08450  -0.08382  -0.06997
 Alpha virt. eigenvalues --   -0.05889  -0.05135  -0.03684  -0.01949   0.00393
 Alpha virt. eigenvalues --    0.02023   0.02638   0.03931   0.05518   0.07079
 Alpha virt. eigenvalues --    0.07671   0.08752   0.08792   0.09771   0.09799
 Alpha virt. eigenvalues --    0.13730   0.14654   0.15301   0.15661   0.15672
 Alpha virt. eigenvalues --    0.17006   0.17527   0.17590   0.17789   0.24224
 Alpha virt. eigenvalues --    0.24760   0.26619   0.28047   0.29737   0.30037
 Alpha virt. eigenvalues --    0.32222   0.33045   0.34107   0.35167   0.35929
 Alpha virt. eigenvalues --    0.36927   0.43410   0.48271   0.48740   0.50406
 Alpha virt. eigenvalues --    0.57982   0.61432   0.63083   0.66690   0.69016
 Alpha virt. eigenvalues --    0.70191   0.70902   0.75383   0.75982   0.77122
 Alpha virt. eigenvalues --    0.77240   0.82868   0.83124   0.86476   0.90583
 Alpha virt. eigenvalues --    0.95620   0.95721   0.97964   1.06440   1.08144
 Alpha virt. eigenvalues --    1.10797   1.14339   1.15552   1.19851   1.22435
 Alpha virt. eigenvalues --    1.24684   1.25751   1.27395   1.36312   1.40091
 Alpha virt. eigenvalues --    1.41059   1.47158   1.54344   1.57315   1.63770
 Alpha virt. eigenvalues --    1.65410   1.69949   1.73124   1.88291   1.89754
 Alpha virt. eigenvalues --    1.91213   2.09608   2.09769   2.12754   2.15376
 Alpha virt. eigenvalues --    2.17500   2.20156   2.26338   2.28153   2.28919
 Alpha virt. eigenvalues --    2.29605   2.31851   2.37042   2.37328   2.39626
 Alpha virt. eigenvalues --    2.42938   2.43693   2.44837   2.46457   2.52406
 Alpha virt. eigenvalues --    2.58372   2.58579   2.60913   2.63222   2.64588
 Alpha virt. eigenvalues --    2.72058   2.76495   2.79235   2.81076   2.88622
 Alpha virt. eigenvalues --    2.88927   2.98061   3.03730   3.03817   3.15222
 Alpha virt. eigenvalues --    3.18039   3.20157   3.22684   3.37235   3.43560
 Alpha virt. eigenvalues --    3.45976   3.62609   3.63456   3.63925   3.64147
 Alpha virt. eigenvalues --    3.81510   3.87632   3.87692   3.94801   3.99032
 Alpha virt. eigenvalues --    4.22435   4.23205   4.32763   4.34167   4.39004
 Alpha virt. eigenvalues --    4.68501   5.39633   5.46105   5.69630   6.37643
 Alpha virt. eigenvalues --    6.43561   6.44162   6.46685   6.53192   6.56785
 Alpha virt. eigenvalues --    6.59951   6.61523   6.67083   6.70719   6.71531
 Alpha virt. eigenvalues --    6.81846   6.84198   6.92933   6.98011   7.01707
 Alpha virt. eigenvalues --    7.07223   7.16931   7.17340   7.38354   7.45050
 Alpha virt. eigenvalues --    7.47687   7.58480   8.15130   8.74401  23.27642
 Alpha virt. eigenvalues --   23.73914  24.36988  24.43558  24.58119
  Beta  occ. eigenvalues --  -10.80907 -10.79599 -10.79596 -10.76208 -10.76156
  Beta  occ. eigenvalues --   -1.44903  -1.23966  -1.18927  -1.04505  -1.03994
  Beta  occ. eigenvalues --   -0.95553  -0.91230  -0.89768  -0.78912
  Beta virt. eigenvalues --   -0.66841  -0.64527  -0.61285  -0.60363  -0.50750
  Beta virt. eigenvalues --   -0.39298  -0.34404  -0.32875  -0.32446  -0.30163
  Beta virt. eigenvalues --   -0.27081  -0.26790  -0.24430  -0.22445  -0.21561
  Beta virt. eigenvalues --   -0.21223  -0.20778  -0.19836  -0.17137  -0.16333
  Beta virt. eigenvalues --   -0.16222  -0.14872  -0.13902  -0.13743  -0.13330
  Beta virt. eigenvalues --   -0.13127  -0.12270  -0.12061  -0.11970  -0.08065
  Beta virt. eigenvalues --   -0.07781  -0.06481  -0.05702  -0.04060  -0.03291
  Beta virt. eigenvalues --   -0.01860   0.01029   0.02815   0.03195   0.04191
  Beta virt. eigenvalues --    0.05572   0.07115   0.08041   0.09643   0.09817
  Beta virt. eigenvalues --    0.10457   0.11178   0.14199   0.15658   0.16073
  Beta virt. eigenvalues --    0.16460   0.17032   0.17219   0.17873   0.19629
  Beta virt. eigenvalues --    0.19876   0.24631   0.26769   0.27086   0.28720
  Beta virt. eigenvalues --    0.29989   0.31628   0.32821   0.33362   0.34664
  Beta virt. eigenvalues --    0.35798   0.36609   0.37164   0.44116   0.48865
  Beta virt. eigenvalues --    0.49438   0.50836   0.58916   0.61741   0.63458
  Beta virt. eigenvalues --    0.68043   0.69402   0.70419   0.71431   0.75668
  Beta virt. eigenvalues --    0.77161   0.77282   0.77593   0.83573   0.84248
  Beta virt. eigenvalues --    0.87851   0.94339   0.96789   0.96979   1.00360
  Beta virt. eigenvalues --    1.06761   1.09948   1.13773   1.15280   1.16834
  Beta virt. eigenvalues --    1.21830   1.22755   1.26998   1.28154   1.30173
  Beta virt. eigenvalues --    1.36555   1.41714   1.45333   1.51479   1.56623
  Beta virt. eigenvalues --    1.59887   1.66462   1.67646   1.71669   1.74703
  Beta virt. eigenvalues --    1.89525   1.91426   1.91815   2.10813   2.10816
  Beta virt. eigenvalues --    2.14981   2.16603   2.20568   2.20875   2.29055
  Beta virt. eigenvalues --    2.29695   2.31607   2.32589   2.33916   2.38873
  Beta virt. eigenvalues --    2.39269   2.41229   2.43579   2.46439   2.47106
  Beta virt. eigenvalues --    2.48996   2.54821   2.58910   2.60143   2.61089
  Beta virt. eigenvalues --    2.67097   2.67605   2.73690   2.77971   2.80380
  Beta virt. eigenvalues --    2.84140   2.90130   2.90174   2.99571   3.04835
  Beta virt. eigenvalues --    3.05469   3.17122   3.19845   3.22368   3.24440
  Beta virt. eigenvalues --    3.38635   3.44989   3.46513   3.64949   3.65220
  Beta virt. eigenvalues --    3.65412   3.65711   3.83178   3.89499   3.89990
  Beta virt. eigenvalues --    3.95098   3.99690   4.22866   4.24280   4.33623
  Beta virt. eigenvalues --    4.35696   4.39886   4.69641   5.39972   5.47391
  Beta virt. eigenvalues --    5.70892   6.40107   6.46347   6.46938   6.51324
  Beta virt. eigenvalues --    6.54600   6.59659   6.62948   6.64804   6.69123
  Beta virt. eigenvalues --    6.71504   6.74636   6.82544   6.85965   6.96741
  Beta virt. eigenvalues --    7.00585   7.03737   7.09428   7.18188   7.19833
  Beta virt. eigenvalues --    7.39482   7.47883   7.49174   7.60772   8.16706
  Beta virt. eigenvalues --    8.75710  23.28590  23.74769  24.37155  24.44837
  Beta virt. eigenvalues --   24.59390
          Condensed to atoms (all electrons):
               1          2          3          4          5          6
     1  C    7.093205  -0.228449   0.143975  -0.228449  -1.551735   0.003678
     2  C   -0.228449   6.647080  -0.488376  -0.005977  -0.242111   0.316338
     3  C    0.143975  -0.488376   6.475487  -0.488376   0.040544  -0.048877
     4  C   -0.228449  -0.005977  -0.488376   6.647080  -0.242111   0.016845
     5  C   -1.551735  -0.242111   0.040544  -0.242111   7.855768   0.017876
     6  H    0.003678   0.316338  -0.048877   0.016845   0.017876   0.320647
     7  H    0.003678   0.016845  -0.048877   0.316338   0.017876  -0.000613
               7
     1  C    0.003678
     2  C    0.016845
     3  C   -0.048877
     4  C    0.316338
     5  C    0.017876
     6  H   -0.000613
     7  H    0.320647
          Atomic-Atomic Spin Densities.
               1          2          3          4          5          6
     1  C    0.341588   0.012904  -0.043710   0.012904  -0.008803   0.001404
     2  C    0.012904   0.058623  -0.189364   0.072084   0.073093  -0.001722
     3  C   -0.043710  -0.189364   1.668797  -0.189364  -0.025630   0.006696
     4  C    0.012904   0.072084  -0.189364   0.058623   0.073093  -0.003349
     5  C   -0.008803   0.073093  -0.025630   0.073093   0.283395   0.001515
     6  H    0.001404  -0.001722   0.006696  -0.003349   0.001515  -0.001834
     7  H    0.001404  -0.003349   0.006696  -0.001722   0.001515   0.000025
               7
     1  C    0.001404
     2  C   -0.003349
     3  C    0.006696
     4  C   -0.001722
     5  C    0.001515
     6  H    0.000025
     7  H   -0.001834
 Mulliken charges and spin densities:
               1          2
     1  C    0.764097   0.317690
     2  C   -0.015350   0.022269
     3  C    0.414498   1.234123
     4  C   -0.015350   0.022269
     5  C    0.103894   0.398179
     6  H    0.374105   0.002735
     7  H    0.374105   0.002735
 Sum of Mulliken charges =   2.00000   2.00000
 Mulliken charges and spin densities with hydrogens summed into heavy atoms:
               1          2
     1  C    0.764097   0.317690
     2  C    0.358755   0.025005
     3  C    0.414498   1.234123
     4  C    0.358755   0.025005
     5  C    0.103894   0.398179
 APT charges:
               1
     1  C   -0.001151
     2  C    0.341459
     3  C    0.179548
     4  C    0.341459
     5  C    0.592910
     6  H    0.272888
     7  H    0.272888
 Sum of APT charges =   2.00000
 APT charges with hydrogens summed into heavy atoms:
               1
     1  C   -0.001151
     2  C    0.614347
     3  C    0.179548
     4  C    0.614347
     5  C    0.592910
 Electronic spatial extent (au):  <R**2>=            259.3330
 Charge=              2.0000 electrons
 Dipole moment (field-independent basis, Debye):
    X=             -0.0000    Y=              0.0000    Z=             -0.7424  Tot=              0.7424
 Quadrupole moment (field-independent basis, Debye-Ang):
   XX=             -7.3769   YY=            -23.0527   ZZ=            -12.8082
   XY=             -0.0000   XZ=              0.0000   YZ=             -0.0000
 Traceless Quadrupole moment (field-independent basis, Debye-Ang):
   XX=              7.0357   YY=             -8.6401   ZZ=              1.6044
   XY=             -0.0000   XZ=              0.0000   YZ=             -0.0000
 Octapole moment (field-independent basis, Debye-Ang**2):
  XXX=             -0.0000  YYY=             -0.0000  ZZZ=             -2.0911  XYY=              0.0000
  XXY=              0.0000  XXZ=             -7.2042  XZZ=             -0.0000  YZZ=             -0.0000
  YYZ=             -1.1363  XYZ=              0.0000
 Hexadecapole moment (field-independent basis, Debye-Ang**3):
 XXXX=            -33.7749 YYYY=            -21.3680 ZZZZ=           -206.3942 XXXY=             -0.0000
 XXXZ=              0.0000 YYYX=              0.0000 YYYZ=              0.0000 ZZZX=             -0.0000
 ZZZY=              0.0000 XXYY=            -20.0177 XXZZ=            -47.3675 YYZZ=            -38.7411
 XXYZ=             -0.0000 YYXZ=             -0.0000 ZZXY=              0.0000
 N-N= 1.196169186344D+02 E-N=-6.656694388656D+02  KE= 1.897506967075D+02
 Symmetry A1   KE= 1.454393219870D+02
 Symmetry A2   KE=-6.033130711734D-20
 Symmetry B1   KE= 4.088474500185D+01
 Symmetry B2   KE= 3.426629718611D+00
  Exact polarizability:  42.354  -0.000  26.294  -0.000  -0.000  59.756
 Approx polarizability:  74.393  -0.000  38.418   0.000   0.000 117.352
                          Isotropic Fermi Contact Couplings
        Atom                 a.u.       MegaHertz       Gauss      10(-4) cm-1
     1  C(13)              0.06642      37.33304      13.32135      12.45296
     2  C(13)              0.01766       9.92929       3.54302       3.31205
     3  C(13)              0.66303     372.68813     132.98439     124.31538
     4  C(13)              0.01766       9.92929       3.54302       3.31205
     5  C(13)              0.00419       2.35584       0.84062       0.78582
     6  H(1)              -0.00022      -0.50285      -0.17943      -0.16773
     7  H(1)              -0.00022      -0.50285      -0.17943      -0.16773
 --------------------------------------------------------
       Center         ----  Spin Dipole Couplings  ----
                      3XX-RR        3YY-RR        3ZZ-RR
 --------------------------------------------------------
     1   Atom       -0.239722      0.319646     -0.079925
     2   Atom       -0.018915     -0.080996      0.099911
     3   Atom       -0.747286     -0.098432      0.845718
     4   Atom       -0.018915     -0.080996      0.099911
     5   Atom       -0.382417      0.598629     -0.216212
     6   Atom        0.020863     -0.017087     -0.003776
     7   Atom        0.020863     -0.017087     -0.003776
 --------------------------------------------------------
                        XY            XZ            YZ
 --------------------------------------------------------
     1   Atom       -0.000000      0.000000      0.000000
     2   Atom       -0.000000      0.065945     -0.000000
     3   Atom        0.000000      0.000000      0.000000
     4   Atom       -0.000000     -0.065945     -0.000000
     5   Atom        0.000000     -0.000000      0.000000
     6   Atom       -0.000000      0.011056     -0.000000
     7   Atom       -0.000000     -0.011056      0.000000
 --------------------------------------------------------


 ---------------------------------------------------------------------------------
              Anisotropic Spin Dipole Couplings in Principal Axis System
 ---------------------------------------------------------------------------------

       Atom             a.u.   MegaHertz   Gauss  10(-4) cm-1        Axes

              Baa    -0.2397   -32.168   -11.478   -10.730  1.0000  0.0000 -0.0000
     1 C(13)  Bbb    -0.0799   -10.725    -3.827    -3.578  0.0000 -0.0000  1.0000
              Bcc     0.3196    42.893    15.305    14.308  0.0000  1.0000  0.0000
 
              Baa    -0.0810   -10.869    -3.878    -3.625  0.0000  1.0000  0.0000
     2 C(13)  Bbb    -0.0483    -6.476    -2.311    -2.160  0.9136 -0.0000 -0.4066
              Bcc     0.1293    17.345     6.189     5.786  0.4066  0.0000  0.9136
 
              Baa    -0.7473  -100.279   -35.782   -33.449  1.0000  0.0000 -0.0000
     3 C(13)  Bbb    -0.0984   -13.209    -4.713    -4.406  0.0000  1.0000 -0.0000
              Bcc     0.8457   113.487    40.495    37.855  0.0000  0.0000  1.0000
 
              Baa    -0.0810   -10.869    -3.878    -3.625 -0.0000  1.0000 -0.0000
     4 C(13)  Bbb    -0.0483    -6.476    -2.311    -2.160  0.9136  0.0000  0.4066
              Bcc     0.1293    17.345     6.189     5.786 -0.4066  0.0000  0.9136
 
              Baa    -0.3824   -51.317   -18.311   -17.117  1.0000 -0.0000  0.0000
     5 C(13)  Bbb    -0.2162   -29.014   -10.353    -9.678 -0.0000 -0.0000  1.0000
              Bcc     0.5986    80.330    28.664    26.795 -0.0000  1.0000  0.0000
 
              Baa    -0.0171    -9.117    -3.253    -3.041  0.0000  1.0000  0.0000
     6 H(1)   Bbb    -0.0080    -4.274    -1.525    -1.425 -0.3576 -0.0000  0.9339
              Bcc     0.0251    13.390     4.778     4.467  0.9339  0.0000  0.3576
 
              Baa    -0.0171    -9.117    -3.253    -3.041  0.0000  1.0000  0.0000
     7 H(1)   Bbb    -0.0080    -4.274    -1.525    -1.425  0.3576 -0.0000  0.9339
              Bcc     0.0251    13.390     4.778     4.467  0.9339 -0.0000 -0.3576
 

 ---------------------------------------------------------------------------------

 No NMR shielding tensors so no spin-rotation constants.
 Leave Link  601 at Thu Jan 31 05:02:40 2019, MaxMem=    33554432 cpu:         3.3
 (Enter /home/proyectos/fulerenos/M3C-v2.0/M3C-deps_CCC/g09-AM64L-G09RevC.01/l701.exe)
 Compute integral second derivatives.
 ... and contract with generalized density number  0.
 Leave Link  701 at Thu Jan 31 05:02:41 2019, MaxMem=    33554432 cpu:         2.2
 (Enter /home/proyectos/fulerenos/M3C-v2.0/M3C-deps_CCC/g09-AM64L-G09RevC.01/l702.exe)
 L702 exits ... SP integral derivatives will be done elsewhere.
 Leave Link  702 at Thu Jan 31 05:02:41 2019, MaxMem=    33554432 cpu:         0.1
 (Enter /home/proyectos/fulerenos/M3C-v2.0/M3C-deps_CCC/g09-AM64L-G09RevC.01/l703.exe)
 Compute integral second derivatives, UseDBF=F ICtDFT=           0.
 Integral derivatives from FoFJK, PRISM(SPDF).
 Calling FoFJK, ICntrl=    100127 FMM=F ISym2X=1 I1Cent= 0 IOpClX= 1 NMat=1 NMatS=1 NMatT=0.
 FoFJK:  IHMeth= 1 ICntrl=  100127 DoSepK=F KAlg= 0 I1Cent=   0 FoldK=F
 IRaf=         0 NMat=   1 IRICut=       1 DoRegI=T DoRafI=F ISym2E= 1.
 FoFCou: FMM=F IPFlag=           0 FMFlag=      100000 FMFlg1=         800
         NFxFlg=           0 DoJE=F BraDBF=F KetDBF=F FulRan=T
         wScrn=  0.000000 ICntrl=  100127 IOpCl=  1 I1Cent=           0 NGrid=           0
         NMat0=    1 NMatS0=      1 NMatT0=    0 NMatD0=    1 NMtDS0=    0 NMtDT0=    0
 Petite list used in FoFCou.
 Leave Link  703 at Thu Jan 31 05:03:34 2019, MaxMem=    33554432 cpu:       210.2
 (Enter /home/proyectos/fulerenos/M3C-v2.0/M3C-deps_CCC/g09-AM64L-G09RevC.01/l716.exe)
 Dipole        = 8.55695723D-15 1.87516449D-16-2.92084262D-01
 Polarizability= 4.23539442D+01-1.82897825D-07 2.62940045D+01
                -4.04473207D-07-6.64105541D-08 5.97561723D+01
 Full mass-weighted force constant matrix:
 Low frequencies ---  -11.4801   -7.8273   -6.9947    0.0008    0.0008    0.0012
 Low frequencies ---   57.2550  253.3612  280.7457
 Diagonal vibrational polarizability:
        7.8919575     163.9230409       4.9813061
 Harmonic frequencies (cm**-1), IR intensities (KM/Mole), Raman scattering
 activities (A**4/AMU), depolarization ratios for plane and unpolarized
 incident light, reduced masses (AMU), force constants (mDyne/A),
 and normal coordinates:
                      1                      2                      3
                     B2                     B1                     B2
 Frequencies --     57.2550               253.3611               280.7457
 Red. masses --      3.3835                 6.3146                 3.5545
 Frc consts  --      0.0065                 0.2388                 0.1651
 IR Inten    --     19.8705                10.3589                 0.3178
  Atom  AN      X      Y      Z        X      Y      Z        X      Y      Z
     1   6    -0.00  -0.12   0.00    -0.32   0.00   0.00     0.00   0.43  -0.00
     2   6    -0.00  -0.15   0.00    -0.11  -0.00   0.25     0.00  -0.07  -0.00
     3   6     0.00   0.35  -0.00     0.11  -0.00   0.00    -0.00  -0.00   0.00
     4   6    -0.00  -0.15  -0.00    -0.11  -0.00  -0.25     0.00  -0.07   0.00
     5   6     0.00   0.19   0.00     0.46  -0.00   0.00    -0.00  -0.18  -0.00
     6   1    -0.00  -0.63   0.00    -0.12  -0.00   0.50     0.00  -0.62  -0.00
     7   1    -0.00  -0.63  -0.00    -0.12  -0.00  -0.50     0.00  -0.62   0.00
                      4                      5                      6
                     A1                     A1                     B2
 Frequencies --    673.4405               897.4183               923.4503
 Red. masses --      7.3401                 2.9953                 1.8277
 Frc consts  --      1.9613                 1.4213                 0.9183
 IR Inten    --     16.2256                 0.0451                21.9053
  Atom  AN      X      Y      Z        X      Y      Z        X      Y      Z
     1   6    -0.00   0.00   0.23    -0.00   0.00  -0.03    -0.00   0.11   0.00
     2   6    -0.13  -0.00  -0.23     0.20   0.00  -0.11     0.00  -0.16  -0.00
     3   6     0.00  -0.00  -0.26     0.00   0.00   0.27     0.00   0.10  -0.00
     4   6     0.13   0.00  -0.23    -0.20  -0.00  -0.11     0.00  -0.16   0.00
     5   6    -0.00  -0.00   0.56    -0.00   0.00   0.07     0.00  -0.01  -0.00
     6   1    -0.14   0.00  -0.44     0.22  -0.00  -0.60     0.00   0.68  -0.00
     7   1     0.14  -0.00  -0.44    -0.22   0.00  -0.60     0.00   0.68   0.00
                      7                      8                      9
                     B1                     A2                     A1
 Frequencies --    961.2405              1049.2725              1108.5941
 Red. masses --      7.2094                 1.3254                 2.3068
 Frc consts  --      3.9247                 0.8598                 1.6703
 IR Inten    --      4.4449                 0.0000                51.3628
  Atom  AN      X      Y      Z        X      Y      Z        X      Y      Z
     1   6     0.56   0.00  -0.00    -0.00  -0.00  -0.00    -0.00   0.00  -0.10
     2   6    -0.15  -0.00   0.28     0.00  -0.12  -0.00     0.19  -0.00  -0.01
     3   6    -0.22   0.00   0.00     0.00  -0.00   0.00     0.00   0.00  -0.13
     4   6    -0.15  -0.00  -0.28     0.00   0.12   0.00    -0.19   0.00  -0.01
     5   6    -0.02  -0.00   0.00     0.00   0.00  -0.00     0.00  -0.00   0.15
     6   1    -0.17   0.00   0.43     0.00   0.70  -0.00     0.21   0.00   0.63
     7   1    -0.17   0.00  -0.43     0.00  -0.70  -0.00    -0.21  -0.00   0.63
                     10                     11                     12
                     B1                     B1                     A1
 Frequencies --   1149.4186              1231.8050              1302.7622
 Red. masses --      1.4097                 4.5687                 2.5934
 Frc consts  --      1.0973                 4.0844                 2.5933
 IR Inten    --     32.5558               110.1751                44.3391
  Atom  AN      X      Y      Z        X      Y      Z        X      Y      Z
     1   6    -0.03  -0.00   0.00     0.13  -0.00  -0.00     0.00  -0.00   0.06
     2   6     0.07   0.00  -0.07    -0.23   0.00  -0.19    -0.08  -0.00  -0.19
     3   6    -0.13  -0.00   0.00     0.36  -0.00   0.00    -0.00   0.00   0.24
     4   6     0.07   0.00   0.07    -0.23   0.00   0.19     0.08   0.00  -0.19
     5   6     0.00   0.00  -0.00     0.00   0.00  -0.00    -0.00   0.00  -0.03
     6   1     0.08  -0.00   0.69    -0.29  -0.00   0.50    -0.10   0.00   0.65
     7   1     0.08  -0.00  -0.69    -0.29  -0.00  -0.50     0.10  -0.00   0.65
                     13                     14                     15
                     A1                     B1                     A1
 Frequencies --   1391.0164              3117.6766              3118.2556
 Red. masses --     10.2061                 1.1049                 1.1098
 Frc consts  --     11.6353                 6.3276                 6.3578
 IR Inten    --    156.9652               289.8623                 2.2231
  Atom  AN      X      Y      Z        X      Y      Z        X      Y      Z
     1   6     0.00  -0.00   0.75     0.01  -0.00  -0.00    -0.00   0.00  -0.01
     2   6     0.21  -0.00  -0.08    -0.07  -0.00  -0.00    -0.07  -0.00  -0.00
     3   6    -0.00  -0.00  -0.23     0.01   0.00   0.00    -0.00  -0.00   0.00
     4   6    -0.21   0.00  -0.08    -0.07  -0.00   0.00     0.07  -0.00  -0.00
     5   6    -0.00   0.00  -0.36    -0.00   0.00   0.00     0.00  -0.00   0.00
     6   1     0.28   0.00   0.05     0.70   0.00   0.00     0.70   0.00   0.00
     7   1    -0.28  -0.00   0.05     0.70   0.00  -0.00    -0.70  -0.00   0.00

 -------------------
 - Thermochemistry -
 -------------------
 Temperature   298.150 Kelvin.  Pressure   1.00000 Atm.
 Atom     1 has atomic number  6 and mass  12.00000
 Atom     2 has atomic number  6 and mass  12.00000
 Atom     3 has atomic number  6 and mass  12.00000
 Atom     4 has atomic number  6 and mass  12.00000
 Atom     5 has atomic number  6 and mass  12.00000
 Atom     6 has atomic number  1 and mass   1.00783
 Atom     7 has atomic number  1 and mass   1.00783
 Molecular mass:    62.01565 amu.
 Principal axes and moments of inertia in atomic units:
                           1         2         3
     Eigenvalues --   125.20316 295.27411 420.47727
           X            0.00000   1.00000  -0.00000
           Y            0.00000   0.00000   1.00000
           Z            1.00000   0.00000  -0.00000
 This molecule is an asymmetric top.
 Rotational symmetry number  2.
 Rotational temperatures (Kelvin)      0.69179     0.29333     0.20599
 Rotational constants (GHZ):          14.41450     6.11209     4.29213
 Zero-point vibrational energy     104767.2 (Joules/Mol)
                                   25.03997 (Kcal/Mol)
 Warning -- explicit consideration of   3 degrees of freedom as
           vibrations may cause significant error
 Vibrational temperatures:     82.38   364.53   403.93   968.93  1291.18
          (Kelvin)           1328.64  1383.01  1509.67  1595.02  1653.75
                             1772.29  1874.38  2001.36  4485.64  4486.47
 
 Zero-point correction=                           0.039904 (Hartree/Particle)
 Thermal correction to Energy=                    0.044862
 Thermal correction to Enthalpy=                  0.045806
 Thermal correction to Gibbs Free Energy=         0.011535
 Sum of electronic and zero-point Energies=           -190.492159
 Sum of electronic and thermal Energies=              -190.487201
 Sum of electronic and thermal Enthalpies=            -190.486257
 Sum of electronic and thermal Free Energies=         -190.520528
 
                     E (Thermal)             CV                S
                      KCal/Mol        Cal/Mol-Kelvin    Cal/Mol-Kelvin
 Total                   28.151             14.958             72.128
 Electronic               0.000              0.000              2.183
 Translational            0.889              2.981             38.294
 Rotational               0.889              2.981             22.879
 Vibrational             26.374              8.996              8.772
 Vibration     1          0.596              1.975              4.550
 Vibration     2          0.665              1.757              1.707
 Vibration     3          0.680              1.709              1.529
                       Q            Log10(Q)             Ln(Q)
 Total Bot       0.494388D-05         -5.305932        -12.217361
 Total V=0       0.111807D+14         13.048470         30.045212
 Vib (Bot)       0.384708D-17        -17.414869        -40.099217
 Vib (Bot)    1  0.360785D+01          0.557248          1.283111
 Vib (Bot)    2  0.769097D+00         -0.114019         -0.262538
 Vib (Bot)    3  0.684556D+00         -0.164591         -0.378985
 Vib (V=0)       0.870028D+01          0.939533          2.163355
 Vib (V=0)    1  0.414233D+01          0.617244          1.421258
 Vib (V=0)    2  0.141734D+01          0.151474          0.348781
 Vib (V=0)    3  0.134771D+01          0.129597          0.298409
 Electronic      0.300000D+01          0.477121          1.098612
 Translational   0.191958D+08          7.283207         16.770204
 Rotational      0.223156D+05          4.348608         10.013040
 
                                                              b3lyp opt
                                                             IR Spectrum
 
     33                                                                     1  1  1   11  1                                          
     11                                                                     3  3  2   11  0  9 98        6               22          
     11                                                                     9  0  3   40  4  6 29        7               85       5  
     88                                                                     1  3  2   99  9  1 37        3               13       7  
 
     XX                                                                     X  X  X   XX     X X         X               XX       X  
      X                                                                     X  X  X   XX       X                                     
      X                                                                     X  X  X    X                                             
      X                                                                     X     X    X                                             
      X                                                                     X     X                                                  
      X                                                                     X     X                                                  
      X                                                                     X     X                                                  
      X                                                                     X     X                                                  
      X                                                                     X                                                        
      X                                                                     X                                                        
      X                                                                     X                                                        
      X                                                                                                                              
      X                                                                                                                              
      X                                                                                                                              
      X                                                                                                                              
      X                                                                                                                              
      X                                                                                                                              
      X                                                                                                                              
      X                                                                                                                              
      X                                                                                                                              
 
 ***** Axes restored to original set *****
 -------------------------------------------------------------------
 Center     Atomic                   Forces (Hartrees/Bohr)
 Number     Number              X              Y              Z
 -------------------------------------------------------------------
      1        6          -0.000099559   -0.000002461    0.000000000
      2        6          -0.000004704   -0.000012656    0.000000001
      3        6           0.000011209    0.000000277    0.000000000
      4        6          -0.000005323    0.000012409   -0.000000001
      5        6           0.000087730    0.000002169    0.000000000
      6        1           0.000005355   -0.000001129    0.000000000
      7        1           0.000005292    0.000001392   -0.000000000
 -------------------------------------------------------------------
 Cartesian Forces:  Max     0.000099559 RMS     0.000029415
 Z-matrix is all fixed cartesians, so copy forces.
 Force constants in Cartesian coordinates: 
                1             2             3             4             5 
      1  0.633400D+00
      2  0.914993D-02  0.263490D+00
      3  0.000000D+00 -0.120242D-04  0.531482D-01
      4 -0.117836D+00  0.699392D-01 -0.410008D-05  0.317649D+00
      5  0.897011D-01 -0.134274D+00  0.504545D-05  0.228938D-01  0.795323D+00
      6 -0.523441D-05  0.501542D-05 -0.483599D-01 -0.104880D-05 -0.379474D-04
      7 -0.120776D+00 -0.351471D-02  0.000000D+00 -0.151108D+00 -0.108883D+00
      8 -0.351485D-02  0.213209D-01  0.000000D+00 -0.119556D+00 -0.203026D+00
      9  0.000000D+00  0.000000D+00  0.284698D-01  0.669291D-05  0.902292D-05
     10 -0.109998D+00 -0.687384D-01  0.384589D-05  0.191765D-01 -0.141978D-01
     11 -0.885002D-01 -0.142112D+00  0.524242D-05  0.206539D-01 -0.111329D+00
     12  0.498029D-05  0.526513D-05 -0.483599D-01 -0.115930D-05  0.642658D-05
     13 -0.283105D+00 -0.657704D-02  0.000000D+00 -0.110930D-01  0.275422D-02
     14 -0.657709D-02 -0.172059D-01  0.000000D+00  0.102739D-02 -0.139570D-03
     15  0.000000D+00  0.000000D+00 -0.112774D-01  0.000000D+00  0.000000D+00
     16 -0.112978D-02  0.157850D-01  0.000000D+00 -0.561270D-01  0.557773D-02
     17 -0.442635D-02  0.467815D-02  0.000000D+00  0.525991D-02 -0.341984D+00
     18  0.000000D+00  0.000000D+00  0.131896D-01  0.000000D+00  0.164545D-04
     19 -0.555054D-03 -0.160439D-01  0.000000D+00 -0.661341D-03  0.215352D-02
     20  0.416746D-02  0.410344D-02  0.000000D+00 -0.218353D-03 -0.456968D-02
     21  0.000000D+00  0.000000D+00  0.131896D-01  0.000000D+00  0.000000D+00
                6             7             8             9            10 
      6  0.131997D+00
      7  0.608069D-05  0.432961D+00
      8  0.900916D-05  0.181690D-02  0.359505D+00
      9 -0.427406D-01  0.000000D+00 -0.189782D-04  0.280174D-01
     10  0.000000D+00 -0.162508D+00  0.121560D+00 -0.713053D-05  0.321075D+00
     11  0.647601D-05  0.110887D+00 -0.191626D+00  0.868136D-05 -0.463550D-01
     12  0.124233D-02 -0.651868D-05  0.869880D-05 -0.427406D-01  0.292250D-05
     13  0.000000D+00 -0.152163D-01 -0.508801D-03  0.000000D+00 -0.108796D-01
     14  0.000000D+00 -0.508821D-03  0.535345D-02  0.000000D+00 -0.155866D-02
     15  0.365185D-02  0.000000D+00  0.000000D+00 -0.100859D-02  0.000000D+00
     16  0.000000D+00  0.865946D-02 -0.147291D-01  0.000000D+00 -0.575383D-03
     17  0.164539D-04  0.137220D-02  0.390103D-02  0.000000D+00  0.415952D-03
     18 -0.547404D-01  0.000000D+00  0.000000D+00  0.150013D-01  0.000000D+00
     19  0.000000D+00  0.798869D-02  0.149314D-01  0.000000D+00 -0.562900D-01
     20  0.000000D+00 -0.116998D-02  0.457180D-02  0.000000D+00  0.887347D-02
     21  0.894991D-02  0.000000D+00  0.000000D+00  0.150013D-01  0.000000D+00
               11            12            13            14            15 
     11  0.791897D+00
     12 -0.378492D-04  0.131997D+00
     13 -0.328553D-02  0.000000D+00  0.313314D+00
     14 -0.352922D-03  0.000000D+00  0.744392D-02  0.123697D-01
     15  0.000000D+00  0.365186D-02  0.000000D+00  0.000000D+00  0.434509D-02
     16 -0.195592D-02  0.000000D+00  0.338889D-02  0.113277D-02  0.000000D+00
     17 -0.465564D-02  0.000000D+00  0.310896D-02  0.882800D-04  0.000000D+00
     18  0.000000D+00  0.894991D-02  0.000000D+00  0.000000D+00  0.318583D-03
     19  0.855565D-02  0.000000D+00  0.359016D-02 -0.959516D-03  0.000000D+00
     20 -0.341821D+00  0.164497D-04 -0.293572D-02 -0.112994D-03  0.000000D+00
     21  0.164494D-04 -0.547404D-01  0.000000D+00  0.000000D+00  0.318582D-03
               16            17            18            19            20 
     16  0.443256D-01
     17 -0.580848D-02  0.338047D+00
     18  0.000000D+00 -0.179812D-04  0.241426D-01
     19  0.145815D-02  0.777938D-04  0.000000D+00  0.444694D-01
     20 -0.196545D-05 -0.746509D-04  0.000000D+00 -0.871490D-02  0.337903D+00
     21  0.000000D+00  0.000000D+00 -0.686162D-02  0.000000D+00 -0.179771D-04
               21 
     21  0.241426D-01
 Leave Link  716 at Thu Jan 31 05:03:34 2019, MaxMem=    33554432 cpu:         0.1
 (Enter /home/proyectos/fulerenos/M3C-v2.0/M3C-deps_CCC/g09-AM64L-G09RevC.01/l103.exe)

 GradGradGradGradGradGradGradGradGradGradGradGradGradGradGradGradGradGrad
 Berny optimization.
 Search for a local minimum.
 Step number   1 out of a maximum of    2
 All quantities printed in internal units (Hartrees-Bohrs-Radians)
 Second derivative matrix not updated -- analytic derivatives used.
 ITU=  0
     Eigenvalues ---    0.00048   0.01660   0.02169   0.04966   0.13094
     Eigenvalues ---    0.13489   0.15402   0.21122   0.26326   0.29099
     Eigenvalues ---    0.48087   0.58855   0.80416   1.01618   1.14202
 Angle between quadratic step and forces=  33.69 degrees.
 ClnCor:  largest displacement from symmetrization is 1.61D-10 for atom     7.
 Linear search not attempted -- first point.
 ClnCor:  largest displacement from symmetrization is 1.78D-15 for atom     6.
 B after Tr=    -0.000008   -0.000000   -0.000000
         Rot=    1.000000    0.000000   -0.000000    0.000000 Ang=   0.00 deg.
 Variable       Old X    -DE/DX   Delta X   Delta X   Delta X     New X
                                 (Linear)    (Quad)   (Total)
    X1        1.07328  -0.00010   0.00000  -0.00009  -0.00010   1.07318
    Y1        0.02937  -0.00000   0.00000  -0.00000  -0.00000   0.02937
    Z1        0.00011   0.00000   0.00000   0.00000  -0.00000   0.00011
    X2       -0.94955  -0.00000   0.00000  -0.00005  -0.00006  -0.94960
    Y2        1.94267  -0.00001   0.00000  -0.00002  -0.00002   1.94265
    Z2        0.00000   0.00000   0.00000   0.00000   0.00000   0.00000
    X3       -2.73868   0.00001   0.00000  -0.00004  -0.00005  -2.73872
    Y3       -0.06486   0.00000   0.00000  -0.00000  -0.00000  -0.06486
    Z3        0.00011   0.00000   0.00000   0.00000  -0.00000   0.00011
    X4       -0.85254  -0.00001   0.00000  -0.00005  -0.00006  -0.85260
    Y4       -1.98154   0.00001   0.00000   0.00002   0.00002  -1.98152
    Z4        0.00023  -0.00000   0.00000  -0.00000  -0.00000   0.00023
    X5        3.76611   0.00009   0.00000   0.00019   0.00018   3.76630
    Y5        0.09594   0.00000   0.00000   0.00000   0.00000   0.09594
    Z5        0.00011   0.00000   0.00000  -0.00000  -0.00000   0.00011
    X6       -0.99849   0.00001   0.00000   0.00005   0.00004  -0.99845
    Y6        4.01025  -0.00000   0.00000  -0.00002  -0.00002   4.01022
    Z6       -0.00012   0.00000   0.00000   0.00000   0.00000  -0.00012
    X7       -0.79927   0.00001   0.00000   0.00005   0.00004  -0.79923
    Y7       -4.04901   0.00000   0.00000   0.00003   0.00003  -4.04898
    Z7        0.00035  -0.00000   0.00000  -0.00000  -0.00000   0.00035
         Item               Value     Threshold  Converged?
 Maximum Force            0.000100     0.000450     YES
 RMS     Force            0.000029     0.000300     YES
 Maximum Displacement     0.000183     0.001800     YES
 RMS     Displacement     0.000052     0.001200     YES
 Predicted change in Energy=-1.351643D-08
 Optimization completed.
    -- Stationary point found.
 GradGradGradGradGradGradGradGradGradGradGradGradGradGradGradGradGradGrad

 Leave Link  103 at Thu Jan 31 05:03:34 2019, MaxMem=    33554432 cpu:         0.1
 (Enter /home/proyectos/fulerenos/M3C-v2.0/M3C-deps_CCC/g09-AM64L-G09RevC.01/l9999.exe)

 Test job not archived.
 1\1\GINC-COPERNICIO\Freq\UB3LYP\6-311++G(3df,2p)\C5H2(2+,3)\ROOT\31-Ja
 n-2019\0\\#p b3lyp/6-311++G(3df,2p) freq IOp(2/17=3) IOp(2/18=3)\\b3ly
 p opt\\2,3\C,0.567954529,0.0155422489,0.0000607554\C,-0.5024784338,1.0
 28018162,0.0000012695\C,-1.4492447079,-0.0343230485,0.0000607554\C,-0.
 4511446172,-1.0485870349,0.0001202413\C,1.9929420519,0.0507680339,0.00
 00607554\H,-0.5283806828,2.1221306816,-0.0000614122\H,-0.4229551974,-2
 .1426430155,0.000182923\\Version=EM64L-G09RevE.01\State=3-B2\HF=-190.5
 320631\S2=2.01351\S2-1=0.\S2A=2.000051\RMSD=9.489e-09\RMSF=2.941e-05\Z
 eroPoint=0.0399037\Thermal=0.0448617\Dipole=-0.2919951,-0.0072181,0.\D
 ipoleDeriv=-0.6811668,-0.0193014,-0.0000007,-0.0193011,0.099161,0.0000
 276,-0.0000007,0.0000274,0.578552,0.0509868,0.0135559,-0.0000011,-0.14
 35992,0.6355994,-0.0000173,0.0000078,-0.000017,0.3377906,0.7408131,0.0
 293287,-0.000001,0.0293285,-0.4448918,0.0000394,-0.000001,0.0000394,0.
 2427234,0.0459965,-0.0427239,0.000002,0.1144313,0.6405897,-0.0000172,-
 0.000007,-0.0000174,0.3377908,1.4732177,0.0331871,0.,0.0331869,0.13152
 33,0.0000024,0.,0.0000025,0.1739875,0.1864129,-0.0059697,0.0000004,-0.
 0621081,0.4676728,-0.0000174,0.0000036,-0.0000174,0.1645779,0.18374,-0
 .0080766,0.0000005,0.0480619,0.4703458,-0.0000174,-0.0000027,-0.000017
 5,0.1645778\Polar=59.7455446,0.4299211,42.3645718,0.0000227,-0.0009197
 ,26.2940046\PG=C02V [C2(C1C1C1),SGV'(C2H2)]\NImag=0\\0.63340043,0.0091
 4993,0.26348987,0.00000030,-0.00001202,0.05314820,-0.11783631,0.069939
 19,-0.00000410,0.31764909,0.08970113,-0.13427417,0.00000505,0.02289380
 ,0.79532292,-0.00000523,0.00000502,-0.04835989,-0.00000105,-0.00003795
 ,0.13199680,-0.12077631,-0.00351471,-0.00000001,-0.15110809,-0.1088826
 3,0.00000608,0.43296075,-0.00351485,0.02132089,0.00000040,-0.11955589,
 -0.20302623,0.00000901,0.00181690,0.35950517,-0.00000001,0.00000041,0.
 02846978,0.00000669,0.00000902,-0.04274061,0.00000047,-0.00001898,0.02
 801742,-0.10999825,-0.06873842,0.00000385,0.01917653,-0.01419775,0.000
 00084,-0.16250819,0.12156040,-0.00000713,0.32107486,-0.08850020,-0.142
 11226,0.00000524,0.02065393,-0.11132939,0.00000648,0.11088707,-0.19162
 612,0.00000868,-0.04635502,0.79189716,0.00000498,0.00000527,-0.0483599
 2,-0.00000116,0.00000643,0.00124233,-0.00000652,0.00000870,-0.04274061
 ,0.00000292,-0.00003785,0.13199680,-0.28310464,-0.00657704,0.,-0.01109
 299,0.00275422,-0.00000018,-0.01521625,-0.00050880,0.,-0.01087964,-0.0
 0328553,0.00000017,0.31331447,-0.00657709,-0.01720592,0.00000033,0.001
 02739,-0.00013957,0.00000022,-0.00050882,0.00535345,-0.00000037,-0.001
 55866,-0.00035292,0.00000023,0.00744392,0.01236967,0.,0.00000033,-0.01
 127737,-0.00000008,0.00000022,0.00365185,0.,-0.00000036,-0.00100859,0.
 00000007,0.00000022,0.00365186,0.00000001,-0.00000045,0.00434509,-0.00
 112978,0.01578499,-0.00000092,-0.05612695,0.00557773,-0.00000032,0.008
 65946,-0.01472913,0.00000083,-0.00057538,-0.00195592,0.00000010,0.0033
 8889,0.00113277,-0.00000006,0.04432558,-0.00442635,0.00467815,0.000000
 48,0.00525991,-0.34198388,0.00001645,0.00137220,0.00390103,0.00000064,
 0.00041595,-0.00465564,0.00000078,0.00310896,0.00008828,0.00000002,-0.
 00580848,0.33804670,0.00000023,0.00000051,0.01318961,-0.00000030,0.000
 01645,-0.05474038,-0.00000009,0.00000061,0.01500131,-0.00000004,0.0000
 0078,0.00894991,-0.00000017,0.00000001,0.00031858,0.00000036,-0.000017
 98,0.02414259,-0.00055505,-0.01604393,0.00000090,-0.00066134,0.0021535
 2,-0.00000014,0.00798869,0.01493137,-0.00000086,-0.05628999,0.00855565
 ,-0.00000049,0.00359016,-0.00095952,0.00000006,0.00145815,0.00007779,0
 .,0.04446936,0.00416746,0.00410344,0.00000053,-0.00021835,-0.00456968,
 0.00000077,-0.00116998,0.00457180,0.00000060,0.00887347,-0.34182084,0.
 00001645,-0.00293572,-0.00011299,0.00000002,-0.00000197,-0.00007465,-0
 .00000039,-0.00871490,0.33790292,-0.00000026,0.00000050,0.01318961,0.,
 0.00000078,0.00894991,0.00000006,0.00000062,0.01500131,-0.00000051,0.0
 0001645,-0.05474038,0.00000017,0.00000002,0.00031858,0.00000001,-0.000
 00039,-0.00686162,0.00000053,-0.00001798,0.02414259\\0.00009956,0.0000
 0246,0.,0.00000470,0.00001266,0.,-0.00001121,-0.00000028,0.,0.00000532
 ,-0.00001241,0.,-0.00008773,-0.00000217,0.,-0.00000535,0.00000113,0.,-
 0.00000529,-0.00000139,0.\\\@


 SCIENCE IS LONG AND LIFE IS SHORT.

                     DON MOSER IN THE FEBRUARY 1979 SMITHSONIAN
 Job cpu time:       0 days  0 hours 29 minutes 45.9 seconds.
 File lengths (MBytes):  RWF=     51 Int=      0 D2E=      0 Chk=      5 Scr=      1
 Normal termination of Gaussian 09 at Thu Jan 31 05:03:34 2019.
