 Entering Gaussian System, Link 0=/home/proyectos/fulerenos/M3C-v2.0/M3C-deps_CCC/g09-AM64L-G09RevC.01/g09
 Initial command:
 /home/proyectos/fulerenos/M3C-v2.0/M3C-deps_CCC/g09-AM64L-G09RevC.01/l1.exe "/scratch/naguirre/gaussian/Gau-10886.inp" -scrdir="/scratch/naguirre/gaussian/"
 Entering Link 1 = /home/proyectos/fulerenos/M3C-v2.0/M3C-deps_CCC/g09-AM64L-G09RevC.01/l1.exe PID=     10894.
  
 Copyright (c) 1988,1990,1992,1993,1995,1998,2003,2009,2015,
            Gaussian, Inc.  All Rights Reserved.
  
 This is part of the Gaussian(R) 09 program.  It is based on
 the Gaussian(R) 03 system (copyright 2003, Gaussian, Inc.),
 the Gaussian(R) 98 system (copyright 1998, Gaussian, Inc.),
 the Gaussian(R) 94 system (copyright 1995, Gaussian, Inc.),
 the Gaussian 92(TM) system (copyright 1992, Gaussian, Inc.),
 the Gaussian 90(TM) system (copyright 1990, Gaussian, Inc.),
 the Gaussian 88(TM) system (copyright 1988, Gaussian, Inc.),
 the Gaussian 86(TM) system (copyright 1986, Carnegie Mellon
 University), and the Gaussian 82(TM) system (copyright 1983,
 Carnegie Mellon University). Gaussian is a federally registered
 trademark of Gaussian, Inc.
  
 This software contains proprietary and confidential information,
 including trade secrets, belonging to Gaussian, Inc.
  
 This software is provided under written license and may be
 used, copied, transmitted, or stored only in accord with that
 written license.
  
 The following legend is applicable only to US Government
 contracts under FAR:
  
                    RESTRICTED RIGHTS LEGEND
  
 Use, reproduction and disclosure by the US Government is
 subject to restrictions as set forth in subparagraphs (a)
 and (c) of the Commercial Computer Software - Restricted
 Rights clause in FAR 52.227-19.
  
 Gaussian, Inc.
 340 Quinnipiac St., Bldg. 40, Wallingford CT 06492
  
  
 ---------------------------------------------------------------
 Warning -- This program may not be used in any manner that
 competes with the business of Gaussian, Inc. or will provide
 assistance to any competitor of Gaussian, Inc.  The licensee
 of this program is prohibited from giving any competitor of
 Gaussian, Inc. access to this program.  By using this program,
 the user acknowledges that Gaussian, Inc. is engaged in the
 business of creating and licensing software in the field of
 computational chemistry and represents and warrants to the
 licensee that it is not a competitor of Gaussian, Inc. and that
 it will not use this program in any manner prohibited above.
 ---------------------------------------------------------------
  

 Cite this work as:
 Gaussian 09, Revision E.01,
 M. J. Frisch, G. W. Trucks, H. B. Schlegel, G. E. Scuseria, 
 M. A. Robb, J. R. Cheeseman, G. Scalmani, V. Barone, B. Mennucci, 
 G. A. Petersson, H. Nakatsuji, M. Caricato, X. Li, H. P. Hratchian, 
 A. F. Izmaylov, J. Bloino, G. Zheng, J. L. Sonnenberg, M. Hada, 
 M. Ehara, K. Toyota, R. Fukuda, J. Hasegawa, M. Ishida, T. Nakajima, 
 Y. Honda, O. Kitao, H. Nakai, T. Vreven, J. A. Montgomery, Jr., 
 J. E. Peralta, F. Ogliaro, M. Bearpark, J. J. Heyd, E. Brothers, 
 K. N. Kudin, V. N. Staroverov, T. Keith, R. Kobayashi, J. Normand, 
 K. Raghavachari, A. Rendell, J. C. Burant, S. S. Iyengar, J. Tomasi, 
 M. Cossi, N. Rega, J. M. Millam, M. Klene, J. E. Knox, J. B. Cross, 
 V. Bakken, C. Adamo, J. Jaramillo, R. Gomperts, R. E. Stratmann, 
 O. Yazyev, A. J. Austin, R. Cammi, C. Pomelli, J. W. Ochterski, 
 R. L. Martin, K. Morokuma, V. G. Zakrzewski, G. A. Voth, 
 P. Salvador, J. J. Dannenberg, S. Dapprich, A. D. Daniels, 
 O. Farkas, J. B. Foresman, J. V. Ortiz, J. Cioslowski, 
 and D. J. Fox, Gaussian, Inc., Wallingford CT, 2013.
 
 ******************************************
 Gaussian 09:  EM64L-G09RevE.01 30-Nov-2015
                31-Jan-2019 
 ******************************************
 %NProcShared=4
 Will use up to    4 processors via shared memory.
 ------------------------------------------------------
 #p b3lyp/6-311++G(3df,2p) freq IOp(2/17=3) IOp(2/18=3)
 ------------------------------------------------------
 1/10=4,30=1,38=1/1,3;
 2/12=2,17=3,18=3,40=1/2;
 3/5=4,6=6,7=1216,11=2,16=1,25=1,30=1,71=2,74=-5,140=1/1,2,3;
 4//1;
 5/5=2,38=5,98=1/2;
 8/6=4,10=90,11=11/1;
 11/6=1,8=1,9=11,15=111,16=1/1,2,10;
 10/6=1/2;
 6/7=2,8=2,9=2,10=2,18=1,28=1/1;
 7/8=1,10=1,25=1/1,2,3,16;
 1/10=4,30=1/3;
 99//99;
 Leave Link    1 at Thu Jan 31 04:55:44 2019, MaxMem=           0 cpu:         0.2
 (Enter /home/proyectos/fulerenos/M3C-v2.0/M3C-deps_CCC/g09-AM64L-G09RevC.01/l101.exe)
 ---------
 b3lyp opt
 ---------
 Symbolic Z-matrix:
 Charge =  2 Multiplicity = 1
 C                     1.92239  -0.41271   0.00007 
 C                     0.70354  -0.12016   0.00001 
 C                    -0.70337  -0.12086  -0.00004 
 C                    -1.92193  -0.41462  -0.00006 
 C                    -0.0006    1.25635  -0.00012 
 H                    -3.00512  -0.56686  -0.00008 
 H                     3.00573  -0.56387   0.00012 
 
 NAtoms=      7 NQM=        7 NQMF=       0 NMMI=      0 NMMIF=      0
                NMic=       0 NMicF=      0.
                    Isotopes and Nuclear Properties:
 (Nuclear quadrupole moments (NQMom) in fm**2, nuclear magnetic moments (NMagM)
  in nuclear magnetons)

  Atom         1           2           3           4           5           6           7
 IAtWgt=          12          12          12          12          12           1           1
 AtmWgt=  12.0000000  12.0000000  12.0000000  12.0000000  12.0000000   1.0078250   1.0078250
 NucSpn=           0           0           0           0           0           1           1
 AtZEff=   0.0000000   0.0000000   0.0000000   0.0000000   0.0000000   0.0000000   0.0000000
 NQMom=    0.0000000   0.0000000   0.0000000   0.0000000   0.0000000   0.0000000   0.0000000
 NMagM=    0.0000000   0.0000000   0.0000000   0.0000000   0.0000000   2.7928460   2.7928460
 AtZNuc=   6.0000000   6.0000000   6.0000000   6.0000000   6.0000000   1.0000000   1.0000000
 Leave Link  101 at Thu Jan 31 04:55:44 2019, MaxMem=    33554432 cpu:         0.3
 (Enter /home/proyectos/fulerenos/M3C-v2.0/M3C-deps_CCC/g09-AM64L-G09RevC.01/l103.exe)

 GradGradGradGradGradGradGradGradGradGradGradGradGradGradGradGradGradGrad
 Berny optimization.
 Initialization pass.
 Trust Radius=3.00D-01 FncErr=1.00D-07 GrdErr=1.00D-07
 Number of steps in this run=      2 maximum allowed number of steps=      2.
 GradGradGradGradGradGradGradGradGradGradGradGradGradGradGradGradGradGrad

 Leave Link  103 at Thu Jan 31 04:55:44 2019, MaxMem=    33554432 cpu:         0.1
 (Enter /home/proyectos/fulerenos/M3C-v2.0/M3C-deps_CCC/g09-AM64L-G09RevC.01/l202.exe)
                          Input orientation:                          
 ---------------------------------------------------------------------
 Center     Atomic      Atomic             Coordinates (Angstroms)
 Number     Number       Type             X           Y           Z
 ---------------------------------------------------------------------
      1          6           0        1.922391   -0.412710    0.000071
      2          6           0        0.703538   -0.120155    0.000008
      3          6           0       -0.703370   -0.120855   -0.000039
      4          6           0       -1.921930   -0.414623   -0.000056
      5          6           0       -0.000601    1.256355   -0.000123
      6          1           0       -3.005122   -0.566862   -0.000080
      7          1           0        3.005733   -0.563871    0.000119
 ---------------------------------------------------------------------
                    Distance matrix (angstroms):
                    1          2          3          4          5
     1  C    0.000000
     2  C    1.253471   0.000000
     3  C    2.641931   1.406908   0.000000
     4  C    3.844322   2.641931   1.253471   0.000000
     5  C    2.546306   1.546154   1.546154   2.546306   0.000000
     6  H    4.929923   3.735466   2.344565   1.093838   3.514437
     7  H    1.093838   2.344565   3.735466   4.929923   3.514437
                    6          7
     6  H    0.000000
     7  H    6.010856   0.000000
 Stoichiometry    C5H2(2+)
 Framework group  C2V[C2(C),SGV'(C4H2)]
 Deg. of freedom     6
 Full point group                 C2V     NOp   4
 Largest Abelian subgroup         C2V     NOp   4
 Largest concise Abelian subgroup C2      NOp   2
                         Standard orientation:                         
 ---------------------------------------------------------------------
 Center     Atomic      Atomic             Coordinates (Angstroms)
 Number     Number       Type             X           Y           Z
 ---------------------------------------------------------------------
      1          6           0       -1.922161    0.000000   -0.413583
      2          6           0       -0.703454    0.000000   -0.120422
      3          6           0        0.703454   -0.000000   -0.120422
      4          6           0        1.922161   -0.000000   -0.413583
      5          6           0       -0.000000    0.000000    1.256438
      6          1           0        3.005428   -0.000000   -0.565284
      7          1           0       -3.005428    0.000000   -0.565284
 ---------------------------------------------------------------------
 Rotational constants (GHZ):     21.0393022      4.2556169      3.5396520
 Leave Link  202 at Thu Jan 31 04:55:44 2019, MaxMem=    33554432 cpu:         0.0
 (Enter /home/proyectos/fulerenos/M3C-v2.0/M3C-deps_CCC/g09-AM64L-G09RevC.01/l301.exe)
 Standard basis: 6-311++G(3df,2p) (5D, 7F)
 Ernie: Thresh=  0.10000D-02 Tol=  0.10000D-05 Strict=F.
 There are    91 symmetry adapted cartesian basis functions of A1  symmetry.
 There are    34 symmetry adapted cartesian basis functions of A2  symmetry.
 There are    80 symmetry adapted cartesian basis functions of B1  symmetry.
 There are    40 symmetry adapted cartesian basis functions of B2  symmetry.
 There are    77 symmetry adapted basis functions of A1  symmetry.
 There are    32 symmetry adapted basis functions of A2  symmetry.
 There are    69 symmetry adapted basis functions of B1  symmetry.
 There are    37 symmetry adapted basis functions of B2  symmetry.
   215 basis functions,   314 primitive gaussians,   245 cartesian basis functions
    15 alpha electrons       15 beta electrons
       nuclear repulsion energy       116.3159997738 Hartrees.
 IExCor=  402 DFT=T Ex+Corr=B3LYP ExCW=0 ScaHFX=  0.200000
 ScaDFX=  0.800000  0.720000  1.000000  0.810000 ScalE2=  1.000000  1.000000
 IRadAn=      0 IRanWt=     -1 IRanGd=            0 ICorTp=0 IEmpDi=  4
 NAtoms=    7 NActive=    7 NUniq=    4 SFac= 3.06D+00 NAtFMM=   60 NAOKFM=F Big=F
 Integral buffers will be    131072 words long.
 Raffenetti 2 integral format.
 Two-electron integral symmetry is turned on.
 Leave Link  301 at Thu Jan 31 04:55:44 2019, MaxMem=    33554432 cpu:         0.3
 (Enter /home/proyectos/fulerenos/M3C-v2.0/M3C-deps_CCC/g09-AM64L-G09RevC.01/l302.exe)
 NPDir=0 NMtPBC=     1 NCelOv=     1 NCel=       1 NClECP=     1 NCelD=      1
         NCelK=      1 NCelE2=     1 NClLst=     1 CellRange=     0.0.
 One-electron integrals computed using PRISM.
 One-electron integral symmetry used in STVInt
 NBasis=   215 RedAO= T EigKep=  2.70D-06  NBF=    77    32    69    37
 NBsUse=   214 1.00D-06 EigRej=  2.50D-07 NBFU=    77    32    68    37
 Precomputing XC quadrature grid using
 IXCGrd= 4 IRadAn=           0 IRanWt=          -1 IRanGd=           0 AccXCQ= 0.00D+00.
 Generated NRdTot=       0 NPtTot=           0 NUsed=           0 NTot=          32
 NSgBfM=   245   245   245   245   245 MxSgAt=     7 MxSgA2=     7.
 Leave Link  302 at Thu Jan 31 04:55:45 2019, MaxMem=    33554432 cpu:         2.1
 (Enter /home/proyectos/fulerenos/M3C-v2.0/M3C-deps_CCC/g09-AM64L-G09RevC.01/l303.exe)
 DipDrv:  MaxL=1.
 Leave Link  303 at Thu Jan 31 04:55:45 2019, MaxMem=    33554432 cpu:         0.2
 (Enter /home/proyectos/fulerenos/M3C-v2.0/M3C-deps_CCC/g09-AM64L-G09RevC.01/l401.exe)
 ExpMin= 3.60D-02 ExpMax= 4.56D+03 ExpMxC= 6.82D+02 IAcc=3 IRadAn=         5 AccDes= 0.00D+00
 Harris functional with IExCor=  402 and IRadAn=       5 diagonalized for initial guess.
 HarFok:  IExCor=  402 AccDes= 0.00D+00 IRadAn=         5 IDoV= 1 UseB2=F ITyADJ=14
 ICtDFT=  3500011 ScaDFX=  1.000000  1.000000  1.000000  1.000000
 FoFCou: FMM=F IPFlag=           0 FMFlag=      100000 FMFlg1=           0
         NFxFlg=           0 DoJE=T BraDBF=F KetDBF=T FulRan=T
         wScrn=  0.000000 ICntrl=     500 IOpCl=  0 I1Cent=   200000004 NGrid=           0
         NMat0=    1 NMatS0=      1 NMatT0=    0 NMatD0=    1 NMtDS0=    0 NMtDT0=    0
 Petite list used in FoFCou.
 Harris En= -190.944411465205    
 JPrj=0 DoOrth=F DoCkMO=F.
 Initial guess orbital symmetries:
       Occupied  (A1) (B1) (B1) (A1) (A1) (A1) (B1) (A1) (B1) (A1)
                 (A1) (B2) (B1) (A2) (A1)
       Virtual   (B1) (B2) (A1) (B2) (A2) (A1) (B1) (A1) (B1) (A1)
                 (B1) (B2) (A1) (A2) (A1) (B2) (A1) (B1) (B1) (B1)
                 (B2) (A1) (B1) (A2) (A1) (A1) (B1) (A1) (B1) (A1)
                 (B1) (A2) (B2) (A1) (A1) (B1) (A1) (B2) (B1) (A1)
                 (B1) (A2) (A1) (B2) (A1) (A2) (B2) (A1) (B1) (A2)
                 (A1) (B2) (B1) (B1) (A1) (B1) (B2) (A1) (A1) (A2)
                 (B1) (B2) (A1) (B1) (B2) (A2) (B1) (A1) (B1) (A1)
                 (B1) (A2) (A1) (B1) (B2) (A1) (B1) (A1) (A2) (B1)
                 (B2) (A1) (B1) (A1) (B1) (A1) (A2) (B2) (A1) (B1)
                 (A1) (B1) (B2) (A2) (B1) (A1) (A2) (A1) (B1) (B2)
                 (A2) (A1) (B2) (B1) (A1) (A1) (B2) (B1) (A2) (A1)
                 (A1) (B2) (B1) (A2) (B2) (B1) (A1) (A2) (A1) (B1)
                 (B2) (A1) (B2) (B1) (A1) (A2) (B2) (A2) (B1) (B1)
                 (A1) (B2) (A2) (B1) (A1) (B1) (A1) (B2) (B1) (A1)
                 (B1) (B1) (B2) (A1) (A2) (A1) (B1) (A2) (A1) (B1)
                 (B1) (B2) (A1) (B2) (A1) (B1) (A2) (A1) (A2) (B1)
                 (A1) (B1) (B2) (A1) (B1) (A2) (B1) (A1) (B1) (B2)
                 (A1) (A2) (B1) (A2) (B2) (A1) (B1) (B2) (A1) (B2)
                 (A2) (A2) (B1) (A1) (B2) (A1) (B1) (A2) (A1) (A1)
                 (B1) (B1) (A1) (B1) (A1) (A1) (B1) (B1) (A1)
 The electronic state of the initial guess is 1-A1.
 Leave Link  401 at Thu Jan 31 04:55:46 2019, MaxMem=    33554432 cpu:         4.3
 (Enter /home/proyectos/fulerenos/M3C-v2.0/M3C-deps_CCC/g09-AM64L-G09RevC.01/l502.exe)
 Closed shell SCF:
 Using DIIS extrapolation, IDIIS=  1040.
 Integral symmetry usage will be decided dynamically.
 IVT=      202249 IEndB=      202249 NGot=    33554432 MDV=    33429094
 LenX=    33429094 LenY=    33368628
 Requested convergence on RMS density matrix=1.00D-08 within 128 cycles.
 Requested convergence on MAX density matrix=1.00D-06.
 Requested convergence on             energy=1.00D-06.
 No special actions if energy rises.
 Fock matrices will be formed incrementally for  20 cycles.

 Cycle   1  Pass 1  IDiag  1:
 FoFJK:  IHMeth= 1 ICntrl=       0 DoSepK=F KAlg= 0 I1Cent=   0 FoldK=F
 IRaf= 970000000 NMat=   1 IRICut=       1 DoRegI=T DoRafI=F ISym2E= 1.
 FoFCou: FMM=F IPFlag=           0 FMFlag=      100000 FMFlg1=           0
         NFxFlg=           0 DoJE=F BraDBF=F KetDBF=F FulRan=T
         wScrn=  0.000000 ICntrl=       0 IOpCl=  0 I1Cent=           0 NGrid=           0
         NMat0=    1 NMatS0=      1 NMatT0=    0 NMatD0=    1 NMtDS0=    0 NMtDT0=    0
 Petite list used in FoFCou.
 E= -190.514716808748    
 DIIS: error= 2.19D-02 at cycle   1 NSaved=   1.
 NSaved= 1 IEnMin= 1 EnMin= -190.514716808748     IErMin= 1 ErrMin= 2.19D-02
 ErrMax= 2.19D-02  0.00D+00 EMaxC= 1.00D-01 BMatC= 6.21D-02 BMatP= 6.21D-02
 IDIUse=3 WtCom= 7.81D-01 WtEn= 2.19D-01
 Coeff-Com:  0.100D+01
 Coeff-En:   0.100D+01
 Coeff:      0.100D+01
 Gap=     0.086 Goal=   None    Shift=    0.000
 GapD=    0.086 DampG=0.500 DampE=0.500 DampFc=0.2500 IDamp=-1.
 Damping current iteration by 2.50D-01
 RMSDP=3.77D-03 MaxDP=1.33D-01              OVMax= 2.66D-01

 Cycle   2  Pass 1  IDiag  1:
 RMSU=  9.41D-04    CP:  9.99D-01
 E= -190.530386876137     Delta-E=       -0.015670067389 Rises=F Damp=T
 DIIS: error= 6.97D-03 at cycle   2 NSaved=   2.
 NSaved= 2 IEnMin= 2 EnMin= -190.530386876137     IErMin= 2 ErrMin= 6.97D-03
 ErrMax= 6.97D-03  0.00D+00 EMaxC= 1.00D-01 BMatC= 1.61D-02 BMatP= 6.21D-02
 IDIUse=3 WtCom= 9.30D-01 WtEn= 6.97D-02
 Coeff-Com: -0.342D+00 0.134D+01
 Coeff-En:   0.138D+00 0.862D+00
 Coeff:     -0.308D+00 0.131D+01
 Gap=     0.146 Goal=   None    Shift=    0.000
 RMSDP=2.48D-03 MaxDP=1.00D-01 DE=-1.57D-02 OVMax= 2.52D-01

 Cycle   3  Pass 1  IDiag  1:
 RMSU=  2.13D-03    CP:  1.05D+00  2.04D+00
 E= -190.543727904829     Delta-E=       -0.013341028692 Rises=F Damp=F
 DIIS: error= 1.75D-02 at cycle   3 NSaved=   3.
 NSaved= 3 IEnMin= 3 EnMin= -190.543727904829     IErMin= 2 ErrMin= 6.97D-03
 ErrMax= 1.75D-02  0.00D+00 EMaxC= 1.00D-01 BMatC= 2.53D-02 BMatP= 1.61D-02
 IDIUse=2 WtCom= 0.00D+00 WtEn= 1.00D+00
 Coeff-En:   0.000D+00 0.253D+00 0.747D+00
 Coeff:      0.000D+00 0.253D+00 0.747D+00
 Gap=     0.115 Goal=   None    Shift=    0.000
 RMSDP=2.51D-03 MaxDP=5.46D-02 DE=-1.33D-02 OVMax= 2.13D-01

 Cycle   4  Pass 1  IDiag  1:
 RMSU=  1.19D-03    CP:  1.02D+00  3.00D+00  1.72D-01
 E= -190.435945564215     Delta-E=        0.107782340614 Rises=F Damp=F
 DIIS: error= 4.49D-02 at cycle   4 NSaved=   4.
 NSaved= 4 IEnMin= 3 EnMin= -190.543727904829     IErMin= 2 ErrMin= 6.97D-03
 ErrMax= 4.49D-02  0.00D+00 EMaxC= 1.00D-01 BMatC= 1.17D-01 BMatP= 1.61D-02
 IDIUse=2 WtCom= 0.00D+00 WtEn= 1.00D+00
 Coeff-En:   0.000D+00 0.000D+00 0.743D+00 0.257D+00
 Coeff:      0.000D+00 0.000D+00 0.743D+00 0.257D+00
 Gap=     0.141 Goal=   None    Shift=    0.000
 RMSDP=1.25D-03 MaxDP=3.48D-02 DE= 1.08D-01 OVMax= 1.03D-01

 Cycle   5  Pass 1  IDiag  1:
 RMSU=  4.50D-04    CP:  1.04D+00  2.63D+00  5.72D-01  7.23D-01
 E= -190.563239356434     Delta-E=       -0.127293792219 Rises=F Damp=F
 DIIS: error= 1.02D-02 at cycle   5 NSaved=   5.
 NSaved= 5 IEnMin= 5 EnMin= -190.563239356434     IErMin= 2 ErrMin= 6.97D-03
 ErrMax= 1.02D-02  0.00D+00 EMaxC= 1.00D-01 BMatC= 9.12D-03 BMatP= 1.61D-02
 IDIUse=3 WtCom= 8.98D-01 WtEn= 1.02D-01
 Coeff-Com: -0.182D+00 0.257D+00 0.293D+00-0.153D+00 0.784D+00
 Coeff-En:   0.000D+00 0.000D+00 0.330D+00 0.000D+00 0.670D+00
 Coeff:     -0.163D+00 0.231D+00 0.297D+00-0.137D+00 0.772D+00
 Gap=     0.149 Goal=   None    Shift=    0.000
 RMSDP=5.39D-04 MaxDP=1.50D-02 DE=-1.27D-01 OVMax= 4.13D-02

 Cycle   6  Pass 1  IDiag  1:
 RMSU=  1.41D-04    CP:  1.04D+00  2.36D+00  7.27D-01  4.68D-01  9.33D-01
 E= -190.573876064384     Delta-E=       -0.010636707950 Rises=F Damp=F
 DIIS: error= 5.11D-04 at cycle   6 NSaved=   6.
 NSaved= 6 IEnMin= 6 EnMin= -190.573876064384     IErMin= 6 ErrMin= 5.11D-04
 ErrMax= 5.11D-04  0.00D+00 EMaxC= 1.00D-01 BMatC= 1.66D-05 BMatP= 9.12D-03
 IDIUse=3 WtCom= 9.95D-01 WtEn= 5.11D-03
 Coeff-Com: -0.185D-01 0.209D-01 0.420D-01-0.194D-01 0.146D+00 0.829D+00
 Coeff-En:   0.000D+00 0.000D+00 0.000D+00 0.000D+00 0.000D+00 0.100D+01
 Coeff:     -0.184D-01 0.208D-01 0.418D-01-0.193D-01 0.145D+00 0.830D+00
 Gap=     0.148 Goal=   None    Shift=    0.000
 RMSDP=3.01D-05 MaxDP=1.54D-03 DE=-1.06D-02 OVMax= 2.44D-03

 Cycle   7  Pass 1  IDiag  1:
 RMSU=  2.08D-05    CP:  1.04D+00  2.37D+00  7.27D-01  4.81D-01  9.33D-01
                    CP:  9.84D-01
 E= -190.573895313174     Delta-E=       -0.000019248790 Rises=F Damp=F
 DIIS: error= 7.84D-05 at cycle   7 NSaved=   7.
 NSaved= 7 IEnMin= 7 EnMin= -190.573895313174     IErMin= 7 ErrMin= 7.84D-05
 ErrMax= 7.84D-05  0.00D+00 EMaxC= 1.00D-01 BMatC= 6.24D-07 BMatP= 1.66D-05
 IDIUse=1 WtCom= 1.00D+00 WtEn= 0.00D+00
 Coeff-Com: -0.423D-02 0.521D-02-0.453D-02-0.149D-02-0.690D-02 0.130D+00
 Coeff-Com:  0.882D+00
 Coeff:     -0.423D-02 0.521D-02-0.453D-02-0.149D-02-0.690D-02 0.130D+00
 Coeff:      0.882D+00
 Gap=     0.148 Goal=   None    Shift=    0.000
 RMSDP=6.30D-06 MaxDP=2.51D-04 DE=-1.92D-05 OVMax= 4.92D-04

 Cycle   8  Pass 1  IDiag  1:
 RMSU=  4.84D-06    CP:  1.04D+00  2.37D+00  7.27D-01  4.81D-01  9.39D-01
                    CP:  9.97D-01  1.02D+00
 E= -190.573896067981     Delta-E=       -0.000000754808 Rises=F Damp=F
 DIIS: error= 1.30D-05 at cycle   8 NSaved=   8.
 NSaved= 8 IEnMin= 8 EnMin= -190.573896067981     IErMin= 8 ErrMin= 1.30D-05
 ErrMax= 1.30D-05  0.00D+00 EMaxC= 1.00D-01 BMatC= 2.00D-08 BMatP= 6.24D-07
 IDIUse=1 WtCom= 1.00D+00 WtEn= 0.00D+00
 Coeff-Com: -0.225D-03 0.434D-03-0.204D-02 0.793D-03-0.855D-02-0.229D-01
 Coeff-Com:  0.730D-01 0.959D+00
 Coeff:     -0.225D-03 0.434D-03-0.204D-02 0.793D-03-0.855D-02-0.229D-01
 Coeff:      0.730D-01 0.959D+00
 Gap=     0.148 Goal=   None    Shift=    0.000
 RMSDP=1.80D-06 MaxDP=7.24D-05 DE=-7.55D-07 OVMax= 1.37D-04

 Cycle   9  Pass 1  IDiag  1:
 RMSU=  9.02D-07    CP:  1.04D+00  2.37D+00  7.27D-01  4.80D-01  9.40D-01
                    CP:  1.00D+00  1.07D+00  1.04D+00
 E= -190.573896101314     Delta-E=       -0.000000033333 Rises=F Damp=F
 DIIS: error= 4.64D-06 at cycle   9 NSaved=   9.
 NSaved= 9 IEnMin= 9 EnMin= -190.573896101314     IErMin= 9 ErrMin= 4.64D-06
 ErrMax= 4.64D-06  0.00D+00 EMaxC= 1.00D-01 BMatC= 1.07D-09 BMatP= 2.00D-08
 IDIUse=1 WtCom= 1.00D+00 WtEn= 0.00D+00
 Coeff-Com:  0.519D-04-0.585D-04 0.903D-04 0.321D-04-0.399D-03-0.904D-02
 Coeff-Com: -0.403D-01 0.101D+00 0.949D+00
 Coeff:      0.519D-04-0.585D-04 0.903D-04 0.321D-04-0.399D-03-0.904D-02
 Coeff:     -0.403D-01 0.101D+00 0.949D+00
 Gap=     0.148 Goal=   None    Shift=    0.000
 RMSDP=4.73D-07 MaxDP=1.50D-05 DE=-3.33D-08 OVMax= 3.79D-05

 Cycle  10  Pass 1  IDiag  1:
 RMSU=  1.99D-07    CP:  1.04D+00  2.37D+00  7.28D-01  4.80D-01  9.40D-01
                    CP:  1.00D+00  1.08D+00  1.09D+00  9.49D-01
 E= -190.573896103088     Delta-E=       -0.000000001774 Rises=F Damp=F
 DIIS: error= 6.01D-07 at cycle  10 NSaved=  10.
 NSaved=10 IEnMin=10 EnMin= -190.573896103088     IErMin=10 ErrMin= 6.01D-07
 ErrMax= 6.01D-07  0.00D+00 EMaxC= 1.00D-01 BMatC= 3.78D-11 BMatP= 1.07D-09
 IDIUse=1 WtCom= 1.00D+00 WtEn= 0.00D+00
 Coeff-Com:  0.438D-04-0.581D-04 0.905D-04-0.213D-04 0.243D-03-0.138D-02
 Coeff-Com: -0.108D-01-0.149D-01 0.236D+00 0.790D+00
 Coeff:      0.438D-04-0.581D-04 0.905D-04-0.213D-04 0.243D-03-0.138D-02
 Coeff:     -0.108D-01-0.149D-01 0.236D+00 0.790D+00
 Gap=     0.148 Goal=   None    Shift=    0.000
 RMSDP=7.98D-08 MaxDP=4.00D-06 DE=-1.77D-09 OVMax= 3.24D-06

 Cycle  11  Pass 1  IDiag  1:
 RMSU=  3.88D-08    CP:  1.04D+00  2.37D+00  7.28D-01  4.80D-01  9.40D-01
                    CP:  1.00D+00  1.08D+00  1.09D+00  9.73D-01  8.70D-01
 E= -190.573896103134     Delta-E=       -0.000000000047 Rises=F Damp=F
 DIIS: error= 9.78D-08 at cycle  11 NSaved=  11.
 NSaved=11 IEnMin=11 EnMin= -190.573896103134     IErMin=11 ErrMin= 9.78D-08
 ErrMax= 9.78D-08  0.00D+00 EMaxC= 1.00D-01 BMatC= 1.43D-12 BMatP= 3.78D-11
 IDIUse=1 WtCom= 1.00D+00 WtEn= 0.00D+00
 Coeff-Com:  0.777D-05-0.111D-04 0.277D-04-0.121D-04 0.109D-03 0.117D-03
 Coeff-Com: -0.918D-03-0.654D-02 0.206D-01 0.169D+00 0.818D+00
 Coeff:      0.777D-05-0.111D-04 0.277D-04-0.121D-04 0.109D-03 0.117D-03
 Coeff:     -0.918D-03-0.654D-02 0.206D-01 0.169D+00 0.818D+00
 Gap=     0.148 Goal=   None    Shift=    0.000
 RMSDP=1.34D-08 MaxDP=5.13D-07 DE=-4.68D-11 OVMax= 3.16D-07

 Cycle  12  Pass 1  IDiag  1:
 RMSU=  8.05D-09    CP:  1.04D+00  2.37D+00  7.28D-01  4.80D-01  9.40D-01
                    CP:  1.00D+00  1.08D+00  1.09D+00  9.69D-01  8.97D-01
                    CP:  1.05D+00
 E= -190.573896103139     Delta-E=       -0.000000000004 Rises=F Damp=F
 DIIS: error= 3.02D-08 at cycle  12 NSaved=  12.
 NSaved=12 IEnMin=12 EnMin= -190.573896103139     IErMin=12 ErrMin= 3.02D-08
 ErrMax= 3.02D-08  0.00D+00 EMaxC= 1.00D-01 BMatC= 7.83D-14 BMatP= 1.43D-12
 IDIUse=1 WtCom= 1.00D+00 WtEn= 0.00D+00
 Coeff-Com:  0.995D-06-0.144D-05 0.284D-05-0.169D-05 0.144D-04 0.826D-04
 Coeff-Com:  0.189D-03-0.527D-03-0.610D-02-0.102D-03 0.143D+00 0.864D+00
 Coeff:      0.995D-06-0.144D-05 0.284D-05-0.169D-05 0.144D-04 0.826D-04
 Coeff:      0.189D-03-0.527D-03-0.610D-02-0.102D-03 0.143D+00 0.864D+00
 Gap=     0.148 Goal=   None    Shift=    0.000
 RMSDP=3.53D-09 MaxDP=1.77D-07 DE=-4.09D-12 OVMax= 2.06D-07

 SCF Done:  E(RB3LYP) =  -190.573896103     A.U. after   12 cycles
            NFock= 12  Conv=0.35D-08     -V/T= 2.0044
 KE= 1.897389919010D+02 PE=-6.595061585237D+02 EE= 1.628772707458D+02
 Leave Link  502 at Thu Jan 31 04:56:37 2019, MaxMem=    33554432 cpu:       183.4
 (Enter /home/proyectos/fulerenos/M3C-v2.0/M3C-deps_CCC/g09-AM64L-G09RevC.01/l801.exe)
 DoSCS=F DFT=T ScalE2(SS,OS)=  1.000000  1.000000
 Range of M.O.s used for correlation:     1   214
 NBasis=   215 NAE=    15 NBE=    15 NFC=     0 NFV=     0
 NROrb=    214 NOA=    15 NOB=    15 NVA=   199 NVB=   199

 **** Warning!!: The largest alpha MO coefficient is  0.13525927D+03

 Leave Link  801 at Thu Jan 31 04:56:38 2019, MaxMem=    33554432 cpu:         0.1
 (Enter /home/proyectos/fulerenos/M3C-v2.0/M3C-deps_CCC/g09-AM64L-G09RevC.01/l1101.exe)
 Using compressed storage, NAtomX=     7.
 Will process      8 centers per pass.
 Leave Link 1101 at Thu Jan 31 04:56:38 2019, MaxMem=    33554432 cpu:         2.5
 (Enter /home/proyectos/fulerenos/M3C-v2.0/M3C-deps_CCC/g09-AM64L-G09RevC.01/l1102.exe)
 Symmetrizing basis deriv contribution to polar:
 IMax=3 JMax=2 DiffMx= 0.00D+00
 Leave Link 1102 at Thu Jan 31 04:56:39 2019, MaxMem=    33554432 cpu:         0.4
 (Enter /home/proyectos/fulerenos/M3C-v2.0/M3C-deps_CCC/g09-AM64L-G09RevC.01/l1110.exe)
 Forming Gx(P) for the SCF density, NAtomX=     7.
 Integral derivatives from FoFJK, PRISM(SPDF).
 Do as many integral derivatives as possible in FoFJK.
 G2DrvN: MDV=      33554272.
 G2DrvN: will do     8 centers at a time, making    1 passes.
 Calling FoFCou, ICntrl=  3107 FMM=F I1Cent=   0 AccDes= 0.00D+00.
 FoFJK:  IHMeth= 1 ICntrl=    3107 DoSepK=F KAlg= 0 I1Cent=   0 FoldK=F
 IRaf=         0 NMat=   1 IRICut=       1 DoRegI=T DoRafI=F ISym2E= 1.
 FoFCou: FMM=F IPFlag=           0 FMFlag=      100000 FMFlg1=           0
         NFxFlg=           0 DoJE=F BraDBF=F KetDBF=F FulRan=T
         wScrn=  0.000000 ICntrl=    3107 IOpCl=  0 I1Cent=           0 NGrid=           0
         NMat0=    1 NMatS0=      1 NMatT0=    0 NMatD0=    1 NMtDS0=    0 NMtDT0=    0
 Petite list used in FoFCou.
 End of G2Drv F.D. properties file   721 does not exist.
 End of G2Drv F.D. properties file   722 does not exist.
 End of G2Drv F.D. properties file   788 does not exist.
 Leave Link 1110 at Thu Jan 31 04:57:13 2019, MaxMem=    33554432 cpu:       122.4
 (Enter /home/proyectos/fulerenos/M3C-v2.0/M3C-deps_CCC/g09-AM64L-G09RevC.01/l1002.exe)
 Minotr:  Closed shell wavefunction.
          IDoAtm=1111111
          Direct CPHF calculation.
          Differentiating once with respect to electric field.
                with respect to dipole field.
          Differentiating once with respect to nuclear coordinates.
          Using symmetry in CPHF.
          Requested convergence is 1.0D-08 RMS, and 1.0D-07 maximum.
          Secondary convergence is 1.0D-12 RMS, and 1.0D-12 maximum.
          NewPWx=T KeepS1=F KeepF1=F KeepIn=T MapXYZ=F SortEE=F KeepMc=T.
          MDV=      33554144 using IRadAn=       2.
 Generate precomputed XC quadrature information.
          Solving linear equations simultaneously, MaxMat=       0.
 FoFJK:  IHMeth= 1 ICntrl=       0 DoSepK=F KAlg= 0 I1Cent=   0 FoldK=F
 IRaf= 970000000 NMat=  15 IRICut=      37 DoRegI=T DoRafI=T ISym2E= 2.
 FoFCou: FMM=F IPFlag=           0 FMFlag=      100000 FMFlg1=           0
         NFxFlg=           0 DoJE=F BraDBF=F KetDBF=F FulRan=T
         wScrn=  0.000000 ICntrl=       0 IOpCl=  0 I1Cent=           0 NGrid=           0
         NMat0=   15 NMatS0=     15 NMatT0=    0 NMatD0=   15 NMtDS0=    0 NMtDT0=    0
 Integrals replicated using symmetry in FoFCou.
          There are    15 degrees of freedom in the 1st order CPHF.  IDoFFX=4 NUNeed=    15.
     15 vectors produced by pass  0 Test12= 1.99D-14 6.67D-09 XBig12= 3.13D+02 1.34D+01.
 AX will form    15 AO Fock derivatives at one time.
     15 vectors produced by pass  1 Test12= 1.99D-14 6.67D-09 XBig12= 1.16D+02 4.80D+00.
     15 vectors produced by pass  2 Test12= 1.99D-14 6.67D-09 XBig12= 2.43D+00 4.00D-01.
     15 vectors produced by pass  3 Test12= 1.99D-14 6.67D-09 XBig12= 4.47D-02 6.53D-02.
     15 vectors produced by pass  4 Test12= 1.99D-14 6.67D-09 XBig12= 2.13D-04 2.84D-03.
     15 vectors produced by pass  5 Test12= 1.99D-14 6.67D-09 XBig12= 9.01D-07 1.48D-04.
     12 vectors produced by pass  6 Test12= 1.99D-14 6.67D-09 XBig12= 1.73D-09 5.65D-06.
      4 vectors produced by pass  7 Test12= 1.99D-14 6.67D-09 XBig12= 3.13D-12 2.94D-07.
      3 vectors produced by pass  8 Test12= 1.99D-14 6.67D-09 XBig12= 1.39D-13 8.18D-08.
      1 vectors produced by pass  9 Test12= 1.99D-14 6.67D-09 XBig12= 1.70D-15 1.20D-08.
 InvSVY:  IOpt=1 It=  1 EMax= 5.33D-15
 Solved reduced A of dimension   110 with    15 vectors.
 FullF1:  Do perturbations    1 to    15.
 Isotropic polarizability for W=    0.000000       48.78 Bohr**3.
 End of Minotr F.D. properties file   721 does not exist.
 End of Minotr F.D. properties file   722 does not exist.
 End of Minotr F.D. properties file   788 does not exist.
 Leave Link 1002 at Thu Jan 31 05:00:00 2019, MaxMem=    33554432 cpu:       616.0
 (Enter /home/proyectos/fulerenos/M3C-v2.0/M3C-deps_CCC/g09-AM64L-G09RevC.01/l601.exe)
 Copying SCF densities to generalized density rwf, IOpCl= 0 IROHF=0.

 **********************************************************************

            Population analysis using the SCF density.

 **********************************************************************

 Orbital symmetries:
       Occupied  (A1) (B1) (A1) (A1) (B1) (A1) (B1) (A1) (A1) (B1)
                 (A1) (B2) (B1) (A1) (A2)
       Virtual   (B2) (B1) (A1) (B2) (A2) (B1) (A1) (B1) (A1) (A1)
                 (B1) (B2) (B1) (A1) (A1) (A2) (B2) (A1) (B1) (B2)
                 (B1) (A1) (A2) (A1) (B1) (A1) (B1) (A1) (B2) (A1)
                 (A2) (B1) (B1) (A1) (B1) (A1) (B2) (A1) (A1) (B2)
                 (B1) (A2) (A1) (B1) (A2) (A1) (B2) (B2) (A2) (A1)
                 (B1) (A1) (B1) (B2) (A1) (B1) (B1) (A1) (A2) (B1)
                 (A1) (B2) (A1) (B2) (B1) (A2) (B1) (A1) (B1) (A1)
                 (B1) (A2) (A1) (B1) (B2) (A1) (B1) (A1) (A2) (B2)
                 (B1) (A1) (A1) (B1) (A2) (B1) (A1) (B2) (A1) (B1)
                 (B2) (A1) (B1) (A2) (B1) (A1) (A2) (A1) (B2) (B1)
                 (A2) (A1) (B2) (B1) (A1) (A1) (B2) (B1) (A2) (A1)
                 (B2) (A1) (B1) (A2) (B1) (B2) (A1) (A2) (B2) (A1)
                 (B1) (A1) (B1) (B2) (A1) (B2) (A2) (A2) (B1) (B1)
                 (A1) (B2) (A2) (B1) (A1) (A1) (B1) (B2) (B1) (A1)
                 (B1) (B1) (B2) (A1) (A2) (A1) (B1) (A2) (A1) (B1)
                 (B1) (B2) (A1) (B2) (A2) (A1) (B1) (A1) (A2) (B1)
                 (A1) (B1) (B2) (A1) (B1) (A2) (B1) (A1) (B1) (B2)
                 (A2) (A1) (B1) (A2) (A1) (B2) (B2) (B1) (A1) (B2)
                 (A2) (A2) (B1) (A1) (A1) (B2) (B1) (A2) (A1) (A1)
                 (B1) (B1) (A1) (B1) (A1) (A1) (B1) (B1) (A1)
 The electronic state is 1-A1.
 Alpha  occ. eigenvalues --  -10.81697 -10.78343 -10.78340 -10.73720 -10.73670
 Alpha  occ. eigenvalues --   -1.41695  -1.28102  -1.22542  -1.03049  -1.02830
 Alpha  occ. eigenvalues --   -0.99465  -0.89650  -0.86193  -0.78838  -0.77547
 Alpha virt. eigenvalues --   -0.62717  -0.62196  -0.59692  -0.48514  -0.38374
 Alpha virt. eigenvalues --   -0.33342  -0.31741  -0.31264  -0.30940  -0.26023
 Alpha virt. eigenvalues --   -0.25562  -0.25260  -0.23074  -0.22705  -0.22281
 Alpha virt. eigenvalues --   -0.20450  -0.18659  -0.18081  -0.17986  -0.15816
 Alpha virt. eigenvalues --   -0.13425  -0.13259  -0.12847  -0.12715  -0.11538
 Alpha virt. eigenvalues --   -0.10188  -0.09780  -0.08157  -0.05752  -0.05596
 Alpha virt. eigenvalues --   -0.05564  -0.05122  -0.02924  -0.00071   0.01220
 Alpha virt. eigenvalues --    0.01423   0.04681   0.07479   0.07816   0.08555
 Alpha virt. eigenvalues --    0.08683   0.08903   0.09049   0.10620   0.11553
 Alpha virt. eigenvalues --    0.12101   0.14108   0.15580   0.15748   0.16280
 Alpha virt. eigenvalues --    0.16496   0.16997   0.20394   0.21941   0.23642
 Alpha virt. eigenvalues --    0.24187   0.24824   0.30526   0.31227   0.32124
 Alpha virt. eigenvalues --    0.33250   0.36803   0.40316   0.42086   0.44153
 Alpha virt. eigenvalues --    0.44700   0.48885   0.49659   0.53483   0.54275
 Alpha virt. eigenvalues --    0.60765   0.62242   0.67858   0.71763   0.76169
 Alpha virt. eigenvalues --    0.76318   0.79287   0.81509   0.83344   0.87227
 Alpha virt. eigenvalues --    0.89027   0.92062   0.95570   0.95707   1.04871
 Alpha virt. eigenvalues --    1.04998   1.06141   1.07288   1.11272   1.12151
 Alpha virt. eigenvalues --    1.13546   1.13851   1.14497   1.15374   1.18436
 Alpha virt. eigenvalues --    1.18898   1.31148   1.34840   1.36300   1.36335
 Alpha virt. eigenvalues --    1.43612   1.51049   1.57431   1.62779   1.75643
 Alpha virt. eigenvalues --    1.85703   1.97086   1.98369   2.00783   2.03397
 Alpha virt. eigenvalues --    2.10739   2.12478   2.15857   2.15867   2.20030
 Alpha virt. eigenvalues --    2.20765   2.23153   2.25826   2.27812   2.28828
 Alpha virt. eigenvalues --    2.29210   2.33040   2.35949   2.37346   2.43199
 Alpha virt. eigenvalues --    2.44202   2.44802   2.46931   2.50315   2.53722
 Alpha virt. eigenvalues --    2.55073   2.57344   2.60928   2.65338   2.67716
 Alpha virt. eigenvalues --    2.73246   2.75444   2.77850   2.78752   2.81867
 Alpha virt. eigenvalues --    2.89776   2.93289   2.95132   3.11260   3.12168
 Alpha virt. eigenvalues --    3.14539   3.23621   3.36429   3.42364   3.53355
 Alpha virt. eigenvalues --    3.60750   3.65731   3.72323   3.73530   3.77310
 Alpha virt. eigenvalues --    3.78246   3.80730   4.03228   4.12303   4.19097
 Alpha virt. eigenvalues --    4.40885   4.57860   4.65442   4.81999   5.34482
 Alpha virt. eigenvalues --    5.58510   5.65358   5.66267   6.00525   6.39156
 Alpha virt. eigenvalues --    6.43583   6.44041   6.47302   6.47556   6.49145
 Alpha virt. eigenvalues --    6.51003   6.69560   6.70686   6.72664   6.75997
 Alpha virt. eigenvalues --    6.76898   6.81364   6.82752   6.86685   7.03022
 Alpha virt. eigenvalues --    7.05234   7.12186   7.17133   7.18338   7.43051
 Alpha virt. eigenvalues --    7.61158   7.97649   8.12700   8.21589  23.34906
 Alpha virt. eigenvalues --   23.62576  24.30062  25.94418  26.05038
          Condensed to atoms (all electrons):
               1          2          3          4          5          6
     1  C    6.111111  -0.749269  -0.330074   0.235561  -0.256737  -0.004086
     2  C   -0.749269   7.428308   0.063873  -0.330074  -0.239789   0.001403
     3  C   -0.330074   0.063873   7.428308  -0.749269  -0.239789  -0.022288
     4  C    0.235561  -0.330074  -0.749269   6.111111  -0.256737   0.317123
     5  C   -0.256737  -0.239789  -0.239789  -0.256737   6.950201  -0.001567
     6  H   -0.004086   0.001403  -0.022288   0.317123  -0.001567   0.256464
     7  H    0.317123  -0.022288   0.001403  -0.004086  -0.001567   0.000152
               7
     1  C    0.317123
     2  C   -0.022288
     3  C    0.001403
     4  C   -0.004086
     5  C   -0.001567
     6  H    0.000152
     7  H    0.256464
 Mulliken charges:
               1
     1  C    0.676372
     2  C   -0.152164
     3  C   -0.152164
     4  C    0.676372
     5  C    0.045985
     6  H    0.452799
     7  H    0.452799
 Sum of Mulliken charges =   2.00000
 Mulliken charges with hydrogens summed into heavy atoms:
               1
     1  C    1.129171
     2  C   -0.152164
     3  C   -0.152164
     4  C    1.129171
     5  C    0.045985
 APT charges:
               1
     1  C    0.574917
     2  C   -0.447726
     3  C   -0.447726
     4  C    0.574917
     5  C    0.907214
     6  H    0.419201
     7  H    0.419201
 Sum of APT charges =   2.00000
 APT charges with hydrogens summed into heavy atoms:
               1
     1  C    0.994119
     2  C   -0.447726
     3  C   -0.447726
     4  C    0.994119
     5  C    0.907214
 Electronic spatial extent (au):  <R**2>=            306.1044
 Charge=              2.0000 electrons
 Dipole moment (field-independent basis, Debye):
    X=              0.0000    Y=              0.0000    Z=             -1.9328  Tot=              1.9328
 Quadrupole moment (field-independent basis, Debye-Ang):
   XX=             19.6540   YY=            -24.1982   ZZ=            -19.6668
   XY=             -0.0000   XZ=             -0.0000   YZ=             -0.0000
 Traceless Quadrupole moment (field-independent basis, Debye-Ang):
   XX=             27.7243   YY=            -16.1279   ZZ=            -11.5964
   XY=             -0.0000   XZ=             -0.0000   YZ=             -0.0000
 Octapole moment (field-independent basis, Debye-Ang**2):
  XXX=              0.0000  YYY=              0.0000  ZZZ=             -3.8919  XYY=              0.0000
  XXY=              0.0000  XXZ=            -24.4118  XZZ=              0.0000  YZZ=              0.0000
  YYZ=             -0.1375  XYZ=              0.0000
 Hexadecapole moment (field-independent basis, Debye-Ang**3):
 XXXX=             51.2769 YYYY=            -22.8853 ZZZZ=            -78.3496 XXXY=             -0.0000
 XXXZ=             -0.0000 YYYX=              0.0000 YYYZ=             -0.0000 ZZZX=             -0.0000
 ZZZY=             -0.0000 XXYY=            -54.2935 XXZZ=            -46.3110 YYZZ=            -16.2576
 XXYZ=             -0.0000 YYXZ=              0.0000 ZZXY=              0.0000
 N-N= 1.163159997738D+02 E-N=-6.595061585505D+02  KE= 1.897389919010D+02
 Symmetry A1   KE= 1.117551449886D+02
 Symmetry A2   KE= 2.633013130098D+00
 Symmetry B1   KE= 7.310224842253D+01
 Symmetry B2   KE= 2.248585359814D+00
  Exact polarizability:  83.276   0.000  24.387  -0.000  -0.000  38.686
 Approx polarizability: 234.811  -0.000  36.976  -0.000   0.000  90.535
 No NMR shielding tensors so no spin-rotation constants.
 Leave Link  601 at Thu Jan 31 05:00:01 2019, MaxMem=    33554432 cpu:         1.8
 (Enter /home/proyectos/fulerenos/M3C-v2.0/M3C-deps_CCC/g09-AM64L-G09RevC.01/l701.exe)
 Compute integral second derivatives.
 ... and contract with generalized density number  0.
 Leave Link  701 at Thu Jan 31 05:00:01 2019, MaxMem=    33554432 cpu:         2.2
 (Enter /home/proyectos/fulerenos/M3C-v2.0/M3C-deps_CCC/g09-AM64L-G09RevC.01/l702.exe)
 L702 exits ... SP integral derivatives will be done elsewhere.
 Leave Link  702 at Thu Jan 31 05:00:01 2019, MaxMem=    33554432 cpu:         0.1
 (Enter /home/proyectos/fulerenos/M3C-v2.0/M3C-deps_CCC/g09-AM64L-G09RevC.01/l703.exe)
 Compute integral second derivatives, UseDBF=F ICtDFT=           0.
 Integral derivatives from FoFJK, PRISM(SPDF).
 Calling FoFJK, ICntrl=    100127 FMM=F ISym2X=1 I1Cent= 0 IOpClX= 0 NMat=1 NMatS=1 NMatT=0.
 FoFJK:  IHMeth= 1 ICntrl=  100127 DoSepK=F KAlg= 0 I1Cent=   0 FoldK=F
 IRaf=         0 NMat=   1 IRICut=       1 DoRegI=T DoRafI=F ISym2E= 1.
 FoFCou: FMM=F IPFlag=           0 FMFlag=      100000 FMFlg1=         800
         NFxFlg=           0 DoJE=F BraDBF=F KetDBF=F FulRan=T
         wScrn=  0.000000 ICntrl=  100127 IOpCl=  0 I1Cent=           0 NGrid=           0
         NMat0=    1 NMatS0=      1 NMatT0=    0 NMatD0=    1 NMtDS0=    0 NMtDT0=    0
 Petite list used in FoFCou.
 Leave Link  703 at Thu Jan 31 05:01:09 2019, MaxMem=    33554432 cpu:       263.9
 (Enter /home/proyectos/fulerenos/M3C-v2.0/M3C-deps_CCC/g09-AM64L-G09RevC.01/l716.exe)
 Dipole        = 5.33149913D-14 2.30058537D-17-7.60426676D-01
 Polarizability= 8.32759060D+01 1.49372698D-09 2.43869504D+01
                -6.15974738D-08-4.96641060D-09 3.86857636D+01
 Full mass-weighted force constant matrix:
 Low frequencies ---   -6.3294   -3.3783   -0.0006    0.0008    0.0016    1.9303
 Low frequencies ---  112.8057  222.4444  225.2851
 Diagonal vibrational polarizability:
       29.9501291      20.0674205     119.1151247
 Harmonic frequencies (cm**-1), IR intensities (KM/Mole), Raman scattering
 activities (A**4/AMU), depolarization ratios for plane and unpolarized
 incident light, reduced masses (AMU), force constants (mDyne/A),
 and normal coordinates:
                      1                      2                      3
                     A1                     B1                     B2
 Frequencies --    112.8057               222.4444               225.2850
 Red. masses --      3.1933                 4.1790                 3.9697
 Frc consts  --      0.0239                 0.1218                 0.1187
 IR Inten    --     52.3555                 6.5512                31.2095
  Atom  AN      X      Y      Z        X      Y      Z        X      Y      Z
     1   6    -0.07   0.00   0.21    -0.04  -0.00  -0.13     0.00  -0.19   0.00
     2   6     0.02  -0.00  -0.20    -0.11   0.00   0.27     0.00   0.30  -0.00
     3   6    -0.02   0.00  -0.20    -0.11   0.00  -0.27     0.00   0.30   0.00
     4   6     0.07  -0.00   0.21    -0.04  -0.00   0.13     0.00  -0.19  -0.00
     5   6     0.00   0.00  -0.12     0.29  -0.00   0.00    -0.00  -0.12  -0.00
     6   1     0.13  -0.00   0.62     0.02  -0.00   0.60    -0.00  -0.60  -0.00
     7   1    -0.13   0.00   0.62     0.02  -0.00  -0.60    -0.00  -0.60   0.00
                      4                      5                      6
                     A2                     B1                     A1
 Frequencies --    398.9994               558.1213               689.8416
 Red. masses --      6.7417                10.9557                 8.4428
 Frc consts  --      0.6324                 2.0107                 2.3672
 IR Inten    --      0.0000               197.7354               108.5050
  Atom  AN      X      Y      Z        X      Y      Z        X      Y      Z
     1   6    -0.00  -0.12   0.00    -0.16   0.00  -0.10     0.29  -0.00  -0.06
     2   6    -0.00   0.50   0.00    -0.14  -0.00  -0.45     0.23   0.00  -0.23
     3   6     0.00  -0.50   0.00    -0.14  -0.00   0.45    -0.23  -0.00  -0.23
     4   6     0.00   0.12   0.00    -0.16   0.00   0.10    -0.29   0.00  -0.06
     5   6     0.00   0.00  -0.00     0.62   0.00   0.00    -0.00   0.00   0.53
     6   1     0.00   0.49  -0.00    -0.18  -0.00  -0.13    -0.27  -0.00   0.30
     7   1    -0.00  -0.49  -0.00    -0.18  -0.00   0.13     0.27   0.00   0.30
                      7                      8                      9
                     A2                     B2                     A1
 Frequencies --    708.9020               713.6491               892.9781
 Red. masses --      1.2692                 1.3018                 4.0118
 Frc consts  --      0.3758                 0.3906                 1.8848
 IR Inten    --      0.0000                66.5984                45.2434
  Atom  AN      X      Y      Z        X      Y      Z        X      Y      Z
     1   6     0.00   0.10  -0.00     0.00  -0.10   0.00    -0.23   0.00  -0.15
     2   6     0.00  -0.03  -0.00     0.00   0.05  -0.00    -0.14   0.00  -0.04
     3   6    -0.00   0.03  -0.00    -0.00   0.05   0.00     0.14  -0.00  -0.04
     4   6    -0.00  -0.10  -0.00    -0.00  -0.10  -0.00     0.23  -0.00  -0.15
     5   6     0.00  -0.00   0.00    -0.00  -0.01   0.00    -0.00   0.00   0.29
     6   1    -0.00   0.70   0.00     0.00   0.70   0.00     0.34   0.00   0.50
     7   1     0.00  -0.70   0.00     0.00   0.70  -0.00    -0.34  -0.00   0.50
                     10                     11                     12
                     B1                     A1                     B1
 Frequencies --    904.7132               919.7809              1778.4886
 Red. masses --      1.4034                 1.6868                 5.6193
 Frc consts  --      0.6768                 0.8408                10.4722
 IR Inten    --     10.4756                 0.6862               820.9031
  Atom  AN      X      Y      Z        X      Y      Z        X      Y      Z
     1   6    -0.01   0.00   0.12     0.08   0.00  -0.09    -0.30  -0.00  -0.06
     2   6     0.01  -0.00  -0.06     0.03   0.00   0.09     0.34   0.00   0.04
     3   6     0.01  -0.00   0.06    -0.03  -0.00   0.09     0.34   0.00  -0.04
     4   6    -0.01   0.00  -0.12    -0.08  -0.00  -0.09    -0.30  -0.00   0.06
     5   6    -0.02   0.00   0.00     0.00   0.00  -0.12     0.02  -0.00   0.00
     6   1     0.11  -0.00   0.69     0.02   0.00   0.68    -0.52   0.00   0.13
     7   1     0.11  -0.00  -0.69    -0.02  -0.00   0.68    -0.52   0.00  -0.13
                     13                     14                     15
                     A1                     B1                     A1
 Frequencies --   2021.1244              3157.8451              3162.6032
 Red. masses --      6.7325                 1.1579                 1.1547
 Frc consts  --     16.2037                 6.8033                 6.8046
 IR Inten    --    102.3435               732.0506                12.7347
  Atom  AN      X      Y      Z        X      Y      Z        X      Y      Z
     1   6    -0.23   0.00  -0.05    -0.08  -0.00  -0.01     0.08  -0.00   0.01
     2   6     0.44  -0.00   0.08     0.02   0.00   0.00    -0.02  -0.00  -0.00
     3   6    -0.44   0.00   0.08     0.02   0.00  -0.00     0.02   0.00  -0.00
     4   6     0.23  -0.00  -0.05    -0.08  -0.00   0.01    -0.08   0.00   0.01
     5   6     0.00   0.00  -0.03     0.00  -0.00   0.00    -0.00  -0.00   0.00
     6   1     0.48   0.00  -0.10     0.70   0.00  -0.10     0.70  -0.00  -0.10
     7   1    -0.48  -0.00  -0.10     0.70   0.00   0.10    -0.70   0.00  -0.10

 -------------------
 - Thermochemistry -
 -------------------
 Temperature   298.150 Kelvin.  Pressure   1.00000 Atm.
 Atom     1 has atomic number  6 and mass  12.00000
 Atom     2 has atomic number  6 and mass  12.00000
 Atom     3 has atomic number  6 and mass  12.00000
 Atom     4 has atomic number  6 and mass  12.00000
 Atom     5 has atomic number  6 and mass  12.00000
 Atom     6 has atomic number  1 and mass   1.00783
 Atom     7 has atomic number  1 and mass   1.00783
 Molecular mass:    62.01565 amu.
 Principal axes and moments of inertia in atomic units:
                           1         2         3
     Eigenvalues --    85.77952 424.08451 509.86403
           X            1.00000   0.00000   0.00000
           Y           -0.00000   0.00000   1.00000
           Z            0.00000   1.00000  -0.00000
 This molecule is an asymmetric top.
 Rotational symmetry number  2.
 Rotational temperatures (Kelvin)      1.00973     0.20424     0.16988
 Rotational constants (GHZ):          21.03930     4.25562     3.53965
 Zero-point vibrational energy      98498.0 (Joules/Mol)
                                   23.54159 (Kcal/Mol)
 Warning -- explicit consideration of   5 degrees of freedom as
           vibrations may cause significant error
 Vibrational temperatures:    162.30   320.05   324.13   574.07   803.01
          (Kelvin)            992.53  1019.95  1026.78  1284.79  1301.68
                             1323.36  2558.85  2907.94  4543.43  4550.27
 
 Zero-point correction=                           0.037516 (Hartree/Particle)
 Thermal correction to Energy=                    0.043096
 Thermal correction to Enthalpy=                  0.044040
 Thermal correction to Gibbs Free Energy=         0.010194
 Sum of electronic and zero-point Energies=           -190.536380
 Sum of electronic and thermal Energies=              -190.530800
 Sum of electronic and thermal Enthalpies=            -190.529856
 Sum of electronic and thermal Free Energies=         -190.563702
 
                     E (Thermal)             CV                S
                      KCal/Mol        Cal/Mol-Kelvin    Cal/Mol-Kelvin
 Total                   27.043             18.084             71.236
 Electronic               0.000              0.000              0.000
 Translational            0.889              2.981             38.294
 Rotational               0.889              2.981             23.054
 Vibrational             25.266             12.122              9.888
 Vibration     1          0.607              1.939              3.220
 Vibration     2          0.648              1.807              1.939
 Vibration     3          0.650              1.803              1.916
 Vibration     4          0.765              1.472              0.966
 Vibration     5          0.914              1.122              0.528
                       Q            Log10(Q)             Ln(Q)
 Total Bot       0.204767D-04         -4.688740        -10.796223
 Total V=0       0.369271D+13         12.567345         28.937381
 Vib (Bot)       0.437614D-16        -16.358909        -37.667779
 Vib (Bot)    1  0.181452D+01          0.258762          0.595821
 Vib (Bot)    2  0.888313D+00         -0.051434         -0.118432
 Vib (Bot)    3  0.876051D+00         -0.057471         -0.132332
 Vib (Bot)    4  0.447035D+00         -0.349658         -0.805118
 Vib (Bot)    5  0.278984D+00         -0.554421         -1.276602
 Vib (V=0)       0.789180D+01          0.897176          2.065824
 Vib (V=0)    1  0.238215D+01          0.376969          0.868003
 Vib (V=0)    2  0.151936D+01          0.181661          0.418291
 Vib (V=0)    3  0.150869D+01          0.178601          0.411245
 Vib (V=0)    4  0.117070D+01          0.068446          0.157603
 Vib (V=0)    5  0.107257D+01          0.030424          0.070054
 Electronic      0.100000D+01          0.000000          0.000000
 Translational   0.191958D+08          7.283207         16.770204
 Rotational      0.243760D+05          4.386962         10.101352
 
                                                              b3lyp opt
                                                             IR Spectrum
 
     33                                            2         1                                                                       
     11                                            0         7                                 998     776    5     3      22   1    
     65                                            2         7                                 209     109    5     9      22   1    
     38                                            1         8                                 053     490    8     9      52   3    
 
     XX                                            X         X                                 XXX     X X    X            XX   X    
      X                                            X         X                                         X X    X                      
      X                                                      X                                           X    X                      
      X                                                      X                                                X                      
      X                                                      X                                                X                      
      X                                                      X                                                                       
      X                                                      X                                                                       
      X                                                      X                                                                       
      X                                                      X                                                                       
      X                                                      X                                                                       
      X                                                      X                                                                       
      X                                                      X                                                                       
      X                                                      X                                                                       
      X                                                      X                                                                       
      X                                                      X                                                                       
      X                                                      X                                                                       
      X                                                      X                                                                       
      X                                                      X                                                                       
                                                             X                                                                       
                                                             X                                                                       
 
 ***** Axes restored to original set *****
 -------------------------------------------------------------------
 Center     Atomic                   Forces (Hartrees/Bohr)
 Number     Number              X              Y              Z
 -------------------------------------------------------------------
      1        6           0.000016254   -0.000004322    0.000000000
      2        6          -0.000049433    0.000000559    0.000000000
      3        6           0.000049433    0.000000608    0.000000000
      4        6          -0.000016250   -0.000004339    0.000000000
      5        6          -0.000000005    0.000009475   -0.000000000
      6        1          -0.000003910   -0.000000992   -0.000000000
      7        1           0.000003911   -0.000000988   -0.000000000
 -------------------------------------------------------------------
 Cartesian Forces:  Max     0.000049433 RMS     0.000016295
 Z-matrix is all fixed cartesians, so copy forces.
 Force constants in Cartesian coordinates: 
                1             2             3             4             5 
      1  0.113908D+01
      2 -0.194145D+00  0.129853D+00
      3  0.000000D+00  0.000000D+00  0.509524D-01
      4 -0.744941D+00  0.142162D+00  0.000000D+00  0.108955D+01
      5  0.102049D+00 -0.555316D-01  0.000000D+00 -0.160444D+00  0.114149D+00
      6  0.000000D+00  0.000000D+00 -0.299891D-01  0.000000D+00  0.000000D+00
      7 -0.244324D-01 -0.102123D-01  0.000000D+00 -0.343895D+00  0.633751D-01
      8  0.308052D-01 -0.294866D-02  0.000000D+00 -0.637273D-01  0.993728D-02
      9  0.000000D+00  0.000000D+00 -0.785114D-04  0.000000D+00  0.000000D+00
     10  0.133690D-01 -0.487305D-02  0.000000D+00 -0.244119D-01 -0.308266D-01
     11  0.488739D-02 -0.104447D-02  0.000000D+00  0.101910D-01 -0.296917D-02
     12  0.000000D+00  0.000000D+00  0.831061D-03  0.000000D+00  0.000000D+00
     13 -0.311905D-01  0.223305D-01  0.000000D+00  0.971887D-03  0.331871D-01
     14  0.211382D-01 -0.218315D-01  0.000000D+00  0.622746D-01 -0.860376D-01
     15  0.000000D+00  0.000000D+00  0.302716D-02  0.000000D+00  0.000000D+00
     16 -0.132271D-02  0.647697D-03  0.000000D+00  0.365297D-02 -0.190160D-02
     17 -0.418673D-03 -0.374565D-04  0.000000D+00 -0.387461D-03  0.937160D-03
     18  0.000000D+00  0.000000D+00  0.157039D-03  0.000000D+00  0.000000D+00
     19 -0.350566D+00  0.440900D-01  0.000000D+00  0.190756D-01 -0.543856D-02
     20  0.356842D-01 -0.484588D-01  0.000000D+00  0.993105D-02  0.195155D-01
     21  0.000000D+00  0.000000D+00 -0.249000D-01  0.000000D+00  0.000000D+00
                6             7             8             9            10 
      6  0.456509D-01
      7  0.000000D+00  0.108923D+01
      8  0.000000D+00  0.161415D+00  0.114469D+00
      9 -0.226555D-01  0.000000D+00  0.000000D+00  0.456509D-01
     10  0.000000D+00 -0.744697D+00 -0.102735D+00  0.000000D+00  0.113870D+01
     11  0.000000D+00 -0.142848D+00 -0.557753D-01  0.000000D+00  0.195149D+00
     12 -0.785114D-04  0.000000D+00  0.000000D+00 -0.299891D-01  0.000000D+00
     13  0.000000D+00  0.106680D-02 -0.331004D-01  0.000000D+00 -0.311472D-01
     14  0.000000D+00 -0.621880D-01 -0.861325D-01  0.000000D+00 -0.211475D-01
     15 -0.310005D-02  0.000000D+00  0.000000D+00 -0.310005D-02  0.000000D+00
     16  0.000000D+00  0.190801D-01  0.543813D-02  0.000000D+00 -0.350487D+00
     17  0.000000D+00 -0.993148D-02  0.195110D-01  0.000000D+00 -0.359848D-01
     18  0.351524D-02  0.000000D+00  0.000000D+00  0.665702D-02  0.000000D+00
     19  0.000000D+00  0.365069D-02  0.190430D-02  0.000000D+00 -0.132248D-02
     20  0.000000D+00  0.390162D-03  0.939440D-03  0.000000D+00  0.417394D-03
     21  0.665702D-02  0.000000D+00  0.000000D+00  0.351524D-02  0.000000D+00
               11            12            13            14            15 
     11  0.130240D+00
     12  0.000000D+00  0.509524D-01
     13 -0.223397D-01  0.000000D+00  0.677797D-01
     14 -0.218748D-01  0.000000D+00 -0.745134D-04  0.217538D+00
     15  0.000000D+00  0.302716D-02  0.000000D+00  0.000000D+00  0.993812D-03
     16 -0.443906D-01  0.000000D+00 -0.373995D-02 -0.374759D-02  0.000000D+00
     17 -0.485384D-01  0.000000D+00  0.291346D-02 -0.831356D-03  0.000000D+00
     18  0.000000D+00 -0.249000D-01  0.000000D+00  0.000000D+00 -0.424011D-03
     19 -0.648976D-03  0.000000D+00 -0.374078D-02  0.374469D-02  0.000000D+00
     20 -0.376857D-04  0.000000D+00 -0.291636D-02 -0.830528D-03  0.000000D+00
     21  0.000000D+00  0.157039D-03  0.000000D+00  0.000000D+00 -0.424011D-03
               16            17            18            19            20 
     16  0.334002D+00
     17  0.438822D-01  0.286204D-01
     18  0.000000D+00  0.000000D+00  0.151436D-01
     19 -0.118540D-02 -0.732923D-04  0.000000D+00  0.334089D+00
     20  0.717756D-04  0.338649D-03  0.000000D+00 -0.435782D-01  0.285334D-01
     21  0.000000D+00  0.000000D+00 -0.148918D-03  0.000000D+00  0.000000D+00
               21 
     21  0.151436D-01
 Leave Link  716 at Thu Jan 31 05:01:09 2019, MaxMem=    33554432 cpu:         0.3
 (Enter /home/proyectos/fulerenos/M3C-v2.0/M3C-deps_CCC/g09-AM64L-G09RevC.01/l103.exe)

 GradGradGradGradGradGradGradGradGradGradGradGradGradGradGradGradGradGrad
 Berny optimization.
 Search for a local minimum.
 Step number   1 out of a maximum of    2
 All quantities printed in internal units (Hartrees-Bohrs-Radians)
 Second derivative matrix not updated -- analytic derivatives used.
 ITU=  0
     Eigenvalues ---    0.00172   0.00816   0.01062   0.03312   0.07903
     Eigenvalues ---    0.09211   0.11697   0.12031   0.14570   0.14665
     Eigenvalues ---    0.27786   0.39153   0.73184   1.83912   2.11491
 Angle between quadratic step and forces=  81.28 degrees.
 ClnCor:  largest displacement from symmetrization is 7.93D-12 for atom     7.
 Linear search not attempted -- first point.
 ClnCor:  largest displacement from symmetrization is 4.58D-16 for atom     1.
 B after Tr=     0.000000   -0.000044    0.000000
         Rot=    1.000000   -0.000000    0.000000    0.000000 Ang=   0.00 deg.
 Variable       Old X    -DE/DX   Delta X   Delta X   Delta X     New X
                                 (Linear)    (Quad)   (Total)
    X1        3.63279   0.00002   0.00000   0.00002   0.00002   3.63281
    Y1       -0.77991  -0.00000   0.00000   0.00006   0.00002  -0.77989
    Z1       -0.00005   0.00000   0.00000   0.00000   0.00000  -0.00005
    X2        1.32949  -0.00005   0.00000  -0.00006  -0.00006   1.32944
    Y2       -0.22706   0.00000   0.00000  -0.00015  -0.00020  -0.22726
    Z2       -0.00005   0.00000   0.00000  -0.00000   0.00000  -0.00005
    X3       -1.32918   0.00005   0.00000   0.00006   0.00006  -1.32912
    Y3       -0.22838   0.00000   0.00000  -0.00015  -0.00020  -0.22858
    Z3       -0.00005   0.00000   0.00000   0.00000  -0.00000  -0.00005
    X4       -3.63192  -0.00002   0.00000  -0.00002  -0.00002  -3.63194
    Y4       -0.78352  -0.00000   0.00000   0.00006   0.00002  -0.78351
    Z4       -0.00005   0.00000   0.00000  -0.00000  -0.00000  -0.00005
    X5       -0.00114  -0.00000   0.00000   0.00000   0.00000  -0.00114
    Y5        2.37417   0.00001   0.00000  -0.00003  -0.00008   2.37409
    Z5       -0.00005  -0.00000   0.00000  -0.00000   0.00000  -0.00005
    X6       -5.67886  -0.00000   0.00000  -0.00006  -0.00006  -5.67891
    Y6       -1.07121  -0.00000   0.00000   0.00026   0.00022  -1.07100
    Z6       -0.00005  -0.00000   0.00000  -0.00000  -0.00000  -0.00005
    X7        5.68001   0.00000   0.00000   0.00005   0.00005   5.68007
    Y7       -1.06556  -0.00000   0.00000   0.00026   0.00022  -1.06535
    Z7       -0.00005  -0.00000   0.00000   0.00000   0.00000  -0.00005
         Item               Value     Threshold  Converged?
 Maximum Force            0.000049     0.000450     YES
 RMS     Force            0.000016     0.000300     YES
 Maximum Displacement     0.000217     0.001800     YES
 RMS     Displacement     0.000095     0.001200     YES
 Predicted change in Energy=-2.560115D-09
 Optimization completed.
    -- Stationary point found.
 GradGradGradGradGradGradGradGradGradGradGradGradGradGradGradGradGradGrad

 Leave Link  103 at Thu Jan 31 05:01:09 2019, MaxMem=    33554432 cpu:         0.2
 (Enter /home/proyectos/fulerenos/M3C-v2.0/M3C-deps_CCC/g09-AM64L-G09RevC.01/l9999.exe)

 Test job not archived.
 1\1\GINC-COPERNICIO\Freq\RB3LYP\6-311++G(3df,2p)\C5H2(2+)\ROOT\31-Jan-
 2019\0\\#p b3lyp/6-311++G(3df,2p) freq IOp(2/17=3) IOp(2/18=3)\\b3lyp 
 opt\\2,1\C,1.922390733,-0.412710008,-0.0000247824\C,0.703538353,-0.120
 155033,-0.0000247824\C,-0.7033698198,-0.1208550778,-0.0000247824\C,-1.
 9219304592,-0.4146228528,-0.0000247824\C,-0.0006008269,1.256354963,-0.
 0000247824\H,-3.005122005,-0.566862301,-0.0000247824\H,3.005733244,-0.
 5638714392,-0.0000247824\\Version=EM64L-G09RevE.01\State=1-A1\HF=-190.
 5738961\RMSD=3.533e-09\RMSF=1.629e-05\ZeroPoint=0.0375159\Thermal=0.04
 30962\Dipole=0.0003784,-0.7604266,0.\DipoleDeriv=0.7929887,-0.2223076,
 0.,-0.1040601,0.5294001,0.,0.,0.,0.4023626,-1.1429503,0.4741752,0.,1.0
 952167,-0.4282142,0.,0.,0.,0.2279871,-1.1413878,-0.4748849,0.,-1.09592
 64,-0.4297767,0.,0.,0.,0.2279871,0.7926637,0.2225696,0.,0.1043221,0.52
 97252,0.,0.,0.,0.4023626,1.1239793,-0.0001256,0.,-0.0001255,1.3763437,
 0.,0.,0.,0.2213202,0.7872479,0.1126248,0.,0.0995883,0.2113663,0.,0.,0.
 ,0.2589902,0.7874585,-0.1120515,0.,-0.099015,0.2111557,0.,0.,0.,0.2589
 902\Polar=83.2758949,0.0221871,38.6857747,0.,0.,24.3869504\PG=C02V [C2
 (C1),SGV'(C4H2)]\NImag=0\\1.13908364,-0.19414510,0.12985251,0.,0.,0.05
 095235,-0.74494082,0.14216228,0.,1.08954776,0.10204874,-0.05553164,0.,
 -0.16044420,0.11414851,0.,0.,-0.02998908,0.,0.,0.04565092,-0.02443244,
 -0.01021233,0.,-0.34389546,0.06337515,0.,1.08922747,0.03080523,-0.0029
 4866,0.,-0.06372726,0.00993728,0.,0.16141456,0.11446881,0.,0.,-0.00007
 851,0.,0.,-0.02265554,0.,0.,0.04565092,0.01336901,-0.00487305,0.,-0.02
 441193,-0.03082659,0.,-0.74469711,-0.10273457,0.,1.13869624,0.00488739
 ,-0.00104447,0.,0.01019097,-0.00296917,0.,-0.14284810,-0.05577535,0.,0
 .19514906,0.13023991,0.,0.,0.00083106,0.,0.,-0.00007851,0.,0.,-0.02998
 908,0.,0.,0.05095235,-0.03119048,0.02233047,0.,0.00097189,0.03318707,0
 .,0.00106680,-0.03310039,0.,-0.03114722,-0.02233974,0.,0.06777973,0.02
 113823,-0.02183153,0.,0.06227464,-0.08603761,0.,-0.06218795,-0.0861325
 3,0.,-0.02114750,-0.02187480,0.,-0.00007451,0.21753835,0.,0.,0.0030271
 6,0.,0.,-0.00310005,0.,0.,-0.00310005,0.,0.,0.00302716,0.,0.,0.0009938
 1,-0.00132271,0.00064770,0.,0.00365297,-0.00190160,0.,0.01908006,0.005
 43813,0.,-0.35048650,-0.04439061,0.,-0.00373995,-0.00374759,0.,0.33400
 153,-0.00041867,-0.00003746,0.,-0.00038746,0.00093716,0.,-0.00993148,0
 .01951101,0.,-0.03598475,-0.04853844,0.,0.00291346,-0.00083136,0.,0.04
 388219,0.02862044,0.,0.,0.00015704,0.,0.,0.00351524,0.,0.,0.00665702,0
 .,0.,-0.02490002,0.,0.,-0.00042401,0.,0.,0.01514364,-0.35056619,0.0440
 9004,0.,0.01907559,-0.00543856,0.,0.00365069,0.00190430,0.,-0.00132248
 ,-0.00064898,0.,-0.00374078,0.00374469,0.,-0.00118540,-0.00007329,0.,0
 .33408857,0.03568419,-0.04845875,0.,0.00993105,0.01951548,0.,0.0003901
 6,0.00093944,0.,0.00041739,-0.00003769,0.,-0.00291636,-0.00083053,0.,0
 .00007178,0.00033865,0.,-0.04357820,0.02853340,0.,0.,-0.02490002,0.,0.
 ,0.00665702,0.,0.,0.00351524,0.,0.,0.00015704,0.,0.,-0.00042401,0.,0.,
 -0.00014892,0.,0.,0.01514364\\-0.00001625,0.00000432,0.,0.00004943,-0.
 00000056,0.,-0.00004943,-0.00000061,0.,0.00001625,0.00000434,0.,0.,-0.
 00000947,0.,0.00000391,0.00000099,0.,-0.00000391,0.00000099,0.\\\@


 You can't act like a skunk without someone's getting wind of it.
 -- Lorene Workman
 Job cpu time:       0 days  0 hours 20 minutes  2.5 seconds.
 File lengths (MBytes):  RWF=     26 Int=      0 D2E=      0 Chk=      4 Scr=      1
 Normal termination of Gaussian 09 at Thu Jan 31 05:01:09 2019.
