 Entering Gaussian System, Link 0=/home/proyectos/fulerenos/M3C-v1.9/M3C-deps_CCC/g09-AM64L-G09RevC.01/g09
 Initial command:
 /home/proyectos/fulerenos/M3C-v1.9/M3C-deps_CCC/g09-AM64L-G09RevC.01/l1.exe "/scratch/naguirre/gaussian/Gau-27140.inp" -scrdir="/scratch/naguirre/gaussian/"
 Entering Link 1 = /home/proyectos/fulerenos/M3C-v1.9/M3C-deps_CCC/g09-AM64L-G09RevC.01/l1.exe PID=     27148.
  
 Copyright (c) 1988,1990,1992,1993,1995,1998,2003,2009,2015,
            Gaussian, Inc.  All Rights Reserved.
  
 This is part of the Gaussian(R) 09 program.  It is based on
 the Gaussian(R) 03 system (copyright 2003, Gaussian, Inc.),
 the Gaussian(R) 98 system (copyright 1998, Gaussian, Inc.),
 the Gaussian(R) 94 system (copyright 1995, Gaussian, Inc.),
 the Gaussian 92(TM) system (copyright 1992, Gaussian, Inc.),
 the Gaussian 90(TM) system (copyright 1990, Gaussian, Inc.),
 the Gaussian 88(TM) system (copyright 1988, Gaussian, Inc.),
 the Gaussian 86(TM) system (copyright 1986, Carnegie Mellon
 University), and the Gaussian 82(TM) system (copyright 1983,
 Carnegie Mellon University). Gaussian is a federally registered
 trademark of Gaussian, Inc.
  
 This software contains proprietary and confidential information,
 including trade secrets, belonging to Gaussian, Inc.
  
 This software is provided under written license and may be
 used, copied, transmitted, or stored only in accord with that
 written license.
  
 The following legend is applicable only to US Government
 contracts under FAR:
  
                    RESTRICTED RIGHTS LEGEND
  
 Use, reproduction and disclosure by the US Government is
 subject to restrictions as set forth in subparagraphs (a)
 and (c) of the Commercial Computer Software - Restricted
 Rights clause in FAR 52.227-19.
  
 Gaussian, Inc.
 340 Quinnipiac St., Bldg. 40, Wallingford CT 06492
  
  
 ---------------------------------------------------------------
 Warning -- This program may not be used in any manner that
 competes with the business of Gaussian, Inc. or will provide
 assistance to any competitor of Gaussian, Inc.  The licensee
 of this program is prohibited from giving any competitor of
 Gaussian, Inc. access to this program.  By using this program,
 the user acknowledges that Gaussian, Inc. is engaged in the
 business of creating and licensing software in the field of
 computational chemistry and represents and warrants to the
 licensee that it is not a competitor of Gaussian, Inc. and that
 it will not use this program in any manner prohibited above.
 ---------------------------------------------------------------
  

 Cite this work as:
 Gaussian 09, Revision E.01,
 M. J. Frisch, G. W. Trucks, H. B. Schlegel, G. E. Scuseria, 
 M. A. Robb, J. R. Cheeseman, G. Scalmani, V. Barone, B. Mennucci, 
 G. A. Petersson, H. Nakatsuji, M. Caricato, X. Li, H. P. Hratchian, 
 A. F. Izmaylov, J. Bloino, G. Zheng, J. L. Sonnenberg, M. Hada, 
 M. Ehara, K. Toyota, R. Fukuda, J. Hasegawa, M. Ishida, T. Nakajima, 
 Y. Honda, O. Kitao, H. Nakai, T. Vreven, J. A. Montgomery, Jr., 
 J. E. Peralta, F. Ogliaro, M. Bearpark, J. J. Heyd, E. Brothers, 
 K. N. Kudin, V. N. Staroverov, T. Keith, R. Kobayashi, J. Normand, 
 K. Raghavachari, A. Rendell, J. C. Burant, S. S. Iyengar, J. Tomasi, 
 M. Cossi, N. Rega, J. M. Millam, M. Klene, J. E. Knox, J. B. Cross, 
 V. Bakken, C. Adamo, J. Jaramillo, R. Gomperts, R. E. Stratmann, 
 O. Yazyev, A. J. Austin, R. Cammi, C. Pomelli, J. W. Ochterski, 
 R. L. Martin, K. Morokuma, V. G. Zakrzewski, G. A. Voth, 
 P. Salvador, J. J. Dannenberg, S. Dapprich, A. D. Daniels, 
 O. Farkas, J. B. Foresman, J. V. Ortiz, J. Cioslowski, 
 and D. J. Fox, Gaussian, Inc., Wallingford CT, 2013.
 
 ******************************************
 Gaussian 09:  EM64L-G09RevE.01 30-Nov-2015
                19-Jun-2016 
 ******************************************
 %NProcShared=4
 Will use up to    4 processors via shared memory.
 ---------------------------------------------
 #p b3lyp/6-311++G(3df,2p) freq symmetry=Loose
 ---------------------------------------------
 1/10=4,30=1,38=1/1,3;
 2/12=2,17=4,18=3,40=1/2;
 3/5=4,6=6,7=1216,11=2,16=1,25=1,30=1,71=2,74=-5,140=1/1,2,3;
 4//1;
 5/5=2,38=5,98=1/2;
 8/6=4,10=90,11=11/1;
 11/6=1,8=1,9=11,15=111,16=1/1,2,10;
 10/6=1/2;
 6/7=2,8=2,9=2,10=2,18=1,28=1/1;
 7/8=1,10=1,25=1/1,2,3,16;
 1/10=4,30=1/3;
 99//99;
 Leave Link    1 at Sun Jun 19 04:40:13 2016, MaxMem=           0 cpu:         0.3
 (Enter /home/proyectos/fulerenos/M3C-v1.9/M3C-deps_CCC/g09-AM64L-G09RevC.01/l101.exe)
 ---------
 b3lyp opt
 ---------
 Symbolic Z-matrix:
 Charge =  3 Multiplicity = 2
 C                    -1.41619  -0.9974   -0.0003 
 C                    -0.40505   0.12286   0.00022 
 C                     0.9378    0.08668   0.00039 
 C                     2.35379  -0.31921   0.00032 
 C                    -0.87492   1.57818  -0.00091 
 H                    -1.06868  -2.05066   0.00152 
 H                    -2.50352  -0.77568  -0.00221 
 
 NAtoms=      7 NQM=        7 NQMF=       0 NMMI=      0 NMMIF=      0
                NMic=       0 NMicF=      0.
                    Isotopes and Nuclear Properties:
 (Nuclear quadrupole moments (NQMom) in fm**2, nuclear magnetic moments (NMagM)
  in nuclear magnetons)

  Atom         1           2           3           4           5           6           7
 IAtWgt=          12          12          12          12          12           1           1
 AtmWgt=  12.0000000  12.0000000  12.0000000  12.0000000  12.0000000   1.0078250   1.0078250
 NucSpn=           0           0           0           0           0           1           1
 AtZEff=   0.0000000   0.0000000   0.0000000   0.0000000   0.0000000   0.0000000   0.0000000
 NQMom=    0.0000000   0.0000000   0.0000000   0.0000000   0.0000000   0.0000000   0.0000000
 NMagM=    0.0000000   0.0000000   0.0000000   0.0000000   0.0000000   2.7928460   2.7928460
 AtZNuc=   6.0000000   6.0000000   6.0000000   6.0000000   6.0000000   1.0000000   1.0000000
 Leave Link  101 at Sun Jun 19 04:40:13 2016, MaxMem=    33554432 cpu:         0.2
 (Enter /home/proyectos/fulerenos/M3C-v1.9/M3C-deps_CCC/g09-AM64L-G09RevC.01/l103.exe)

 GradGradGradGradGradGradGradGradGradGradGradGradGradGradGradGradGradGrad
 Berny optimization.
 Initialization pass.
 Trust Radius=3.00D-01 FncErr=1.00D-07 GrdErr=1.00D-07
 Number of steps in this run=      2 maximum allowed number of steps=      2.
 GradGradGradGradGradGradGradGradGradGradGradGradGradGradGradGradGradGrad

 Leave Link  103 at Sun Jun 19 04:40:13 2016, MaxMem=    33554432 cpu:         0.1
 (Enter /home/proyectos/fulerenos/M3C-v1.9/M3C-deps_CCC/g09-AM64L-G09RevC.01/l202.exe)
                          Input orientation:                          
 ---------------------------------------------------------------------
 Center     Atomic      Atomic             Coordinates (Angstroms)
 Number     Number       Type             X           Y           Z
 ---------------------------------------------------------------------
      1          6           0       -1.416192   -0.997399   -0.000297
      2          6           0       -0.405051    0.122861    0.000221
      3          6           0        0.937795    0.086680    0.000385
      4          6           0        2.353793   -0.319211    0.000322
      5          6           0       -0.874921    1.578180   -0.000906
      6          1           0       -1.068677   -2.050660    0.001524
      7          1           0       -2.503522   -0.775682   -0.002211
 ---------------------------------------------------------------------
                    Distance matrix (angstroms):
                    1          2          3          4          5
     1  C    0.000000
     2  C    1.509102   0.000000
     3  C    2.591618   1.343333   0.000000
     4  C    3.830499   2.794038   1.473023   0.000000
     5  C    2.631840   1.529291   2.347448   3.744955   0.000000
     6  H    1.109112   2.272574   2.931579   3.835521   3.634010
     7  H    1.109707   2.282754   3.547723   4.878717   2.862343
                    6          7
     6  H    0.000000
     7  H    1.919469   0.000000
 Stoichiometry    C5H2(3+,2)
 Framework group  C1[X(C5H2)]
 Deg. of freedom    15
 Full point group                 C1      NOp   1
 Largest Abelian subgroup         C1      NOp   1
 Largest concise Abelian subgroup C1      NOp   1
                         Standard orientation:                         
 ---------------------------------------------------------------------
 Center     Atomic      Atomic             Coordinates (Angstroms)
 Number     Number       Type             X           Y           Z
 ---------------------------------------------------------------------
      1          6           0        1.416331   -0.997226    0.000156
      2          6           0        0.405046    0.122903   -0.000444
      3          6           0       -0.937795    0.086549   -0.000229
      4          6           0       -2.353741   -0.319525    0.000350
      5          6           0        0.874728    1.578283    0.000089
      6          1           0        1.068952   -2.050533   -0.001233
      7          1           0        2.503633   -0.775369    0.001702
 ---------------------------------------------------------------------
 Rotational constants (GHZ):     10.5760602      4.2193502      3.0160777
 Leave Link  202 at Sun Jun 19 04:40:14 2016, MaxMem=    33554432 cpu:         0.0
 (Enter /home/proyectos/fulerenos/M3C-v1.9/M3C-deps_CCC/g09-AM64L-G09RevC.01/l301.exe)
 Standard basis: 6-311++G(3df,2p) (5D, 7F)
 Ernie: Thresh=  0.10000D-02 Tol=  0.10000D-05 Strict=F.
 There are   245 symmetry adapted cartesian basis functions of A   symmetry.
 There are   215 symmetry adapted basis functions of A   symmetry.
   215 basis functions,   314 primitive gaussians,   245 cartesian basis functions
    15 alpha electrons       14 beta electrons
       nuclear repulsion energy       106.0051406050 Hartrees.
 IExCor=  402 DFT=T Ex+Corr=B3LYP ExCW=0 ScaHFX=  0.200000
 ScaDFX=  0.800000  0.720000  1.000000  0.810000 ScalE2=  1.000000  1.000000
 IRadAn=      0 IRanWt=     -1 IRanGd=            0 ICorTp=0 IEmpDi=  4
 NAtoms=    7 NActive=    7 NUniq=    7 SFac= 1.00D+00 NAtFMM=   60 NAOKFM=F Big=F
 Integral buffers will be    131072 words long.
 Raffenetti 2 integral format.
 Two-electron integral symmetry is turned on.
 Leave Link  301 at Sun Jun 19 04:40:14 2016, MaxMem=    33554432 cpu:         0.2
 (Enter /home/proyectos/fulerenos/M3C-v1.9/M3C-deps_CCC/g09-AM64L-G09RevC.01/l302.exe)
 NPDir=0 NMtPBC=     1 NCelOv=     1 NCel=       1 NClECP=     1 NCelD=      1
         NCelK=      1 NCelE2=     1 NClLst=     1 CellRange=     0.0.
 One-electron integrals computed using PRISM.
 NBasis=   215 RedAO= T EigKep=  2.84D-06  NBF=   215
 NBsUse=   215 1.00D-06 EigRej= -1.00D+00 NBFU=   215
 Precomputing XC quadrature grid using
 IXCGrd= 4 IRadAn=           0 IRanWt=          -1 IRanGd=           0 AccXCQ= 0.00D+00.
 Generated NRdTot=       0 NPtTot=           0 NUsed=           0 NTot=          32
 NSgBfM=   245   245   245   245   245 MxSgAt=     7 MxSgA2=     7.
 Leave Link  302 at Sun Jun 19 04:40:14 2016, MaxMem=    33554432 cpu:         1.1
 (Enter /home/proyectos/fulerenos/M3C-v1.9/M3C-deps_CCC/g09-AM64L-G09RevC.01/l303.exe)
 DipDrv:  MaxL=1.
 Leave Link  303 at Sun Jun 19 04:40:14 2016, MaxMem=    33554432 cpu:         0.1
 (Enter /home/proyectos/fulerenos/M3C-v1.9/M3C-deps_CCC/g09-AM64L-G09RevC.01/l401.exe)
 ExpMin= 3.60D-02 ExpMax= 4.56D+03 ExpMxC= 6.82D+02 IAcc=3 IRadAn=         5 AccDes= 0.00D+00
 Harris functional with IExCor=  402 and IRadAn=       5 diagonalized for initial guess.
 HarFok:  IExCor=  402 AccDes= 0.00D+00 IRadAn=         5 IDoV= 1 UseB2=F ITyADJ=14
 ICtDFT=  3500011 ScaDFX=  1.000000  1.000000  1.000000  1.000000
 FoFCou: FMM=F IPFlag=           0 FMFlag=      100000 FMFlg1=           0
         NFxFlg=           0 DoJE=T BraDBF=F KetDBF=T FulRan=T
         wScrn=  0.000000 ICntrl=     500 IOpCl=  0 I1Cent=   200000004 NGrid=           0
         NMat0=    1 NMatS0=      1 NMatT0=    0 NMatD0=    1 NMtDS0=    0 NMtDT0=    0
 Petite list used in FoFCou.
 Harris En= -190.548536894934    
 JPrj=0 DoOrth=F DoCkMO=F.
 Initial guess <Sx>= 0.0000 <Sy>= 0.0000 <Sz>= 0.5000 <S**2>= 0.7500 S= 0.5000
 Leave Link  401 at Sun Jun 19 04:40:16 2016, MaxMem=    33554432 cpu:         8.2
 (Enter /home/proyectos/fulerenos/M3C-v1.9/M3C-deps_CCC/g09-AM64L-G09RevC.01/l502.exe)
 UHF open shell SCF:
 Using DIIS extrapolation, IDIIS=  1040.
 Integral symmetry usage will be decided dynamically.
 IVT=      201851 IEndB=      201851 NGot=    33554432 MDV=    33429492
 LenX=    33429492 LenY=    33369026
 Requested convergence on RMS density matrix=1.00D-08 within 128 cycles.
 Requested convergence on MAX density matrix=1.00D-06.
 Requested convergence on             energy=1.00D-06.
 No special actions if energy rises.
 Fock matrices will be formed incrementally for  20 cycles.

 Cycle   1  Pass 1  IDiag  1:
 FoFJK:  IHMeth= 1 ICntrl=       0 DoSepK=F KAlg= 0 I1Cent=   0 FoldK=F
 IRaf= 980000000 NMat=   1 IRICut=       1 DoRegI=T DoRafI=F ISym2E= 0.
 FoFCou: FMM=F IPFlag=           0 FMFlag=      100000 FMFlg1=           0
         NFxFlg=           0 DoJE=F BraDBF=F KetDBF=F FulRan=T
         wScrn=  0.000000 ICntrl=       0 IOpCl=  1 I1Cent=           0 NGrid=           0
         NMat0=    1 NMatS0=      1 NMatT0=    0 NMatD0=    1 NMtDS0=    0 NMtDT0=    0
 Symmetry not used in FoFCou.
 E= -189.476525859851    
 DIIS: error= 2.00D-02 at cycle   1 NSaved=   1.
 NSaved= 1 IEnMin= 1 EnMin= -189.476525859851     IErMin= 1 ErrMin= 2.00D-02
 ErrMax= 2.00D-02  0.00D+00 EMaxC= 1.00D-01 BMatC= 3.40D-01 BMatP= 3.40D-01
 IDIUse=3 WtCom= 8.00D-01 WtEn= 2.00D-01
 Coeff-Com:  0.100D+01
 Coeff-En:   0.100D+01
 Coeff:      0.100D+01
 Gap=     0.137 Goal=   None    Shift=    0.000
 Gap=     0.097 Goal=   None    Shift=    0.000
 GapD=    0.097 DampG=0.500 DampE=0.500 DampFc=0.2500 IDamp=-1.
 Damping current iteration by 2.50D-01
 RMSDP=1.04D-02 MaxDP=7.02D-01              OVMax= 2.72D-01

 Cycle   2  Pass 1  IDiag  1:
 RMSU=  2.35D-03    CP:  1.07D+00
 E= -189.513072583972     Delta-E=       -0.036546724122 Rises=F Damp=T
 DIIS: error= 9.49D-03 at cycle   2 NSaved=   2.
 NSaved= 2 IEnMin= 2 EnMin= -189.513072583972     IErMin= 2 ErrMin= 9.49D-03
 ErrMax= 9.49D-03  0.00D+00 EMaxC= 1.00D-01 BMatC= 1.32D-01 BMatP= 3.40D-01
 IDIUse=3 WtCom= 9.05D-01 WtEn= 9.49D-02
 Coeff-Com: -0.920D+00 0.192D+01
 Coeff-En:   0.000D+00 0.100D+01
 Coeff:     -0.833D+00 0.183D+01
 Gap=     0.175 Goal=   None    Shift=    0.000
 Gap=     0.206 Goal=   None    Shift=    0.000
 RMSDP=8.78D-03 MaxDP=3.77D-01 DE=-3.65D-02 OVMax= 5.09D-01

 Cycle   3  Pass 1  IDiag  1:
 RMSU=  7.41D-03    CP:  1.31D+00  2.02D+00
 E= -189.468620187089     Delta-E=        0.044452396883 Rises=F Damp=F
 DIIS: error= 3.70D-02 at cycle   3 NSaved=   3.
 NSaved= 3 IEnMin= 2 EnMin= -189.513072583972     IErMin= 2 ErrMin= 9.49D-03
 ErrMax= 3.70D-02  0.00D+00 EMaxC= 1.00D-01 BMatC= 3.52D-01 BMatP= 1.32D-01
 IDIUse=2 WtCom= 0.00D+00 WtEn= 1.00D+00
 Coeff-En:   0.000D+00 0.673D+00 0.327D+00
 Coeff:      0.000D+00 0.673D+00 0.327D+00
 Gap=     0.197 Goal=   None    Shift=    0.000
 Gap=     0.143 Goal=   None    Shift=    0.000
 RMSDP=9.11D-03 MaxDP=3.27D-01 DE= 4.45D-02 OVMax= 4.85D-01

 Cycle   4  Pass 1  IDiag  1:
 RMSU=  3.01D-03    CP:  1.26D+00  3.00D+00 -5.21D-02
 E= -189.441746514496     Delta-E=        0.026873672593 Rises=F Damp=F
 DIIS: error= 3.37D-02 at cycle   4 NSaved=   4.
 NSaved= 4 IEnMin= 2 EnMin= -189.513072583972     IErMin= 2 ErrMin= 9.49D-03
 ErrMax= 3.37D-02  0.00D+00 EMaxC= 1.00D-01 BMatC= 4.66D-01 BMatP= 1.32D-01
 IDIUse=2 WtCom= 0.00D+00 WtEn= 1.00D+00
 Coeff-En:   0.000D+00 0.000D+00 0.529D+00 0.471D+00
 Coeff:      0.000D+00 0.000D+00 0.529D+00 0.471D+00
 Gap=     0.126 Goal=   None    Shift=    0.000
 Gap=     0.133 Goal=   None    Shift=    0.000
 RMSDP=5.01D-03 MaxDP=2.26D-01 DE= 2.69D-02 OVMax= 2.47D-01

 Cycle   5  Pass 1  IDiag  1:
 RMSU=  2.74D-03    CP:  1.31D+00  2.72D+00  4.34D-01  6.16D-01
 E= -189.606431145455     Delta-E=       -0.164684630959 Rises=F Damp=F
 DIIS: error= 5.43D-03 at cycle   5 NSaved=   5.
 NSaved= 5 IEnMin= 5 EnMin= -189.606431145455     IErMin= 5 ErrMin= 5.43D-03
 ErrMax= 5.43D-03  0.00D+00 EMaxC= 1.00D-01 BMatC= 8.70D-03 BMatP= 1.32D-01
 IDIUse=3 WtCom= 9.46D-01 WtEn= 5.43D-02
 Coeff-Com: -0.427D+00 0.565D+00 0.110D+00-0.570D-01 0.808D+00
 Coeff-En:   0.000D+00 0.000D+00 0.000D+00 0.000D+00 0.100D+01
 Coeff:     -0.404D+00 0.535D+00 0.104D+00-0.539D-01 0.819D+00
 Gap=     0.102 Goal=   None    Shift=    0.000
 Gap=     0.112 Goal=   None    Shift=    0.000
 RMSDP=1.28D-03 MaxDP=7.23D-02 DE=-1.65D-01 OVMax= 5.06D-02

 Cycle   6  Pass 1  IDiag  1:
 RMSU=  1.03D-03    CP:  1.32D+00  2.71D+00  4.94D-01  4.49D-01  1.13D+00
 E= -189.609824440386     Delta-E=       -0.003393294930 Rises=F Damp=F
 DIIS: error= 2.62D-03 at cycle   6 NSaved=   6.
 NSaved= 6 IEnMin= 6 EnMin= -189.609824440386     IErMin= 6 ErrMin= 2.62D-03
 ErrMax= 2.62D-03  0.00D+00 EMaxC= 1.00D-01 BMatC= 3.66D-03 BMatP= 8.70D-03
 IDIUse=3 WtCom= 9.74D-01 WtEn= 2.62D-02
 Coeff-Com: -0.302D+00 0.399D+00 0.468D-01-0.609D-01 0.516D+00 0.402D+00
 Coeff-En:   0.000D+00 0.000D+00 0.000D+00 0.000D+00 0.000D+00 0.100D+01
 Coeff:     -0.294D+00 0.388D+00 0.456D-01-0.594D-01 0.502D+00 0.418D+00
 Gap=     0.102 Goal=   None    Shift=    0.000
 Gap=     0.109 Goal=   None    Shift=    0.000
 RMSDP=5.98D-04 MaxDP=2.92D-02 DE=-3.39D-03 OVMax= 2.44D-02

 Cycle   7  Pass 1  IDiag  1:
 RMSU=  5.23D-04    CP:  1.32D+00  2.77D+00  4.66D-01  4.39D-01  1.14D+00
                    CP:  8.64D-01
 E= -189.611431181365     Delta-E=       -0.001606740979 Rises=F Damp=F
 DIIS: error= 9.70D-04 at cycle   7 NSaved=   7.
 NSaved= 7 IEnMin= 7 EnMin= -189.611431181365     IErMin= 7 ErrMin= 9.70D-04
 ErrMax= 9.70D-04  0.00D+00 EMaxC= 1.00D-01 BMatC= 6.08D-04 BMatP= 3.66D-03
 IDIUse=3 WtCom= 9.90D-01 WtEn= 9.70D-03
 Coeff-Com:  0.134D-01-0.123D-01-0.205D-01-0.742D-02-0.171D+00 0.131D+00
 Coeff-Com:  0.107D+01
 Coeff-En:   0.000D+00 0.000D+00 0.000D+00 0.000D+00 0.000D+00 0.000D+00
 Coeff-En:   0.100D+01
 Coeff:      0.133D-01-0.122D-01-0.203D-01-0.735D-02-0.169D+00 0.129D+00
 Coeff:      0.107D+01
 Gap=     0.103 Goal=   None    Shift=    0.000
 Gap=     0.114 Goal=   None    Shift=    0.000
 RMSDP=6.78D-04 MaxDP=3.04D-02 DE=-1.61D-03 OVMax= 4.23D-02

 Cycle   8  Pass 1  IDiag  1:
 RMSU=  3.01D-04    CP:  1.32D+00  2.79D+00  4.54D-01  4.20D-01  1.22D+00
                    CP:  1.26D+00  1.70D+00
 E= -189.612718924151     Delta-E=       -0.001287742786 Rises=F Damp=F
 DIIS: error= 6.45D-04 at cycle   8 NSaved=   8.
 NSaved= 8 IEnMin= 8 EnMin= -189.612718924151     IErMin= 8 ErrMin= 6.45D-04
 ErrMax= 6.45D-04  0.00D+00 EMaxC= 1.00D-01 BMatC= 2.68D-04 BMatP= 6.08D-04
 IDIUse=3 WtCom= 9.94D-01 WtEn= 6.45D-03
 Coeff-Com:  0.117D+00-0.160D+00-0.985D-02 0.177D-01-0.114D+00-0.864D-01
 Coeff-Com: -0.193D+00 0.143D+01
 Coeff-En:   0.000D+00 0.000D+00 0.000D+00 0.000D+00 0.000D+00 0.000D+00
 Coeff-En:   0.000D+00 0.100D+01
 Coeff:      0.116D+00-0.159D+00-0.979D-02 0.176D-01-0.114D+00-0.859D-01
 Coeff:     -0.192D+00 0.143D+01
 Gap=     0.103 Goal=   None    Shift=    0.000
 Gap=     0.113 Goal=   None    Shift=    0.000
 RMSDP=7.35D-04 MaxDP=3.99D-02 DE=-1.29D-03 OVMax= 4.05D-02

 Cycle   9  Pass 1  IDiag  1:
 RMSU=  1.57D-04    CP:  1.31D+00  2.82D+00  4.40D-01  4.35D-01  1.26D+00
                    CP:  1.54D+00  2.54D+00  2.51D+00
 E= -189.613684480943     Delta-E=       -0.000965556792 Rises=F Damp=F
 DIIS: error= 5.51D-04 at cycle   9 NSaved=   9.
 NSaved= 9 IEnMin= 9 EnMin= -189.613684480943     IErMin= 9 ErrMin= 5.51D-04
 ErrMax= 5.51D-04  0.00D+00 EMaxC= 1.00D-01 BMatC= 1.56D-04 BMatP= 2.68D-04
 IDIUse=3 WtCom= 9.94D-01 WtEn= 5.51D-03
 Coeff-Com: -0.222D-01 0.310D-01 0.195D-01-0.659D-02 0.153D+00-0.131D-01
 Coeff-Com: -0.599D+00 0.107D+00 0.133D+01
 Coeff-En:   0.000D+00 0.000D+00 0.000D+00 0.000D+00 0.000D+00 0.000D+00
 Coeff-En:   0.000D+00 0.000D+00 0.100D+01
 Coeff:     -0.220D-01 0.308D-01 0.194D-01-0.655D-02 0.152D+00-0.130D-01
 Coeff:     -0.596D+00 0.107D+00 0.133D+01
 Gap=     0.102 Goal=   None    Shift=    0.000
 Gap=     0.116 Goal=   None    Shift=    0.000
 RMSDP=5.67D-04 MaxDP=3.46D-02 DE=-9.66D-04 OVMax= 2.65D-02

 Cycle  10  Pass 1  IDiag  1:
 RMSU=  2.96D-04    CP:  1.31D+00  2.84D+00  4.32D-01  4.61D-01  1.25D+00
                    CP:  1.63D+00  3.00D+00  3.00D+00  2.27D+00
 E= -189.614146345295     Delta-E=       -0.000461864352 Rises=F Damp=F
 DIIS: error= 2.37D-04 at cycle  10 NSaved=  10.
 NSaved=10 IEnMin=10 EnMin= -189.614146345295     IErMin=10 ErrMin= 2.37D-04
 ErrMax= 2.37D-04  0.00D+00 EMaxC= 1.00D-01 BMatC= 4.74D-05 BMatP= 1.56D-04
 IDIUse=3 WtCom= 9.98D-01 WtEn= 2.37D-03
 Coeff-Com: -0.264D-01 0.379D-01 0.279D-02-0.441D-02 0.548D-01 0.516D-01
 Coeff-Com: -0.406D-02-0.637D+00 0.329D+00 0.120D+01
 Coeff-En:   0.000D+00 0.000D+00 0.000D+00 0.000D+00 0.000D+00 0.000D+00
 Coeff-En:   0.000D+00 0.000D+00 0.000D+00 0.100D+01
 Coeff:     -0.263D-01 0.378D-01 0.278D-02-0.440D-02 0.547D-01 0.515D-01
 Coeff:     -0.405D-02-0.636D+00 0.328D+00 0.120D+01
 Gap=     0.102 Goal=   None    Shift=    0.000
 Gap=     0.117 Goal=   None    Shift=    0.000
 RMSDP=4.47D-04 MaxDP=2.82D-02 DE=-4.62D-04 OVMax= 2.12D-02

 Cycle  11  Pass 1  IDiag  1:
 RMSU=  2.09D-04    CP:  1.30D+00  2.85D+00  4.24D-01  4.86D-01  1.24D+00
                    CP:  1.67D+00  3.00D+00  3.00D+00  3.00D+00  2.14D+00
 E= -189.614312923926     Delta-E=       -0.000166578631 Rises=F Damp=F
 DIIS: error= 1.34D-04 at cycle  11 NSaved=  11.
 NSaved=11 IEnMin=11 EnMin= -189.614312923926     IErMin=11 ErrMin= 1.34D-04
 ErrMax= 1.34D-04  0.00D+00 EMaxC= 1.00D-01 BMatC= 1.75D-05 BMatP= 4.74D-05
 IDIUse=3 WtCom= 9.99D-01 WtEn= 1.34D-03
 Coeff-Com:  0.969D-02-0.140D-01-0.718D-02 0.336D-02-0.228D-01 0.382D-01
 Coeff-Com:  0.141D+00-0.185D+00-0.306D+00 0.417D+00 0.927D+00
 Coeff-En:   0.000D+00 0.000D+00 0.000D+00 0.000D+00 0.000D+00 0.000D+00
 Coeff-En:   0.000D+00 0.000D+00 0.000D+00 0.000D+00 0.100D+01
 Coeff:      0.967D-02-0.140D-01-0.717D-02 0.336D-02-0.228D-01 0.382D-01
 Coeff:      0.141D+00-0.185D+00-0.306D+00 0.416D+00 0.927D+00
 Gap=     0.102 Goal=   None    Shift=    0.000
 Gap=     0.118 Goal=   None    Shift=    0.000
 RMSDP=1.44D-04 MaxDP=1.00D-02 DE=-1.67D-04 OVMax= 7.72D-03

 Cycle  12  Pass 1  IDiag  1:
 RMSU=  5.80D-05    CP:  1.30D+00  2.86D+00  4.23D-01  4.95D-01  1.24D+00
                    CP:  1.70D+00  3.00D+00  3.00D+00  3.00D+00  2.54D+00
                    CP:  1.19D+00
 E= -189.614334137397     Delta-E=       -0.000021213471 Rises=F Damp=F
 DIIS: error= 4.58D-05 at cycle  12 NSaved=  12.
 NSaved=12 IEnMin=12 EnMin= -189.614334137397     IErMin=12 ErrMin= 4.58D-05
 ErrMax= 4.58D-05  0.00D+00 EMaxC= 1.00D-01 BMatC= 1.48D-06 BMatP= 1.75D-05
 IDIUse=1 WtCom= 1.00D+00 WtEn= 0.00D+00
 Coeff-Com:  0.110D-02-0.106D-02 0.775D-04-0.162D-03-0.641D-02-0.137D-01
 Coeff-Com: -0.136D-01 0.145D+00-0.261D-01-0.277D+00-0.205D-01 0.121D+01
 Coeff:      0.110D-02-0.106D-02 0.775D-04-0.162D-03-0.641D-02-0.137D-01
 Coeff:     -0.136D-01 0.145D+00-0.261D-01-0.277D+00-0.205D-01 0.121D+01
 Gap=     0.102 Goal=   None    Shift=    0.000
 Gap=     0.117 Goal=   None    Shift=    0.000
 RMSDP=3.51D-05 MaxDP=1.54D-03 DE=-2.12D-05 OVMax= 2.27D-03

 Cycle  13  Pass 1  IDiag  1:
 RMSU=  2.60D-05    CP:  1.30D+00  2.86D+00  4.23D-01  4.96D-01  1.24D+00
                    CP:  1.69D+00  3.00D+00  3.00D+00  3.00D+00  2.58D+00
                    CP:  1.17D+00  1.31D+00
 E= -189.614336719684     Delta-E=       -0.000002582286 Rises=F Damp=F
 DIIS: error= 2.46D-05 at cycle  13 NSaved=  13.
 NSaved=13 IEnMin=13 EnMin= -189.614336719684     IErMin=13 ErrMin= 2.46D-05
 ErrMax= 2.46D-05  0.00D+00 EMaxC= 1.00D-01 BMatC= 3.09D-07 BMatP= 1.48D-06
 IDIUse=1 WtCom= 1.00D+00 WtEn= 0.00D+00
 Coeff-Com:  0.182D-02-0.250D-02 0.394D-03 0.775D-05-0.321D-02-0.752D-02
 Coeff-Com: -0.114D-01 0.486D-01 0.235D-02-0.708D-01-0.805D-01 0.646D-01
 Coeff-Com:  0.106D+01
 Coeff:      0.182D-02-0.250D-02 0.394D-03 0.775D-05-0.321D-02-0.752D-02
 Coeff:     -0.114D-01 0.486D-01 0.235D-02-0.708D-01-0.805D-01 0.646D-01
 Coeff:      0.106D+01
 Gap=     0.102 Goal=   None    Shift=    0.000
 Gap=     0.117 Goal=   None    Shift=    0.000
 RMSDP=2.03D-05 MaxDP=7.87D-04 DE=-2.58D-06 OVMax= 1.41D-03

 Cycle  14  Pass 1  IDiag  1:
 RMSU=  7.38D-06    CP:  1.30D+00  2.86D+00  4.24D-01  4.96D-01  1.24D+00
                    CP:  1.70D+00  3.00D+00  3.00D+00  3.00D+00  2.62D+00
                    CP:  1.20D+00  1.43D+00  1.34D+00
 E= -189.614337416076     Delta-E=       -0.000000696392 Rises=F Damp=F
 DIIS: error= 1.21D-05 at cycle  14 NSaved=  14.
 NSaved=14 IEnMin=14 EnMin= -189.614337416076     IErMin=14 ErrMin= 1.21D-05
 ErrMax= 1.21D-05  0.00D+00 EMaxC= 1.00D-01 BMatC= 7.85D-08 BMatP= 3.09D-07
 IDIUse=1 WtCom= 1.00D+00 WtEn= 0.00D+00
 Coeff-Com: -0.203D-03 0.233D-03 0.129D-03-0.426D-04 0.142D-02 0.153D-02
 Coeff-Com:  0.591D-02-0.180D-01 0.436D-03 0.307D-01 0.303D-03-0.205D+00
 Coeff-Com: -0.105D+00 0.129D+01
 Coeff:     -0.203D-03 0.233D-03 0.129D-03-0.426D-04 0.142D-02 0.153D-02
 Coeff:      0.591D-02-0.180D-01 0.436D-03 0.307D-01 0.303D-03-0.205D+00
 Coeff:     -0.105D+00 0.129D+01
 Gap=     0.102 Goal=   None    Shift=    0.000
 Gap=     0.117 Goal=   None    Shift=    0.000
 RMSDP=1.14D-05 MaxDP=4.74D-04 DE=-6.96D-07 OVMax= 5.98D-04

 Cycle  15  Pass 1  IDiag  1:
 RMSU=  2.60D-06    CP:  1.30D+00  2.86D+00  4.24D-01  4.95D-01  1.24D+00
                    CP:  1.70D+00  3.00D+00  3.00D+00  3.00D+00  2.62D+00
                    CP:  1.19D+00  1.51D+00  1.65D+00  1.58D+00
 E= -189.614337612364     Delta-E=       -0.000000196288 Rises=F Damp=F
 DIIS: error= 5.49D-06 at cycle  15 NSaved=  15.
 NSaved=15 IEnMin=15 EnMin= -189.614337612364     IErMin=15 ErrMin= 5.49D-06
 ErrMax= 5.49D-06  0.00D+00 EMaxC= 1.00D-01 BMatC= 1.99D-08 BMatP= 7.85D-08
 IDIUse=1 WtCom= 1.00D+00 WtEn= 0.00D+00
 Coeff-Com: -0.540D-03 0.754D-03-0.138D-04-0.493D-04 0.708D-03 0.458D-04
 Coeff-Com:  0.130D-02-0.501D-02 0.159D-02 0.250D-02 0.202D-01-0.137D-02
 Coeff-Com: -0.248D+00-0.648D-03 0.123D+01
 Coeff:     -0.540D-03 0.754D-03-0.138D-04-0.493D-04 0.708D-03 0.458D-04
 Coeff:      0.130D-02-0.501D-02 0.159D-02 0.250D-02 0.202D-01-0.137D-02
 Coeff:     -0.248D+00-0.648D-03 0.123D+01
 Gap=     0.102 Goal=   None    Shift=    0.000
 Gap=     0.117 Goal=   None    Shift=    0.000
 RMSDP=5.32D-06 MaxDP=2.49D-04 DE=-1.96D-07 OVMax= 2.50D-04

 Cycle  16  Pass 1  IDiag  1:
 RMSU=  1.44D-06    CP:  1.30D+00  2.86D+00  4.24D-01  4.95D-01  1.24D+00
                    CP:  1.70D+00  3.00D+00  3.00D+00  3.00D+00  2.62D+00
                    CP:  1.19D+00  1.54D+00  1.77D+00  2.01D+00  1.60D+00
 E= -189.614337656242     Delta-E=       -0.000000043878 Rises=F Damp=F
 DIIS: error= 2.93D-06 at cycle  16 NSaved=  16.
 NSaved=16 IEnMin=16 EnMin= -189.614337656242     IErMin=16 ErrMin= 2.93D-06
 ErrMax= 2.93D-06  0.00D+00 EMaxC= 1.00D-01 BMatC= 4.65D-09 BMatP= 1.99D-08
 IDIUse=1 WtCom= 1.00D+00 WtEn= 0.00D+00
 Coeff-Com:  0.196D-04-0.287D-04 0.227D-04 0.315D-05-0.273D-03-0.125D-02
 Coeff-Com: -0.385D-02 0.831D-02 0.220D-02-0.131D-01 0.809D-03 0.580D-01
 Coeff-Com:  0.498D-01-0.362D+00 0.412D-01 0.122D+01
 Coeff:      0.196D-04-0.287D-04 0.227D-04 0.315D-05-0.273D-03-0.125D-02
 Coeff:     -0.385D-02 0.831D-02 0.220D-02-0.131D-01 0.809D-03 0.580D-01
 Coeff:      0.498D-01-0.362D+00 0.412D-01 0.122D+01
 Gap=     0.103 Goal=   None    Shift=    0.000
 Gap=     0.117 Goal=   None    Shift=    0.000
 RMSDP=2.63D-06 MaxDP=1.06D-04 DE=-4.39D-08 OVMax= 1.26D-04

 Cycle  17  Pass 1  IDiag  1:
 RMSU=  6.69D-07    CP:  1.30D+00  2.86D+00  4.24D-01  4.95D-01  1.24D+00
                    CP:  1.70D+00  3.00D+00  3.00D+00  3.00D+00  2.62D+00
                    CP:  1.19D+00  1.53D+00  1.79D+00  2.18D+00  2.08D+00
                    CP:  1.70D+00
 E= -189.614337666217     Delta-E=       -0.000000009975 Rises=F Damp=F
 DIIS: error= 1.71D-06 at cycle  17 NSaved=  17.
 NSaved=17 IEnMin=17 EnMin= -189.614337666217     IErMin=17 ErrMin= 1.71D-06
 ErrMax= 1.71D-06  0.00D+00 EMaxC= 1.00D-01 BMatC= 1.03D-09 BMatP= 4.65D-09
 IDIUse=1 WtCom= 1.00D+00 WtEn= 0.00D+00
 Coeff-Com:  0.873D-05-0.108D-04 0.243D-04-0.160D-04-0.183D-05 0.816D-04
 Coeff-Com:  0.439D-03 0.673D-03-0.734D-03-0.478D-03-0.429D-02-0.492D-02
 Coeff-Com:  0.401D-01 0.198D-01-0.108D+00-0.257D+00 0.131D+01
 Coeff:      0.873D-05-0.108D-04 0.243D-04-0.160D-04-0.183D-05 0.816D-04
 Coeff:      0.439D-03 0.673D-03-0.734D-03-0.478D-03-0.429D-02-0.492D-02
 Coeff:      0.401D-01 0.198D-01-0.108D+00-0.257D+00 0.131D+01
 Gap=     0.103 Goal=   None    Shift=    0.000
 Gap=     0.117 Goal=   None    Shift=    0.000
 RMSDP=1.69D-06 MaxDP=1.08D-04 DE=-9.98D-09 OVMax= 1.27D-04

 Cycle  18  Pass 1  IDiag  1:
 RMSU=  3.82D-07    CP:  1.30D+00  2.86D+00  4.24D-01  4.95D-01  1.24D+00
                    CP:  1.70D+00  3.00D+00  3.00D+00  3.00D+00  2.62D+00
                    CP:  1.19D+00  1.54D+00  1.79D+00  2.21D+00  2.28D+00
                    CP:  2.13D+00  1.81D+00
 E= -189.614337670293     Delta-E=       -0.000000004076 Rises=F Damp=F
 DIIS: error= 1.03D-06 at cycle  18 NSaved=  18.
 NSaved=18 IEnMin=18 EnMin= -189.614337670293     IErMin=18 ErrMin= 1.03D-06
 ErrMax= 1.03D-06  0.00D+00 EMaxC= 1.00D-01 BMatC= 6.54D-10 BMatP= 1.03D-09
 IDIUse=1 WtCom= 1.00D+00 WtEn= 0.00D+00
 Coeff-Com:  0.501D-04-0.706D-04 0.772D-06 0.461D-05-0.659D-04 0.934D-05
 Coeff-Com:  0.281D-03-0.289D-03-0.204D-03 0.491D-03-0.119D-02-0.318D-02
 Coeff-Com: -0.211D-03 0.300D-01-0.252D-01-0.167D+00 0.144D+00 0.102D+01
 Coeff:      0.501D-04-0.706D-04 0.772D-06 0.461D-05-0.659D-04 0.934D-05
 Coeff:      0.281D-03-0.289D-03-0.204D-03 0.491D-03-0.119D-02-0.318D-02
 Coeff:     -0.211D-03 0.300D-01-0.252D-01-0.167D+00 0.144D+00 0.102D+01
 Gap=     0.103 Goal=   None    Shift=    0.000
 Gap=     0.117 Goal=   None    Shift=    0.000
 RMSDP=7.13D-07 MaxDP=2.72D-05 DE=-4.08D-09 OVMax= 7.25D-05

 Cycle  19  Pass 1  IDiag  1:
 RMSU=  2.11D-07    CP:  1.30D+00  2.86D+00  4.24D-01  4.95D-01  1.24D+00
                    CP:  1.70D+00  3.00D+00  3.00D+00  3.00D+00  2.62D+00
                    CP:  1.19D+00  1.54D+00  1.78D+00  2.25D+00  2.38D+00
                    CP:  2.32D+00  2.33D+00  1.69D+00
 E= -189.614337673179     Delta-E=       -0.000000002886 Rises=F Damp=F
 DIIS: error= 1.16D-06 at cycle  19 NSaved=  19.
 NSaved=19 IEnMin=19 EnMin= -189.614337673179     IErMin=18 ErrMin= 1.03D-06
 ErrMax= 1.16D-06  0.00D+00 EMaxC= 1.00D-01 BMatC= 6.35D-10 BMatP= 6.54D-10
 IDIUse=1 WtCom= 1.00D+00 WtEn= 0.00D+00
 Coeff-Com:  0.575D-04-0.809D-04 0.146D-06 0.573D-05-0.761D-04 0.148D-04
 Coeff-Com:  0.319D-03-0.370D-03-0.232D-03 0.624D-03-0.126D-02-0.375D-02
 Coeff-Com: -0.513D-03 0.342D-01-0.282D-01-0.187D+00 0.152D+00 0.117D+01
 Coeff-Com: -0.140D+00
 Coeff:      0.575D-04-0.809D-04 0.146D-06 0.573D-05-0.761D-04 0.148D-04
 Coeff:      0.319D-03-0.370D-03-0.232D-03 0.624D-03-0.126D-02-0.375D-02
 Coeff:     -0.513D-03 0.342D-01-0.282D-01-0.187D+00 0.152D+00 0.117D+01
 Coeff:     -0.140D+00
 Gap=     0.103 Goal=   None    Shift=    0.000
 Gap=     0.117 Goal=   None    Shift=    0.000
 RMSDP=6.16D-08 MaxDP=3.18D-06 DE=-2.89D-09 OVMax= 8.81D-06

 Cycle  20  Pass 1  IDiag  1:
 RMSU=  1.50D-08    CP:  1.30D+00  2.86D+00  4.24D-01  4.95D-01  1.24D+00
                    CP:  1.70D+00  3.00D+00  3.00D+00  3.00D+00  2.62D+00
                    CP:  1.19D+00  1.54D+00  1.78D+00  2.25D+00  2.37D+00
                    CP:  2.31D+00  2.29D+00  1.61D+00  8.52D-01
 E= -189.614337672854     Delta-E=        0.000000000325 Rises=F Damp=F
 DIIS: error= 1.15D-06 at cycle  20 NSaved=  20.
 NSaved=20 IEnMin=19 EnMin= -189.614337673179     IErMin=18 ErrMin= 1.03D-06
 ErrMax= 1.15D-06  0.00D+00 EMaxC= 1.00D-01 BMatC= 6.23D-10 BMatP= 6.35D-10
 IDIUse=1 WtCom= 1.00D+00 WtEn= 0.00D+00
 Large coefficients: NSaved= 20 BigCof=   42.99 CofMax=   10.00 Det=-1.47D-13
 Inversion failed.  Reducing to 19 matrices.
 Large coefficients: NSaved= 19 BigCof=   42.96 CofMax=   10.00 Det=-1.47D-13
 Inversion failed.  Reducing to 18 matrices.
 Large coefficients: NSaved= 18 BigCof=   42.77 CofMax=   10.00 Det=-1.48D-13
 Inversion failed.  Reducing to 17 matrices.
 Large coefficients: NSaved= 17 BigCof=   42.52 CofMax=   10.00 Det=-1.53D-13
 Inversion failed.  Reducing to 16 matrices.
 Large coefficients: NSaved= 16 BigCof=   42.42 CofMax=   10.00 Det=-1.53D-13
 Inversion failed.  Reducing to 15 matrices.
 Large coefficients: NSaved= 15 BigCof=   40.66 CofMax=   10.00 Det=-1.61D-13
 Inversion failed.  Reducing to 14 matrices.
 Large coefficients: NSaved= 14 BigCof=   40.76 CofMax=   10.00 Det=-1.62D-13
 Inversion failed.  Reducing to 13 matrices.
 Large coefficients: NSaved= 13 BigCof=   35.83 CofMax=   10.00 Det=-1.79D-13
 Inversion failed.  Reducing to 12 matrices.
 Large coefficients: NSaved= 12 BigCof=   35.47 CofMax=   10.00 Det=-1.80D-13
 Inversion failed.  Reducing to 11 matrices.
 Large coefficients: NSaved= 11 BigCof=   34.99 CofMax=   10.00 Det=-1.85D-13
 Inversion failed.  Reducing to 10 matrices.
 Large coefficients: NSaved= 10 BigCof=   34.84 CofMax=   10.00 Det=-1.85D-13
 Inversion failed.  Reducing to  9 matrices.
 Large coefficients: NSaved=  9 BigCof=   34.78 CofMax=   10.00 Det=-1.86D-13
 Inversion failed.  Reducing to  8 matrices.
 Large coefficients: NSaved=  8 BigCof=   34.17 CofMax=   10.00 Det=-1.88D-13
 Inversion failed.  Reducing to  7 matrices.
 Large coefficients: NSaved=  7 BigCof=   29.33 CofMax=   10.00 Det=-2.09D-13
 Inversion failed.  Reducing to  6 matrices.
 Large coefficients: NSaved=  6 BigCof=   29.31 CofMax=   10.00 Det=-2.09D-13
 Inversion failed.  Reducing to  5 matrices.
 Large coefficients: NSaved=  5 BigCof=   29.21 CofMax=   10.00 Det=-2.10D-13
 Inversion failed.  Reducing to  4 matrices.
 Large coefficients: NSaved=  4 BigCof=   28.81 CofMax=   10.00 Det=-2.19D-13
 Inversion failed.  Reducing to  3 matrices.
 Large coefficients: NSaved=  3 BigCof=   17.48 CofMax=   10.00 Det=-3.68D-13
 Inversion failed.  Reducing to  2 matrices.
 Large coefficients: NSaved=  2 BigCof=   16.95 CofMax=   10.00 Det=-3.74D-13
 Coeff-Com: -0.160D+02 0.170D+02
 Coeff:     -0.160D+02 0.170D+02
 Gap=     0.103 Goal=   None    Shift=    0.000
 Gap=     0.117 Goal=   None    Shift=    0.000
 RMSDP=5.82D-07 MaxDP=3.23D-05 DE= 3.25D-10 OVMax= 8.87D-05

 Cycle  21  Pass 1  IDiag  1:
 Restarting incremental Fock formation.
 E= -189.614337669845     Delta-E=        0.000000003009 Rises=F Damp=F
 DIIS: error= 9.78D-07 at cycle  21 NSaved=   3.
 NSaved= 3 IEnMin= 1 EnMin= -189.614337673179     IErMin= 3 ErrMin= 9.78D-07
 ErrMax= 9.78D-07  0.00D+00 EMaxC= 1.00D-01 BMatC= 5.39D-10 BMatP= 6.23D-10
 IDIUse=1 WtCom= 1.00D+00 WtEn= 0.00D+00
 Large coefficients: NSaved=  3 BigCof=   19.42 CofMax=   10.00 Det=-3.62D-13
 Inversion failed.  Reducing to  2 matrices.
 Coeff-Com:  0.185D+00 0.815D+00
 Coeff:      0.185D+00 0.815D+00
 Gap=     0.103 Goal=   None    Shift=    0.000
 Gap=     0.117 Goal=   None    Shift=    0.000
 RMSDP=5.13D-07 MaxDP=2.60D-05 DE= 3.01D-09 OVMax= 7.29D-05

 Cycle  22  Pass 1  IDiag  1:
 RMSU=  5.13D-07    CP:  1.00D+00
 E= -189.614337672283     Delta-E=       -0.000000002438 Rises=F Damp=F
 DIIS: error= 1.11D-06 at cycle  22 NSaved=   3.
 NSaved= 3 IEnMin= 1 EnMin= -189.614337672854     IErMin= 2 ErrMin= 9.78D-07
 ErrMax= 1.11D-06  0.00D+00 EMaxC= 1.00D-01 BMatC= 6.95D-10 BMatP= 5.39D-10
 IDIUse=1 WtCom= 1.00D+00 WtEn= 0.00D+00
 Coeff-Com: -0.223D+01 0.170D+01 0.153D+01
 Coeff:     -0.223D+01 0.170D+01 0.153D+01
 Gap=     0.103 Goal=   None    Shift=    0.000
 Gap=     0.117 Goal=   None    Shift=    0.000
 RMSDP=7.33D-07 MaxDP=4.28D-05 DE=-2.44D-09 OVMax= 1.16D-04

 Cycle  23  Pass 1  IDiag  1:
 RMSU=  4.08D-07    CP:  1.00D+00 -1.88D-01
 E= -189.614337668657     Delta-E=        0.000000003627 Rises=F Damp=F
 DIIS: error= 1.05D-06 at cycle  23 NSaved=   4.
 NSaved= 4 IEnMin= 1 EnMin= -189.614337672854     IErMin= 2 ErrMin= 9.78D-07
 ErrMax= 1.05D-06  0.00D+00 EMaxC= 1.00D-01 BMatC= 5.31D-10 BMatP= 5.39D-10
 IDIUse=1 WtCom= 1.00D+00 WtEn= 0.00D+00
 Coeff-Com: -0.374D+01 0.175D+01 0.208D+01 0.907D+00
 Coeff:     -0.374D+01 0.175D+01 0.208D+01 0.907D+00
 Gap=     0.103 Goal=   None    Shift=    0.000
 Gap=     0.117 Goal=   None    Shift=    0.000
 RMSDP=9.41D-07 MaxDP=5.44D-05 DE= 3.63D-09 OVMax= 1.48D-04

 Cycle  24  Pass 1  IDiag  1:
 RMSU=  1.54D-07    CP:  1.00D+00 -1.60D+00  2.42D+00
 E= -189.614337665197     Delta-E=        0.000000003460 Rises=F Damp=F
 DIIS: error= 6.57D-07 at cycle  24 NSaved=   5.
 NSaved= 5 IEnMin= 1 EnMin= -189.614337672854     IErMin= 5 ErrMin= 6.57D-07
 ErrMax= 6.57D-07  0.00D+00 EMaxC= 1.00D-01 BMatC= 2.79D-10 BMatP= 5.31D-10
 IDIUse=1 WtCom= 1.00D+00 WtEn= 0.00D+00
 Coeff-Com: -0.135D+01 0.243D+00 0.405D+00 0.721D+00 0.976D+00
 Coeff:     -0.135D+01 0.243D+00 0.405D+00 0.721D+00 0.976D+00
 Gap=     0.103 Goal=   None    Shift=    0.000
 Gap=     0.117 Goal=   None    Shift=    0.000
 RMSDP=6.12D-07 MaxDP=3.56D-05 DE= 3.46D-09 OVMax= 9.73D-05

 Cycle  25  Pass 1  IDiag  1:
 RMSU=  2.43D-07    CP:  1.00D+00 -2.41D+00  3.00D+00  1.38D+00
 E= -189.614337663700     Delta-E=        0.000000001497 Rises=F Damp=F
 DIIS: error= 4.06D-07 at cycle  25 NSaved=   6.
 NSaved= 6 IEnMin= 1 EnMin= -189.614337672854     IErMin= 6 ErrMin= 4.06D-07
 ErrMax= 4.06D-07  0.00D+00 EMaxC= 1.00D-01 BMatC= 1.44D-10 BMatP= 2.79D-10
 IDIUse=1 WtCom= 1.00D+00 WtEn= 0.00D+00
 Coeff-Com:  0.266D+01-0.121D+01-0.177D+01-0.510D+00 0.108D+00 0.172D+01
 Coeff:      0.266D+01-0.121D+01-0.177D+01-0.510D+00 0.108D+00 0.172D+01
 Gap=     0.103 Goal=   None    Shift=    0.000
 Gap=     0.117 Goal=   None    Shift=    0.000
 RMSDP=6.16D-07 MaxDP=3.22D-05 DE= 1.50D-09 OVMax= 8.89D-05

 Cycle  26  Pass 1  IDiag  1:
 RMSU=  1.87D-07    CP:  1.00D+00 -3.00D+00  3.00D+00  1.78D+00  3.00D+00
 E= -189.614337662976     Delta-E=        0.000000000723 Rises=F Damp=F
 DIIS: error= 2.84D-07 at cycle  26 NSaved=   7.
 NSaved= 7 IEnMin= 1 EnMin= -189.614337672854     IErMin= 7 ErrMin= 2.84D-07
 ErrMax= 2.84D-07  0.00D+00 EMaxC= 1.00D-01 BMatC= 8.23D-11 BMatP= 1.44D-10
 IDIUse=1 WtCom= 1.00D+00 WtEn= 0.00D+00
 Coeff-Com:  0.307D+01-0.111D+01-0.178D+01-0.864D+00-0.647D+00 0.134D+01
 Coeff-Com:  0.985D+00
 Coeff:      0.307D+01-0.111D+01-0.178D+01-0.864D+00-0.647D+00 0.134D+01
 Coeff:      0.985D+00
 Gap=     0.103 Goal=   None    Shift=    0.000
 Gap=     0.117 Goal=   None    Shift=    0.000
 RMSDP=5.58D-07 MaxDP=2.54D-05 DE= 7.23D-10 OVMax= 7.14D-05

 Cycle  27  Pass 1  IDiag  1:
 RMSU=  5.18D-07    CP:  1.00D+00 -3.00D+00  3.00D+00  2.11D+00  3.00D+00
                    CP:  2.07D+00
 E= -189.614337662713     Delta-E=        0.000000000263 Rises=F Damp=F
 DIIS: error= 1.98D-07 at cycle  27 NSaved=   8.
 NSaved= 8 IEnMin= 1 EnMin= -189.614337672854     IErMin= 8 ErrMin= 1.98D-07
 ErrMax= 1.98D-07  0.00D+00 EMaxC= 1.00D-01 BMatC= 3.56D-11 BMatP= 8.23D-11
 IDIUse=1 WtCom= 1.00D+00 WtEn= 0.00D+00
 Coeff-Com:  0.141D+01-0.393D+00-0.761D+00-0.495D+00-0.466D+00 0.398D+00
 Coeff-Com:  0.659D+00 0.648D+00
 Coeff:      0.141D+01-0.393D+00-0.761D+00-0.495D+00-0.466D+00 0.398D+00
 Coeff:      0.659D+00 0.648D+00
 Gap=     0.103 Goal=   None    Shift=    0.000
 Gap=     0.117 Goal=   None    Shift=    0.000
 RMSDP=1.91D-07 MaxDP=1.06D-05 DE= 2.63D-10 OVMax= 2.34D-05

 Cycle  28  Pass 1  IDiag  1:
 RMSU=  7.68D-08    CP:  1.00D+00 -3.00D+00  3.00D+00  2.24D+00  3.00D+00
                    CP:  2.62D+00  1.27D+00
 E= -189.614337662685     Delta-E=        0.000000000029 Rises=F Damp=F
 DIIS: error= 1.10D-07 at cycle  28 NSaved=   9.
 NSaved= 9 IEnMin= 1 EnMin= -189.614337672854     IErMin= 9 ErrMin= 1.10D-07
 ErrMax= 1.10D-07  0.00D+00 EMaxC= 1.00D-01 BMatC= 8.47D-12 BMatP= 3.56D-11
 IDIUse=1 WtCom= 1.00D+00 WtEn= 0.00D+00
 Coeff-Com: -0.544D+00 0.255D+00 0.306D+00 0.875D-01 0.923D-01-0.277D+00
 Coeff-Com: -0.142D+00 0.269D+00 0.954D+00
 Coeff:     -0.544D+00 0.255D+00 0.306D+00 0.875D-01 0.923D-01-0.277D+00
 Coeff:     -0.142D+00 0.269D+00 0.954D+00
 Gap=     0.103 Goal=   None    Shift=    0.000
 Gap=     0.117 Goal=   None    Shift=    0.000
 RMSDP=8.35D-08 MaxDP=3.98D-06 DE= 2.88D-11 OVMax= 1.09D-05

 Cycle  29  Pass 1  IDiag  1:
 RMSU=  5.79D-08    CP:  1.00D+00 -3.00D+00  3.00D+00  2.31D+00  3.00D+00
                    CP:  2.79D+00  1.36D+00  1.26D+00
 E= -189.614337662679     Delta-E=        0.000000000006 Rises=F Damp=F
 DIIS: error= 7.69D-08 at cycle  29 NSaved=  10.
 NSaved=10 IEnMin= 1 EnMin= -189.614337672854     IErMin=10 ErrMin= 7.69D-08
 ErrMax= 7.69D-08  0.00D+00 EMaxC= 1.00D-01 BMatC= 3.13D-12 BMatP= 8.47D-12
 IDIUse=1 WtCom= 1.00D+00 WtEn= 0.00D+00
 Coeff-Com: -0.907D+00 0.298D+00 0.470D+00 0.263D+00 0.298D+00-0.251D+00
 Coeff-Com: -0.445D+00-0.181D+00 0.294D+00 0.116D+01
 Coeff:     -0.907D+00 0.298D+00 0.470D+00 0.263D+00 0.298D+00-0.251D+00
 Coeff:     -0.445D+00-0.181D+00 0.294D+00 0.116D+01
 Gap=     0.103 Goal=   None    Shift=    0.000
 Gap=     0.117 Goal=   None    Shift=    0.000
 RMSDP=8.21D-08 MaxDP=3.33D-06 DE= 6.03D-12 OVMax= 9.64D-06

 Cycle  30  Pass 1  IDiag  1:
 RMSU=  2.00D-08    CP:  1.00D+00 -3.00D+00  3.00D+00  2.38D+00  3.00D+00
                    CP:  2.84D+00  1.39D+00  1.58D+00  2.25D+00
 E= -189.614337662683     Delta-E=       -0.000000000004 Rises=F Damp=F
 DIIS: error= 3.51D-08 at cycle  30 NSaved=  11.
 NSaved=11 IEnMin= 1 EnMin= -189.614337672854     IErMin=11 ErrMin= 3.51D-08
 ErrMax= 3.51D-08  0.00D+00 EMaxC= 1.00D-01 BMatC= 7.39D-13 BMatP= 3.13D-12
 IDIUse=1 WtCom= 1.00D+00 WtEn= 0.00D+00
 Coeff-Com: -0.254D-01-0.130D-01-0.253D-02 0.278D-01 0.404D-01 0.523D-01
 Coeff-Com: -0.710D-01-0.119D+00-0.295D+00 0.256D+00 0.115D+01
 Coeff:     -0.254D-01-0.130D-01-0.253D-02 0.278D-01 0.404D-01 0.523D-01
 Coeff:     -0.710D-01-0.119D+00-0.295D+00 0.256D+00 0.115D+01
 Gap=     0.103 Goal=   None    Shift=    0.000
 Gap=     0.117 Goal=   None    Shift=    0.000
 RMSDP=4.95D-08 MaxDP=2.43D-06 DE=-4.15D-12 OVMax= 4.73D-06

 Cycle  31  Pass 1  IDiag  1:
 RMSU=  9.63D-09    CP:  1.00D+00 -3.00D+00  3.00D+00  2.40D+00  3.00D+00
                    CP:  2.86D+00  1.40D+00  1.70D+00  3.00D+00  1.67D+00
 E= -189.614337662683     Delta-E=       -0.000000000000 Rises=F Damp=F
 DIIS: error= 1.98D-08 at cycle  31 NSaved=  12.
 NSaved=12 IEnMin= 1 EnMin= -189.614337672854     IErMin=12 ErrMin= 1.98D-08
 ErrMax= 1.98D-08  0.00D+00 EMaxC= 1.00D-01 BMatC= 1.37D-13 BMatP= 7.39D-13
 IDIUse=1 WtCom= 1.00D+00 WtEn= 0.00D+00
 Coeff-Com:  0.201D+00-0.700D-01-0.116D+00-0.457D-01-0.580D-01 0.740D-01
 Coeff-Com:  0.809D-01 0.375D-02-0.161D+00-0.191D+00 0.292D+00 0.990D+00
 Coeff:      0.201D+00-0.700D-01-0.116D+00-0.457D-01-0.580D-01 0.740D-01
 Coeff:      0.809D-01 0.375D-02-0.161D+00-0.191D+00 0.292D+00 0.990D+00
 Gap=     0.103 Goal=   None    Shift=    0.000
 Gap=     0.117 Goal=   None    Shift=    0.000
 RMSDP=2.05D-08 MaxDP=9.58D-07 DE=-1.71D-13 OVMax= 2.10D-06

 Cycle  32  Pass 1  IDiag  1:
 RMSU=  1.67D-08    CP:  1.00D+00 -3.00D+00  3.00D+00  2.41D+00  3.00D+00
                    CP:  2.87D+00  1.40D+00  1.75D+00  3.00D+00  2.00D+00
                    CP:  1.89D+00
 E= -189.614337662683     Delta-E=        0.000000000000 Rises=F Damp=F
 DIIS: error= 4.75D-09 at cycle  32 NSaved=  13.
 NSaved=13 IEnMin= 1 EnMin= -189.614337672854     IErMin=13 ErrMin= 4.75D-09
 ErrMax= 4.75D-09  0.00D+00 EMaxC= 1.00D-01 BMatC= 1.87D-14 BMatP= 1.37D-13
 IDIUse=1 WtCom= 1.00D+00 WtEn= 0.00D+00
 Coeff-Com: -0.241D-01 0.120D-01 0.127D-01 0.616D-02 0.214D-02-0.175D-01
 Coeff-Com: -0.150D-03 0.888D-02 0.560D-01 0.133D-01-0.184D+00-0.157D+00
 Coeff-Com:  0.127D+01
 Coeff:     -0.241D-01 0.120D-01 0.127D-01 0.616D-02 0.214D-02-0.175D-01
 Coeff:     -0.150D-03 0.888D-02 0.560D-01 0.133D-01-0.184D+00-0.157D+00
 Coeff:      0.127D+01
 Gap=     0.103 Goal=   None    Shift=    0.000
 Gap=     0.117 Goal=   None    Shift=    0.000
 RMSDP=4.53D-09 MaxDP=1.52D-07 DE= 4.55D-13 OVMax= 4.19D-07

 SCF Done:  E(UB3LYP) =  -189.614337663     A.U. after   32 cycles
            NFock= 32  Conv=0.45D-08     -V/T= 2.0040
 <Sx>= 0.0000 <Sy>= 0.0000 <Sz>= 0.5000 <S**2>= 1.0399 S= 0.6357
 <L.S>= 0.000000000000E+00
 KE= 1.888678020296D+02 PE=-6.303442015466D+02 EE= 1.458569212493D+02
 Annihilation of the first spin contaminant:
 S**2 before annihilation     1.0399,   after     0.7860
 Leave Link  502 at Sun Jun 19 04:44:35 2016, MaxMem=    33554432 cpu:      1027.7
 (Enter /home/proyectos/fulerenos/M3C-v1.9/M3C-deps_CCC/g09-AM64L-G09RevC.01/l801.exe)
 DoSCS=F DFT=T ScalE2(SS,OS)=  1.000000  1.000000
 Range of M.O.s used for correlation:     1   215
 NBasis=   215 NAE=    15 NBE=    14 NFC=     0 NFV=     0
 NROrb=    215 NOA=    15 NOB=    14 NVA=   200 NVB=   201

 **** Warning!!: The largest alpha MO coefficient is  0.13339705D+03


 **** Warning!!: The largest beta MO coefficient is  0.13474991D+03

 Leave Link  801 at Sun Jun 19 04:44:35 2016, MaxMem=    33554432 cpu:         0.1
 (Enter /home/proyectos/fulerenos/M3C-v1.9/M3C-deps_CCC/g09-AM64L-G09RevC.01/l1101.exe)
 Using compressed storage, NAtomX=     7.
 Will process      8 centers per pass.
 Leave Link 1101 at Sun Jun 19 04:44:35 2016, MaxMem=    33554432 cpu:         1.2
 (Enter /home/proyectos/fulerenos/M3C-v1.9/M3C-deps_CCC/g09-AM64L-G09RevC.01/l1102.exe)
 Symmetrizing basis deriv contribution to polar:
 IMax=3 JMax=2 DiffMx= 0.00D+00
 Leave Link 1102 at Sun Jun 19 04:44:35 2016, MaxMem=    33554432 cpu:         0.1
 (Enter /home/proyectos/fulerenos/M3C-v1.9/M3C-deps_CCC/g09-AM64L-G09RevC.01/l1110.exe)
 Forming Gx(P) for the SCF density, NAtomX=     7.
 Integral derivatives from FoFJK, PRISM(SPDF).
 Do as many integral derivatives as possible in FoFJK.
 G2DrvN: MDV=      33554272.
 G2DrvN: will do     8 centers at a time, making    1 passes.
 Calling FoFCou, ICntrl=  3107 FMM=F I1Cent=   0 AccDes= 0.00D+00.
 FoFJK:  IHMeth= 1 ICntrl=    3107 DoSepK=F KAlg= 0 I1Cent=   0 FoldK=F
 IRaf=         0 NMat=   1 IRICut=       1 DoRegI=T DoRafI=F ISym2E= 0.
 FoFCou: FMM=F IPFlag=           0 FMFlag=      100000 FMFlg1=           0
         NFxFlg=           0 DoJE=F BraDBF=F KetDBF=F FulRan=T
         wScrn=  0.000000 ICntrl=    3107 IOpCl=  1 I1Cent=           0 NGrid=           0
         NMat0=    1 NMatS0=      1 NMatT0=    0 NMatD0=    1 NMtDS0=    0 NMtDT0=    0
 Symmetry not used in FoFCou.
 End of G2Drv F.D. properties file   721 does not exist.
 End of G2Drv F.D. properties file   722 does not exist.
 End of G2Drv F.D. properties file   788 does not exist.
 Leave Link 1110 at Sun Jun 19 04:45:59 2016, MaxMem=    33554432 cpu:       334.4
 (Enter /home/proyectos/fulerenos/M3C-v1.9/M3C-deps_CCC/g09-AM64L-G09RevC.01/l1002.exe)
 Minotr:  UHF open shell wavefunction.
          IDoAtm=1111111
          Direct CPHF calculation.
          Differentiating once with respect to electric field.
                with respect to dipole field.
          Differentiating once with respect to nuclear coordinates.
          Requested convergence is 1.0D-08 RMS, and 1.0D-07 maximum.
          Secondary convergence is 1.0D-12 RMS, and 1.0D-12 maximum.
          NewPWx=T KeepS1=F KeepF1=F KeepIn=T MapXYZ=F SortEE=F KeepMc=T.
          MDV=      33553928 using IRadAn=       2.
 Generate precomputed XC quadrature information.
          Solving linear equations simultaneously, MaxMat=       0.
 FoFJK:  IHMeth= 1 ICntrl=       0 DoSepK=F KAlg= 0 I1Cent=   0 FoldK=F
 IRaf= 980000000 NMat=  24 IRICut=      60 DoRegI=T DoRafI=T ISym2E= 2.
 FoFCou: FMM=F IPFlag=           0 FMFlag=      100000 FMFlg1=           0
         NFxFlg=           0 DoJE=F BraDBF=F KetDBF=F FulRan=T
         wScrn=  0.000000 ICntrl=       0 IOpCl=  1 I1Cent=           0 NGrid=           0
         NMat0=   24 NMatS0=     24 NMatT0=    0 NMatD0=   24 NMtDS0=    0 NMtDT0=    0
 Integrals replicated using symmetry in FoFCou.
          There are    24 degrees of freedom in the 1st order CPHF.  IDoFFX=6 NUNeed=     3.
     21 vectors produced by pass  0 Test12= 2.42D-14 4.17D-09 XBig12= 3.84D+02 1.00D+01.
 AX will form    21 AO Fock derivatives at one time.
     21 vectors produced by pass  1 Test12= 2.42D-14 4.17D-09 XBig12= 8.72D+01 1.80D+00.
     21 vectors produced by pass  2 Test12= 2.42D-14 4.17D-09 XBig12= 2.50D+00 7.87D-01.
     21 vectors produced by pass  3 Test12= 2.42D-14 4.17D-09 XBig12= 8.78D-02 7.01D-02.
     21 vectors produced by pass  4 Test12= 2.42D-14 4.17D-09 XBig12= 1.20D-03 7.48D-03.
     21 vectors produced by pass  5 Test12= 2.42D-14 4.17D-09 XBig12= 8.11D-06 4.34D-04.
     21 vectors produced by pass  6 Test12= 2.42D-14 4.17D-09 XBig12= 4.32D-08 4.06D-05.
     17 vectors produced by pass  7 Test12= 2.42D-14 4.17D-09 XBig12= 1.98D-10 2.92D-06.
      6 vectors produced by pass  8 Test12= 2.42D-14 4.17D-09 XBig12= 7.78D-13 1.35D-07.
      5 vectors produced by pass  9 Test12= 2.42D-14 4.17D-09 XBig12= 1.38D-13 7.47D-08.
      1 vectors produced by pass 10 Test12= 2.42D-14 4.17D-09 XBig12= 9.08D-16 4.94D-09.
 InvSVY:  IOpt=1 It=  1 EMax= 7.11D-15
 Solved reduced A of dimension   176 with    24 vectors.
 FullF1:  Do perturbations    1 to     3.
 Isotropic polarizability for W=    0.000000       49.16 Bohr**3.
 End of Minotr F.D. properties file   721 does not exist.
 End of Minotr F.D. properties file   722 does not exist.
 End of Minotr F.D. properties file   788 does not exist.
 Leave Link 1002 at Sun Jun 19 04:51:33 2016, MaxMem=    33554432 cpu:      1314.9
 (Enter /home/proyectos/fulerenos/M3C-v1.9/M3C-deps_CCC/g09-AM64L-G09RevC.01/l601.exe)
 Copying SCF densities to generalized density rwf, IOpCl= 1 IROHF=0.

 **********************************************************************

            Population analysis using the SCF density.

 **********************************************************************

 Orbital symmetries:
 Alpha Orbitals:
       Occupied  (A) (A) (A) (A) (A) (A) (A) (A) (A) (A) (A) (A)
                 (A) (A) (A)
       Virtual   (A) (A) (A) (A) (A) (A) (A) (A) (A) (A) (A) (A)
                 (A) (A) (A) (A) (A) (A) (A) (A) (A) (A) (A) (A)
                 (A) (A) (A) (A) (A) (A) (A) (A) (A) (A) (A) (A)
                 (A) (A) (A) (A) (A) (A) (A) (A) (A) (A) (A) (A)
                 (A) (A) (A) (A) (A) (A) (A) (A) (A) (A) (A) (A)
                 (A) (A) (A) (A) (A) (A) (A) (A) (A) (A) (A) (A)
                 (A) (A) (A) (A) (A) (A) (A) (A) (A) (A) (A) (A)
                 (A) (A) (A) (A) (A) (A) (A) (A) (A) (A) (A) (A)
                 (A) (A) (A) (A) (A) (A) (A) (A) (A) (A) (A) (A)
                 (A) (A) (A) (A) (A) (A) (A) (A) (A) (A) (A) (A)
                 (A) (A) (A) (A) (A) (A) (A) (A) (A) (A) (A) (A)
                 (A) (A) (A) (A) (A) (A) (A) (A) (A) (A) (A) (A)
                 (A) (A) (A) (A) (A) (A) (A) (A) (A) (A) (A) (A)
                 (A) (A) (A) (A) (A) (A) (A) (A) (A) (A) (A) (A)
                 (A) (A) (A) (A) (A) (A) (A) (A) (A) (A) (A) (A)
                 (A) (A) (A) (A) (A) (A) (A) (A) (A) (A) (A) (A)
                 (A) (A) (A) (A) (A) (A) (A) (A)
 Beta  Orbitals:
       Occupied  (A) (A) (A) (A) (A) (A) (A) (A) (A) (A) (A) (A)
                 (A) (A)
       Virtual   (A) (A) (A) (A) (A) (A) (A) (A) (A) (A) (A) (A)
                 (A) (A) (A) (A) (A) (A) (A) (A) (A) (A) (A) (A)
                 (A) (A) (A) (A) (A) (A) (A) (A) (A) (A) (A) (A)
                 (A) (A) (A) (A) (A) (A) (A) (A) (A) (A) (A) (A)
                 (A) (A) (A) (A) (A) (A) (A) (A) (A) (A) (A) (A)
                 (A) (A) (A) (A) (A) (A) (A) (A) (A) (A) (A) (A)
                 (A) (A) (A) (A) (A) (A) (A) (A) (A) (A) (A) (A)
                 (A) (A) (A) (A) (A) (A) (A) (A) (A) (A) (A) (A)
                 (A) (A) (A) (A) (A) (A) (A) (A) (A) (A) (A) (A)
                 (A) (A) (A) (A) (A) (A) (A) (A) (A) (A) (A) (A)
                 (A) (A) (A) (A) (A) (A) (A) (A) (A) (A) (A) (A)
                 (A) (A) (A) (A) (A) (A) (A) (A) (A) (A) (A) (A)
                 (A) (A) (A) (A) (A) (A) (A) (A) (A) (A) (A) (A)
                 (A) (A) (A) (A) (A) (A) (A) (A) (A) (A) (A) (A)
                 (A) (A) (A) (A) (A) (A) (A) (A) (A) (A) (A) (A)
                 (A) (A) (A) (A) (A) (A) (A) (A) (A) (A) (A) (A)
                 (A) (A) (A) (A) (A) (A) (A) (A) (A)
 The electronic state is 2-A.
 Alpha  occ. eigenvalues --  -11.12236 -11.10080 -11.04167 -11.01749 -11.00332
 Alpha  occ. eigenvalues --   -1.60452  -1.49176  -1.41749  -1.35346  -1.20612
 Alpha  occ. eigenvalues --   -1.14312  -1.10051  -1.07950  -1.05221  -1.03073
 Alpha virt. eigenvalues --   -0.92822  -0.86048  -0.85524  -0.78993  -0.77560
 Alpha virt. eigenvalues --   -0.64833  -0.57715  -0.52230  -0.50648  -0.48100
 Alpha virt. eigenvalues --   -0.46637  -0.43169  -0.42284  -0.41215  -0.39056
 Alpha virt. eigenvalues --   -0.38064  -0.37293  -0.35340  -0.34620  -0.32901
 Alpha virt. eigenvalues --   -0.31936  -0.31596  -0.30546  -0.30181  -0.28777
 Alpha virt. eigenvalues --   -0.27572  -0.26385  -0.24575  -0.22997  -0.22676
 Alpha virt. eigenvalues --   -0.21461  -0.21117  -0.20773  -0.19861  -0.17730
 Alpha virt. eigenvalues --   -0.16314  -0.15597  -0.13758  -0.12996  -0.11670
 Alpha virt. eigenvalues --   -0.11353  -0.10224  -0.08967  -0.08752  -0.08603
 Alpha virt. eigenvalues --   -0.07931  -0.07421  -0.03797  -0.03134  -0.03028
 Alpha virt. eigenvalues --   -0.02631  -0.01497  -0.01163   0.00747   0.01170
 Alpha virt. eigenvalues --    0.01933   0.02674   0.03874   0.04663   0.06157
 Alpha virt. eigenvalues --    0.07032   0.09725   0.11255   0.13529   0.15893
 Alpha virt. eigenvalues --    0.16629   0.19291   0.22649   0.23855   0.25335
 Alpha virt. eigenvalues --    0.29559   0.32054   0.34064   0.38024   0.38675
 Alpha virt. eigenvalues --    0.47094   0.47835   0.52072   0.54954   0.59554
 Alpha virt. eigenvalues --    0.60379   0.67012   0.68290   0.70212   0.72088
 Alpha virt. eigenvalues --    0.75173   0.76406   0.76481   0.81434   0.82954
 Alpha virt. eigenvalues --    0.85570   0.89429   0.89434   0.92120   0.94598
 Alpha virt. eigenvalues --    0.94947   0.96684   0.99595   1.04470   1.05408
 Alpha virt. eigenvalues --    1.08472   1.09245   1.15849   1.23858   1.25930
 Alpha virt. eigenvalues --    1.33963   1.35935   1.48250   1.48314   1.55988
 Alpha virt. eigenvalues --    1.64425   1.77144   1.83453   1.89178   1.89252
 Alpha virt. eigenvalues --    1.92359   1.93736   1.96531   1.98025   1.99666
 Alpha virt. eigenvalues --    2.01072   2.03954   2.03997   2.07828   2.08453
 Alpha virt. eigenvalues --    2.10105   2.12145   2.14268   2.14880   2.16696
 Alpha virt. eigenvalues --    2.18284   2.19320   2.20566   2.24180   2.25379
 Alpha virt. eigenvalues --    2.26743   2.29605   2.31094   2.39636   2.40349
 Alpha virt. eigenvalues --    2.42199   2.50540   2.53793   2.58046   2.58805
 Alpha virt. eigenvalues --    2.63973   2.75498   2.77895   2.78176   2.86800
 Alpha virt. eigenvalues --    2.94560   3.07026   3.15355   3.20711   3.26178
 Alpha virt. eigenvalues --    3.31876   3.39709   3.46775   3.52979   3.53274
 Alpha virt. eigenvalues --    3.64677   3.74950   3.92118   4.02258   4.14884
 Alpha virt. eigenvalues --    4.32035   4.56135   4.78221   4.80109   5.25143
 Alpha virt. eigenvalues --    6.10390   6.13030   6.14468   6.17823   6.19276
 Alpha virt. eigenvalues --    6.24082   6.24708   6.27126   6.30439   6.34545
 Alpha virt. eigenvalues --    6.38732   6.39442   6.49450   6.61798   6.62854
 Alpha virt. eigenvalues --    6.64951   6.71870   6.73885   6.77066   6.85830
 Alpha virt. eigenvalues --    6.96134   6.98069   7.18874   7.43861   7.56858
 Alpha virt. eigenvalues --   22.90242  23.24342  23.48408  23.72726  24.86177
  Beta  occ. eigenvalues --  -11.12019 -11.09443 -11.03223 -11.01637 -11.00433
  Beta  occ. eigenvalues --   -1.59439  -1.46776  -1.40993  -1.34585  -1.19665
  Beta  occ. eigenvalues --   -1.13888  -1.09723  -1.05515  -1.03590
  Beta virt. eigenvalues --   -0.91872  -0.90937  -0.85526  -0.84938  -0.78316
  Beta virt. eigenvalues --   -0.73540  -0.64238  -0.56158  -0.51852  -0.49706
  Beta virt. eigenvalues --   -0.47791  -0.46209  -0.42781  -0.42222  -0.40473
  Beta virt. eigenvalues --   -0.38870  -0.37796  -0.37084  -0.35126  -0.34052
  Beta virt. eigenvalues --   -0.33008  -0.31428  -0.31336  -0.30094  -0.29980
  Beta virt. eigenvalues --   -0.28680  -0.27550  -0.25821  -0.24275  -0.22899
  Beta virt. eigenvalues --   -0.22718  -0.21139  -0.20948  -0.20663  -0.19676
  Beta virt. eigenvalues --   -0.17347  -0.16146  -0.15420  -0.13751  -0.12594
  Beta virt. eigenvalues --   -0.11183  -0.11149  -0.10029  -0.08787  -0.08337
  Beta virt. eigenvalues --   -0.08269  -0.07756  -0.06951  -0.03844  -0.02742
  Beta virt. eigenvalues --   -0.02554  -0.02443  -0.00857  -0.00098   0.00934
  Beta virt. eigenvalues --    0.01322   0.02565   0.02624   0.04236   0.04658
  Beta virt. eigenvalues --    0.06334   0.07170   0.10015   0.11195   0.13901
  Beta virt. eigenvalues --    0.15856   0.16884   0.19654   0.22792   0.24343
  Beta virt. eigenvalues --    0.25678   0.29771   0.32592   0.34636   0.38090
  Beta virt. eigenvalues --    0.38734   0.47347   0.48355   0.53220   0.55242
  Beta virt. eigenvalues --    0.59859   0.60755   0.67618   0.68586   0.70607
  Beta virt. eigenvalues --    0.72535   0.75312   0.77114   0.77659   0.83512
  Beta virt. eigenvalues --    0.83949   0.87728   0.88778   0.90741   0.92578
  Beta virt. eigenvalues --    0.94427   0.96465   0.99113   1.00782   1.04723
  Beta virt. eigenvalues --    1.06626   1.09221   1.09946   1.17914   1.24778
  Beta virt. eigenvalues --    1.26221   1.34867   1.36862   1.48628   1.48794
  Beta virt. eigenvalues --    1.56422   1.65596   1.78615   1.83691   1.89594
  Beta virt. eigenvalues --    1.90534   1.94921   1.96441   1.97691   1.99356
  Beta virt. eigenvalues --    2.01221   2.01558   2.04220   2.05167   2.08056
  Beta virt. eigenvalues --    2.08466   2.10647   2.13387   2.15147   2.16204
  Beta virt. eigenvalues --    2.17504   2.19638   2.20592   2.21829   2.24609
  Beta virt. eigenvalues --    2.26095   2.27277   2.29663   2.32690   2.40593
  Beta virt. eigenvalues --    2.41464   2.43537   2.50806   2.54910   2.58751
  Beta virt. eigenvalues --    2.59876   2.64650   2.76587   2.78300   2.78864
  Beta virt. eigenvalues --    2.87870   2.95578   3.07660   3.16105   3.21455
  Beta virt. eigenvalues --    3.27446   3.32042   3.40019   3.46889   3.53375
  Beta virt. eigenvalues --    3.53427   3.64790   3.76090   3.93007   4.03219
  Beta virt. eigenvalues --    4.15602   4.32547   4.56967   4.78510   4.80323
  Beta virt. eigenvalues --    5.26128   6.13449   6.14374   6.15976   6.18320
  Beta virt. eigenvalues --    6.20369   6.26446   6.27866   6.28008   6.30918
  Beta virt. eigenvalues --    6.36717   6.40062   6.40253   6.50483   6.62314
  Beta virt. eigenvalues --    6.63042   6.66543   6.73968   6.74349   6.77856
  Beta virt. eigenvalues --    6.85948   6.96847   6.98647   7.19950   7.44164
  Beta virt. eigenvalues --    7.57340  22.90672  23.24727  23.48699  23.73366
  Beta virt. eigenvalues --   24.86612
          Condensed to atoms (all electrons):
               1          2          3          4          5          6
     1  C    7.115577  -0.204906  -0.867455  -0.172160  -0.626877   0.380291
     2  C   -0.204906   9.808519  -2.438144  -1.001873  -1.015926  -0.035521
     3  C   -0.867455  -2.438144  10.003624  -1.285966   0.349741  -0.013348
     4  C   -0.172160  -1.001873  -1.285966   7.576242   0.262104   0.005284
     5  C   -0.626877  -1.015926   0.349741   0.262104   6.510917   0.010580
     6  H    0.380291  -0.035521  -0.013348   0.005284   0.010580   0.303088
     7  H    0.460119  -0.040707  -0.039064  -0.017434  -0.024067   0.005576
               7
     1  C    0.460119
     2  C   -0.040707
     3  C   -0.039064
     4  C   -0.017434
     5  C   -0.024067
     6  H    0.005576
     7  H    0.301532
          Atomic-Atomic Spin Densities.
               1          2          3          4          5          6
     1  C    0.547784   0.497127  -0.773944  -0.128931  -0.174416   0.032221
     2  C    0.497127   0.922735  -0.810685  -0.432394  -0.186645  -0.014536
     3  C   -0.773944  -0.810685   1.943283  -0.043904   0.226826  -0.018604
     4  C   -0.128931  -0.432394  -0.043904   0.920944   0.042782   0.000569
     5  C   -0.174416  -0.186645   0.226826   0.042782   0.224584  -0.000592
     6  H    0.032221  -0.014536  -0.018604   0.000569  -0.000592   0.012759
     7  H    0.027103   0.000481  -0.017284  -0.003642  -0.010385   0.000017
               7
     1  C    0.027103
     2  C    0.000481
     3  C   -0.017284
     4  C   -0.003642
     5  C   -0.010385
     6  H    0.000017
     7  H    0.005580
 Mulliken charges and spin densities:
               1          2
     1  C   -0.084590   0.026944
     2  C    0.928556  -0.023917
     3  C    0.290612   0.505689
     4  C    0.633802   0.355424
     5  C    0.533527   0.122156
     6  H    0.344050   0.011835
     7  H    0.354043   0.001870
 Sum of Mulliken charges =   3.00000   1.00000
 Mulliken charges and spin densities with hydrogens summed into heavy atoms:
               1          2
     1  C    0.613503   0.040648
     2  C    0.928556  -0.023917
     3  C    0.290612   0.505689
     4  C    0.633802   0.355424
     5  C    0.533527   0.122156
 APT charges:
               1
     1  C    0.694589
     2  C   -0.475309
     3  C    0.317309
     4  C    0.910735
     5  C    0.992675
     6  H    0.258656
     7  H    0.301346
 Sum of APT charges =   3.00000
 APT charges with hydrogens summed into heavy atoms:
               1
     1  C    1.254590
     2  C   -0.475309
     3  C    0.317309
     4  C    0.910735
     5  C    0.992675
 Electronic spatial extent (au):  <R**2>=            328.0914
 Charge=              3.0000 electrons
 Dipole moment (field-independent basis, Debye):
    X=              1.1078    Y=             -0.8994    Z=              0.0007  Tot=              1.4269
 Quadrupole moment (field-independent basis, Debye-Ang):
   XX=             16.4116   YY=             -4.9859   ZZ=            -20.4022
   XY=             -2.4860   XZ=              0.0020   YZ=              0.0002
 Traceless Quadrupole moment (field-independent basis, Debye-Ang):
   XX=             19.4038   YY=             -1.9937   ZZ=            -17.4100
   XY=             -2.4860   XZ=              0.0020   YZ=              0.0002
 Octapole moment (field-independent basis, Debye-Ang**2):
  XXX=             -8.3419  YYY=             -6.2835  ZZZ=              0.0012  XYY=             18.3078
  XXY=            -13.5923  XXZ=              0.0154  XZZ=              0.3089  YZZ=             -0.7163
  YYZ=             -0.0071  XYZ=             -0.0016
 Hexadecapole moment (field-independent basis, Debye-Ang**3):
 XXXX=            -99.7626 YYYY=            -76.0717 ZZZZ=            -17.2574 XXXY=            -21.0271
 XXXZ=              0.0349 YYYX=            -13.2414 YYYZ=              0.0141 ZZZX=              0.0004
 ZZZY=             -0.0007 XXYY=            -43.8394 XXZZ=            -42.4682 YYZZ=            -21.4798
 XXYZ=             -0.0080 YYXZ=             -0.0047 ZZXY=             -1.0374
 N-N= 1.060051406050D+02 E-N=-6.303442016182D+02  KE= 1.888678020296D+02
  Exact polarizability:  77.908   7.363  45.120  -0.003   0.001  24.447
 Approx polarizability: 157.410  30.874  77.371  -0.011  -0.002  38.473
                          Isotropic Fermi Contact Couplings
        Atom                 a.u.       MegaHertz       Gauss      10(-4) cm-1
     1  C(13)              0.03093      34.76961      12.40666      11.59789
     2  C(13)             -0.02995     -33.67402     -12.01573     -11.23244
     3  C(13)              0.03286      36.94618      13.18332      12.32392
     4  C(13)              0.18507     208.05947      74.24079      69.40117
     5  C(13)              0.01884      21.18068       7.55779       7.06512
     6  H(1)               0.00529      23.66157       8.44304       7.89265
     7  H(1)               0.00031       1.37790       0.49167       0.45962
 --------------------------------------------------------
       Center         ----  Spin Dipole Couplings  ----
                      3XX-RR        3YY-RR        3ZZ-RR
 --------------------------------------------------------
     1   Atom        0.014586      0.051720     -0.066306
     2   Atom        0.031236      0.073424     -0.104661
     3   Atom       -0.376132      0.681972     -0.305839
     4   Atom        0.334897     -0.120362     -0.214536
     5   Atom       -0.531422      0.668860     -0.137438
     6   Atom        0.003674      0.003896     -0.007570
     7   Atom        0.009037     -0.003938     -0.005099
 --------------------------------------------------------
                        XY            XZ            YZ
 --------------------------------------------------------
     1   Atom       -0.066458      0.000063      0.000105
     2   Atom       -0.000383      0.000031      0.000034
     3   Atom        0.006658      0.000085     -0.000254
     4   Atom       -0.638279     -0.000185      0.000113
     5   Atom       -0.643795     -0.000338      0.000165
     6   Atom       -0.001344      0.000005      0.000008
     7   Atom        0.000306      0.000008      0.000005
 --------------------------------------------------------


 ---------------------------------------------------------------------------------
              Anisotropic Spin Dipole Couplings in Principal Axis System
 ---------------------------------------------------------------------------------

       Atom             a.u.   MegaHertz   Gauss  10(-4) cm-1        Axes

              Baa    -0.0663    -8.898    -3.175    -2.968 -0.0028 -0.0025  1.0000
     1 C(13)  Bbb    -0.0359    -4.811    -1.717    -1.605  0.7966  0.6045  0.0037
              Bcc     0.1022    13.708     4.891     4.573 -0.6045  0.7966  0.0003
 
              Baa    -0.1047   -14.044    -5.011    -4.685 -0.0002 -0.0002  1.0000
     2 C(13)  Bbb     0.0312     4.191     1.496     1.398  1.0000  0.0091  0.0002
              Bcc     0.0734     9.853     3.516     3.287 -0.0091  1.0000  0.0002
 
              Baa    -0.3762   -50.479   -18.012   -16.838  1.0000 -0.0063 -0.0012
     3 C(13)  Bbb    -0.3058   -41.041   -14.644   -13.690  0.0012  0.0002  1.0000
              Bcc     0.6820    91.520    32.657    30.528  0.0063  1.0000 -0.0003
 
              Baa    -0.5704   -76.540   -27.312   -25.531  0.5762  0.8173  0.0000
     4 C(13)  Bbb    -0.2145   -28.789   -10.273    -9.603  0.0002 -0.0002  1.0000
              Bcc     0.7849   105.329    37.584    35.134  0.8173 -0.5762 -0.0002
 
              Baa    -0.8114  -108.885   -38.853   -36.320  0.9170  0.3988  0.0004
     5 C(13)  Bbb    -0.1374   -18.443    -6.581    -6.152 -0.0002 -0.0004  1.0000
              Bcc     0.9489   127.327    45.434    42.472 -0.3988  0.9170  0.0003
 
              Baa    -0.0076    -4.039    -1.441    -1.347 -0.0005 -0.0008  1.0000
     6 H(1)   Bbb     0.0024     1.300     0.464     0.434  0.7355  0.6775  0.0009
              Bcc     0.0051     2.739     0.977     0.914 -0.6775  0.7356  0.0002
 
              Baa    -0.0051    -2.721    -0.971    -0.908 -0.0005 -0.0044  1.0000
     7 H(1)   Bbb    -0.0039    -2.105    -0.751    -0.702 -0.0236  0.9997  0.0044
              Bcc     0.0090     4.826     1.722     1.610  0.9997  0.0235  0.0006
 

 ---------------------------------------------------------------------------------

 No NMR shielding tensors so no spin-rotation constants.
 Leave Link  601 at Sun Jun 19 04:51:34 2016, MaxMem=    33554432 cpu:         2.1
 (Enter /home/proyectos/fulerenos/M3C-v1.9/M3C-deps_CCC/g09-AM64L-G09RevC.01/l701.exe)
 Compute integral second derivatives.
 ... and contract with generalized density number  0.
 Leave Link  701 at Sun Jun 19 04:51:34 2016, MaxMem=    33554432 cpu:         2.3
 (Enter /home/proyectos/fulerenos/M3C-v1.9/M3C-deps_CCC/g09-AM64L-G09RevC.01/l702.exe)
 L702 exits ... SP integral derivatives will be done elsewhere.
 Leave Link  702 at Sun Jun 19 04:51:34 2016, MaxMem=    33554432 cpu:         0.1
 (Enter /home/proyectos/fulerenos/M3C-v1.9/M3C-deps_CCC/g09-AM64L-G09RevC.01/l703.exe)
 Compute integral second derivatives, UseDBF=F ICtDFT=           0.
 Integral derivatives from FoFJK, PRISM(SPDF).
 Calling FoFJK, ICntrl=    100127 FMM=F ISym2X=0 I1Cent= 0 IOpClX= 1 NMat=1 NMatS=1 NMatT=0.
 FoFJK:  IHMeth= 1 ICntrl=  100127 DoSepK=F KAlg= 0 I1Cent=   0 FoldK=F
 IRaf=         0 NMat=   1 IRICut=       1 DoRegI=T DoRafI=F ISym2E= 0.
 FoFCou: FMM=F IPFlag=           0 FMFlag=      100000 FMFlg1=         800
         NFxFlg=           0 DoJE=F BraDBF=F KetDBF=F FulRan=T
         wScrn=  0.000000 ICntrl=  100127 IOpCl=  1 I1Cent=           0 NGrid=           0
         NMat0=    1 NMatS0=      1 NMatT0=    0 NMatD0=    1 NMtDS0=    0 NMtDT0=    0
 Symmetry not used in FoFCou.
 Leave Link  703 at Sun Jun 19 04:53:37 2016, MaxMem=    33554432 cpu:       492.2
 (Enter /home/proyectos/fulerenos/M3C-v1.9/M3C-deps_CCC/g09-AM64L-G09RevC.01/l716.exe)
 Dipole        = 4.35824145D-01-3.53844343D-01 2.71533604D-04
 Polarizability= 7.79083581D+01 7.36256509D+00 4.51201320D+01
                -2.95233946D-03 9.65556366D-04 2.44472817D+01
 Full mass-weighted force constant matrix:
 Low frequencies ---   -0.0005    0.0005    0.0006    3.6724    5.9522    6.9225
 Low frequencies ---  134.3759  142.4186  231.5938
 Diagonal vibrational polarizability:
       23.5711446      16.2757139       3.6128382
 Harmonic frequencies (cm**-1), IR intensities (KM/Mole), Raman scattering
 activities (A**4/AMU), depolarization ratios for plane and unpolarized
 incident light, reduced masses (AMU), force constants (mDyne/A),
 and normal coordinates:
                      1                      2                      3
                      A                      A                      A
 Frequencies --    134.3740               142.4185               231.5938
 Red. masses --      1.2244                 7.0144                 4.1809
 Frc consts  --      0.0130                 0.0838                 0.1321
 IR Inten    --      1.1152                 1.3930                 0.0121
  Atom  AN      X      Y      Z        X      Y      Z        X      Y      Z
     1   6     0.00  -0.00   0.04     0.32   0.04  -0.00    -0.00  -0.00  -0.07
     2   6     0.00  -0.00  -0.07     0.06  -0.18   0.00     0.00  -0.00   0.12
     3   6     0.00   0.00  -0.08     0.08  -0.24   0.00     0.00   0.00   0.42
     4   6     0.00   0.00   0.09    -0.20   0.44  -0.00     0.00   0.00  -0.25
     5   6    -0.00   0.00   0.01    -0.32  -0.08   0.00    -0.00   0.00  -0.19
     6   1     0.00   0.00  -0.63     0.54  -0.04   0.00     0.00   0.00  -0.73
     7   1    -0.00  -0.00   0.76     0.26   0.30  -0.00    -0.00  -0.00   0.43
                      4                      5                      6
                      A                      A                      A
 Frequencies --    266.4952               405.8388               449.3319
 Red. masses --      7.3791                 5.3106                 6.0868
 Frc consts  --      0.3088                 0.5153                 0.7241
 IR Inten    --      7.1712                10.0540                12.8142
  Atom  AN      X      Y      Z        X      Y      Z        X      Y      Z
     1   6     0.08   0.29  -0.00     0.16   0.08  -0.00     0.00  -0.00  -0.09
     2   6    -0.09   0.08   0.00    -0.15  -0.16   0.00    -0.00   0.00   0.58
     3   6    -0.13  -0.21   0.00    -0.16   0.40  -0.00    -0.00   0.00  -0.30
     4   6    -0.38  -0.05  -0.00     0.13  -0.04  -0.00    -0.00  -0.00   0.05
     5   6     0.49  -0.17  -0.00    -0.04  -0.32  -0.00     0.00   0.00  -0.16
     6   1     0.35   0.21  -0.01     0.57  -0.06   0.00     0.00   0.00  -0.68
     7   1     0.04   0.51   0.00     0.08   0.52  -0.00     0.00  -0.00  -0.26
                      7                      8                      9
                      A                      A                      A
 Frequencies --    640.3846               745.6999               924.9546
 Red. masses --      8.4961                 5.2668                 3.0262
 Frc consts  --      2.0528                 1.7255                 1.5254
 IR Inten    --    130.4248               300.3669               177.9697
  Atom  AN      X      Y      Z        X      Y      Z        X      Y      Z
     1   6    -0.26   0.26  -0.00     0.14  -0.22   0.00     0.23  -0.08   0.00
     2   6    -0.24  -0.07   0.00    -0.21  -0.17  -0.00    -0.12   0.24  -0.00
     3   6    -0.06  -0.36   0.00    -0.22  -0.04   0.00    -0.17  -0.07   0.00
     4   6     0.54   0.23  -0.00     0.06   0.03  -0.00     0.08   0.04  -0.00
     5   6     0.05  -0.11  -0.00     0.17   0.41   0.00    -0.01  -0.09  -0.00
     6   1    -0.02   0.18   0.00     0.62  -0.40   0.00    -0.48   0.15  -0.00
     7   1    -0.30   0.44  -0.00     0.05   0.24  -0.00     0.39  -0.65   0.00
                     10                     11                     12
                      A                      A                      A
 Frequencies --   1040.1474              1164.3498              1412.1838
 Red. masses --      2.0765                 1.3546                 1.1119
 Frc consts  --      1.3236                 1.0820                 1.3064
 IR Inten    --    106.3021                11.9503                12.6190
  Atom  AN      X      Y      Z        X      Y      Z        X      Y      Z
     1   6    -0.05  -0.16  -0.00     0.00   0.00  -0.17     0.06  -0.07   0.00
     2   6     0.01   0.25   0.00    -0.00  -0.00   0.06    -0.02  -0.01   0.00
     3   6     0.02  -0.04  -0.00    -0.00   0.00  -0.01     0.03   0.00  -0.00
     4   6     0.01   0.01   0.00     0.00   0.00   0.00    -0.01  -0.00   0.00
     5   6    -0.03  -0.08  -0.00     0.00   0.00  -0.01     0.01   0.01   0.00
     6   1     0.59  -0.41   0.00    -0.00  -0.00   0.68    -0.67   0.19  -0.00
     7   1    -0.22   0.58   0.00    -0.00  -0.00   0.71    -0.11   0.70   0.00
                     13                     14                     15
                      A                      A                      A
 Frequencies --   1524.3405              2901.4822              3023.5945
 Red. masses --      9.6607                 1.0513                 1.1330
 Frc consts  --     13.2258                 5.2143                 6.1029
 IR Inten    --     67.4292               244.6678               192.7112
  Atom  AN      X      Y      Z        X      Y      Z        X      Y      Z
     1   6    -0.05   0.02  -0.00    -0.04   0.05  -0.00    -0.08  -0.07  -0.00
     2   6     0.63  -0.04  -0.00     0.00  -0.00   0.00     0.00   0.00   0.00
     3   6    -0.61  -0.05   0.00    -0.00  -0.00  -0.00     0.00  -0.00  -0.00
     4   6     0.09   0.04  -0.00    -0.00  -0.00   0.00     0.00   0.00   0.00
     5   6    -0.02  -0.00   0.00    -0.00   0.00   0.00    -0.00   0.00  -0.00
     6   1    -0.15   0.07  -0.00    -0.23  -0.67  -0.00     0.24   0.66   0.00
     7   1    -0.17   0.39  -0.00     0.69   0.15   0.00     0.68   0.16   0.00

 -------------------
 - Thermochemistry -
 -------------------
 Temperature   298.150 Kelvin.  Pressure   1.00000 Atm.
 Atom     1 has atomic number  6 and mass  12.00000
 Atom     2 has atomic number  6 and mass  12.00000
 Atom     3 has atomic number  6 and mass  12.00000
 Atom     4 has atomic number  6 and mass  12.00000
 Atom     5 has atomic number  6 and mass  12.00000
 Atom     6 has atomic number  1 and mass   1.00783
 Atom     7 has atomic number  1 and mass   1.00783
 Molecular mass:    62.01565 amu.
 Principal axes and moments of inertia in atomic units:
                           1         2         3
     Eigenvalues --   170.64400 427.72965 598.37359
           X            0.99824  -0.05929   0.00002
           Y            0.05929   0.99824   0.00002
           Z           -0.00003  -0.00002   1.00000
 This molecule is an asymmetric top.
 Rotational symmetry number  1.
 Rotational temperatures (Kelvin)      0.50757     0.20250     0.14475
 Rotational constants (GHZ):          10.57606     4.21935     3.01608
 Zero-point vibrational energy      89762.9 (Joules/Mol)
                                   21.45385 (Kcal/Mol)
 Warning -- explicit consideration of   6 degrees of freedom as
           vibrations may cause significant error
 Vibrational temperatures:    193.33   204.91   333.21   383.43   583.91
          (Kelvin)            646.49   921.37  1072.89  1330.80  1496.54
                             1675.24  2031.81  2193.18  4174.58  4350.27
 
 Zero-point correction=                           0.034189 (Hartree/Particle)
 Thermal correction to Energy=                    0.040240
 Thermal correction to Enthalpy=                  0.041184
 Thermal correction to Gibbs Free Energy=         0.004715
 Sum of electronic and zero-point Energies=           -189.580149
 Sum of electronic and thermal Energies=              -189.574098
 Sum of electronic and thermal Enthalpies=            -189.573154
 Sum of electronic and thermal Free Energies=         -189.609623
 
                     E (Thermal)             CV                S
                      KCal/Mol        Cal/Mol-Kelvin    Cal/Mol-Kelvin
 Total                   25.251             19.033             76.755
 Electronic               0.000              0.000              1.377
 Translational            0.889              2.981             38.294
 Rotational               0.889              2.981             25.283
 Vibrational             23.473             13.071             11.801
 Vibration     1          0.613              1.919              2.882
 Vibration     2          0.616              1.911              2.771
 Vibration     3          0.653              1.793              1.867
 Vibration     4          0.672              1.735              1.619
 Vibration     5          0.771              1.458              0.941
 Vibration     6          0.808              1.362              0.798
                       Q            Log10(Q)             Ln(Q)
 Total Bot       0.677960D-02         -2.168796         -4.993838
 Total V=0       0.360553D+14         13.556970         31.216076
 Vib (Bot)       0.236050D-14        -14.626996        -33.679903
 Vib (Bot)    1  0.151546D+01          0.180544          0.415719
 Vib (Bot)    2  0.142680D+01          0.154362          0.355431
 Vib (Bot)    3  0.849853D+00         -0.070656         -0.162692
 Vib (Bot)    4  0.726486D+00         -0.138773         -0.319537
 Vib (Bot)    5  0.437295D+00         -0.359225         -0.827147
 Vib (Bot)    6  0.381856D+00         -0.418100         -0.962711
 Vib (V=0)       0.125536D+02          1.098770          2.530010
 Vib (V=0)    1  0.209581D+01          0.321352          0.739941
 Vib (V=0)    2  0.201187D+01          0.303600          0.699064
 Vib (V=0)    3  0.148603D+01          0.172027          0.396107
 Vib (V=0)    4  0.138192D+01          0.140483          0.323473
 Vib (V=0)    5  0.116425D+01          0.066046          0.152077
 Vib (V=0)    6  0.112914D+01          0.052747          0.121454
 Electronic      0.200000D+01          0.301030          0.693147
 Translational   0.191958D+08          7.283207         16.770204
 Rotational      0.748105D+05          4.873963         11.222714
 
                                                              b3lyp opt
                                                             IR Spectrum
 
      3    2                                                        1    1          1    1                                           
      0    9                                                        5    4          1    0    9      7    6       44     2 2  11     
      2    0                                                        2    1          6    4    2      4    4       40     6 3  43     
      4    1                                                        4    2          4    0    5      6    0       96     6 2  24     
 
      X    X                                                        X    X          X    X    X      X    X       XX     X    XX     
      X    X                                                        X                    X    X      X    X                          
      X    X                                                        X                    X    X      X    X                          
      X    X                                                        X                    X    X      X    X                          
      X    X                                                                             X    X      X    X                          
      X    X                                                                             X    X      X    X                          
      X    X                                                                             X    X      X    X                          
      X    X                                                                                  X      X    X                          
      X    X                                                                                  X      X    X                          
      X    X                                                                                  X      X                               
      X    X                                                                                  X      X                               
      X    X                                                                                  X      X                               
      X    X                                                                                         X                               
           X                                                                                         X                               
           X                                                                                         X                               
           X                                                                                         X                               
                                                                                                     X                               
                                                                                                     X                               
                                                                                                     X                               
                                                                                                     X                               
 
 ***** Axes restored to original set *****
 -------------------------------------------------------------------
 Center     Atomic                   Forces (Hartrees/Bohr)
 Number     Number              X              Y              Z
 -------------------------------------------------------------------
      1        6           0.000056513   -0.000148917    0.000041835
      2        6           0.000181181    0.000022501   -0.000050344
      3        6          -0.000143418   -0.000018610    0.000008784
      4        6           0.000002205    0.000006238    0.000004312
      5        6          -0.000017905    0.000035128    0.000013963
      6        1          -0.000038027    0.000092377   -0.000009587
      7        1          -0.000040549    0.000011284   -0.000008964
 -------------------------------------------------------------------
 Cartesian Forces:  Max     0.000181181 RMS     0.000068214
 Z-matrix is all fixed cartesians, so copy forces.
 Force constants in Cartesian coordinates: 
                1             2             3             4             5 
      1  0.516928D+00
      2 -0.858030D-01  0.487814D+00
      3  0.630222D-03 -0.472090D-03  0.152595D+00
      4 -0.118672D+00 -0.485409D-01 -0.418659D-04  0.589399D+00
      5 -0.336862D-01 -0.128722D+00 -0.324272D-04  0.410194D-01  0.292485D+00
      6 -0.731085D-04 -0.376500D-04 -0.665549D-01  0.136905D-03 -0.662551D-04
      7 -0.270967D-01  0.168400D-02  0.603537D-05 -0.442498D+00 -0.724562D-02
      8 -0.176614D-01  0.587258D-02  0.000000D+00  0.136016D-01 -0.494690D-01
      9  0.000000D+00  0.142159D-05  0.103004D-01 -0.395017D-04 -0.976892D-05
     10 -0.115068D-01 -0.115650D-01 -0.126004D-04  0.134735D-01 -0.164358D-01
     11  0.485548D-02  0.355169D-02  0.516983D-05 -0.883020D-02  0.107272D-01
     12  0.000000D+00  0.445070D-05 -0.735862D-03 -0.539561D-05 -0.313113D-05
     13  0.176608D-01  0.112240D-02  0.000000D+00 -0.425116D-01  0.381789D-01
     14 -0.941110D-02 -0.239359D-01  0.466421D-05  0.206900D-01 -0.119048D+00
     15  0.102003D-04  0.136160D-04  0.880656D-02 -0.227256D-04  0.937577D-04
     16 -0.816388D-01  0.887180D-01 -0.145021D-03  0.690648D-03 -0.260107D-01
     17  0.782195D-01 -0.277078D+00  0.385997D-03  0.609232D-02 -0.572436D-02
     18 -0.142407D-03  0.396990D-03 -0.505234D-01 -0.215197D-04 -0.158163D-05
     19 -0.295674D+00  0.543845D-01 -0.437151D-03  0.118865D-03  0.417999D-02
     20  0.634867D-01 -0.675027D-01  0.107875D-03 -0.240323D-01 -0.249975D-03
     21 -0.424601D-03  0.932620D-04 -0.538874D-01 -0.589664D-05  0.194064D-04
                6             7             8             9            10 
      6  0.829921D-01
      7 -0.363949D-04  0.582641D+00
      8  0.169579D-04 -0.576570D-01  0.798179D-01
      9 -0.301417D-01  0.582081D-04 -0.801328D-05  0.288740D-01
     10  0.273530D-04 -0.108761D+00  0.541706D-01 -0.114930D-04  0.109797D+00
     11 -0.824031D-05  0.468293D-01 -0.340328D-01  0.284390D-05 -0.419627D-01
     12  0.342700D-02  0.772707D-05  0.000000D+00 -0.106084D-01 -0.165064D-05
     13 -0.357424D-04 -0.591468D-02  0.892767D-02 -0.646401D-05 -0.243438D-02
     14  0.862584D-04  0.170858D-01  0.341959D-03  0.198855D-04  0.200257D-01
     15 -0.205413D-01 -0.230376D-04  0.000000D+00  0.343698D-02 -0.471905D-05
     16  0.712726D-05  0.167862D-02 -0.572786D-03  0.347062D-05  0.142731D-02
     17  0.336940D-04  0.109208D-02  0.203425D-03 -0.707491D-05 -0.326749D-02
     18  0.130118D-01 -0.122913D-04 -0.766475D-05 -0.976281D-03  0.153599D-04
     19 -0.261395D-04 -0.488295D-04 -0.808744D-03 -0.464903D-05 -0.199478D-02
     20 -0.247649D-04 -0.178869D-02 -0.273409D-02  0.000000D+00 -0.965342D-03
     21  0.178069D-01  0.000000D+00 -0.172989D-05 -0.884965D-03 -0.122498D-04
               11            12            13            14            15 
     11  0.226057D-01
     12  0.139498D-05  0.544895D-02
     13 -0.141696D-03  0.000000D+00  0.352665D-01
     14 -0.460560D-02 -0.272689D-05 -0.449108D-01  0.146943D+00
     15  0.000000D+00  0.176359D-02  0.373640D-04 -0.105657D-03  0.745659D-02
     16 -0.123777D-02  0.000000D+00 -0.219399D-02  0.596031D-04 -0.254812D-05
     17  0.138749D-02  0.000000D+00 -0.577175D-03 -0.245971D-02  0.244036D-05
     18 -0.540890D-05  0.599195D-03 -0.545279D-05  0.000000D+00  0.687633D-03
     19  0.487511D-03  0.000000D+00  0.127391D-03 -0.353920D-02  0.546609D-05
     20  0.366341D-03  0.000000D+00 -0.259933D-02  0.276365D-02 -0.488402D-05
     21  0.350696D-05  0.105530D-03  0.103190D-04 -0.227725D-05 -0.161009D-02
               16            17            18            19            20 
     16  0.776780D-01
     17 -0.817763D-01  0.278981D+00
     18  0.187767D-03 -0.431361D-03  0.187907D-01
     19  0.235821D-02  0.217059D-03 -0.214567D-04  0.295113D+00
     20  0.208200D-01  0.468970D-02  0.491730D-04 -0.549211D-01  0.626670D-01
     21 -0.510325D-04  0.159793D-04  0.184103D-01  0.483707D-03 -0.128148D-03
               21 
     21  0.200597D-01
 Leave Link  716 at Sun Jun 19 04:53:37 2016, MaxMem=    33554432 cpu:         0.1
 (Enter /home/proyectos/fulerenos/M3C-v1.9/M3C-deps_CCC/g09-AM64L-G09RevC.01/l103.exe)

 GradGradGradGradGradGradGradGradGradGradGradGradGradGradGradGradGradGrad
 Berny optimization.
 Search for a local minimum.
 Step number   1 out of a maximum of    2
 All quantities printed in internal units (Hartrees-Bohrs-Radians)
 Second derivative matrix not updated -- analytic derivatives used.
 ITU=  0
     Eigenvalues ---    0.00090   0.00589   0.01995   0.02189   0.04234
     Eigenvalues ---    0.06231   0.08215   0.09770   0.17370   0.20805
     Eigenvalues ---    0.23855   0.36429   0.61165   0.79868   1.05598
 Angle between quadratic step and forces=  82.61 degrees.
 Linear search not attempted -- first point.
 B after Tr=     0.000031   -0.000004   -0.000059
         Rot=    1.000000    0.000072    0.000060   -0.000005 Ang=   0.01 deg.
 Variable       Old X    -DE/DX   Delta X   Delta X   Delta X     New X
                                 (Linear)    (Quad)   (Total)
    X1       -2.67622   0.00006   0.00000  -0.00006  -0.00001  -2.67622
    Y1       -1.88481  -0.00015   0.00000  -0.00018  -0.00021  -1.88502
    Z1       -0.00056   0.00004   0.00000   0.00022   0.00011  -0.00045
    X2       -0.76544   0.00018   0.00000   0.00018   0.00021  -0.76522
    Y2        0.23217   0.00002   0.00000  -0.00007  -0.00008   0.23209
    Z2        0.00042  -0.00005   0.00000  -0.00094  -0.00113  -0.00071
    X3        1.77218  -0.00014   0.00000  -0.00016  -0.00013   1.77204
    Y3        0.16380  -0.00002   0.00000  -0.00035  -0.00034   0.16346
    Z3        0.00073   0.00001   0.00000  -0.00037  -0.00024   0.00049
    X4        4.44802   0.00000   0.00000   0.00009   0.00012   4.44815
    Y4       -0.60322   0.00001   0.00000   0.00036   0.00040  -0.60282
    Z4        0.00061   0.00000   0.00000   0.00095   0.00152   0.00213
    X5       -1.65336  -0.00002   0.00000   0.00013   0.00013  -1.65323
    Y5        2.98233   0.00004   0.00000   0.00018   0.00016   2.98249
    Z5       -0.00171   0.00001   0.00000  -0.00017  -0.00086  -0.00257
    X6       -2.01951  -0.00004   0.00000  -0.00029  -0.00022  -2.01973
    Y6       -3.87519   0.00009   0.00000   0.00008   0.00005  -3.87513
    Z6        0.00288  -0.00001   0.00000  -0.00228  -0.00202   0.00086
    X7       -4.73097  -0.00004   0.00000  -0.00015  -0.00010  -4.73108
    Y7       -1.46583   0.00001   0.00000   0.00007   0.00001  -1.46581
    Z7       -0.00418  -0.00001   0.00000   0.00304   0.00262  -0.00156
         Item               Value     Threshold  Converged?
 Maximum Force            0.000181     0.000450     YES
 RMS     Force            0.000068     0.000300     YES
 Maximum Displacement     0.002622     0.001800     NO 
 RMS     Displacement     0.000869     0.001200     YES
 Predicted change in Energy=-8.284977D-08
 GradGradGradGradGradGradGradGradGradGradGradGradGradGradGradGradGradGrad

 Leave Link  103 at Sun Jun 19 04:53:38 2016, MaxMem=    33554432 cpu:         0.1
 (Enter /home/proyectos/fulerenos/M3C-v1.9/M3C-deps_CCC/g09-AM64L-G09RevC.01/l9999.exe)
 1\1\GINC-BELVIS4\Freq\UB3LYP\6-311++G(3df,2p)\C5H2(3+,2)\ROOT\19-Jun-2
 016\0\\#p b3lyp/6-311++G(3df,2p) freq symmetry=Loose\\b3lyp opt\\3,2\C
 ,-1.416192,-0.997399,-0.000297\C,-0.405051,0.122861,0.000221\C,0.93779
 5,0.08668,0.000385\C,2.353793,-0.319211,0.000322\C,-0.874921,1.57818,-
 0.000906\H,-1.068677,-2.05066,0.001524\H,-2.503522,-0.775682,-0.002211
 \\Version=EM64L-G09RevE.01\State=2-A\HF=-189.6143377\S2=1.039898\S2-1=
 0.\S2A=0.785977\RMSD=4.528e-09\RMSF=6.821e-05\ZeroPoint=0.0341889\Ther
 mal=0.0402398\Dipole=-0.4357785,-0.3539006,-0.0002774\DipoleDeriv=0.82
 28377,0.4699567,-0.0005924,0.6489186,0.6518638,0.000558,-0.0001481,0.0
 00593,0.6090663,-0.9846628,0.1512094,-0.0003878,-0.1307904,-0.7542159,
 0.0005755,-0.0010719,0.0005267,0.3129518,0.2258088,0.2514819,0.0000592
 ,0.5934609,0.0674364,0.0001407,0.0003362,0.0002039,0.6586813,1.4741041
 ,-0.4142603,0.0001692,-0.4043088,0.7366541,-0.0000737,-0.0000028,-0.00
 00273,0.5214469,0.7891137,-0.4692887,0.0001645,-0.7736426,1.6049978,-0
 .000725,0.0003565,-0.0008619,0.5839124,0.0950616,-0.0645153,0.0001432,
 0.1027405,0.5343133,-0.0004509,-0.000485,-0.0006296,0.1465918,0.577736
 9,0.0754163,0.0004441,-0.0363783,0.1589504,-0.0000246,0.001015,0.00019
 52,0.1673495\Polar=77.9102528,-7.3583349,45.1182309,0.0140126,-0.00958
 95,24.4472881\PG=C01 [X(C5H2)]\NImag=0\\0.51692770,-0.08580297,0.48781
 357,0.00063022,-0.00047209,0.15259457,-0.11867216,-0.04854086,-0.00004
 187,0.58939895,-0.03368622,-0.12872169,-0.00003243,0.04101943,0.292485
 35,-0.00007311,-0.00003765,-0.06655485,0.00013691,-0.00006626,0.082992
 10,-0.02709667,0.00168400,0.00000604,-0.44249827,-0.00724562,-0.000036
 39,0.58264128,-0.01766141,0.00587258,0.00000081,0.01360162,-0.04946898
 ,0.00001696,-0.05765697,0.07981792,0.00000043,0.00000142,0.01030036,-0
 .00003950,-0.00000977,-0.03014172,0.00005821,-0.00000801,0.02887403,-0
 .01150678,-0.01156503,-0.00001260,0.01347353,-0.01643577,0.00002735,-0
 .10876145,0.05417062,-0.00001149,0.10979656,0.00485548,0.00355169,0.00
 000517,-0.00883020,0.01072716,-0.00000824,0.04682935,-0.03403282,0.000
 00284,-0.04196268,0.02260573,-0.00000074,0.00000445,-0.00073586,-0.000
 00540,-0.00000313,0.00342700,0.00000773,-0.00000036,-0.01060841,-0.000
 00165,0.00000139,0.00544895,0.01766078,0.00112240,0.00000038,-0.042511
 56,0.03817893,-0.00003574,-0.00591468,0.00892767,-0.00000646,-0.002434
 38,-0.00014170,-0.00000040,0.03526645,-0.00941110,-0.02393587,0.000004
 66,0.02068996,-0.11904751,0.00008626,0.01708585,0.00034196,0.00001989,
 0.02002568,-0.00460560,-0.00000273,-0.04491079,0.14694308,0.00001020,0
 .00001362,0.00880656,-0.00002273,0.00009376,-0.02054127,-0.00002304,0.
 ,0.00343698,-0.00000472,0.00000073,0.00176359,0.00003736,-0.00010566,0
 .00745659,-0.08163883,0.08871797,-0.00014502,0.00069065,-0.02601075,0.
 00000713,0.00167862,-0.00057279,0.00000347,0.00142731,-0.00123777,0.00
 000024,-0.00219399,0.00005960,-0.00000255,0.07767804,0.07821948,-0.277
 07762,0.00038600,0.00609232,-0.00572436,0.00003369,0.00109208,0.000203
 42,-0.00000707,-0.00326749,0.00138749,0.00000033,-0.00057718,-0.002459
 71,0.00000244,-0.08177628,0.27898107,-0.00014241,0.00039699,-0.0505233
 9,-0.00002152,-0.00000158,0.01301184,-0.00001229,-0.00000766,-0.000976
 28,0.00001536,-0.00000541,0.00059920,-0.00000545,-0.00000015,0.0006876
 3,0.00018777,-0.00043136,0.01879072,-0.29567404,0.05438449,-0.00043715
 ,0.00011886,0.00417999,-0.00002614,-0.00004883,-0.00080874,-0.00000465
 ,-0.00199478,0.00048751,0.00000022,0.00012739,-0.00353920,0.00000547,0
 .00235821,0.00021706,-0.00002146,0.29511318,0.06348674,-0.06750267,0.0
 0010788,-0.02403228,-0.00024997,-0.00002476,-0.00178869,-0.00273409,0.
 00000071,-0.00096534,0.00036634,0.00000004,-0.00259933,0.00276365,-0.0
 0000488,0.02082000,0.00468970,0.00004917,-0.05492110,0.06266703,-0.000
 42460,0.00009326,-0.05388739,-0.00000590,0.00001941,0.01780690,-0.0000
 0025,-0.00000173,-0.00088497,-0.00001225,0.00000351,0.00010553,0.00001
 032,-0.00000228,-0.00161009,-0.00005103,0.00001598,0.01841028,0.000483
 71,-0.00012815,0.02005973\\-0.00005651,0.00014892,-0.00004183,-0.00018
 118,-0.00002250,0.00005034,0.00014342,0.00001861,-0.00000878,-0.000002
 21,-0.00000624,-0.00000431,0.00001790,-0.00003513,-0.00001396,0.000038
 03,-0.00009238,0.00000959,0.00004055,-0.00001128,0.00000896\\\@


 Spring appears, and we are once more children.
                                  -- Anonymous
 Job cpu time:       0 days  0 hours 53 minutes  5.8 seconds.
 File lengths (MBytes):  RWF=     57 Int=      0 D2E=      0 Chk=      5 Scr=      1
 Normal termination of Gaussian 09 at Sun Jun 19 04:53:38 2016.
