 Entering Gaussian System, Link 0=/home/proyectos/fulerenos/M3C-v2.0/M3C-deps_CCC/g09-AM64L-G09RevC.01/g09
 Initial command:
 /home/proyectos/fulerenos/M3C-v2.0/M3C-deps_CCC/g09-AM64L-G09RevC.01/l1.exe "/scratch/naguirre/gaussian/Gau-13900.inp" -scrdir="/scratch/naguirre/gaussian/"
 Entering Link 1 = /home/proyectos/fulerenos/M3C-v2.0/M3C-deps_CCC/g09-AM64L-G09RevC.01/l1.exe PID=     13903.
  
 Copyright (c) 1988,1990,1992,1993,1995,1998,2003,2009,2015,
            Gaussian, Inc.  All Rights Reserved.
  
 This is part of the Gaussian(R) 09 program.  It is based on
 the Gaussian(R) 03 system (copyright 2003, Gaussian, Inc.),
 the Gaussian(R) 98 system (copyright 1998, Gaussian, Inc.),
 the Gaussian(R) 94 system (copyright 1995, Gaussian, Inc.),
 the Gaussian 92(TM) system (copyright 1992, Gaussian, Inc.),
 the Gaussian 90(TM) system (copyright 1990, Gaussian, Inc.),
 the Gaussian 88(TM) system (copyright 1988, Gaussian, Inc.),
 the Gaussian 86(TM) system (copyright 1986, Carnegie Mellon
 University), and the Gaussian 82(TM) system (copyright 1983,
 Carnegie Mellon University). Gaussian is a federally registered
 trademark of Gaussian, Inc.
  
 This software contains proprietary and confidential information,
 including trade secrets, belonging to Gaussian, Inc.
  
 This software is provided under written license and may be
 used, copied, transmitted, or stored only in accord with that
 written license.
  
 The following legend is applicable only to US Government
 contracts under FAR:
  
                    RESTRICTED RIGHTS LEGEND
  
 Use, reproduction and disclosure by the US Government is
 subject to restrictions as set forth in subparagraphs (a)
 and (c) of the Commercial Computer Software - Restricted
 Rights clause in FAR 52.227-19.
  
 Gaussian, Inc.
 340 Quinnipiac St., Bldg. 40, Wallingford CT 06492
  
  
 ---------------------------------------------------------------
 Warning -- This program may not be used in any manner that
 competes with the business of Gaussian, Inc. or will provide
 assistance to any competitor of Gaussian, Inc.  The licensee
 of this program is prohibited from giving any competitor of
 Gaussian, Inc. access to this program.  By using this program,
 the user acknowledges that Gaussian, Inc. is engaged in the
 business of creating and licensing software in the field of
 computational chemistry and represents and warrants to the
 licensee that it is not a competitor of Gaussian, Inc. and that
 it will not use this program in any manner prohibited above.
 ---------------------------------------------------------------
  

 Cite this work as:
 Gaussian 09, Revision E.01,
 M. J. Frisch, G. W. Trucks, H. B. Schlegel, G. E. Scuseria, 
 M. A. Robb, J. R. Cheeseman, G. Scalmani, V. Barone, B. Mennucci, 
 G. A. Petersson, H. Nakatsuji, M. Caricato, X. Li, H. P. Hratchian, 
 A. F. Izmaylov, J. Bloino, G. Zheng, J. L. Sonnenberg, M. Hada, 
 M. Ehara, K. Toyota, R. Fukuda, J. Hasegawa, M. Ishida, T. Nakajima, 
 Y. Honda, O. Kitao, H. Nakai, T. Vreven, J. A. Montgomery, Jr., 
 J. E. Peralta, F. Ogliaro, M. Bearpark, J. J. Heyd, E. Brothers, 
 K. N. Kudin, V. N. Staroverov, T. Keith, R. Kobayashi, J. Normand, 
 K. Raghavachari, A. Rendell, J. C. Burant, S. S. Iyengar, J. Tomasi, 
 M. Cossi, N. Rega, J. M. Millam, M. Klene, J. E. Knox, J. B. Cross, 
 V. Bakken, C. Adamo, J. Jaramillo, R. Gomperts, R. E. Stratmann, 
 O. Yazyev, A. J. Austin, R. Cammi, C. Pomelli, J. W. Ochterski, 
 R. L. Martin, K. Morokuma, V. G. Zakrzewski, G. A. Voth, 
 P. Salvador, J. J. Dannenberg, S. Dapprich, A. D. Daniels, 
 O. Farkas, J. B. Foresman, J. V. Ortiz, J. Cioslowski, 
 and D. J. Fox, Gaussian, Inc., Wallingford CT, 2013.
 
 ******************************************
 Gaussian 09:  EM64L-G09RevE.01 30-Nov-2015
                19-Jul-2016 
 ******************************************
 %NProcShared=1
 Will use up to    1 processors via shared memory.
 ---------------------------------------------
 #p b3lyp/6-311++G(3df,2p) freq symmetry=Loose
 ---------------------------------------------
 1/10=4,30=1,38=1/1,3;
 2/12=2,17=4,18=3,40=1/2;
 3/5=4,6=6,7=1216,11=2,16=1,25=1,30=1,71=2,74=-5,140=1/1,2,3;
 4//1;
 5/5=2,38=5,98=1/2;
 8/6=4,10=90,11=11/1;
 11/6=1,8=1,9=11,15=111,16=1/1,2,10;
 10/6=1/2;
 6/7=2,8=2,9=2,10=2,18=1,28=1/1;
 7/8=1,10=1,25=1/1,2,3,16;
 1/10=4,30=1/3;
 99//99;
 Leave Link    1 at Tue Jul 19 05:00:09 2016, MaxMem=           0 cpu:         0.1
 (Enter /home/proyectos/fulerenos/M3C-v2.0/M3C-deps_CCC/g09-AM64L-G09RevC.01/l101.exe)
 ---------
 b3lyp opt
 ---------
 Symbolic Z-matrix:
 Charge =  3 Multiplicity = 2
 C                    -0.69208  -0.02466  -0.00018 
 C                     2.02317  -0.06912   0.00015 
 C                     0.67046  -0.05751  -0.00007 
 C                    -1.24283   1.35581   0.00655 
 C                    -1.63374  -1.174    -0.00606 
 H                     2.62471  -0.08195  -0.95945 
 H                     2.62432  -0.09145   0.95981 
 
 NAtoms=      7 NQM=        7 NQMF=       0 NMMI=      0 NMMIF=      0
                NMic=       0 NMicF=      0.
                    Isotopes and Nuclear Properties:
 (Nuclear quadrupole moments (NQMom) in fm**2, nuclear magnetic moments (NMagM)
  in nuclear magnetons)

  Atom         1           2           3           4           5           6           7
 IAtWgt=          12          12          12          12          12           1           1
 AtmWgt=  12.0000000  12.0000000  12.0000000  12.0000000  12.0000000   1.0078250   1.0078250
 NucSpn=           0           0           0           0           0           1           1
 AtZEff=   0.0000000   0.0000000   0.0000000   0.0000000   0.0000000   0.0000000   0.0000000
 NQMom=    0.0000000   0.0000000   0.0000000   0.0000000   0.0000000   0.0000000   0.0000000
 NMagM=    0.0000000   0.0000000   0.0000000   0.0000000   0.0000000   2.7928460   2.7928460
 AtZNuc=   6.0000000   6.0000000   6.0000000   6.0000000   6.0000000   1.0000000   1.0000000
 Leave Link  101 at Tue Jul 19 05:00:09 2016, MaxMem=    33554432 cpu:         0.2
 (Enter /home/proyectos/fulerenos/M3C-v2.0/M3C-deps_CCC/g09-AM64L-G09RevC.01/l103.exe)

 GradGradGradGradGradGradGradGradGradGradGradGradGradGradGradGradGradGrad
 Berny optimization.
 Initialization pass.
 Trust Radius=3.00D-01 FncErr=1.00D-07 GrdErr=1.00D-07
 Number of steps in this run=      2 maximum allowed number of steps=      2.
 GradGradGradGradGradGradGradGradGradGradGradGradGradGradGradGradGradGrad

 Leave Link  103 at Tue Jul 19 05:00:09 2016, MaxMem=    33554432 cpu:         0.1
 (Enter /home/proyectos/fulerenos/M3C-v2.0/M3C-deps_CCC/g09-AM64L-G09RevC.01/l202.exe)
                          Input orientation:                          
 ---------------------------------------------------------------------
 Center     Atomic      Atomic             Coordinates (Angstroms)
 Number     Number       Type             X           Y           Z
 ---------------------------------------------------------------------
      1          6           0       -0.692077   -0.024656   -0.000180
      2          6           0        2.023169   -0.069124    0.000145
      3          6           0        0.670458   -0.057507   -0.000069
      4          6           0       -1.242827    1.355810    0.006546
      5          6           0       -1.633742   -1.174002   -0.006061
      6          1           0        2.624707   -0.081949   -0.959449
      7          1           0        2.624322   -0.091454    0.959807
 ---------------------------------------------------------------------
                    Distance matrix (angstroms):
                    1          2          3          4          5
     1  C    0.000000
     2  C    2.715610   0.000000
     3  C    1.362931   1.352761   0.000000
     4  C    1.486290   3.563314   2.378691   0.000000
     5  C    1.485855   3.820182   2.560456   2.559868   0.000000
     6  H    3.453192   1.132623   2.177177   4.237702   4.498435
     7  H    3.453192   1.132623   2.177177   4.237702   4.498435
                    6          7
     6  H    0.000000
     7  H    1.919280   0.000000
 Stoichiometry    C5H2(3+,2)
 Framework group  CS[SG(C5),X(H2)]
 Deg. of freedom    10
 Full point group                 CS      NOp   2
 Largest Abelian subgroup         CS      NOp   2
 Largest concise Abelian subgroup CS      NOp   2
                         Standard orientation:                         
 ---------------------------------------------------------------------
 Center     Atomic      Atomic             Coordinates (Angstroms)
 Number     Number       Type             X           Y           Z
 ---------------------------------------------------------------------
      1          6           0       -0.084317   -0.687341   -0.000000
      2          6           0        0.104629    2.021688    0.000000
      3          6           0       -0.000000    0.672980    0.000000
      4          6           0        1.243751   -1.354643   -0.000000
      5          6           0       -1.310322   -1.526791   -0.000000
      6          1           0        0.138776    2.622321    0.959640
      7          1           0        0.138776    2.622321   -0.959640
 ---------------------------------------------------------------------
 Rotational constants (GHZ):     12.4563366      4.0068215      3.1006895
 Leave Link  202 at Tue Jul 19 05:00:09 2016, MaxMem=    33554432 cpu:         0.0
 (Enter /home/proyectos/fulerenos/M3C-v2.0/M3C-deps_CCC/g09-AM64L-G09RevC.01/l301.exe)
 Standard basis: 6-311++G(3df,2p) (5D, 7F)
 Ernie: Thresh=  0.10000D-02 Tol=  0.10000D-05 Strict=F.
 There are   165 symmetry adapted cartesian basis functions of A'  symmetry.
 There are    80 symmetry adapted cartesian basis functions of A"  symmetry.
 There are   140 symmetry adapted basis functions of A'  symmetry.
 There are    75 symmetry adapted basis functions of A"  symmetry.
   215 basis functions,   314 primitive gaussians,   245 cartesian basis functions
    15 alpha electrons       14 beta electrons
       nuclear repulsion energy       107.4857603089 Hartrees.
 IExCor=  402 DFT=T Ex+Corr=B3LYP ExCW=0 ScaHFX=  0.200000
 ScaDFX=  0.800000  0.720000  1.000000  0.810000 ScalE2=  1.000000  1.000000
 IRadAn=      0 IRanWt=     -1 IRanGd=            0 ICorTp=0 IEmpDi=  4
 NAtoms=    7 NActive=    7 NUniq=    6 SFac= 1.36D+00 NAtFMM=   60 NAOKFM=F Big=F
 Integral buffers will be    131072 words long.
 Raffenetti 2 integral format.
 Two-electron integral symmetry is turned on.
 Leave Link  301 at Tue Jul 19 05:00:09 2016, MaxMem=    33554432 cpu:         0.2
 (Enter /home/proyectos/fulerenos/M3C-v2.0/M3C-deps_CCC/g09-AM64L-G09RevC.01/l302.exe)
 NPDir=0 NMtPBC=     1 NCelOv=     1 NCel=       1 NClECP=     1 NCelD=      1
         NCelK=      1 NCelE2=     1 NClLst=     1 CellRange=     0.0.
 One-electron integrals computed using PRISM.
 One-electron integral symmetry used in STVInt
 NBasis=   215 RedAO= T EigKep=  2.90D-06  NBF=   140    75
 NBsUse=   215 1.00D-06 EigRej= -1.00D+00 NBFU=   140    75
 Precomputing XC quadrature grid using
 IXCGrd= 4 IRadAn=           0 IRanWt=          -1 IRanGd=           0 AccXCQ= 0.00D+00.
 Generated NRdTot=       0 NPtTot=           0 NUsed=           0 NTot=          32
 NSgBfM=   245   245   245   245   245 MxSgAt=     7 MxSgA2=     7.
 Leave Link  302 at Tue Jul 19 05:00:10 2016, MaxMem=    33554432 cpu:         0.5
 (Enter /home/proyectos/fulerenos/M3C-v2.0/M3C-deps_CCC/g09-AM64L-G09RevC.01/l303.exe)
 DipDrv:  MaxL=1.
 Leave Link  303 at Tue Jul 19 05:00:10 2016, MaxMem=    33554432 cpu:         0.1
 (Enter /home/proyectos/fulerenos/M3C-v2.0/M3C-deps_CCC/g09-AM64L-G09RevC.01/l401.exe)
 ExpMin= 3.60D-02 ExpMax= 4.56D+03 ExpMxC= 6.82D+02 IAcc=3 IRadAn=         5 AccDes= 0.00D+00
 Harris functional with IExCor=  402 and IRadAn=       5 diagonalized for initial guess.
 HarFok:  IExCor=  402 AccDes= 0.00D+00 IRadAn=         5 IDoV= 1 UseB2=F ITyADJ=14
 ICtDFT=  3500011 ScaDFX=  1.000000  1.000000  1.000000  1.000000
 FoFCou: FMM=F IPFlag=           0 FMFlag=      100000 FMFlg1=           0
         NFxFlg=           0 DoJE=T BraDBF=F KetDBF=T FulRan=T
         wScrn=  0.000000 ICntrl=     500 IOpCl=  0 I1Cent=   200000004 NGrid=           0
         NMat0=    1 NMatS0=      1 NMatT0=    0 NMatD0=    1 NMtDS0=    0 NMtDT0=    0
 Petite list used in FoFCou.
 Harris En= -190.607486632639    
 JPrj=0 DoOrth=F DoCkMO=F.
 Initial guess orbital symmetries:
 Alpha Orbitals:
       Occupied  (A') (A') (A') (A') (A') (A') (A') (A') (A') (A')
                 (A") (A") (A') (A') (A')
       Virtual   (A') (A") (A") (A') (A') (A") (A') (A") (A') (A')
                 (A') (A') (A') (A") (A') (A') (A") (A') (A') (A")
                 (A") (A') (A') (A') (A") (A') (A') (A') (A') (A")
                 (A') (A") (A') (A') (A') (A") (A') (A") (A') (A')
                 (A') (A") (A') (A') (A') (A') (A") (A") (A') (A')
                 (A") (A") (A') (A') (A") (A') (A') (A') (A") (A")
                 (A') (A') (A") (A') (A") (A") (A') (A") (A') (A')
                 (A') (A') (A") (A') (A') (A") (A') (A') (A') (A')
                 (A") (A') (A') (A') (A") (A') (A') (A") (A") (A")
                 (A') (A') (A') (A") (A') (A") (A") (A') (A') (A")
                 (A') (A') (A") (A') (A") (A') (A') (A') (A') (A")
                 (A') (A") (A") (A') (A') (A") (A') (A") (A') (A")
                 (A") (A') (A") (A') (A") (A') (A') (A') (A") (A')
                 (A") (A') (A") (A') (A') (A") (A') (A") (A') (A")
                 (A') (A') (A') (A") (A') (A') (A') (A") (A') (A")
                 (A') (A') (A') (A") (A') (A') (A') (A") (A') (A")
                 (A") (A') (A") (A') (A') (A') (A") (A") (A') (A')
                 (A") (A') (A") (A") (A") (A') (A') (A") (A') (A")
                 (A') (A') (A') (A") (A') (A') (A') (A") (A") (A')
                 (A') (A") (A') (A') (A') (A') (A') (A') (A') (A')
 Beta  Orbitals:
       Occupied  (A') (A') (A') (A') (A') (A') (A') (A') (A') (A')
                 (A") (A") (A') (A')
       Virtual   (A') (A') (A") (A") (A') (A') (A") (A') (A") (A')
                 (A') (A') (A') (A') (A") (A') (A') (A") (A') (A')
                 (A") (A") (A') (A') (A') (A") (A') (A') (A') (A')
                 (A") (A') (A") (A') (A') (A') (A") (A') (A") (A')
                 (A') (A') (A") (A') (A') (A') (A') (A") (A") (A')
                 (A') (A") (A") (A') (A') (A") (A') (A') (A') (A")
                 (A") (A') (A') (A") (A') (A") (A") (A') (A") (A')
                 (A') (A') (A') (A") (A') (A') (A") (A') (A') (A')
                 (A') (A") (A') (A') (A') (A") (A') (A') (A") (A")
                 (A") (A') (A') (A') (A") (A') (A") (A") (A') (A')
                 (A") (A') (A') (A") (A') (A") (A') (A') (A') (A')
                 (A") (A') (A") (A") (A') (A') (A") (A') (A") (A')
                 (A") (A") (A') (A") (A') (A") (A') (A') (A') (A")
                 (A') (A") (A') (A") (A') (A') (A") (A') (A") (A')
                 (A") (A') (A') (A') (A") (A') (A') (A') (A") (A')
                 (A") (A') (A') (A') (A") (A') (A') (A') (A") (A')
                 (A") (A") (A') (A") (A') (A') (A') (A") (A") (A')
                 (A') (A") (A') (A") (A") (A") (A') (A') (A") (A')
                 (A") (A') (A') (A') (A") (A') (A') (A') (A") (A")
                 (A') (A') (A") (A') (A') (A') (A') (A') (A') (A')
                 (A')
 The electronic state of the initial guess is 2-A'.
 Initial guess <Sx>= 0.0000 <Sy>= 0.0000 <Sz>= 0.5000 <S**2>= 0.7500 S= 0.5000
 Leave Link  401 at Tue Jul 19 05:00:15 2016, MaxMem=    33554432 cpu:         4.2
 (Enter /home/proyectos/fulerenos/M3C-v2.0/M3C-deps_CCC/g09-AM64L-G09RevC.01/l502.exe)
 UHF open shell SCF:
 Using DIIS extrapolation, IDIIS=  1040.
 Integral symmetry usage will be decided dynamically.
 IVT=      202127 IEndB=      202127 NGot=    33554432 MDV=    33429216
 LenX=    33429216 LenY=    33368750
 Requested convergence on RMS density matrix=1.00D-08 within 128 cycles.
 Requested convergence on MAX density matrix=1.00D-06.
 Requested convergence on             energy=1.00D-06.
 No special actions if energy rises.
 Fock matrices will be formed incrementally for  20 cycles.

 Cycle   1  Pass 1  IDiag  1:
 FoFJK:  IHMeth= 1 ICntrl=       0 DoSepK=F KAlg= 0 I1Cent=   0 FoldK=F
 IRaf= 970000000 NMat=   1 IRICut=       1 DoRegI=T DoRafI=F ISym2E= 1.
 FoFCou: FMM=F IPFlag=           0 FMFlag=      100000 FMFlg1=           0
         NFxFlg=           0 DoJE=F BraDBF=F KetDBF=F FulRan=T
         wScrn=  0.000000 ICntrl=       0 IOpCl=  1 I1Cent=           0 NGrid=           0
         NMat0=    1 NMatS0=      1 NMatT0=    0 NMatD0=    1 NMtDS0=    0 NMtDT0=    0
 Petite list used in FoFCou.
 E= -189.396974567744    
 DIIS: error= 5.53D-02 at cycle   1 NSaved=   1.
 NSaved= 1 IEnMin= 1 EnMin= -189.396974567744     IErMin= 1 ErrMin= 5.53D-02
 ErrMax= 5.53D-02  0.00D+00 EMaxC= 1.00D-01 BMatC= 6.04D-01 BMatP= 6.04D-01
 IDIUse=3 WtCom= 4.47D-01 WtEn= 5.53D-01
 Coeff-Com:  0.100D+01
 Coeff-En:   0.100D+01
 Coeff:      0.100D+01
 Gap=     0.023 Goal=   None    Shift=    0.000
 Gap=     0.079 Goal=   None    Shift=    0.000
 GapD=    0.023 DampG=0.250 DampE=0.500 DampFc=0.2500 IDamp=-1.
 Damping current iteration by 2.50D-01
 RMSDP=2.13D-02 MaxDP=9.34D-01              OVMax= 9.56D-01

 Cycle   2  Pass 1  IDiag  1:
 RMSU=  5.21D-03    CP:  1.06D+00
 E= -189.046943077380     Delta-E=        0.350031490364 Rises=F Damp=T
 DIIS: error= 3.94D-02 at cycle   2 NSaved=   2.
 NSaved= 2 IEnMin= 1 EnMin= -189.396974567744     IErMin= 2 ErrMin= 3.94D-02
 ErrMax= 3.94D-02  0.00D+00 EMaxC= 1.00D-01 BMatC= 3.15D-01 BMatP= 6.04D-01
 IDIUse=3 WtCom= 6.06D-01 WtEn= 3.94D-01
 Coeff-Com:  0.377D+00 0.623D+00
 Coeff-En:   0.785D+00 0.215D+00
 Coeff:      0.538D+00 0.462D+00
 Gap=     0.091 Goal=   None    Shift=    0.000
 Gap=    -0.145 Goal=   None    Shift=    0.000
 RMSDP=7.49D-03 MaxDP=3.77D-01 DE= 3.50D-01 OVMax= 9.77D-01

 Cycle   3  Pass 1  IDiag  1:
 RMSU=  6.84D-03    CP:  1.10D+00  4.33D-01
 E= -189.568401929112     Delta-E=       -0.521458851732 Rises=F Damp=F
 DIIS: error= 2.80D-02 at cycle   3 NSaved=   3.
 NSaved= 3 IEnMin= 3 EnMin= -189.568401929112     IErMin= 3 ErrMin= 2.80D-02
 ErrMax= 2.80D-02  0.00D+00 EMaxC= 1.00D-01 BMatC= 2.44D-01 BMatP= 3.15D-01
 IDIUse=3 WtCom= 7.20D-01 WtEn= 2.80D-01
 Coeff-Com:  0.106D+00 0.435D+00 0.459D+00
 Coeff-En:   0.000D+00 0.000D+00 0.100D+01
 Coeff:      0.761D-01 0.313D+00 0.611D+00
 Gap=     0.113 Goal=   None    Shift=    0.000
 Gap=     0.113 Goal=   None    Shift=    0.000
 RMSDP=4.20D-03 MaxDP=1.63D-01 DE=-5.21D-01 OVMax= 2.47D-01

 Cycle   4  Pass 1  IDiag  1:
 RMSU=  3.85D-03    CP:  1.11D+00  7.00D-01  8.68D-01
 E= -189.596659857196     Delta-E=       -0.028257928084 Rises=F Damp=F
 DIIS: error= 2.29D-02 at cycle   4 NSaved=   4.
 NSaved= 4 IEnMin= 4 EnMin= -189.596659857196     IErMin= 4 ErrMin= 2.29D-02
 ErrMax= 2.29D-02  0.00D+00 EMaxC= 1.00D-01 BMatC= 1.71D-01 BMatP= 2.44D-01
 IDIUse=3 WtCom= 7.71D-01 WtEn= 2.29D-01
 Coeff-Com: -0.462D-01 0.214D+00 0.442D+00 0.390D+00
 Coeff-En:   0.000D+00 0.000D+00 0.401D+00 0.599D+00
 Coeff:     -0.356D-01 0.165D+00 0.432D+00 0.438D+00
 Gap=     0.125 Goal=   None    Shift=    0.000
 Gap=     0.115 Goal=   None    Shift=    0.000
 RMSDP=2.41D-03 MaxDP=1.21D-01 DE=-2.83D-02 OVMax= 1.06D-01

 Cycle   5  Pass 1  IDiag  1:
 RMSU=  1.32D-03    CP:  1.12D+00  6.20D-01  1.04D+00  5.91D-01
 E= -189.641757681079     Delta-E=       -0.045097823883 Rises=F Damp=F
 DIIS: error= 5.90D-03 at cycle   5 NSaved=   5.
 NSaved= 5 IEnMin= 5 EnMin= -189.641757681079     IErMin= 5 ErrMin= 5.90D-03
 ErrMax= 5.90D-03  0.00D+00 EMaxC= 1.00D-01 BMatC= 1.52D-02 BMatP= 1.71D-01
 IDIUse=3 WtCom= 9.41D-01 WtEn= 5.90D-02
 Coeff-Com: -0.604D-01 0.102D+00 0.219D+00 0.272D+00 0.467D+00
 Coeff-En:   0.000D+00 0.000D+00 0.000D+00 0.328D-01 0.967D+00
 Coeff:     -0.569D-01 0.964D-01 0.206D+00 0.258D+00 0.497D+00
 Gap=     0.131 Goal=   None    Shift=    0.000
 Gap=     0.116 Goal=   None    Shift=    0.000
 RMSDP=1.42D-03 MaxDP=5.99D-02 DE=-4.51D-02 OVMax= 8.66D-02

 Cycle   6  Pass 1  IDiag  1:
 RMSU=  8.13D-04    CP:  1.11D+00  6.29D-01  1.01D+00  8.08D-01  4.19D-01
 E= -189.644684680410     Delta-E=       -0.002926999331 Rises=F Damp=F
 DIIS: error= 4.57D-03 at cycle   6 NSaved=   6.
 NSaved= 6 IEnMin= 6 EnMin= -189.644684680410     IErMin= 6 ErrMin= 4.57D-03
 ErrMax= 4.57D-03  0.00D+00 EMaxC= 1.00D-01 BMatC= 8.76D-03 BMatP= 1.52D-02
 IDIUse=3 WtCom= 9.54D-01 WtEn= 4.57D-02
 Coeff-Com: -0.464D-01 0.498D-01 0.481D-01 0.838D-01 0.414D+00 0.451D+00
 Coeff-En:   0.000D+00 0.000D+00 0.000D+00 0.000D+00 0.338D+00 0.662D+00
 Coeff:     -0.442D-01 0.475D-01 0.459D-01 0.800D-01 0.410D+00 0.461D+00
 Gap=     0.131 Goal=   None    Shift=    0.000
 Gap=     0.117 Goal=   None    Shift=    0.000
 RMSDP=7.84D-04 MaxDP=3.42D-02 DE=-2.93D-03 OVMax= 5.36D-02

 Cycle   7  Pass 1  IDiag  1:
 RMSU=  3.89D-04    CP:  1.11D+00  6.60D-01  1.02D+00  7.48D-01  8.37D-01
                    CP:  6.84D-01
 E= -189.648372964493     Delta-E=       -0.003688284083 Rises=F Damp=F
 DIIS: error= 1.83D-03 at cycle   7 NSaved=   7.
 NSaved= 7 IEnMin= 7 EnMin= -189.648372964493     IErMin= 7 ErrMin= 1.83D-03
 ErrMax= 1.83D-03  0.00D+00 EMaxC= 1.00D-01 BMatC= 1.38D-03 BMatP= 8.76D-03
 IDIUse=3 WtCom= 9.82D-01 WtEn= 1.83D-02
 Coeff-Com: -0.155D-01 0.185D-01-0.154D-01-0.363D-01 0.105D+00 0.313D+00
 Coeff-Com:  0.630D+00
 Coeff-En:   0.000D+00 0.000D+00 0.000D+00 0.000D+00 0.000D+00 0.000D+00
 Coeff-En:   0.100D+01
 Coeff:     -0.152D-01 0.182D-01-0.151D-01-0.356D-01 0.103D+00 0.307D+00
 Coeff:      0.637D+00
 Gap=     0.134 Goal=   None    Shift=    0.000
 Gap=     0.117 Goal=   None    Shift=    0.000
 RMSDP=3.80D-04 MaxDP=1.79D-02 DE=-3.69D-03 OVMax= 2.61D-02

 Cycle   8  Pass 1  IDiag  1:
 RMSU=  2.41D-04    CP:  1.11D+00  6.47D-01  1.01D+00  7.62D-01  8.07D-01
                    CP:  1.00D+00  1.18D+00
 E= -189.649229102703     Delta-E=       -0.000856138210 Rises=F Damp=F
 DIIS: error= 7.37D-04 at cycle   8 NSaved=   8.
 NSaved= 8 IEnMin= 8 EnMin= -189.649229102703     IErMin= 8 ErrMin= 7.37D-04
 ErrMax= 7.37D-04  0.00D+00 EMaxC= 1.00D-01 BMatC= 3.72D-04 BMatP= 1.38D-03
 IDIUse=3 WtCom= 9.93D-01 WtEn= 7.37D-03
 Coeff-Com:  0.630D-02-0.280D-02-0.130D-02-0.447D-01-0.131D+00-0.460D-01
 Coeff-Com:  0.327D+00 0.893D+00
 Coeff-En:   0.000D+00 0.000D+00 0.000D+00 0.000D+00 0.000D+00 0.000D+00
 Coeff-En:   0.000D+00 0.100D+01
 Coeff:      0.626D-02-0.278D-02-0.129D-02-0.443D-01-0.130D+00-0.457D-01
 Coeff:      0.325D+00 0.894D+00
 Gap=     0.137 Goal=   None    Shift=    0.000
 Gap=     0.119 Goal=   None    Shift=    0.000
 RMSDP=3.42D-04 MaxDP=1.24D-02 DE=-8.56D-04 OVMax= 3.45D-02

 Cycle   9  Pass 1  IDiag  1:
 RMSU=  1.55D-04    CP:  1.12D+00  6.54D-01  9.97D-01  7.67D-01  8.45D-01
                    CP:  1.19D+00  1.67D+00  1.60D+00
 E= -189.649737376684     Delta-E=       -0.000508273981 Rises=F Damp=F
 DIIS: error= 6.06D-04 at cycle   9 NSaved=   9.
 NSaved= 9 IEnMin= 9 EnMin= -189.649737376684     IErMin= 9 ErrMin= 6.06D-04
 ErrMax= 6.06D-04  0.00D+00 EMaxC= 1.00D-01 BMatC= 1.73D-04 BMatP= 3.72D-04
 IDIUse=3 WtCom= 9.94D-01 WtEn= 6.06D-03
 Coeff-Com:  0.942D-02-0.853D-02 0.155D-01 0.191D-02-0.492D-01-0.795D-01
 Coeff-Com: -0.932D-01 0.112D+00 0.109D+01
 Coeff-En:   0.000D+00 0.000D+00 0.000D+00 0.000D+00 0.000D+00 0.000D+00
 Coeff-En:   0.000D+00 0.000D+00 0.100D+01
 Coeff:      0.937D-02-0.848D-02 0.154D-01 0.189D-02-0.489D-01-0.790D-01
 Coeff:     -0.926D-01 0.112D+00 0.109D+01
 Gap=     0.139 Goal=   None    Shift=    0.000
 Gap=     0.120 Goal=   None    Shift=    0.000
 RMSDP=3.45D-04 MaxDP=1.43D-02 DE=-5.08D-04 OVMax= 2.42D-02

 Cycle  10  Pass 1  IDiag  1:
 RMSU=  9.93D-05    CP:  1.12D+00  6.57D-01  9.86D-01  7.70D-01  8.41D-01
                    CP:  1.37D+00  1.99D+00  2.26D+00  2.30D+00
 E= -189.650078430816     Delta-E=       -0.000341054132 Rises=F Damp=F
 DIIS: error= 6.36D-04 at cycle  10 NSaved=  10.
 NSaved=10 IEnMin=10 EnMin= -189.650078430816     IErMin= 9 ErrMin= 6.06D-04
 ErrMax= 6.36D-04  0.00D+00 EMaxC= 1.00D-01 BMatC= 1.60D-04 BMatP= 1.73D-04
 IDIUse=3 WtCom= 9.94D-01 WtEn= 6.06D-03
 Coeff-Com:  0.403D-02-0.487D-02 0.734D-02 0.119D-01 0.466D-01 0.342D-01
 Coeff-Com:  0.789D-02-0.216D+00-0.334D+00 0.144D+01
 Coeff-En:   0.000D+00 0.000D+00 0.000D+00 0.000D+00 0.000D+00 0.000D+00
 Coeff-En:   0.000D+00 0.000D+00 0.000D+00 0.100D+01
 Coeff:      0.401D-02-0.484D-02 0.730D-02 0.119D-01 0.463D-01 0.339D-01
 Coeff:      0.784D-02-0.215D+00-0.332D+00 0.144D+01
 Gap=     0.140 Goal=   None    Shift=    0.000
 Gap=     0.120 Goal=   None    Shift=    0.000
 RMSDP=3.67D-04 MaxDP=1.37D-02 DE=-3.41D-04 OVMax= 1.91D-02

 Cycle  11  Pass 1  IDiag  1:
 RMSU=  1.80D-04    CP:  1.12D+00  6.64D-01  9.79D-01  7.72D-01  8.18D-01
                    CP:  1.47D+00  2.14D+00  2.79D+00  3.00D+00  2.47D+00
 E= -189.650441280070     Delta-E=       -0.000362849255 Rises=F Damp=F
 DIIS: error= 4.07D-04 at cycle  11 NSaved=  11.
 NSaved=11 IEnMin=11 EnMin= -189.650441280070     IErMin=11 ErrMin= 4.07D-04
 ErrMax= 4.07D-04  0.00D+00 EMaxC= 1.00D-01 BMatC= 9.73D-05 BMatP= 1.60D-04
 IDIUse=3 WtCom= 9.96D-01 WtEn= 4.07D-03
 Coeff-Com:  0.886D-03-0.128D-03-0.219D-02-0.579D-02 0.105D-01 0.186D-01
 Coeff-Com:  0.906D-01 0.364D-01-0.521D+00-0.321D+00 0.169D+01
 Coeff-En:   0.000D+00 0.000D+00 0.000D+00 0.000D+00 0.000D+00 0.000D+00
 Coeff-En:   0.000D+00 0.000D+00 0.000D+00 0.000D+00 0.100D+01
 Coeff:      0.883D-03-0.128D-03-0.218D-02-0.577D-02 0.105D-01 0.185D-01
 Coeff:      0.902D-01 0.363D-01-0.519D+00-0.319D+00 0.169D+01
 Gap=     0.142 Goal=   None    Shift=    0.000
 Gap=     0.121 Goal=   None    Shift=    0.000
 RMSDP=5.15D-04 MaxDP=1.90D-02 DE=-3.63D-04 OVMax= 2.65D-02

 Cycle  12  Pass 1  IDiag  1:
 RMSU=  2.11D-04    CP:  1.12D+00  6.80D-01  9.71D-01  7.73D-01  7.87D-01
                    CP:  1.58D+00  2.35D+00  3.00D+00  3.00D+00  3.00D+00
                    CP:  3.00D+00
 E= -189.650908100248     Delta-E=       -0.000466820178 Rises=F Damp=F
 DIIS: error= 4.02D-04 at cycle  12 NSaved=  12.
 NSaved=12 IEnMin=12 EnMin= -189.650908100248     IErMin=12 ErrMin= 4.02D-04
 ErrMax= 4.02D-04  0.00D+00 EMaxC= 1.00D-01 BMatC= 5.79D-05 BMatP= 9.73D-05
 IDIUse=3 WtCom= 9.96D-01 WtEn= 4.02D-03
 Coeff-Com: -0.103D-02 0.362D-02-0.653D-02-0.136D-01-0.378D-01-0.363D-01
 Coeff-Com: -0.128D-01 0.157D+00 0.454D+00-0.908D+00-0.961D+00 0.236D+01
 Coeff-En:   0.000D+00 0.000D+00 0.000D+00 0.000D+00 0.000D+00 0.000D+00
 Coeff-En:   0.000D+00 0.000D+00 0.000D+00 0.000D+00 0.000D+00 0.100D+01
 Coeff:     -0.103D-02 0.360D-02-0.650D-02-0.136D-01-0.376D-01-0.361D-01
 Coeff:     -0.127D-01 0.157D+00 0.452D+00-0.905D+00-0.958D+00 0.236D+01
 Gap=     0.146 Goal=   None    Shift=    0.000
 Gap=     0.123 Goal=   None    Shift=    0.000
 RMSDP=8.32D-04 MaxDP=3.02D-02 DE=-4.67D-04 OVMax= 4.37D-02

 Cycle  13  Pass 1  IDiag  1:
 RMSU=  5.82D-04    CP:  1.12D+00  7.12D-01  9.59D-01  7.77D-01  7.46D-01
                    CP:  1.75D+00  2.66D+00  3.00D+00  3.00D+00  3.00D+00
                    CP:  3.00D+00  3.00D+00
 E= -189.651525819247     Delta-E=       -0.000617718999 Rises=F Damp=F
 DIIS: error= 2.35D-04 at cycle  13 NSaved=  13.
 NSaved=13 IEnMin=13 EnMin= -189.651525819247     IErMin=13 ErrMin= 2.35D-04
 ErrMax= 2.35D-04  0.00D+00 EMaxC= 1.00D-01 BMatC= 2.87D-05 BMatP= 5.79D-05
 IDIUse=3 WtCom= 9.98D-01 WtEn= 2.35D-03
 Coeff-Com: -0.689D-03 0.314D-02-0.288D-02 0.859D-02 0.434D-01 0.422D-01
 Coeff-Com: -0.927D-01-0.274D+00 0.415D-01 0.140D+01-0.185D+01-0.673D+00
 Coeff-Com:  0.236D+01
 Coeff-En:   0.000D+00 0.000D+00 0.000D+00 0.000D+00 0.000D+00 0.000D+00
 Coeff-En:   0.000D+00 0.000D+00 0.000D+00 0.000D+00 0.000D+00 0.000D+00
 Coeff-En:   0.100D+01
 Coeff:     -0.687D-03 0.313D-02-0.287D-02 0.857D-02 0.433D-01 0.421D-01
 Coeff:     -0.925D-01-0.274D+00 0.414D-01 0.140D+01-0.185D+01-0.671D+00
 Coeff:      0.235D+01
 Gap=     0.154 Goal=   None    Shift=    0.000
 Gap=     0.126 Goal=   None    Shift=    0.000
 RMSDP=1.13D-03 MaxDP=4.26D-02 DE=-6.18D-04 OVMax= 6.00D-02

 Cycle  14  Pass 1  IDiag  1:
 RMSU=  5.40D-04    CP:  1.12D+00  7.67D-01  9.35D-01  7.84D-01  7.05D-01
                    CP:  1.97D+00  3.00D+00  3.00D+00  3.00D+00  3.00D+00
                    CP:  3.00D+00  3.00D+00  2.54D+00
 E= -189.651794550597     Delta-E=       -0.000268731350 Rises=F Damp=F
 DIIS: error= 1.42D-04 at cycle  14 NSaved=  14.
 NSaved=14 IEnMin=14 EnMin= -189.651794550597     IErMin=14 ErrMin= 1.42D-04
 ErrMax= 1.42D-04  0.00D+00 EMaxC= 1.00D-01 BMatC= 1.25D-05 BMatP= 2.87D-05
 IDIUse=3 WtCom= 9.99D-01 WtEn= 1.42D-03
 Coeff-Com:  0.979D-03 0.249D-04-0.405D-02-0.400D-02 0.173D-01 0.349D-01
 Coeff-Com:  0.206D-01-0.472D-01-0.329D+00 0.169D+00 0.454D+00-0.169D+00
 Coeff-Com:  0.877D-01 0.769D+00
 Coeff-En:   0.000D+00 0.000D+00 0.000D+00 0.000D+00 0.000D+00 0.000D+00
 Coeff-En:   0.000D+00 0.000D+00 0.000D+00 0.000D+00 0.000D+00 0.000D+00
 Coeff-En:   0.000D+00 0.100D+01
 Coeff:      0.978D-03 0.248D-04-0.404D-02-0.399D-02 0.173D-01 0.348D-01
 Coeff:      0.206D-01-0.471D-01-0.329D+00 0.169D+00 0.453D+00-0.169D+00
 Coeff:      0.875D-01 0.769D+00
 Gap=     0.151 Goal=   None    Shift=    0.000
 Gap=     0.125 Goal=   None    Shift=    0.000
 RMSDP=3.95D-04 MaxDP=1.47D-02 DE=-2.69D-04 OVMax= 2.06D-02

 Cycle  15  Pass 1  IDiag  1:
 RMSU=  5.43D-05    CP:  1.12D+00  7.45D-01  9.45D-01  7.91D-01  7.26D-01
                    CP:  1.93D+00  2.99D+00  3.00D+00  3.00D+00  3.00D+00
                    CP:  3.00D+00  3.00D+00  2.00D+00  6.55D-01
 E= -189.651811513295     Delta-E=       -0.000016962698 Rises=F Damp=F
 DIIS: error= 6.52D-05 at cycle  15 NSaved=  15.
 NSaved=15 IEnMin=15 EnMin= -189.651811513295     IErMin=15 ErrMin= 6.52D-05
 ErrMax= 6.52D-05  0.00D+00 EMaxC= 1.00D-01 BMatC= 2.00D-06 BMatP= 1.25D-05
 IDIUse=1 WtCom= 1.00D+00 WtEn= 0.00D+00
 Coeff-Com:  0.472D-04-0.160D-03-0.203D-03-0.196D-03-0.134D-03-0.276D-02
 Coeff-Com: -0.389D-02-0.733D-02-0.405D-02 0.424D-02-0.235D-01-0.219D-01
 Coeff-Com: -0.790D-02 0.196D+00 0.871D+00
 Coeff:      0.472D-04-0.160D-03-0.203D-03-0.196D-03-0.134D-03-0.276D-02
 Coeff:     -0.389D-02-0.733D-02-0.405D-02 0.424D-02-0.235D-01-0.219D-01
 Coeff:     -0.790D-02 0.196D+00 0.871D+00
 Gap=     0.153 Goal=   None    Shift=    0.000
 Gap=     0.125 Goal=   None    Shift=    0.000
 RMSDP=2.01D-04 MaxDP=7.15D-03 DE=-1.70D-05 OVMax= 1.13D-02

 Cycle  16  Pass 1  IDiag  1:
 RMSU=  2.07D-05    CP:  1.12D+00  7.55D-01  9.39D-01  7.90D-01  7.17D-01
                    CP:  1.97D+00  3.00D+00  3.00D+00  3.00D+00  3.00D+00
                    CP:  3.00D+00  3.00D+00  2.27D+00  8.34D-01  6.65D-01
 E= -189.651822470087     Delta-E=       -0.000010956792 Rises=F Damp=F
 DIIS: error= 3.24D-05 at cycle  16 NSaved=  16.
 NSaved=16 IEnMin=16 EnMin= -189.651822470087     IErMin=16 ErrMin= 3.24D-05
 ErrMax= 3.24D-05  0.00D+00 EMaxC= 1.00D-01 BMatC= 5.13D-07 BMatP= 2.00D-06
 IDIUse=1 WtCom= 1.00D+00 WtEn= 0.00D+00
 Coeff-Com:  0.110D-03-0.208D-03 0.309D-03-0.307D-03-0.242D-02-0.428D-02
 Coeff-Com:  0.820D-02 0.213D-01 0.401D-01-0.848D-01 0.248D-01 0.901D-01
 Coeff-Com: -0.118D+00-0.254D+00-0.131D+00 0.141D+01
 Coeff:      0.110D-03-0.208D-03 0.309D-03-0.307D-03-0.242D-02-0.428D-02
 Coeff:      0.820D-02 0.213D-01 0.401D-01-0.848D-01 0.248D-01 0.901D-01
 Coeff:     -0.118D+00-0.254D+00-0.131D+00 0.141D+01
 Gap=     0.152 Goal=   None    Shift=    0.000
 Gap=     0.125 Goal=   None    Shift=    0.000
 RMSDP=9.08D-05 MaxDP=4.04D-03 DE=-1.10D-05 OVMax= 4.44D-03

 Cycle  17  Pass 1  IDiag  1:
 RMSU=  1.71D-05    CP:  1.12D+00  7.51D-01  9.42D-01  7.91D-01  7.23D-01
                    CP:  1.96D+00  3.00D+00  3.00D+00  3.00D+00  3.00D+00
                    CP:  3.00D+00  3.00D+00  2.15D+00  7.54D-01  8.95D-01
                    CP:  1.30D+00
 E= -189.651823197888     Delta-E=       -0.000000727801 Rises=F Damp=F
 DIIS: error= 2.41D-05 at cycle  17 NSaved=  17.
 NSaved=17 IEnMin=17 EnMin= -189.651823197888     IErMin=17 ErrMin= 2.41D-05
 ErrMax= 2.41D-05  0.00D+00 EMaxC= 1.00D-01 BMatC= 2.97D-07 BMatP= 5.13D-07
 IDIUse=1 WtCom= 1.00D+00 WtEn= 0.00D+00
 Coeff-Com:  0.181D-04-0.359D-04-0.445D-04 0.113D-03 0.115D-02 0.156D-02
 Coeff-Com:  0.159D-03-0.511D-02-0.177D-01 0.419D-01 0.103D-02-0.524D-01
 Coeff-Com:  0.897D-01 0.646D-01-0.732D+00-0.281D+00 0.189D+01
 Coeff:      0.181D-04-0.359D-04-0.445D-04 0.113D-03 0.115D-02 0.156D-02
 Coeff:      0.159D-03-0.511D-02-0.177D-01 0.419D-01 0.103D-02-0.524D-01
 Coeff:      0.897D-01 0.646D-01-0.732D+00-0.281D+00 0.189D+01
 Gap=     0.153 Goal=   None    Shift=    0.000
 Gap=     0.125 Goal=   None    Shift=    0.000
 RMSDP=4.24D-05 MaxDP=1.87D-03 DE=-7.28D-07 OVMax= 2.76D-03

 Cycle  18  Pass 1  IDiag  1:
 RMSU=  3.50D-06    CP:  1.12D+00  7.53D-01  9.41D-01  7.91D-01  7.23D-01
                    CP:  1.97D+00  3.00D+00  3.00D+00  3.00D+00  3.00D+00
                    CP:  3.00D+00  3.00D+00  2.20D+00  7.82D-01  7.99D-01
                    CP:  2.13D+00  2.07D+00
 E= -189.651824550285     Delta-E=       -0.000001352397 Rises=F Damp=F
 DIIS: error= 4.56D-06 at cycle  18 NSaved=  18.
 NSaved=18 IEnMin=18 EnMin= -189.651824550285     IErMin=18 ErrMin= 4.56D-06
 ErrMax= 4.56D-06  0.00D+00 EMaxC= 1.00D-01 BMatC= 1.36D-08 BMatP= 2.97D-07
 IDIUse=1 WtCom= 1.00D+00 WtEn= 0.00D+00
 Coeff-Com:  0.170D-05-0.124D-04-0.881D-04 0.210D-04 0.335D-03 0.700D-03
 Coeff-Com:  0.554D-03-0.305D-03-0.114D-01 0.448D-02 0.251D-01-0.192D-01
 Coeff-Com:  0.115D-02 0.359D-01-0.116D-01-0.166D+00-0.730D-01 0.121D+01
 Coeff:      0.170D-05-0.124D-04-0.881D-04 0.210D-04 0.335D-03 0.700D-03
 Coeff:      0.554D-03-0.305D-03-0.114D-01 0.448D-02 0.251D-01-0.192D-01
 Coeff:      0.115D-02 0.359D-01-0.116D-01-0.166D+00-0.730D-01 0.121D+01
 Gap=     0.153 Goal=   None    Shift=    0.000
 Gap=     0.125 Goal=   None    Shift=    0.000
 RMSDP=8.59D-06 MaxDP=4.20D-04 DE=-1.35D-06 OVMax= 4.24D-04

 Cycle  19  Pass 1  IDiag  1:
 RMSU=  8.24D-07    CP:  1.12D+00  7.53D-01  9.41D-01  7.91D-01  7.23D-01
                    CP:  1.97D+00  3.00D+00  3.00D+00  3.00D+00  3.00D+00
                    CP:  3.00D+00  3.00D+00  2.19D+00  7.79D-01  7.92D-01
                    CP:  2.33D+00  2.47D+00  1.37D+00
 E= -189.651824593172     Delta-E=       -0.000000042887 Rises=F Damp=F
 DIIS: error= 3.78D-06 at cycle  19 NSaved=  19.
 NSaved=19 IEnMin=19 EnMin= -189.651824593172     IErMin=19 ErrMin= 3.78D-06
 ErrMax= 3.78D-06  0.00D+00 EMaxC= 1.00D-01 BMatC= 3.21D-09 BMatP= 1.36D-08
 IDIUse=1 WtCom= 1.00D+00 WtEn= 0.00D+00
 Coeff-Com: -0.722D-05 0.396D-05-0.144D-04 0.240D-04-0.878D-04-0.146D-03
 Coeff-Com: -0.173D-04 0.316D-03 0.143D-02-0.264D-02 0.714D-03 0.339D-03
 Coeff-Com: -0.104D-01-0.191D-02 0.103D+00 0.454D-01-0.257D+00-0.105D+00
 Coeff-Com:  0.123D+01
 Coeff:     -0.722D-05 0.396D-05-0.144D-04 0.240D-04-0.878D-04-0.146D-03
 Coeff:     -0.173D-04 0.316D-03 0.143D-02-0.264D-02 0.714D-03 0.339D-03
 Coeff:     -0.104D-01-0.191D-02 0.103D+00 0.454D-01-0.257D+00-0.105D+00
 Coeff:      0.123D+01
 Gap=     0.153 Goal=   None    Shift=    0.000
 Gap=     0.125 Goal=   None    Shift=    0.000
 RMSDP=4.89D-06 MaxDP=1.65D-04 DE=-4.29D-08 OVMax= 3.08D-04

 Cycle  20  Pass 1  IDiag  1:
 RMSU=  3.98D-07    CP:  1.12D+00  7.53D-01  9.41D-01  7.91D-01  7.23D-01
                    CP:  1.97D+00  3.00D+00  3.00D+00  3.00D+00  3.00D+00
                    CP:  3.00D+00  3.00D+00  2.20D+00  7.83D-01  7.77D-01
                    CP:  2.37D+00  2.55D+00  1.53D+00  1.42D+00
 E= -189.651824601666     Delta-E=       -0.000000008494 Rises=F Damp=F
 DIIS: error= 6.29D-07 at cycle  20 NSaved=  20.
 NSaved=20 IEnMin=20 EnMin= -189.651824601666     IErMin=20 ErrMin= 6.29D-07
 ErrMax= 6.29D-07  0.00D+00 EMaxC= 1.00D-01 BMatC= 2.93D-10 BMatP= 3.21D-09
 IDIUse=1 WtCom= 1.00D+00 WtEn= 0.00D+00
 Coeff-Com:  0.229D-06 0.556D-06-0.236D-05-0.104D-04-0.556D-04-0.686D-04
 Coeff-Com:  0.678D-04 0.715D-04 0.967D-03-0.452D-03-0.215D-02 0.246D-02
 Coeff-Com: -0.248D-02-0.415D-02 0.129D-01 0.186D-01-0.941D-02-0.165D+00
 Coeff-Com:  0.227D+00 0.922D+00
 Coeff:      0.229D-06 0.556D-06-0.236D-05-0.104D-04-0.556D-04-0.686D-04
 Coeff:      0.678D-04 0.715D-04 0.967D-03-0.452D-03-0.215D-02 0.246D-02
 Coeff:     -0.248D-02-0.415D-02 0.129D-01 0.186D-01-0.941D-02-0.165D+00
 Coeff:      0.227D+00 0.922D+00
 Gap=     0.153 Goal=   None    Shift=    0.000
 Gap=     0.125 Goal=   None    Shift=    0.000
 RMSDP=1.22D-06 MaxDP=5.56D-05 DE=-8.49D-09 OVMax= 6.05D-05

 Cycle  21  Pass 1  IDiag  1:
 Restarting incremental Fock formation.
 E= -189.651824602410     Delta-E=       -0.000000000744 Rises=F Damp=F
 DIIS: error= 2.24D-07 at cycle  21 NSaved=  20.
 NSaved=20 IEnMin=20 EnMin= -189.651824602410     IErMin=20 ErrMin= 2.24D-07
 ErrMax= 2.24D-07  0.00D+00 EMaxC= 1.00D-01 BMatC= 1.65D-11 BMatP= 2.93D-10
 IDIUse=1 WtCom= 1.00D+00 WtEn= 0.00D+00
 Coeff-Com:  0.192D-06-0.486D-06-0.316D-05 0.421D-05 0.193D-04-0.129D-04
 Coeff-Com: -0.126D-03-0.122D-03 0.661D-03-0.107D-02 0.512D-03 0.836D-03
 Coeff-Com:  0.320D-03-0.544D-02-0.520D-02 0.219D-01-0.151D-01-0.102D+00
 Coeff-Com:  0.597D-01 0.104D+01
 Coeff:      0.192D-06-0.486D-06-0.316D-05 0.421D-05 0.193D-04-0.129D-04
 Coeff:     -0.126D-03-0.122D-03 0.661D-03-0.107D-02 0.512D-03 0.836D-03
 Coeff:      0.320D-03-0.544D-02-0.520D-02 0.219D-01-0.151D-01-0.102D+00
 Coeff:      0.597D-01 0.104D+01
 Gap=     0.153 Goal=   None    Shift=    0.000
 Gap=     0.125 Goal=   None    Shift=    0.000
 RMSDP=1.36D-07 MaxDP=8.34D-06 DE=-7.44D-10 OVMax= 5.84D-06

 Cycle  22  Pass 1  IDiag  1:
 RMSU=  1.36D-07    CP:  1.00D+00
 E= -189.651824602426     Delta-E=       -0.000000000016 Rises=F Damp=F
 DIIS: error= 9.57D-08 at cycle  22 NSaved=  20.
 NSaved=20 IEnMin=20 EnMin= -189.651824602426     IErMin=20 ErrMin= 9.57D-08
 ErrMax= 9.57D-08  0.00D+00 EMaxC= 1.00D-01 BMatC= 3.46D-12 BMatP= 1.65D-11
 IDIUse=1 WtCom= 1.00D+00 WtEn= 0.00D+00
 Coeff-Com:  0.153D-06 0.184D-05 0.137D-05-0.211D-05-0.128D-04 0.986D-05
 Coeff-Com:  0.170D-04-0.109D-04-0.649D-04 0.118D-04 0.833D-04 0.681D-04
 Coeff-Com:  0.124D-04-0.141D-02-0.638D-03 0.118D-01 0.230D-03-0.769D-01
 Coeff-Com: -0.132D+00 0.120D+01
 Coeff:      0.153D-06 0.184D-05 0.137D-05-0.211D-05-0.128D-04 0.986D-05
 Coeff:      0.170D-04-0.109D-04-0.649D-04 0.118D-04 0.833D-04 0.681D-04
 Coeff:      0.124D-04-0.141D-02-0.638D-03 0.118D-01 0.230D-03-0.769D-01
 Coeff:     -0.132D+00 0.120D+01
 Gap=     0.153 Goal=   None    Shift=    0.000
 Gap=     0.125 Goal=   None    Shift=    0.000
 RMSDP=1.11D-07 MaxDP=4.34D-06 DE=-1.63D-11 OVMax= 5.51D-06

 Cycle  23  Pass 1  IDiag  1:
 RMSU=  1.09D-07    CP:  1.00D+00  1.09D+00
 E= -189.651824602437     Delta-E=       -0.000000000010 Rises=F Damp=F
 DIIS: error= 2.64D-08 at cycle  23 NSaved=  20.
 NSaved=20 IEnMin=20 EnMin= -189.651824602437     IErMin=20 ErrMin= 2.64D-08
 ErrMax= 2.64D-08  0.00D+00 EMaxC= 1.00D-01 BMatC= 1.60D-13 BMatP= 3.46D-12
 IDIUse=1 WtCom= 1.00D+00 WtEn= 0.00D+00
 Coeff-Com:  0.178D-06-0.362D-06-0.211D-05-0.704D-06 0.134D-04 0.748D-05
 Coeff-Com: -0.570D-04 0.641D-04-0.682D-05-0.635D-04-0.357D-04 0.531D-03
 Coeff-Com:  0.242D-03-0.176D-02 0.158D-02 0.805D-02-0.874D-02-0.755D-01
 Coeff-Com:  0.160D-01 0.106D+01
 Coeff:      0.178D-06-0.362D-06-0.211D-05-0.704D-06 0.134D-04 0.748D-05
 Coeff:     -0.570D-04 0.641D-04-0.682D-05-0.635D-04-0.357D-04 0.531D-03
 Coeff:      0.242D-03-0.176D-02 0.158D-02 0.805D-02-0.874D-02-0.755D-01
 Coeff:      0.160D-01 0.106D+01
 Gap=     0.153 Goal=   None    Shift=    0.000
 Gap=     0.125 Goal=   None    Shift=    0.000
 RMSDP=3.74D-08 MaxDP=1.40D-06 DE=-1.05D-11 OVMax= 2.08D-06

 Cycle  24  Pass 1  IDiag  1:
 RMSU=  4.05D-09    CP:  1.00D+00  1.08D+00  1.34D+00
 E= -189.651824602437     Delta-E=       -0.000000000001 Rises=F Damp=F
 DIIS: error= 4.31D-09 at cycle  24 NSaved=  20.
 NSaved=20 IEnMin=20 EnMin= -189.651824602437     IErMin=20 ErrMin= 4.31D-09
 ErrMax= 4.31D-09  0.00D+00 EMaxC= 1.00D-01 BMatC= 9.87D-15 BMatP= 1.60D-13
 IDIUse=1 WtCom= 1.00D+00 WtEn= 0.00D+00
 Coeff-Com:  0.352D-06 0.163D-06 0.232D-06-0.194D-05-0.511D-05 0.494D-05
 Coeff-Com:  0.147D-04-0.167D-04 0.292D-05 0.104D-04 0.168D-05 0.802D-04
 Coeff-Com: -0.728D-04-0.414D-03 0.199D-03 0.392D-02 0.745D-02-0.842D-01
 Coeff-Com:  0.625D-01 0.101D+01
 Coeff:      0.352D-06 0.163D-06 0.232D-06-0.194D-05-0.511D-05 0.494D-05
 Coeff:      0.147D-04-0.167D-04 0.292D-05 0.104D-04 0.168D-05 0.802D-04
 Coeff:     -0.728D-04-0.414D-03 0.199D-03 0.392D-02 0.745D-02-0.842D-01
 Coeff:      0.625D-01 0.101D+01
 Gap=     0.153 Goal=   None    Shift=    0.000
 Gap=     0.125 Goal=   None    Shift=    0.000
 RMSDP=4.34D-09 MaxDP=1.72D-07 DE=-9.09D-13 OVMax= 2.18D-07

 SCF Done:  E(UB3LYP) =  -189.651824602     A.U. after   24 cycles
            NFock= 24  Conv=0.43D-08     -V/T= 2.0040
 <Sx>= 0.0000 <Sy>= 0.0000 <Sz>= 0.5000 <S**2>= 1.0367 S= 0.6343
 <L.S>= 0.000000000000E+00
 KE= 1.888915736728D+02 PE=-6.332263901600D+02 EE= 1.471972315758D+02
 Annihilation of the first spin contaminant:
 S**2 before annihilation     1.0367,   after     0.7997
 Leave Link  502 at Tue Jul 19 05:11:43 2016, MaxMem=    33554432 cpu:       688.3
 (Enter /home/proyectos/fulerenos/M3C-v2.0/M3C-deps_CCC/g09-AM64L-G09RevC.01/l801.exe)
 DoSCS=F DFT=T ScalE2(SS,OS)=  1.000000  1.000000
 Range of M.O.s used for correlation:     1   215
 NBasis=   215 NAE=    15 NBE=    14 NFC=     0 NFV=     0
 NROrb=    215 NOA=    15 NOB=    14 NVA=   200 NVB=   201

 **** Warning!!: The largest alpha MO coefficient is  0.21014192D+03


 **** Warning!!: The largest beta MO coefficient is  0.20226933D+03

 Leave Link  801 at Tue Jul 19 05:11:44 2016, MaxMem=    33554432 cpu:         0.0
 (Enter /home/proyectos/fulerenos/M3C-v2.0/M3C-deps_CCC/g09-AM64L-G09RevC.01/l1101.exe)
 Using compressed storage, NAtomX=     7.
 Will process      8 centers per pass.
 Leave Link 1101 at Tue Jul 19 05:11:44 2016, MaxMem=    33554432 cpu:         0.5
 (Enter /home/proyectos/fulerenos/M3C-v2.0/M3C-deps_CCC/g09-AM64L-G09RevC.01/l1102.exe)
 Symmetrizing basis deriv contribution to polar:
 IMax=3 JMax=2 DiffMx= 0.00D+00
 Leave Link 1102 at Tue Jul 19 05:11:44 2016, MaxMem=    33554432 cpu:         0.1
 (Enter /home/proyectos/fulerenos/M3C-v2.0/M3C-deps_CCC/g09-AM64L-G09RevC.01/l1110.exe)
 Forming Gx(P) for the SCF density, NAtomX=     7.
 Integral derivatives from FoFJK, PRISM(SPDF).
 Do as many integral derivatives as possible in FoFJK.
 G2DrvN: MDV=      33554272.
 G2DrvN: will do     8 centers at a time, making    1 passes.
 Calling FoFCou, ICntrl=  3107 FMM=F I1Cent=   0 AccDes= 0.00D+00.
 FoFJK:  IHMeth= 1 ICntrl=    3107 DoSepK=F KAlg= 0 I1Cent=   0 FoldK=F
 IRaf=         0 NMat=   1 IRICut=       1 DoRegI=T DoRafI=F ISym2E= 1.
 FoFCou: FMM=F IPFlag=           0 FMFlag=      100000 FMFlg1=           0
         NFxFlg=           0 DoJE=F BraDBF=F KetDBF=F FulRan=T
         wScrn=  0.000000 ICntrl=    3107 IOpCl=  1 I1Cent=           0 NGrid=           0
         NMat0=    1 NMatS0=      1 NMatT0=    0 NMatD0=    1 NMtDS0=    0 NMtDT0=    0
 Petite list used in FoFCou.
 End of G2Drv F.D. properties file   721 does not exist.
 End of G2Drv F.D. properties file   722 does not exist.
 End of G2Drv F.D. properties file   788 does not exist.
 Leave Link 1110 at Tue Jul 19 05:16:53 2016, MaxMem=    33554432 cpu:       308.5
 (Enter /home/proyectos/fulerenos/M3C-v2.0/M3C-deps_CCC/g09-AM64L-G09RevC.01/l1002.exe)
 Minotr:  UHF open shell wavefunction.
          IDoAtm=1111111
          Direct CPHF calculation.
          Differentiating once with respect to electric field.
                with respect to dipole field.
          Differentiating once with respect to nuclear coordinates.
          Using symmetry in CPHF.
          Requested convergence is 1.0D-08 RMS, and 1.0D-07 maximum.
          Secondary convergence is 1.0D-12 RMS, and 1.0D-12 maximum.
          NewPWx=T KeepS1=F KeepF1=F KeepIn=T MapXYZ=F SortEE=F KeepMc=T.
          MDV=      33553928 using IRadAn=       2.
 Generate precomputed XC quadrature information.
          Solving linear equations simultaneously, MaxMat=       0.
 FoFJK:  IHMeth= 1 ICntrl=       0 DoSepK=F KAlg= 0 I1Cent=   0 FoldK=F
 IRaf= 970000000 NMat=  21 IRICut=      52 DoRegI=T DoRafI=T ISym2E= 2.
 FoFCou: FMM=F IPFlag=           0 FMFlag=      100000 FMFlg1=           0
         NFxFlg=           0 DoJE=F BraDBF=F KetDBF=F FulRan=T
         wScrn=  0.000000 ICntrl=       0 IOpCl=  1 I1Cent=           0 NGrid=           0
         NMat0=   21 NMatS0=     21 NMatT0=    0 NMatD0=   21 NMtDS0=    0 NMtDT0=    0
 Integrals replicated using symmetry in FoFCou.
          There are    21 degrees of freedom in the 1st order CPHF.  IDoFFX=4 NUNeed=    21.
     21 vectors produced by pass  0 Test12= 2.77D-14 4.76D-09 XBig12= 4.54D+02 1.47D+01.
 AX will form    21 AO Fock derivatives at one time.
     21 vectors produced by pass  1 Test12= 2.77D-14 4.76D-09 XBig12= 9.57D+01 2.66D+00.
     21 vectors produced by pass  2 Test12= 2.77D-14 4.76D-09 XBig12= 7.81D+00 8.00D-01.
     21 vectors produced by pass  3 Test12= 2.77D-14 4.76D-09 XBig12= 1.97D-01 8.74D-02.
     21 vectors produced by pass  4 Test12= 2.77D-14 4.76D-09 XBig12= 2.47D-03 1.15D-02.
     21 vectors produced by pass  5 Test12= 2.77D-14 4.76D-09 XBig12= 2.66D-05 8.64D-04.
     20 vectors produced by pass  6 Test12= 2.77D-14 4.76D-09 XBig12= 1.52D-07 8.51D-05.
     15 vectors produced by pass  7 Test12= 2.77D-14 4.76D-09 XBig12= 5.93D-10 3.51D-06.
      4 vectors produced by pass  8 Test12= 2.77D-14 4.76D-09 XBig12= 3.43D-12 3.20D-07.
      3 vectors produced by pass  9 Test12= 2.77D-14 4.76D-09 XBig12= 4.20D-13 1.64D-07.
      2 vectors produced by pass 10 Test12= 2.77D-14 4.76D-09 XBig12= 1.86D-14 2.80D-08.
      1 vectors produced by pass 11 Test12= 2.77D-14 4.76D-09 XBig12= 1.01D-15 6.10D-09.
 InvSVY:  IOpt=1 It=  1 EMax= 1.07D-14
 Solved reduced A of dimension   171 with    21 vectors.
 FullF1:  Do perturbations    1 to    21.
 Isotropic polarizability for W=    0.000000       53.78 Bohr**3.
 End of Minotr F.D. properties file   721 does not exist.
 End of Minotr F.D. properties file   722 does not exist.
 End of Minotr F.D. properties file   788 does not exist.
 Leave Link 1002 at Tue Jul 19 05:41:09 2016, MaxMem=    33554432 cpu:      1455.2
 (Enter /home/proyectos/fulerenos/M3C-v2.0/M3C-deps_CCC/g09-AM64L-G09RevC.01/l601.exe)
 Copying SCF densities to generalized density rwf, IOpCl= 1 IROHF=0.

 **********************************************************************

            Population analysis using the SCF density.

 **********************************************************************

 Orbital symmetries:
 Alpha Orbitals:
       Occupied  (A') (A') (A') (A') (A') (A') (A') (A') (A') (A')
                 (A") (A') (A') (A") (A')
       Virtual   (A') (A") (A") (A') (A') (A") (A') (A') (A') (A")
                 (A') (A') (A') (A') (A") (A') (A") (A') (A") (A')
                 (A') (A") (A') (A") (A') (A') (A") (A') (A') (A')
                 (A") (A") (A') (A') (A') (A') (A') (A') (A") (A')
                 (A') (A') (A') (A") (A') (A') (A") (A") (A") (A')
                 (A") (A") (A') (A') (A') (A") (A') (A') (A") (A')
                 (A') (A') (A') (A") (A") (A") (A') (A') (A") (A')
                 (A') (A') (A") (A') (A') (A') (A") (A') (A') (A')
                 (A') (A") (A') (A') (A") (A') (A") (A") (A') (A")
                 (A') (A') (A") (A') (A") (A') (A") (A') (A') (A")
                 (A') (A') (A") (A") (A') (A') (A') (A') (A') (A")
                 (A') (A") (A") (A') (A') (A") (A') (A") (A") (A')
                 (A') (A") (A") (A') (A') (A") (A') (A") (A") (A')
                 (A') (A') (A") (A') (A') (A") (A') (A') (A") (A')
                 (A") (A') (A') (A") (A') (A') (A') (A") (A') (A")
                 (A') (A') (A') (A") (A') (A") (A') (A') (A") (A')
                 (A") (A') (A') (A") (A') (A') (A") (A") (A') (A')
                 (A") (A") (A') (A") (A') (A') (A") (A") (A") (A')
                 (A') (A') (A') (A") (A') (A') (A") (A') (A') (A")
                 (A') (A') (A") (A') (A') (A') (A') (A') (A') (A')
 Beta  Orbitals:
       Occupied  (A') (A') (A') (A') (A') (A') (A') (A') (A') (A')
                 (A") (A") (A') (A')
       Virtual   (A') (A') (A") (A") (A') (A') (A") (A') (A') (A')
                 (A") (A') (A') (A') (A") (A') (A') (A") (A') (A")
                 (A') (A') (A") (A") (A') (A') (A') (A") (A') (A')
                 (A') (A") (A") (A') (A') (A') (A') (A') (A') (A")
                 (A') (A') (A') (A") (A') (A') (A") (A") (A') (A")
                 (A') (A") (A") (A') (A') (A') (A") (A') (A') (A")
                 (A') (A') (A') (A') (A") (A") (A") (A') (A') (A")
                 (A') (A') (A') (A") (A') (A') (A') (A") (A') (A')
                 (A') (A") (A') (A') (A') (A") (A') (A") (A") (A')
                 (A') (A") (A') (A") (A') (A") (A') (A') (A") (A')
                 (A") (A') (A') (A") (A") (A') (A') (A') (A') (A')
                 (A") (A') (A") (A") (A') (A") (A') (A') (A") (A")
                 (A') (A") (A') (A") (A') (A') (A") (A") (A') (A")
                 (A') (A') (A') (A") (A') (A') (A") (A') (A') (A")
                 (A') (A") (A') (A') (A") (A') (A') (A') (A") (A')
                 (A") (A') (A') (A") (A') (A') (A") (A') (A') (A")
                 (A') (A") (A') (A') (A") (A') (A') (A") (A") (A')
                 (A') (A") (A") (A') (A") (A') (A') (A") (A") (A')
                 (A") (A') (A') (A') (A") (A') (A') (A") (A') (A")
                 (A') (A') (A") (A') (A') (A') (A') (A') (A') (A')
                 (A')
 The electronic state is 2-A'.
 Alpha  occ. eigenvalues --  -11.12448 -11.12365 -11.06146 -10.99296 -10.98328
 Alpha  occ. eigenvalues --   -1.61710  -1.52018  -1.40819  -1.37151  -1.20915
 Alpha  occ. eigenvalues --   -1.15740  -1.09714  -1.08369  -1.07758  -1.03267
 Alpha virt. eigenvalues --   -0.88008  -0.86822  -0.86152  -0.84383  -0.75099
 Alpha virt. eigenvalues --   -0.67423  -0.55877  -0.50533  -0.46598  -0.44646
 Alpha virt. eigenvalues --   -0.43785  -0.42555  -0.41974  -0.40179  -0.40075
 Alpha virt. eigenvalues --   -0.38542  -0.38308  -0.35409  -0.34901  -0.33807
 Alpha virt. eigenvalues --   -0.31377  -0.29855  -0.29282  -0.29178  -0.28068
 Alpha virt. eigenvalues --   -0.27526  -0.25769  -0.25203  -0.24785  -0.24353
 Alpha virt. eigenvalues --   -0.23439  -0.22381  -0.20832  -0.19885  -0.17197
 Alpha virt. eigenvalues --   -0.16431  -0.15287  -0.14817  -0.14116  -0.13106
 Alpha virt. eigenvalues --   -0.09885  -0.08243  -0.07849  -0.07774  -0.06927
 Alpha virt. eigenvalues --   -0.06334  -0.06293  -0.05660  -0.04511  -0.04357
 Alpha virt. eigenvalues --   -0.03596  -0.00431  -0.00129   0.00515   0.00944
 Alpha virt. eigenvalues --    0.02729   0.03396   0.03758   0.05465   0.05795
 Alpha virt. eigenvalues --    0.09682   0.10512   0.11420   0.13074   0.15458
 Alpha virt. eigenvalues --    0.18651   0.19924   0.22704   0.23605   0.24546
 Alpha virt. eigenvalues --    0.27745   0.30224   0.32187   0.35768   0.38630
 Alpha virt. eigenvalues --    0.46121   0.47741   0.52858   0.54955   0.60217
 Alpha virt. eigenvalues --    0.65024   0.65095   0.67006   0.70359   0.71085
 Alpha virt. eigenvalues --    0.72090   0.75675   0.80140   0.80287   0.82957
 Alpha virt. eigenvalues --    0.83015   0.88861   0.91616   0.92240   0.93949
 Alpha virt. eigenvalues --    0.95761   1.00221   1.01276   1.02654   1.05571
 Alpha virt. eigenvalues --    1.06944   1.11379   1.23680   1.29055   1.30416
 Alpha virt. eigenvalues --    1.32505   1.38898   1.45456   1.50121   1.59902
 Alpha virt. eigenvalues --    1.70856   1.82700   1.86553   1.92530   1.93219
 Alpha virt. eigenvalues --    1.94546   1.95372   1.97180   2.00465   2.01322
 Alpha virt. eigenvalues --    2.04136   2.04348   2.05877   2.06052   2.08710
 Alpha virt. eigenvalues --    2.10731   2.12822   2.13302   2.13587   2.13589
 Alpha virt. eigenvalues --    2.18660   2.21364   2.22374   2.23029   2.29069
 Alpha virt. eigenvalues --    2.33423   2.35264   2.38367   2.38753   2.41466
 Alpha virt. eigenvalues --    2.42280   2.54609   2.57731   2.61523   2.66378
 Alpha virt. eigenvalues --    2.66471   2.73672   2.77397   2.88846   2.90508
 Alpha virt. eigenvalues --    3.01423   3.15781   3.22873   3.23062   3.32032
 Alpha virt. eigenvalues --    3.42889   3.43530   3.47796   3.51573   3.55610
 Alpha virt. eigenvalues --    3.71662   3.76250   3.89373   3.94621   4.21235
 Alpha virt. eigenvalues --    4.58770   4.70243   4.79978   4.83289   5.46958
 Alpha virt. eigenvalues --    6.13527   6.14424   6.16306   6.16477   6.17734
 Alpha virt. eigenvalues --    6.20976   6.22785   6.29267   6.30528   6.30681
 Alpha virt. eigenvalues --    6.37596   6.46171   6.50868   6.58137   6.67771
 Alpha virt. eigenvalues --    6.72579   6.75806   6.77975   6.82143   6.82587
 Alpha virt. eigenvalues --    6.86140   7.20455   7.20869   7.31724   7.65138
 Alpha virt. eigenvalues --   22.93109  23.31008  23.52723  24.68880  24.74559
  Beta  occ. eigenvalues --  -11.12184 -11.12104 -11.05383 -10.99297 -10.97853
  Beta  occ. eigenvalues --   -1.60691  -1.49676  -1.39697  -1.36517  -1.20149
  Beta  occ. eigenvalues --   -1.15226  -1.07693  -1.06684  -1.05603
  Beta virt. eigenvalues --   -0.93090  -0.87761  -0.86378  -0.85629  -0.83563
  Beta virt. eigenvalues --   -0.70620  -0.67107  -0.54678  -0.49975  -0.46161
  Beta virt. eigenvalues --   -0.44550  -0.43068  -0.41925  -0.41332  -0.39936
  Beta virt. eigenvalues --   -0.39207  -0.38393  -0.37793  -0.35252  -0.34785
  Beta virt. eigenvalues --   -0.33602  -0.31049  -0.29751  -0.29011  -0.28453
  Beta virt. eigenvalues --   -0.27813  -0.27538  -0.25750  -0.24977  -0.24506
  Beta virt. eigenvalues --   -0.24115  -0.23227  -0.22363  -0.20522  -0.19585
  Beta virt. eigenvalues --   -0.17028  -0.16198  -0.15055  -0.14766  -0.14031
  Beta virt. eigenvalues --   -0.12749  -0.09626  -0.07963  -0.07638  -0.07594
  Beta virt. eigenvalues --   -0.06613  -0.06165  -0.05589  -0.05530  -0.04139
  Beta virt. eigenvalues --   -0.03871  -0.03454  -0.00290   0.00379   0.01112
  Beta virt. eigenvalues --    0.01632   0.03032   0.03632   0.03935   0.05556
  Beta virt. eigenvalues --    0.06060   0.10176   0.10884   0.11942   0.13128
  Beta virt. eigenvalues --    0.15460   0.18721   0.20066   0.23229   0.23678
  Beta virt. eigenvalues --    0.24871   0.28354   0.30610   0.32337   0.36224
  Beta virt. eigenvalues --    0.39034   0.46657   0.47974   0.53198   0.55390
  Beta virt. eigenvalues --    0.61354   0.65083   0.65565   0.67608   0.70882
  Beta virt. eigenvalues --    0.72176   0.72882   0.75850   0.80110   0.80438
  Beta virt. eigenvalues --    0.83919   0.84686   0.89792   0.92365   0.93279
  Beta virt. eigenvalues --    0.94287   0.97306   1.02045   1.02189   1.03452
  Beta virt. eigenvalues --    1.05770   1.08163   1.11966   1.23977   1.29702
  Beta virt. eigenvalues --    1.31372   1.34210   1.39724   1.46996   1.50653
  Beta virt. eigenvalues --    1.60112   1.72262   1.83512   1.87015   1.94271
  Beta virt. eigenvalues --    1.95633   1.95712   1.96030   1.98811   2.00967
  Beta virt. eigenvalues --    2.02259   2.05679   2.06220   2.06290   2.06529
  Beta virt. eigenvalues --    2.10047   2.10591   2.13383   2.13757   2.14085
  Beta virt. eigenvalues --    2.14436   2.19911   2.21889   2.22625   2.24284
  Beta virt. eigenvalues --    2.30646   2.33787   2.37245   2.38812   2.40266
  Beta virt. eigenvalues --    2.41694   2.43170   2.55965   2.58694   2.61912
  Beta virt. eigenvalues --    2.67221   2.67817   2.74229   2.77763   2.90123
  Beta virt. eigenvalues --    2.91829   3.02441   3.16696   3.23257   3.23719
  Beta virt. eigenvalues --    3.32459   3.43288   3.43717   3.48715   3.51870
  Beta virt. eigenvalues --    3.55421   3.72142   3.77337   3.90534   3.94564
  Beta virt. eigenvalues --    4.22115   4.59196   4.70397   4.80155   4.85008
  Beta virt. eigenvalues --    5.47724   6.13768   6.15902   6.16420   6.17520
  Beta virt. eigenvalues --    6.18000   6.24290   6.24478   6.31186   6.31686
  Beta virt. eigenvalues --    6.32240   6.38879   6.47574   6.53614   6.58494
  Beta virt. eigenvalues --    6.68871   6.74977   6.76203   6.80144   6.82698
  Beta virt. eigenvalues --    6.83605   6.86764   7.21208   7.21210   7.32107
  Beta virt. eigenvalues --    7.66018  22.93473  23.31311  23.53175  24.69099
  Beta virt. eigenvalues --   24.75334
          Condensed to atoms (all electrons):
               1          2          3          4          5          6
     1  C    8.636364  -1.390662  -0.145267  -0.513557  -1.602175  -0.008220
     2  C   -1.390662   8.523337  -2.093770   0.054332   0.173009   0.392873
     3  C   -0.145267  -2.093770   7.891200  -0.003236   0.305178  -0.051909
     4  C   -0.513557   0.054332  -0.003236   6.655199  -0.746537  -0.001201
     5  C   -1.602175   0.173009   0.305178  -0.746537   7.293711   0.002324
     6  H   -0.008220   0.392873  -0.051909  -0.001201   0.002324   0.300291
     7  H   -0.008220   0.392873  -0.051909  -0.001201   0.002324  -0.005244
               7
     1  C   -0.008220
     2  C    0.392873
     3  C   -0.051909
     4  C   -0.001201
     5  C    0.002324
     6  H   -0.005244
     7  H    0.300291
          Atomic-Atomic Spin Densities.
               1          2          3          4          5          6
     1  C    0.235111  -0.048587   0.055248  -0.044946  -0.172796  -0.001627
     2  C   -0.048587   0.143935   0.107126  -0.013728   0.032617   0.000819
     3  C    0.055248   0.107126   0.306154  -0.052208   0.029289   0.000280
     4  C   -0.044946  -0.013728  -0.052208   0.355252  -0.102299   0.000193
     5  C   -0.172796   0.032617   0.029289  -0.102299   0.400714  -0.000061
     6  H   -0.001627   0.000819   0.000280   0.000193  -0.000061  -0.010751
     7  H   -0.001627   0.000819   0.000280   0.000193  -0.000061   0.001244
               7
     1  C   -0.001627
     2  C    0.000819
     3  C    0.000280
     4  C    0.000193
     5  C   -0.000061
     6  H    0.001244
     7  H   -0.010751
 Mulliken charges and spin densities:
               1          2
     1  C    1.031738   0.020775
     2  C   -0.051992   0.223001
     3  C    0.149713   0.446170
     4  C    0.556201   0.142456
     5  C    0.572166   0.187403
     6  H    0.371087  -0.009903
     7  H    0.371087  -0.009903
 Sum of Mulliken charges =   3.00000   1.00000
 Mulliken charges and spin densities with hydrogens summed into heavy atoms:
               1          2
     1  C    1.031738   0.020775
     2  C    0.690182   0.203196
     3  C    0.149713   0.446170
     4  C    0.556201   0.142456
     5  C    0.572166   0.187403
 APT charges:
               1
     1  C   -0.569433
     2  C    0.215729
     3  C    0.468375
     4  C    0.952043
     5  C    0.993600
     6  H    0.469844
     7  H    0.469844
 Sum of APT charges =   3.00000
 APT charges with hydrogens summed into heavy atoms:
               1
     1  C   -0.569433
     2  C    1.155416
     3  C    0.468375
     4  C    0.952043
     5  C    0.993600
 Electronic spatial extent (au):  <R**2>=            327.0436
 Charge=              3.0000 electrons
 Dipole moment (field-independent basis, Debye):
    X=              0.0077    Y=              1.7580    Z=             -0.0000  Tot=              1.7580
 Quadrupole moment (field-independent basis, Debye-Ang):
   XX=            -10.7792   YY=             23.5402   ZZ=            -18.4495
   XY=              2.6217   XZ=             -0.0000   YZ=             -0.0000
 Traceless Quadrupole moment (field-independent basis, Debye-Ang):
   XX=             -8.8831   YY=             25.4364   ZZ=            -16.5533
   XY=              2.6217   XZ=             -0.0000   YZ=             -0.0000
 Octapole moment (field-independent basis, Debye-Ang**2):
  XXX=             -2.0943  YYY=             51.7986  ZZZ=             -0.0000  XYY=              1.7397
  XXY=            -12.1743  XXZ=             -0.0000  XZZ=              0.3887  YZZ=              9.5151
  YYZ=             -0.0000  XYZ=             -0.0000
 Hexadecapole moment (field-independent basis, Debye-Ang**3):
 XXXX=            -86.3172 YYYY=            -56.9144 ZZZZ=            -19.6952 XXXY=             -5.0942
 XXXZ=             -0.0000 YYYX=              4.4116 YYYZ=             -0.0000 ZZZX=             -0.0000
 ZZZY=             -0.0000 XXYY=            -43.7685 XXZZ=            -19.3891 YYZZ=            -24.2931
 XXYZ=              0.0000 YYXZ=             -0.0000 ZZXY=             -1.2167
 N-N= 1.074857603089D+02 E-N=-6.332263903079D+02  KE= 1.888915736728D+02
 Symmetry A'   KE= 1.843147105437D+02
 Symmetry A"   KE= 4.576863129131D+00
  Exact polarizability:  48.508   3.791  86.361   0.000   0.000  26.467
 Approx polarizability: 117.445   4.458 175.056  -0.000  -0.000  40.273
                          Isotropic Fermi Contact Couplings
        Atom                 a.u.       MegaHertz       Gauss      10(-4) cm-1
     1  C(13)             -0.04078     -45.84691     -16.35932     -15.29288
     2  C(13)              0.01259      14.15571       5.05111       4.72184
     3  C(13)              0.02556      28.73993      10.25512       9.58661
     4  C(13)             -0.00239      -2.69213      -0.96062      -0.89800
     5  C(13)              0.02488      27.97145       9.98091       9.33027
     6  H(1)              -0.00587     -26.23810      -9.36241      -8.75209
     7  H(1)              -0.00587     -26.23810      -9.36241      -8.75209
 --------------------------------------------------------
       Center         ----  Spin Dipole Couplings  ----
                      3XX-RR        3YY-RR        3ZZ-RR
 --------------------------------------------------------
     1   Atom        0.101135     -0.029668     -0.071468
     2   Atom        0.406423     -0.182772     -0.223651
     3   Atom        0.618402     -0.291648     -0.326753
     4   Atom        0.671156     -0.561576     -0.109580
     5   Atom       -0.489227      0.652780     -0.163553
     6   Atom       -0.008558      0.004009      0.004549
     7   Atom       -0.008558      0.004009      0.004549
 --------------------------------------------------------
                        XY            XZ            YZ
 --------------------------------------------------------
     1   Atom        0.019317      0.000000      0.000000
     2   Atom       -0.038066     -0.000000     -0.000000
     3   Atom       -0.116663     -0.000000     -0.000000
     4   Atom        0.264897     -0.000000      0.000000
     5   Atom        0.442300      0.000000      0.000000
     6   Atom        0.000146      0.001345      0.027731
     7   Atom        0.000146     -0.001345     -0.027731
 --------------------------------------------------------


 ---------------------------------------------------------------------------------
              Anisotropic Spin Dipole Couplings in Principal Axis System
 ---------------------------------------------------------------------------------

       Atom             a.u.   MegaHertz   Gauss  10(-4) cm-1        Axes

              Baa    -0.0715    -9.590    -3.422    -3.199  0.0000 -0.0000  1.0000
     1 C(13)  Bbb    -0.0325    -4.356    -1.554    -1.453 -0.1431  0.9897  0.0000
              Bcc     0.1039    13.946     4.976     4.652  0.9897  0.1431  0.0000
 
              Baa    -0.2237   -30.012   -10.709   -10.011  0.0000  0.0000  1.0000
     2 C(13)  Bbb    -0.1852   -24.855    -8.869    -8.291  0.0642  0.9979 -0.0000
              Bcc     0.4089    54.867    19.578    18.302  0.9979 -0.0642  0.0000
 
              Baa    -0.3268   -43.847   -15.646   -14.626  0.0000  0.0000  1.0000
     3 C(13)  Bbb    -0.3064   -41.111   -14.670   -13.713  0.1252  0.9921 -0.0000
              Bcc     0.6331    84.959    30.315    28.339  0.9921 -0.1252  0.0000
 
              Baa    -0.6161   -82.673   -29.500   -27.577 -0.2016  0.9795 -0.0000
     4 C(13)  Bbb    -0.1096   -14.705    -5.247    -4.905 -0.0000  0.0000  1.0000
              Bcc     0.7257    97.378    34.747    32.482  0.9795  0.2016 -0.0000
 
              Baa    -0.6405   -85.948   -30.668   -28.669  0.9462 -0.3236  0.0000
     5 C(13)  Bbb    -0.1636   -21.947    -7.831    -7.321 -0.0000 -0.0000  1.0000
              Bcc     0.8040   107.895    38.500    35.990  0.3236  0.9462  0.0000
 
              Baa    -0.0235   -12.539    -4.474    -4.182  0.0564  0.7087 -0.7033
     6 H(1)   Bbb    -0.0085    -4.556    -1.626    -1.520  0.9981 -0.0584  0.0212
              Bcc     0.0320    17.094     6.100     5.702  0.0261  0.7031  0.7106
 
              Baa    -0.0235   -12.539    -4.474    -4.182  0.0564  0.7087  0.7033
     7 H(1)   Bbb    -0.0085    -4.556    -1.626    -1.520  0.9981 -0.0584 -0.0212
              Bcc     0.0320    17.094     6.100     5.702 -0.0261 -0.7031  0.7106
 

 ---------------------------------------------------------------------------------

 No NMR shielding tensors so no spin-rotation constants.
 Leave Link  601 at Tue Jul 19 05:41:09 2016, MaxMem=    33554432 cpu:         0.7
 (Enter /home/proyectos/fulerenos/M3C-v2.0/M3C-deps_CCC/g09-AM64L-G09RevC.01/l701.exe)
 Compute integral second derivatives.
 ... and contract with generalized density number  0.
 Leave Link  701 at Tue Jul 19 05:41:10 2016, MaxMem=    33554432 cpu:         0.8
 (Enter /home/proyectos/fulerenos/M3C-v2.0/M3C-deps_CCC/g09-AM64L-G09RevC.01/l702.exe)
 L702 exits ... SP integral derivatives will be done elsewhere.
 Leave Link  702 at Tue Jul 19 05:41:10 2016, MaxMem=    33554432 cpu:         0.1
 (Enter /home/proyectos/fulerenos/M3C-v2.0/M3C-deps_CCC/g09-AM64L-G09RevC.01/l703.exe)
 Compute integral second derivatives, UseDBF=F ICtDFT=           0.
 Integral derivatives from FoFJK, PRISM(SPDF).
 Calling FoFJK, ICntrl=    100127 FMM=F ISym2X=1 I1Cent= 0 IOpClX= 1 NMat=1 NMatS=1 NMatT=0.
 FoFJK:  IHMeth= 1 ICntrl=  100127 DoSepK=F KAlg= 0 I1Cent=   0 FoldK=F
 IRaf=         0 NMat=   1 IRICut=       1 DoRegI=T DoRafI=F ISym2E= 1.
 FoFCou: FMM=F IPFlag=           0 FMFlag=      100000 FMFlg1=         800
         NFxFlg=           0 DoJE=F BraDBF=F KetDBF=F FulRan=T
         wScrn=  0.000000 ICntrl=  100127 IOpCl=  1 I1Cent=           0 NGrid=           0
         NMat0=    1 NMatS0=      1 NMatT0=    0 NMatD0=    1 NMtDS0=    0 NMtDT0=    0
 Petite list used in FoFCou.
 Leave Link  703 at Tue Jul 19 05:51:09 2016, MaxMem=    33554432 cpu:       598.1
 (Enter /home/proyectos/fulerenos/M3C-v2.0/M3C-deps_CCC/g09-AM64L-G09RevC.01/l716.exe)
 Dipole        = 3.04306323D-03 6.91653312D-01-2.15257499D-15
 Polarizability= 4.85076532D+01 3.79142414D+00 8.63611905D+01
                 4.44546206D-08 2.57135731D-08 2.64672424D+01
 Full mass-weighted force constant matrix:
 Low frequencies ---   -0.0004   -0.0001    0.0007    4.5116    5.2789    6.4718
 Low frequencies ---  152.4941  177.6495  273.3590
 Diagonal vibrational polarizability:
       19.5913764      20.5419026       7.3459275
 Harmonic frequencies (cm**-1), IR intensities (KM/Mole), Raman scattering
 activities (A**4/AMU), depolarization ratios for plane and unpolarized
 incident light, reduced masses (AMU), force constants (mDyne/A),
 and normal coordinates:
                      1                      2                      3
                     A"                     A'                     A"
 Frequencies --    152.4935               177.6495               273.3589
 Red. masses --      1.1041                 5.7118                 3.1316
 Frc consts  --      0.0151                 0.1062                 0.1379
 IR Inten    --      0.3875                 0.6860                13.1804
  Atom  AN      X      Y      Z        X      Y      Z        X      Y      Z
     1   6     0.00  -0.00   0.05    -0.20   0.01  -0.00    -0.00   0.00   0.22
     2   6    -0.00   0.00  -0.02     0.32  -0.03   0.00     0.00   0.00  -0.12
     3   6     0.00   0.00   0.02    -0.19   0.00  -0.00     0.00   0.00   0.28
     4   6     0.00  -0.00   0.02    -0.05   0.36   0.00    -0.00  -0.00  -0.16
     5   6    -0.00   0.00  -0.07     0.03  -0.34  -0.00     0.00  -0.00  -0.15
     6   1     0.70  -0.02  -0.03     0.53  -0.05   0.00    -0.23   0.44  -0.40
     7   1    -0.70   0.02  -0.03     0.53  -0.05  -0.00     0.23  -0.44  -0.40
                      4                      5                      6
                     A'                     A'                     A"
 Frequencies --    326.8456               438.2821               478.8761
 Red. masses --     10.0256                 7.3603                 3.1267
 Frc consts  --      0.6310                 0.8330                 0.4225
 IR Inten    --     15.6073                51.1449                 1.3280
  Atom  AN      X      Y      Z        X      Y      Z        X      Y      Z
     1   6     0.05  -0.21   0.00    -0.17   0.02   0.00     0.00  -0.00   0.37
     2   6    -0.01  -0.28  -0.00    -0.09   0.00   0.00     0.00  -0.00  -0.04
     3   6    -0.01  -0.26   0.00     0.63  -0.06  -0.00    -0.00   0.00  -0.21
     4   6     0.37   0.44  -0.00    -0.18   0.23  -0.00     0.00  -0.00  -0.09
     5   6    -0.41   0.36  -0.00    -0.11  -0.20  -0.00     0.00   0.00  -0.08
     6   1    -0.00  -0.30   0.00    -0.46   0.01   0.00    -0.16  -0.53   0.32
     7   1    -0.00  -0.30  -0.00    -0.46   0.01  -0.00     0.16   0.53   0.32
                      7                      8                      9
                     A'                     A"                     A'
 Frequencies --    710.3075               844.9191               972.2661
 Red. masses --      9.1963                 1.9627                 1.3603
 Frc consts  --      2.7337                 0.8255                 0.7576
 IR Inten    --     20.7264                 9.8027                29.5117
  Atom  AN      X      Y      Z        X      Y      Z        X      Y      Z
     1   6    -0.07   0.09   0.00     0.00   0.00  -0.08     0.00   0.01  -0.00
     2   6    -0.03  -0.42  -0.00    -0.00  -0.00  -0.19    -0.17   0.00   0.00
     3   6    -0.02  -0.12   0.00    -0.00   0.00   0.21     0.06  -0.00  -0.00
     4   6    -0.38   0.17  -0.00     0.00   0.00   0.01    -0.00   0.00   0.00
     5   6     0.50   0.34  -0.00    -0.00  -0.00   0.01    -0.00  -0.00   0.00
     6   1    -0.04  -0.35  -0.01    -0.03  -0.64   0.23     0.69  -0.05  -0.00
     7   1    -0.04  -0.35   0.01     0.03   0.64   0.23     0.69  -0.05   0.00
                     10                     11                     12
                     A'                     A'                     A'
 Frequencies --    974.4954              1085.1589              1200.3887
 Red. masses --     11.6438                 6.6305                 1.1560
 Frc consts  --      6.5148                 4.6002                 0.9814
 IR Inten    --    373.0942               417.9371               119.3553
  Atom  AN      X      Y      Z        X      Y      Z        X      Y      Z
     1   6     0.75  -0.21  -0.00     0.17   0.52  -0.00    -0.00   0.01   0.00
     2   6     0.01   0.06   0.00    -0.01  -0.34   0.00    -0.01  -0.11  -0.00
     3   6    -0.07   0.01  -0.00    -0.01   0.14  -0.00     0.00   0.02   0.00
     4   6    -0.51   0.22   0.00     0.06  -0.07   0.00     0.01  -0.00  -0.00
     5   6    -0.18  -0.10   0.00    -0.20  -0.16   0.00    -0.01  -0.01  -0.00
     6   1     0.03   0.12  -0.02    -0.08  -0.49   0.05     0.03   0.58  -0.40
     7   1     0.03   0.12   0.02    -0.08  -0.49  -0.05     0.03   0.58   0.40
                     13                     14                     15
                     A'                     A'                     A"
 Frequencies --   1588.7670              2669.8135              2729.7489
 Red. masses --      9.4412                 1.0458                 1.1142
 Frc consts  --     14.0410                 4.3921                 4.8917
 IR Inten    --     24.0770              1031.9147               450.0404
  Atom  AN      X      Y      Z        X      Y      Z        X      Y      Z
     1   6    -0.07  -0.40   0.00     0.00   0.01  -0.00     0.00  -0.00  -0.00
     2   6    -0.02  -0.27   0.00    -0.00  -0.06  -0.00     0.00   0.00  -0.10
     3   6     0.07   0.72  -0.00    -0.00  -0.01  -0.00    -0.00  -0.00   0.00
     4   6     0.03   0.01  -0.00     0.00  -0.00   0.00     0.00   0.00   0.00
     5   6    -0.01   0.00  -0.00    -0.00  -0.00   0.00    -0.00   0.00   0.00
     6   1    -0.01  -0.32   0.13     0.02   0.36   0.61     0.02   0.38   0.59
     7   1    -0.01  -0.32  -0.13     0.02   0.36  -0.61    -0.02  -0.38   0.59

 -------------------
 - Thermochemistry -
 -------------------
 Temperature   298.150 Kelvin.  Pressure   1.00000 Atm.
 Atom     1 has atomic number  6 and mass  12.00000
 Atom     2 has atomic number  6 and mass  12.00000
 Atom     3 has atomic number  6 and mass  12.00000
 Atom     4 has atomic number  6 and mass  12.00000
 Atom     5 has atomic number  6 and mass  12.00000
 Atom     6 has atomic number  1 and mass   1.00783
 Atom     7 has atomic number  1 and mass   1.00783
 Molecular mass:    62.01565 amu.
 Principal axes and moments of inertia in atomic units:
                           1         2         3
     Eigenvalues --   144.88539 450.41717 582.04513
           X            0.09076   0.99587   0.00000
           Y            0.99587  -0.09076   0.00000
           Z            0.00000   0.00000   1.00000
 This molecule is an asymmetric top.
 Rotational symmetry number  1.
 Rotational temperatures (Kelvin)      0.59781     0.19230     0.14881
 Rotational constants (GHZ):          12.45634     4.00682     3.10069
 Zero-point vibrational energy      87467.2 (Joules/Mol)
                                   20.90516 (Kcal/Mol)
 Warning -- explicit consideration of   6 degrees of freedom as
           vibrations may cause significant error
 Vibrational temperatures:    219.40   255.60   393.30   470.26   630.59
          (Kelvin)            689.00  1021.97  1215.65  1398.87  1402.08
                             1561.30  1727.09  2285.88  3841.26  3927.49
 
 Zero-point correction=                           0.033314 (Hartree/Particle)
 Thermal correction to Energy=                    0.039042
 Thermal correction to Enthalpy=                  0.039986
 Thermal correction to Gibbs Free Energy=         0.004353
 Sum of electronic and zero-point Energies=           -189.618510
 Sum of electronic and thermal Energies=              -189.612782
 Sum of electronic and thermal Enthalpies=            -189.611838
 Sum of electronic and thermal Free Energies=         -189.647471
 
                     E (Thermal)             CV                S
                      KCal/Mol        Cal/Mol-Kelvin    Cal/Mol-Kelvin
 Total                   24.499             18.517             74.997
 Electronic               0.000              0.000              1.377
 Translational            0.889              2.981             38.294
 Rotational               0.889              2.981             25.144
 Vibrational             22.722             12.555             10.181
 Vibration     1          0.619              1.900              2.641
 Vibration     2          0.628              1.870              2.353
 Vibration     3          0.676              1.722              1.575
 Vibration     4          0.711              1.622              1.276
 Vibration     5          0.798              1.387              0.832
 Vibration     6          0.835              1.297              0.713
                       Q            Log10(Q)             Ln(Q)
 Total Bot       0.994713D-02         -2.002302         -4.610471
 Total V=0       0.209540D+14         13.321267         30.673350
 Vib (Bot)       0.371378D-14        -14.430184        -33.226726
 Vib (Bot)    1  0.132873D+01          0.123435          0.284220
 Vib (Bot)    2  0.113151D+01          0.053660          0.123556
 Vib (Bot)    3  0.705772D+00         -0.151336         -0.348463
 Vib (Bot)    4  0.572770D+00         -0.242020         -0.557271
 Vib (Bot)    5  0.394968D+00         -0.403438         -0.928951
 Vib (Bot)    6  0.349585D+00         -0.456448         -1.051010
 Vib (V=0)       0.782321D+01          0.893385          2.057095
 Vib (V=0)    1  0.191969D+01          0.283230          0.652162
 Vib (V=0)    2  0.173706D+01          0.239815          0.552195
 Vib (V=0)    3  0.136494D+01          0.135112          0.311107
 Vib (V=0)    4  0.126031D+01          0.100476          0.231355
 Vib (V=0)    5  0.113718D+01          0.055830          0.128552
 Vib (V=0)    6  0.111009D+01          0.045358          0.104441
 Electronic      0.200000D+01          0.301030          0.693147
 Translational   0.191958D+08          7.283207         16.770204
 Rotational      0.697661D+05          4.843645         11.152904
 
                                                              b3lyp opt
                                                             IR Spectrum
 
     2  2                                                  1                 1    1                                                  
     7  6                                                  5                 2    0   99     8     7          4 4    3  2   11       
     3  7                                                  8                 0    8   77     4     1          7 3    2  7   75       
     0  0                                                  9                 0    5   42     5     0          9 8    7  3   82       
 
     X  X                                                  X                 X    X   XX     X     X          X X    X  X   XX       
     X  X                                                                    X    X   X                                              
     X  X                                                                         X   X                                              
     X  X                                                                         X   X                                              
     X  X                                                                         X   X                                              
     X  X                                                                         X   X                                              
     X  X                                                                         X   X                                              
     X  X                                                                         X                                                  
     X  X                                                                                                                            
        X                                                                                                                            
        X                                                                                                                            
        X                                                                                                                            
        X                                                                                                                            
        X                                                                                                                            
        X                                                                                                                            
        X                                                                                                                            
        X                                                                                                                            
        X                                                                                                                            
        X                                                                                                                            
        X                                                                                                                            
 
 ***** Axes restored to original set *****
 -------------------------------------------------------------------
 Center     Atomic                   Forces (Hartrees/Bohr)
 Number     Number              X              Y              Z
 -------------------------------------------------------------------
      1        6           0.000009309    0.000058042    0.000000289
      2        6          -0.000001305    0.000005881    0.000000029
      3        6          -0.000025063   -0.000035236   -0.000000180
      4        6           0.000006910   -0.000014505   -0.000000070
      5        6           0.000014471   -0.000018070   -0.000000087
      6        1          -0.000002161    0.000001946   -0.000000502
      7        1          -0.000002162    0.000001941    0.000000521
 -------------------------------------------------------------------
 Cartesian Forces:  Max     0.000058042 RMS     0.000017145
 Z-matrix is all fixed cartesians, so copy forces.
 Force constants in Cartesian coordinates: 
                1             2             3             4             5 
      1  0.532595D+00
      2  0.328789D-01  0.285307D+00
      3  0.254901D-03  0.105206D-02  0.742126D-01
      4 -0.522597D-01  0.877496D-03 -0.117103D-04  0.490869D+00
      5  0.321463D-02  0.289030D-02 -0.122118D-03 -0.695321D-02  0.113369D+00
      6  0.000000D+00 -0.122583D-03  0.276775D-01 -0.209081D-04 -0.153743D-02
      7 -0.362132D+00 -0.130571D-01 -0.125814D-03 -0.307662D+00  0.168897D-02
      8 -0.681836D-02 -0.418140D-01  0.772070D-04  0.116011D-02 -0.468768D-01
      9 -0.949157D-04  0.759525D-04 -0.576794D-01 -0.395807D-04  0.174274D-03
     10 -0.506114D-01  0.432979D-01  0.208073D-03 -0.520624D-04 -0.793953D-03
     11  0.390480D-01 -0.156352D+00 -0.672574D-03 -0.199543D-01  0.438295D-02
     12  0.187023D-03 -0.671720D-03 -0.189650D-01 -0.986756D-04  0.254153D-04
     13 -0.806198D-01 -0.624836D-01 -0.321892D-03  0.134639D-01  0.658087D-04
     14 -0.668871D-01 -0.924432D-01 -0.378821D-03  0.221883D-01 -0.476715D-03
     15 -0.343699D-03 -0.377939D-03 -0.186658D-01  0.112548D-03 -0.340787D-05
     16  0.651604D-02 -0.749969D-03 -0.140593D-02 -0.722168D-01  0.914145D-03
     17 -0.669019D-03  0.119349D-02  0.195087D-02  0.903159D-03 -0.366182D-01
     18 -0.997529D-02  0.655193D-03 -0.327957D-02  0.885106D-01 -0.167234D-02
     19  0.651147D-02 -0.763622D-03  0.140238D-02 -0.721427D-01  0.186361D-02
     20 -0.767032D-03  0.121887D-02 -0.190662D-02  0.177842D-02 -0.366701D-01
     21  0.997212D-02 -0.610963D-03 -0.330037D-02 -0.884523D-01  0.313560D-02
                6             7             8             9            10 
      6  0.423519D+00
      7 -0.369625D-04  0.795537D+00
      8  0.174168D-03  0.268759D-03  0.729047D-01
      9 -0.819974D-01  0.137620D-03 -0.218278D-03  0.116990D+00
     10 -0.378482D-05 -0.113792D-01  0.136065D-01  0.639081D-04  0.468844D-01
     11  0.215667D-04  0.496862D-01 -0.151260D-02 -0.268835D-04 -0.596669D-01
     12 -0.780733D-03  0.242590D-03 -0.341305D-04  0.593053D-02 -0.287416D-03
     13  0.298844D-05 -0.423017D-01 -0.106860D-01 -0.624005D-04  0.163489D-01
     14  0.103106D-05 -0.411734D-01 -0.154773D-03 -0.332263D-04  0.343877D-02
     15  0.214717D-03 -0.213386D-03 -0.271050D-04  0.488439D-02  0.190792D-04
     16  0.959862D-01 -0.360365D-01  0.115261D-02  0.165368D-01 -0.595522D-03
     17 -0.209783D-02  0.125156D-02  0.873183D-02 -0.832038D-03  0.541472D-04
     18 -0.184305D+00  0.846282D-02 -0.171316D-03  0.593590D-02  0.984941D-03
     19 -0.959274D-01 -0.360264D-01  0.131635D-02 -0.165414D-01 -0.595097D-03
     20  0.356107D-02  0.133506D-02  0.872161D-02  0.860200D-03  0.635044D-04
     21 -0.184328D+00 -0.846687D-02  0.199455D-03  0.593607D-02 -0.984800D-03
               11            12            13            14            15 
     11  0.188539D+00
     12  0.888764D-03  0.666306D-02
     13 -0.168301D-01 -0.812988D-04  0.975484D-01
     14 -0.342874D-01 -0.199555D-03  0.896185D-01  0.126170D+00
     15 -0.203625D-03  0.614554D-02  0.462078D-03  0.609675D-03  0.670082D-02
     16  0.385916D-02  0.908035D-04 -0.222042D-02 -0.359340D-02 -0.146760D-04
     17 -0.356655D-03 -0.994678D-03  0.145118D-03  0.576894D-03 -0.324481D-03
     18 -0.470838D-02  0.475302D-03  0.255597D-02  0.424544D-02  0.380082D-03
     19  0.385798D-02 -0.530265D-04 -0.221939D-02 -0.359166D-02 -0.219437D-04
     20 -0.413065D-03  0.985905D-03  0.170301D-03  0.615715D-03  0.326884D-03
     21  0.470113D-02  0.531286D-03 -0.255544D-02 -0.424455D-02  0.340232D-03
               16            17            18            19            20 
     16  0.969380D-01
     17 -0.170528D-02  0.137597D-01
     18 -0.100871D+00  0.183910D-02  0.195473D+00
     19  0.761513D-02  0.203156D-04  0.103319D-01  0.968570D-01
     20  0.122733D-03  0.127130D-01 -0.187705D-03 -0.270298D-02  0.138140D-01
     21 -0.103222D-01  0.459056D-03 -0.146793D-01  0.100810D+00 -0.363973D-02
               21 
     21  0.195500D+00
 Leave Link  716 at Tue Jul 19 05:51:09 2016, MaxMem=    33554432 cpu:         0.1
 (Enter /home/proyectos/fulerenos/M3C-v2.0/M3C-deps_CCC/g09-AM64L-G09RevC.01/l103.exe)

 GradGradGradGradGradGradGradGradGradGradGradGradGradGradGradGradGradGrad
 Berny optimization.
 Search for a local minimum.
 Step number   1 out of a maximum of    2
 All quantities printed in internal units (Hartrees-Bohrs-Radians)
 Second derivative matrix not updated -- analytic derivatives used.
 ITU=  0
     Eigenvalues ---    0.00122   0.00857   0.01053   0.03674   0.05722
     Eigenvalues ---    0.06501   0.07606   0.15656   0.17316   0.18839
     Eigenvalues ---    0.32845   0.43404   0.58756   0.63466   1.13656
 Angle between quadratic step and forces=  50.35 degrees.
 ClnCor:  largest displacement from symmetrization is 1.45D-10 for atom     7.
 Linear search not attempted -- first point.
 ClnCor:  largest displacement from symmetrization is 3.82D-15 for atom     4.
 B after Tr=     0.000026   -0.000001    0.000000
         Rot=    1.000000   -0.000000   -0.000000    0.000000 Ang=   0.00 deg.
 Variable       Old X    -DE/DX   Delta X   Delta X   Delta X     New X
                                 (Linear)    (Quad)   (Total)
    X1       -1.30784   0.00001   0.00000  -0.00008  -0.00005  -1.30789
    Y1       -0.04659   0.00006   0.00000   0.00034   0.00033  -0.04626
    Z1       -0.00034   0.00000   0.00000   0.00000   0.00000  -0.00034
    X2        3.82324  -0.00000   0.00000  -0.00012  -0.00010   3.82314
    Y2       -0.13063   0.00001   0.00000  -0.00009  -0.00009  -0.13072
    Z2        0.00027   0.00000   0.00000  -0.00000  -0.00000   0.00027
    X3        1.26698  -0.00003   0.00000  -0.00012  -0.00010   1.26688
    Y3       -0.10867  -0.00004   0.00000  -0.00028  -0.00028  -0.10895
    Z3       -0.00013  -0.00000   0.00000  -0.00000  -0.00000  -0.00013
    X4       -2.34860   0.00001   0.00000  -0.00001   0.00001  -2.34859
    Y4        2.56211  -0.00001   0.00000   0.00024   0.00024   2.56235
    Z4        0.01237  -0.00000   0.00000   0.00000   0.00000   0.01237
    X5       -3.08733   0.00001   0.00000   0.00046   0.00049  -3.08684
    Y5       -2.21854  -0.00002   0.00000  -0.00022  -0.00022  -2.21876
    Z5       -0.01145  -0.00000   0.00000  -0.00000  -0.00000  -0.01145
    X6        4.95998  -0.00000   0.00000  -0.00016  -0.00013   4.95985
    Y6       -0.15486   0.00000   0.00000   0.00001   0.00001  -0.15486
    Z6       -1.81310  -0.00000   0.00000  -0.00001  -0.00001  -1.81311
    X7        4.95925  -0.00000   0.00000  -0.00016  -0.00013   4.95912
    Y7       -0.17282   0.00000   0.00000   0.00001   0.00000  -0.17282
    Z7        1.81377   0.00000   0.00000   0.00001   0.00001   1.81379
         Item               Value     Threshold  Converged?
 Maximum Force            0.000058     0.000450     YES
 RMS     Force            0.000017     0.000300     YES
 Maximum Displacement     0.000490     0.001800     YES
 RMS     Displacement     0.000169     0.001200     YES
 Predicted change in Energy=-1.951486D-08
 Optimization completed.
    -- Stationary point found.
 GradGradGradGradGradGradGradGradGradGradGradGradGradGradGradGradGradGrad

 Leave Link  103 at Tue Jul 19 05:51:09 2016, MaxMem=    33554432 cpu:         0.0
 (Enter /home/proyectos/fulerenos/M3C-v2.0/M3C-deps_CCC/g09-AM64L-G09RevC.01/l9999.exe)
 1\1\GINC-EINSTENIO\Freq\UB3LYP\6-311++G(3df,2p)\C5H2(3+,2)\ROOT\19-Jul
 -2016\0\\#p b3lyp/6-311++G(3df,2p) freq symmetry=Loose\\b3lyp opt\\3,2
 \C,-0.692076996,-0.024655906,-0.000180004\C,2.023168983,-0.069124417,0
 .0001451319\C,0.670457988,-0.057507297,-0.0000690299\C,-1.242826744,1.
 355810304,0.006546017\C,-1.633742229,-1.17400164,-0.0060611751\H,2.624
 707232,-0.081948794,-0.959449129\H,2.6243217457,-0.0914537441,0.959806
 86\\Version=EM64L-G09RevE.01\State=2-A'\HF=-189.6518246\S2=1.036656\S2
 -1=0.\S2A=0.799738\RMSD=4.344e-09\RMSF=1.715e-05\ZeroPoint=0.0333145\T
 hermal=0.0390422\Dipole=0.689358,-0.0563835,-0.0001408\DipoleDeriv=-1.
 0316284,-0.1431033,-0.0009893,-0.01716,-1.0417523,-0.0069709,-0.000365
 5,-0.0069961,0.365081,0.2801069,-0.0174245,-0.0000052,0.0217751,0.4906
 335,0.0030462,0.0001889,0.0030383,-0.1235547,0.6463509,-0.0190614,-0.0
 000719,-0.062197,0.2245432,-0.0015462,-0.0002855,-0.0015375,0.5342295,
 0.6386594,-0.5189337,-0.0025635,-0.7051386,1.6110765,0.0048341,-0.0034
 857,0.0048715,0.6063942,1.0474558,0.7319625,0.003709,0.7941499,1.30438
 64,0.0035046,0.004017,0.0034921,0.6289566,0.7096558,-0.0159357,-0.1590
 832,-0.0133457,0.2054572,0.0007602,-0.4784849,0.0163967,0.4944179,0.70
 93997,-0.0175039,0.159004,-0.0180838,0.2056555,-0.003628,0.4784156,-0.
 0192648,0.4944756\Polar=86.7308364,0.4956756,48.1374724,0.0145588,0.10
 74195,26.4677773\PG=CS [SG(C5),X(H2)]\NImag=0\\0.53259489,0.03287889,0
 .28530698,0.00025490,0.00105206,0.07421261,-0.05225965,0.00087750,-0.0
 0001171,0.49086948,0.00321463,0.00289030,-0.00012212,-0.00695321,0.113
 36854,-0.00000014,-0.00012258,0.02767746,-0.00002091,-0.00153743,0.423
 51903,-0.36213151,-0.01305712,-0.00012581,-0.30766219,0.00168897,-0.00
 003696,0.79553746,-0.00681836,-0.04181397,0.00007721,0.00116011,-0.046
 87676,0.00017417,0.00026876,0.07290466,-0.00009492,0.00007595,-0.05767
 936,-0.00003958,0.00017427,-0.08199737,0.00013762,-0.00021828,0.116989
 83,-0.05061143,0.04329793,0.00020807,-0.00005206,-0.00079395,-0.000003
 78,-0.01137918,0.01360654,0.00006391,0.04688436,0.03904797,-0.15635246
 ,-0.00067257,-0.01995427,0.00438295,0.00002157,0.04968620,-0.00151260,
 -0.00002688,-0.05966694,0.18853925,0.00018702,-0.00067172,-0.01896499,
 -0.00009868,0.00002542,-0.00078073,0.00024259,-0.00003413,0.00593053,-
 0.00028742,0.00088876,0.00666306,-0.08061982,-0.06248361,-0.00032189,0
 .01346391,0.00006581,0.00000299,-0.04230166,-0.01068601,-0.00006240,0.
 01634893,-0.01683009,-0.00008130,0.09754844,-0.06688708,-0.09244322,-0
 .00037882,0.02218831,-0.00047672,0.00000103,-0.04117344,-0.00015477,-0
 .00003323,0.00343877,-0.03428742,-0.00019956,0.08961849,0.12616951,-0.
 00034370,-0.00037794,-0.01866578,0.00011255,-0.00000341,0.00021472,-0.
 00021339,-0.00002711,0.00488439,0.00001908,-0.00020363,0.00614554,0.00
 046208,0.00060967,0.00670082,0.00651604,-0.00074997,-0.00140593,-0.072
 21679,0.00091414,0.09598619,-0.03603648,0.00115261,0.01653679,-0.00059
 552,0.00385916,0.00009080,-0.00222042,-0.00359340,-0.00001468,0.096938
 03,-0.00066902,0.00119349,0.00195087,0.00090316,-0.03661823,-0.0020978
 3,0.00125156,0.00873183,-0.00083204,0.00005415,-0.00035666,-0.00099468
 ,0.00014512,0.00057689,-0.00032448,-0.00170528,0.01375969,-0.00997529,
 0.00065519,-0.00327957,0.08851061,-0.00167234,-0.18430542,0.00846282,-
 0.00017132,0.00593590,0.00098494,-0.00470838,0.00047530,0.00255597,0.0
 0424544,0.00038008,-0.10087094,0.00183910,0.19547298,0.00651147,-0.000
 76362,0.00140238,-0.07214270,0.00186361,-0.09592739,-0.03602644,0.0013
 1635,-0.01654142,-0.00059510,0.00385798,-0.00005303,-0.00221939,-0.003
 59166,-0.00002194,0.00761513,0.00002032,0.01033190,0.09685702,-0.00076
 703,0.00121887,-0.00190662,0.00177842,-0.03667007,0.00356107,0.0013350
 6,0.00872161,0.00086020,0.00006350,-0.00041306,0.00098590,0.00017030,0
 .00061571,0.00032688,0.00012273,0.01271298,-0.00018771,-0.00270298,0.0
 1381395,0.00997212,-0.00061096,-0.00330037,-0.08845228,0.00313560,-0.1
 8432768,-0.00846687,0.00019945,0.00593607,-0.00098480,0.00470113,0.000
 53129,-0.00255544,-0.00424455,0.00034023,-0.01032223,0.00045906,-0.014
 67927,0.10080950,-0.00363973,0.19549973\\-0.00000931,-0.00005804,-0.00
 000029,0.00000131,-0.00000588,-0.00000003,0.00002506,0.00003524,0.0000
 0018,-0.00000691,0.00001451,0.00000007,-0.00001447,0.00001807,0.000000
 09,0.00000216,-0.00000195,0.00000050,0.00000216,-0.00000194,-0.0000005
 2\\\@


 HE WHO LAUGHS LAST PROBABLY DIDN'T GET THE JOKE.
 Job cpu time:       0 days  0 hours 50 minutes 58.6 seconds.
 File lengths (MBytes):  RWF=     52 Int=      0 D2E=      0 Chk=      5 Scr=      1
 Normal termination of Gaussian 09 at Tue Jul 19 05:51:09 2016.
