 Entering Gaussian System, Link 0=/home/proyectos/fulerenos/M3C-v2.0/M3C-deps_CCC/g09-AM64L-G09RevC.01/g09
 Initial command:
 /home/proyectos/fulerenos/M3C-v2.0/M3C-deps_CCC/g09-AM64L-G09RevC.01/l1.exe "/scratch/naguirre/gaussian/Gau-15707.inp" -scrdir="/scratch/naguirre/gaussian/"
 Entering Link 1 = /home/proyectos/fulerenos/M3C-v2.0/M3C-deps_CCC/g09-AM64L-G09RevC.01/l1.exe PID=     15709.
  
 Copyright (c) 1988,1990,1992,1993,1995,1998,2003,2009,2015,
            Gaussian, Inc.  All Rights Reserved.
  
 This is part of the Gaussian(R) 09 program.  It is based on
 the Gaussian(R) 03 system (copyright 2003, Gaussian, Inc.),
 the Gaussian(R) 98 system (copyright 1998, Gaussian, Inc.),
 the Gaussian(R) 94 system (copyright 1995, Gaussian, Inc.),
 the Gaussian 92(TM) system (copyright 1992, Gaussian, Inc.),
 the Gaussian 90(TM) system (copyright 1990, Gaussian, Inc.),
 the Gaussian 88(TM) system (copyright 1988, Gaussian, Inc.),
 the Gaussian 86(TM) system (copyright 1986, Carnegie Mellon
 University), and the Gaussian 82(TM) system (copyright 1983,
 Carnegie Mellon University). Gaussian is a federally registered
 trademark of Gaussian, Inc.
  
 This software contains proprietary and confidential information,
 including trade secrets, belonging to Gaussian, Inc.
  
 This software is provided under written license and may be
 used, copied, transmitted, or stored only in accord with that
 written license.
  
 The following legend is applicable only to US Government
 contracts under FAR:
  
                    RESTRICTED RIGHTS LEGEND
  
 Use, reproduction and disclosure by the US Government is
 subject to restrictions as set forth in subparagraphs (a)
 and (c) of the Commercial Computer Software - Restricted
 Rights clause in FAR 52.227-19.
  
 Gaussian, Inc.
 340 Quinnipiac St., Bldg. 40, Wallingford CT 06492
  
  
 ---------------------------------------------------------------
 Warning -- This program may not be used in any manner that
 competes with the business of Gaussian, Inc. or will provide
 assistance to any competitor of Gaussian, Inc.  The licensee
 of this program is prohibited from giving any competitor of
 Gaussian, Inc. access to this program.  By using this program,
 the user acknowledges that Gaussian, Inc. is engaged in the
 business of creating and licensing software in the field of
 computational chemistry and represents and warrants to the
 licensee that it is not a competitor of Gaussian, Inc. and that
 it will not use this program in any manner prohibited above.
 ---------------------------------------------------------------
  

 Cite this work as:
 Gaussian 09, Revision E.01,
 M. J. Frisch, G. W. Trucks, H. B. Schlegel, G. E. Scuseria, 
 M. A. Robb, J. R. Cheeseman, G. Scalmani, V. Barone, B. Mennucci, 
 G. A. Petersson, H. Nakatsuji, M. Caricato, X. Li, H. P. Hratchian, 
 A. F. Izmaylov, J. Bloino, G. Zheng, J. L. Sonnenberg, M. Hada, 
 M. Ehara, K. Toyota, R. Fukuda, J. Hasegawa, M. Ishida, T. Nakajima, 
 Y. Honda, O. Kitao, H. Nakai, T. Vreven, J. A. Montgomery, Jr., 
 J. E. Peralta, F. Ogliaro, M. Bearpark, J. J. Heyd, E. Brothers, 
 K. N. Kudin, V. N. Staroverov, T. Keith, R. Kobayashi, J. Normand, 
 K. Raghavachari, A. Rendell, J. C. Burant, S. S. Iyengar, J. Tomasi, 
 M. Cossi, N. Rega, J. M. Millam, M. Klene, J. E. Knox, J. B. Cross, 
 V. Bakken, C. Adamo, J. Jaramillo, R. Gomperts, R. E. Stratmann, 
 O. Yazyev, A. J. Austin, R. Cammi, C. Pomelli, J. W. Ochterski, 
 R. L. Martin, K. Morokuma, V. G. Zakrzewski, G. A. Voth, 
 P. Salvador, J. J. Dannenberg, S. Dapprich, A. D. Daniels, 
 O. Farkas, J. B. Foresman, J. V. Ortiz, J. Cioslowski, 
 and D. J. Fox, Gaussian, Inc., Wallingford CT, 2013.
 
 ******************************************
 Gaussian 09:  EM64L-G09RevE.01 30-Nov-2015
                19-Jul-2016 
 ******************************************
 %NProcShared=1
 Will use up to    1 processors via shared memory.
 ---------------------------------------------
 #p b3lyp/6-311++G(3df,2p) freq symmetry=Loose
 ---------------------------------------------
 1/10=4,30=1,38=1/1,3;
 2/12=2,17=4,18=3,40=1/2;
 3/5=4,6=6,7=1216,11=2,16=1,25=1,30=1,71=2,74=-5,140=1/1,2,3;
 4//1;
 5/5=2,38=5,98=1/2;
 8/6=4,10=90,11=11/1;
 11/6=1,8=1,9=11,15=111,16=1/1,2,10;
 10/6=1/2;
 6/7=2,8=2,9=2,10=2,18=1,28=1/1;
 7/8=1,10=1,25=1/1,2,3,16;
 1/10=4,30=1/3;
 99//99;
 Leave Link    1 at Tue Jul 19 07:17:59 2016, MaxMem=           0 cpu:         0.1
 (Enter /home/proyectos/fulerenos/M3C-v2.0/M3C-deps_CCC/g09-AM64L-G09RevC.01/l101.exe)
 ---------
 b3lyp opt
 ---------
 Symbolic Z-matrix:
 Charge =  0 Multiplicity = 3
 C                     0.88368   0.6871   -0.00004 
 C                     0.88322  -0.68768   0.0001 
 C                    -0.54119  -1.09589   0.0001 
 C                    -1.26544   0.00042  -0.00002 
 C                    -0.54046   1.09625  -0.00012 
 H                     1.74103   1.34123  -0.00009 
 H                     1.74013  -1.34238   0.00018 
 
 NAtoms=      7 NQM=        7 NQMF=       0 NMMI=      0 NMMIF=      0
                NMic=       0 NMicF=      0.
                    Isotopes and Nuclear Properties:
 (Nuclear quadrupole moments (NQMom) in fm**2, nuclear magnetic moments (NMagM)
  in nuclear magnetons)

  Atom         1           2           3           4           5           6           7
 IAtWgt=          12          12          12          12          12           1           1
 AtmWgt=  12.0000000  12.0000000  12.0000000  12.0000000  12.0000000   1.0078250   1.0078250
 NucSpn=           0           0           0           0           0           1           1
 AtZEff=   0.0000000   0.0000000   0.0000000   0.0000000   0.0000000   0.0000000   0.0000000
 NQMom=    0.0000000   0.0000000   0.0000000   0.0000000   0.0000000   0.0000000   0.0000000
 NMagM=    0.0000000   0.0000000   0.0000000   0.0000000   0.0000000   2.7928460   2.7928460
 AtZNuc=   6.0000000   6.0000000   6.0000000   6.0000000   6.0000000   1.0000000   1.0000000
 Leave Link  101 at Tue Jul 19 07:18:00 2016, MaxMem=    33554432 cpu:         0.2
 (Enter /home/proyectos/fulerenos/M3C-v2.0/M3C-deps_CCC/g09-AM64L-G09RevC.01/l103.exe)

 GradGradGradGradGradGradGradGradGradGradGradGradGradGradGradGradGradGrad
 Berny optimization.
 Initialization pass.
 Trust Radius=3.00D-01 FncErr=1.00D-07 GrdErr=1.00D-07
 Number of steps in this run=      2 maximum allowed number of steps=      2.
 GradGradGradGradGradGradGradGradGradGradGradGradGradGradGradGradGradGrad

 Leave Link  103 at Tue Jul 19 07:18:00 2016, MaxMem=    33554432 cpu:         0.1
 (Enter /home/proyectos/fulerenos/M3C-v2.0/M3C-deps_CCC/g09-AM64L-G09RevC.01/l202.exe)
                          Input orientation:                          
 ---------------------------------------------------------------------
 Center     Atomic      Atomic             Coordinates (Angstroms)
 Number     Number       Type             X           Y           Z
 ---------------------------------------------------------------------
      1          6           0        0.883680    0.687096   -0.000042
      2          6           0        0.883222   -0.687685    0.000096
      3          6           0       -0.541193   -1.095893    0.000104
      4          6           0       -1.265439    0.000421   -0.000023
      5          6           0       -0.540463    1.096253   -0.000116
      6          1           0        1.741025    1.341225   -0.000088
      7          1           0        1.740132   -1.342384    0.000181
 ---------------------------------------------------------------------
                    Distance matrix (angstroms):
                    1          2          3          4          5
     1  C    0.000000
     2  C    1.374781   0.000000
     3  C    2.282392   1.481753   0.000000
     4  C    2.256155   2.256155   1.313940   0.000000
     5  C    1.481753   2.282392   2.192146   1.313940   0.000000
     6  H    1.078390   2.202794   3.338872   3.291896   2.294602
     7  H    2.202794   1.078390   2.294602   3.291896   3.338872
                    6          7
     6  H    0.000000
     7  H    2.683609   0.000000
 Stoichiometry    C5H2(3)
 Framework group  C2[C2(C),X(C4H2)]
 Deg. of freedom     8
 Full point group                 C2      NOp   2
 Largest Abelian subgroup         C2      NOp   2
 Largest concise Abelian subgroup C2      NOp   2
                         Standard orientation:                         
 ---------------------------------------------------------------------
 Center     Atomic      Atomic             Coordinates (Angstroms)
 Number     Number       Type             X           Y           Z
 ---------------------------------------------------------------------
      1          6           0        0.000020    0.687391   -0.883451
      2          6           0       -0.000020   -0.687391   -0.883451
      3          6           0       -0.000012   -1.096073    0.540828
      4          6           0        0.000000   -0.000000    1.265439
      5          6           0        0.000012    1.096073    0.540828
      6          1           0        0.000040    1.341805   -1.740579
      7          1           0       -0.000040   -1.341805   -1.740579
 ---------------------------------------------------------------------
 Rotational constants (GHZ):     11.5377481      9.9324030      5.3375295
 Leave Link  202 at Tue Jul 19 07:18:00 2016, MaxMem=    33554432 cpu:         0.0
 (Enter /home/proyectos/fulerenos/M3C-v2.0/M3C-deps_CCC/g09-AM64L-G09RevC.01/l301.exe)
 Standard basis: 6-311++G(3df,2p) (5D, 7F)
 Ernie: Thresh=  0.10000D-02 Tol=  0.10000D-05 Strict=F.
 There are   125 symmetry adapted cartesian basis functions of A   symmetry.
 There are   120 symmetry adapted cartesian basis functions of B   symmetry.
 There are   109 symmetry adapted basis functions of A   symmetry.
 There are   106 symmetry adapted basis functions of B   symmetry.
   215 basis functions,   314 primitive gaussians,   245 cartesian basis functions
    17 alpha electrons       15 beta electrons
       nuclear repulsion energy       126.4055662140 Hartrees.
 IExCor=  402 DFT=T Ex+Corr=B3LYP ExCW=0 ScaHFX=  0.200000
 ScaDFX=  0.800000  0.720000  1.000000  0.810000 ScalE2=  1.000000  1.000000
 IRadAn=      0 IRanWt=     -1 IRanGd=            0 ICorTp=0 IEmpDi=  4
 NAtoms=    7 NActive=    7 NUniq=    4 SFac= 3.06D+00 NAtFMM=   60 NAOKFM=F Big=F
 Integral buffers will be    131072 words long.
 Raffenetti 2 integral format.
 Two-electron integral symmetry is turned on.
 Leave Link  301 at Tue Jul 19 07:18:00 2016, MaxMem=    33554432 cpu:         0.2
 (Enter /home/proyectos/fulerenos/M3C-v2.0/M3C-deps_CCC/g09-AM64L-G09RevC.01/l302.exe)
 NPDir=0 NMtPBC=     1 NCelOv=     1 NCel=       1 NClECP=     1 NCelD=      1
         NCelK=      1 NCelE2=     1 NClLst=     1 CellRange=     0.0.
 One-electron integrals computed using PRISM.
 One-electron integral symmetry used in STVInt
 NBasis=   215 RedAO= T EigKep=  5.17D-06  NBF=   109   106
 NBsUse=   215 1.00D-06 EigRej= -1.00D+00 NBFU=   109   106
 Precomputing XC quadrature grid using
 IXCGrd= 4 IRadAn=           0 IRanWt=          -1 IRanGd=           0 AccXCQ= 0.00D+00.
 Generated NRdTot=       0 NPtTot=           0 NUsed=           0 NTot=          32
 NSgBfM=   245   245   245   245   245 MxSgAt=     7 MxSgA2=     7.
 Leave Link  302 at Tue Jul 19 07:18:00 2016, MaxMem=    33554432 cpu:         0.4
 (Enter /home/proyectos/fulerenos/M3C-v2.0/M3C-deps_CCC/g09-AM64L-G09RevC.01/l303.exe)
 DipDrv:  MaxL=1.
 Leave Link  303 at Tue Jul 19 07:18:01 2016, MaxMem=    33554432 cpu:         0.1
 (Enter /home/proyectos/fulerenos/M3C-v2.0/M3C-deps_CCC/g09-AM64L-G09RevC.01/l401.exe)
 ExpMin= 3.60D-02 ExpMax= 4.56D+03 ExpMxC= 6.82D+02 IAcc=3 IRadAn=         5 AccDes= 0.00D+00
 Harris functional with IExCor=  402 and IRadAn=       5 diagonalized for initial guess.
 HarFok:  IExCor=  402 AccDes= 0.00D+00 IRadAn=         5 IDoV= 1 UseB2=F ITyADJ=14
 ICtDFT=  3500011 ScaDFX=  1.000000  1.000000  1.000000  1.000000
 FoFCou: FMM=F IPFlag=           0 FMFlag=      100000 FMFlg1=           0
         NFxFlg=           0 DoJE=T BraDBF=F KetDBF=T FulRan=T
         wScrn=  0.000000 ICntrl=     500 IOpCl=  0 I1Cent=   200000004 NGrid=           0
         NMat0=    1 NMatS0=      1 NMatT0=    0 NMatD0=    1 NMtDS0=    0 NMtDT0=    0
 Petite list used in FoFCou.
 Harris En= -191.450427026248    
 JPrj=0 DoOrth=F DoCkMO=F.
 Initial guess orbital symmetries:
 Alpha Orbitals:
       Occupied  (A) (A) (B) (B) (A) (A) (A) (B) (B) (A) (A) (B)
                 (B) (A) (B) (A) (B)
       Virtual   (A) (A) (B) (A) (B) (A) (B) (A) (B) (A) (B) (A)
                 (A) (B) (A) (B) (A) (A) (B) (A) (B) (B) (A) (B)
                 (A) (B) (A) (B) (B) (B) (A) (A) (B) (A) (B) (A)
                 (B) (B) (B) (A) (A) (B) (A) (B) (B) (A) (A) (B)
                 (A) (B) (B) (A) (A) (B) (B) (A) (A) (A) (B) (B)
                 (A) (B) (A) (B) (A) (A) (B) (A) (A) (B) (B) (A)
                 (A) (B) (B) (A) (B) (A) (B) (A) (A) (B) (A) (B)
                 (B) (B) (A) (B) (A) (A) (B) (A) (B) (A) (B) (B)
                 (A) (A) (B) (A) (B) (A) (A) (A) (A) (B) (B) (B)
                 (B) (A) (B) (A) (B) (A) (A) (B) (B) (B) (A) (A)
                 (B) (B) (A) (B) (A) (A) (B) (B) (A) (A) (B) (B)
                 (A) (A) (A) (B) (B) (A) (B) (A) (B) (B) (A) (A)
                 (A) (B) (B) (A) (B) (B) (A) (B) (A) (B) (A) (B)
                 (A) (B) (A) (B) (A) (A) (A) (B) (A) (B) (B) (B)
                 (B) (A) (B) (B) (A) (B) (A) (A) (B) (A) (B) (A)
                 (B) (A) (B) (A) (A) (A) (B) (A) (B) (A) (A) (B)
                 (B) (A) (A) (B) (B) (A)
 Beta  Orbitals:
       Occupied  (A) (A) (B) (B) (A) (A) (A) (B) (B) (A) (A) (B)
                 (B) (A) (B)
       Virtual   (A) (B) (A) (A) (B) (A) (B) (A) (B) (A) (B) (A)
                 (B) (A) (A) (B) (A) (B) (A) (A) (B) (A) (B) (B)
                 (A) (B) (A) (B) (A) (B) (B) (B) (A) (A) (B) (A)
                 (B) (A) (B) (B) (B) (A) (A) (B) (A) (B) (B) (A)
                 (A) (B) (A) (B) (B) (A) (A) (B) (B) (A) (A) (A)
                 (B) (B) (A) (B) (A) (B) (A) (A) (B) (A) (A) (B)
                 (B) (A) (A) (B) (B) (A) (B) (A) (B) (A) (A) (B)
                 (A) (B) (B) (B) (A) (B) (A) (A) (B) (A) (B) (A)
                 (B) (B) (A) (A) (B) (A) (B) (A) (A) (A) (A) (B)
                 (B) (B) (B) (A) (B) (A) (B) (A) (A) (B) (B) (B)
                 (A) (A) (B) (B) (A) (B) (A) (A) (B) (B) (A) (A)
                 (B) (B) (A) (A) (A) (B) (B) (A) (B) (A) (B) (B)
                 (A) (A) (A) (B) (B) (A) (B) (B) (A) (B) (A) (B)
                 (A) (B) (A) (B) (A) (B) (A) (A) (A) (B) (A) (B)
                 (B) (B) (B) (A) (B) (B) (A) (B) (A) (A) (B) (A)
                 (B) (A) (B) (A) (B) (A) (A) (A) (B) (A) (B) (A)
                 (A) (B) (B) (A) (A) (B) (B) (A)
 The electronic state of the initial guess is 3-B.
 Initial guess <Sx>= 0.0000 <Sy>= 0.0000 <Sz>= 1.0000 <S**2>= 2.0000 S= 1.0000
 Leave Link  401 at Tue Jul 19 07:18:05 2016, MaxMem=    33554432 cpu:         4.1
 (Enter /home/proyectos/fulerenos/M3C-v2.0/M3C-deps_CCC/g09-AM64L-G09RevC.01/l502.exe)
 UHF open shell SCF:
 Using DIIS extrapolation, IDIIS=  1040.
 Integral symmetry usage will be decided dynamically.
 IVT=      202127 IEndB=      202127 NGot=    33554432 MDV=    33429216
 LenX=    33429216 LenY=    33368750
 Requested convergence on RMS density matrix=1.00D-08 within 128 cycles.
 Requested convergence on MAX density matrix=1.00D-06.
 Requested convergence on             energy=1.00D-06.
 No special actions if energy rises.
 Fock matrices will be formed incrementally for  20 cycles.

 Cycle   1  Pass 1  IDiag  1:
 FoFJK:  IHMeth= 1 ICntrl=       0 DoSepK=F KAlg= 0 I1Cent=   0 FoldK=F
 IRaf= 990000000 NMat=   1 IRICut=       1 DoRegI=T DoRafI=F ISym2E= 1.
 FoFCou: FMM=F IPFlag=           0 FMFlag=      100000 FMFlg1=           0
         NFxFlg=           0 DoJE=F BraDBF=F KetDBF=F FulRan=T
         wScrn=  0.000000 ICntrl=       0 IOpCl=  1 I1Cent=           0 NGrid=           0
         NMat0=    1 NMatS0=      1 NMatT0=    0 NMatD0=    1 NMtDS0=    0 NMtDT0=    0
 Petite list used in FoFCou.
 E= -191.333404744175    
 DIIS: error= 2.64D-02 at cycle   1 NSaved=   1.
 NSaved= 1 IEnMin= 1 EnMin= -191.333404744175     IErMin= 1 ErrMin= 2.64D-02
 ErrMax= 2.64D-02  0.00D+00 EMaxC= 1.00D-01 BMatC= 4.87D-01 BMatP= 4.87D-01
 IDIUse=3 WtCom= 7.36D-01 WtEn= 2.64D-01
 Coeff-Com:  0.100D+01
 Coeff-En:   0.100D+01
 Coeff:      0.100D+01
 Gap=     0.047 Goal=   None    Shift=    0.000
 Gap=     0.051 Goal=   None    Shift=    0.000
 GapD=    0.047 DampG=0.250 DampE=0.500 DampFc=0.2500 IDamp=-1.
 Damping current iteration by 2.50D-01
 RMSDP=4.96D-03 MaxDP=2.66D-01              OVMax= 2.31D-01

 Cycle   2  Pass 1  IDiag  1:
 RMSU=  1.19D-03    CP:  9.80D-01
 E= -191.376098743690     Delta-E=       -0.042693999516 Rises=F Damp=T
 DIIS: error= 1.25D-02 at cycle   2 NSaved=   2.
 NSaved= 2 IEnMin= 2 EnMin= -191.376098743690     IErMin= 2 ErrMin= 1.25D-02
 ErrMax= 1.25D-02  0.00D+00 EMaxC= 1.00D-01 BMatC= 1.29D-01 BMatP= 4.87D-01
 IDIUse=3 WtCom= 8.75D-01 WtEn= 1.25D-01
 Coeff-Com: -0.855D+00 0.185D+01
 Coeff-En:   0.000D+00 0.100D+01
 Coeff:     -0.748D+00 0.175D+01
 Gap=     0.084 Goal=   None    Shift=    0.000
 Gap=     0.120 Goal=   None    Shift=    0.000
 RMSDP=1.88D-03 MaxDP=1.27D-01 DE=-4.27D-02 OVMax= 1.24D-01

 Cycle   3  Pass 1  IDiag  1:
 RMSU=  1.43D-03    CP:  9.27D-01  1.70D+00
 E= -191.456161775687     Delta-E=       -0.080063031997 Rises=F Damp=F
 DIIS: error= 7.15D-03 at cycle   3 NSaved=   3.
 NSaved= 3 IEnMin= 3 EnMin= -191.456161775687     IErMin= 3 ErrMin= 7.15D-03
 ErrMax= 7.15D-03  0.00D+00 EMaxC= 1.00D-01 BMatC= 1.28D-02 BMatP= 1.29D-01
 IDIUse=3 WtCom= 9.29D-01 WtEn= 7.15D-02
 Coeff-Com: -0.342D+00 0.674D+00 0.668D+00
 Coeff-En:   0.000D+00 0.000D+00 0.100D+01
 Coeff:     -0.318D+00 0.626D+00 0.692D+00
 Gap=     0.087 Goal=   None    Shift=    0.000
 Gap=     0.108 Goal=   None    Shift=    0.000
 RMSDP=1.06D-03 MaxDP=9.06D-02 DE=-8.01D-02 OVMax= 8.17D-02

 Cycle   4  Pass 1  IDiag  1:
 RMSU=  1.03D-03    CP:  9.27D-01  1.78D+00  8.40D-01
 E= -191.459648441101     Delta-E=       -0.003486665414 Rises=F Damp=F
 DIIS: error= 8.36D-03 at cycle   4 NSaved=   4.
 NSaved= 4 IEnMin= 4 EnMin= -191.459648441101     IErMin= 3 ErrMin= 7.15D-03
 ErrMax= 8.36D-03  0.00D+00 EMaxC= 1.00D-01 BMatC= 9.81D-03 BMatP= 1.28D-02
 IDIUse=3 WtCom= 9.16D-01 WtEn= 8.36D-02
 Coeff-Com: -0.128D+00 0.222D+00 0.468D+00 0.438D+00
 Coeff-En:   0.000D+00 0.000D+00 0.174D+00 0.826D+00
 Coeff:     -0.117D+00 0.203D+00 0.443D+00 0.470D+00
 Gap=     0.102 Goal=   None    Shift=    0.000
 Gap=     0.107 Goal=   None    Shift=    0.000
 RMSDP=4.75D-04 MaxDP=4.02D-02 DE=-3.49D-03 OVMax= 5.92D-02

 Cycle   5  Pass 1  IDiag  1:
 RMSU=  4.42D-04    CP:  9.25D-01  1.74D+00  9.48D-01  1.05D+00
 E= -191.463209886261     Delta-E=       -0.003561445160 Rises=F Damp=F
 DIIS: error= 3.69D-03 at cycle   5 NSaved=   5.
 NSaved= 5 IEnMin= 5 EnMin= -191.463209886261     IErMin= 5 ErrMin= 3.69D-03
 ErrMax= 3.69D-03  0.00D+00 EMaxC= 1.00D-01 BMatC= 1.84D-03 BMatP= 9.81D-03
 IDIUse=3 WtCom= 9.63D-01 WtEn= 3.69D-02
 Coeff-Com:  0.759D-02-0.335D-01 0.884D-01 0.282D+00 0.656D+00
 Coeff-En:   0.000D+00 0.000D+00 0.000D+00 0.000D+00 0.100D+01
 Coeff:      0.731D-02-0.323D-01 0.851D-01 0.272D+00 0.668D+00
 Gap=     0.105 Goal=   None    Shift=    0.000
 Gap=     0.111 Goal=   None    Shift=    0.000
 RMSDP=4.91D-04 MaxDP=6.34D-02 DE=-3.56D-03 OVMax= 5.63D-02

 Cycle   6  Pass 1  IDiag  1:
 RMSU=  2.78D-04    CP:  9.27D-01  1.88D+00  1.04D+00  1.38D+00  1.02D+00
 E= -191.464959932368     Delta-E=       -0.001750046107 Rises=F Damp=F
 DIIS: error= 2.16D-03 at cycle   6 NSaved=   6.
 NSaved= 6 IEnMin= 6 EnMin= -191.464959932368     IErMin= 6 ErrMin= 2.16D-03
 ErrMax= 2.16D-03  0.00D+00 EMaxC= 1.00D-01 BMatC= 7.61D-04 BMatP= 1.84D-03
 IDIUse=3 WtCom= 9.78D-01 WtEn= 2.16D-02
 Coeff-Com:  0.571D-01-0.105D+00-0.219D+00-0.158D+00 0.406D+00 0.102D+01
 Coeff-En:   0.000D+00 0.000D+00 0.000D+00 0.000D+00 0.000D+00 0.100D+01
 Coeff:      0.559D-01-0.102D+00-0.214D+00-0.155D+00 0.397D+00 0.102D+01
 Gap=     0.117 Goal=   None    Shift=    0.000
 Gap=     0.112 Goal=   None    Shift=    0.000
 RMSDP=6.74D-04 MaxDP=6.03D-02 DE=-1.75D-03 OVMax= 5.35D-02

 Cycle   7  Pass 1  IDiag  1:
 RMSU=  1.46D-04    CP:  9.31D-01  1.95D+00  1.07D+00  1.94D+00  1.56D+00
                    CP:  1.66D+00
 E= -191.466315064656     Delta-E=       -0.001355132289 Rises=F Damp=F
 DIIS: error= 8.40D-04 at cycle   7 NSaved=   7.
 NSaved= 7 IEnMin= 7 EnMin= -191.466315064656     IErMin= 7 ErrMin= 8.40D-04
 ErrMax= 8.40D-04  0.00D+00 EMaxC= 1.00D-01 BMatC= 1.21D-04 BMatP= 7.61D-04
 IDIUse=3 WtCom= 9.92D-01 WtEn= 8.40D-03
 Coeff-Com:  0.363D-02 0.472D-02-0.762D-01-0.188D+00-0.117D+00 0.125D+00
 Coeff-Com:  0.125D+01
 Coeff-En:   0.000D+00 0.000D+00 0.000D+00 0.000D+00 0.000D+00 0.000D+00
 Coeff-En:   0.100D+01
 Coeff:      0.360D-02 0.468D-02-0.756D-01-0.186D+00-0.116D+00 0.124D+00
 Coeff:      0.125D+01
 Gap=     0.125 Goal=   None    Shift=    0.000
 Gap=     0.114 Goal=   None    Shift=    0.000
 RMSDP=4.75D-04 MaxDP=4.82D-02 DE=-1.36D-03 OVMax= 3.93D-02

 Cycle   8  Pass 1  IDiag  1:
 RMSU=  3.76D-05    CP:  9.34D-01  2.01D+00  1.09D+00  2.31D+00  1.90D+00
                    CP:  2.34D+00  1.66D+00
 E= -191.466579856618     Delta-E=       -0.000264791962 Rises=F Damp=F
 DIIS: error= 1.55D-04 at cycle   8 NSaved=   8.
 NSaved= 8 IEnMin= 8 EnMin= -191.466579856618     IErMin= 8 ErrMin= 1.55D-04
 ErrMax= 1.55D-04  0.00D+00 EMaxC= 1.00D-01 BMatC= 5.75D-06 BMatP= 1.21D-04
 IDIUse=3 WtCom= 9.98D-01 WtEn= 1.55D-03
 Coeff-Com: -0.569D-02 0.861D-02 0.187D-01 0.216D-01 0.345D-01-0.680D-01
 Coeff-Com: -0.315D-01 0.102D+01
 Coeff-En:   0.000D+00 0.000D+00 0.000D+00 0.000D+00 0.000D+00 0.000D+00
 Coeff-En:   0.000D+00 0.100D+01
 Coeff:     -0.568D-02 0.860D-02 0.187D-01 0.216D-01 0.345D-01-0.679D-01
 Coeff:     -0.315D-01 0.102D+01
 Gap=     0.124 Goal=   None    Shift=    0.000
 Gap=     0.113 Goal=   None    Shift=    0.000
 RMSDP=5.34D-05 MaxDP=5.45D-03 DE=-2.65D-04 OVMax= 4.92D-03

 Cycle   9  Pass 1  IDiag  1:
 RMSU=  1.31D-05    CP:  9.34D-01  2.00D+00  1.08D+00  2.27D+00  1.87D+00
                    CP:  2.28D+00  1.59D+00  8.56D-01
 E= -191.466582321635     Delta-E=       -0.000002465017 Rises=F Damp=F
 DIIS: error= 6.53D-05 at cycle   9 NSaved=   9.
 NSaved= 9 IEnMin= 9 EnMin= -191.466582321635     IErMin= 9 ErrMin= 6.53D-05
 ErrMax= 6.53D-05  0.00D+00 EMaxC= 1.00D-01 BMatC= 4.94D-07 BMatP= 5.75D-06
 IDIUse=1 WtCom= 1.00D+00 WtEn= 0.00D+00
 Coeff-Com: -0.130D-02 0.182D-02 0.536D-02 0.772D-02 0.336D-02-0.188D-01
 Coeff-Com: -0.442D-01 0.228D+00 0.819D+00
 Coeff:     -0.130D-02 0.182D-02 0.536D-02 0.772D-02 0.336D-02-0.188D-01
 Coeff:     -0.442D-01 0.228D+00 0.819D+00
 Gap=     0.125 Goal=   None    Shift=    0.000
 Gap=     0.113 Goal=   None    Shift=    0.000
 RMSDP=1.98D-05 MaxDP=2.16D-03 DE=-2.47D-06 OVMax= 1.69D-03

 Cycle  10  Pass 1  IDiag  1:
 RMSU=  2.77D-06    CP:  9.34D-01  2.01D+00  1.08D+00  2.29D+00  1.88D+00
                    CP:  2.30D+00  1.63D+00  9.26D-01  9.82D-01
 E= -191.466583149831     Delta-E=       -0.000000828196 Rises=F Damp=F
 DIIS: error= 1.08D-05 at cycle  10 NSaved=  10.
 NSaved=10 IEnMin=10 EnMin= -191.466583149831     IErMin=10 ErrMin= 1.08D-05
 ErrMax= 1.08D-05  0.00D+00 EMaxC= 1.00D-01 BMatC= 3.14D-08 BMatP= 4.94D-07
 IDIUse=1 WtCom= 1.00D+00 WtEn= 0.00D+00
 Coeff-Com: -0.158D-03 0.151D-03 0.105D-02 0.145D-02-0.136D-02-0.296D-02
 Coeff-Com: -0.159D-01-0.149D-01 0.398D-01 0.993D+00
 Coeff:     -0.158D-03 0.151D-03 0.105D-02 0.145D-02-0.136D-02-0.296D-02
 Coeff:     -0.159D-01-0.149D-01 0.398D-01 0.993D+00
 Gap=     0.125 Goal=   None    Shift=    0.000
 Gap=     0.113 Goal=   None    Shift=    0.000
 RMSDP=5.38D-06 MaxDP=5.78D-04 DE=-8.28D-07 OVMax= 4.59D-04

 Cycle  11  Pass 1  IDiag  1:
 RMSU=  8.84D-07    CP:  9.34D-01  2.01D+00  1.08D+00  2.29D+00  1.89D+00
                    CP:  2.31D+00  1.64D+00  9.41D-01  9.98D-01  1.18D+00
 E= -191.466583201741     Delta-E=       -0.000000051910 Rises=F Damp=F
 DIIS: error= 1.78D-06 at cycle  11 NSaved=  11.
 NSaved=11 IEnMin=11 EnMin= -191.466583201741     IErMin=11 ErrMin= 1.78D-06
 ErrMax= 1.78D-06  0.00D+00 EMaxC= 1.00D-01 BMatC= 1.28D-09 BMatP= 3.14D-08
 IDIUse=1 WtCom= 1.00D+00 WtEn= 0.00D+00
 Coeff-Com:  0.813D-04-0.120D-03-0.272D-03-0.266D-03-0.279D-03 0.891D-03
 Coeff-Com:  0.323D-02-0.126D-01-0.486D-01-0.383D-01 0.110D+01
 Coeff:      0.813D-04-0.120D-03-0.272D-03-0.266D-03-0.279D-03 0.891D-03
 Coeff:      0.323D-02-0.126D-01-0.486D-01-0.383D-01 0.110D+01
 Gap=     0.125 Goal=   None    Shift=    0.000
 Gap=     0.113 Goal=   None    Shift=    0.000
 RMSDP=5.34D-07 MaxDP=6.05D-05 DE=-5.19D-08 OVMax= 2.23D-05

 Cycle  12  Pass 1  IDiag  1:
 RMSU=  1.91D-07    CP:  9.34D-01  2.01D+00  1.08D+00  2.29D+00  1.89D+00
                    CP:  2.31D+00  1.64D+00  9.44D-01  1.00D+00  1.26D+00
                    CP:  1.18D+00
 E= -191.466583202484     Delta-E=       -0.000000000744 Rises=F Damp=F
 DIIS: error= 6.23D-07 at cycle  12 NSaved=  12.
 NSaved=12 IEnMin=12 EnMin= -191.466583202484     IErMin=12 ErrMin= 6.23D-07
 ErrMax= 6.23D-07  0.00D+00 EMaxC= 1.00D-01 BMatC= 1.20D-10 BMatP= 1.28D-09
 IDIUse=1 WtCom= 1.00D+00 WtEn= 0.00D+00
 Coeff-Com:  0.207D-04-0.263D-04-0.396D-05-0.800D-05 0.125D-03 0.206D-03
 Coeff-Com:  0.529D-03 0.109D-02 0.254D-02-0.562D-01 0.431D-01 0.101D+01
 Coeff:      0.207D-04-0.263D-04-0.396D-05-0.800D-05 0.125D-03 0.206D-03
 Coeff:      0.529D-03 0.109D-02 0.254D-02-0.562D-01 0.431D-01 0.101D+01
 Gap=     0.125 Goal=   None    Shift=    0.000
 Gap=     0.113 Goal=   None    Shift=    0.000
 RMSDP=3.49D-07 MaxDP=3.03D-05 DE=-7.44D-10 OVMax= 2.96D-05

 Cycle  13  Pass 1  IDiag  1:
 RMSU=  4.48D-08    CP:  9.34D-01  2.01D+00  1.08D+00  2.29D+00  1.89D+00
                    CP:  2.31D+00  1.64D+00  9.44D-01  1.00D+00  1.26D+00
                    CP:  1.23D+00  1.13D+00
 E= -191.466583202616     Delta-E=       -0.000000000131 Rises=F Damp=F
 DIIS: error= 1.83D-07 at cycle  13 NSaved=  13.
 NSaved=13 IEnMin=13 EnMin= -191.466583202616     IErMin=13 ErrMin= 1.83D-07
 ErrMax= 1.83D-07  0.00D+00 EMaxC= 1.00D-01 BMatC= 6.65D-12 BMatP= 1.20D-10
 IDIUse=1 WtCom= 1.00D+00 WtEn= 0.00D+00
 Coeff-Com:  0.369D-06 0.555D-06 0.139D-06-0.320D-05-0.284D-04-0.459D-04
 Coeff-Com:  0.488D-04 0.376D-03 0.138D-03 0.138D-02-0.478D-01-0.365D-01
 Coeff-Com:  0.108D+01
 Coeff:      0.369D-06 0.555D-06 0.139D-06-0.320D-05-0.284D-04-0.459D-04
 Coeff:      0.488D-04 0.376D-03 0.138D-03 0.138D-02-0.478D-01-0.365D-01
 Coeff:      0.108D+01
 Gap=     0.125 Goal=   None    Shift=    0.000
 Gap=     0.113 Goal=   None    Shift=    0.000
 RMSDP=7.05D-08 MaxDP=8.05D-06 DE=-1.31D-10 OVMax= 4.59D-06

 Cycle  14  Pass 1  IDiag  1:
 RMSU=  9.05D-09    CP:  9.34D-01  2.01D+00  1.08D+00  2.29D+00  1.89D+00
                    CP:  2.31D+00  1.64D+00  9.44D-01  1.00D+00  1.27D+00
                    CP:  1.24D+00  1.19D+00  1.19D+00
 E= -191.466583202622     Delta-E=       -0.000000000006 Rises=F Damp=F
 DIIS: error= 2.06D-08 at cycle  14 NSaved=  14.
 NSaved=14 IEnMin=14 EnMin= -191.466583202622     IErMin=14 ErrMin= 2.06D-08
 ErrMax= 2.06D-08  0.00D+00 EMaxC= 1.00D-01 BMatC= 2.19D-13 BMatP= 6.65D-12
 IDIUse=1 WtCom= 1.00D+00 WtEn= 0.00D+00
 Coeff-Com: -0.151D-05 0.201D-05 0.454D-05 0.796D-05-0.399D-05-0.202D-04
 Coeff-Com: -0.428D-04 0.935D-04 0.192D-03 0.195D-02-0.890D-02-0.367D-01
 Coeff-Com:  0.124D+00 0.920D+00
 Coeff:     -0.151D-05 0.201D-05 0.454D-05 0.796D-05-0.399D-05-0.202D-04
 Coeff:     -0.428D-04 0.935D-04 0.192D-03 0.195D-02-0.890D-02-0.367D-01
 Coeff:      0.124D+00 0.920D+00
 Gap=     0.125 Goal=   None    Shift=    0.000
 Gap=     0.113 Goal=   None    Shift=    0.000
 RMSDP=1.02D-08 MaxDP=9.03D-07 DE=-6.20D-12 OVMax= 9.58D-07

 Cycle  15  Pass 1  IDiag  1:
 RMSU=  1.75D-09    CP:  9.34D-01  2.01D+00  1.08D+00  2.29D+00  1.89D+00
                    CP:  2.31D+00  1.64D+00  9.44D-01  1.00D+00  1.27D+00
                    CP:  1.24D+00  1.20D+00  1.25D+00  1.03D+00
 E= -191.466583202623     Delta-E=       -0.000000000001 Rises=F Damp=F
 DIIS: error= 8.15D-09 at cycle  15 NSaved=  15.
 NSaved=15 IEnMin=15 EnMin= -191.466583202623     IErMin=15 ErrMin= 8.15D-09
 ErrMax= 8.15D-09  0.00D+00 EMaxC= 1.00D-01 BMatC= 1.47D-14 BMatP= 2.19D-13
 IDIUse=1 WtCom= 1.00D+00 WtEn= 0.00D+00
 Coeff-Com: -0.107D-06 0.115D-06-0.865D-08-0.676D-07-0.787D-06 0.257D-05
 Coeff-Com:  0.448D-06-0.254D-04-0.564D-04 0.141D-03 0.246D-02-0.755D-03
 Coeff-Com: -0.568D-01 0.818D-01 0.973D+00
 Coeff:     -0.107D-06 0.115D-06-0.865D-08-0.676D-07-0.787D-06 0.257D-05
 Coeff:      0.448D-06-0.254D-04-0.564D-04 0.141D-03 0.246D-02-0.755D-03
 Coeff:     -0.568D-01 0.818D-01 0.973D+00
 Gap=     0.125 Goal=   None    Shift=    0.000
 Gap=     0.113 Goal=   None    Shift=    0.000
 RMSDP=1.82D-09 MaxDP=2.02D-07 DE=-6.82D-13 OVMax= 1.36D-07

 SCF Done:  E(UB3LYP) =  -191.466583203     A.U. after   15 cycles
            NFock= 15  Conv=0.18D-08     -V/T= 2.0044
 <Sx>= 0.0000 <Sy>= 0.0000 <Sz>= 1.0000 <S**2>= 2.4209 S= 1.1343
 <L.S>= 0.000000000000E+00
 KE= 1.906308644195D+02 PE=-6.969019041196D+02 EE= 1.883988902834D+02
 Annihilation of the first spin contaminant:
 S**2 before annihilation     2.4209,   after     2.0218
 Leave Link  502 at Tue Jul 19 07:22:46 2016, MaxMem=    33554432 cpu:       280.3
 (Enter /home/proyectos/fulerenos/M3C-v2.0/M3C-deps_CCC/g09-AM64L-G09RevC.01/l801.exe)
 DoSCS=F DFT=T ScalE2(SS,OS)=  1.000000  1.000000
 Range of M.O.s used for correlation:     1   215
 NBasis=   215 NAE=    17 NBE=    15 NFC=     0 NFV=     0
 NROrb=    215 NOA=    17 NOB=    15 NVA=   198 NVB=   200

 **** Warning!!: The largest alpha MO coefficient is  0.11620958D+03


 **** Warning!!: The largest beta MO coefficient is  0.12969184D+03

 Leave Link  801 at Tue Jul 19 07:22:46 2016, MaxMem=    33554432 cpu:         0.1
 (Enter /home/proyectos/fulerenos/M3C-v2.0/M3C-deps_CCC/g09-AM64L-G09RevC.01/l1101.exe)
 Using compressed storage, NAtomX=     7.
 Will process      8 centers per pass.
 Leave Link 1101 at Tue Jul 19 07:22:46 2016, MaxMem=    33554432 cpu:         0.5
 (Enter /home/proyectos/fulerenos/M3C-v2.0/M3C-deps_CCC/g09-AM64L-G09RevC.01/l1102.exe)
 Symmetrizing basis deriv contribution to polar:
 IMax=3 JMax=2 DiffMx= 0.00D+00
 Leave Link 1102 at Tue Jul 19 07:22:46 2016, MaxMem=    33554432 cpu:         0.1
 (Enter /home/proyectos/fulerenos/M3C-v2.0/M3C-deps_CCC/g09-AM64L-G09RevC.01/l1110.exe)
 Forming Gx(P) for the SCF density, NAtomX=     7.
 Integral derivatives from FoFJK, PRISM(SPDF).
 Do as many integral derivatives as possible in FoFJK.
 G2DrvN: MDV=      33554272.
 G2DrvN: will do     8 centers at a time, making    1 passes.
 Calling FoFCou, ICntrl=  3107 FMM=F I1Cent=   0 AccDes= 0.00D+00.
 FoFJK:  IHMeth= 1 ICntrl=    3107 DoSepK=F KAlg= 0 I1Cent=   0 FoldK=F
 IRaf=         0 NMat=   1 IRICut=       1 DoRegI=T DoRafI=F ISym2E= 1.
 FoFCou: FMM=F IPFlag=           0 FMFlag=      100000 FMFlg1=           0
         NFxFlg=           0 DoJE=F BraDBF=F KetDBF=F FulRan=T
         wScrn=  0.000000 ICntrl=    3107 IOpCl=  1 I1Cent=           0 NGrid=           0
         NMat0=    1 NMatS0=      1 NMatT0=    0 NMatD0=    1 NMtDS0=    0 NMtDT0=    0
 Petite list used in FoFCou.
 End of G2Drv F.D. properties file   721 does not exist.
 End of G2Drv F.D. properties file   722 does not exist.
 End of G2Drv F.D. properties file   788 does not exist.
 Leave Link 1110 at Tue Jul 19 07:26:02 2016, MaxMem=    33554432 cpu:       195.7
 (Enter /home/proyectos/fulerenos/M3C-v2.0/M3C-deps_CCC/g09-AM64L-G09RevC.01/l1002.exe)
 Minotr:  UHF open shell wavefunction.
          IDoAtm=1111111
          Direct CPHF calculation.
          Differentiating once with respect to electric field.
                with respect to dipole field.
          Differentiating once with respect to nuclear coordinates.
          Using symmetry in CPHF.
          Requested convergence is 1.0D-08 RMS, and 1.0D-07 maximum.
          Secondary convergence is 1.0D-12 RMS, and 1.0D-12 maximum.
          NewPWx=T KeepS1=F KeepF1=F KeepIn=T MapXYZ=F SortEE=F KeepMc=T.
          MDV=      33553928 using IRadAn=       2.
 Generate precomputed XC quadrature information.
          Solving linear equations simultaneously, MaxMat=       0.
 FoFJK:  IHMeth= 1 ICntrl=       0 DoSepK=F KAlg= 0 I1Cent=   0 FoldK=F
 IRaf= 990000000 NMat=  15 IRICut=      37 DoRegI=T DoRafI=T ISym2E= 2.
 FoFCou: FMM=F IPFlag=           0 FMFlag=      100000 FMFlg1=           0
         NFxFlg=           0 DoJE=F BraDBF=F KetDBF=F FulRan=T
         wScrn=  0.000000 ICntrl=       0 IOpCl=  1 I1Cent=           0 NGrid=           0
         NMat0=   15 NMatS0=     15 NMatT0=    0 NMatD0=   15 NMtDS0=    0 NMtDT0=    0
 Integrals replicated using symmetry in FoFCou.
          There are    15 degrees of freedom in the 1st order CPHF.  IDoFFX=4 NUNeed=    15.
     15 vectors produced by pass  0 Test12= 4.24D-14 6.67D-09 XBig12= 2.22D+02 6.40D+00.
 AX will form    15 AO Fock derivatives at one time.
     15 vectors produced by pass  1 Test12= 4.24D-14 6.67D-09 XBig12= 1.28D+02 3.78D+00.
     15 vectors produced by pass  2 Test12= 4.24D-14 6.67D-09 XBig12= 8.05D+00 1.25D+00.
     15 vectors produced by pass  3 Test12= 4.24D-14 6.67D-09 XBig12= 3.48D-01 1.54D-01.
     15 vectors produced by pass  4 Test12= 4.24D-14 6.67D-09 XBig12= 5.42D-03 1.31D-02.
     15 vectors produced by pass  5 Test12= 4.24D-14 6.67D-09 XBig12= 4.83D-05 1.25D-03.
     15 vectors produced by pass  6 Test12= 4.24D-14 6.67D-09 XBig12= 3.93D-07 1.25D-04.
     14 vectors produced by pass  7 Test12= 4.24D-14 6.67D-09 XBig12= 3.30D-09 6.65D-06.
      7 vectors produced by pass  8 Test12= 4.24D-14 6.67D-09 XBig12= 1.62D-11 5.06D-07.
      4 vectors produced by pass  9 Test12= 4.24D-14 6.67D-09 XBig12= 2.14D-13 1.42D-07.
      3 vectors produced by pass 10 Test12= 4.24D-14 6.67D-09 XBig12= 6.30D-14 8.39D-08.
      2 vectors produced by pass 11 Test12= 4.24D-14 6.67D-09 XBig12= 3.94D-15 2.42D-08.
 InvSVY:  IOpt=1 It=  1 EMax= 8.88D-15
 Solved reduced A of dimension   135 with    15 vectors.
 FullF1:  Do perturbations    1 to    15.
 Isotropic polarizability for W=    0.000000       52.43 Bohr**3.
 End of Minotr F.D. properties file   721 does not exist.
 End of Minotr F.D. properties file   722 does not exist.
 End of Minotr F.D. properties file   788 does not exist.
 Leave Link 1002 at Tue Jul 19 07:57:03 2016, MaxMem=    33554432 cpu:      1291.6
 (Enter /home/proyectos/fulerenos/M3C-v2.0/M3C-deps_CCC/g09-AM64L-G09RevC.01/l601.exe)
 Copying SCF densities to generalized density rwf, IOpCl= 1 IROHF=0.

 **********************************************************************

            Population analysis using the SCF density.

 **********************************************************************

 Orbital symmetries:
 Alpha Orbitals:
       Occupied  (B) (A) (A) (B) (A) (A) (A) (B) (B) (A) (A) (B)
                 (B) (A) (B) (A) (B)
       Virtual   (A) (A) (A) (B) (A) (B) (B) (B) (A) (A) (B) (A)
                 (B) (A) (A) (B) (A) (A) (B) (B) (A) (B) (A) (B)
                 (B) (A) (B) (A) (B) (B) (A) (A) (B) (A) (B) (A)
                 (B) (B) (A) (B) (A) (A) (B) (B) (B) (A) (A) (A)
                 (B) (B) (A) (A) (B) (A) (B) (A) (B) (B) (A) (B)
                 (A) (B) (A) (B) (A) (B) (A) (A) (A) (B) (B) (A)
                 (A) (B) (B) (B) (A) (B) (A) (A) (A) (B) (B) (A)
                 (A) (B) (B) (A) (B) (A) (B) (A) (B) (A) (B) (B)
                 (A) (B) (A) (A) (B) (A) (A) (A) (A) (B) (B) (B)
                 (B) (A) (A) (B) (B) (A) (A) (B) (B) (B) (A) (A)
                 (B) (B) (A) (B) (A) (A) (B) (B) (A) (B) (A) (B)
                 (A) (A) (B) (A) (B) (A) (B) (B) (A) (B) (A) (A)
                 (A) (B) (B) (A) (B) (B) (A) (A) (B) (B) (A) (B)
                 (A) (B) (A) (A) (B) (A) (A) (B) (A) (B) (B) (B)
                 (B) (A) (B) (A) (B) (B) (A) (A) (B) (A) (B) (B)
                 (A) (B) (A) (A) (A) (A) (B) (A) (B) (A) (A) (B)
                 (B) (A) (A) (B) (B) (A)
 Beta  Orbitals:
       Occupied  (A) (B) (A) (A) (B) (A) (A) (B) (B) (A) (A) (B)
                 (B) (A) (B)
       Virtual   (A) (A) (B) (A) (B) (A) (A) (B) (A) (B) (B) (A)
                 (B) (A) (B) (A) (A) (B) (A) (A) (B) (A) (B) (B)
                 (A) (B) (B) (A) (B) (A) (B) (B) (A) (A) (B) (A)
                 (A) (B) (B) (B) (A) (A) (B) (A) (B) (B) (A) (B)
                 (A) (A) (B) (B) (A) (B) (A) (B) (A) (B) (A) (B)
                 (A) (B) (A) (B) (A) (B) (A) (B) (A) (A) (A) (B)
                 (B) (A) (A) (B) (B) (B) (A) (A) (B) (A) (A) (B)
                 (B) (A) (B) (B) (A) (B) (A) (A) (B) (A) (B) (A)
                 (B) (B) (A) (A) (B) (A) (B) (A) (A) (A) (A) (B)
                 (B) (B) (B) (A) (A) (B) (B) (A) (A) (B) (B) (B)
                 (A) (A) (B) (B) (A) (B) (A) (B) (A) (B) (A) (A)
                 (A) (B) (B) (A) (B) (A) (B) (A) (B) (A) (B) (B)
                 (A) (A) (A) (B) (B) (A) (B) (B) (A) (A) (B) (B)
                 (A) (B) (A) (B) (A) (A) (B) (A) (A) (B) (A) (B)
                 (B) (B) (B) (A) (B) (A) (B) (B) (A) (A) (B) (A)
                 (B) (B) (A) (A) (B) (A) (A) (A) (B) (A) (B) (A)
                 (A) (B) (B) (A) (A) (B) (B) (A)
 The electronic state is 3-B.
 Alpha  occ. eigenvalues --  -10.24250 -10.24241 -10.21505 -10.21449 -10.20299
 Alpha  occ. eigenvalues --   -0.91710  -0.73481  -0.71755  -0.57267  -0.51239
 Alpha  occ. eigenvalues --   -0.49011  -0.42044  -0.41451  -0.34665  -0.27459
 Alpha  occ. eigenvalues --   -0.25968  -0.25899
 Alpha virt. eigenvalues --   -0.13437  -0.00122   0.00929   0.01960   0.04198
 Alpha virt. eigenvalues --    0.05238   0.05457   0.05702   0.06132   0.07703
 Alpha virt. eigenvalues --    0.08973   0.09417   0.10765   0.11718   0.11946
 Alpha virt. eigenvalues --    0.12706   0.14457   0.15013   0.15379   0.15654
 Alpha virt. eigenvalues --    0.15967   0.16441   0.20020   0.20615   0.23030
 Alpha virt. eigenvalues --    0.23797   0.25102   0.26089   0.29377   0.31252
 Alpha virt. eigenvalues --    0.33986   0.35508   0.36946   0.41475   0.42013
 Alpha virt. eigenvalues --    0.43469   0.44027   0.44399   0.44684   0.44933
 Alpha virt. eigenvalues --    0.45511   0.47858   0.48187   0.49572   0.52109
 Alpha virt. eigenvalues --    0.52617   0.53569   0.57077   0.57711   0.59467
 Alpha virt. eigenvalues --    0.62059   0.63564   0.63897   0.65589   0.65793
 Alpha virt. eigenvalues --    0.67873   0.67970   0.68977   0.73269   0.80400
 Alpha virt. eigenvalues --    0.81954   0.83849   0.85000   0.86599   0.87000
 Alpha virt. eigenvalues --    0.89814   0.90186   0.90763   0.97643   1.00720
 Alpha virt. eigenvalues --    1.01996   1.04311   1.08493   1.09979   1.11130
 Alpha virt. eigenvalues --    1.13357   1.15817   1.20816   1.21488   1.23474
 Alpha virt. eigenvalues --    1.28910   1.31906   1.32119   1.33873   1.36058
 Alpha virt. eigenvalues --    1.36666   1.37347   1.47631   1.49062   1.51784
 Alpha virt. eigenvalues --    1.54864   1.60966   1.67162   1.79067   1.80265
 Alpha virt. eigenvalues --    1.83293   1.88022   1.88797   1.89598   1.93622
 Alpha virt. eigenvalues --    1.98162   2.00981   2.08687   2.16045   2.26847
 Alpha virt. eigenvalues --    2.30785   2.36573   2.43580   2.44144   2.47091
 Alpha virt. eigenvalues --    2.53838   2.54761   2.59610   2.70964   2.72626
 Alpha virt. eigenvalues --    2.73990   2.75333   2.79728   2.87004   2.87868
 Alpha virt. eigenvalues --    2.88767   2.91285   2.93919   2.94997   2.97756
 Alpha virt. eigenvalues --    2.99561   3.03983   3.12070   3.18076   3.21140
 Alpha virt. eigenvalues --    3.21379   3.21524   3.21596   3.25479   3.28985
 Alpha virt. eigenvalues --    3.32149   3.32287   3.44248   3.47884   3.63684
 Alpha virt. eigenvalues --    3.64599   3.70315   3.71037   3.81842   3.83809
 Alpha virt. eigenvalues --    3.85151   3.91747   4.03681   4.04905   4.09214
 Alpha virt. eigenvalues --    4.17009   4.18654   4.20935   4.28852   4.34276
 Alpha virt. eigenvalues --    4.44951   4.52268   4.57872   4.58234   4.64843
 Alpha virt. eigenvalues --    4.64925   4.73252   4.83307   4.88604   5.43559
 Alpha virt. eigenvalues --    5.55704   5.94425   6.15362   6.95810   6.98396
 Alpha virt. eigenvalues --    7.07644   7.07746   7.08469   7.09958   7.12100
 Alpha virt. eigenvalues --    7.13244   7.27713   7.38632   7.40080   7.44829
 Alpha virt. eigenvalues --    7.45352   7.46044   7.48512   7.57528   7.58647
 Alpha virt. eigenvalues --    7.72192   7.82950   7.88623   8.13973   8.30045
 Alpha virt. eigenvalues --    8.39898   8.59604   9.31032  23.52398  24.56190
 Alpha virt. eigenvalues --   25.40587  25.57268  26.05641
  Beta  occ. eigenvalues --  -10.22186 -10.22185 -10.21411 -10.21273 -10.21217
  Beta  occ. eigenvalues --   -0.89916  -0.73324  -0.67500  -0.55702  -0.51618
  Beta  occ. eigenvalues --   -0.46134  -0.40309  -0.38652  -0.31339  -0.25481
  Beta virt. eigenvalues --   -0.14145  -0.13380  -0.11387  -0.00066   0.02270
  Beta virt. eigenvalues --    0.04163   0.04248   0.05558   0.06050   0.06517
  Beta virt. eigenvalues --    0.07669   0.07886   0.09031   0.09989   0.11038
  Beta virt. eigenvalues --    0.11835   0.11983   0.12929   0.14906   0.15161
  Beta virt. eigenvalues --    0.15894   0.16387   0.16523   0.16561   0.20422
  Beta virt. eigenvalues --    0.21102   0.23062   0.25197   0.25951   0.26221
  Beta virt. eigenvalues --    0.29912   0.32113   0.34445   0.36245   0.37771
  Beta virt. eigenvalues --    0.41499   0.43188   0.43535   0.44199   0.45250
  Beta virt. eigenvalues --    0.45698   0.47186   0.47226   0.49410   0.49466
  Beta virt. eigenvalues --    0.51227   0.53097   0.53114   0.54467   0.58266
  Beta virt. eigenvalues --    0.58968   0.60210   0.63170   0.64176   0.64589
  Beta virt. eigenvalues --    0.65889   0.67362   0.68601   0.68877   0.69996
  Beta virt. eigenvalues --    0.75146   0.81009   0.82766   0.84421   0.85800
  Beta virt. eigenvalues --    0.87425   0.87717   0.90634   0.90840   0.91483
  Beta virt. eigenvalues --    0.97989   1.01709   1.03041   1.04139   1.08737
  Beta virt. eigenvalues --    1.10148   1.12469   1.13746   1.15934   1.21636
  Beta virt. eigenvalues --    1.22525   1.23730   1.28436   1.34423   1.34597
  Beta virt. eigenvalues --    1.35621   1.37398   1.37598   1.38397   1.48584
  Beta virt. eigenvalues --    1.53107   1.53499   1.55513   1.61863   1.70524
  Beta virt. eigenvalues --    1.78477   1.84441   1.86380   1.88874   1.91214
  Beta virt. eigenvalues --    1.92165   1.94245   2.00791   2.03303   2.11501
  Beta virt. eigenvalues --    2.19709   2.28830   2.32599   2.36182   2.45525
  Beta virt. eigenvalues --    2.45904   2.47532   2.55452   2.55631   2.62328
  Beta virt. eigenvalues --    2.72709   2.75324   2.75480   2.75840   2.81181
  Beta virt. eigenvalues --    2.89376   2.89807   2.90813   2.93333   2.94111
  Beta virt. eigenvalues --    2.95453   2.99853   3.04857   3.05210   3.15487
  Beta virt. eigenvalues --    3.20335   3.22338   3.22613   3.23360   3.23390
  Beta virt. eigenvalues --    3.26904   3.31765   3.34239   3.34727   3.45347
  Beta virt. eigenvalues --    3.49384   3.65030   3.65498   3.71071   3.72640
  Beta virt. eigenvalues --    3.81724   3.83848   3.86763   3.93154   4.06161
  Beta virt. eigenvalues --    4.08060   4.10268   4.17115   4.21327   4.21798
  Beta virt. eigenvalues --    4.29399   4.35034   4.45906   4.53599   4.59097
  Beta virt. eigenvalues --    4.59188   4.66242   4.66351   4.74808   4.84220
  Beta virt. eigenvalues --    4.88856   5.44098   5.56530   5.96229   6.15951
  Beta virt. eigenvalues --    6.99662   7.03616   7.07187   7.08978   7.09017
  Beta virt. eigenvalues --    7.13452   7.15601   7.16196   7.29940   7.40325
  Beta virt. eigenvalues --    7.45472   7.47568   7.47637   7.49033   7.49401
  Beta virt. eigenvalues --    7.57740   7.59975   7.73942   7.85520   7.90530
  Beta virt. eigenvalues --    8.13864   8.31067   8.42142   8.60446   9.32742
  Beta virt. eigenvalues --   23.53324  24.56835  25.40969  25.59559  26.05499
          Condensed to atoms (all electrons):
               1          2          3          4          5          6
     1  C    5.860196  -0.054792   0.299360  -0.092298  -0.175563   0.456271
     2  C   -0.054792   5.860196  -0.175563  -0.092298   0.299360  -0.067458
     3  C    0.299360  -0.175563   7.752010  -0.922506  -0.756832   0.006214
     4  C   -0.092298  -0.092298  -0.922506   7.689220  -0.922506   0.010063
     5  C   -0.175563   0.299360  -0.756832  -0.922506   7.752010  -0.093455
     6  H    0.456271  -0.067458   0.006214   0.010063  -0.093455   0.507035
     7  H   -0.067458   0.456271  -0.093455   0.010063   0.006214   0.006517
               7
     1  C   -0.067458
     2  C    0.456271
     3  C   -0.093455
     4  C    0.010063
     5  C    0.006214
     6  H    0.006517
     7  H    0.507035
          Atomic-Atomic Spin Densities.
               1          2          3          4          5          6
     1  C    0.492950  -0.336054   0.324795   0.097612  -0.510111  -0.003231
     2  C   -0.336054   0.492950  -0.510111   0.097612   0.324795   0.010357
     3  C    0.324795  -0.510111   2.623723  -0.391396  -0.541430  -0.004862
     4  C    0.097612   0.097612  -0.391396  -0.558239  -0.391396   0.004311
     5  C   -0.510111   0.324795  -0.541430  -0.391396   2.623723  -0.001721
     6  H   -0.003231   0.010357  -0.004862   0.004311  -0.001721  -0.011824
     7  H    0.010357  -0.003231  -0.001721   0.004311  -0.004862   0.000247
               7
     1  C    0.010357
     2  C   -0.003231
     3  C   -0.001721
     4  C    0.004311
     5  C   -0.004862
     6  H    0.000247
     7  H   -0.011824
 Mulliken charges and spin densities:
               1          2
     1  C   -0.225716   0.076317
     2  C   -0.225716   0.076317
     3  C   -0.109228   1.498998
     4  C    0.320261  -1.137185
     5  C   -0.109228   1.498998
     6  H    0.174814  -0.006723
     7  H    0.174814  -0.006723
 Sum of Mulliken charges =  -0.00000   2.00000
 Mulliken charges and spin densities with hydrogens summed into heavy atoms:
               1          2
     1  C   -0.050903   0.069594
     2  C   -0.050903   0.069594
     3  C   -0.109228   1.498998
     4  C    0.320261  -1.137185
     5  C   -0.109228   1.498998
 APT charges:
               1
     1  C    0.036489
     2  C    0.036489
     3  C    0.000454
     4  C   -0.222449
     5  C    0.000454
     6  H    0.074281
     7  H    0.074281
 Sum of APT charges =   0.00000
 APT charges with hydrogens summed into heavy atoms:
               1
     1  C    0.110771
     2  C    0.110771
     3  C    0.000454
     4  C   -0.222449
     5  C    0.000454
 Electronic spatial extent (au):  <R**2>=            250.6753
 Charge=             -0.0000 electrons
 Dipole moment (field-independent basis, Debye):
    X=             -0.0000    Y=              0.0000    Z=             -1.0914  Tot=              1.0914
 Quadrupole moment (field-independent basis, Debye-Ang):
   XX=            -30.9354   YY=            -28.6901   ZZ=            -26.6678
   XY=              0.0001   XZ=              0.0000   YZ=             -0.0000
 Traceless Quadrupole moment (field-independent basis, Debye-Ang):
   XX=             -2.1710   YY=              0.0744   ZZ=              2.0967
   XY=              0.0001   XZ=              0.0000   YZ=             -0.0000
 Octapole moment (field-independent basis, Debye-Ang**2):
  XXX=             -0.0000  YYY=              0.0000  ZZZ=             -7.6920  XYY=             -0.0000
  XXY=              0.0000  XXZ=             -0.5193  XZZ=             -0.0000  YZZ=             -0.0000
  YYZ=             -5.9809  XYZ=             -0.0002
 Hexadecapole moment (field-independent basis, Debye-Ang**3):
 XXXX=            -38.4007 YYYY=           -167.7221 ZZZZ=           -172.3001 XXXY=             -0.0012
 XXXZ=             -0.0000 YYYX=             -0.0010 YYYZ=              0.0000 ZZZX=             -0.0000
 ZZZY=             -0.0000 XXYY=            -35.0118 XXZZ=            -40.4704 YYZZ=            -52.6194
 XXYZ=              0.0000 YYXZ=             -0.0000 ZZXY=             -0.0001
 N-N= 1.264055662140D+02 E-N=-6.969019042452D+02  KE= 1.906308644195D+02
 Symmetry A    KE= 1.116345537401D+02
 Symmetry B    KE= 7.899631067943D+01
  Exact polarizability:  35.253   0.001  64.926   0.000  -0.000  57.098
 Approx polarizability:  50.006   0.001 123.897   0.000  -0.000  89.974
                          Isotropic Fermi Contact Couplings
        Atom                 a.u.       MegaHertz       Gauss      10(-4) cm-1
     1  C(13)              0.04397      24.71418       8.81863       8.24376
     2  C(13)              0.04397      24.71418       8.81863       8.24376
     3  C(13)              0.37735     212.10769      75.68529      70.75151
     4  C(13)             -0.18359    -103.19526     -36.82263     -34.42223
     5  C(13)              0.37735     212.10769      75.68529      70.75151
     6  H(1)              -0.00204      -4.55955      -1.62696      -1.52090
     7  H(1)              -0.00204      -4.55955      -1.62696      -1.52090
 --------------------------------------------------------
       Center         ----  Spin Dipole Couplings  ----
                      3XX-RR        3YY-RR        3ZZ-RR
 --------------------------------------------------------
     1   Atom        0.079835     -0.036499     -0.043336
     2   Atom        0.079835     -0.036499     -0.043336
     3   Atom        0.229037      0.405663     -0.634700
     4   Atom       -0.005262      0.618991     -0.613729
     5   Atom        0.229037      0.405663     -0.634700
     6   Atom       -0.015367     -0.014251      0.029618
     7   Atom       -0.015367     -0.014251      0.029618
 --------------------------------------------------------
                        XY            XZ            YZ
 --------------------------------------------------------
     1   Atom       -0.000003      0.000005      0.033887
     2   Atom       -0.000003     -0.000005     -0.033887
     3   Atom        0.000003     -0.000009     -0.435608
     4   Atom        0.000006      0.000000      0.000000
     5   Atom        0.000003      0.000009      0.435608
     6   Atom        0.000000     -0.000001     -0.014410
     7   Atom        0.000000      0.000001      0.014410
 --------------------------------------------------------


 ---------------------------------------------------------------------------------
              Anisotropic Spin Dipole Couplings in Principal Axis System
 ---------------------------------------------------------------------------------

       Atom             a.u.   MegaHertz   Gauss  10(-4) cm-1        Axes

              Baa    -0.0740    -9.927    -3.542    -3.311 -0.0000 -0.6707  0.7417
     1 C(13)  Bbb    -0.0059    -0.786    -0.281    -0.262 -0.0000  0.7417  0.6707
              Bcc     0.0798    10.713     3.823     3.574  1.0000 -0.0000  0.0000
 
              Baa    -0.0740    -9.927    -3.542    -3.311  0.0000  0.6707  0.7417
     2 C(13)  Bbb    -0.0059    -0.786    -0.281    -0.262 -0.0000  0.7417 -0.6707
              Bcc     0.0798    10.713     3.823     3.574  1.0000 -0.0000 -0.0000
 
              Baa    -0.7930  -106.414   -37.971   -35.496  0.0000  0.3416  0.9399
     3 C(13)  Bbb     0.2290    30.735    10.967    10.252  1.0000 -0.0000 -0.0000
              Bcc     0.5640    75.679    27.004    25.244  0.0000  0.9399 -0.3416
 
              Baa    -0.6137   -82.357   -29.387   -27.471 -0.0000 -0.0000  1.0000
     4 C(13)  Bbb    -0.0053    -0.706    -0.252    -0.236  1.0000 -0.0000  0.0000
              Bcc     0.6190    83.063    29.639    27.707  0.0000  1.0000  0.0000
 
              Baa    -0.7930  -106.414   -37.971   -35.496 -0.0000 -0.3416  0.9399
     5 C(13)  Bbb     0.2290    30.735    10.967    10.252  1.0000 -0.0000  0.0000
              Bcc     0.5640    75.679    27.004    25.244  0.0000  0.9399  0.3416
 
              Baa    -0.0186    -9.903    -3.534    -3.303  0.0000  0.9581  0.2866
     6 H(1)   Bbb    -0.0154    -8.199    -2.926    -2.735  1.0000 -0.0000  0.0000
              Bcc     0.0339    18.102     6.459     6.038 -0.0000 -0.2866  0.9581
 
              Baa    -0.0186    -9.903    -3.534    -3.303  0.0000  0.9581 -0.2866
     7 H(1)   Bbb    -0.0154    -8.199    -2.926    -2.735  1.0000 -0.0000 -0.0000
              Bcc     0.0339    18.102     6.459     6.038  0.0000  0.2866  0.9581
 

 ---------------------------------------------------------------------------------

 No NMR shielding tensors so no spin-rotation constants.
 Leave Link  601 at Tue Jul 19 07:57:03 2016, MaxMem=    33554432 cpu:         0.7
 (Enter /home/proyectos/fulerenos/M3C-v2.0/M3C-deps_CCC/g09-AM64L-G09RevC.01/l701.exe)
 Compute integral second derivatives.
 ... and contract with generalized density number  0.
 Leave Link  701 at Tue Jul 19 07:57:04 2016, MaxMem=    33554432 cpu:         0.7
 (Enter /home/proyectos/fulerenos/M3C-v2.0/M3C-deps_CCC/g09-AM64L-G09RevC.01/l702.exe)
 L702 exits ... SP integral derivatives will be done elsewhere.
 Leave Link  702 at Tue Jul 19 07:57:04 2016, MaxMem=    33554432 cpu:         0.0
 (Enter /home/proyectos/fulerenos/M3C-v2.0/M3C-deps_CCC/g09-AM64L-G09RevC.01/l703.exe)
 Compute integral second derivatives, UseDBF=F ICtDFT=           0.
 Integral derivatives from FoFJK, PRISM(SPDF).
 Calling FoFJK, ICntrl=    100127 FMM=F ISym2X=1 I1Cent= 0 IOpClX= 1 NMat=1 NMatS=1 NMatT=0.
 FoFJK:  IHMeth= 1 ICntrl=  100127 DoSepK=F KAlg= 0 I1Cent=   0 FoldK=F
 IRaf=         0 NMat=   1 IRICut=       1 DoRegI=T DoRafI=F ISym2E= 1.
 FoFCou: FMM=F IPFlag=           0 FMFlag=      100000 FMFlg1=         800
         NFxFlg=           0 DoJE=F BraDBF=F KetDBF=F FulRan=T
         wScrn=  0.000000 ICntrl=  100127 IOpCl=  1 I1Cent=           0 NGrid=           0
         NMat0=    1 NMatS0=      1 NMatT0=    0 NMatD0=    1 NMtDS0=    0 NMtDT0=    0
 Petite list used in FoFCou.
 Leave Link  703 at Tue Jul 19 08:04:48 2016, MaxMem=    33554432 cpu:       464.0
 (Enter /home/proyectos/fulerenos/M3C-v2.0/M3C-deps_CCC/g09-AM64L-G09RevC.01/l716.exe)
 Dipole        =-5.40852722D-17-2.48251940D-14-4.29406953D-01
 Polarizability= 3.52532878D+01 5.07149201D-04 6.49260939D+01
                 6.87890902D-09-2.58557828D-08 5.70984606D+01
 Full mass-weighted force constant matrix:
 Low frequencies ---  -16.1326   -7.0815   -0.0009   -0.0005    0.0004   16.4745
 Low frequencies ---  416.1733  535.1263  625.1310
 Diagonal vibrational polarizability:
        3.5975505       0.8101070       1.3136866
 Harmonic frequencies (cm**-1), IR intensities (KM/Mole), Raman scattering
 activities (A**4/AMU), depolarization ratios for plane and unpolarized
 incident light, reduced masses (AMU), force constants (mDyne/A),
 and normal coordinates:
                      1                      2                      3
                      B                      A                      B
 Frequencies --    416.1732               535.1263               625.1309
 Red. masses --     10.0457                 4.8430                10.1213
 Frc consts  --      1.0251                 0.8171                 2.3304
 IR Inten    --      1.1981                 0.0000                 7.8465
  Atom  AN      X      Y      Z        X      Y      Z        X      Y      Z
     1   6     0.12  -0.00   0.00     0.32  -0.00   0.00     0.00   0.32  -0.11
     2   6     0.12  -0.00  -0.00    -0.32   0.00   0.00     0.00   0.32   0.11
     3   6    -0.45   0.00  -0.00     0.26  -0.00  -0.00    -0.00  -0.21   0.47
     4   6     0.62   0.00   0.00     0.00  -0.00   0.00     0.00  -0.27   0.00
     5   6    -0.45   0.00   0.00    -0.26   0.00  -0.00    -0.00  -0.21  -0.47
     6   1     0.30  -0.00   0.00     0.57  -0.00   0.00    -0.00   0.25  -0.16
     7   1     0.30  -0.00  -0.00    -0.57   0.00   0.00    -0.00   0.25   0.16
                      4                      5                      6
                      A                      B                      A
 Frequencies --    668.6497               700.2573               866.2299
 Red. masses --     11.5902                 1.2044                 1.2598
 Frc consts  --      3.0531                 0.3480                 0.5569
 IR Inten    --     13.9459                62.1604                 0.0000
  Atom  AN      X      Y      Z        X      Y      Z        X      Y      Z
     1   6     0.00   0.01  -0.15    -0.09   0.00  -0.00    -0.11   0.00  -0.00
     2   6    -0.00  -0.01  -0.15    -0.09   0.00   0.00     0.11  -0.00  -0.00
     3   6     0.00   0.46  -0.17     0.02  -0.00   0.00     0.00   0.00  -0.00
     4   6    -0.00   0.00   0.65     0.01  -0.00  -0.00    -0.00  -0.00   0.00
     5   6    -0.00  -0.46  -0.17     0.02  -0.00  -0.00    -0.00  -0.00  -0.00
     6   1    -0.00   0.12  -0.06     0.70  -0.00   0.00     0.70  -0.00   0.00
     7   1     0.00  -0.12  -0.06     0.70  -0.00  -0.00    -0.70   0.00   0.00
                      7                      8                      9
                      B                      B                      A
 Frequencies --    954.3177              1008.2780              1059.9743
 Red. masses --      3.9228                 9.6465                 5.9585
 Frc consts  --      2.1049                 5.7780                 3.9444
 IR Inten    --      0.3965                 3.2859                11.0264
  Atom  AN      X      Y      Z        X      Y      Z        X      Y      Z
     1   6    -0.00  -0.07   0.30    -0.00   0.09  -0.15     0.00   0.02   0.33
     2   6    -0.00  -0.07  -0.30    -0.00   0.09   0.15    -0.00  -0.02   0.33
     3   6     0.00  -0.03   0.15     0.00  -0.41  -0.12     0.00   0.14  -0.28
     4   6     0.00   0.16   0.00    -0.00   0.60   0.00     0.00  -0.00  -0.19
     5   6     0.00  -0.03  -0.15     0.00  -0.41   0.12    -0.00  -0.14  -0.28
     6   1    -0.00   0.25   0.55     0.00   0.33   0.04    -0.00   0.18   0.49
     7   1    -0.00   0.25  -0.55     0.00   0.33  -0.04     0.00  -0.18   0.49
                     10                     11                     12
                      A                      B                      A
 Frequencies --   1081.0828              1285.0244              1374.8174
 Red. masses --      1.2452                 1.3707                10.7222
 Frc consts  --      0.8574                 1.3336                11.9406
 IR Inten    --      4.5112                10.3895                 6.1331
  Atom  AN      X      Y      Z        X      Y      Z        X      Y      Z
     1   6     0.00   0.08  -0.05    -0.00  -0.06  -0.10     0.00   0.14   0.05
     2   6    -0.00  -0.08  -0.05    -0.00  -0.06   0.10    -0.00  -0.14   0.05
     3   6    -0.00   0.01   0.04     0.00   0.03   0.01    -0.00  -0.45  -0.31
     4   6     0.00  -0.00  -0.03    -0.00  -0.04  -0.00    -0.00   0.00   0.50
     5   6     0.00  -0.01   0.04     0.00   0.03  -0.01     0.00   0.45  -0.31
     6   1     0.00   0.61   0.34     0.00   0.58   0.39     0.00   0.22   0.10
     7   1    -0.00  -0.61   0.34     0.00   0.58  -0.39    -0.00  -0.22   0.10
                     13                     14                     15
                      A                      B                      A
 Frequencies --   1457.7168              3211.9882              3232.9414
 Red. masses --      4.3510                 1.0861                 1.1014
 Frc consts  --      5.4474                 6.6019                 6.7822
 IR Inten    --      0.0488                 0.6724                 7.1244
  Atom  AN      X      Y      Z        X      Y      Z        X      Y      Z
     1   6     0.00   0.38   0.04     0.00   0.04  -0.05     0.00   0.04  -0.05
     2   6    -0.00  -0.38   0.04     0.00   0.04   0.05    -0.00  -0.04  -0.05
     3   6     0.00   0.05   0.03     0.00   0.00  -0.00     0.00  -0.00   0.00
     4   6    -0.00  -0.00  -0.05     0.00  -0.00   0.00     0.00   0.00   0.00
     5   6    -0.00  -0.05   0.03     0.00   0.00   0.00    -0.00   0.00   0.00
     6   1    -0.00  -0.28  -0.52    -0.00  -0.43   0.56    -0.00  -0.43   0.56
     7   1     0.00   0.28  -0.52    -0.00  -0.43  -0.56     0.00   0.43   0.56

 -------------------
 - Thermochemistry -
 -------------------
 Temperature   298.150 Kelvin.  Pressure   1.00000 Atm.
 Atom     1 has atomic number  6 and mass  12.00000
 Atom     2 has atomic number  6 and mass  12.00000
 Atom     3 has atomic number  6 and mass  12.00000
 Atom     4 has atomic number  6 and mass  12.00000
 Atom     5 has atomic number  6 and mass  12.00000
 Atom     6 has atomic number  1 and mass   1.00783
 Atom     7 has atomic number  1 and mass   1.00783
 Molecular mass:    62.01565 amu.
 Principal axes and moments of inertia in atomic units:
                           1         2         3
     Eigenvalues --   156.42058 181.70237 338.12295
           X            0.00000   0.00002   1.00000
           Y            0.00000   1.00000  -0.00002
           Z            1.00000  -0.00000   0.00000
 This molecule is an asymmetric top.
 Rotational symmetry number  2.
 Rotational temperatures (Kelvin)      0.55372     0.47668     0.25616
 Rotational constants (GHZ):          11.53775     9.93240     5.33753
 Zero-point vibrational energy     110521.2 (Joules/Mol)
                                   26.41521 (Kcal/Mol)
 Warning -- explicit consideration of   2 degrees of freedom as
           vibrations may cause significant error
 Vibrational temperatures:    598.78   769.93   899.42   962.04  1007.51
          (Kelvin)           1246.31  1373.05  1450.69  1525.06  1555.44
                             1848.86  1978.05  2097.33  4621.33  4651.48
 
 Zero-point correction=                           0.042095 (Hartree/Particle)
 Thermal correction to Energy=                    0.046029
 Thermal correction to Enthalpy=                  0.046973
 Thermal correction to Gibbs Free Energy=         0.015622
 Sum of electronic and zero-point Energies=           -191.424488
 Sum of electronic and thermal Energies=              -191.420554
 Sum of electronic and thermal Enthalpies=            -191.419610
 Sum of electronic and thermal Free Energies=         -191.450961
 
                     E (Thermal)             CV                S
                      KCal/Mol        Cal/Mol-Kelvin    Cal/Mol-Kelvin
 Total                   28.884             13.584             65.985
 Electronic               0.000              0.000              2.183
 Translational            0.889              2.981             38.294
 Rotational               0.889              2.981             22.401
 Vibrational             27.106              7.622              3.107
 Vibration     1          0.779              1.435              0.905
 Vibration     2          0.890              1.172              0.576
                       Q            Log10(Q)             Ln(Q)
 Total Bot       0.652314D-07         -7.185544        -16.545325
 Total V=0       0.150285D+13         12.176917         28.038387
 Vib (Bot)       0.645576D-19        -19.190053        -44.186730
 Vib (Bot)    1  0.423145D+00         -0.373511         -0.860041
 Vib (Bot)    2  0.297433D+00         -0.526611         -1.212566
 Vib (V=0)       0.148733D+01          0.172408          0.396983
 Vib (V=0)    1  0.115502D+01          0.062590          0.144118
 Vib (V=0)    2  0.108178D+01          0.034138          0.078607
 Electronic      0.300000D+01          0.477121          1.098612
 Translational   0.191958D+08          7.283207         16.770204
 Rotational      0.175461D+05          4.244181          9.772588
 
                                                              b3lyp opt
                                                             IR Spectrum
 
     33                                                                    1  1   1       11 1                                       
     22                                                                    4  3   2       00 0 9  8      76 6  5    4                
     31                                                                    5  7   8       86 0 5  6      06 2  3    1                
     32                                                                    8  5   5       10 8 4  6      09 5  5    6                
 
     XX                                                                       X   X       XX X X         XX X       X                
     X                                                                        X   X        X             XX X                        
                                                                                  X        X             XX X                        
                                                                                           X             XX                          
                                                                                                         X                           
                                                                                                         X                           
                                                                                                         X                           
                                                                                                         X                           
                                                                                                         X                           
                                                                                                         X                           
                                                                                                         X                           
                                                                                                         X                           
                                                                                                         X                           
                                                                                                         X                           
                                                                                                         X                           
                                                                                                         X                           
                                                                                                         X                           
                                                                                                         X                           
                                                                                                         X                           
                                                                                                         X                           
 
 ***** Axes restored to original set *****
 -------------------------------------------------------------------
 Center     Atomic                   Forces (Hartrees/Bohr)
 Number     Number              X              Y              Z
 -------------------------------------------------------------------
      1        6           0.000044672   -0.000148910   -0.000001918
      2        6           0.000044772    0.000148880    0.000001918
      3        6          -0.000054580    0.000006721   -0.000001700
      4        6           0.000038860   -0.000000013    0.000000000
      5        6          -0.000054585   -0.000006685    0.000001700
      6        1          -0.000009562    0.000023345   -0.000000394
      7        1          -0.000009577   -0.000023339    0.000000394
 -------------------------------------------------------------------
 Cartesian Forces:  Max     0.000148910 RMS     0.000052183
 Z-matrix is all fixed cartesians, so copy forces.
 Force constants in Cartesian coordinates: 
                1             2             3             4             5 
      1  0.583619D+00
      2  0.160826D+00  0.653749D+00
      3 -0.109139D-04 -0.410890D-04  0.906936D-01
      4 -0.546305D-01 -0.121281D-01  0.000000D+00  0.583404D+00
      5  0.118935D-01 -0.406987D+00  0.253301D-04 -0.160779D+00  0.653963D+00
      6  0.000000D+00  0.253306D-04 -0.515886D-01  0.108865D-04 -0.410963D-04
      7 -0.625981D-01 -0.918866D-02  0.113138D-05 -0.170868D+00 -0.683891D-02
      8 -0.215992D-01 -0.458680D-01  0.477771D-05 -0.154414D-01 -0.434345D-01
      9  0.179952D-05  0.467212D-05  0.158378D-01  0.187824D-05  0.000000D+00
     10 -0.613127D-01 -0.184735D-02  0.000000D+00 -0.612824D-01  0.189700D-02
     11 -0.436120D-01  0.132782D-01 -0.135363D-05  0.436616D-01  0.132479D-01
     12  0.296910D-05  0.000000D+00  0.401689D-02 -0.296944D-05  0.000000D+00
     13 -0.170853D+00  0.692374D-02  0.000000D+00 -0.625776D-01  0.919978D-02
     14  0.155262D-01 -0.434494D-01  0.178227D-05  0.216103D-01 -0.458886D-01
     15 -0.187783D-05  0.000000D+00 -0.358189D-01 -0.179641D-05  0.467331D-05
     16 -0.237463D+00 -0.140980D+00  0.957848D-05  0.322811D-02  0.360058D-02
     17 -0.142826D+00 -0.166355D+00  0.987444D-05 -0.197967D-01 -0.435630D-02
     18  0.101763D-04  0.101799D-04 -0.269362D-01  0.137188D-05  0.000000D+00
     19  0.323889D-02 -0.360564D-02  0.000000D+00 -0.237274D+00  0.141027D+00
     20  0.197917D-01 -0.436708D-02  0.000000D+00  0.142873D+00 -0.166544D+00
     21 -0.137134D-05  0.000000D+00  0.379542D-02 -0.101695D-04  0.101867D-04
                6             7             8             9            10 
      6  0.906936D-01
      7  0.000000D+00  0.268944D+00
      8  0.178182D-05 -0.840004D-01  0.385699D+00
      9 -0.358189D-01  0.825535D-05 -0.312096D-04  0.428483D-01
     10  0.000000D+00 -0.124413D+00  0.187084D+00 -0.169212D-04  0.374102D+00
     11 -0.135363D-05  0.395611D-01 -0.145386D+00  0.127404D-04 -0.370931D-04
     12  0.401689D-02 -0.508973D-05  0.116903D-04 -0.256112D-01  0.000000D+00
     13 -0.112820D-05  0.101683D+00 -0.774659D-01  0.609313D-05 -0.124563D+00
     14  0.477847D-05  0.772958D-01 -0.153925D+00  0.129248D-04 -0.187098D+00
     15  0.158378D-01 -0.608452D-05  0.129288D-04 -0.161328D-02  0.169296D-04
     16  0.000000D+00  0.692578D-03 -0.105788D-02  0.000000D+00 -0.126626D-02
     17  0.000000D+00 -0.298517D-02 -0.317059D-02  0.000000D+00 -0.124801D-02
     18  0.379542D-02  0.000000D+00  0.000000D+00  0.715310D-02  0.000000D+00
     19 -0.957190D-05 -0.134412D-01  0.124809D-01 -0.103808D-05 -0.126478D-02
     20  0.988081D-05 -0.138437D-01  0.608624D-02  0.000000D+00  0.124930D-02
     21 -0.269362D-01  0.100929D-05  0.000000D+00 -0.279576D-02  0.000000D+00
               11            12            13            14            15 
     11  0.262736D+00
     12 -0.225880D-04  0.365926D-01
     13 -0.395749D-01  0.509761D-05  0.269056D+00
     14 -0.145236D+00  0.116871D-04  0.840781D-01  0.385587D+00
     15  0.127293D-04 -0.256112D-01 -0.827612D-05 -0.312041D-04  0.428483D-01
     16 -0.987262D-03  0.000000D+00 -0.134403D-01 -0.124679D-01  0.103771D-05
     17  0.680495D-03  0.000000D+00  0.138567D-01  0.608532D-02  0.000000D+00
     18  0.000000D+00  0.329804D-02 -0.100982D-05  0.000000D+00 -0.279576D-02
     19  0.988549D-03  0.000000D+00  0.695268D-03  0.105531D-02  0.000000D+00
     20  0.679007D-03  0.000000D+00  0.298259D-02 -0.317328D-02  0.000000D+00
     21  0.000000D+00  0.329804D-02  0.000000D+00  0.000000D+00  0.715310D-02
               16            17            18            19            20 
     16  0.248055D+00
     17  0.152445D+00  0.166865D+00
     18 -0.105329D-04 -0.105982D-04  0.196658D-01
     19  0.193661D-03  0.553508D-03  0.000000D+00  0.247852D+00
     20 -0.553470D-03  0.250664D-03  0.000000D+00 -0.152499D+00  0.167068D+00
     21  0.000000D+00  0.000000D+00 -0.418041D-02  0.105258D-04 -0.106052D-04
               21 
     21  0.196658D-01
 Leave Link  716 at Tue Jul 19 08:04:48 2016, MaxMem=    33554432 cpu:         0.1
 (Enter /home/proyectos/fulerenos/M3C-v2.0/M3C-deps_CCC/g09-AM64L-G09RevC.01/l103.exe)

 GradGradGradGradGradGradGradGradGradGradGradGradGradGradGradGradGradGrad
 Berny optimization.
 Search for a local minimum.
 Step number   1 out of a maximum of    2
 All quantities printed in internal units (Hartrees-Bohrs-Radians)
 Second derivative matrix not updated -- analytic derivatives used.
 ITU=  0
     Eigenvalues ---    0.03585   0.03981   0.05030   0.08367   0.10133
     Eigenvalues ---    0.13707   0.16721   0.19081   0.27870   0.29559
     Eigenvalues ---    0.48193   0.68350   0.85271   0.90421   1.20033
 Angle between quadratic step and forces=  55.95 degrees.
 ClnCor:  largest displacement from symmetrization is 1.10D-11 for atom     7.
 Linear search not attempted -- first point.
 ClnCor:  largest displacement from symmetrization is 9.93D-16 for atom     6.
 B after Tr=     0.000036   -0.000000    0.000000
         Rot=    1.000000   -0.000001    0.000000   -0.000000 Ang=  -0.00 deg.
 Variable       Old X    -DE/DX   Delta X   Delta X   Delta X     New X
                                 (Linear)    (Quad)   (Total)
    X1        1.66991   0.00004   0.00000   0.00010   0.00014   1.67005
    Y1        1.29842  -0.00015   0.00000  -0.00014  -0.00014   1.29829
    Z1       -0.00008  -0.00000   0.00000  -0.00001  -0.00001  -0.00009
    X2        1.66905   0.00004   0.00000   0.00010   0.00014   1.66918
    Y2       -1.29954   0.00015   0.00000   0.00014   0.00014  -1.29940
    Z2        0.00010   0.00000   0.00000   0.00001   0.00001   0.00011
    X3       -1.02271  -0.00005   0.00000  -0.00008  -0.00004  -1.02275
    Y3       -2.07094   0.00001   0.00000  -0.00004  -0.00004  -2.07097
    Z3        0.00020  -0.00000   0.00000  -0.00002  -0.00003   0.00017
    X4       -2.39133   0.00004   0.00000   0.00012   0.00016  -2.39117
    Y4        0.00080  -0.00000   0.00000  -0.00000  -0.00000   0.00080
    Z4        0.00001   0.00000   0.00000   0.00000  -0.00000   0.00001
    X5       -1.02133  -0.00005   0.00000  -0.00008  -0.00004  -1.02137
    Y5        2.07162  -0.00001   0.00000   0.00004   0.00004   2.07165
    Z5       -0.00017   0.00000   0.00000   0.00002   0.00003  -0.00015
    X6        3.29006  -0.00001   0.00000  -0.00021  -0.00018   3.28988
    Y6        2.53455   0.00002   0.00000   0.00030   0.00030   2.53485
    Z6       -0.00017  -0.00000   0.00000  -0.00002  -0.00002  -0.00018
    X7        3.28837  -0.00001   0.00000  -0.00021  -0.00018   3.28820
    Y7       -2.53674  -0.00002   0.00000  -0.00030  -0.00030  -2.53704
    Z7        0.00019   0.00000   0.00000   0.00002   0.00002   0.00021
         Item               Value     Threshold  Converged?
 Maximum Force            0.000149     0.000450     YES
 RMS     Force            0.000052     0.000300     YES
 Maximum Displacement     0.000304     0.001800     YES
 RMS     Displacement     0.000130     0.001200     YES
 Predicted change in Energy=-4.035934D-08
 Optimization completed.
    -- Stationary point found.
 GradGradGradGradGradGradGradGradGradGradGradGradGradGradGradGradGradGrad

 Leave Link  103 at Tue Jul 19 08:04:49 2016, MaxMem=    33554432 cpu:         0.0
 (Enter /home/proyectos/fulerenos/M3C-v2.0/M3C-deps_CCC/g09-AM64L-G09RevC.01/l9999.exe)
 1\1\GINC-CALIFORNIO\Freq\UB3LYP\6-311++G(3df,2p)\C5H2(3)\ROOT\19-Jul-2
 016\0\\#p b3lyp/6-311++G(3df,2p) freq symmetry=Loose\\b3lyp opt\\0,3\C
 ,0.883679808,0.687096349,-0.000042081\C,0.8832221901,-0.6876846117,0.0
 000549018\C,-0.541192868,-1.095893048,0.000103788\C,-1.265438953,0.000
 4211611,0.0000064104\C,-0.540463177,1.0962529735,-0.0000909672\H,1.741
 025136,1.341225097,-0.000087875\H,1.7401318537,-1.342383977,0.00010069
 58\\Version=EM64L-G09RevE.01\State=3-B\HF=-191.4665832\S2=2.420929\S2-
 1=0.\S2A=2.02184\RMSD=1.822e-09\RMSF=5.218e-05\ZeroPoint=0.0420953\The
 rmal=0.0460293\Dipole=0.4294069,-0.0001429,0.\DipoleDeriv=0.2333459,0.
 1370062,-0.0000081,0.0036286,0.0918829,-0.0000265,0.000009,-0.0000294,
 -0.2157608,0.2332522,-0.1371003,0.0000081,-0.0037227,0.0919766,-0.0000
 265,-0.000009,-0.0000294,-0.2157608,0.0433779,-0.1267272,0.000018,-0.0
 183773,-0.144658,0.0000168,0.0000078,0.0000193,0.102642,-0.5434747,0.0
 001758,0.,0.0001758,-0.0156066,0.000003,0.,-0.0000033,-0.1082665,0.043
 4744,0.1266019,-0.0000179,0.018252,-0.1447545,0.0000168,-0.0000078,0.0
 000193,0.102642,-0.0050291,-0.0536342,0.0000039,-0.0701992,0.060621,0.
 0000082,0.0000053,0.0000117,0.1672521,-0.0049466,0.0536778,-0.0000038,
 0.0702429,0.0605385,0.0000082,-0.0000053,0.0000117,0.1672521\Polar=57.
 0984615,0.0026056,64.9260928,-0.0000008,-0.0024674,35.253288\PG=C02 [C
 2(C1),X(C4H2)]\NImag=0\\0.58361852,0.16082557,0.65374888,-0.00001091,-
 0.00004109,0.09069363,-0.05463047,-0.01212811,0.00000080,0.58340442,0.
 01189353,-0.40698743,0.00002533,-0.16077874,0.65396298,-0.00000078,0.0
 0002533,-0.05158859,0.00001089,-0.00004110,0.09069363,-0.06259811,-0.0
 0918866,0.00000113,-0.17086833,-0.00683891,0.00000067,0.26894427,-0.02
 159922,-0.04586805,0.00000478,-0.01544136,-0.04343452,0.00000178,-0.08
 400041,0.38569852,0.00000180,0.00000467,0.01583780,0.00000188,0.000000
 61,-0.03581895,0.00000826,-0.00003121,0.04284831,-0.06131274,-0.001847
 35,-0.00000006,-0.06128243,0.00189700,0.00000006,-0.12441254,0.1870839
 5,-0.00001692,0.37410216,-0.04361199,0.01327817,-0.00000135,0.04366163
 ,0.01324789,-0.00000135,0.03956106,-0.14538645,0.00001274,-0.00003709,
 0.26273644,0.00000297,-0.00000051,0.00401689,-0.00000297,-0.00000051,0
 .00401689,-0.00000509,0.00001169,-0.02561122,0.,-0.00002259,0.03659256
 ,-0.17085344,0.00692374,-0.00000067,-0.06257760,0.00919978,-0.00000113
 ,0.10168333,-0.07746594,0.00000609,-0.12456342,-0.03957491,0.00000510,
 0.26905617,0.01552619,-0.04344941,0.00000178,0.02161034,-0.04588855,0.
 00000478,0.07729577,-0.15392514,0.00001292,-0.18709780,-0.14523557,0.0
 0001169,0.08407807,0.38558663,-0.00000188,0.00000061,-0.03581895,-0.00
 000180,0.00000467,0.01583780,-0.00000608,0.00001293,-0.00161328,0.0000
 1693,0.00001273,-0.02561122,-0.00000828,-0.00003120,0.04284831,-0.2374
 6265,-0.14097958,0.00000958,0.00322811,0.00360058,-0.00000014,0.000692
 58,-0.00105788,-0.00000007,-0.00126626,-0.00098726,0.00000008,-0.01344
 027,-0.01246788,0.00000104,0.24805484,-0.14282577,-0.16635508,0.000009
 87,-0.01979674,-0.00435630,0.00000068,-0.00298517,-0.00317059,0.000000
 81,-0.00124801,0.00068050,0.00000011,0.01385668,0.00608532,-0.00000056
 ,0.15244550,0.16686548,0.00001018,0.00001018,-0.02693621,0.00000137,0.
 00000080,0.00379542,0.00000011,0.00000084,0.00715310,-0.00000007,-0.00
 000009,0.00329804,-0.00000101,-0.00000080,-0.00279576,-0.00001053,-0.0
 0001060,0.01966582,0.00323889,-0.00360564,0.00000014,-0.23727368,0.141
 02679,-0.00000957,-0.01344119,0.01248088,-0.00000104,-0.00126478,0.000
 98855,-0.00000008,0.00069527,0.00105531,0.00000007,0.00019366,0.000553
 51,-0.00000005,0.24785182,0.01979169,-0.00436708,0.00000068,0.14287298
 ,-0.16654404,0.00000988,-0.01384368,0.00608624,-0.00000055,0.00124930,
 0.00067901,0.00000011,0.00298259,-0.00317328,0.00000081,-0.00055347,0.
 00025066,-0.00000033,-0.15249941,0.16706849,-0.00000137,0.00000080,0.0
 0379542,-0.00001017,0.00001019,-0.02693621,0.00000101,-0.00000080,-0.0
 0279576,0.00000007,-0.00000009,0.00329804,-0.00000011,0.00000084,0.007
 15310,0.00000005,-0.00000033,-0.00418041,0.00001053,-0.00001061,0.0196
 6582\\-0.00004467,0.00014891,0.00000192,-0.00004477,-0.00014888,-0.000
 00192,0.00005458,-0.00000672,0.00000170,-0.00003886,0.00000001,0.,0.00
 005458,0.00000669,-0.00000170,0.00000956,-0.00002335,0.00000039,0.0000
 0958,0.00002334,-0.00000039\\\@


 THE HURRIEDER I GO, THE BEHINDER I GET.
 Job cpu time:       0 days  0 hours 37 minutes 19.8 seconds.
 File lengths (MBytes):  RWF=     46 Int=      0 D2E=      0 Chk=      5 Scr=      1
 Normal termination of Gaussian 09 at Tue Jul 19 08:04:49 2016.
