 Entering Gaussian System, Link 0=/home/proyectos/fulerenos/M3C-v2.0/M3C-deps_CCC/g09-AM64L-G09RevC.01/g09
 Initial command:
 /home/proyectos/fulerenos/M3C-v2.0/M3C-deps_CCC/g09-AM64L-G09RevC.01/l1.exe "/scratch/naguirre/gaussian/Gau-22317.inp" -scrdir="/scratch/naguirre/gaussian/"
 Entering Link 1 = /home/proyectos/fulerenos/M3C-v2.0/M3C-deps_CCC/g09-AM64L-G09RevC.01/l1.exe PID=     22321.
  
 Copyright (c) 1988,1990,1992,1993,1995,1998,2003,2009,2015,
            Gaussian, Inc.  All Rights Reserved.
  
 This is part of the Gaussian(R) 09 program.  It is based on
 the Gaussian(R) 03 system (copyright 2003, Gaussian, Inc.),
 the Gaussian(R) 98 system (copyright 1998, Gaussian, Inc.),
 the Gaussian(R) 94 system (copyright 1995, Gaussian, Inc.),
 the Gaussian 92(TM) system (copyright 1992, Gaussian, Inc.),
 the Gaussian 90(TM) system (copyright 1990, Gaussian, Inc.),
 the Gaussian 88(TM) system (copyright 1988, Gaussian, Inc.),
 the Gaussian 86(TM) system (copyright 1986, Carnegie Mellon
 University), and the Gaussian 82(TM) system (copyright 1983,
 Carnegie Mellon University). Gaussian is a federally registered
 trademark of Gaussian, Inc.
  
 This software contains proprietary and confidential information,
 including trade secrets, belonging to Gaussian, Inc.
  
 This software is provided under written license and may be
 used, copied, transmitted, or stored only in accord with that
 written license.
  
 The following legend is applicable only to US Government
 contracts under FAR:
  
                    RESTRICTED RIGHTS LEGEND
  
 Use, reproduction and disclosure by the US Government is
 subject to restrictions as set forth in subparagraphs (a)
 and (c) of the Commercial Computer Software - Restricted
 Rights clause in FAR 52.227-19.
  
 Gaussian, Inc.
 340 Quinnipiac St., Bldg. 40, Wallingford CT 06492
  
  
 ---------------------------------------------------------------
 Warning -- This program may not be used in any manner that
 competes with the business of Gaussian, Inc. or will provide
 assistance to any competitor of Gaussian, Inc.  The licensee
 of this program is prohibited from giving any competitor of
 Gaussian, Inc. access to this program.  By using this program,
 the user acknowledges that Gaussian, Inc. is engaged in the
 business of creating and licensing software in the field of
 computational chemistry and represents and warrants to the
 licensee that it is not a competitor of Gaussian, Inc. and that
 it will not use this program in any manner prohibited above.
 ---------------------------------------------------------------
  

 Cite this work as:
 Gaussian 09, Revision E.01,
 M. J. Frisch, G. W. Trucks, H. B. Schlegel, G. E. Scuseria, 
 M. A. Robb, J. R. Cheeseman, G. Scalmani, V. Barone, B. Mennucci, 
 G. A. Petersson, H. Nakatsuji, M. Caricato, X. Li, H. P. Hratchian, 
 A. F. Izmaylov, J. Bloino, G. Zheng, J. L. Sonnenberg, M. Hada, 
 M. Ehara, K. Toyota, R. Fukuda, J. Hasegawa, M. Ishida, T. Nakajima, 
 Y. Honda, O. Kitao, H. Nakai, T. Vreven, J. A. Montgomery, Jr., 
 J. E. Peralta, F. Ogliaro, M. Bearpark, J. J. Heyd, E. Brothers, 
 K. N. Kudin, V. N. Staroverov, T. Keith, R. Kobayashi, J. Normand, 
 K. Raghavachari, A. Rendell, J. C. Burant, S. S. Iyengar, J. Tomasi, 
 M. Cossi, N. Rega, J. M. Millam, M. Klene, J. E. Knox, J. B. Cross, 
 V. Bakken, C. Adamo, J. Jaramillo, R. Gomperts, R. E. Stratmann, 
 O. Yazyev, A. J. Austin, R. Cammi, C. Pomelli, J. W. Ochterski, 
 R. L. Martin, K. Morokuma, V. G. Zakrzewski, G. A. Voth, 
 P. Salvador, J. J. Dannenberg, S. Dapprich, A. D. Daniels, 
 O. Farkas, J. B. Foresman, J. V. Ortiz, J. Cioslowski, 
 and D. J. Fox, Gaussian, Inc., Wallingford CT, 2013.
 
 ******************************************
 Gaussian 09:  EM64L-G09RevE.01 30-Nov-2015
                19-Jul-2016 
 ******************************************
 %NProcShared=1
 Will use up to    1 processors via shared memory.
 ---------------------------------------------
 #p b3lyp/6-311++G(3df,2p) freq symmetry=Loose
 ---------------------------------------------
 1/10=4,30=1,38=1/1,3;
 2/12=2,17=4,18=3,40=1/2;
 3/5=4,6=6,7=1216,11=2,16=1,25=1,30=1,71=2,74=-5,140=1/1,2,3;
 4//1;
 5/5=2,38=5,98=1/2;
 8/6=4,10=90,11=11/1;
 11/6=1,8=1,9=11,15=111,16=1/1,2,10;
 10/6=1/2;
 6/7=2,8=2,9=2,10=2,18=1,28=1/1;
 7/8=1,10=1,25=1/1,2,3,16;
 1/10=4,30=1/3;
 99//99;
 Leave Link    1 at Tue Jul 19 13:16:30 2016, MaxMem=           0 cpu:         0.1
 (Enter /home/proyectos/fulerenos/M3C-v2.0/M3C-deps_CCC/g09-AM64L-G09RevC.01/l101.exe)
 ---------
 b3lyp opt
 ---------
 Symbolic Z-matrix:
 Charge =  1 Multiplicity = 1
 C                    -0.00017  -1.84603   0. 
 H                     0.93431  -2.41006   0. 
 H                    -0.93476  -2.40988   0. 
 C                    -0.00005  -0.56857   0. 
 C                     0.00008   0.74619   0. 
 C                     0.00019   1.96547   0. 
 H                     0.0003    3.03764   0. 
 
 NAtoms=      7 NQM=        7 NQMF=       0 NMMI=      0 NMMIF=      0
                NMic=       0 NMicF=      0.
                    Isotopes and Nuclear Properties:
 (Nuclear quadrupole moments (NQMom) in fm**2, nuclear magnetic moments (NMagM)
  in nuclear magnetons)

  Atom         1           2           3           4           5           6           7
 IAtWgt=          12           1           1          12          12          12           1
 AtmWgt=  12.0000000   1.0078250   1.0078250  12.0000000  12.0000000  12.0000000   1.0078250
 NucSpn=           0           1           1           0           0           0           1
 AtZEff=   0.0000000   0.0000000   0.0000000   0.0000000   0.0000000   0.0000000   0.0000000
 NQMom=    0.0000000   0.0000000   0.0000000   0.0000000   0.0000000   0.0000000   0.0000000
 NMagM=    0.0000000   2.7928460   2.7928460   0.0000000   0.0000000   0.0000000   2.7928460
 AtZNuc=   6.0000000   1.0000000   1.0000000   6.0000000   6.0000000   6.0000000   1.0000000
 Leave Link  101 at Tue Jul 19 13:16:31 2016, MaxMem=    33554432 cpu:         0.2
 (Enter /home/proyectos/fulerenos/M3C-v2.0/M3C-deps_CCC/g09-AM64L-G09RevC.01/l103.exe)

 GradGradGradGradGradGradGradGradGradGradGradGradGradGradGradGradGradGrad
 Berny optimization.
 Initialization pass.
 Trust Radius=3.00D-01 FncErr=1.00D-07 GrdErr=1.00D-07
 Number of steps in this run=      2 maximum allowed number of steps=      2.
 GradGradGradGradGradGradGradGradGradGradGradGradGradGradGradGradGradGrad

 Leave Link  103 at Tue Jul 19 13:16:31 2016, MaxMem=    33554432 cpu:         0.0
 (Enter /home/proyectos/fulerenos/M3C-v2.0/M3C-deps_CCC/g09-AM64L-G09RevC.01/l202.exe)
                          Input orientation:                          
 ---------------------------------------------------------------------
 Center     Atomic      Atomic             Coordinates (Angstroms)
 Number     Number       Type             X           Y           Z
 ---------------------------------------------------------------------
      1          6           0       -0.000170   -1.846034    0.000000
      2          1           0        0.934310   -2.410060    0.000000
      3          1           0       -0.934756   -2.409881    0.000000
      4          6           0       -0.000048   -0.568569    0.000000
      5          6           0        0.000078    0.746185    0.000000
      6          6           0        0.000194    1.965468    0.000000
      7          1           0        0.000296    3.037641    0.000000
 ---------------------------------------------------------------------
                    Distance matrix (angstroms):
                    1          2          3          4          5
     1  C    0.000000
     2  H    1.091502   0.000000
     3  H    1.091502   1.869066   0.000000
     4  C    1.277465   2.064973   2.064973   0.000000
     5  C    2.592219   3.291606   3.291606   1.314754   0.000000
     6  C    3.811502   4.474127   4.474127   2.534037   1.219283
     7  H    4.883675   5.527189   5.527189   3.606210   2.291456
                    6          7
     6  C    0.000000
     7  H    1.072173   0.000000
 Stoichiometry    C4H3(1+)
 Framework group  C2V[C2(CCCCH),SGV(H2)]
 Deg. of freedom     6
 Full point group                 C2V     NOp   4
 Largest Abelian subgroup         C2V     NOp   4
 Largest concise Abelian subgroup C2      NOp   2
                         Standard orientation:                         
 ---------------------------------------------------------------------
 Center     Atomic      Atomic             Coordinates (Angstroms)
 Number     Number       Type             X           Y           Z
 ---------------------------------------------------------------------
      1          6           0       -0.000000   -0.000000   -1.846034
      2          1           0        0.000000    0.934533   -2.409971
      3          1           0       -0.000000   -0.934533   -2.409971
      4          6           0       -0.000000   -0.000000   -0.568569
      5          6           0        0.000000    0.000000    0.746185
      6          6           0        0.000000    0.000000    1.965468
      7          1           0        0.000000    0.000000    3.037641
 ---------------------------------------------------------------------
 Rotational constants (GHZ):    287.0864863      4.2555861      4.1934255
 Leave Link  202 at Tue Jul 19 13:16:31 2016, MaxMem=    33554432 cpu:         0.0
 (Enter /home/proyectos/fulerenos/M3C-v2.0/M3C-deps_CCC/g09-AM64L-G09RevC.01/l301.exe)
 Standard basis: 6-311++G(3df,2p) (5D, 7F)
 Ernie: Thresh=  0.10000D-02 Tol=  0.10000D-05 Strict=F.
 There are    98 symmetry adapted cartesian basis functions of A1  symmetry.
 There are    18 symmetry adapted cartesian basis functions of A2  symmetry.
 There are    44 symmetry adapted cartesian basis functions of B1  symmetry.
 There are    50 symmetry adapted cartesian basis functions of B2  symmetry.
 There are    82 symmetry adapted basis functions of A1  symmetry.
 There are    18 symmetry adapted basis functions of A2  symmetry.
 There are    40 symmetry adapted basis functions of B1  symmetry.
 There are    46 symmetry adapted basis functions of B2  symmetry.
   186 basis functions,   268 primitive gaussians,   210 cartesian basis functions
    13 alpha electrons       13 beta electrons
       nuclear repulsion energy        83.4851409896 Hartrees.
 IExCor=  402 DFT=T Ex+Corr=B3LYP ExCW=0 ScaHFX=  0.200000
 ScaDFX=  0.800000  0.720000  1.000000  0.810000 ScalE2=  1.000000  1.000000
 IRadAn=      0 IRanWt=     -1 IRanGd=            0 ICorTp=0 IEmpDi=  4
 NAtoms=    7 NActive=    7 NUniq=    6 SFac= 1.36D+00 NAtFMM=   60 NAOKFM=F Big=F
 Integral buffers will be    131072 words long.
 Raffenetti 2 integral format.
 Two-electron integral symmetry is turned on.
 Leave Link  301 at Tue Jul 19 13:16:31 2016, MaxMem=    33554432 cpu:         0.2
 (Enter /home/proyectos/fulerenos/M3C-v2.0/M3C-deps_CCC/g09-AM64L-G09RevC.01/l302.exe)
 NPDir=0 NMtPBC=     1 NCelOv=     1 NCel=       1 NClECP=     1 NCelD=      1
         NCelK=      1 NCelE2=     1 NClLst=     1 CellRange=     0.0.
 One-electron integrals computed using PRISM.
 One-electron integral symmetry used in STVInt
 NBasis=   186 RedAO= T EigKep=  1.85D-06  NBF=    82    18    40    46
 NBsUse=   185 1.00D-06 EigRej=  5.22D-08 NBFU=    81    18    40    46
 Precomputing XC quadrature grid using
 IXCGrd= 4 IRadAn=           0 IRanWt=          -1 IRanGd=           0 AccXCQ= 0.00D+00.
 Generated NRdTot=       0 NPtTot=           0 NUsed=           0 NTot=          32
 NSgBfM=   210   210   210   210   210 MxSgAt=     7 MxSgA2=     7.
 Leave Link  302 at Tue Jul 19 13:16:31 2016, MaxMem=    33554432 cpu:         0.4
 (Enter /home/proyectos/fulerenos/M3C-v2.0/M3C-deps_CCC/g09-AM64L-G09RevC.01/l303.exe)
 DipDrv:  MaxL=1.
 Leave Link  303 at Tue Jul 19 13:16:32 2016, MaxMem=    33554432 cpu:         0.1
 (Enter /home/proyectos/fulerenos/M3C-v2.0/M3C-deps_CCC/g09-AM64L-G09RevC.01/l401.exe)
 ExpMin= 3.60D-02 ExpMax= 4.56D+03 ExpMxC= 6.82D+02 IAcc=3 IRadAn=         5 AccDes= 0.00D+00
 Harris functional with IExCor=  402 and IRadAn=       5 diagonalized for initial guess.
 HarFok:  IExCor=  402 AccDes= 0.00D+00 IRadAn=         5 IDoV= 1 UseB2=F ITyADJ=14
 ICtDFT=  3500011 ScaDFX=  1.000000  1.000000  1.000000  1.000000
 FoFCou: FMM=F IPFlag=           0 FMFlag=      100000 FMFlg1=           0
         NFxFlg=           0 DoJE=T BraDBF=F KetDBF=T FulRan=T
         wScrn=  0.000000 ICntrl=     500 IOpCl=  0 I1Cent=   200000004 NGrid=           0
         NMat0=    1 NMatS0=      1 NMatT0=    0 NMatD0=    1 NMtDS0=    0 NMtDT0=    0
 Petite list used in FoFCou.
 Harris En= -153.924912588727    
 JPrj=0 DoOrth=F DoCkMO=F.
 Initial guess orbital symmetries:
       Occupied  (A1) (A1) (A1) (A1) (A1) (A1) (A1) (A1) (A1) (B2)
                 (B1) (B2) (B1)
       Virtual   (B2) (B1) (B2) (A1) (A1) (B1) (B2) (A1) (B1) (A1)
                 (B2) (B1) (A1) (A1) (A1) (B2) (B1) (B2) (A1) (A1)
                 (A1) (B2) (B1) (A2) (A1) (A1) (B2) (A2) (A1) (A1)
                 (A1) (A1) (B1) (B2) (A1) (A1) (A2) (B1) (B2) (A1)
                 (B2) (B1) (B1) (B2) (A1) (B2) (B1) (A1) (A1) (A2)
                 (A1) (B2) (A1) (B2) (B1) (B1) (A1) (B2) (A1) (B1)
                 (A2) (B2) (A1) (A1) (B1) (A1) (B2) (A1) (B1) (B2)
                 (A1) (A2) (A1) (A1) (B2) (A1) (A1) (A2) (A1) (A1)
                 (B1) (A2) (B2) (B1) (A1) (A2) (B2) (B1) (A1) (B2)
                 (A1) (A1) (B1) (A2) (B2) (A1) (B1) (B2) (B1) (A1)
                 (B2) (B2) (B1) (A1) (B1) (B2) (A1) (B1) (B2) (A2)
                 (B2) (B1) (A1) (B2) (B1) (A1) (B1) (B2) (A1) (B2)
                 (B1) (A1) (A2) (A1) (B2) (A1) (B2) (B1) (A1) (A1)
                 (A2) (B1) (A1) (A1) (B2) (A1) (B1) (A2) (B2) (A1)
                 (B1) (B2) (A1) (B2) (A1) (B1) (A1) (B2) (A2) (A1)
                 (A2) (A1) (A2) (A1) (A2) (A1) (B1) (B2) (B1) (B1)
                 (B2) (B2) (A1) (B1) (A1) (B2) (A1) (A1) (A1) (A1)
                 (A1) (A1)
 The electronic state of the initial guess is 1-A1.
 Leave Link  401 at Tue Jul 19 13:16:34 2016, MaxMem=    33554432 cpu:         2.2
 (Enter /home/proyectos/fulerenos/M3C-v2.0/M3C-deps_CCC/g09-AM64L-G09RevC.01/l502.exe)
 Closed shell SCF:
 Using DIIS extrapolation, IDIIS=  1040.
 Integral symmetry usage will be decided dynamically.
 IVT=      153984 IEndB=      153984 NGot=    33554432 MDV=    33461399
 LenX=    33461399 LenY=    33416858
 Requested convergence on RMS density matrix=1.00D-08 within 128 cycles.
 Requested convergence on MAX density matrix=1.00D-06.
 Requested convergence on             energy=1.00D-06.
 No special actions if energy rises.
 Fock matrices will be formed incrementally for  20 cycles.

 Cycle   1  Pass 1  IDiag  1:
 FoFJK:  IHMeth= 1 ICntrl=       0 DoSepK=F KAlg= 0 I1Cent=   0 FoldK=F
 IRaf= 970000000 NMat=   1 IRICut=       1 DoRegI=T DoRafI=F ISym2E= 1.
 FoFCou: FMM=F IPFlag=           0 FMFlag=      100000 FMFlg1=           0
         NFxFlg=           0 DoJE=F BraDBF=F KetDBF=F FulRan=T
         wScrn=  0.000000 ICntrl=       0 IOpCl=  0 I1Cent=           0 NGrid=           0
         NMat0=    1 NMatS0=      1 NMatT0=    0 NMatD0=    1 NMtDS0=    0 NMtDT0=    0
 Petite list used in FoFCou.
 E= -153.765101881949    
 DIIS: error= 2.76D-02 at cycle   1 NSaved=   1.
 NSaved= 1 IEnMin= 1 EnMin= -153.765101881949     IErMin= 1 ErrMin= 2.76D-02
 ErrMax= 2.76D-02  0.00D+00 EMaxC= 1.00D-01 BMatC= 8.50D-02 BMatP= 8.50D-02
 IDIUse=3 WtCom= 7.24D-01 WtEn= 2.76D-01
 Coeff-Com:  0.100D+01
 Coeff-En:   0.100D+01
 Coeff:      0.100D+01
 Gap=     0.089 Goal=   None    Shift=    0.000
 GapD=    0.089 DampG=0.500 DampE=0.500 DampFc=0.2500 IDamp=-1.
 Damping current iteration by 2.50D-01
 RMSDP=5.96D-03 MaxDP=2.09D-01              OVMax= 1.96D-01

 Cycle   2  Pass 1  IDiag  1:
 RMSU=  1.49D-03    CP:  1.00D+00
 E= -153.790278855168     Delta-E=       -0.025176973219 Rises=F Damp=T
 DIIS: error= 1.28D-02 at cycle   2 NSaved=   2.
 NSaved= 2 IEnMin= 2 EnMin= -153.790278855168     IErMin= 2 ErrMin= 1.28D-02
 ErrMax= 1.28D-02  0.00D+00 EMaxC= 1.00D-01 BMatC= 2.45D-02 BMatP= 8.50D-02
 IDIUse=3 WtCom= 8.72D-01 WtEn= 1.28D-01
 Coeff-Com: -0.858D+00 0.186D+01
 Coeff-En:   0.000D+00 0.100D+01
 Coeff:     -0.748D+00 0.175D+01
 Gap=     0.132 Goal=   None    Shift=    0.000
 RMSDP=4.52D-03 MaxDP=2.05D-01 DE=-2.52D-02 OVMax= 1.41D-01

 Cycle   3  Pass 1  IDiag  1:
 RMSU=  2.37D-03    CP:  1.07D+00  3.00D+00
 E= -153.829167525408     Delta-E=       -0.038888670240 Rises=F Damp=F
 DIIS: error= 8.23D-03 at cycle   3 NSaved=   3.
 NSaved= 3 IEnMin= 3 EnMin= -153.829167525408     IErMin= 3 ErrMin= 8.23D-03
 ErrMax= 8.23D-03  0.00D+00 EMaxC= 1.00D-01 BMatC= 5.71D-03 BMatP= 2.45D-02
 IDIUse=3 WtCom= 9.18D-01 WtEn= 8.23D-02
 Coeff-Com: -0.463D+00 0.897D+00 0.566D+00
 Coeff-En:   0.000D+00 0.000D+00 0.100D+01
 Coeff:     -0.425D+00 0.823D+00 0.602D+00
 Gap=     0.132 Goal=   None    Shift=    0.000
 RMSDP=1.87D-03 MaxDP=8.94D-02 DE=-3.89D-02 OVMax= 4.56D-02

 Cycle   4  Pass 1  IDiag  1:
 RMSU=  7.26D-04    CP:  1.03D+00  2.65D+00  5.19D-01
 E= -153.833499965193     Delta-E=       -0.004332439785 Rises=F Damp=F
 DIIS: error= 5.42D-03 at cycle   4 NSaved=   4.
 NSaved= 4 IEnMin= 4 EnMin= -153.833499965193     IErMin= 4 ErrMin= 5.42D-03
 ErrMax= 5.42D-03  0.00D+00 EMaxC= 1.00D-01 BMatC= 1.73D-03 BMatP= 5.71D-03
 IDIUse=3 WtCom= 9.46D-01 WtEn= 5.42D-02
 Coeff-Com: -0.118D+00 0.228D+00 0.376D+00 0.515D+00
 Coeff-En:   0.000D+00 0.000D+00 0.263D+00 0.737D+00
 Coeff:     -0.112D+00 0.216D+00 0.369D+00 0.527D+00
 Gap=     0.134 Goal=   None    Shift=    0.000
 RMSDP=6.88D-04 MaxDP=2.75D-02 DE=-4.33D-03 OVMax= 1.82D-02

 Cycle   5  Pass 1  IDiag  1:
 RMSU=  2.84D-04    CP:  1.04D+00  2.87D+00  6.99D-01  6.77D-01
 E= -153.835041058400     Delta-E=       -0.001541093207 Rises=F Damp=F
 DIIS: error= 2.06D-03 at cycle   5 NSaved=   5.
 NSaved= 5 IEnMin= 5 EnMin= -153.835041058400     IErMin= 5 ErrMin= 2.06D-03
 ErrMax= 2.06D-03  0.00D+00 EMaxC= 1.00D-01 BMatC= 3.21D-04 BMatP= 1.73D-03
 IDIUse=3 WtCom= 9.79D-01 WtEn= 2.06D-02
 Coeff-Com: -0.130D-01 0.266D-01 0.191D+00 0.383D+00 0.412D+00
 Coeff-En:   0.000D+00 0.000D+00 0.000D+00 0.121D+00 0.879D+00
 Coeff:     -0.128D-01 0.260D-01 0.187D+00 0.378D+00 0.422D+00
 Gap=     0.135 Goal=   None    Shift=    0.000
 RMSDP=1.16D-04 MaxDP=3.45D-03 DE=-1.54D-03 OVMax= 1.17D-02

 Cycle   6  Pass 1  IDiag  1:
 RMSU=  1.05D-04    CP:  1.04D+00  2.87D+00  6.96D-01  6.58D-01  8.36D-01
 E= -153.835331143538     Delta-E=       -0.000290085138 Rises=F Damp=F
 DIIS: error= 9.52D-04 at cycle   6 NSaved=   6.
 NSaved= 6 IEnMin= 6 EnMin= -153.835331143538     IErMin= 6 ErrMin= 9.52D-04
 ErrMax= 9.52D-04  0.00D+00 EMaxC= 1.00D-01 BMatC= 3.98D-05 BMatP= 3.21D-04
 IDIUse=3 WtCom= 9.90D-01 WtEn= 9.52D-03
 Coeff-Com:  0.187D-02-0.221D-02 0.985D-01 0.222D+00 0.303D+00 0.377D+00
 Coeff-En:   0.000D+00 0.000D+00 0.000D+00 0.000D+00 0.142D+00 0.858D+00
 Coeff:      0.185D-02-0.219D-02 0.976D-01 0.220D+00 0.301D+00 0.382D+00
 Gap=     0.135 Goal=   None    Shift=    0.000
 RMSDP=5.36D-05 MaxDP=1.99D-03 DE=-2.90D-04 OVMax= 4.04D-03

 Cycle   7  Pass 1  IDiag  1:
 RMSU=  3.96D-05    CP:  1.04D+00  2.88D+00  6.95D-01  6.56D-01  8.30D-01
                    CP:  6.85D-01
 E= -153.835381448788     Delta-E=       -0.000050305250 Rises=F Damp=F
 DIIS: error= 1.20D-04 at cycle   7 NSaved=   7.
 NSaved= 7 IEnMin= 7 EnMin= -153.835381448788     IErMin= 7 ErrMin= 1.20D-04
 ErrMax= 1.20D-04  0.00D+00 EMaxC= 1.00D-01 BMatC= 1.08D-06 BMatP= 3.98D-05
 IDIUse=3 WtCom= 9.99D-01 WtEn= 1.20D-03
 Coeff-Com:  0.475D-02-0.778D-02 0.635D-02 0.290D-01 0.467D-01 0.161D+00
 Coeff-Com:  0.760D+00
 Coeff-En:   0.000D+00 0.000D+00 0.000D+00 0.000D+00 0.000D+00 0.000D+00
 Coeff-En:   0.100D+01
 Coeff:      0.474D-02-0.777D-02 0.634D-02 0.290D-01 0.466D-01 0.161D+00
 Coeff:      0.760D+00
 Gap=     0.135 Goal=   None    Shift=    0.000
 RMSDP=3.09D-05 MaxDP=1.10D-03 DE=-5.03D-05 OVMax= 6.88D-04

 Cycle   8  Pass 1  IDiag  1:
 RMSU=  1.22D-05    CP:  1.04D+00  2.87D+00  6.93D-01  6.75D-01  7.89D-01
                    CP:  6.45D-01  6.07D-01
 E= -153.835382796532     Delta-E=       -0.000001347744 Rises=F Damp=F
 DIIS: error= 1.41D-05 at cycle   8 NSaved=   8.
 NSaved= 8 IEnMin= 8 EnMin= -153.835382796532     IErMin= 8 ErrMin= 1.41D-05
 ErrMax= 1.41D-05  0.00D+00 EMaxC= 1.00D-01 BMatC= 1.88D-08 BMatP= 1.08D-06
 IDIUse=1 WtCom= 1.00D+00 WtEn= 0.00D+00
 Coeff-Com:  0.827D-03-0.113D-02-0.205D-02-0.592D-02-0.695D-02-0.575D-02
 Coeff-Com:  0.111D-01 0.101D+01
 Coeff:      0.827D-03-0.113D-02-0.205D-02-0.592D-02-0.695D-02-0.575D-02
 Coeff:      0.111D-01 0.101D+01
 Gap=     0.135 Goal=   None    Shift=    0.000
 RMSDP=2.12D-06 MaxDP=9.85D-05 DE=-1.35D-06 OVMax= 1.26D-04

 Cycle   9  Pass 1  IDiag  1:
 RMSU=  1.04D-06    CP:  1.04D+00  2.87D+00  6.94D-01  6.75D-01  7.91D-01
                    CP:  6.49D-01  6.10D-01  1.02D+00
 E= -153.835382827038     Delta-E=       -0.000000030506 Rises=F Damp=F
 DIIS: error= 5.07D-06 at cycle   9 NSaved=   9.
 NSaved= 9 IEnMin= 9 EnMin= -153.835382827038     IErMin= 9 ErrMin= 5.07D-06
 ErrMax= 5.07D-06  0.00D+00 EMaxC= 1.00D-01 BMatC= 1.20D-09 BMatP= 1.88D-08
 IDIUse=1 WtCom= 1.00D+00 WtEn= 0.00D+00
 Coeff-Com:  0.102D-04 0.258D-04-0.583D-03-0.227D-02-0.292D-02-0.103D-01
 Coeff-Com: -0.260D-01 0.118D+00 0.924D+00
 Coeff:      0.102D-04 0.258D-04-0.583D-03-0.227D-02-0.292D-02-0.103D-01
 Coeff:     -0.260D-01 0.118D+00 0.924D+00
 Gap=     0.135 Goal=   None    Shift=    0.000
 RMSDP=1.01D-06 MaxDP=4.27D-05 DE=-3.05D-08 OVMax= 3.28D-05

 Cycle  10  Pass 1  IDiag  1:
 RMSU=  5.37D-07    CP:  1.04D+00  2.87D+00  6.94D-01  6.75D-01  7.90D-01
                    CP:  6.45D-01  6.05D-01  1.06D+00  8.76D-01
 E= -153.835382828814     Delta-E=       -0.000000001776 Rises=F Damp=F
 DIIS: error= 5.14D-07 at cycle  10 NSaved=  10.
 NSaved=10 IEnMin=10 EnMin= -153.835382828814     IErMin=10 ErrMin= 5.14D-07
 ErrMax= 5.14D-07  0.00D+00 EMaxC= 1.00D-01 BMatC= 2.33D-11 BMatP= 1.20D-09
 IDIUse=1 WtCom= 1.00D+00 WtEn= 0.00D+00
 Coeff-Com:  0.113D-05-0.115D-05 0.527D-04 0.103D-03-0.324D-04-0.554D-03
 Coeff-Com: -0.459D-03-0.289D-01 0.509D-01 0.979D+00
 Coeff:      0.113D-05-0.115D-05 0.527D-04 0.103D-03-0.324D-04-0.554D-03
 Coeff:     -0.459D-03-0.289D-01 0.509D-01 0.979D+00
 Gap=     0.135 Goal=   None    Shift=    0.000
 RMSDP=1.16D-07 MaxDP=5.15D-06 DE=-1.78D-09 OVMax= 4.64D-06

 Cycle  11  Pass 1  IDiag  1:
 RMSU=  4.22D-08    CP:  1.04D+00  2.87D+00  6.94D-01  6.75D-01  7.90D-01
                    CP:  6.45D-01  6.06D-01  1.06D+00  9.11D-01  9.71D-01
 E= -153.835382828848     Delta-E=       -0.000000000034 Rises=F Damp=F
 DIIS: error= 7.30D-08 at cycle  11 NSaved=  11.
 NSaved=11 IEnMin=11 EnMin= -153.835382828848     IErMin=11 ErrMin= 7.30D-08
 ErrMax= 7.30D-08  0.00D+00 EMaxC= 1.00D-01 BMatC= 4.42D-13 BMatP= 2.33D-11
 IDIUse=1 WtCom= 1.00D+00 WtEn= 0.00D+00
 Coeff-Com:  0.187D-05-0.293D-05 0.111D-04 0.401D-04 0.517D-04 0.134D-03
 Coeff-Com:  0.550D-03-0.238D-02-0.191D-01-0.134D-01 0.103D+01
 Coeff:      0.187D-05-0.293D-05 0.111D-04 0.401D-04 0.517D-04 0.134D-03
 Coeff:      0.550D-03-0.238D-02-0.191D-01-0.134D-01 0.103D+01
 Gap=     0.135 Goal=   None    Shift=    0.000
 RMSDP=1.34D-08 MaxDP=5.11D-07 DE=-3.39D-11 OVMax= 5.23D-07

 Cycle  12  Pass 1  IDiag  1:
 RMSU=  3.42D-09    CP:  1.04D+00  2.87D+00  6.94D-01  6.75D-01  7.90D-01
                    CP:  6.45D-01  6.06D-01  1.06D+00  9.12D-01  9.83D-01
                    CP:  1.04D+00
 E= -153.835382828847     Delta-E=        0.000000000001 Rises=F Damp=F
 DIIS: error= 5.94D-09 at cycle  12 NSaved=  12.
 NSaved=12 IEnMin=11 EnMin= -153.835382828848     IErMin=12 ErrMin= 5.94D-09
 ErrMax= 5.94D-09  0.00D+00 EMaxC= 1.00D-01 BMatC= 2.75D-15 BMatP= 4.42D-13
 IDIUse=1 WtCom= 1.00D+00 WtEn= 0.00D+00
 Coeff-Com: -0.728D-07 0.116D-06-0.559D-06-0.102D-05 0.596D-06 0.689D-05
 Coeff-Com:  0.395D-04 0.478D-03-0.817D-03-0.148D-01-0.203D-02 0.102D+01
 Coeff:     -0.728D-07 0.116D-06-0.559D-06-0.102D-05 0.596D-06 0.689D-05
 Coeff:      0.395D-04 0.478D-03-0.817D-03-0.148D-01-0.203D-02 0.102D+01
 Gap=     0.135 Goal=   None    Shift=    0.000
 RMSDP=1.25D-09 MaxDP=4.67D-08 DE= 1.36D-12 OVMax= 2.88D-08

 SCF Done:  E(RB3LYP) =  -153.835382829     A.U. after   12 cycles
            NFock= 12  Conv=0.13D-08     -V/T= 2.0048
 KE= 1.531019010282D+02 PE=-5.169824493549D+02 EE= 1.265600245083D+02
 Leave Link  502 at Tue Jul 19 13:18:54 2016, MaxMem=    33554432 cpu:       140.2
 (Enter /home/proyectos/fulerenos/M3C-v2.0/M3C-deps_CCC/g09-AM64L-G09RevC.01/l801.exe)
 DoSCS=F DFT=T ScalE2(SS,OS)=  1.000000  1.000000
 Range of M.O.s used for correlation:     1   185
 NBasis=   186 NAE=    13 NBE=    13 NFC=     0 NFV=     0
 NROrb=    185 NOA=    13 NOB=    13 NVA=   172 NVB=   172

 **** Warning!!: The largest alpha MO coefficient is  0.36376088D+03

 Leave Link  801 at Tue Jul 19 13:18:55 2016, MaxMem=    33554432 cpu:         0.1
 (Enter /home/proyectos/fulerenos/M3C-v2.0/M3C-deps_CCC/g09-AM64L-G09RevC.01/l1101.exe)
 Using compressed storage, NAtomX=     7.
 Will process      8 centers per pass.
 Leave Link 1101 at Tue Jul 19 13:18:55 2016, MaxMem=    33554432 cpu:         0.5
 (Enter /home/proyectos/fulerenos/M3C-v2.0/M3C-deps_CCC/g09-AM64L-G09RevC.01/l1102.exe)
 Symmetrizing basis deriv contribution to polar:
 IMax=3 JMax=2 DiffMx= 0.00D+00
 Leave Link 1102 at Tue Jul 19 13:18:56 2016, MaxMem=    33554432 cpu:         0.1
 (Enter /home/proyectos/fulerenos/M3C-v2.0/M3C-deps_CCC/g09-AM64L-G09RevC.01/l1110.exe)
 Forming Gx(P) for the SCF density, NAtomX=     7.
 Integral derivatives from FoFJK, PRISM(SPDF).
 Do as many integral derivatives as possible in FoFJK.
 G2DrvN: MDV=      33554272.
 G2DrvN: will do     8 centers at a time, making    1 passes.
 Calling FoFCou, ICntrl=  3107 FMM=F I1Cent=   0 AccDes= 0.00D+00.
 FoFJK:  IHMeth= 1 ICntrl=    3107 DoSepK=F KAlg= 0 I1Cent=   0 FoldK=F
 IRaf=         0 NMat=   1 IRICut=       1 DoRegI=T DoRafI=F ISym2E= 1.
 FoFCou: FMM=F IPFlag=           0 FMFlag=      100000 FMFlg1=           0
         NFxFlg=           0 DoJE=F BraDBF=F KetDBF=F FulRan=T
         wScrn=  0.000000 ICntrl=    3107 IOpCl=  0 I1Cent=           0 NGrid=           0
         NMat0=    1 NMatS0=      1 NMatT0=    0 NMatD0=    1 NMtDS0=    0 NMtDT0=    0
 Petite list used in FoFCou.
 End of G2Drv F.D. properties file   721 does not exist.
 End of G2Drv F.D. properties file   722 does not exist.
 End of G2Drv F.D. properties file   788 does not exist.
 Leave Link 1110 at Tue Jul 19 13:20:49 2016, MaxMem=    33554432 cpu:       112.9
 (Enter /home/proyectos/fulerenos/M3C-v2.0/M3C-deps_CCC/g09-AM64L-G09RevC.01/l1002.exe)
 Minotr:  Closed shell wavefunction.
          IDoAtm=1111111
          Direct CPHF calculation.
          Differentiating once with respect to electric field.
                with respect to dipole field.
          Differentiating once with respect to nuclear coordinates.
          Using symmetry in CPHF.
          Requested convergence is 1.0D-08 RMS, and 1.0D-07 maximum.
          Secondary convergence is 1.0D-12 RMS, and 1.0D-12 maximum.
          NewPWx=T KeepS1=F KeepF1=F KeepIn=T MapXYZ=F SortEE=F KeepMc=T.
          MDV=      33554173 using IRadAn=       2.
 Generate precomputed XC quadrature information.
          Solving linear equations simultaneously, MaxMat=       0.
 FoFJK:  IHMeth= 1 ICntrl=       0 DoSepK=F KAlg= 0 I1Cent=   0 FoldK=F
 IRaf= 970000000 NMat=  21 IRICut=      52 DoRegI=T DoRafI=T ISym2E= 2.
 FoFCou: FMM=F IPFlag=           0 FMFlag=      100000 FMFlg1=           0
         NFxFlg=           0 DoJE=F BraDBF=F KetDBF=F FulRan=T
         wScrn=  0.000000 ICntrl=       0 IOpCl=  0 I1Cent=           0 NGrid=           0
         NMat0=   21 NMatS0=     21 NMatT0=    0 NMatD0=   21 NMtDS0=    0 NMtDT0=    0
 Integrals replicated using symmetry in FoFCou.
          There are    21 degrees of freedom in the 1st order CPHF.  IDoFFX=4 NUNeed=    21.
     21 vectors produced by pass  0 Test12= 1.06D-14 4.76D-09 XBig12= 2.05D+02 1.01D+01.
 AX will form    21 AO Fock derivatives at one time.
     21 vectors produced by pass  1 Test12= 1.06D-14 4.76D-09 XBig12= 4.79D+01 1.95D+00.
     21 vectors produced by pass  2 Test12= 1.06D-14 4.76D-09 XBig12= 1.26D+00 3.52D-01.
     21 vectors produced by pass  3 Test12= 1.06D-14 4.76D-09 XBig12= 3.29D-03 1.53D-02.
     21 vectors produced by pass  4 Test12= 1.06D-14 4.76D-09 XBig12= 7.44D-06 5.51D-04.
     16 vectors produced by pass  5 Test12= 1.06D-14 4.76D-09 XBig12= 1.75D-08 2.25D-05.
      7 vectors produced by pass  6 Test12= 1.06D-14 4.76D-09 XBig12= 5.05D-11 1.12D-06.
      2 vectors produced by pass  7 Test12= 1.06D-14 4.76D-09 XBig12= 1.53D-13 1.06D-07.
      1 vectors produced by pass  8 Test12= 1.06D-14 4.76D-09 XBig12= 8.96D-14 1.30D-07.
 InvSVY:  IOpt=1 It=  1 EMax= 3.55D-15
 Solved reduced A of dimension   131 with    21 vectors.
 FullF1:  Do perturbations    1 to    21.
 Isotropic polarizability for W=    0.000000       45.45 Bohr**3.
 End of Minotr F.D. properties file   721 does not exist.
 End of Minotr F.D. properties file   722 does not exist.
 End of Minotr F.D. properties file   788 does not exist.
 Leave Link 1002 at Tue Jul 19 13:26:47 2016, MaxMem=    33554432 cpu:       355.8
 (Enter /home/proyectos/fulerenos/M3C-v2.0/M3C-deps_CCC/g09-AM64L-G09RevC.01/l601.exe)
 Copying SCF densities to generalized density rwf, IOpCl= 0 IROHF=0.

 **********************************************************************

            Population analysis using the SCF density.

 **********************************************************************

 Orbital symmetries:
       Occupied  (A1) (A1) (A1) (A1) (A1) (A1) (A1) (A1) (A1) (B2)
                 (B1) (B2) (B1)
       Virtual   (B2) (B1) (B2) (A1) (A1) (B1) (A1) (B2) (B1) (A1)
                 (B2) (A1) (B1) (A1) (B2) (A1) (B1) (B2) (A1) (A1)
                 (A2) (B2) (B1) (A1) (A1) (A1) (A2) (B2) (A1) (A1)
                 (A1) (A1) (B2) (B1) (A1) (A2) (A1) (B2) (B1) (A1)
                 (B1) (B2) (B1) (B2) (A1) (A1) (B2) (B1) (A2) (A1)
                 (B2) (A1) (A1) (B2) (B1) (B1) (B2) (A1) (A1) (B1)
                 (A2) (B2) (A1) (A1) (B1) (A1) (B2) (B1) (A1) (B2)
                 (A1) (A2) (A1) (B2) (A1) (A1) (A1) (A2) (A1) (A1)
                 (B1) (A2) (B2) (B1) (A1) (A2) (B2) (B1) (A1) (B2)
                 (A1) (A1) (B1) (A2) (B1) (B2) (A1) (B2) (A1) (B1)
                 (B2) (B1) (B2) (A1) (B2) (B1) (A1) (B1) (A2) (B2)
                 (B2) (B1) (A1) (B2) (B1) (A1) (B1) (B2) (A1) (B2)
                 (B1) (A1) (A2) (A1) (B2) (A1) (B2) (B1) (A1) (A1)
                 (A2) (B1) (A1) (A1) (B2) (A1) (B1) (A2) (B2) (A1)
                 (B1) (B2) (A1) (B2) (A1) (B1) (A1) (B2) (A2) (A1)
                 (A2) (A1) (A2) (A2) (A1) (B1) (A1) (B2) (B1) (B1)
                 (B2) (B2) (A1) (B1) (A1) (B2) (A1) (A1) (A1) (A1)
                 (A1) (A1)
 The electronic state is 1-A1.
 Alpha  occ. eigenvalues --  -10.51301 -10.48284 -10.45087 -10.44545  -1.08131
 Alpha  occ. eigenvalues --   -1.01893  -0.91595  -0.77942  -0.74349  -0.70507
 Alpha  occ. eigenvalues --   -0.61980  -0.58325  -0.51415
 Alpha virt. eigenvalues --   -0.37926  -0.29374  -0.16024  -0.15856  -0.13142
 Alpha virt. eigenvalues --   -0.11806  -0.11346  -0.10914  -0.09160  -0.07245
 Alpha virt. eigenvalues --   -0.05921  -0.04966  -0.03856  -0.02839  -0.02017
 Alpha virt. eigenvalues --   -0.01331  -0.00566   0.01294   0.01514   0.02833
 Alpha virt. eigenvalues --    0.04304   0.05019   0.05515   0.05576   0.08210
 Alpha virt. eigenvalues --    0.08501   0.11870   0.13337   0.16000   0.18272
 Alpha virt. eigenvalues --    0.19126   0.23518   0.23856   0.24135   0.24717
 Alpha virt. eigenvalues --    0.25312   0.27471   0.28765   0.29022   0.32837
 Alpha virt. eigenvalues --    0.33979   0.34098   0.35539   0.36414   0.40692
 Alpha virt. eigenvalues --    0.41666   0.42004   0.42424   0.45570   0.45886
 Alpha virt. eigenvalues --    0.53101   0.55735   0.61535   0.64014   0.65370
 Alpha virt. eigenvalues --    0.66773   0.70714   0.72185   0.74102   0.76617
 Alpha virt. eigenvalues --    0.85812   0.87206   0.88707   0.92620   0.93857
 Alpha virt. eigenvalues --    0.98038   0.98353   1.03222   1.07126   1.13131
 Alpha virt. eigenvalues --    1.15088   1.16516   1.17656   1.18002   1.19003
 Alpha virt. eigenvalues --    1.24122   1.25581   1.31573   1.33962   1.36338
 Alpha virt. eigenvalues --    1.38185   1.44730   1.47747   1.54381   1.57327
 Alpha virt. eigenvalues --    1.61999   1.67567   1.79798   1.89787   1.90619
 Alpha virt. eigenvalues --    1.95368   2.30028   2.31817   2.31967   2.33227
 Alpha virt. eigenvalues --    2.33258   2.34504   2.34539   2.40884   2.44383
 Alpha virt. eigenvalues --    2.46696   2.50435   2.50696   2.55795   2.58561
 Alpha virt. eigenvalues --    2.60691   2.65991   2.67443   2.68501   2.69950
 Alpha virt. eigenvalues --    2.75378   2.76507   2.79380   2.80378   2.84734
 Alpha virt. eigenvalues --    2.88079   2.90254   2.94423   3.02225   3.08177
 Alpha virt. eigenvalues --    3.09695   3.17050   3.22757   3.24740   3.36600
 Alpha virt. eigenvalues --    3.56566   3.69249   3.70403   3.81938   3.85146
 Alpha virt. eigenvalues --    3.89164   3.92684   3.97604   4.08360   4.12237
 Alpha virt. eigenvalues --    4.17856   4.21287   4.22548   4.55408   4.76933
 Alpha virt. eigenvalues --    4.93847   5.12606   5.22995   5.33098   5.95858
 Alpha virt. eigenvalues --    6.15349   6.22992   6.23288   6.64973   6.66400
 Alpha virt. eigenvalues --    6.74066   6.75609   6.83018   6.85181   6.85249
 Alpha virt. eigenvalues --    7.03239   7.03359   7.05168   7.10294   7.12724
 Alpha virt. eigenvalues --    7.12791   7.38248   7.40774   7.44108   7.77868
 Alpha virt. eigenvalues --    7.79801   8.39813   8.47467  23.57566  25.58961
 Alpha virt. eigenvalues --   25.91445  26.61922
          Condensed to atoms (all electrons):
               1          2          3          4          5          6
     1  C    8.448390   0.431600   0.431600  -2.497660  -1.442066   0.902752
     2  H    0.431600   0.386849  -0.010556  -0.064229   0.009015  -0.010361
     3  H    0.431600  -0.010556   0.386849  -0.064229   0.009015  -0.010361
     4  C   -2.497660  -0.064229  -0.064229   7.865346   1.133822  -0.597908
     5  C   -1.442066   0.009015   0.009015   1.133822   9.538083  -3.000202
     6  C    0.902752  -0.010361  -0.010361  -0.597908  -3.000202   7.996017
     7  H   -0.010569  -0.000019  -0.000019  -0.007560   0.072199   0.265799
               7
     1  C   -0.010569
     2  H   -0.000019
     3  H   -0.000019
     4  C   -0.007560
     5  C    0.072199
     6  C    0.265799
     7  H    0.298338
 Mulliken charges:
               1
     1  C   -0.264047
     2  H    0.257700
     3  H    0.257700
     4  C    0.232417
     5  C   -0.319866
     6  C    0.454265
     7  H    0.381831
 Sum of Mulliken charges =   1.00000
 Mulliken charges with hydrogens summed into heavy atoms:
               1
     1  C    0.251353
     4  C    0.232417
     5  C   -0.319866
     6  C    0.836096
 APT charges:
               1
     1  C   -0.301777
     2  H    0.254669
     3  H    0.254669
     4  C    0.641999
     5  C   -0.444028
     6  C    0.281202
     7  H    0.313266
 Sum of APT charges =   1.00000
 APT charges with hydrogens summed into heavy atoms:
               1
     1  C    0.207561
     4  C    0.641999
     5  C   -0.444028
     6  C    0.594467
 Electronic spatial extent (au):  <R**2>=            282.9484
 Charge=              1.0000 electrons
 Dipole moment (field-independent basis, Debye):
    X=             -0.0000    Y=              0.0000    Z=              0.0033  Tot=              0.0033
 Quadrupole moment (field-independent basis, Debye-Ang):
   XX=            -22.9504   YY=            -19.0241   ZZ=              4.8077
   XY=              0.0000   XZ=              0.0000   YZ=             -0.0000
 Traceless Quadrupole moment (field-independent basis, Debye-Ang):
   XX=            -10.5615   YY=             -6.6352   ZZ=             17.1966
   XY=              0.0000   XZ=              0.0000   YZ=             -0.0000
 Octapole moment (field-independent basis, Debye-Ang**2):
  XXX=              0.0000  YYY=              0.0000  ZZZ=             14.4535  XYY=             -0.0000
  XXY=              0.0000  XXZ=             -0.4042  XZZ=             -0.0000  YZZ=              0.0000
  YYZ=             -5.5677  XYZ=             -0.0000
 Hexadecapole moment (field-independent basis, Debye-Ang**3):
 XXXX=            -24.1343 YYYY=            -23.9084 ZZZZ=           -127.0995 XXXY=             -0.0000
 XXXZ=             -0.0000 YYYX=              0.0000 YYYZ=             -0.0000 ZZZX=              0.0000
 ZZZY=             -0.0000 XXYY=             -8.5592 XXZZ=            -62.8753 YYZZ=            -44.8516
 XXYZ=             -0.0000 YYXZ=              0.0000 ZZXY=              0.0000
 N-N= 8.348514098961D+01 E-N=-5.169824492038D+02  KE= 1.531019010282D+02
 Symmetry A1   KE= 1.438963132791D+02
 Symmetry A2   KE= 6.007557762220D-34
 Symmetry B1   KE= 4.777929686402D+00
 Symmetry B2   KE= 4.427658062717D+00
  Exact polarizability:  24.182  -0.000  25.528   0.000   0.000  86.629
 Approx polarizability:  32.608   0.000  35.884   0.000  -0.000 188.694
 No NMR shielding tensors so no spin-rotation constants.
 Leave Link  601 at Tue Jul 19 13:26:48 2016, MaxMem=    33554432 cpu:         0.4
 (Enter /home/proyectos/fulerenos/M3C-v2.0/M3C-deps_CCC/g09-AM64L-G09RevC.01/l701.exe)
 Compute integral second derivatives.
 ... and contract with generalized density number  0.
 Leave Link  701 at Tue Jul 19 13:26:48 2016, MaxMem=    33554432 cpu:         0.6
 (Enter /home/proyectos/fulerenos/M3C-v2.0/M3C-deps_CCC/g09-AM64L-G09RevC.01/l702.exe)
 L702 exits ... SP integral derivatives will be done elsewhere.
 Leave Link  702 at Tue Jul 19 13:26:49 2016, MaxMem=    33554432 cpu:         0.0
 (Enter /home/proyectos/fulerenos/M3C-v2.0/M3C-deps_CCC/g09-AM64L-G09RevC.01/l703.exe)
 Compute integral second derivatives, UseDBF=F ICtDFT=           0.
 Integral derivatives from FoFJK, PRISM(SPDF).
 Calling FoFJK, ICntrl=    100127 FMM=F ISym2X=1 I1Cent= 0 IOpClX= 0 NMat=1 NMatS=1 NMatT=0.
 FoFJK:  IHMeth= 1 ICntrl=  100127 DoSepK=F KAlg= 0 I1Cent=   0 FoldK=F
 IRaf=         0 NMat=   1 IRICut=       1 DoRegI=T DoRafI=F ISym2E= 1.
 FoFCou: FMM=F IPFlag=           0 FMFlag=      100000 FMFlg1=         800
         NFxFlg=           0 DoJE=F BraDBF=F KetDBF=F FulRan=T
         wScrn=  0.000000 ICntrl=  100127 IOpCl=  0 I1Cent=           0 NGrid=           0
         NMat0=    1 NMatS0=      1 NMatT0=    0 NMatD0=    1 NMtDS0=    0 NMtDT0=    0
 Petite list used in FoFCou.
 Leave Link  703 at Tue Jul 19 13:31:12 2016, MaxMem=    33554432 cpu:       263.1
 (Enter /home/proyectos/fulerenos/M3C-v2.0/M3C-deps_CCC/g09-AM64L-G09RevC.01/l716.exe)
 Dipole        =-4.46756676D-17 1.39044507D-15 1.30024061D-03
 Polarizability= 2.41824387D+01-5.46235410D-09 2.55276958D+01
                 1.54171824D-09 1.17398409D-08 8.66294766D+01
 Full mass-weighted force constant matrix:
 Low frequencies ---  -26.1221   -5.4305   -3.5837   -0.0006   -0.0006    0.0002
 Low frequencies ---  190.7262  216.8900  425.8660
 Diagonal vibrational polarizability:
       13.5266340      12.1109912       4.9135081
 Harmonic frequencies (cm**-1), IR intensities (KM/Mole), Raman scattering
 activities (A**4/AMU), depolarization ratios for plane and unpolarized
 incident light, reduced masses (AMU), force constants (mDyne/A),
 and normal coordinates:
                      1                      2                      3
                     B2                     B1                     B2
 Frequencies --    190.7261               216.8900               425.8660
 Red. masses --      2.8272                 3.9838                 2.1189
 Frc consts  --      0.0606                 0.1104                 0.2264
 IR Inten    --     14.9257                14.8975                 0.4027
  Atom  AN      X      Y      Z        X      Y      Z        X      Y      Z
     1   6     0.00  -0.14  -0.00    -0.22  -0.00  -0.00     0.00  -0.03   0.00
     2   1     0.00  -0.34  -0.32    -0.42  -0.00  -0.00    -0.00   0.33   0.55
     3   1     0.00  -0.34   0.32    -0.42  -0.00   0.00    -0.00   0.33  -0.55
     4   6    -0.00   0.18  -0.00     0.29   0.00  -0.00     0.00  -0.21  -0.00
     5   6    -0.00   0.27   0.00     0.29   0.00   0.00    -0.00   0.23  -0.00
     6   6     0.00  -0.20   0.00    -0.24  -0.00   0.00     0.00  -0.03   0.00
     7   1     0.00  -0.63   0.00    -0.61  -0.00   0.00     0.00  -0.29   0.00
                      4                      5                      6
                     B1                     B1                     B2
 Frequencies --    522.3884               639.2838               867.4875
 Red. masses --      8.2879                 1.2386                 2.1161
 Frc consts  --      1.3325                 0.2983                 0.9382
 IR Inten    --      0.1243                46.8306                14.7433
  Atom  AN      X      Y      Z        X      Y      Z        X      Y      Z
     1   6    -0.12  -0.00  -0.00    -0.00  -0.00  -0.00    -0.00  -0.20  -0.00
     2   1    -0.34  -0.00  -0.00    -0.01   0.00   0.00     0.00   0.21   0.61
     3   1    -0.34  -0.00   0.00    -0.01   0.00  -0.00     0.00   0.21  -0.61
     4   6     0.56   0.00   0.00     0.02   0.00   0.00     0.00   0.24   0.00
     5   6    -0.56  -0.00   0.00     0.04   0.00  -0.00     0.00  -0.07   0.00
     6   6     0.15   0.00   0.00    -0.14  -0.00  -0.00     0.00  -0.03   0.00
     7   1     0.33  -0.00   0.00     0.99  -0.00  -0.00    -0.00   0.26   0.00
                      7                      8                      9
                     B1                     B2                     A1
 Frequencies --    883.4511               884.4426               921.6734
 Red. masses --      1.3218                 1.3918                 4.3079
 Frc consts  --      0.6078                 0.6415                 2.1561
 IR Inten    --     55.3400                 5.8650                 7.0874
  Atom  AN      X      Y      Z        X      Y      Z        X      Y      Z
     1   6    -0.16   0.00  -0.00     0.00   0.02  -0.00    -0.00  -0.00   0.35
     2   1     0.70  -0.00  -0.00    -0.00  -0.02  -0.07     0.00   0.08   0.52
     3   1     0.70  -0.00   0.00    -0.00  -0.02   0.07     0.00  -0.08   0.52
     4   6     0.04  -0.00  -0.00    -0.00  -0.03  -0.00     0.00   0.00   0.14
     5   6     0.01   0.00   0.00    -0.00   0.09   0.00     0.00   0.00  -0.21
     6   6    -0.00  -0.00   0.00     0.00  -0.16   0.00    -0.00  -0.00  -0.34
     7   1     0.00   0.00   0.00    -0.00   0.98   0.00    -0.00   0.00  -0.37
                     10                     11                     12
                     A1                     A1                     A1
 Frequencies --   1312.3106              1858.5451              2166.1943
 Red. masses --      1.1520                 7.9213                 7.2088
 Frc consts  --      1.1689                16.1210                19.9299
 IR Inten    --     53.4236                13.8570               468.2520
  Atom  AN      X      Y      Z        X      Y      Z        X      Y      Z
     1   6     0.00   0.00  -0.09    -0.00  -0.00  -0.42    -0.00   0.00   0.09
     2   1    -0.00   0.40   0.58     0.00   0.27  -0.11     0.00  -0.03   0.03
     3   1    -0.00  -0.40   0.58     0.00  -0.27  -0.11     0.00   0.03   0.03
     4   6    -0.00  -0.00  -0.06    -0.00  -0.00   0.58     0.00  -0.00  -0.31
     5   6    -0.00  -0.00   0.01     0.00   0.00   0.18     0.00   0.00   0.59
     6   6     0.00   0.00   0.04    -0.00  -0.00  -0.29    -0.00   0.00  -0.32
     7   1     0.00  -0.00   0.05    -0.00  -0.00  -0.45     0.00  -0.00  -0.66
                     13                     14                     15
                     A1                     B2                     A1
 Frequencies --   3063.3495              3133.9339              3370.8334
 Red. masses --      1.0605                 1.1110                 1.1564
 Frc consts  --      5.8633                 6.4288                 7.7416
 IR Inten    --    244.8677               102.2791               151.3802
  Atom  AN      X      Y      Z        X      Y      Z        X      Y      Z
     1   6     0.00  -0.00   0.07    -0.00  -0.10  -0.00     0.00  -0.00  -0.00
     2   1    -0.00   0.61  -0.36     0.00   0.59  -0.38     0.00  -0.00   0.00
     3   1    -0.00  -0.61  -0.36     0.00   0.59   0.38     0.00   0.00   0.00
     4   6     0.00   0.00  -0.01    -0.00  -0.00   0.00    -0.00  -0.00  -0.00
     5   6    -0.00  -0.00  -0.00     0.00  -0.00  -0.00    -0.00   0.00   0.03
     6   6    -0.00  -0.00   0.00     0.00   0.00   0.00    -0.00  -0.00  -0.11
     7   1     0.00   0.00   0.01     0.00   0.00  -0.00     0.00   0.00   0.99

 -------------------
 - Thermochemistry -
 -------------------
 Temperature   298.150 Kelvin.  Pressure   1.00000 Atm.
 Atom     1 has atomic number  6 and mass  12.00000
 Atom     2 has atomic number  1 and mass   1.00783
 Atom     3 has atomic number  1 and mass   1.00783
 Atom     4 has atomic number  6 and mass  12.00000
 Atom     5 has atomic number  6 and mass  12.00000
 Atom     6 has atomic number  6 and mass  12.00000
 Atom     7 has atomic number  1 and mass   1.00783
 Molecular mass:    51.02348 amu.
 Principal axes and moments of inertia in atomic units:
                           1         2         3
     Eigenvalues --     6.28640 424.08758 430.37398
           X            0.00000  -0.00000   1.00000
           Y            0.00000   1.00000   0.00000
           Z            1.00000   0.00000   0.00000
 This molecule is an asymmetric top.
 Rotational symmetry number  2.
 Rotational temperatures (Kelvin)     13.77796     0.20424     0.20125
 Rotational constants (GHZ):         287.08649     4.25559     4.19343
 Zero-point vibrational energy     122362.3 (Joules/Mol)
                                   29.24529 (Kcal/Mol)
 Warning -- explicit consideration of   4 degrees of freedom as
           vibrations may cause significant error
 Vibrational temperatures:    274.41   312.06   612.73   751.60   919.79
          (Kelvin)           1248.12  1271.09  1272.51  1326.08  1888.12
                             2674.03  3116.67  4407.47  4509.03  4849.87
 
 Zero-point correction=                           0.046605 (Hartree/Particle)
 Thermal correction to Energy=                    0.051418
 Thermal correction to Enthalpy=                  0.052362
 Thermal correction to Gibbs Free Energy=         0.021629
 Sum of electronic and zero-point Energies=           -153.788777
 Sum of electronic and thermal Energies=              -153.783965
 Sum of electronic and thermal Enthalpies=            -153.783020
 Sum of electronic and thermal Free Energies=         -153.813754
 
                     E (Thermal)             CV                S
                      KCal/Mol        Cal/Mol-Kelvin    Cal/Mol-Kelvin
 Total                   32.265             15.425             64.685
 Electronic               0.000              0.000              0.000
 Translational            0.889              2.981             37.712
 Rotational               0.889              2.981             20.289
 Vibrational             30.488              9.463              6.683
 Vibration     1          0.634              1.853              2.221
 Vibration     2          0.646              1.815              1.985
 Vibration     3          0.788              1.414              0.872
 Vibration     4          0.877              1.200              0.604
                       Q            Log10(Q)             Ln(Q)
 Total Bot       0.112591D-09         -9.948498        -22.907263
 Total V=0       0.307907D+12         11.488420         26.453065
 Vib (Bot)       0.129635D-20        -20.887277        -48.094732
 Vib (Bot)    1  0.104908D+01          0.020810          0.047916
 Vib (Bot)    2  0.913182D+00         -0.039443         -0.090820
 Vib (Bot)    3  0.410456D+00         -0.386733         -0.890487
 Vib (Bot)    4  0.308315D+00         -0.511006         -1.176634
 Vib (V=0)       0.354521D+01          0.549642          1.265596
 Vib (V=0)    1  0.166214D+01          0.220668          0.508107
 Vib (V=0)    2  0.154111D+01          0.187832          0.432500
 Vib (V=0)    3  0.114690D+01          0.059524          0.137059
 Vib (V=0)    4  0.108742D+01          0.036396          0.083805
 Electronic      0.100000D+01          0.000000          0.000000
 Translational   0.143255D+08          7.156110         16.477553
 Rotational      0.606273D+04          3.782668          8.709916
 
                                                              b3lyp opt
                                                             IR Spectrum
 
      3       3  3                                 2          1                    1                                                 
      3       1  0                                 1          8                    3             9888       6    5  4       21       
      7       3  6                                 6          5                    1             2886       3    2  2       19       
      1       4  3                                 6          9                    2             2437       9    2  6       71       
 
      X       X  X                                 X          X                    X             XXXX       X    X  X       XX       
      X       X  X                                 X                               X               X        X                        
      X       X  X                                 X                                                                                 
      X       X  X                                 X                                                                                 
      X          X                                 X                                                                                 
      X          X                                 X                                                                                 
                 X                                 X                                                                                 
                 X                                 X                                                                                 
                 X                                 X                                                                                 
                 X                                 X                                                                                 
                                                   X                                                                                 
                                                   X                                                                                 
                                                   X                                                                                 
                                                   X                                                                                 
                                                   X                                                                                 
                                                   X                                                                                 
                                                   X                                                                                 
                                                   X                                                                                 
                                                   X                                                                                 
                                                   X                                                                                 
 
 ***** Axes restored to original set *****
 -------------------------------------------------------------------
 Center     Atomic                   Forces (Hartrees/Bohr)
 Number     Number              X              Y              Z
 -------------------------------------------------------------------
      1        6          -0.000000003   -0.000034707   -0.000000000
      2        1          -0.000000107    0.000006363   -0.000000000
      3        1           0.000000108    0.000006363    0.000000000
      4        6          -0.000000003   -0.000035157   -0.000000000
      5        6          -0.000000003   -0.000030723   -0.000000000
      6        6           0.000000009    0.000094378   -0.000000000
      7        1          -0.000000001   -0.000006516   -0.000000000
 -------------------------------------------------------------------
 Cartesian Forces:  Max     0.000094378 RMS     0.000024315
 Z-matrix is all fixed cartesians, so copy forces.
 Force constants in Cartesian coordinates: 
                1             2             3             4             5 
      1  0.529172D+00
      2  0.332054D-04  0.877574D+00
      3  0.000000D+00  0.000000D+00  0.919683D-01
      4 -0.238335D+00  0.123131D+00  0.000000D+00  0.254955D+00
      5  0.129640D+00 -0.109425D+00  0.000000D+00 -0.135783D+00  0.121737D+00
      6  0.000000D+00  0.000000D+00 -0.297301D-01  0.000000D+00  0.000000D+00
      7 -0.238383D+00 -0.123106D+00  0.000000D+00 -0.155491D-01 -0.128841D-01
      8 -0.129616D+00 -0.109377D+00  0.000000D+00  0.128890D-01  0.100210D-01
      9  0.000000D+00  0.000000D+00 -0.297301D-01  0.000000D+00  0.000000D+00
     10 -0.841762D-01 -0.503130D-04  0.000000D+00  0.116992D-02  0.219083D-01
     11 -0.503150D-04 -0.612078D+00  0.000000D+00  0.358703D-02 -0.229826D-01
     12  0.000000D+00  0.000000D+00 -0.380410D-01  0.000000D+00  0.000000D+00
     13  0.309397D-01 -0.106841D-04  0.000000D+00 -0.239530D-02 -0.272448D-02
     14 -0.106813D-04 -0.811482D-01  0.000000D+00 -0.578269D-02  0.144780D-02
     15  0.000000D+00  0.000000D+00  0.490977D-02  0.000000D+00  0.000000D+00
     16  0.273896D-02  0.291976D-05  0.000000D+00 -0.825761D-05 -0.367473D-03
     17  0.292045D-05  0.333724D-01  0.000000D+00  0.158292D-02 -0.522951D-03
     18  0.000000D+00  0.000000D+00  0.671299D-03  0.000000D+00  0.000000D+00
     19 -0.195620D-02  0.000000D+00  0.000000D+00  0.162847D-03  0.210533D-03
     20  0.000000D+00  0.108183D-02  0.000000D+00  0.376019D-03 -0.275164D-03
     21  0.000000D+00  0.000000D+00 -0.480613D-04  0.000000D+00  0.000000D+00
                6             7             8             9            10 
      6  0.112380D-01
      7  0.000000D+00  0.255007D+00
      8  0.000000D+00  0.135758D+00  0.121685D+00
      9  0.112640D-01  0.000000D+00  0.000000D+00  0.112380D-01
     10  0.000000D+00  0.116506D-02 -0.219129D-01  0.000000D+00  0.137143D+00
     11  0.000000D+00 -0.359164D-02 -0.229777D-01  0.000000D+00  0.101619D-03
     12  0.423541D-02  0.000000D+00  0.000000D+00  0.423541D-02  0.000000D+00
     13  0.000000D+00 -0.239368D-02  0.272521D-02  0.000000D+00 -0.605165D-01
     14  0.000000D+00  0.578342D-02  0.144617D-02  0.000000D+00 -0.367049D-04
     15  0.324254D-02  0.000000D+00  0.000000D+00  0.324254D-02  0.000000D+00
     16  0.000000D+00 -0.848928D-05  0.367375D-03  0.000000D+00  0.139360D-02
     17  0.000000D+00 -0.158302D-02 -0.522720D-03  0.000000D+00 -0.943104D-05
     18 -0.103092D-03  0.000000D+00  0.000000D+00 -0.103092D-03  0.000000D+00
     19  0.000000D+00  0.162735D-03 -0.210617D-03  0.000000D+00  0.382111D-02
     20  0.000000D+00 -0.376102D-03 -0.275052D-03  0.000000D+00  0.000000D+00
     21 -0.146720D-03  0.000000D+00  0.000000D+00 -0.146720D-03  0.000000D+00
               11            12            13            14            15 
     11  0.120335D+01
     12  0.000000D+00  0.681327D-01
     13 -0.366988D-04  0.000000D+00  0.645031D-01
     14 -0.445606D+00  0.000000D+00  0.129484D-03  0.142309D+01
     15  0.000000D+00 -0.485497D-01  0.000000D+00  0.000000D+00  0.637170D-01
     16 -0.943416D-05  0.000000D+00 -0.461696D-01 -0.824909D-04  0.000000D+00
     17 -0.975788D-01  0.000000D+00 -0.824948D-04 -0.911700D+00  0.000000D+00
     18  0.000000D+00  0.482322D-02  0.000000D+00  0.000000D+00 -0.282092D-01
     19  0.000000D+00  0.000000D+00  0.160322D-01  0.000000D+00  0.000000D+00
     20 -0.212804D-02  0.000000D+00  0.000000D+00  0.124730D-01  0.000000D+00
     21  0.000000D+00  0.516393D-02  0.000000D+00  0.000000D+00  0.164699D-02
               16            17            18            19            20 
     16  0.822950D-01
     17  0.123281D-03  0.137579D+01
     18  0.000000D+00  0.000000D+00  0.421096D-01
     19 -0.402412D-01 -0.341770D-04  0.000000D+00  0.220185D-01
     20 -0.341775D-04 -0.398840D+00  0.000000D+00  0.348776D-04  0.387964D+00
     21  0.000000D+00  0.000000D+00 -0.191888D-01  0.000000D+00  0.000000D+00
               21 
     21  0.127194D-01
 Leave Link  716 at Tue Jul 19 13:31:12 2016, MaxMem=    33554432 cpu:         0.1
 (Enter /home/proyectos/fulerenos/M3C-v2.0/M3C-deps_CCC/g09-AM64L-G09RevC.01/l103.exe)

 GradGradGradGradGradGradGradGradGradGradGradGradGradGradGradGradGradGrad
 Berny optimization.
 Search for a local minimum.
 Step number   1 out of a maximum of    2
 All quantities printed in internal units (Hartrees-Bohrs-Radians)
 Second derivative matrix not updated -- analytic derivatives used.
 ITU=  0
     Eigenvalues ---    0.00418   0.00751   0.02149   0.04250   0.06617
     Eigenvalues ---    0.09229   0.11586   0.14287   0.19959   0.20488
     Eigenvalues ---    0.41185   0.75227   0.81137   1.72076   2.40440
 Angle between quadratic step and forces=  48.33 degrees.
 ClnCor:  largest displacement from symmetrization is 2.58D-11 for atom     3.
 Linear search not attempted -- first point.
 ClnCor:  largest displacement from symmetrization is 1.79D-15 for atom     3.
 B after Tr=    -0.000000   -0.000007   -0.000000
         Rot=    1.000000    0.000000    0.000000   -0.000000 Ang=   0.00 deg.
 Variable       Old X    -DE/DX   Delta X   Delta X   Delta X     New X
                                 (Linear)    (Quad)   (Total)
    X1       -0.00032  -0.00000   0.00000  -0.00000  -0.00000  -0.00032
    Y1       -3.48850  -0.00003   0.00000  -0.00010  -0.00011  -3.48861
    Z1        0.00000  -0.00000   0.00000   0.00000   0.00000   0.00000
    X2        1.76559  -0.00000   0.00000   0.00004   0.00004   1.76563
    Y2       -4.55435   0.00001   0.00000  -0.00000  -0.00001  -4.55436
    Z2        0.00000  -0.00000   0.00000   0.00000   0.00000   0.00000
    X3       -1.76643   0.00000   0.00000  -0.00004  -0.00004  -1.76648
    Y3       -4.55402   0.00001   0.00000  -0.00000  -0.00001  -4.55403
    Z3       -0.00000   0.00000   0.00000  -0.00000  -0.00000  -0.00000
    X4       -0.00009  -0.00000   0.00000  -0.00000  -0.00000  -0.00009
    Y4       -1.07444  -0.00004   0.00000  -0.00006  -0.00007  -1.07451
    Z4        0.00000  -0.00000   0.00000   0.00000   0.00000   0.00000
    X5        0.00015  -0.00000   0.00000   0.00000   0.00000   0.00015
    Y5        1.41009  -0.00003   0.00000   0.00002   0.00001   1.41010
    Z5       -0.00000  -0.00000   0.00000  -0.00000  -0.00000  -0.00000
    X6        0.00037   0.00000   0.00000   0.00000   0.00000   0.00037
    Y6        3.71420   0.00009   0.00000   0.00011   0.00010   3.71430
    Z6       -0.00000  -0.00000   0.00000  -0.00000  -0.00000  -0.00000
    X7        0.00056  -0.00000   0.00000   0.00000   0.00000   0.00056
    Y7        5.74031  -0.00001   0.00000   0.00009   0.00009   5.74040
    Z7       -0.00000  -0.00000   0.00000  -0.00000  -0.00000  -0.00000
         Item               Value     Threshold  Converged?
 Maximum Force            0.000094     0.000450     YES
 RMS     Force            0.000024     0.000300     YES
 Maximum Displacement     0.000106     0.001800     YES
 RMS     Displacement     0.000042     0.001200     YES
 Predicted change in Energy=-7.241766D-09
 Optimization completed.
    -- Stationary point found.
 GradGradGradGradGradGradGradGradGradGradGradGradGradGradGradGradGradGrad

 Leave Link  103 at Tue Jul 19 13:31:12 2016, MaxMem=    33554432 cpu:         0.0
 (Enter /home/proyectos/fulerenos/M3C-v2.0/M3C-deps_CCC/g09-AM64L-G09RevC.01/l9999.exe)
 1\1\GINC-EINSTENIO\Freq\RB3LYP\6-311++G(3df,2p)\C4H3(1+)\ROOT\19-Jul-2
 016\0\\#p b3lyp/6-311++G(3df,2p) freq symmetry=Loose\\b3lyp opt\\1,1\C
 ,-0.000169507,-1.846033999,0.\H,0.934309767,-2.410059582,0.\H,-0.93475
 62759,-2.4098814459,0.\C,-0.000047755,-0.568568995,0.\C,0.000077551,0.
 746185,0.\C,0.0001937579,1.965467997,0.\H,0.0002959441,3.037640994,0.\
 \Version=EM64L-G09RevE.01\State=1-A1\HF=-153.8353828\RMSD=1.254e-09\RM
 SF=2.431e-05\ZeroPoint=0.0466053\Thermal=0.0514182\Dipole=0.0000001,0.
 0013002,0.\DipoleDeriv=-0.1652245,-0.0000549,0.,-0.0000549,-0.7412029,
 0.,0.,0.,0.001097,0.2401909,-0.1871707,0.,-0.054768,0.3326751,0.,0.,0.
 ,0.1911407,0.240237,0.1871883,0.,0.0547856,0.332629,0.,0.,0.,0.1911407
 ,0.3238853,0.0001075,0.,0.0001075,1.4514559,0.,0.,0.,0.1506568,-0.0472
 863,-0.0001317,0.,-0.0001318,-1.4297354,0.,0.,0.,0.1449385,0.2511878,0
 .000026,0.,0.000026,0.5239394,0.,0.,0.,0.068478,0.1570099,0.0000356,0.
 ,0.0000356,0.530239,0.,0.,0.,0.2525483\Polar=25.5276964,0.0058235,86.6
 29476,0.,0.,24.1824387\PG=C02V [C2(C1C1C1C1H1),SGV(H2)]\NImag=0\\0.529
 17202,0.00003321,0.87757363,0.,0.,0.09196831,-0.23833504,0.12313083,0.
 ,0.25495497,0.12964034,-0.10942485,0.,-0.13578312,0.12173675,0.,0.,-0.
 02973014,0.,0.,0.01123799,-0.23838321,-0.12310625,0.,-0.01554915,-0.01
 288413,0.,0.25500673,-0.12961576,-0.10937667,0.,0.01288901,0.01002099,
 0.,0.13575772,0.12168499,0.,0.,-0.02973014,0.,0.,0.01126402,0.,0.,0.01
 123799,-0.08417622,-0.00005031,0.,0.00116992,0.02190833,0.,0.00116506,
 -0.02191294,0.,0.13714301,-0.00005031,-0.61207817,0.,0.00358703,-0.022
 98257,0.,-0.00359164,-0.02297771,0.,0.00010162,1.20335155,0.,0.,-0.038
 04104,0.,0.,0.00423541,0.,0.,0.00423541,0.,0.,0.06813273,0.03093969,-0
 .00001068,0.,-0.00239530,-0.00272448,0.,-0.00239368,0.00272521,0.,-0.0
 6051647,-0.00003670,0.,0.06450313,-0.00001068,-0.08114822,0.,-0.005782
 69,0.00144780,0.,0.00578342,0.00144617,0.,-0.00003670,-0.44560630,0.,0
 .00012948,1.42308798,0.,0.,0.00490977,0.,0.,0.00324254,0.,0.,0.0032425
 4,0.,0.,-0.04854965,0.,0.,0.06371698,0.00273896,0.00000292,0.,-0.00000
 826,-0.00036747,0.,-0.00000849,0.00036737,0.,0.00139360,-0.00000943,0.
 ,-0.04616960,-0.00008249,0.,0.08229500,0.00000292,0.03337244,0.,0.0015
 8292,-0.00052295,0.,-0.00158302,-0.00052272,0.,-0.00000943,-0.09757877
 ,0.,-0.00008249,-0.91170039,0.,0.00012328,1.37579280,0.,0.,0.00067130,
 0.,0.,-0.00010309,0.,0.,-0.00010309,0.,0.,0.00482322,0.,0.,-0.02820918
 ,0.,0.,0.04210963,-0.00195620,0.00000029,0.,0.00016285,0.00021053,0.,0
 .00016274,-0.00021062,0.,0.00382111,-0.00000057,0.,0.01603222,-0.00000
 034,0.,-0.04024121,-0.00003418,0.,0.02201850,0.00000029,0.00108183,0.,
 0.00037602,-0.00027516,0.,-0.00037610,-0.00027505,0.,-0.00000057,-0.00
 212804,0.,-0.00000034,0.01247295,0.,-0.00003418,-0.39884041,0.,0.00003
 488,0.38796388,0.,0.,-0.00004806,0.,0.,-0.00014672,0.,0.,-0.00014672,0
 .,0.,0.00516393,0.,0.,0.00164699,0.,0.,-0.01918879,0.,0.,0.01271937\\0
 .,0.00003471,0.,0.00000011,-0.00000636,0.,-0.00000011,-0.00000636,0.,0
 .,0.00003516,0.,0.,0.00003072,0.,0.,-0.00009438,0.,0.,0.00000652,0.\\\
 @


 CHARLIE BROWN -- WHICH DO YOU THINK LASTS LONGER IN LIFE, THE GOOD THINGS 
                  OR THE BAD THINGS?
 LINUS --         GOOD THINGS LAST EIGHT SECONDS ..
                  BAD THINGS LAST THREE WEEKS
 CHARLIE BROWN -- WHAT ABOUT IN BETWEEN?
 SNOOPY --        IN BETWEEN YOU SHOULD TAKE A NAP ...
 Job cpu time:       0 days  0 hours 14 minutes 38.1 seconds.
 File lengths (MBytes):  RWF=     23 Int=      0 D2E=      0 Chk=      3 Scr=      1
 Normal termination of Gaussian 09 at Tue Jul 19 13:31:12 2016.
