 Entering Gaussian System, Link 0=/home/proyectos/fulerenos/M3C-v2.0/M3C-deps_CCC/g09-AM64L-G09RevC.01/g09
 Initial command:
 /home/proyectos/fulerenos/M3C-v2.0/M3C-deps_CCC/g09-AM64L-G09RevC.01/l1.exe "/scratch/naguirre/gaussian/Gau-12819.inp" -scrdir="/scratch/naguirre/gaussian/"
 Entering Link 1 = /home/proyectos/fulerenos/M3C-v2.0/M3C-deps_CCC/g09-AM64L-G09RevC.01/l1.exe PID=     12826.
  
 Copyright (c) 1988,1990,1992,1993,1995,1998,2003,2009,2015,
            Gaussian, Inc.  All Rights Reserved.
  
 This is part of the Gaussian(R) 09 program.  It is based on
 the Gaussian(R) 03 system (copyright 2003, Gaussian, Inc.),
 the Gaussian(R) 98 system (copyright 1998, Gaussian, Inc.),
 the Gaussian(R) 94 system (copyright 1995, Gaussian, Inc.),
 the Gaussian 92(TM) system (copyright 1992, Gaussian, Inc.),
 the Gaussian 90(TM) system (copyright 1990, Gaussian, Inc.),
 the Gaussian 88(TM) system (copyright 1988, Gaussian, Inc.),
 the Gaussian 86(TM) system (copyright 1986, Carnegie Mellon
 University), and the Gaussian 82(TM) system (copyright 1983,
 Carnegie Mellon University). Gaussian is a federally registered
 trademark of Gaussian, Inc.
  
 This software contains proprietary and confidential information,
 including trade secrets, belonging to Gaussian, Inc.
  
 This software is provided under written license and may be
 used, copied, transmitted, or stored only in accord with that
 written license.
  
 The following legend is applicable only to US Government
 contracts under FAR:
  
                    RESTRICTED RIGHTS LEGEND
  
 Use, reproduction and disclosure by the US Government is
 subject to restrictions as set forth in subparagraphs (a)
 and (c) of the Commercial Computer Software - Restricted
 Rights clause in FAR 52.227-19.
  
 Gaussian, Inc.
 340 Quinnipiac St., Bldg. 40, Wallingford CT 06492
  
  
 ---------------------------------------------------------------
 Warning -- This program may not be used in any manner that
 competes with the business of Gaussian, Inc. or will provide
 assistance to any competitor of Gaussian, Inc.  The licensee
 of this program is prohibited from giving any competitor of
 Gaussian, Inc. access to this program.  By using this program,
 the user acknowledges that Gaussian, Inc. is engaged in the
 business of creating and licensing software in the field of
 computational chemistry and represents and warrants to the
 licensee that it is not a competitor of Gaussian, Inc. and that
 it will not use this program in any manner prohibited above.
 ---------------------------------------------------------------
  

 Cite this work as:
 Gaussian 09, Revision E.01,
 M. J. Frisch, G. W. Trucks, H. B. Schlegel, G. E. Scuseria, 
 M. A. Robb, J. R. Cheeseman, G. Scalmani, V. Barone, B. Mennucci, 
 G. A. Petersson, H. Nakatsuji, M. Caricato, X. Li, H. P. Hratchian, 
 A. F. Izmaylov, J. Bloino, G. Zheng, J. L. Sonnenberg, M. Hada, 
 M. Ehara, K. Toyota, R. Fukuda, J. Hasegawa, M. Ishida, T. Nakajima, 
 Y. Honda, O. Kitao, H. Nakai, T. Vreven, J. A. Montgomery, Jr., 
 J. E. Peralta, F. Ogliaro, M. Bearpark, J. J. Heyd, E. Brothers, 
 K. N. Kudin, V. N. Staroverov, T. Keith, R. Kobayashi, J. Normand, 
 K. Raghavachari, A. Rendell, J. C. Burant, S. S. Iyengar, J. Tomasi, 
 M. Cossi, N. Rega, J. M. Millam, M. Klene, J. E. Knox, J. B. Cross, 
 V. Bakken, C. Adamo, J. Jaramillo, R. Gomperts, R. E. Stratmann, 
 O. Yazyev, A. J. Austin, R. Cammi, C. Pomelli, J. W. Ochterski, 
 R. L. Martin, K. Morokuma, V. G. Zakrzewski, G. A. Voth, 
 P. Salvador, J. J. Dannenberg, S. Dapprich, A. D. Daniels, 
 O. Farkas, J. B. Foresman, J. V. Ortiz, J. Cioslowski, 
 and D. J. Fox, Gaussian, Inc., Wallingford CT, 2013.
 
 ******************************************
 Gaussian 09:  EM64L-G09RevE.01 30-Nov-2015
                31-Jan-2019 
 ******************************************
 %NProcShared=4
 Will use up to    4 processors via shared memory.
 ------------------------------------------------------
 #p b3lyp/6-311++G(3df,2p) freq IOp(2/17=3) IOp(2/18=3)
 ------------------------------------------------------
 1/10=4,30=1,38=1/1,3;
 2/12=2,17=3,18=3,40=1/2;
 3/5=4,6=6,7=1216,11=2,16=1,25=1,30=1,71=2,74=-5,140=1/1,2,3;
 4//1;
 5/5=2,38=5,98=1/2;
 8/6=4,10=90,11=11/1;
 11/6=1,8=1,9=11,15=111,16=1/1,2,10;
 10/6=1/2;
 6/7=2,8=2,9=2,10=2,18=1,28=1/1;
 7/8=1,10=1,25=1/1,2,3,16;
 1/10=4,30=1/3;
 99//99;
 Leave Link    1 at Thu Jan 31 05:15:59 2019, MaxMem=           0 cpu:         0.2
 (Enter /home/proyectos/fulerenos/M3C-v2.0/M3C-deps_CCC/g09-AM64L-G09RevC.01/l101.exe)
 ---------
 b3lyp opt
 ---------
 Symbolic Z-matrix:
 Charge =  1 Multiplicity = 1
 C                    -0.0051    1.03215   0.40863 
 C                    -0.89366   0.07673  -0.20043 
 H                    -1.79545   0.16221  -0.79544 
 C                     0.00458  -0.93528   0.14986 
 H                     0.00928  -1.89674   0.64454 
 C                     0.89287   0.08551  -0.20036 
 H                     1.79382   0.17984  -0.7953 
 
 NAtoms=      7 NQM=        7 NQMF=       0 NMMI=      0 NMMIF=      0
                NMic=       0 NMicF=      0.
                    Isotopes and Nuclear Properties:
 (Nuclear quadrupole moments (NQMom) in fm**2, nuclear magnetic moments (NMagM)
  in nuclear magnetons)

  Atom         1           2           3           4           5           6           7
 IAtWgt=          12          12           1          12           1          12           1
 AtmWgt=  12.0000000  12.0000000   1.0078250  12.0000000   1.0078250  12.0000000   1.0078250
 NucSpn=           0           0           1           0           1           0           1
 AtZEff=   0.0000000   0.0000000   0.0000000   0.0000000   0.0000000   0.0000000   0.0000000
 NQMom=    0.0000000   0.0000000   0.0000000   0.0000000   0.0000000   0.0000000   0.0000000
 NMagM=    0.0000000   0.0000000   2.7928460   0.0000000   2.7928460   0.0000000   2.7928460
 AtZNuc=   6.0000000   6.0000000   1.0000000   6.0000000   1.0000000   6.0000000   1.0000000
 Leave Link  101 at Thu Jan 31 05:15:59 2019, MaxMem=    33554432 cpu:         0.3
 (Enter /home/proyectos/fulerenos/M3C-v2.0/M3C-deps_CCC/g09-AM64L-G09RevC.01/l103.exe)

 GradGradGradGradGradGradGradGradGradGradGradGradGradGradGradGradGradGrad
 Berny optimization.
 Initialization pass.
 Trust Radius=3.00D-01 FncErr=1.00D-07 GrdErr=1.00D-07
 Number of steps in this run=      2 maximum allowed number of steps=      2.
 GradGradGradGradGradGradGradGradGradGradGradGradGradGradGradGradGradGrad

 Leave Link  103 at Thu Jan 31 05:15:59 2019, MaxMem=    33554432 cpu:         0.1
 (Enter /home/proyectos/fulerenos/M3C-v2.0/M3C-deps_CCC/g09-AM64L-G09RevC.01/l202.exe)
                          Input orientation:                          
 ---------------------------------------------------------------------
 Center     Atomic      Atomic             Coordinates (Angstroms)
 Number     Number       Type             X           Y           Z
 ---------------------------------------------------------------------
      1          6           0       -0.005095    1.032150    0.408632
      2          6           0       -0.893664    0.076734   -0.200432
      3          1           0       -1.795453    0.162208   -0.795439
      4          6           0        0.004580   -0.935281    0.149860
      5          1           0        0.009284   -1.896739    0.644538
      6          6           0        0.892866    0.085511   -0.200360
      7          1           0        1.793819    0.179840   -0.795296
 ---------------------------------------------------------------------
                    Distance matrix (angstroms):
                    1          2          3          4          5
     1  C    0.000000
     2  C    1.439907   0.000000
     3  H    2.326364   1.083773   0.000000
     4  C    1.984400   1.397756   2.310452   0.000000
     5  H    2.938410   2.328924   3.093521   1.081264   0.000000
     6  C    1.439907   1.786551   2.754462   1.397756   2.328924
     7  H    2.326364   2.754462   3.589316   2.310452   3.093521
                    6          7
     6  C    0.000000
     7  H    1.083773   0.000000
 Stoichiometry    C4H3(1+)
 Framework group  CS[SG(C2H),X(C2H2)]
 Deg. of freedom     9
 Full point group                 CS      NOp   2
 Largest Abelian subgroup         CS      NOp   2
 Largest concise Abelian subgroup CS      NOp   2
                         Standard orientation:                         
 ---------------------------------------------------------------------
 Center     Atomic      Atomic             Coordinates (Angstroms)
 Number     Number       Type             X           Y           Z
 ---------------------------------------------------------------------
      1          6           0        0.566784   -0.954514    0.000000
      2          6           0       -0.185073   -0.111812   -0.893268
      3          1           0       -0.758363   -0.294718   -1.794626
      4          6           0       -0.000000    0.947222   -0.000000
      5          1           0        0.336334    1.974845   -0.000000
      6          6           0       -0.185073   -0.111812    0.893268
      7          1           0       -0.758363   -0.294718    1.794626
 ---------------------------------------------------------------------
 Rotational constants (GHZ):     16.5909210     15.7970930      9.5688973
 Leave Link  202 at Thu Jan 31 05:15:59 2019, MaxMem=    33554432 cpu:         0.0
 (Enter /home/proyectos/fulerenos/M3C-v2.0/M3C-deps_CCC/g09-AM64L-G09RevC.01/l301.exe)
 Standard basis: 6-311++G(3df,2p) (5D, 7F)
 Ernie: Thresh=  0.10000D-02 Tol=  0.10000D-05 Strict=F.
 There are   125 symmetry adapted cartesian basis functions of A'  symmetry.
 There are    85 symmetry adapted cartesian basis functions of A"  symmetry.
 There are   109 symmetry adapted basis functions of A'  symmetry.
 There are    77 symmetry adapted basis functions of A"  symmetry.
   186 basis functions,   268 primitive gaussians,   210 cartesian basis functions
    13 alpha electrons       13 beta electrons
       nuclear repulsion energy        94.8581187012 Hartrees.
 IExCor=  402 DFT=T Ex+Corr=B3LYP ExCW=0 ScaHFX=  0.200000
 ScaDFX=  0.800000  0.720000  1.000000  0.810000 ScalE2=  1.000000  1.000000
 IRadAn=      0 IRanWt=     -1 IRanGd=            0 ICorTp=0 IEmpDi=  4
 NAtoms=    7 NActive=    7 NUniq=    5 SFac= 1.96D+00 NAtFMM=   60 NAOKFM=F Big=F
 Integral buffers will be    131072 words long.
 Raffenetti 2 integral format.
 Two-electron integral symmetry is turned on.
 Leave Link  301 at Thu Jan 31 05:15:59 2019, MaxMem=    33554432 cpu:         0.3
 (Enter /home/proyectos/fulerenos/M3C-v2.0/M3C-deps_CCC/g09-AM64L-G09RevC.01/l302.exe)
 NPDir=0 NMtPBC=     1 NCelOv=     1 NCel=       1 NClECP=     1 NCelD=      1
         NCelK=      1 NCelE2=     1 NClLst=     1 CellRange=     0.0.
 One-electron integrals computed using PRISM.
 One-electron integral symmetry used in STVInt
 NBasis=   186 RedAO= T EigKep=  2.63D-05  NBF=   109    77
 NBsUse=   186 1.00D-06 EigRej= -1.00D+00 NBFU=   109    77
 Precomputing XC quadrature grid using
 IXCGrd= 4 IRadAn=           0 IRanWt=          -1 IRanGd=           0 AccXCQ= 0.00D+00.
 Generated NRdTot=       0 NPtTot=           0 NUsed=           0 NTot=          32
 NSgBfM=   210   210   210   210   210 MxSgAt=     7 MxSgA2=     7.
 Leave Link  302 at Thu Jan 31 05:15:59 2019, MaxMem=    33554432 cpu:         1.4
 (Enter /home/proyectos/fulerenos/M3C-v2.0/M3C-deps_CCC/g09-AM64L-G09RevC.01/l303.exe)
 DipDrv:  MaxL=1.
 Leave Link  303 at Thu Jan 31 05:15:59 2019, MaxMem=    33554432 cpu:         0.1
 (Enter /home/proyectos/fulerenos/M3C-v2.0/M3C-deps_CCC/g09-AM64L-G09RevC.01/l401.exe)
 ExpMin= 3.60D-02 ExpMax= 4.56D+03 ExpMxC= 6.82D+02 IAcc=3 IRadAn=         5 AccDes= 0.00D+00
 Harris functional with IExCor=  402 and IRadAn=       5 diagonalized for initial guess.
 HarFok:  IExCor=  402 AccDes= 0.00D+00 IRadAn=         5 IDoV= 1 UseB2=F ITyADJ=14
 ICtDFT=  3500011 ScaDFX=  1.000000  1.000000  1.000000  1.000000
 FoFCou: FMM=F IPFlag=           0 FMFlag=      100000 FMFlg1=           0
         NFxFlg=           0 DoJE=T BraDBF=F KetDBF=T FulRan=T
         wScrn=  0.000000 ICntrl=     500 IOpCl=  0 I1Cent=   200000004 NGrid=           0
         NMat0=    1 NMatS0=      1 NMatT0=    0 NMatD0=    1 NMtDS0=    0 NMtDT0=    0
 Petite list used in FoFCou.
 Harris En= -153.832618635792    
 JPrj=0 DoOrth=F DoCkMO=F.
 Initial guess orbital symmetries:
       Occupied  (A') (A") (A') (A') (A') (A') (A") (A') (A') (A")
                 (A") (A') (A')
       Virtual   (A') (A") (A') (A') (A') (A") (A') (A') (A") (A')
                 (A") (A') (A") (A') (A") (A') (A') (A') (A") (A')
                 (A") (A') (A") (A") (A') (A') (A") (A') (A') (A')
                 (A") (A') (A') (A") (A') (A") (A") (A') (A") (A')
                 (A') (A') (A') (A") (A") (A') (A') (A") (A") (A')
                 (A') (A') (A") (A') (A') (A") (A') (A") (A") (A')
                 (A") (A') (A') (A') (A") (A") (A') (A") (A') (A')
                 (A') (A") (A') (A") (A') (A") (A') (A') (A") (A')
                 (A") (A') (A') (A") (A") (A') (A") (A') (A') (A")
                 (A') (A') (A") (A') (A") (A") (A') (A") (A') (A')
                 (A') (A") (A') (A") (A') (A') (A') (A") (A') (A')
                 (A") (A') (A") (A") (A') (A") (A') (A") (A') (A')
                 (A") (A') (A") (A') (A") (A') (A') (A") (A') (A")
                 (A") (A') (A") (A') (A') (A") (A') (A") (A') (A')
                 (A") (A") (A") (A') (A') (A") (A') (A") (A') (A')
                 (A') (A") (A") (A') (A') (A') (A") (A") (A') (A')
                 (A") (A') (A") (A') (A') (A') (A") (A") (A") (A')
                 (A') (A") (A')
 The electronic state of the initial guess is 1-A'.
 Leave Link  401 at Thu Jan 31 05:16:01 2019, MaxMem=    33554432 cpu:         5.0
 (Enter /home/proyectos/fulerenos/M3C-v2.0/M3C-deps_CCC/g09-AM64L-G09RevC.01/l502.exe)
 Closed shell SCF:
 Using DIIS extrapolation, IDIIS=  1040.
 Integral symmetry usage will be decided dynamically.
 IVT=      153868 IEndB=      153868 NGot=    33554432 MDV=    33461515
 LenX=    33461515 LenY=    33416974
 Requested convergence on RMS density matrix=1.00D-08 within 128 cycles.
 Requested convergence on MAX density matrix=1.00D-06.
 Requested convergence on             energy=1.00D-06.
 No special actions if energy rises.
 Fock matrices will be formed incrementally for  20 cycles.

 Cycle   1  Pass 1  IDiag  1:
 FoFJK:  IHMeth= 1 ICntrl=       0 DoSepK=F KAlg= 0 I1Cent=   0 FoldK=F
 IRaf= 990000000 NMat=   1 IRICut=       1 DoRegI=T DoRafI=F ISym2E= 1.
 FoFCou: FMM=F IPFlag=           0 FMFlag=      100000 FMFlg1=           0
         NFxFlg=           0 DoJE=F BraDBF=F KetDBF=F FulRan=T
         wScrn=  0.000000 ICntrl=       0 IOpCl=  0 I1Cent=           0 NGrid=           0
         NMat0=    1 NMatS0=      1 NMatT0=    0 NMatD0=    1 NMtDS0=    0 NMtDT0=    0
 Petite list used in FoFCou.
 E= -153.760418821685    
 DIIS: error= 1.11D-02 at cycle   1 NSaved=   1.
 NSaved= 1 IEnMin= 1 EnMin= -153.760418821685     IErMin= 1 ErrMin= 1.11D-02
 ErrMax= 1.11D-02  0.00D+00 EMaxC= 1.00D-01 BMatC= 2.56D-02 BMatP= 2.56D-02
 IDIUse=3 WtCom= 8.89D-01 WtEn= 1.11D-01
 Coeff-Com:  0.100D+01
 Coeff-En:   0.100D+01
 Coeff:      0.100D+01
 Gap=     0.182 Goal=   None    Shift=    0.000
 GapD=    0.182 DampG=1.000 DampE=0.500 DampFc=0.5000 IDamp=-1.
 Damping current iteration by 5.00D-01
 RMSDP=1.97D-03 MaxDP=8.29D-02              OVMax= 1.03D-01

 Cycle   2  Pass 1  IDiag  1:
 RMSU=  9.28D-04    CP:  1.02D+00
 E= -153.770158608894     Delta-E=       -0.009739787208 Rises=F Damp=T
 DIIS: error= 4.10D-03 at cycle   2 NSaved=   2.
 NSaved= 2 IEnMin= 2 EnMin= -153.770158608894     IErMin= 2 ErrMin= 4.10D-03
 ErrMax= 4.10D-03  0.00D+00 EMaxC= 1.00D-01 BMatC= 4.38D-03 BMatP= 2.56D-02
 IDIUse=3 WtCom= 9.59D-01 WtEn= 4.10D-02
 Coeff-Com: -0.287D+00 0.129D+01
 Coeff-En:   0.000D+00 0.100D+01
 Coeff:     -0.275D+00 0.128D+01
 Gap=     0.205 Goal=   None    Shift=    0.000
 RMSDP=1.09D-03 MaxDP=5.54D-02 DE=-9.74D-03 OVMax= 9.79D-02

 Cycle   3  Pass 1  IDiag  1:
 RMSU=  1.06D-03    CP:  1.04D+00  8.70D-01
 E= -153.773025183155     Delta-E=       -0.002866574261 Rises=F Damp=F
 DIIS: error= 6.16D-03 at cycle   3 NSaved=   3.
 NSaved= 3 IEnMin= 3 EnMin= -153.773025183155     IErMin= 2 ErrMin= 4.10D-03
 ErrMax= 6.16D-03  0.00D+00 EMaxC= 1.00D-01 BMatC= 7.13D-03 BMatP= 4.38D-03
 IDIUse=3 WtCom= 1.13D-01 WtEn= 8.87D-01
 Coeff-Com: -0.307D+00 0.883D+00 0.425D+00
 Coeff-En:   0.000D+00 0.335D+00 0.665D+00
 Coeff:     -0.348D-01 0.397D+00 0.637D+00
 Gap=     0.184 Goal=   None    Shift=    0.000
 RMSDP=1.28D-03 MaxDP=5.09D-02 DE=-2.87D-03 OVMax= 1.07D-01

 Cycle   4  Pass 1  IDiag  1:
 RMSU=  4.57D-04    CP:  1.04D+00  1.67D+00  1.21D-01
 E= -153.768236362006     Delta-E=        0.004788821149 Rises=F Damp=F
 DIIS: error= 7.44D-03 at cycle   4 NSaved=   4.
 NSaved= 4 IEnMin= 3 EnMin= -153.773025183155     IErMin= 2 ErrMin= 4.10D-03
 ErrMax= 7.44D-03  0.00D+00 EMaxC= 1.00D-01 BMatC= 1.12D-02 BMatP= 4.38D-03
 IDIUse=3 WtCom= 1.04D-01 WtEn= 8.96D-01
 Coeff-Com: -0.933D-01 0.229D+00 0.523D+00 0.341D+00
 Coeff-En:   0.000D+00 0.000D+00 0.585D+00 0.415D+00
 Coeff:     -0.969D-02 0.238D-01 0.578D+00 0.408D+00
 Gap=     0.192 Goal=   None    Shift=    0.000
 RMSDP=7.16D-04 MaxDP=2.64D-02 DE= 4.79D-03 OVMax= 6.04D-02

 Cycle   5  Pass 1  IDiag  1:
 RMSU=  1.19D-04    CP:  1.04D+00  1.21D+00  5.58D-01  3.07D-01
 E= -153.780791267668     Delta-E=       -0.012554905662 Rises=F Damp=F
 DIIS: error= 8.07D-04 at cycle   5 NSaved=   5.
 NSaved= 5 IEnMin= 5 EnMin= -153.780791267668     IErMin= 5 ErrMin= 8.07D-04
 ErrMax= 8.07D-04  0.00D+00 EMaxC= 1.00D-01 BMatC= 1.14D-04 BMatP= 4.38D-03
 IDIUse=3 WtCom= 9.92D-01 WtEn= 8.07D-03
 Coeff-Com:  0.230D-01-0.521D-01 0.220D+00 0.143D+00 0.667D+00
 Coeff-En:   0.000D+00 0.000D+00 0.000D+00 0.000D+00 0.100D+01
 Coeff:      0.228D-01-0.516D-01 0.218D+00 0.141D+00 0.669D+00
 Gap=     0.192 Goal=   None    Shift=    0.000
 RMSDP=8.37D-05 MaxDP=4.50D-03 DE=-1.26D-02 OVMax= 4.56D-03

 Cycle   6  Pass 1  IDiag  1:
 RMSU=  2.48D-05    CP:  1.04D+00  1.17D+00  6.16D-01  3.31D-01  7.99D-01
 E= -153.780908137510     Delta-E=       -0.000116869842 Rises=F Damp=F
 DIIS: error= 1.17D-04 at cycle   6 NSaved=   6.
 NSaved= 6 IEnMin= 6 EnMin= -153.780908137510     IErMin= 6 ErrMin= 1.17D-04
 ErrMax= 1.17D-04  0.00D+00 EMaxC= 1.00D-01 BMatC= 3.14D-06 BMatP= 1.14D-04
 IDIUse=3 WtCom= 9.99D-01 WtEn= 1.17D-03
 Coeff-Com:  0.159D-01-0.362D-01 0.438D-01 0.273D-01 0.291D+00 0.659D+00
 Coeff-En:   0.000D+00 0.000D+00 0.000D+00 0.000D+00 0.000D+00 0.100D+01
 Coeff:      0.159D-01-0.362D-01 0.437D-01 0.272D-01 0.290D+00 0.659D+00
 Gap=     0.192 Goal=   None    Shift=    0.000
 RMSDP=1.34D-05 MaxDP=6.60D-04 DE=-1.17D-04 OVMax= 7.55D-04

 Cycle   7  Pass 1  IDiag  1:
 RMSU=  8.15D-06    CP:  1.04D+00  1.17D+00  6.15D-01  3.32D-01  8.20D-01
                    CP:  7.30D-01
 E= -153.780910913986     Delta-E=       -0.000002776476 Rises=F Damp=F
 DIIS: error= 4.51D-05 at cycle   7 NSaved=   7.
 NSaved= 7 IEnMin= 7 EnMin= -153.780910913986     IErMin= 7 ErrMin= 4.51D-05
 ErrMax= 4.51D-05  0.00D+00 EMaxC= 1.00D-01 BMatC= 3.20D-07 BMatP= 3.14D-06
 IDIUse=1 WtCom= 1.00D+00 WtEn= 0.00D+00
 Coeff-Com:  0.195D-02-0.443D-02-0.184D-02-0.270D-02 0.410D-01 0.279D+00
 Coeff-Com:  0.687D+00
 Coeff:      0.195D-02-0.443D-02-0.184D-02-0.270D-02 0.410D-01 0.279D+00
 Coeff:      0.687D+00
 Gap=     0.192 Goal=   None    Shift=    0.000
 RMSDP=4.73D-06 MaxDP=2.19D-04 DE=-2.78D-06 OVMax= 1.80D-04

 Cycle   8  Pass 1  IDiag  1:
 RMSU=  2.07D-06    CP:  1.04D+00  1.17D+00  6.15D-01  3.30D-01  8.24D-01
                    CP:  7.87D-01  7.25D-01
 E= -153.780911220676     Delta-E=       -0.000000306690 Rises=F Damp=F
 DIIS: error= 2.91D-06 at cycle   8 NSaved=   8.
 NSaved= 8 IEnMin= 8 EnMin= -153.780911220676     IErMin= 8 ErrMin= 2.91D-06
 ErrMax= 2.91D-06  0.00D+00 EMaxC= 1.00D-01 BMatC= 1.61D-09 BMatP= 3.20D-07
 IDIUse=1 WtCom= 1.00D+00 WtEn= 0.00D+00
 Coeff-Com: -0.269D-03 0.558D-03-0.149D-02-0.116D-02-0.170D-02 0.315D-01
 Coeff-Com:  0.110D+00 0.863D+00
 Coeff:     -0.269D-03 0.558D-03-0.149D-02-0.116D-02-0.170D-02 0.315D-01
 Coeff:      0.110D+00 0.863D+00
 Gap=     0.192 Goal=   None    Shift=    0.000
 RMSDP=5.00D-07 MaxDP=2.20D-05 DE=-3.07D-07 OVMax= 4.07D-05

 Cycle   9  Pass 1  IDiag  1:
 RMSU=  3.15D-07    CP:  1.04D+00  1.17D+00  6.15D-01  3.29D-01  8.24D-01
                    CP:  7.97D-01  7.44D-01  1.00D+00
 E= -153.780911223049     Delta-E=       -0.000000002372 Rises=F Damp=F
 DIIS: error= 1.38D-06 at cycle   9 NSaved=   9.
 NSaved= 9 IEnMin= 9 EnMin= -153.780911223049     IErMin= 9 ErrMin= 1.38D-06
 ErrMax= 1.38D-06  0.00D+00 EMaxC= 1.00D-01 BMatC= 2.20D-10 BMatP= 1.61D-09
 IDIUse=1 WtCom= 1.00D+00 WtEn= 0.00D+00
 Coeff-Com: -0.185D-03 0.393D-03-0.557D-03-0.312D-03-0.261D-02 0.841D-04
 Coeff-Com:  0.112D-01 0.266D+00 0.726D+00
 Coeff:     -0.185D-03 0.393D-03-0.557D-03-0.312D-03-0.261D-02 0.841D-04
 Coeff:      0.112D-01 0.266D+00 0.726D+00
 Gap=     0.192 Goal=   None    Shift=    0.000
 RMSDP=1.64D-07 MaxDP=9.14D-06 DE=-2.37D-09 OVMax= 8.03D-06

 Cycle  10  Pass 1  IDiag  1:
 RMSU=  8.41D-08    CP:  1.04D+00  1.17D+00  6.15D-01  3.29D-01  8.24D-01
                    CP:  7.98D-01  7.52D-01  1.03D+00  8.66D-01
 E= -153.780911223296     Delta-E=       -0.000000000247 Rises=F Damp=F
 DIIS: error= 4.93D-07 at cycle  10 NSaved=  10.
 NSaved=10 IEnMin=10 EnMin= -153.780911223296     IErMin=10 ErrMin= 4.93D-07
 ErrMax= 4.93D-07  0.00D+00 EMaxC= 1.00D-01 BMatC= 2.08D-11 BMatP= 2.20D-10
 IDIUse=1 WtCom= 1.00D+00 WtEn= 0.00D+00
 Coeff-Com: -0.320D-04 0.672D-04-0.454D-04 0.388D-04-0.851D-03-0.398D-02
 Coeff-Com: -0.990D-02-0.171D-01 0.161D+00 0.871D+00
 Coeff:     -0.320D-04 0.672D-04-0.454D-04 0.388D-04-0.851D-03-0.398D-02
 Coeff:     -0.990D-02-0.171D-01 0.161D+00 0.871D+00
 Gap=     0.192 Goal=   None    Shift=    0.000
 RMSDP=4.59D-08 MaxDP=2.13D-06 DE=-2.47D-10 OVMax= 3.80D-06

 Cycle  11  Pass 1  IDiag  1:
 RMSU=  1.93D-08    CP:  1.04D+00  1.17D+00  6.15D-01  3.29D-01  8.24D-01
                    CP:  7.99D-01  7.53D-01  1.04D+00  9.31D-01  9.34D-01
 E= -153.780911223331     Delta-E=       -0.000000000035 Rises=F Damp=F
 DIIS: error= 4.44D-08 at cycle  11 NSaved=  11.
 NSaved=11 IEnMin=11 EnMin= -153.780911223331     IErMin=11 ErrMin= 4.44D-08
 ErrMax= 4.44D-08  0.00D+00 EMaxC= 1.00D-01 BMatC= 3.07D-13 BMatP= 2.08D-11
 IDIUse=1 WtCom= 1.00D+00 WtEn= 0.00D+00
 Coeff-Com:  0.118D-06-0.646D-06 0.106D-04 0.174D-04-0.500D-04-0.575D-03
 Coeff-Com: -0.180D-02-0.882D-02-0.648D-02 0.139D+00 0.878D+00
 Coeff:      0.118D-06-0.646D-06 0.106D-04 0.174D-04-0.500D-04-0.575D-03
 Coeff:     -0.180D-02-0.882D-02-0.648D-02 0.139D+00 0.878D+00
 Gap=     0.192 Goal=   None    Shift=    0.000
 RMSDP=6.55D-09 MaxDP=2.91D-07 DE=-3.50D-11 OVMax= 3.44D-07

 SCF Done:  E(RB3LYP) =  -153.780911223     A.U. after   11 cycles
            NFock= 11  Conv=0.66D-08     -V/T= 2.0046
 KE= 1.530789883725D+02 PE=-5.388784384552D+02 EE= 1.371604201582D+02
 Leave Link  502 at Thu Jan 31 05:16:30 2019, MaxMem=    33554432 cpu:       117.1
 (Enter /home/proyectos/fulerenos/M3C-v2.0/M3C-deps_CCC/g09-AM64L-G09RevC.01/l801.exe)
 DoSCS=F DFT=T ScalE2(SS,OS)=  1.000000  1.000000
 Range of M.O.s used for correlation:     1   186
 NBasis=   186 NAE=    13 NBE=    13 NFC=     0 NFV=     0
 NROrb=    186 NOA=    13 NOB=    13 NVA=   173 NVB=   173

 **** Warning!!: The largest alpha MO coefficient is  0.51216096D+02

 Leave Link  801 at Thu Jan 31 05:16:30 2019, MaxMem=    33554432 cpu:         0.1
 (Enter /home/proyectos/fulerenos/M3C-v2.0/M3C-deps_CCC/g09-AM64L-G09RevC.01/l1101.exe)
 Using compressed storage, NAtomX=     7.
 Will process      8 centers per pass.
 Leave Link 1101 at Thu Jan 31 05:16:31 2019, MaxMem=    33554432 cpu:         1.6
 (Enter /home/proyectos/fulerenos/M3C-v2.0/M3C-deps_CCC/g09-AM64L-G09RevC.01/l1102.exe)
 Symmetrizing basis deriv contribution to polar:
 IMax=3 JMax=2 DiffMx= 0.00D+00
 Leave Link 1102 at Thu Jan 31 05:16:31 2019, MaxMem=    33554432 cpu:         0.1
 (Enter /home/proyectos/fulerenos/M3C-v2.0/M3C-deps_CCC/g09-AM64L-G09RevC.01/l1110.exe)
 Forming Gx(P) for the SCF density, NAtomX=     7.
 Integral derivatives from FoFJK, PRISM(SPDF).
 Do as many integral derivatives as possible in FoFJK.
 G2DrvN: MDV=      33554272.
 G2DrvN: will do     8 centers at a time, making    1 passes.
 Calling FoFCou, ICntrl=  3107 FMM=F I1Cent=   0 AccDes= 0.00D+00.
 FoFJK:  IHMeth= 1 ICntrl=    3107 DoSepK=F KAlg= 0 I1Cent=   0 FoldK=F
 IRaf=         0 NMat=   1 IRICut=       1 DoRegI=T DoRafI=F ISym2E= 1.
 FoFCou: FMM=F IPFlag=           0 FMFlag=      100000 FMFlg1=           0
         NFxFlg=           0 DoJE=F BraDBF=F KetDBF=F FulRan=T
         wScrn=  0.000000 ICntrl=    3107 IOpCl=  0 I1Cent=           0 NGrid=           0
         NMat0=    1 NMatS0=      1 NMatT0=    0 NMatD0=    1 NMtDS0=    0 NMtDT0=    0
 Petite list used in FoFCou.
 End of G2Drv F.D. properties file   721 does not exist.
 End of G2Drv F.D. properties file   722 does not exist.
 End of G2Drv F.D. properties file   788 does not exist.
 Leave Link 1110 at Thu Jan 31 05:16:57 2019, MaxMem=    33554432 cpu:       103.4
 (Enter /home/proyectos/fulerenos/M3C-v2.0/M3C-deps_CCC/g09-AM64L-G09RevC.01/l1002.exe)
 Minotr:  Closed shell wavefunction.
          IDoAtm=1111111
          Direct CPHF calculation.
          Differentiating once with respect to electric field.
                with respect to dipole field.
          Differentiating once with respect to nuclear coordinates.
          Using symmetry in CPHF.
          Requested convergence is 1.0D-08 RMS, and 1.0D-07 maximum.
          Secondary convergence is 1.0D-12 RMS, and 1.0D-12 maximum.
          NewPWx=T KeepS1=F KeepF1=F KeepIn=T MapXYZ=F SortEE=F KeepMc=T.
          MDV=      33554172 using IRadAn=       2.
 Generate precomputed XC quadrature information.
          Solving linear equations simultaneously, MaxMat=       0.
 FoFJK:  IHMeth= 1 ICntrl=       0 DoSepK=F KAlg= 0 I1Cent=   0 FoldK=F
 IRaf= 990000000 NMat=  18 IRICut=      45 DoRegI=T DoRafI=T ISym2E= 2.
 FoFCou: FMM=F IPFlag=           0 FMFlag=      100000 FMFlg1=           0
         NFxFlg=           0 DoJE=F BraDBF=F KetDBF=F FulRan=T
         wScrn=  0.000000 ICntrl=       0 IOpCl=  0 I1Cent=           0 NGrid=           0
         NMat0=   18 NMatS0=     18 NMatT0=    0 NMatD0=   18 NMtDS0=    0 NMtDT0=    0
 Integrals replicated using symmetry in FoFCou.
          There are    18 degrees of freedom in the 1st order CPHF.  IDoFFX=4 NUNeed=    18.
     18 vectors produced by pass  0 Test12= 1.25D-14 5.56D-09 XBig12= 6.18D+01 5.78D+00.
 AX will form    18 AO Fock derivatives at one time.
     18 vectors produced by pass  1 Test12= 1.25D-14 5.56D-09 XBig12= 1.04D+01 8.02D-01.
     18 vectors produced by pass  2 Test12= 1.25D-14 5.56D-09 XBig12= 2.27D-01 1.14D-01.
     18 vectors produced by pass  3 Test12= 1.25D-14 5.56D-09 XBig12= 7.70D-04 6.41D-03.
     18 vectors produced by pass  4 Test12= 1.25D-14 5.56D-09 XBig12= 1.72D-06 3.54D-04.
     17 vectors produced by pass  5 Test12= 1.25D-14 5.56D-09 XBig12= 4.21D-09 1.79D-05.
      4 vectors produced by pass  6 Test12= 1.25D-14 5.56D-09 XBig12= 8.02D-12 4.88D-07.
      3 vectors produced by pass  7 Test12= 1.25D-14 5.56D-09 XBig12= 3.64D-14 5.54D-08.
      1 vectors produced by pass  8 Test12= 1.25D-14 5.56D-09 XBig12= 1.38D-15 7.49D-09.
 InvSVY:  IOpt=1 It=  1 EMax= 1.78D-15
 Solved reduced A of dimension   115 with    18 vectors.
 FullF1:  Do perturbations    1 to    18.
 Isotropic polarizability for W=    0.000000       34.71 Bohr**3.
 End of Minotr F.D. properties file   721 does not exist.
 End of Minotr F.D. properties file   722 does not exist.
 End of Minotr F.D. properties file   788 does not exist.
 Leave Link 1002 at Thu Jan 31 05:18:53 2019, MaxMem=    33554432 cpu:       462.7
 (Enter /home/proyectos/fulerenos/M3C-v2.0/M3C-deps_CCC/g09-AM64L-G09RevC.01/l601.exe)
 Copying SCF densities to generalized density rwf, IOpCl= 0 IROHF=0.

 **********************************************************************

            Population analysis using the SCF density.

 **********************************************************************

 Orbital symmetries:
       Occupied  (A') (A") (A') (A') (A') (A') (A") (A') (A') (A")
                 (A") (A') (A')
       Virtual   (A') (A") (A') (A') (A') (A") (A') (A') (A") (A')
                 (A") (A") (A') (A') (A") (A') (A') (A') (A") (A')
                 (A") (A') (A') (A") (A") (A') (A") (A') (A') (A')
                 (A") (A') (A") (A') (A') (A") (A") (A') (A") (A')
                 (A') (A') (A") (A') (A') (A") (A") (A') (A") (A')
                 (A') (A") (A') (A') (A') (A") (A') (A") (A") (A')
                 (A") (A') (A') (A') (A") (A") (A') (A") (A') (A')
                 (A') (A") (A') (A") (A') (A") (A') (A') (A") (A')
                 (A") (A') (A') (A") (A") (A') (A") (A') (A') (A')
                 (A") (A') (A") (A') (A") (A") (A') (A') (A") (A')
                 (A') (A') (A") (A") (A') (A') (A') (A") (A') (A')
                 (A") (A') (A") (A") (A') (A") (A') (A") (A') (A')
                 (A") (A') (A") (A') (A") (A') (A') (A") (A') (A")
                 (A") (A') (A") (A') (A') (A") (A') (A") (A') (A')
                 (A") (A") (A") (A') (A') (A') (A") (A") (A') (A')
                 (A') (A") (A") (A') (A') (A') (A") (A") (A') (A')
                 (A") (A') (A') (A") (A') (A') (A") (A") (A") (A')
                 (A') (A") (A')
 The electronic state is 1-A'.
 Alpha  occ. eigenvalues --  -10.52272 -10.52270 -10.51017 -10.48983  -1.24568
 Alpha  occ. eigenvalues --   -0.92125  -0.92037  -0.81824  -0.77008  -0.68426
 Alpha  occ. eigenvalues --   -0.65372  -0.64161  -0.51336
 Alpha virt. eigenvalues --   -0.32087  -0.30772  -0.28658  -0.15326  -0.14689
 Alpha virt. eigenvalues --   -0.14172  -0.11315  -0.11203  -0.08978  -0.08400
 Alpha virt. eigenvalues --   -0.07241  -0.05337  -0.05273  -0.04239  -0.03502
 Alpha virt. eigenvalues --   -0.02952  -0.01965  -0.01372  -0.00722   0.00336
 Alpha virt. eigenvalues --    0.01366   0.02206   0.04225   0.04229   0.05137
 Alpha virt. eigenvalues --    0.06351   0.06980   0.10519   0.14285   0.16411
 Alpha virt. eigenvalues --    0.16977   0.19878   0.22548   0.22915   0.24685
 Alpha virt. eigenvalues --    0.24825   0.26326   0.26926   0.29707   0.30368
 Alpha virt. eigenvalues --    0.32312   0.33638   0.34372   0.34881   0.37616
 Alpha virt. eigenvalues --    0.38479   0.38850   0.39928   0.43866   0.46270
 Alpha virt. eigenvalues --    0.47280   0.49057   0.49196   0.52112   0.55540
 Alpha virt. eigenvalues --    0.56859   0.60204   0.65641   0.66890   0.67183
 Alpha virt. eigenvalues --    0.71406   0.72589   0.80295   0.84564   0.86614
 Alpha virt. eigenvalues --    0.88547   0.92587   0.95037   0.95838   0.97161
 Alpha virt. eigenvalues --    1.00567   1.02611   1.03633   1.05018   1.08281
 Alpha virt. eigenvalues --    1.11858   1.13186   1.15722   1.20542   1.32929
 Alpha virt. eigenvalues --    1.34769   1.37344   1.52925   1.55326   1.60394
 Alpha virt. eigenvalues --    1.65076   1.65227   1.68360   1.69011   1.80925
 Alpha virt. eigenvalues --    1.81182   1.85710   1.95868   2.01806   2.06283
 Alpha virt. eigenvalues --    2.14919   2.26299   2.35575   2.36239   2.39024
 Alpha virt. eigenvalues --    2.46789   2.51942   2.52070   2.53253   2.57490
 Alpha virt. eigenvalues --    2.59353   2.69046   2.70820   2.71109   2.73046
 Alpha virt. eigenvalues --    2.73802   2.76232   2.77997   2.82457   2.87175
 Alpha virt. eigenvalues --    2.90159   3.06373   3.07468   3.12292   3.24800
 Alpha virt. eigenvalues --    3.28278   3.32449   3.34395   3.38492   3.44871
 Alpha virt. eigenvalues --    3.46424   3.51225   3.55793   3.65596   3.68026
 Alpha virt. eigenvalues --    3.75091   3.83110   3.85625   3.91861   4.05531
 Alpha virt. eigenvalues --    4.12884   4.21368   4.24731   4.27820   4.40905
 Alpha virt. eigenvalues --    4.45479   4.50872   4.54277   4.57992   4.64257
 Alpha virt. eigenvalues --    5.53674   5.53856   5.73384   5.96609   6.76498
 Alpha virt. eigenvalues --    6.79653   6.81641   6.81857   6.83157   6.88080
 Alpha virt. eigenvalues --    6.98027   7.04412   7.12494   7.16900   7.30863
 Alpha virt. eigenvalues --    7.41169   7.46473   7.54224   7.54538   7.76474
 Alpha virt. eigenvalues --    7.88033   7.92422   8.12226   8.61865  23.80372
 Alpha virt. eigenvalues --   24.64383  24.92123  25.00501
          Condensed to atoms (all electrons):
               1          2          3          4          5          6
     1  C    8.100784  -0.969378  -0.101903   0.249012  -0.053523  -0.969378
     2  C   -0.969378   6.658635   0.473133  -0.419927  -0.056032   0.091379
     3  H   -0.101903   0.473133   0.406454  -0.090096  -0.001858   0.031366
     4  C    0.249012  -0.419927  -0.090096   6.396642   0.459551  -0.419927
     5  H   -0.053523  -0.056032  -0.001858   0.459551   0.420671  -0.056032
     6  C   -0.969378   0.091379   0.031366  -0.419927  -0.056032   6.658635
     7  H   -0.101903   0.031366  -0.001168  -0.090096  -0.001858   0.473133
               7
     1  C   -0.101903
     2  C    0.031366
     3  H   -0.001168
     4  C   -0.090096
     5  H   -0.001858
     6  C    0.473133
     7  H    0.406454
 Mulliken charges:
               1
     1  C   -0.153710
     2  C    0.190823
     3  H    0.284071
     4  C   -0.085158
     5  H    0.289079
     6  C    0.190823
     7  H    0.284071
 Sum of Mulliken charges =   1.00000
 Mulliken charges with hydrogens summed into heavy atoms:
               1
     1  C   -0.153710
     2  C    0.474894
     4  C    0.203921
     6  C    0.474894
 APT charges:
               1
     1  C   -0.000388
     2  C    0.162767
     3  H    0.197832
     4  C    0.036387
     5  H    0.242803
     6  C    0.162767
     7  H    0.197832
 Sum of APT charges =   1.00000
 APT charges with hydrogens summed into heavy atoms:
               1
     1  C   -0.000388
     2  C    0.360598
     4  C    0.279191
     6  C    0.360599
 Electronic spatial extent (au):  <R**2>=            162.1251
 Charge=              1.0000 electrons
 Dipole moment (field-independent basis, Debye):
    X=             -1.8561    Y=              1.9858    Z=             -0.0000  Tot=              2.7182
 Quadrupole moment (field-independent basis, Debye-Ang):
   XX=            -20.7749   YY=            -17.5932   ZZ=            -13.0626
   XY=              2.7920   XZ=              0.0000   YZ=             -0.0000
 Traceless Quadrupole moment (field-independent basis, Debye-Ang):
   XX=             -3.6313   YY=             -0.4496   ZZ=              4.0810
   XY=              2.7920   XZ=              0.0000   YZ=             -0.0000
 Octapole moment (field-independent basis, Debye-Ang**2):
  XXX=             -4.1476  YYY=             13.9559  ZZZ=              0.0000  XYY=             -1.2007
  XXY=              2.1472  XXZ=             -0.0000  XZZ=             -6.7500  YZZ=             -1.5774
  YYZ=             -0.0000  XYZ=              0.0000
 Hexadecapole moment (field-independent basis, Debye-Ang**3):
 XXXX=            -39.2510 YYYY=            -73.9135 ZZZZ=            -57.4092 XXXY=              9.7840
 XXXZ=              0.0000 YYYX=             14.2753 YYYZ=              0.0000 ZZZX=             -0.0000
 ZZZY=             -0.0000 XXYY=            -23.4446 XXZZ=            -15.9627 YYZZ=            -29.7882
 XXYZ=             -0.0000 YYXZ=              0.0000 ZZXY=              4.9317
 N-N= 9.485811870118D+01 E-N=-5.388784389648D+02  KE= 1.530789883725D+02
 Symmetry A'   KE= 1.123585848285D+02
 Symmetry A"   KE= 4.072040354396D+01
  Exact polarizability:  26.619  -4.233  41.540   0.000  -0.000  35.962
 Approx polarizability:  42.845 -12.927  84.201  -0.000  -0.000  60.059
 No NMR shielding tensors so no spin-rotation constants.
 Leave Link  601 at Thu Jan 31 05:18:53 2019, MaxMem=    33554432 cpu:         1.0
 (Enter /home/proyectos/fulerenos/M3C-v2.0/M3C-deps_CCC/g09-AM64L-G09RevC.01/l701.exe)
 Compute integral second derivatives.
 ... and contract with generalized density number  0.
 Leave Link  701 at Thu Jan 31 05:18:53 2019, MaxMem=    33554432 cpu:         1.3
 (Enter /home/proyectos/fulerenos/M3C-v2.0/M3C-deps_CCC/g09-AM64L-G09RevC.01/l702.exe)
 L702 exits ... SP integral derivatives will be done elsewhere.
 Leave Link  702 at Thu Jan 31 05:18:53 2019, MaxMem=    33554432 cpu:         0.1
 (Enter /home/proyectos/fulerenos/M3C-v2.0/M3C-deps_CCC/g09-AM64L-G09RevC.01/l703.exe)
 Compute integral second derivatives, UseDBF=F ICtDFT=           0.
 Integral derivatives from FoFJK, PRISM(SPDF).
 Calling FoFJK, ICntrl=    100127 FMM=F ISym2X=1 I1Cent= 0 IOpClX= 0 NMat=1 NMatS=1 NMatT=0.
 FoFJK:  IHMeth= 1 ICntrl=  100127 DoSepK=F KAlg= 0 I1Cent=   0 FoldK=F
 IRaf=         0 NMat=   1 IRICut=       1 DoRegI=T DoRafI=F ISym2E= 1.
 FoFCou: FMM=F IPFlag=           0 FMFlag=      100000 FMFlg1=         800
         NFxFlg=           0 DoJE=F BraDBF=F KetDBF=F FulRan=T
         wScrn=  0.000000 ICntrl=  100127 IOpCl=  0 I1Cent=           0 NGrid=           0
         NMat0=    1 NMatS0=      1 NMatT0=    0 NMatD0=    1 NMtDS0=    0 NMtDT0=    0
 Petite list used in FoFCou.
 Leave Link  703 at Thu Jan 31 05:19:29 2019, MaxMem=    33554432 cpu:       142.6
 (Enter /home/proyectos/fulerenos/M3C-v2.0/M3C-deps_CCC/g09-AM64L-G09RevC.01/l716.exe)
 Dipole        =-7.30261748D-01 7.81268203D-01-5.75542218D-14
 Polarizability= 2.66191891D+01-4.23327155D+00 4.15396867D+01
                 4.18607619D-08-6.41669306D-08 3.59622909D+01
 Full mass-weighted force constant matrix:
 Low frequencies ---  -15.1589   -0.0009   -0.0007   -0.0005    7.3578    8.8669
 Low frequencies ---  523.1780  572.5732  749.7465
 Diagonal vibrational polarizability:
        2.7867303       3.3713049       1.1230795
 Harmonic frequencies (cm**-1), IR intensities (KM/Mole), Raman scattering
 activities (A**4/AMU), depolarization ratios for plane and unpolarized
 incident light, reduced masses (AMU), force constants (mDyne/A),
 and normal coordinates:
                      1                      2                      3
                     A'                     A'                     A"
 Frequencies --    523.1777               572.5732               749.7464
 Red. masses --      2.5456                 2.3288                 5.5734
 Frc consts  --      0.4105                 0.4498                 1.8459
 IR Inten    --      4.4526                23.3383                 0.1675
  Atom  AN      X      Y      Z        X      Y      Z        X      Y      Z
     1   6     0.16  -0.01  -0.00     0.06   0.26   0.00    -0.00  -0.00   0.32
     2   6    -0.11  -0.02   0.19    -0.10  -0.05  -0.05    -0.18   0.30   0.01
     3   1    -0.47  -0.11   0.44     0.01  -0.12  -0.11     0.38   0.17  -0.32
     4   6     0.13   0.06   0.00     0.07  -0.11  -0.00    -0.00   0.00  -0.27
     5   1    -0.04   0.11  -0.00     0.84  -0.36  -0.00    -0.00   0.00  -0.19
     6   6    -0.11  -0.02  -0.19    -0.10  -0.05   0.05     0.18  -0.30   0.01
     7   1    -0.47  -0.11  -0.44     0.01  -0.12   0.11    -0.38  -0.17  -0.32
                      4                      5                      6
                     A'                     A"                     A'
 Frequencies --    856.3306               944.2721              1000.6923
 Red. masses --      1.7196                 1.4722                 1.6342
 Frc consts  --      0.7430                 0.7734                 0.9642
 IR Inten    --     42.3987                 0.0228                42.3981
  Atom  AN      X      Y      Z        X      Y      Z        X      Y      Z
     1   6    -0.07  -0.03   0.00     0.00  -0.00   0.12     0.09  -0.09  -0.00
     2   6     0.09  -0.02   0.02     0.03   0.05  -0.10    -0.05  -0.02   0.10
     3   1    -0.11  -0.39   0.23    -0.46  -0.20   0.25     0.39   0.38  -0.26
     4   6    -0.14   0.15   0.00     0.00  -0.00  -0.01    -0.09   0.07  -0.00
     5   1     0.70  -0.11   0.00    -0.00  -0.00   0.57     0.45  -0.10   0.00
     6   6     0.09  -0.02  -0.02    -0.03  -0.05  -0.10    -0.05  -0.02  -0.10
     7   1    -0.11  -0.39  -0.23     0.46   0.20   0.25     0.39   0.38   0.26
                      7                      8                      9
                     A"                     A'                     A"
 Frequencies --   1043.9463              1055.8412              1109.8904
 Red. masses --      1.1074                 1.3249                 1.3274
 Frc consts  --      0.7111                 0.8702                 0.9634
 IR Inten    --      9.0484                10.2573                 3.8349
  Atom  AN      X      Y      Z        X      Y      Z        X      Y      Z
     1   6     0.00  -0.00  -0.05     0.07  -0.04   0.00     0.00  -0.00   0.05
     2   6    -0.05  -0.01   0.01     0.03   0.02  -0.06    -0.05  -0.10  -0.01
     3   1     0.32  -0.46  -0.14    -0.45   0.47   0.15     0.02   0.51  -0.19
     4   6    -0.00  -0.00   0.01    -0.08  -0.06  -0.00     0.00  -0.00  -0.04
     5   1    -0.00  -0.00   0.58     0.23  -0.17  -0.00    -0.00   0.00   0.61
     6   6     0.05   0.01   0.01     0.03   0.02   0.06     0.05   0.10  -0.01
     7   1    -0.32   0.46  -0.14    -0.45   0.47  -0.15    -0.02  -0.51  -0.19
                     10                     11                     12
                     A'                     A"                     A'
 Frequencies --   1283.7285              1346.2698              1439.2759
 Red. masses --      3.9646                 4.2608                 4.9701
 Frc consts  --      3.8494                 4.5499                 6.0660
 IR Inten    --     28.5045                37.2112                 9.8062
  Atom  AN      X      Y      Z        X      Y      Z        X      Y      Z
     1   6    -0.23   0.26   0.00     0.00  -0.00   0.18     0.05  -0.01  -0.00
     2   6     0.13  -0.18   0.16    -0.14  -0.06  -0.21    -0.06  -0.23  -0.19
     3   1    -0.02   0.56   0.14     0.09  -0.10  -0.42    -0.22   0.20  -0.25
     4   6    -0.01  -0.01   0.00     0.00   0.00   0.36     0.11   0.39  -0.00
     5   1    -0.23   0.05   0.00     0.00   0.00  -0.57    -0.08   0.57   0.00
     6   6     0.13  -0.18  -0.16     0.14   0.06  -0.21    -0.06  -0.23   0.19
     7   1    -0.02   0.56  -0.14    -0.09   0.10  -0.42    -0.22   0.20   0.25
                     13                     14                     15
                     A'                     A"                     A'
 Frequencies --   3201.3603              3203.4908              3232.7791
 Red. masses --      1.0940                 1.1020                 1.1208
 Frc consts  --      6.6060                 6.6633                 6.9015
 IR Inten    --     56.6257                97.1082                46.5835
  Atom  AN      X      Y      Z        X      Y      Z        X      Y      Z
     1   6     0.00  -0.00  -0.00     0.00  -0.00   0.00    -0.00   0.00   0.00
     2   6    -0.03  -0.01  -0.05    -0.03  -0.01  -0.05     0.02   0.01   0.03
     3   1     0.33   0.11   0.52     0.38   0.12   0.58    -0.17  -0.05  -0.26
     4   6    -0.01  -0.04  -0.00    -0.00  -0.00   0.01    -0.03  -0.08   0.00
     5   1     0.14   0.43  -0.00     0.00   0.00  -0.00     0.28   0.84  -0.00
     6   6    -0.03  -0.01   0.05     0.03   0.01  -0.05     0.02   0.01  -0.03
     7   1     0.33   0.11  -0.52    -0.38  -0.12   0.58    -0.17  -0.05   0.26

 -------------------
 - Thermochemistry -
 -------------------
 Temperature   298.150 Kelvin.  Pressure   1.00000 Atm.
 Atom     1 has atomic number  6 and mass  12.00000
 Atom     2 has atomic number  6 and mass  12.00000
 Atom     3 has atomic number  1 and mass   1.00783
 Atom     4 has atomic number  6 and mass  12.00000
 Atom     5 has atomic number  1 and mass   1.00783
 Atom     6 has atomic number  6 and mass  12.00000
 Atom     7 has atomic number  1 and mass   1.00783
 Molecular mass:    51.02348 amu.
 Principal axes and moments of inertia in atomic units:
                           1         2         3
     Eigenvalues --   108.77884 114.24515 188.60493
           X           -0.22226   0.00000   0.97499
           Y            0.97499   0.00000   0.22226
           Z           -0.00000   1.00000  -0.00000
 This molecule is an asymmetric top.
 Rotational symmetry number  1.
 Rotational temperatures (Kelvin)      0.79624     0.75814     0.45923
 Rotational constants (GHZ):          16.59092    15.79709     9.56890
 Zero-point vibrational energy     128977.6 (Joules/Mol)
                                   30.82639 (Kcal/Mol)
 Warning -- explicit consideration of   2 degrees of freedom as
           vibrations may cause significant error
 Vibrational temperatures:    752.74   823.80  1078.72  1232.07  1358.60
          (Kelvin)           1439.77  1502.00  1519.12  1596.88  1847.00
                             1936.98  2070.79  4606.04  4609.10  4651.24
 
 Zero-point correction=                           0.049125 (Hartree/Particle)
 Thermal correction to Energy=                    0.052693
 Thermal correction to Enthalpy=                  0.053637
 Thermal correction to Gibbs Free Energy=         0.024132
 Sum of electronic and zero-point Energies=           -153.731786
 Sum of electronic and thermal Energies=              -153.728218
 Sum of electronic and thermal Enthalpies=            -153.727274
 Sum of electronic and thermal Free Energies=         -153.756779
 
                     E (Thermal)             CV                S
                      KCal/Mol        Cal/Mol-Kelvin    Cal/Mol-Kelvin
 Total                   33.065             11.668             62.099
 Electronic               0.000              0.000              0.000
 Translational            0.889              2.981             37.712
 Rotational               0.889              2.981             22.376
 Vibrational             31.288              5.706              2.010
 Vibration     1          0.878              1.199              0.603
 Vibration     2          0.929              1.091              0.499
                       Q            Log10(Q)             Ln(Q)
 Total Bot       0.794375D-11        -11.099974        -25.558635
 Total V=0       0.313257D+12         11.495900         26.470289
 Vib (Bot)       0.319964D-22        -22.494899        -51.796418
 Vib (Bot)    1  0.307626D+00         -0.511977         -1.178871
 Vib (Bot)    2  0.268112D+00         -0.571683         -1.316349
 Vib (V=0)       0.126176D+01          0.100976          0.232506
 Vib (V=0)    1  0.108706D+01          0.036252          0.083472
 Vib (V=0)    2  0.106735D+01          0.028306          0.065178
 Electronic      0.100000D+01          0.000000          0.000000
 Translational   0.143255D+08          7.156110         16.477553
 Rotational      0.173306D+05          4.238814          9.760230
 
                                                              b3lyp opt
                                                             IR Spectrum
 
     333                                                                    1   1 1      111 1                                       
     222                                                                    4   3 2      100 0 9   8   7      5 5                    
     300                                                                    3   4 8      154 0 4   5   5      7 2                    
     331                                                                    9   6 4      064 1 4   6   0      3 3                    
 
     XXX                                                                    X   X X      XXX X     X   X      X X                    
     XXX                                                                    X   X X       XX X     X          X                      
     XXX                                                                        X X          X     X          X                      
     XXX                                                                        X X          X     X          X                      
     XXX                                                                        X X          X     X          X                      
     XXX                                                                        X X          X     X                                 
     XXX                                                                        X            X     X                                 
     XXX                                                                        X            X     X                                 
     XXX                                                                                     X     X                                 
     XXX                                                                                                                             
      XX                                                                                                                             
      XX                                                                                                                             
      X                                                                                                                              
      X                                                                                                                              
      X                                                                                                                              
      X                                                                                                                              
      X                                                                                                                              
      X                                                                                                                              
      X                                                                                                                              
      X                                                                                                                              
 
 ***** Axes restored to original set *****
 -------------------------------------------------------------------
 Center     Atomic                   Forces (Hartrees/Bohr)
 Number     Number              X              Y              Z
 -------------------------------------------------------------------
      1        6           0.000001452   -0.000295547   -0.000222345
      2        6           0.000181276    0.000070524    0.000165166
      3        1          -0.000075848    0.000004010   -0.000019799
      4        6          -0.000001083    0.000220536   -0.000091418
      5        1           0.000000359   -0.000073017    0.000023029
      6        6          -0.000181960    0.000068739    0.000165166
      7        1           0.000075804    0.000004755   -0.000019799
 -------------------------------------------------------------------
 Cartesian Forces:  Max     0.000295547 RMS     0.000127652
 Z-matrix is all fixed cartesians, so copy forces.
 Force constants in Cartesian coordinates: 
                1             2             3             4             5 
      1  0.208958D+00
      2 -0.454161D-03  0.301403D+00
      3 -0.732718D-03  0.149150D+00  0.154362D+00
      4 -0.144231D+00 -0.904641D-01 -0.821876D-01  0.669000D+00
      5 -0.324476D-01 -0.124383D+00 -0.592966D-01 -0.667778D-01  0.313046D+00
      6 -0.765505D-01 -0.676989D-01 -0.935082D-01  0.306305D+00 -0.519175D-01
      7 -0.842975D-03 -0.184935D-02 -0.265357D-02 -0.256081D+00  0.167335D-01
      8 -0.168551D-01  0.872924D-02 -0.751436D-02  0.203253D-01 -0.468305D-01
      9 -0.502257D-02  0.556335D-02 -0.626820D-03 -0.144864D+00  0.216441D-01
     10  0.864114D-01  0.823614D-03  0.117704D-03 -0.189224D+00  0.657467D-01
     11  0.823616D-03 -0.812376D-01 -0.239595D-01  0.140672D+00 -0.217949D+00
     12  0.207980D-03 -0.423359D-01  0.191218D-01 -0.896927D-01  0.902182D-01
     13 -0.383305D-02 -0.667432D-04 -0.373081D-04  0.626323D-02  0.164719D-01
     14 -0.667416D-04  0.975246D-02  0.759418D-02  0.237781D-02 -0.689106D-02
     15 -0.818063D-04  0.166523D-01  0.147865D-01  0.879735D-02 -0.107571D-01
     16 -0.145436D+00  0.902573D-01  0.827662D-01 -0.930378D-01  0.506927D-02
     17  0.322407D-01 -0.123177D+00 -0.584862D-01 -0.687476D-02  0.907182D-01
     18  0.772120D-01 -0.669436D-01 -0.935081D-01 -0.109738D-01  0.178717D-01
     19 -0.102581D-02  0.175350D-02  0.272727D-02  0.731178D-02 -0.479601D-02
     20  0.167592D-01  0.891208D-02 -0.748792D-02  0.741991D-03 -0.771081D-02
     21  0.496767D-02  0.561243D-02 -0.626820D-03  0.126161D-01 -0.776280D-02
                6             7             8             9            10 
      6  0.319238D+00
      7 -0.137787D+00  0.256400D+00
      8  0.122083D-01 -0.221808D-01  0.411203D-01
      9 -0.143457D+00  0.151543D+00 -0.122476D-01  0.127993D+00
     10 -0.103319D+00 -0.733007D-02  0.180449D-01  0.111141D-01  0.352603D+00
     11  0.902660D-01  0.275547D-02  0.408439D-02 -0.782105D-02 -0.219378D-02
     12 -0.903132D-01 -0.337456D-02  0.102555D-01  0.388572D-02  0.139948D-02
     13 -0.748120D-02  0.131851D-03  0.708702D-03 -0.699190D-04 -0.481360D-01
     14  0.242015D-02  0.152303D-03 -0.148881D-03 -0.207616D-04  0.117817D-02
     15  0.198478D-02  0.121250D-03 -0.136335D-03 -0.419438D-03 -0.702710D-03
     16  0.107977D-01  0.727050D-02 -0.594792D-03 -0.125392D-01 -0.187199D+00
     17  0.179786D-01  0.494321D-02 -0.766953D-02 -0.788638D-02 -0.654446D-01
     18 -0.538561D-02 -0.800333D-02 -0.333540D-02  0.114406D-01  0.102428D+00
     19  0.803571D-02  0.452130D-03  0.551781D-03 -0.161528D-03 -0.712461D-02
     20 -0.325661D-02 -0.554363D-03  0.714993D-03  0.768311D-03 -0.181551D-01
     21  0.114406D-01  0.153972D-03  0.769861D-03  0.118401D-02 -0.110367D-01
               11            12            13            14            15 
     11  0.799153D+00
     12 -0.284874D+00  0.263381D+00
     13  0.117817D-02 -0.615811D-03  0.389866D-01
     14 -0.287956D+00  0.125353D+00 -0.124532D-02  0.292475D+00
     15  0.143042D+00 -0.109648D+00  0.677058D-03 -0.137820D+00  0.917305D-01
     16 -0.140369D+00  0.888020D-01  0.644715D-02 -0.224676D-02 -0.869124D-02
     17 -0.219974D+00  0.910951D-01 -0.163409D-01 -0.707498D-02 -0.108430D-01
     18  0.912767D-01 -0.903132D-01  0.745706D-02  0.249353D-02  0.198478D-02
     19 -0.286561D-02  0.327364D-02  0.140283D-03 -0.149462D-03 -0.119904D-03
     20  0.387893D-02  0.102882D-01 -0.705862D-03 -0.157313D-03 -0.137519D-03
     21 -0.792987D-02  0.388572D-02  0.701193D-04 -0.200735D-04 -0.419438D-03
               16            17            18            19            20 
     16  0.667653D+00
     17  0.702620D-01  0.314392D+00
     18 -0.305780D+00 -0.549244D-01  0.319238D+00
     19 -0.255697D+00 -0.187858D-01  0.137661D+00  0.255943D+00
     20 -0.223775D-01 -0.472148D-01  0.135614D-01  0.242916D-01  0.415769D-01
     21  0.144645D+00  0.230663D-01 -0.143457D+00 -0.151416D+00 -0.137359D-01
               21 
     21  0.127993D+00
 Leave Link  716 at Thu Jan 31 05:19:29 2019, MaxMem=    33554432 cpu:         0.1
 (Enter /home/proyectos/fulerenos/M3C-v2.0/M3C-deps_CCC/g09-AM64L-G09RevC.01/l103.exe)

 GradGradGradGradGradGradGradGradGradGradGradGradGradGradGradGradGradGrad
 Berny optimization.
 Search for a local minimum.
 Step number   1 out of a maximum of    2
 All quantities printed in internal units (Hartrees-Bohrs-Radians)
 Second derivative matrix not updated -- analytic derivatives used.
 ITU=  0
     Eigenvalues ---    0.02133   0.03091   0.04231   0.07342   0.10015
     Eigenvalues ---    0.13382   0.19233   0.22211   0.28068   0.28635
     Eigenvalues ---    0.35633   0.54794   0.92999   1.13387   1.42915
 Angle between quadratic step and forces=  70.93 degrees.
 ClnCor:  largest displacement from symmetrization is 1.86D-11 for atom     7.
 Linear search not attempted -- first point.
 ClnCor:  largest displacement from symmetrization is 1.26D-15 for atom     5.
 B after Tr=     0.000000   -0.000037   -0.000233
         Rot=    1.000000    0.000014    0.000000    0.000000 Ang=   0.00 deg.
 Variable       Old X    -DE/DX   Delta X   Delta X   Delta X     New X
                                 (Linear)    (Quad)   (Total)
    X1       -0.00960   0.00000   0.00000   0.00000   0.00000  -0.00959
    Y1        1.95048  -0.00030   0.00000  -0.00070  -0.00072   1.94976
    Z1        0.77220  -0.00022   0.00000  -0.00083  -0.00112   0.77108
    X2       -1.68878   0.00018   0.00000  -0.00034  -0.00034  -1.68912
    Y2        0.14501   0.00007   0.00000   0.00010   0.00005   0.14506
    Z2       -0.37876   0.00017   0.00000   0.00013  -0.00011  -0.37887
    X3       -3.39291  -0.00008   0.00000  -0.00136  -0.00135  -3.39427
    Y3        0.30653   0.00000   0.00000   0.00008  -0.00000   0.30653
    Z3       -1.50316  -0.00002   0.00000   0.00128   0.00104  -1.50212
    X4        0.00867  -0.00000   0.00000  -0.00000  -0.00000   0.00867
    Y4       -1.76742   0.00022   0.00000   0.00029   0.00026  -1.76716
    Z4        0.28319  -0.00009   0.00000  -0.00051  -0.00069   0.28250
    X5        0.01759   0.00000   0.00000  -0.00000  -0.00000   0.01759
    Y5       -3.58432  -0.00007   0.00000   0.00034   0.00034  -3.58398
    Z5        1.21800   0.00002   0.00000   0.00008  -0.00006   1.21794
    X6        1.68724  -0.00018   0.00000   0.00034   0.00034   1.68758
    Y6        0.16159   0.00007   0.00000   0.00010   0.00006   0.16165
    Z6       -0.37876   0.00017   0.00000   0.00013  -0.00011  -0.37887
    X7        3.38971   0.00008   0.00000   0.00135   0.00135   3.39106
    Y7        0.33985   0.00000   0.00000   0.00009   0.00001   0.33986
    Z7       -1.50316  -0.00002   0.00000   0.00128   0.00104  -1.50212
         Item               Value     Threshold  Converged?
 Maximum Force            0.000296     0.000450     YES
 RMS     Force            0.000128     0.000300     YES
 Maximum Displacement     0.001355     0.001800     YES
 RMS     Displacement     0.000637     0.001200     YES
 Predicted change in Energy=-2.850200D-07
 Optimization completed.
    -- Stationary point found.
 GradGradGradGradGradGradGradGradGradGradGradGradGradGradGradGradGradGrad

 Leave Link  103 at Thu Jan 31 05:19:29 2019, MaxMem=    33554432 cpu:         0.1
 (Enter /home/proyectos/fulerenos/M3C-v2.0/M3C-deps_CCC/g09-AM64L-G09RevC.01/l9999.exe)

 Test job not archived.
 1\1\GINC-COPERNICIO\Freq\RB3LYP\6-311++G(3df,2p)\C4H3(1+)\ROOT\31-Jan-
 2019\0\\#p b3lyp/6-311++G(3df,2p) freq IOp(2/17=3) IOp(2/18=3)\\b3lyp 
 opt\\1,1\C,-0.0050788451,1.032150455,0.408632011\C,-0.893663672,0.0767
 34467,-0.200431608\H,-1.795452872,0.162207634,-0.795439035\C,0.0045863
 859,-0.9352806367,0.149859995\H,0.0093096605,-1.8967390208,0.644537983
 \C,0.8928500478,0.0855109207,-0.200431608\H,1.7937559484,0.1798400342,
 -0.795439035\\Version=EM64L-G09RevE.01\State=1-A'\HF=-153.7809112\RMSD
 =6.553e-09\RMSF=1.277e-04\ZeroPoint=0.049125\Thermal=0.0526932\Dipole=
 0.0043573,-0.8869525,-0.5974601\DipoleDeriv=-0.1121635,-0.0010382,-0.0
 007185,-0.0010382,0.099174,0.1462628,-0.0007934,0.161492,0.0118262,0.3
 006059,-0.1581328,0.0600593,-0.0806952,0.0520979,0.0181754,-0.1843615,
 -0.0054849,0.1355965,0.2194983,0.0059106,0.0518727,-0.0262277,0.196113
 7,0.0096684,0.1203138,-0.0268966,0.1778831,-0.0986116,-0.0008953,0.000
 899,-0.0008953,0.0836289,-0.1830061,0.0005136,-0.1045534,0.124145,0.17
 31388,-0.0007127,0.0000877,-0.0007126,0.3182017,-0.0178432,-0.0000353,
 0.0071935,0.2370695,0.2982356,0.1605513,-0.0602349,0.0831136,0.0544683
 ,0.0175845,0.1844065,-0.0036733,0.1355965,0.2192964,-0.0056828,-0.0519
 652,0.0264555,0.1963155,0.0091582,-0.1200437,-0.0280774,0.1778831\Pola
 r=35.9624484,-0.0320616,42.4886844,-0.0083047,1.6904896,25.6700339\PG=
 CS [SG(C2H1),X(C2H2)]\NImag=0\\0.20895770,-0.00045416,0.30140340,-0.00
 073272,0.14915032,0.15436168,-0.14423080,-0.09046414,-0.08218760,0.668
 99952,-0.03244760,-0.12438259,-0.05929655,-0.06677783,0.31304593,-0.07
 655053,-0.06769893,-0.09350815,0.30630494,-0.05191751,0.31923839,-0.00
 084298,-0.00184935,-0.00265357,-0.25608143,0.01673355,-0.13778720,0.25
 639999,-0.01685509,0.00872924,-0.00751436,0.02032529,-0.04683052,0.012
 20828,-0.02218082,0.04112031,-0.00502257,0.00556335,-0.00062682,-0.144
 86427,0.02164409,-0.14345681,0.15154344,-0.01224756,0.12799271,0.08641
 138,0.00082361,0.00011770,-0.18922446,0.06574671,-0.10331942,-0.007330
 07,0.01804493,0.01111407,0.35260307,0.00082362,-0.08123762,-0.02395947
 ,0.14067163,-0.21794916,0.09026598,0.00275547,0.00408439,-0.00782105,-
 0.00219378,0.79915333,0.00020798,-0.04233588,0.01912175,-0.08969270,0.
 09021820,-0.09031322,-0.00337456,0.01025551,0.00388572,0.00139948,-0.2
 8487443,0.26338088,-0.00383305,-0.00006674,-0.00003731,0.00626323,0.01
 647191,-0.00748120,0.00013185,0.00070870,-0.00006992,-0.04813602,0.001
 17817,-0.00061581,0.03898655,-0.00006674,0.00975246,0.00759418,0.00237
 781,-0.00689106,0.00242015,0.00015230,-0.00014888,-0.00002076,0.001178
 17,-0.28795552,0.12535335,-0.00124532,0.29247530,-0.00008181,0.0166522
 6,0.01478650,0.00879735,-0.01075711,0.00198478,0.00012125,-0.00013634,
 -0.00041944,-0.00070271,0.14304211,-0.10964763,0.00067706,-0.13782037,
 0.09173046,-0.14543643,0.09025728,0.08276622,-0.09303784,0.00506927,0.
 01079770,0.00727050,-0.00059479,-0.01253922,-0.18719927,-0.14036950,0.
 08880198,0.00644715,-0.00224676,-0.00869124,0.66765304,0.03224074,-0.1
 2317696,-0.05848620,-0.00687476,0.09071822,0.01797864,0.00494321,-0.00
 766953,-0.00788638,-0.06544458,-0.21997435,0.09109508,-0.01634085,-0.0
 0707498,-0.01084303,0.07026201,0.31439241,0.07721198,-0.06694355,-0.09
 350815,-0.01097382,0.01787168,-0.00538561,-0.00800333,-0.00333540,0.01
 144062,0.10242757,0.09127674,-0.09031322,0.00745706,0.00249353,0.00198
 478,-0.30578006,-0.05492445,0.31923839,-0.00102581,0.00175350,0.002727
 27,0.00731178,-0.00479601,0.00803571,0.00045213,0.00055178,-0.00016153
 ,-0.00712461,-0.00286561,0.00327364,0.00014028,-0.00014946,-0.00011990
 ,-0.25569715,-0.01878576,0.13766060,0.25594338,0.01675924,0.00891208,-
 0.00748792,0.00074199,-0.00771081,-0.00325661,-0.00055436,0.00071499,0
 .00076831,-0.01815506,0.00387893,0.01028817,-0.00070586,-0.00015731,-0
 .00013752,-0.02237750,-0.04721481,0.01356145,0.02429156,0.04157692,0.0
 0496767,0.00561243,-0.00062682,0.01261610,-0.00776280,0.01144062,0.000
 15397,0.00076986,0.00118401,-0.01103669,-0.00792987,0.00388572,0.00007
 012,-0.00002007,-0.00041944,0.14464462,0.02306633,-0.14345681,-0.15141
 579,-0.01373588,0.12799271\\-0.00000145,0.00029555,0.00022234,-0.00018
 128,-0.00007052,-0.00016517,0.00007585,-0.00000401,0.00001980,0.000001
 08,-0.00022054,0.00009142,-0.00000036,0.00007302,-0.00002303,0.0001819
 6,-0.00006874,-0.00016517,-0.00007580,-0.00000475,0.00001980\\\@


 A DANDELION FROM A LOVER MEANS MORE THAN AN ORCHID FROM A FRIEND.
 Job cpu time:       0 days  0 hours 13 minutes 58.2 seconds.
 File lengths (MBytes):  RWF=     23 Int=      0 D2E=      0 Chk=      3 Scr=      1
 Normal termination of Gaussian 09 at Thu Jan 31 05:19:29 2019.
