 Entering Gaussian System, Link 0=/home/proyectos/fulerenos/M3C-v2.0/M3C-deps_CCC/g09-AM64L-G09RevC.01/g09
 Initial command:
 /home/proyectos/fulerenos/M3C-v2.0/M3C-deps_CCC/g09-AM64L-G09RevC.01/l1.exe "/scratch/naguirre/gaussian/Gau-13664.inp" -scrdir="/scratch/naguirre/gaussian/"
 Entering Link 1 = /home/proyectos/fulerenos/M3C-v2.0/M3C-deps_CCC/g09-AM64L-G09RevC.01/l1.exe PID=     13668.
  
 Copyright (c) 1988,1990,1992,1993,1995,1998,2003,2009,2015,
            Gaussian, Inc.  All Rights Reserved.
  
 This is part of the Gaussian(R) 09 program.  It is based on
 the Gaussian(R) 03 system (copyright 2003, Gaussian, Inc.),
 the Gaussian(R) 98 system (copyright 1998, Gaussian, Inc.),
 the Gaussian(R) 94 system (copyright 1995, Gaussian, Inc.),
 the Gaussian 92(TM) system (copyright 1992, Gaussian, Inc.),
 the Gaussian 90(TM) system (copyright 1990, Gaussian, Inc.),
 the Gaussian 88(TM) system (copyright 1988, Gaussian, Inc.),
 the Gaussian 86(TM) system (copyright 1986, Carnegie Mellon
 University), and the Gaussian 82(TM) system (copyright 1983,
 Carnegie Mellon University). Gaussian is a federally registered
 trademark of Gaussian, Inc.
  
 This software contains proprietary and confidential information,
 including trade secrets, belonging to Gaussian, Inc.
  
 This software is provided under written license and may be
 used, copied, transmitted, or stored only in accord with that
 written license.
  
 The following legend is applicable only to US Government
 contracts under FAR:
  
                    RESTRICTED RIGHTS LEGEND
  
 Use, reproduction and disclosure by the US Government is
 subject to restrictions as set forth in subparagraphs (a)
 and (c) of the Commercial Computer Software - Restricted
 Rights clause in FAR 52.227-19.
  
 Gaussian, Inc.
 340 Quinnipiac St., Bldg. 40, Wallingford CT 06492
  
  
 ---------------------------------------------------------------
 Warning -- This program may not be used in any manner that
 competes with the business of Gaussian, Inc. or will provide
 assistance to any competitor of Gaussian, Inc.  The licensee
 of this program is prohibited from giving any competitor of
 Gaussian, Inc. access to this program.  By using this program,
 the user acknowledges that Gaussian, Inc. is engaged in the
 business of creating and licensing software in the field of
 computational chemistry and represents and warrants to the
 licensee that it is not a competitor of Gaussian, Inc. and that
 it will not use this program in any manner prohibited above.
 ---------------------------------------------------------------
  

 Cite this work as:
 Gaussian 09, Revision E.01,
 M. J. Frisch, G. W. Trucks, H. B. Schlegel, G. E. Scuseria, 
 M. A. Robb, J. R. Cheeseman, G. Scalmani, V. Barone, B. Mennucci, 
 G. A. Petersson, H. Nakatsuji, M. Caricato, X. Li, H. P. Hratchian, 
 A. F. Izmaylov, J. Bloino, G. Zheng, J. L. Sonnenberg, M. Hada, 
 M. Ehara, K. Toyota, R. Fukuda, J. Hasegawa, M. Ishida, T. Nakajima, 
 Y. Honda, O. Kitao, H. Nakai, T. Vreven, J. A. Montgomery, Jr., 
 J. E. Peralta, F. Ogliaro, M. Bearpark, J. J. Heyd, E. Brothers, 
 K. N. Kudin, V. N. Staroverov, T. Keith, R. Kobayashi, J. Normand, 
 K. Raghavachari, A. Rendell, J. C. Burant, S. S. Iyengar, J. Tomasi, 
 M. Cossi, N. Rega, J. M. Millam, M. Klene, J. E. Knox, J. B. Cross, 
 V. Bakken, C. Adamo, J. Jaramillo, R. Gomperts, R. E. Stratmann, 
 O. Yazyev, A. J. Austin, R. Cammi, C. Pomelli, J. W. Ochterski, 
 R. L. Martin, K. Morokuma, V. G. Zakrzewski, G. A. Voth, 
 P. Salvador, J. J. Dannenberg, S. Dapprich, A. D. Daniels, 
 O. Farkas, J. B. Foresman, J. V. Ortiz, J. Cioslowski, 
 and D. J. Fox, Gaussian, Inc., Wallingford CT, 2013.
 
 ******************************************
 Gaussian 09:  EM64L-G09RevE.01 30-Nov-2015
                31-Jan-2019 
 ******************************************
 %NProcShared=4
 Will use up to    4 processors via shared memory.
 ------------------------------------------------------
 #p b3lyp/6-311++G(3df,2p) freq IOp(2/17=3) IOp(2/18=3)
 ------------------------------------------------------
 1/10=4,30=1,38=1/1,3;
 2/12=2,17=3,18=3,40=1/2;
 3/5=4,6=6,7=1216,11=2,16=1,25=1,30=1,71=2,74=-5,140=1/1,2,3;
 4//1;
 5/5=2,38=5,98=1/2;
 8/6=4,10=90,11=11/1;
 11/6=1,8=1,9=11,15=111,16=1/1,2,10;
 10/6=1/2;
 6/7=2,8=2,9=2,10=2,18=1,28=1/1;
 7/8=1,10=1,25=1/1,2,3,16;
 1/10=4,30=1/3;
 99//99;
 Leave Link    1 at Thu Jan 31 05:24:23 2019, MaxMem=           0 cpu:         0.2
 (Enter /home/proyectos/fulerenos/M3C-v2.0/M3C-deps_CCC/g09-AM64L-G09RevC.01/l101.exe)
 ---------
 b3lyp opt
 ---------
 Symbolic Z-matrix:
 Charge =  3 Multiplicity = 3
 C                     1.13504  -0.00166   0.00078 
 C                    -0.08291  -0.80694   0.00014 
 H                     2.03237  -0.00276   0.84056 
 H                     2.03351  -0.00313  -0.83777 
 C                    -0.0806    0.8071   -0.00022 
 C                    -1.25135   0.00176  -0.00083 
 H                    -2.38696   0.00339  -0.0016 
 
 NAtoms=      7 NQM=        7 NQMF=       0 NMMI=      0 NMMIF=      0
                NMic=       0 NMicF=      0.
                    Isotopes and Nuclear Properties:
 (Nuclear quadrupole moments (NQMom) in fm**2, nuclear magnetic moments (NMagM)
  in nuclear magnetons)

  Atom         1           2           3           4           5           6           7
 IAtWgt=          12          12           1           1          12          12           1
 AtmWgt=  12.0000000  12.0000000   1.0078250   1.0078250  12.0000000  12.0000000   1.0078250
 NucSpn=           0           0           1           1           0           0           1
 AtZEff=   0.0000000   0.0000000   0.0000000   0.0000000   0.0000000   0.0000000   0.0000000
 NQMom=    0.0000000   0.0000000   0.0000000   0.0000000   0.0000000   0.0000000   0.0000000
 NMagM=    0.0000000   0.0000000   2.7928460   2.7928460   0.0000000   0.0000000   2.7928460
 AtZNuc=   6.0000000   6.0000000   1.0000000   1.0000000   6.0000000   6.0000000   1.0000000
 Leave Link  101 at Thu Jan 31 05:24:23 2019, MaxMem=    33554432 cpu:         0.4
 (Enter /home/proyectos/fulerenos/M3C-v2.0/M3C-deps_CCC/g09-AM64L-G09RevC.01/l103.exe)

 GradGradGradGradGradGradGradGradGradGradGradGradGradGradGradGradGradGrad
 Berny optimization.
 Initialization pass.
 Trust Radius=3.00D-01 FncErr=1.00D-07 GrdErr=1.00D-07
 Number of steps in this run=      2 maximum allowed number of steps=      2.
 GradGradGradGradGradGradGradGradGradGradGradGradGradGradGradGradGradGrad

 Leave Link  103 at Thu Jan 31 05:24:23 2019, MaxMem=    33554432 cpu:         0.1
 (Enter /home/proyectos/fulerenos/M3C-v2.0/M3C-deps_CCC/g09-AM64L-G09RevC.01/l202.exe)
                          Input orientation:                          
 ---------------------------------------------------------------------
 Center     Atomic      Atomic             Coordinates (Angstroms)
 Number     Number       Type             X           Y           Z
 ---------------------------------------------------------------------
      1          6           0        1.135041   -0.001659    0.000784
      2          6           0       -0.082915   -0.806936    0.000136
      3          1           0        2.032374   -0.002762    0.840557
      4          1           0        2.033511   -0.003130   -0.837771
      5          6           0       -0.080602    0.807104   -0.000217
      6          6           0       -1.251346    0.001760   -0.000833
      7          1           0       -2.386955    0.003387   -0.001603
 ---------------------------------------------------------------------
                    Distance matrix (angstroms):
                    1          2          3          4          5
     1  C    0.000000
     2  C    1.460098   0.000000
     3  H    1.228994   2.414011   0.000000
     4  H    1.228994   2.414011   1.678328   0.000000
     5  C    1.460098   1.614042   2.414011   2.414011   0.000000
     6  C    2.386390   1.420993   3.389804   3.389804   1.420993
     7  H    3.522001   2.442382   4.498860   4.498860   2.442382
                    6          7
     6  C    0.000000
     7  H    1.135611   0.000000
 Stoichiometry    C4H3(3+,3)
 Framework group  C2V[C2(CCH),SGV(C2),SGV'(H2)]
 Deg. of freedom     6
 Full point group                 C2V     NOp   4
 Largest Abelian subgroup         C2V     NOp   4
 Largest concise Abelian subgroup C2V     NOp   4
                         Standard orientation:                         
 ---------------------------------------------------------------------
 Center     Atomic      Atomic             Coordinates (Angstroms)
 Number     Number       Type             X           Y           Z
 ---------------------------------------------------------------------
      1          6           0        0.000000    0.000000   -1.135042
      2          6           0       -0.000000    0.807021    0.081758
      3          1           0       -0.839164    0.000000   -2.032945
      4          1           0        0.839164   -0.000000   -2.032945
      5          6           0       -0.000000   -0.807021    0.081758
      6          6           0       -0.000000   -0.000000    1.251347
      7          1           0       -0.000000   -0.000000    2.386959
 ---------------------------------------------------------------------
 Rotational constants (GHZ):     29.6406438     10.1383357      7.8891881
 Leave Link  202 at Thu Jan 31 05:24:23 2019, MaxMem=    33554432 cpu:         0.0
 (Enter /home/proyectos/fulerenos/M3C-v2.0/M3C-deps_CCC/g09-AM64L-G09RevC.01/l301.exe)
 Standard basis: 6-311++G(3df,2p) (5D, 7F)
 Ernie: Thresh=  0.10000D-02 Tol=  0.10000D-05 Strict=F.
 There are    87 symmetry adapted cartesian basis functions of A1  symmetry.
 There are    24 symmetry adapted cartesian basis functions of A2  symmetry.
 There are    44 symmetry adapted cartesian basis functions of B1  symmetry.
 There are    55 symmetry adapted cartesian basis functions of B2  symmetry.
 There are    74 symmetry adapted basis functions of A1  symmetry.
 There are    23 symmetry adapted basis functions of A2  symmetry.
 There are    41 symmetry adapted basis functions of B1  symmetry.
 There are    48 symmetry adapted basis functions of B2  symmetry.
   186 basis functions,   268 primitive gaussians,   210 cartesian basis functions
    13 alpha electrons       11 beta electrons
       nuclear repulsion energy        91.8424670878 Hartrees.
 IExCor=  402 DFT=T Ex+Corr=B3LYP ExCW=0 ScaHFX=  0.200000
 ScaDFX=  0.800000  0.720000  1.000000  0.810000 ScalE2=  1.000000  1.000000
 IRadAn=      0 IRanWt=     -1 IRanGd=            0 ICorTp=0 IEmpDi=  4
 NAtoms=    7 NActive=    7 NUniq=    5 SFac= 1.96D+00 NAtFMM=   60 NAOKFM=F Big=F
 Integral buffers will be    131072 words long.
 Raffenetti 2 integral format.
 Two-electron integral symmetry is turned on.
 Leave Link  301 at Thu Jan 31 05:24:24 2019, MaxMem=    33554432 cpu:         0.4
 (Enter /home/proyectos/fulerenos/M3C-v2.0/M3C-deps_CCC/g09-AM64L-G09RevC.01/l302.exe)
 NPDir=0 NMtPBC=     1 NCelOv=     1 NCel=       1 NClECP=     1 NCelD=      1
         NCelK=      1 NCelE2=     1 NClLst=     1 CellRange=     0.0.
 One-electron integrals computed using PRISM.
 One-electron integral symmetry used in STVInt
 NBasis=   186 RedAO= T EigKep=  1.42D-05  NBF=    74    23    41    48
 NBsUse=   186 1.00D-06 EigRej= -1.00D+00 NBFU=    74    23    41    48
 Precomputing XC quadrature grid using
 IXCGrd= 4 IRadAn=           0 IRanWt=          -1 IRanGd=           0 AccXCQ= 0.00D+00.
 Generated NRdTot=       0 NPtTot=           0 NUsed=           0 NTot=          32
 NSgBfM=   210   210   210   210   210 MxSgAt=     7 MxSgA2=     7.
 Leave Link  302 at Thu Jan 31 05:24:24 2019, MaxMem=    33554432 cpu:         1.4
 (Enter /home/proyectos/fulerenos/M3C-v2.0/M3C-deps_CCC/g09-AM64L-G09RevC.01/l303.exe)
 DipDrv:  MaxL=1.
 Leave Link  303 at Thu Jan 31 05:24:24 2019, MaxMem=    33554432 cpu:         0.1
 (Enter /home/proyectos/fulerenos/M3C-v2.0/M3C-deps_CCC/g09-AM64L-G09RevC.01/l401.exe)
 ExpMin= 3.60D-02 ExpMax= 4.56D+03 ExpMxC= 6.82D+02 IAcc=3 IRadAn=         5 AccDes= 0.00D+00
 Harris functional with IExCor=  402 and IRadAn=       5 diagonalized for initial guess.
 HarFok:  IExCor=  402 AccDes= 0.00D+00 IRadAn=         5 IDoV= 1 UseB2=F ITyADJ=14
 ICtDFT=  3500011 ScaDFX=  1.000000  1.000000  1.000000  1.000000
 FoFCou: FMM=F IPFlag=           0 FMFlag=      100000 FMFlg1=           0
         NFxFlg=           0 DoJE=T BraDBF=F KetDBF=T FulRan=T
         wScrn=  0.000000 ICntrl=     500 IOpCl=  0 I1Cent=   200000004 NGrid=           0
         NMat0=    1 NMatS0=      1 NMatT0=    0 NMatD0=    1 NMtDS0=    0 NMtDT0=    0
 Petite list used in FoFCou.
 Harris En= -153.122719411023    
 JPrj=0 DoOrth=F DoCkMO=F.
 Initial guess orbital symmetries:
 Alpha Orbitals:
       Occupied  (A1) (A1) (B2) (A1) (A1) (A1) (A1) (B2) (A1) (B1)
                 (B2) (B1) (A1)
       Virtual   (A2) (B2) (B1) (A1) (A1) (B2) (B1) (A1) (B2) (B1)
                 (A1) (A1) (A1) (A2) (A1) (B1) (B2) (A1) (B1) (B2)
                 (A1) (B2) (B1) (B2) (A1) (B2) (A1) (A1) (A2) (A1)
                 (A1) (B1) (A1) (B2) (B1) (A2) (A1) (B2) (A1) (B1)
                 (B2) (B2) (A1) (B1) (A2) (A1) (B1) (A1) (B2) (A1)
                 (B1) (A1) (A2) (B2) (A1) (A2) (B1) (B2) (A1) (B2)
                 (B1) (A1) (B2) (A1) (B1) (A1) (A1) (B1) (B2) (A2)
                 (B1) (B2) (A1) (A2) (B1) (A1) (B2) (A1) (A1) (A1)
                 (B1) (A2) (B2) (A1) (B2) (A1) (A2) (A1) (B2) (B1)
                 (A2) (A1) (B2) (B1) (A1) (B2) (A1) (B1) (B1) (B1)
                 (A1) (A2) (B2) (B2) (B1) (A1) (A1) (B1) (B2) (B1)
                 (A2) (A1) (A2) (B1) (A1) (B2) (A1) (B1) (B2) (A1)
                 (B2) (A1) (B2) (A1) (B1) (B2) (A1) (A2) (A2) (B1)
                 (B2) (A1) (B1) (A1) (B2) (A2) (B2) (A1) (B1) (A2)
                 (A1) (B1) (B2) (A1) (B2) (A1) (B1) (B2) (A1) (A2)
                 (B1) (A2) (A1) (B1) (B2) (A1) (A1) (A2) (A1) (A2)
                 (B1) (A1) (B2) (A1) (B2) (B1) (A1) (B2) (B2) (A1)
                 (A1) (B2) (A1)
 Beta  Orbitals:
       Occupied  (A1) (A1) (B2) (A1) (A1) (A1) (A1) (B2) (A1) (B1)
                 (B2)
       Virtual   (B1) (A1) (A2) (B2) (B1) (A1) (A1) (B2) (B1) (A1)
                 (B2) (B1) (A1) (A1) (A1) (A2) (A1) (B1) (B2) (A1)
                 (B1) (B2) (A1) (B2) (B1) (B2) (A1) (B2) (A1) (A1)
                 (A2) (A1) (A1) (B1) (A1) (B2) (B1) (A2) (A1) (B2)
                 (A1) (B1) (B2) (B2) (A1) (B1) (A2) (A1) (B1) (A1)
                 (B2) (A1) (B1) (A1) (A2) (B2) (A1) (A2) (B1) (B2)
                 (A1) (B2) (B1) (A1) (B2) (A1) (B1) (A1) (A1) (B1)
                 (B2) (A2) (B1) (B2) (A1) (A2) (B1) (A1) (B2) (A1)
                 (A1) (A1) (B1) (A2) (B2) (A1) (B2) (A1) (A2) (A1)
                 (B2) (B1) (A2) (A1) (B2) (B1) (A1) (B2) (A1) (B1)
                 (B1) (B1) (A1) (A2) (B2) (B2) (B1) (A1) (A1) (B1)
                 (B2) (B1) (A2) (A1) (A2) (B1) (A1) (B2) (A1) (B1)
                 (B2) (A1) (B2) (A1) (B2) (A1) (B1) (B2) (A1) (A2)
                 (A2) (B1) (B2) (A1) (B1) (A1) (B2) (A2) (B2) (A1)
                 (B1) (A2) (A1) (B1) (B2) (A1) (B2) (A1) (B1) (B2)
                 (A1) (A2) (B1) (A2) (A1) (B1) (B2) (A1) (A1) (A2)
                 (A1) (A2) (B1) (A1) (B2) (A1) (B2) (B1) (A1) (B2)
                 (B2) (A1) (A1) (B2) (A1)
 The electronic state of the initial guess is 3-B1.
 Initial guess <Sx>= 0.0000 <Sy>= 0.0000 <Sz>= 1.0000 <S**2>= 2.0000 S= 1.0000
 Leave Link  401 at Thu Jan 31 05:24:25 2019, MaxMem=    33554432 cpu:         3.3
 (Enter /home/proyectos/fulerenos/M3C-v2.0/M3C-deps_CCC/g09-AM64L-G09RevC.01/l502.exe)
 UHF open shell SCF:
 Using DIIS extrapolation, IDIIS=  1040.
 Integral symmetry usage will be decided dynamically.
 IVT=      154356 IEndB=      154356 NGot=    33554432 MDV=    33461027
 LenX=    33461027 LenY=    33416486
 Requested convergence on RMS density matrix=1.00D-08 within 128 cycles.
 Requested convergence on MAX density matrix=1.00D-06.
 Requested convergence on             energy=1.00D-06.
 No special actions if energy rises.
 Fock matrices will be formed incrementally for  20 cycles.

 Cycle   1  Pass 1  IDiag  1:
 FoFJK:  IHMeth= 1 ICntrl=       0 DoSepK=F KAlg= 0 I1Cent=   0 FoldK=F
 IRaf= 990000000 NMat=   1 IRICut=       1 DoRegI=T DoRafI=F ISym2E= 1.
 FoFCou: FMM=F IPFlag=           0 FMFlag=      100000 FMFlg1=           0
         NFxFlg=           0 DoJE=F BraDBF=F KetDBF=F FulRan=T
         wScrn=  0.000000 ICntrl=       0 IOpCl=  1 I1Cent=           0 NGrid=           0
         NMat0=    1 NMatS0=      1 NMatT0=    0 NMatD0=    1 NMtDS0=    0 NMtDT0=    0
 Petite list used in FoFCou.
 E= -152.078192953360    
 DIIS: error= 3.43D-02 at cycle   1 NSaved=   1.
 NSaved= 1 IEnMin= 1 EnMin= -152.078192953360     IErMin= 1 ErrMin= 3.43D-02
 ErrMax= 3.43D-02  0.00D+00 EMaxC= 1.00D-01 BMatC= 2.96D-01 BMatP= 2.96D-01
 IDIUse=3 WtCom= 6.57D-01 WtEn= 3.43D-01
 Coeff-Com:  0.100D+01
 Coeff-En:   0.100D+01
 Coeff:      0.100D+01
 Gap=     0.133 Goal=   None    Shift=    0.000
 Gap=     0.156 Goal=   None    Shift=    0.000
 GapD=    0.133 DampG=1.000 DampE=0.500 DampFc=0.5000 IDamp=-1.
 Damping current iteration by 5.00D-01
 RMSDP=5.37D-03 MaxDP=2.48D-01              OVMax= 3.06D-01

 Cycle   2  Pass 1  IDiag  1:
 RMSU=  2.57D-03    CP:  1.07D+00
 E= -152.129198384787     Delta-E=       -0.051005431427 Rises=F Damp=T
 DIIS: error= 8.57D-03 at cycle   2 NSaved=   2.
 NSaved= 2 IEnMin= 2 EnMin= -152.129198384787     IErMin= 2 ErrMin= 8.57D-03
 ErrMax= 8.57D-03  0.00D+00 EMaxC= 1.00D-01 BMatC= 3.55D-02 BMatP= 2.96D-01
 IDIUse=3 WtCom= 9.14D-01 WtEn= 8.57D-02
 Coeff-Com:  0.855D-02 0.991D+00
 Coeff-En:   0.000D+00 0.100D+01
 Coeff:      0.781D-02 0.992D+00
 Gap=     0.232 Goal=   None    Shift=    0.000
 Gap=     0.197 Goal=   None    Shift=    0.000
 RMSDP=2.11D-03 MaxDP=9.10D-02 DE=-5.10D-02 OVMax= 1.75D-01

 Cycle   3  Pass 1  IDiag  1:
 RMSU=  1.31D-03    CP:  1.11D+00  1.61D+00
 E= -152.182452186966     Delta-E=       -0.053253802180 Rises=F Damp=F
 DIIS: error= 6.45D-03 at cycle   3 NSaved=   3.
 NSaved= 3 IEnMin= 3 EnMin= -152.182452186966     IErMin= 3 ErrMin= 6.45D-03
 ErrMax= 6.45D-03  0.00D+00 EMaxC= 1.00D-01 BMatC= 1.24D-02 BMatP= 3.55D-02
 IDIUse=3 WtCom= 9.36D-01 WtEn= 6.45D-02
 Coeff-Com: -0.699D-01 0.348D+00 0.721D+00
 Coeff-En:   0.000D+00 0.000D+00 0.100D+01
 Coeff:     -0.654D-01 0.326D+00 0.739D+00
 Gap=     0.210 Goal=   None    Shift=    0.000
 Gap=     0.211 Goal=   None    Shift=    0.000
 RMSDP=4.46D-04 MaxDP=2.08D-02 DE=-5.33D-02 OVMax= 6.81D-02

 Cycle   4  Pass 1  IDiag  1:
 RMSU=  4.14D-04    CP:  1.12D+00  1.66D+00  1.01D+00
 E= -152.183876442398     Delta-E=       -0.001424255431 Rises=F Damp=F
 DIIS: error= 5.01D-03 at cycle   4 NSaved=   4.
 NSaved= 4 IEnMin= 4 EnMin= -152.183876442398     IErMin= 4 ErrMin= 5.01D-03
 ErrMax= 5.01D-03  0.00D+00 EMaxC= 1.00D-01 BMatC= 8.12D-03 BMatP= 1.24D-02
 IDIUse=3 WtCom= 9.50D-01 WtEn= 5.01D-02
 Coeff-Com: -0.333D-01 0.765D-01 0.465D+00 0.491D+00
 Coeff-En:   0.000D+00 0.000D+00 0.381D+00 0.619D+00
 Coeff:     -0.316D-01 0.727D-01 0.461D+00 0.498D+00
 Gap=     0.212 Goal=   None    Shift=    0.000
 Gap=     0.214 Goal=   None    Shift=    0.000
 RMSDP=2.17D-04 MaxDP=7.99D-03 DE=-1.42D-03 OVMax= 2.54D-02

 Cycle   5  Pass 1  IDiag  1:
 RMSU=  1.55D-04    CP:  1.12D+00  1.67D+00  1.03D+00  6.42D-01
 E= -152.185901918056     Delta-E=       -0.002025475658 Rises=F Damp=F
 DIIS: error= 1.46D-03 at cycle   5 NSaved=   5.
 NSaved= 5 IEnMin= 5 EnMin= -152.185901918056     IErMin= 5 ErrMin= 1.46D-03
 ErrMax= 1.46D-03  0.00D+00 EMaxC= 1.00D-01 BMatC= 5.41D-04 BMatP= 8.12D-03
 IDIUse=3 WtCom= 9.85D-01 WtEn= 1.46D-02
 Coeff-Com: -0.805D-02 0.143D-02 0.166D+00 0.248D+00 0.592D+00
 Coeff-En:   0.000D+00 0.000D+00 0.000D+00 0.000D+00 0.100D+01
 Coeff:     -0.793D-02 0.141D-02 0.163D+00 0.245D+00 0.598D+00
 Gap=     0.213 Goal=   None    Shift=    0.000
 Gap=     0.214 Goal=   None    Shift=    0.000
 RMSDP=8.36D-05 MaxDP=3.89D-03 DE=-2.03D-03 OVMax= 1.00D-02

 Cycle   6  Pass 1  IDiag  1:
 RMSU=  6.33D-05    CP:  1.12D+00  1.67D+00  1.04D+00  6.74D-01  6.84D-01
 E= -152.186048460331     Delta-E=       -0.000146542275 Rises=F Damp=F
 DIIS: error= 5.44D-04 at cycle   6 NSaved=   6.
 NSaved= 6 IEnMin= 6 EnMin= -152.186048460331     IErMin= 6 ErrMin= 5.44D-04
 ErrMax= 5.44D-04  0.00D+00 EMaxC= 1.00D-01 BMatC= 6.14D-05 BMatP= 5.41D-04
 IDIUse=3 WtCom= 9.95D-01 WtEn= 5.44D-03
 Coeff-Com:  0.305D-02-0.143D-01-0.135D-01-0.188D-01 0.209D+00 0.835D+00
 Coeff-En:   0.000D+00 0.000D+00 0.000D+00 0.000D+00 0.000D+00 0.100D+01
 Coeff:      0.303D-02-0.142D-01-0.135D-01-0.187D-01 0.208D+00 0.836D+00
 Gap=     0.214 Goal=   None    Shift=    0.000
 Gap=     0.215 Goal=   None    Shift=    0.000
 RMSDP=2.98D-05 MaxDP=1.67D-03 DE=-1.47D-04 OVMax= 4.42D-03

 Cycle   7  Pass 1  IDiag  1:
 RMSU=  2.12D-05    CP:  1.12D+00  1.67D+00  1.04D+00  6.62D-01  7.96D-01
                    CP:  1.10D+00
 E= -152.186073204159     Delta-E=       -0.000024743829 Rises=F Damp=F
 DIIS: error= 1.19D-04 at cycle   7 NSaved=   7.
 NSaved= 7 IEnMin= 7 EnMin= -152.186073204159     IErMin= 7 ErrMin= 1.19D-04
 ErrMax= 1.19D-04  0.00D+00 EMaxC= 1.00D-01 BMatC= 4.05D-06 BMatP= 6.14D-05
 IDIUse=3 WtCom= 9.99D-01 WtEn= 1.19D-03
 Coeff-Com:  0.213D-02-0.313D-02-0.166D-01-0.354D-01-0.752D-01 0.629D-01
 Coeff-Com:  0.107D+01
 Coeff-En:   0.000D+00 0.000D+00 0.000D+00 0.000D+00 0.000D+00 0.000D+00
 Coeff-En:   0.100D+01
 Coeff:      0.212D-02-0.312D-02-0.165D-01-0.354D-01-0.751D-01 0.628D-01
 Coeff:      0.107D+01
 Gap=     0.214 Goal=   None    Shift=    0.000
 Gap=     0.215 Goal=   None    Shift=    0.000
 RMSDP=1.23D-05 MaxDP=9.13D-04 DE=-2.47D-05 OVMax= 1.86D-03

 Cycle   8  Pass 1  IDiag  1:
 RMSU=  7.79D-06    CP:  1.12D+00  1.67D+00  1.04D+00  6.61D-01  8.12D-01
                    CP:  1.21D+00  1.25D+00
 E= -152.186075850519     Delta-E=       -0.000002646360 Rises=F Damp=F
 DIIS: error= 2.96D-05 at cycle   8 NSaved=   8.
 NSaved= 8 IEnMin= 8 EnMin= -152.186075850519     IErMin= 8 ErrMin= 2.96D-05
 ErrMax= 2.96D-05  0.00D+00 EMaxC= 1.00D-01 BMatC= 2.02D-07 BMatP= 4.05D-06
 IDIUse=1 WtCom= 1.00D+00 WtEn= 0.00D+00
 Coeff-Com: -0.771D-04 0.335D-03 0.526D-02 0.811D-02 0.274D-02-0.608D-01
 Coeff-Com: -0.184D+00 0.123D+01
 Coeff:     -0.771D-04 0.335D-03 0.526D-02 0.811D-02 0.274D-02-0.608D-01
 Coeff:     -0.184D+00 0.123D+01
 Gap=     0.214 Goal=   None    Shift=    0.000
 Gap=     0.215 Goal=   None    Shift=    0.000
 RMSDP=3.29D-06 MaxDP=1.65D-04 DE=-2.65D-06 OVMax= 4.88D-04

 Cycle   9  Pass 1  IDiag  1:
 RMSU=  1.66D-06    CP:  1.12D+00  1.67D+00  1.04D+00  6.60D-01  8.15D-01
                    CP:  1.22D+00  1.34D+00  1.21D+00
 E= -152.186076023780     Delta-E=       -0.000000173261 Rises=F Damp=F
 DIIS: error= 5.07D-06 at cycle   9 NSaved=   9.
 NSaved= 9 IEnMin= 9 EnMin= -152.186076023780     IErMin= 9 ErrMin= 5.07D-06
 ErrMax= 5.07D-06  0.00D+00 EMaxC= 1.00D-01 BMatC= 1.04D-08 BMatP= 2.02D-07
 IDIUse=1 WtCom= 1.00D+00 WtEn= 0.00D+00
 Coeff-Com: -0.943D-04 0.156D-03 0.862D-03 0.122D-02 0.335D-02 0.323D-02
 Coeff-Com: -0.561D-01-0.116D+00 0.116D+01
 Coeff:     -0.943D-04 0.156D-03 0.862D-03 0.122D-02 0.335D-02 0.323D-02
 Coeff:     -0.561D-01-0.116D+00 0.116D+01
 Gap=     0.214 Goal=   None    Shift=    0.000
 Gap=     0.215 Goal=   None    Shift=    0.000
 RMSDP=9.16D-07 MaxDP=7.96D-05 DE=-1.73D-07 OVMax= 1.19D-04

 Cycle  10  Pass 1  IDiag  1:
 RMSU=  4.55D-07    CP:  1.12D+00  1.67D+00  1.04D+00  6.59D-01  8.15D-01
                    CP:  1.23D+00  1.36D+00  1.25D+00  1.23D+00
 E= -152.186076033114     Delta-E=       -0.000000009334 Rises=F Damp=F
 DIIS: error= 1.13D-06 at cycle  10 NSaved=  10.
 NSaved=10 IEnMin=10 EnMin= -152.186076033114     IErMin=10 ErrMin= 1.13D-06
 ErrMax= 1.13D-06  0.00D+00 EMaxC= 1.00D-01 BMatC= 3.26D-10 BMatP= 1.04D-08
 IDIUse=1 WtCom= 1.00D+00 WtEn= 0.00D+00
 Coeff-Com:  0.640D-05-0.187D-04-0.269D-03-0.419D-03-0.347D-03 0.322D-02
 Coeff-Com:  0.879D-02-0.452D-01-0.454D-01 0.108D+01
 Coeff:      0.640D-05-0.187D-04-0.269D-03-0.419D-03-0.347D-03 0.322D-02
 Coeff:      0.879D-02-0.452D-01-0.454D-01 0.108D+01
 Gap=     0.214 Goal=   None    Shift=    0.000
 Gap=     0.215 Goal=   None    Shift=    0.000
 RMSDP=1.41D-07 MaxDP=1.04D-05 DE=-9.33D-09 OVMax= 1.64D-05

 Cycle  11  Pass 1  IDiag  1:
 RMSU=  9.89D-08    CP:  1.12D+00  1.67D+00  1.04D+00  6.60D-01  8.15D-01
                    CP:  1.23D+00  1.36D+00  1.25D+00  1.27D+00  1.12D+00
 E= -152.186076033381     Delta-E=       -0.000000000267 Rises=F Damp=F
 DIIS: error= 2.68D-07 at cycle  11 NSaved=  11.
 NSaved=11 IEnMin=11 EnMin= -152.186076033381     IErMin=11 ErrMin= 2.68D-07
 ErrMax= 2.68D-07  0.00D+00 EMaxC= 1.00D-01 BMatC= 2.35D-11 BMatP= 3.26D-10
 IDIUse=1 WtCom= 1.00D+00 WtEn= 0.00D+00
 Coeff-Com:  0.677D-05-0.120D-04-0.366D-04-0.331D-04-0.181D-03-0.332D-03
 Coeff-Com:  0.262D-02 0.955D-02-0.715D-01-0.556D-01 0.112D+01
 Coeff:      0.677D-05-0.120D-04-0.366D-04-0.331D-04-0.181D-03-0.332D-03
 Coeff:      0.262D-02 0.955D-02-0.715D-01-0.556D-01 0.112D+01
 Gap=     0.214 Goal=   None    Shift=    0.000
 Gap=     0.215 Goal=   None    Shift=    0.000
 RMSDP=4.45D-08 MaxDP=3.28D-06 DE=-2.67D-10 OVMax= 3.83D-06

 Cycle  12  Pass 1  IDiag  1:
 RMSU=  1.69D-08    CP:  1.12D+00  1.67D+00  1.04D+00  6.60D-01  8.15D-01
                    CP:  1.23D+00  1.36D+00  1.25D+00  1.28D+00  1.18D+00
                    CP:  1.27D+00
 E= -152.186076033402     Delta-E=       -0.000000000021 Rises=F Damp=F
 DIIS: error= 8.36D-08 at cycle  12 NSaved=  12.
 NSaved=12 IEnMin=12 EnMin= -152.186076033402     IErMin=12 ErrMin= 8.36D-08
 ErrMax= 8.36D-08  0.00D+00 EMaxC= 1.00D-01 BMatC= 1.61D-12 BMatP= 2.35D-11
 IDIUse=1 WtCom= 1.00D+00 WtEn= 0.00D+00
 Coeff-Com:  0.229D-06-0.124D-06 0.152D-04 0.162D-04 0.214D-04-0.145D-03
 Coeff-Com: -0.408D-03 0.147D-02 0.716D-02-0.508D-01-0.799D-01 0.112D+01
 Coeff:      0.229D-06-0.124D-06 0.152D-04 0.162D-04 0.214D-04-0.145D-03
 Coeff:     -0.408D-03 0.147D-02 0.716D-02-0.508D-01-0.799D-01 0.112D+01
 Gap=     0.214 Goal=   None    Shift=    0.000
 Gap=     0.215 Goal=   None    Shift=    0.000
 RMSDP=1.02D-08 MaxDP=6.37D-07 DE=-2.09D-11 OVMax= 8.81D-07

 Cycle  13  Pass 1  IDiag  1:
 RMSU=  4.60D-09    CP:  1.12D+00  1.67D+00  1.04D+00  6.60D-01  8.15D-01
                    CP:  1.23D+00  1.36D+00  1.25D+00  1.28D+00  1.18D+00
                    CP:  1.33D+00  1.29D+00
 E= -152.186076033404     Delta-E=       -0.000000000002 Rises=F Damp=F
 DIIS: error= 2.02D-08 at cycle  13 NSaved=  13.
 NSaved=13 IEnMin=13 EnMin= -152.186076033404     IErMin=13 ErrMin= 2.02D-08
 ErrMax= 2.02D-08  0.00D+00 EMaxC= 1.00D-01 BMatC= 1.12D-13 BMatP= 1.61D-12
 IDIUse=1 WtCom= 1.00D+00 WtEn= 0.00D+00
 Coeff-Com: -0.577D-06 0.103D-05 0.257D-05 0.405D-05 0.111D-04 0.239D-04
 Coeff-Com: -0.177D-03-0.649D-03 0.454D-02 0.575D-02-0.778D-01-0.461D-01
 Coeff-Com:  0.111D+01
 Coeff:     -0.577D-06 0.103D-05 0.257D-05 0.405D-05 0.111D-04 0.239D-04
 Coeff:     -0.177D-03-0.649D-03 0.454D-02 0.575D-02-0.778D-01-0.461D-01
 Coeff:      0.111D+01
 Gap=     0.214 Goal=   None    Shift=    0.000
 Gap=     0.215 Goal=   None    Shift=    0.000
 RMSDP=2.51D-09 MaxDP=1.34D-07 DE=-1.76D-12 OVMax= 2.37D-07

 SCF Done:  E(UB3LYP) =  -152.186076033     A.U. after   13 cycles
            NFock= 13  Conv=0.25D-08     -V/T= 2.0041
 <Sx>= 0.0000 <Sy>= 0.0000 <Sz>= 1.0000 <S**2>= 2.0221 S= 1.0073
 <L.S>= 0.000000000000E+00
 KE= 1.515624027705D+02 PE=-5.158978891422D+02 EE= 1.203069432505D+02
 Annihilation of the first spin contaminant:
 S**2 before annihilation     2.0221,   after     2.0002
 Leave Link  502 at Thu Jan 31 05:25:15 2019, MaxMem=    33554432 cpu:       171.8
 (Enter /home/proyectos/fulerenos/M3C-v2.0/M3C-deps_CCC/g09-AM64L-G09RevC.01/l801.exe)
 DoSCS=F DFT=T ScalE2(SS,OS)=  1.000000  1.000000
 Range of M.O.s used for correlation:     1   186
 NBasis=   186 NAE=    13 NBE=    11 NFC=     0 NFV=     0
 NROrb=    186 NOA=    13 NOB=    11 NVA=   173 NVB=   175

 **** Warning!!: The largest alpha MO coefficient is  0.78193116D+02


 **** Warning!!: The largest beta MO coefficient is  0.78014493D+02

 Leave Link  801 at Thu Jan 31 05:25:15 2019, MaxMem=    33554432 cpu:         0.2
 (Enter /home/proyectos/fulerenos/M3C-v2.0/M3C-deps_CCC/g09-AM64L-G09RevC.01/l1101.exe)
 Using compressed storage, NAtomX=     7.
 Will process      8 centers per pass.
 Leave Link 1101 at Thu Jan 31 05:25:16 2019, MaxMem=    33554432 cpu:         2.6
 (Enter /home/proyectos/fulerenos/M3C-v2.0/M3C-deps_CCC/g09-AM64L-G09RevC.01/l1102.exe)
 Symmetrizing basis deriv contribution to polar:
 IMax=3 JMax=2 DiffMx= 0.00D+00
 Leave Link 1102 at Thu Jan 31 05:25:16 2019, MaxMem=    33554432 cpu:         0.4
 (Enter /home/proyectos/fulerenos/M3C-v2.0/M3C-deps_CCC/g09-AM64L-G09RevC.01/l1110.exe)
 Forming Gx(P) for the SCF density, NAtomX=     7.
 Integral derivatives from FoFJK, PRISM(SPDF).
 Do as many integral derivatives as possible in FoFJK.
 G2DrvN: MDV=      33554272.
 G2DrvN: will do     8 centers at a time, making    1 passes.
 Calling FoFCou, ICntrl=  3107 FMM=F I1Cent=   0 AccDes= 0.00D+00.
 FoFJK:  IHMeth= 1 ICntrl=    3107 DoSepK=F KAlg= 0 I1Cent=   0 FoldK=F
 IRaf=         0 NMat=   1 IRICut=       1 DoRegI=T DoRafI=F ISym2E= 1.
 FoFCou: FMM=F IPFlag=           0 FMFlag=      100000 FMFlg1=           0
         NFxFlg=           0 DoJE=F BraDBF=F KetDBF=F FulRan=T
         wScrn=  0.000000 ICntrl=    3107 IOpCl=  1 I1Cent=           0 NGrid=           0
         NMat0=    1 NMatS0=      1 NMatT0=    0 NMatD0=    1 NMtDS0=    0 NMtDT0=    0
 Petite list used in FoFCou.
 End of G2Drv F.D. properties file   721 does not exist.
 End of G2Drv F.D. properties file   722 does not exist.
 End of G2Drv F.D. properties file   788 does not exist.
 Leave Link 1110 at Thu Jan 31 05:25:44 2019, MaxMem=    33554432 cpu:       110.4
 (Enter /home/proyectos/fulerenos/M3C-v2.0/M3C-deps_CCC/g09-AM64L-G09RevC.01/l1002.exe)
 Minotr:  UHF open shell wavefunction.
          IDoAtm=1111111
          Direct CPHF calculation.
          Differentiating once with respect to electric field.
                with respect to dipole field.
          Differentiating once with respect to nuclear coordinates.
          Using symmetry in CPHF.
          Requested convergence is 1.0D-08 RMS, and 1.0D-07 maximum.
          Secondary convergence is 1.0D-12 RMS, and 1.0D-12 maximum.
          NewPWx=T KeepS1=F KeepF1=F KeepIn=T MapXYZ=F SortEE=F KeepMc=T.
          MDV=      33553986 using IRadAn=       2.
 Generate precomputed XC quadrature information.
          Solving linear equations simultaneously, MaxMat=       0.
 FoFJK:  IHMeth= 1 ICntrl=       0 DoSepK=F KAlg= 0 I1Cent=   0 FoldK=F
 IRaf= 990000000 NMat=  18 IRICut=      45 DoRegI=T DoRafI=T ISym2E= 2.
 FoFCou: FMM=F IPFlag=           0 FMFlag=      100000 FMFlg1=           0
         NFxFlg=           0 DoJE=F BraDBF=F KetDBF=F FulRan=T
         wScrn=  0.000000 ICntrl=       0 IOpCl=  1 I1Cent=           0 NGrid=           0
         NMat0=   18 NMatS0=     18 NMatT0=    0 NMatD0=   18 NMtDS0=    0 NMtDT0=    0
 Integrals replicated using symmetry in FoFCou.
          There are    18 degrees of freedom in the 1st order CPHF.  IDoFFX=4 NUNeed=    18.
     18 vectors produced by pass  0 Test12= 2.32D-14 5.56D-09 XBig12= 1.22D+02 7.44D+00.
 AX will form    18 AO Fock derivatives at one time.
     18 vectors produced by pass  1 Test12= 2.32D-14 5.56D-09 XBig12= 2.33D+01 1.36D+00.
     18 vectors produced by pass  2 Test12= 2.32D-14 5.56D-09 XBig12= 6.05D-01 2.53D-01.
     18 vectors produced by pass  3 Test12= 2.32D-14 5.56D-09 XBig12= 9.25D-03 3.53D-02.
     18 vectors produced by pass  4 Test12= 2.32D-14 5.56D-09 XBig12= 6.28D-05 1.85D-03.
     18 vectors produced by pass  5 Test12= 2.32D-14 5.56D-09 XBig12= 3.32D-07 1.22D-04.
     18 vectors produced by pass  6 Test12= 2.32D-14 5.56D-09 XBig12= 1.33D-09 5.98D-06.
      9 vectors produced by pass  7 Test12= 2.32D-14 5.56D-09 XBig12= 6.10D-12 3.51D-07.
      3 vectors produced by pass  8 Test12= 2.32D-14 5.56D-09 XBig12= 3.16D-14 2.67D-08.
      1 vectors produced by pass  9 Test12= 2.32D-14 5.56D-09 XBig12= 1.82D-15 8.25D-09.
 InvSVY:  IOpt=1 It=  1 EMax= 3.55D-15
 Solved reduced A of dimension   139 with    18 vectors.
 FullF1:  Do perturbations    1 to    18.
 Isotropic polarizability for W=    0.000000       29.79 Bohr**3.
 End of Minotr F.D. properties file   721 does not exist.
 End of Minotr F.D. properties file   722 does not exist.
 End of Minotr F.D. properties file   788 does not exist.
 Leave Link 1002 at Thu Jan 31 05:28:49 2019, MaxMem=    33554432 cpu:       711.7
 (Enter /home/proyectos/fulerenos/M3C-v2.0/M3C-deps_CCC/g09-AM64L-G09RevC.01/l601.exe)
 Copying SCF densities to generalized density rwf, IOpCl= 1 IROHF=0.

 **********************************************************************

            Population analysis using the SCF density.

 **********************************************************************

 Orbital symmetries:
 Alpha Orbitals:
       Occupied  (A1) (B2) (A1) (A1) (A1) (A1) (B2) (A1) (B1) (A1)
                 (B2) (A1) (B1)
       Virtual   (A2) (B2) (B1) (A1) (B2) (B1) (A1) (B2) (A1) (A1)
                 (B1) (A1) (A1) (B2) (B2) (A1) (A2) (B1) (A2) (A1)
                 (B2) (B1) (A1) (B2) (B1) (A1) (B1) (A1) (A1) (B2)
                 (A1) (A1) (A2) (B2) (A1) (B1) (B2) (B1) (A1) (B1)
                 (B2) (A2) (A1) (B2) (B1) (A1) (A1) (A1) (B2) (B1)
                 (A2) (A1) (B2) (A1) (A2) (B1) (A1) (B2) (A1) (B2)
                 (B1) (A1) (B2) (B1) (A1) (A1) (B1) (A1) (A2) (B2)
                 (B1) (A1) (A2) (B2) (B2) (A1) (B1) (A1) (A1) (A2)
                 (B1) (A1) (B2) (A1) (B2) (A1) (A2) (B2) (A1) (B1)
                 (A2) (A1) (B2) (B1) (A1) (B2) (A1) (B1) (B1) (B1)
                 (A2) (A1) (B2) (B2) (B1) (A1) (B1) (B2) (A1) (A2)
                 (B1) (A2) (A1) (B1) (B2) (A1) (A1) (B1) (B2) (A1)
                 (B2) (A1) (B2) (A1) (B1) (B2) (A2) (A1) (A2) (B1)
                 (B2) (A1) (B1) (A1) (B2) (A2) (B2) (A1) (B1) (A2)
                 (A1) (B1) (B2) (A1) (B2) (A1) (B1) (B2) (A1) (B1)
                 (A2) (B2) (B1) (A1) (A2) (A1) (A1) (A2) (A1) (A2)
                 (B1) (A1) (B2) (A1) (B2) (B1) (A1) (B2) (B2) (A1)
                 (A1) (B2) (A1)
 Beta  Orbitals:
       Occupied  (A1) (B2) (A1) (A1) (A1) (A1) (B2) (A1) (A1) (B2)
                 (B1)
       Virtual   (B1) (A1) (A2) (B2) (B1) (A1) (B2) (A1) (B1) (B2)
                 (A1) (A1) (B1) (A1) (A1) (B2) (B2) (A2) (A1) (B1)
                 (A2) (A1) (B2) (B1) (A1) (B2) (B1) (A1) (B1) (A1)
                 (A1) (B2) (A1) (A1) (B2) (A2) (A1) (B1) (B2) (B1)
                 (A1) (B2) (B1) (A2) (A1) (B1) (A1) (B2) (A1) (B2)
                 (A1) (B1) (A2) (A1) (B2) (A1) (A2) (A1) (B1) (B2)
                 (A1) (B2) (B1) (A1) (B2) (B1) (A1) (A1) (B1) (A1)
                 (A2) (B2) (B1) (A1) (A2) (B2) (B2) (A1) (B1) (A1)
                 (A1) (A2) (B1) (A1) (B2) (A1) (B2) (A1) (A2) (B2)
                 (A1) (B1) (A2) (A1) (B2) (B1) (A1) (B2) (A1) (B1)
                 (B1) (A2) (B1) (A1) (B2) (B2) (B1) (A1) (B1) (B2)
                 (A2) (A1) (B1) (A2) (A1) (B1) (B2) (A1) (A1) (B2)
                 (B1) (A1) (B2) (A1) (A1) (B2) (B2) (B1) (A2) (A1)
                 (A2) (B1) (B2) (A1) (B1) (A1) (B2) (A2) (B2) (A1)
                 (B1) (A2) (A1) (B1) (B2) (A1) (B2) (A1) (B1) (B2)
                 (A1) (A2) (B1) (B2) (B1) (A1) (A2) (A1) (A1) (A2)
                 (A1) (A2) (B1) (A1) (B2) (A1) (B2) (B1) (A1) (B2)
                 (B2) (A1) (A1) (B2) (A1)
 The electronic state is 3-B1.
 Alpha  occ. eigenvalues --  -11.18367 -11.18352 -11.11217 -11.09764  -1.83498
 Alpha  occ. eigenvalues --   -1.56643  -1.40740  -1.36217  -1.27785  -1.26484
 Alpha  occ. eigenvalues --   -1.25201  -1.16979  -1.13171
 Alpha virt. eigenvalues --   -0.91783  -0.88169  -0.84187  -0.65224  -0.61611
 Alpha virt. eigenvalues --   -0.59795  -0.57316  -0.54285  -0.53611  -0.50836
 Alpha virt. eigenvalues --   -0.45716  -0.44709  -0.43253  -0.42238  -0.39705
 Alpha virt. eigenvalues --   -0.38843  -0.38556  -0.37093  -0.33867  -0.33454
 Alpha virt. eigenvalues --   -0.30905  -0.30020  -0.28048  -0.27732  -0.27452
 Alpha virt. eigenvalues --   -0.25075  -0.24960  -0.24228  -0.23658  -0.22575
 Alpha virt. eigenvalues --   -0.21258  -0.18273  -0.16426  -0.15976  -0.15779
 Alpha virt. eigenvalues --   -0.12353  -0.11150  -0.10679  -0.10031  -0.09546
 Alpha virt. eigenvalues --   -0.09039  -0.08891  -0.07001  -0.05492  -0.05392
 Alpha virt. eigenvalues --   -0.04927  -0.02031   0.00226   0.00521   0.01380
 Alpha virt. eigenvalues --    0.06498   0.06803   0.06923   0.07371   0.09116
 Alpha virt. eigenvalues --    0.10904   0.11401   0.13553   0.17570   0.27567
 Alpha virt. eigenvalues --    0.27709   0.32286   0.35154   0.39719   0.40440
 Alpha virt. eigenvalues --    0.42876   0.46918   0.48720   0.50929   0.51447
 Alpha virt. eigenvalues --    0.51841   0.56991   0.58249   0.60851   0.62150
 Alpha virt. eigenvalues --    0.63205   0.64202   0.66003   0.75823   0.77887
 Alpha virt. eigenvalues --    0.79943   0.81337   0.85080   0.94080   0.97596
 Alpha virt. eigenvalues --    1.01021   1.04719   1.12804   1.15788   1.18656
 Alpha virt. eigenvalues --    1.21519   1.32579   1.33782   1.35078   1.46289
 Alpha virt. eigenvalues --    1.50093   1.64456   1.71032   1.81692   1.87945
 Alpha virt. eigenvalues --    1.89444   1.89618   1.95314   1.99098   2.03497
 Alpha virt. eigenvalues --    2.08338   2.12154   2.14797   2.15241   2.15985
 Alpha virt. eigenvalues --    2.16980   2.21186   2.23347   2.30097   2.35103
 Alpha virt. eigenvalues --    2.37708   2.39317   2.45318   2.46745   2.49653
 Alpha virt. eigenvalues --    2.50811   2.62628   2.69668   2.70123   2.78329
 Alpha virt. eigenvalues --    2.80131   2.91264   2.94596   3.03212   3.11431
 Alpha virt. eigenvalues --    3.19286   3.23693   3.31057   3.35123   3.35822
 Alpha virt. eigenvalues --    3.38622   3.51682   3.58840   3.65354   3.75091
 Alpha virt. eigenvalues --    3.82700   3.84659   3.88236   4.06648   4.11593
 Alpha virt. eigenvalues --    4.33294   4.48363   4.74218   5.28607   6.07965
 Alpha virt. eigenvalues --    6.08534   6.26421   6.26424   6.26935   6.28508
 Alpha virt. eigenvalues --    6.32657   6.40107   6.51585   6.56451   6.59283
 Alpha virt. eigenvalues --    6.64604   6.85429   6.88803   6.96626   7.21866
 Alpha virt. eigenvalues --    7.24003   7.28439   7.60462   7.75256  22.97515
 Alpha virt. eigenvalues --   23.88438  24.06047  24.16512
  Beta  occ. eigenvalues --  -11.17046 -11.17039 -11.10809 -11.09287  -1.81757
  Beta  occ. eigenvalues --   -1.54606  -1.35967  -1.33280  -1.25099  -1.24319
  Beta  occ. eigenvalues --   -1.23285
  Beta virt. eigenvalues --   -1.01805  -1.00757  -0.88416  -0.81042  -0.79649
  Beta virt. eigenvalues --   -0.63118  -0.60567  -0.55994  -0.55422  -0.53129
  Beta virt. eigenvalues --   -0.52292  -0.48585  -0.45126  -0.43935  -0.42573
  Beta virt. eigenvalues --   -0.41071  -0.38894  -0.37918  -0.37785  -0.36149
  Beta virt. eigenvalues --   -0.33105  -0.32118  -0.30534  -0.29517  -0.27721
  Beta virt. eigenvalues --   -0.27574  -0.26342  -0.24660  -0.24175  -0.24020
  Beta virt. eigenvalues --   -0.23192  -0.22438  -0.20983  -0.17943  -0.15594
  Beta virt. eigenvalues --   -0.15539  -0.14958  -0.11489  -0.09990  -0.09653
  Beta virt. eigenvalues --   -0.09207  -0.08793  -0.08775  -0.07833  -0.06438
  Beta virt. eigenvalues --   -0.04482  -0.04351  -0.04306  -0.01118   0.00984
  Beta virt. eigenvalues --    0.01280   0.02623   0.07308   0.07596   0.07644
  Beta virt. eigenvalues --    0.08029   0.09733   0.11999   0.12126   0.14041
  Beta virt. eigenvalues --    0.18333   0.28438   0.28942   0.33093   0.35391
  Beta virt. eigenvalues --    0.41348   0.41366   0.44229   0.49561   0.49998
  Beta virt. eigenvalues --    0.52427   0.52660   0.53412   0.58512   0.59441
  Beta virt. eigenvalues --    0.61366   0.64302   0.64928   0.65436   0.67048
  Beta virt. eigenvalues --    0.76590   0.80203   0.81775   0.84089   0.86512
  Beta virt. eigenvalues --    0.96072   1.00158   1.02793   1.09123   1.17545
  Beta virt. eigenvalues --    1.19092   1.21096   1.23965   1.34940   1.35028
  Beta virt. eigenvalues --    1.37936   1.48822   1.51560   1.66944   1.74810
  Beta virt. eigenvalues --    1.83817   1.90987   1.91136   1.91405   1.96220
  Beta virt. eigenvalues --    2.00875   2.06470   2.11145   2.14787   2.17362
  Beta virt. eigenvalues --    2.17509   2.17791   2.20488   2.24029   2.26134
  Beta virt. eigenvalues --    2.33056   2.38087   2.41161   2.41535   2.47958
  Beta virt. eigenvalues --    2.48490   2.51408   2.52333   2.65763   2.71584
  Beta virt. eigenvalues --    2.71596   2.81629   2.81655   2.95197   2.97339
  Beta virt. eigenvalues --    3.06278   3.14954   3.21998   3.24560   3.33052
  Beta virt. eigenvalues --    3.37356   3.39223   3.40840   3.55103   3.61807
  Beta virt. eigenvalues --    3.68937   3.78582   3.85288   3.86241   3.89523
  Beta virt. eigenvalues --    4.08899   4.13558   4.36307   4.52422   4.75457
  Beta virt. eigenvalues --    5.29608   6.10667   6.12317   6.28434   6.28651
  Beta virt. eigenvalues --    6.30217   6.31056   6.34702   6.43458   6.55872
  Beta virt. eigenvalues --    6.61150   6.61248   6.67082   6.87386   6.89459
  Beta virt. eigenvalues --    6.98278   7.24106   7.26905   7.29759   7.64101
  Beta virt. eigenvalues --    7.77278  22.98676  23.89168  24.07612  24.17323
          Condensed to atoms (all electrons):
               1          2          3          4          5          6
     1  C    6.280866  -0.259917   0.362772   0.362772  -0.259917  -0.159563
     2  C   -0.259917   5.966186  -0.041127  -0.041127  -0.491095  -0.111810
     3  H    0.362772  -0.041127   0.323962  -0.016769  -0.041127   0.003876
     4  H    0.362772  -0.041127  -0.016769   0.323962  -0.041127   0.003876
     5  C   -0.259917  -0.491095  -0.041127  -0.041127   5.966186  -0.111810
     6  C   -0.159563  -0.111810   0.003876   0.003876  -0.111810   5.985367
     7  H    0.001913  -0.038143   0.000095   0.000095  -0.038143   0.373282
               7
     1  C    0.001913
     2  C   -0.038143
     3  H    0.000095
     4  H    0.000095
     5  C   -0.038143
     6  C    0.373282
     7  H    0.239458
          Atomic-Atomic Spin Densities.
               1          2          3          4          5          6
     1  C    0.190738  -0.039888   0.067927   0.067927  -0.039888   0.017496
     2  C   -0.039888   0.611043  -0.004270  -0.004270   0.035908  -0.030861
     3  H    0.067927  -0.004270   0.129648  -0.015871  -0.004270  -0.001219
     4  H    0.067927  -0.004270  -0.015871   0.129648  -0.004270  -0.001219
     5  C   -0.039888   0.035908  -0.004270  -0.004270   0.611043  -0.030861
     6  C    0.017496  -0.030861  -0.001219  -0.001219  -0.030861   0.284121
     7  H    0.000147   0.002854   0.000007   0.000007   0.002854   0.002959
               7
     1  C    0.000147
     2  C    0.002854
     3  H    0.000007
     4  H    0.000007
     5  C    0.002854
     6  C    0.002959
     7  H    0.001364
 Mulliken charges and spin densities:
               1          2
     1  C   -0.328926   0.264461
     2  C    1.017033   0.570515
     3  H    0.408318   0.171951
     4  H    0.408318   0.171951
     5  C    1.017033   0.570515
     6  C    0.016782   0.240415
     7  H    0.461443   0.010192
 Sum of Mulliken charges =   3.00000   2.00000
 Mulliken charges and spin densities with hydrogens summed into heavy atoms:
               1          2
     1  C    0.487709   0.608363
     2  C    1.017033   0.570515
     5  C    1.017033   0.570515
     6  C    0.478225   0.250606
 APT charges:
               1
     1  C   -0.128170
     2  C    0.406786
     3  H    0.641788
     4  H    0.641788
     5  C    0.406786
     6  C    0.527904
     7  H    0.503119
 Sum of APT charges =   3.00000
 APT charges with hydrogens summed into heavy atoms:
               1
     1  C    1.155407
     2  C    0.406786
     5  C    0.406786
     6  C    1.031022
 Electronic spatial extent (au):  <R**2>=            151.0320
 Charge=              3.0000 electrons
 Dipole moment (field-independent basis, Debye):
    X=              0.0000    Y=             -0.0000    Z=             -2.0539  Tot=              2.0539
 Quadrupole moment (field-independent basis, Debye-Ang):
   XX=            -13.7323   YY=            -11.2978   ZZ=             15.9001
   XY=             -0.0000   XZ=             -0.0000   YZ=              0.0000
 Traceless Quadrupole moment (field-independent basis, Debye-Ang):
   XX=            -10.6890   YY=             -8.2545   ZZ=             18.9435
   XY=             -0.0000   XZ=             -0.0000   YZ=              0.0000
 Octapole moment (field-independent basis, Debye-Ang**2):
  XXX=              0.0000  YYY=              0.0000  ZZZ=             -8.0544  XYY=              0.0000
  XXY=              0.0000  XXZ=             -7.1172  XZZ=              0.0000  YZZ=             -0.0000
  YYZ=              0.4176  XYZ=              0.0000
 Hexadecapole moment (field-independent basis, Debye-Ang**3):
 XXXX=            -14.3408 YYYY=            -34.4749 ZZZZ=             43.2902 XXXY=             -0.0000
 XXXZ=             -0.0000 YYYX=             -0.0000 YYYZ=              0.0000 ZZZX=             -0.0000
 ZZZY=              0.0000 XXYY=             -9.3284 XXZZ=             -6.2569 YYZZ=            -27.4962
 XXYZ=              0.0000 YYXZ=              0.0000 ZZXY=             -0.0000
 N-N= 9.184246708784D+01 E-N=-5.158978894516D+02  KE= 1.515624027705D+02
 Symmetry A1   KE= 1.094092510868D+02
 Symmetry A2   KE=-5.263192476332D-19
 Symmetry B1   KE= 3.477485788259D+00
 Symmetry B2   KE= 3.867566589552D+01
  Exact polarizability:  19.592   0.000  25.279  -0.000  -0.000  44.493
 Approx polarizability:  30.007   0.000  61.101  -0.000   0.000  77.444
                          Isotropic Fermi Contact Couplings
        Atom                 a.u.       MegaHertz       Gauss      10(-4) cm-1
     1  C(13)             -0.02072     -11.64576      -4.15550      -3.88461
     2  C(13)              0.59873     336.54602     120.08798     112.25967
     3  H(1)               0.08708     194.61905      69.44491      64.91793
     4  H(1)               0.08708     194.61905      69.44491      64.91793
     5  C(13)              0.59873     336.54602     120.08798     112.25967
     6  C(13)              0.06620      37.21144      13.27797      12.41240
     7  H(1)               0.00195       4.36830       1.55872       1.45711
 --------------------------------------------------------
       Center         ----  Spin Dipole Couplings  ----
                      3XX-RR        3YY-RR        3ZZ-RR
 --------------------------------------------------------
     1   Atom        0.634276     -0.382564     -0.251711
     2   Atom       -0.250541      0.567576     -0.317035
     3   Atom       -0.025940     -0.043051      0.068991
     4   Atom       -0.025940     -0.043051      0.068991
     5   Atom       -0.250541      0.567576     -0.317035
     6   Atom        0.408623     -0.277426     -0.131198
     7   Atom       -0.013788     -0.023751      0.037539
 --------------------------------------------------------
                        XY            XZ            YZ
 --------------------------------------------------------
     1   Atom       -0.000000      0.000000     -0.000000
     2   Atom        0.000000      0.000000      0.007110
     3   Atom       -0.000000      0.052049     -0.000000
     4   Atom        0.000000     -0.052049     -0.000000
     5   Atom       -0.000000      0.000000     -0.007110
     6   Atom       -0.000000     -0.000000      0.000000
     7   Atom        0.000000      0.000000     -0.000000
 --------------------------------------------------------


 ---------------------------------------------------------------------------------
              Anisotropic Spin Dipole Couplings in Principal Axis System
 ---------------------------------------------------------------------------------

       Atom             a.u.   MegaHertz   Gauss  10(-4) cm-1        Axes

              Baa    -0.3826   -51.336   -18.318   -17.124  0.0000  1.0000  0.0000
     1 C(13)  Bbb    -0.2517   -33.777   -12.053   -11.267 -0.0000 -0.0000  1.0000
              Bcc     0.6343    85.114    30.371    28.391  1.0000  0.0000  0.0000
 
              Baa    -0.3171   -42.551   -15.183   -14.193 -0.0000 -0.0080  1.0000
     2 C(13)  Bbb    -0.2505   -33.620   -11.997   -11.214  1.0000 -0.0000  0.0000
              Bcc     0.5676    76.171    27.180    25.408  0.0000  1.0000  0.0080
 
              Baa    -0.0489   -26.100    -9.313    -8.706  0.9148 -0.0000 -0.4038
     3 H(1)   Bbb    -0.0431   -22.970    -8.196    -7.662  0.0000  1.0000  0.0000
              Bcc     0.0920    49.070    17.509    16.368  0.4038 -0.0000  0.9148
 
              Baa    -0.0489   -26.100    -9.313    -8.706  0.9148 -0.0000  0.4038
     4 H(1)   Bbb    -0.0431   -22.970    -8.196    -7.662  0.0000  1.0000  0.0000
              Bcc     0.0920    49.070    17.509    16.368 -0.4038 -0.0000  0.9148
 
              Baa    -0.3171   -42.551   -15.183   -14.193 -0.0000  0.0080  1.0000
     5 C(13)  Bbb    -0.2505   -33.620   -11.997   -11.214  1.0000  0.0000  0.0000
              Bcc     0.5676    76.171    27.180    25.408 -0.0000  1.0000 -0.0080
 
              Baa    -0.2774   -37.228   -13.284   -12.418  0.0000  1.0000 -0.0000
     6 C(13)  Bbb    -0.1312   -17.605    -6.282    -5.873  0.0000  0.0000  1.0000
              Bcc     0.4086    54.833    19.566    18.290  1.0000  0.0000 -0.0000
 
              Baa    -0.0238   -12.673    -4.522    -4.227 -0.0000  1.0000  0.0000
     7 H(1)   Bbb    -0.0138    -7.356    -2.625    -2.454  1.0000  0.0000 -0.0000
              Bcc     0.0375    20.029     7.147     6.681  0.0000 -0.0000  1.0000
 

 ---------------------------------------------------------------------------------

 No NMR shielding tensors so no spin-rotation constants.
 Leave Link  601 at Thu Jan 31 05:28:50 2019, MaxMem=    33554432 cpu:         2.9
 (Enter /home/proyectos/fulerenos/M3C-v2.0/M3C-deps_CCC/g09-AM64L-G09RevC.01/l701.exe)
 Compute integral second derivatives.
 ... and contract with generalized density number  0.
 Leave Link  701 at Thu Jan 31 05:28:50 2019, MaxMem=    33554432 cpu:         2.3
 (Enter /home/proyectos/fulerenos/M3C-v2.0/M3C-deps_CCC/g09-AM64L-G09RevC.01/l702.exe)
 L702 exits ... SP integral derivatives will be done elsewhere.
 Leave Link  702 at Thu Jan 31 05:28:50 2019, MaxMem=    33554432 cpu:         0.1
 (Enter /home/proyectos/fulerenos/M3C-v2.0/M3C-deps_CCC/g09-AM64L-G09RevC.01/l703.exe)
 Compute integral second derivatives, UseDBF=F ICtDFT=           0.
 Integral derivatives from FoFJK, PRISM(SPDF).
 Calling FoFJK, ICntrl=    100127 FMM=F ISym2X=1 I1Cent= 0 IOpClX= 1 NMat=1 NMatS=1 NMatT=0.
 FoFJK:  IHMeth= 1 ICntrl=  100127 DoSepK=F KAlg= 0 I1Cent=   0 FoldK=F
 IRaf=         0 NMat=   1 IRICut=       1 DoRegI=T DoRafI=F ISym2E= 1.
 FoFCou: FMM=F IPFlag=           0 FMFlag=      100000 FMFlg1=         800
         NFxFlg=           0 DoJE=F BraDBF=F KetDBF=F FulRan=T
         wScrn=  0.000000 ICntrl=  100127 IOpCl=  1 I1Cent=           0 NGrid=           0
         NMat0=    1 NMatS0=      1 NMatT0=    0 NMatD0=    1 NMtDS0=    0 NMtDT0=    0
 Petite list used in FoFCou.
 Leave Link  703 at Thu Jan 31 05:29:38 2019, MaxMem=    33554432 cpu:       191.3
 (Enter /home/proyectos/fulerenos/M3C-v2.0/M3C-deps_CCC/g09-AM64L-G09RevC.01/l716.exe)
 Dipole        = 3.65089385D-16-4.20510584D-15-8.08080026D-01
 Polarizability= 1.95924890D+01 1.12450661D-08 2.52794839D+01
                -6.10389199D-09-3.23600214D-08 4.44932748D+01
 Full mass-weighted force constant matrix:
 Low frequencies ---  -18.2081   -6.1812   -0.0010   -0.0004    0.0005    6.7894
 Low frequencies ---  386.3818  563.9430  573.0257
 Diagonal vibrational polarizability:
       26.2275161       8.0584918      29.5633593
 Harmonic frequencies (cm**-1), IR intensities (KM/Mole), Raman scattering
 activities (A**4/AMU), depolarization ratios for plane and unpolarized
 incident light, reduced masses (AMU), force constants (mDyne/A),
 and normal coordinates:
                      1                      2                      3
                     B1                     A2                     B2
 Frequencies --    386.3818               563.9429               573.0257
 Red. masses --      1.8188                 1.0910                 3.9786
 Frc consts  --      0.1600                 0.2044                 0.7697
 IR Inten    --     71.1964                 0.0000                16.5670
  Atom  AN      X      Y      Z        X      Y      Z        X      Y      Z
     1   6    -0.04  -0.00   0.00     0.00  -0.00   0.00    -0.00   0.30   0.00
     2   6     0.16   0.00   0.00    -0.06   0.00   0.00     0.00  -0.24  -0.17
     3   1    -0.47  -0.00   0.34    -0.00   0.70   0.00     0.00   0.36  -0.00
     4   1    -0.47  -0.00  -0.34     0.00  -0.70   0.00     0.00   0.36   0.00
     5   6     0.16   0.00  -0.00     0.06   0.00  -0.00     0.00  -0.24   0.17
     6   6    -0.15  -0.00   0.00     0.00  -0.00   0.00    -0.00   0.07  -0.00
     7   1    -0.49  -0.00  -0.00    -0.00  -0.00   0.00    -0.00   0.68  -0.00
                      4                      5                      6
                     B1                     B2                     B1
 Frequencies --    690.6113               735.9984               806.5236
 Red. masses --      1.9719                 3.6271                 1.4057
 Frc consts  --      0.5541                 1.1576                 0.5387
 IR Inten    --     74.6147                 9.1067                21.2155
  Atom  AN      X      Y      Z        X      Y      Z        X      Y      Z
     1   6     0.25   0.00  -0.00    -0.00  -0.14   0.00    -0.02  -0.00  -0.00
     2   6    -0.11  -0.00  -0.00     0.00  -0.13   0.19     0.05  -0.00   0.00
     3   1    -0.44   0.00   0.47     0.00   0.57  -0.00    -0.00   0.00  -0.06
     4   1    -0.44   0.00  -0.47     0.00   0.57   0.00    -0.00   0.00   0.06
     5   6    -0.11  -0.00   0.00     0.00  -0.13  -0.19     0.05  -0.00  -0.00
     6   6     0.02   0.00   0.00     0.00   0.34  -0.00    -0.17   0.00   0.00
     7   1     0.30   0.00   0.00    -0.00  -0.32  -0.00     0.98  -0.00   0.00
                      7                      8                      9
                     A1                     B2                     A1
 Frequencies --    865.9122               932.7914               946.6923
 Red. masses --      5.7699                 1.5778                 1.1075
 Frc consts  --      2.5490                 0.8088                 0.5848
 IR Inten    --     34.3351               176.9680               489.2231
  Atom  AN      X      Y      Z        X      Y      Z        X      Y      Z
     1   6     0.00   0.00   0.27    -0.00  -0.15   0.00    -0.00  -0.00   0.05
     2   6     0.00   0.38  -0.03     0.00   0.06  -0.08    -0.00   0.02   0.04
     3   1    -0.03  -0.00   0.47    -0.00   0.67   0.00     0.52   0.00  -0.48
     4   1     0.03  -0.00   0.47     0.00   0.67   0.00    -0.52   0.00  -0.48
     5   6     0.00  -0.38  -0.03     0.00   0.06   0.08     0.00  -0.02   0.04
     6   6    -0.00   0.00  -0.26     0.00  -0.10   0.00     0.00  -0.00  -0.05
     7   1     0.00  -0.00  -0.34    -0.00   0.25  -0.00    -0.00   0.00  -0.07
                     10                     11                     12
                     B2                     A1                     A1
 Frequencies --    988.6471              1166.1591              1305.2435
 Red. masses --      1.3603                 6.7823                 4.9642
 Frc consts  --      0.7834                 5.4343                 4.9829
 IR Inten    --     28.1438                 0.0085               240.2644
  Atom  AN      X      Y      Z        X      Y      Z        X      Y      Z
     1   6    -0.00  -0.02  -0.00     0.00  -0.00   0.47    -0.00   0.00   0.17
     2   6     0.00  -0.00   0.12     0.00  -0.32  -0.12     0.00   0.07  -0.30
     3   1    -0.00  -0.09   0.00     0.15  -0.00   0.41     0.42  -0.00   0.04
     4   1     0.00  -0.09   0.00    -0.15   0.00   0.41    -0.42   0.00   0.04
     5   6     0.00  -0.00  -0.12    -0.00   0.32  -0.12    -0.00  -0.07  -0.30
     6   6     0.00  -0.04   0.00    -0.00  -0.00  -0.27     0.00   0.00   0.38
     7   1    -0.00   0.98   0.00     0.00   0.00  -0.32     0.00  -0.00   0.53
                     13                     14                     15
                     B1                     A1                     A1
 Frequencies --   1589.2464              2137.0333              2719.8495
 Red. masses --      1.0490                 1.1616                 1.1276
 Frc consts  --      1.5610                 3.1256                 4.9147
 IR Inten    --    779.5312              1285.8097               623.6628
  Atom  AN      X      Y      Z        X      Y      Z        X      Y      Z
     1   6    -0.06  -0.00   0.00     0.00  -0.00  -0.11     0.00  -0.00   0.01
     2   6    -0.00  -0.00  -0.00    -0.00  -0.01   0.02    -0.00   0.00   0.01
     3   1     0.42   0.00   0.56     0.50   0.00   0.49    -0.02   0.00  -0.01
     4   1     0.42   0.00  -0.56    -0.50  -0.00   0.49     0.02  -0.00  -0.01
     5   6    -0.00   0.00   0.00     0.00   0.01   0.02     0.00  -0.00   0.01
     6   6    -0.01  -0.00  -0.00    -0.00  -0.00  -0.02     0.00  -0.00  -0.10
     7   1     0.05   0.00   0.00     0.00  -0.00   0.02    -0.00   0.00   0.99

 -------------------
 - Thermochemistry -
 -------------------
 Temperature   298.150 Kelvin.  Pressure   1.00000 Atm.
 Atom     1 has atomic number  6 and mass  12.00000
 Atom     2 has atomic number  6 and mass  12.00000
 Atom     3 has atomic number  1 and mass   1.00783
 Atom     4 has atomic number  1 and mass   1.00783
 Atom     5 has atomic number  6 and mass  12.00000
 Atom     6 has atomic number  6 and mass  12.00000
 Atom     7 has atomic number  1 and mass   1.00783
 Molecular mass:    51.02348 amu.
 Principal axes and moments of inertia in atomic units:
                           1         2         3
     Eigenvalues --    60.88738 178.01158 228.76133
           X            0.00000   0.00000   1.00000
           Y            0.00000   1.00000  -0.00000
           Z            1.00000  -0.00000  -0.00000
 This molecule is an asymmetric top.
 Rotational symmetry number  2.
 Rotational temperatures (Kelvin)      1.42252     0.48656     0.37862
 Rotational constants (GHZ):          29.64064    10.13834     7.88919
 Zero-point vibrational energy      98142.0 (Joules/Mol)
                                   23.45650 (Kcal/Mol)
 Warning -- explicit consideration of   3 degrees of freedom as
           vibrations may cause significant error
 Vibrational temperatures:    555.92   811.39   824.46   993.63  1058.94
          (Kelvin)           1160.41  1245.85  1342.08  1362.08  1422.44
                             1677.84  1877.95  2286.57  3074.71  3913.25
 
 Zero-point correction=                           0.037380 (Hartree/Particle)
 Thermal correction to Energy=                    0.041411
 Thermal correction to Enthalpy=                  0.042355
 Thermal correction to Gibbs Free Energy=         0.011783
 Sum of electronic and zero-point Energies=           -152.148696
 Sum of electronic and thermal Energies=              -152.144665
 Sum of electronic and thermal Enthalpies=            -152.143721
 Sum of electronic and thermal Free Energies=         -152.174293
 
                     E (Thermal)             CV                S
                      KCal/Mol        Cal/Mol-Kelvin    Cal/Mol-Kelvin
 Total                   25.986             14.179             64.344
 Electronic               0.000              0.000              2.183
 Translational            0.889              2.981             37.712
 Rotational               0.889              2.981             21.055
 Vibrational             24.208              8.217              3.394
 Vibration     1          0.755              1.499              1.014
 Vibration     2          0.920              1.109              0.516
 Vibration     3          0.929              1.090              0.498
                       Q            Log10(Q)             Ln(Q)
 Total Bot       0.380337D-05         -5.419832        -12.479624
 Total V=0       0.594127D+12         11.773880         27.110359
 Vib (Bot)       0.992981D-17        -17.003059        -39.150990
 Vib (Bot)    1  0.465847D+00         -0.331757         -0.763899
 Vib (Bot)    2  0.274540D+00         -0.561394         -1.292657
 Vib (Bot)    3  0.267781D+00         -0.572221         -1.317587
 Vib (V=0)       0.155115D+01          0.190652          0.438994
 Vib (V=0)    1  0.118338D+01          0.073126          0.168378
 Vib (V=0)    2  0.107041D+01          0.029552          0.068046
 Vib (V=0)    3  0.106719D+01          0.028242          0.065031
 Electronic      0.300000D+01          0.477121          1.098612
 Translational   0.143255D+08          7.156110         16.477553
 Rotational      0.891242D+04          3.949996          9.095201
 
                                                              b3lyp opt
                                                             IR Spectrum
 
     2                           2                        1             1     1                                                      
     7                           1                        5             3     1       9 99  8  8  7 6    55       3                  
     2                           3                        8             0     6       8 43  6  0  3 9    76       8                  
     0                           7                        9             5     6       9 73  6  7  6 1    34       6                  
 
     X                           X                        X             X             X XX  X  X  X X    X        X                  
     X                           X                        X             X               XX                                           
     X                           X                        X             X               XX                                           
     X                           X                        X             X               X                                            
     X                           X                        X                             X                                            
     X                           X                        X                             X                                            
     X                           X                        X                             X                                            
     X                           X                        X                             X                                            
     X                           X                        X                                                                          
     X                           X                        X                                                                          
                                 X                        X                                                                          
                                 X                        X                                                                          
                                 X                                                                                                   
                                 X                                                                                                   
                                 X                                                                                                   
                                 X                                                                                                   
                                 X                                                                                                   
                                 X                                                                                                   
                                 X                                                                                                   
                                 X                                                                                                   
 
 ***** Axes restored to original set *****
 -------------------------------------------------------------------
 Center     Atomic                   Forces (Hartrees/Bohr)
 Number     Number              X              Y              Z
 -------------------------------------------------------------------
      1        6           0.000103109   -0.000000148    0.000000070
      2        6          -0.000003777   -0.000183944    0.000000038
      3        1          -0.000034530    0.000000047   -0.000012789
      4        1          -0.000034547    0.000000052    0.000012742
      5        6          -0.000003250    0.000183954   -0.000000043
      6        6          -0.000058369    0.000000084   -0.000000040
      7        1           0.000031364   -0.000000045    0.000000021
 -------------------------------------------------------------------
 Cartesian Forces:  Max     0.000183954 RMS     0.000063783
 Z-matrix is all fixed cartesians, so copy forces.
 Force constants in Cartesian coordinates: 
                1             2             3             4             5 
      1  0.623455D+00
      2 -0.712937D-03  0.125848D+00
      3  0.333493D-03  0.000000D+00  0.131544D+00
      4 -0.199776D+00 -0.202617D-01 -0.103798D-03  0.319396D+00
      5 -0.364317D-01 -0.439974D-01 -0.238199D-04 -0.223762D-01  0.280319D+00
      6 -0.100248D-03 -0.128621D-04 -0.400382D-01  0.193598D-03 -0.677026D-04
      7 -0.829108D-01  0.760692D-04 -0.247753D-01  0.491244D-02 -0.145086D-01
      8  0.653458D-04 -0.260447D-01  0.325577D-04 -0.113651D-01  0.152282D-02
      9 -0.738421D-01  0.102865D-03 -0.395032D-01  0.540418D-02 -0.790199D-02
     10 -0.830444D-01  0.870739D-04  0.247162D-01  0.491136D-02 -0.145166D-01
     11  0.977974D-04 -0.260448D-01 -0.383284D-04 -0.113753D-01  0.152882D-02
     12  0.737830D-01 -0.108634D-03 -0.393696D-01 -0.539425D-02  0.788221D-02
     13 -0.199613D+00  0.207076D-01 -0.112677D-03  0.849754D-01  0.852914D-02
     14  0.368776D-01 -0.441611D-01  0.258933D-04 -0.927996D-02 -0.177027D+00
     15 -0.116228D-03  0.149366D-04 -0.400383D-01  0.399005D-04  0.510237D-04
     16 -0.667101D-01  0.124888D-03 -0.621699D-04 -0.217436D+00  0.690660D-01
     17  0.124886D-03  0.204551D-01  0.107961D-05  0.488898D-01 -0.624034D-01
     18 -0.621683D-04  0.107974D-05  0.249923D-01 -0.132982D-03  0.523728D-04
     19  0.859909D-02 -0.209977D-04  0.419689D-05  0.301691D-02  0.102380D-01
     20 -0.209972D-04 -0.605550D-02  0.184451D-05  0.257684D-01  0.565682D-04
     21  0.419677D-05  0.184517D-05  0.241299D-02 -0.665132D-05  0.790889D-05
                6             7             8             9            10 
      6  0.409499D-01
      7 -0.619288D-02  0.778777D-01
      8 -0.577846D-02 -0.756568D-04  0.174567D-01
      9  0.126751D-02  0.499681D-01 -0.605584D-04  0.679770D-01
     10  0.620419D-02  0.143013D-01 -0.910019D-05  0.105941D-01  0.780131D-01
     11  0.576294D-02 -0.137170D-04  0.633482D-02 -0.230384D-04 -0.976865D-04
     12  0.126260D-02 -0.105345D-01  0.723633D-05 -0.296260D-01 -0.499545D-01
     13  0.359906D-04  0.498656D-02  0.113576D-01  0.542184D-02  0.498553D-02
     14  0.389556D-04  0.144960D-01  0.145468D-02  0.788638D-02  0.145094D-01
     15  0.291002D-01 -0.618263D-02  0.579609D-02  0.126153D-02  0.618131D-02
     16 -0.137411D-03 -0.163820D-01  0.220351D-04  0.451281D-02 -0.163820D-01
     17  0.386997D-04  0.200720D-04 -0.169180D-02 -0.669017D-05  0.220226D-04
     18 -0.370277D-01 -0.447263D-02  0.618490D-05 -0.271553D-02  0.445410D-02
     19 -0.324264D-05 -0.278520D-02  0.492730D-05 -0.205896D-02 -0.278501D-02
     20  0.184339D-04  0.585568D-05  0.967537D-03  0.303124D-05  0.489720D-05
     21  0.448567D-02  0.218984D-02 -0.305657D-05  0.133864D-02 -0.219543D-02
               11            12            13            14            15 
     11  0.174567D-01
     12  0.825890D-04  0.678415D-01
     13  0.113630D-01 -0.542179D-02  0.319524D+00
     14  0.144868D-02 -0.786681D-02  0.222639D-01  0.280191D+00
     15 -0.578078D-02  0.126856D-02  0.183885D-03 -0.374247D-04  0.409499D-01
     16  0.200594D-04 -0.453134D-02 -0.217772D+00 -0.686208D-01 -0.107419D-03
     17 -0.169180D-02  0.626852D-05 -0.484446D-01 -0.620667D-01 -0.273318D-04
     18 -0.660592D-05 -0.271561D-02 -0.111845D-03 -0.410033D-04 -0.370276D-01
     19  0.582566D-05  0.205336D-02  0.291370D-02 -0.102462D-01  0.118389D-05
     20  0.967537D-03 -0.286103D-05 -0.257766D-01  0.159767D-03 -0.165177D-04
     21  0.322689D-05  0.133846D-02  0.459161D-05 -0.599448D-05  0.448568D-02
               16            17            18            19            20 
     16  0.798046D+00
     17 -0.952494D-03  0.133228D+00
     18  0.481782D-03 -0.107087D-04  0.873831D-01
     19 -0.263364D+00  0.340323D-03 -0.156253D-03  0.254404D+00
     20  0.340324D-03 -0.258295D-01 -0.131874D-05 -0.321892D-03  0.297336D-01
     21 -0.156253D-03 -0.131823D-05 -0.328890D-01  0.159706D-03 -0.261205D-05
               21 
     21  0.188275D-01
 Leave Link  716 at Thu Jan 31 05:29:38 2019, MaxMem=    33554432 cpu:         0.2
 (Enter /home/proyectos/fulerenos/M3C-v2.0/M3C-deps_CCC/g09-AM64L-G09RevC.01/l103.exe)

 GradGradGradGradGradGradGradGradGradGradGradGradGradGradGradGradGradGrad
 Berny optimization.
 Search for a local minimum.
 Step number   1 out of a maximum of    2
 All quantities printed in internal units (Hartrees-Bohrs-Radians)
 Second derivative matrix not updated -- analytic derivatives used.
 ITU=  0
     Eigenvalues ---    0.01139   0.01955   0.03437   0.03825   0.05997
     Eigenvalues ---    0.08454   0.11058   0.11923   0.20472   0.20909
     Eigenvalues ---    0.22205   0.29731   0.45064   0.81292   1.05103
 Angle between quadratic step and forces=  49.58 degrees.
 ClnCor:  largest displacement from symmetrization is 9.10D-12 for atom     7.
 Linear search not attempted -- first point.
 ClnCor:  largest displacement from symmetrization is 1.78D-15 for atom     7.
 B after Tr=     0.000071   -0.000000    0.000000
         Rot=    1.000000    0.000000   -0.000000    0.000000 Ang=   0.00 deg.
 Variable       Old X    -DE/DX   Delta X   Delta X   Delta X     New X
                                 (Linear)    (Quad)   (Total)
    X1        2.14492   0.00010   0.00000   0.00007   0.00014   2.14506
    Y1       -0.00314  -0.00000   0.00000  -0.00000  -0.00000  -0.00314
    Z1        0.00148   0.00000   0.00000   0.00000   0.00000   0.00148
    X2       -0.15669  -0.00000   0.00000   0.00008   0.00015  -0.15654
    Y2       -1.52489  -0.00018   0.00000  -0.00045  -0.00045  -1.52534
    Z2        0.00026   0.00000   0.00000   0.00000   0.00000   0.00026
    X3        3.84063  -0.00003   0.00000  -0.00055  -0.00048   3.84015
    Y3       -0.00522   0.00000   0.00000   0.00000   0.00000  -0.00522
    Z3        1.58842  -0.00001   0.00000   0.00018   0.00018   1.58861
    X4        3.84278  -0.00003   0.00000  -0.00055  -0.00048   3.84230
    Y4       -0.00591   0.00000   0.00000   0.00000   0.00000  -0.00591
    Z4       -1.58316   0.00001   0.00000  -0.00018  -0.00018  -1.58334
    X5       -0.15232  -0.00000   0.00000   0.00008   0.00015  -0.15216
    Y5        1.52521   0.00018   0.00000   0.00045   0.00045   1.52565
    Z5       -0.00041  -0.00000   0.00000  -0.00000   0.00000  -0.00041
    X6       -2.36470  -0.00006   0.00000   0.00012   0.00019  -2.36451
    Y6        0.00333   0.00000   0.00000  -0.00000  -0.00000   0.00333
    Z6       -0.00157  -0.00000   0.00000   0.00000   0.00000  -0.00157
    X7       -4.51069   0.00003   0.00000   0.00027   0.00034  -4.51036
    Y7        0.00640  -0.00000   0.00000  -0.00000  -0.00000   0.00640
    Z7       -0.00303   0.00000   0.00000   0.00000   0.00000  -0.00303
         Item               Value     Threshold  Converged?
 Maximum Force            0.000184     0.000450     YES
 RMS     Force            0.000064     0.000300     YES
 Maximum Displacement     0.000483     0.001800     YES
 RMS     Displacement     0.000234     0.001200     YES
 Predicted change in Energy=-1.029819D-07
 Optimization completed.
    -- Stationary point found.
 GradGradGradGradGradGradGradGradGradGradGradGradGradGradGradGradGradGrad

 Leave Link  103 at Thu Jan 31 05:29:38 2019, MaxMem=    33554432 cpu:         0.1
 (Enter /home/proyectos/fulerenos/M3C-v2.0/M3C-deps_CCC/g09-AM64L-G09RevC.01/l9999.exe)

 Test job not archived.
 1\1\GINC-COPERNICIO\Freq\UB3LYP\6-311++G(3df,2p)\C4H3(3+,3)\ROOT\31-Ja
 n-2019\0\\#p b3lyp/6-311++G(3df,2p) freq IOp(2/17=3) IOp(2/18=3)\\b3ly
 p opt\\3,3\C,1.135041218,-0.0016593732,0.0007844691\C,-0.082914554,-0.
 806936201,0.0001358891\H,2.032374041,-0.0027616328,0.840556967\H,2.033
 5113392,-0.0031300145,-0.8377705601\C,-0.0806018306,0.8071041451,-0.00
 02168148\C,-1.251345572,0.0017596752,-0.0008333873\H,-2.386955499,0.00
 33866977,-0.0016032766\\Version=EM64L-G09RevE.01\State=3-B1\HF=-152.18
 6076\S2=2.02205\S2-1=0.\S2A=2.000159\RMSD=2.514e-09\RMSF=6.378e-05\Zer
 oPoint=0.0373803\Thermal=0.0414107\Dipole=0.808079,-0.0011578,0.000547
 8\DipoleDeriv=-0.4129873,0.0010459,-0.0000846,0.0010459,0.3169191,-0.0
 001322,-0.0000846,-0.0001322,-0.2884431,-0.0870441,-0.0392843,-0.00048
 26,0.2626387,0.6695068,0.000171,-0.0005489,-0.0000336,0.6378941,0.9444
 604,-0.0007909,0.3157178,-0.0008023,0.344373,-0.0003885,0.2633323,-0.0
 003135,0.636532,0.9452446,-0.0009299,-0.315299,-0.0009184,0.3443734,0.
 0005155,-0.2629135,0.0004404,0.6357474,-0.087678,0.041454,-0.0005008,-
 0.260469,0.6701406,-0.0001836,-0.0004345,0.000021,0.6378942,0.7252933,
 -0.000528,0.0001517,-0.000528,0.3567689,0.0000314,0.0001517,0.0000314,
 0.5016487,0.9727111,-0.0009668,0.0004976,-0.0009668,0.2979183,-0.00001
 36,0.0004976,-0.0000136,0.2387266\Polar=44.493224,-0.0275273,25.279523
 1,0.0168797,-0.0012669,19.5925007\PG=C02V [C2(C1C1H1),SGV(C2),SGV'(H2)
 ]\NImag=0\\0.62345509,-0.00071294,0.12584847,0.00033349,0.00000077,0.1
 3154395,-0.19977631,-0.02026172,-0.00010380,0.31939591,-0.03643169,-0.
 04399741,-0.00002382,-0.02237618,0.28031932,-0.00010025,-0.00001286,-0
 .04003825,0.00019360,-0.00006770,0.04094989,-0.08291084,0.00007607,-0.
 02477529,0.00491244,-0.01450864,-0.00619288,0.07787772,0.00006535,-0.0
 2604475,0.00003256,-0.01136511,0.00152282,-0.00577846,-0.00007566,0.01
 745668,-0.07384209,0.00010287,-0.03950319,0.00540418,-0.00790199,0.001
 26751,0.04996812,-0.00006056,0.06797703,-0.08304441,0.00008707,0.02471
 624,0.00491136,-0.01451661,0.00620419,0.01430135,-0.00000910,0.0105940
 8,0.07801314,0.00009780,-0.02604481,-0.00003833,-0.01137531,0.00152882
 ,0.00576294,-0.00001372,0.00633482,-0.00002304,-0.00009769,0.01745675,
 0.07378304,-0.00010863,-0.03936956,-0.00539425,0.00788221,0.00126260,-
 0.01053454,0.00000724,-0.02962600,-0.04995448,0.00008259,0.06784155,-0
 .19961256,0.02070763,-0.00011268,0.08497541,0.00852914,0.00003599,0.00
 498656,0.01135756,0.00542184,0.00498553,0.01136303,-0.00542179,0.31952
 384,0.03687760,-0.04416114,0.00002589,-0.00927996,-0.17702675,0.000038
 96,0.01449601,0.00145468,0.00788638,0.01450940,0.00144868,-0.00786681,
 0.02226391,0.28019141,-0.00011623,0.00001494,-0.04003826,0.00003990,0.
 00005102,0.02910024,-0.00618263,0.00579609,0.00126153,0.00618131,-0.00
 578078,0.00126856,0.00018389,-0.00003742,0.04094987,-0.06671005,0.0001
 2489,-0.00006217,-0.21743573,0.06906599,-0.00013741,-0.01638203,0.0000
 2204,0.00451281,-0.01638195,0.00002006,-0.00453134,-0.21777249,-0.0686
 2080,-0.00010742,0.79804607,0.00012489,0.02045514,0.00000108,0.0488898
 4,-0.06240337,0.00003870,0.00002007,-0.00169180,-0.00000669,0.00002202
 ,-0.00169180,0.00000627,-0.04844464,-0.06206665,-0.00002733,-0.0009524
 9,0.13322800,-0.00006217,0.00000108,0.02499232,-0.00013298,0.00005237,
 -0.03702767,-0.00447263,0.00000618,-0.00271553,0.00445410,-0.00000661,
 -0.00271561,-0.00011185,-0.00004100,-0.03702763,0.00048178,-0.00001071
 ,0.08738307,0.00859909,-0.00002100,0.00000420,0.00301691,0.01023799,-0
 .00000324,-0.00278520,0.00000493,-0.00205896,-0.00278501,0.00000583,0.
 00205336,0.00291370,-0.01024618,0.00000118,-0.26336382,0.00034032,-0.0
 0015625,0.25440434,-0.00002100,-0.00605550,0.00000184,0.02576844,0.000
 05657,0.00001843,0.00000586,0.00096754,0.00000303,0.00000490,0.0009675
 4,-0.00000286,-0.02577663,0.00015977,-0.00001652,0.00034032,-0.0258295
 2,-0.00000132,-0.00032189,0.02973361,0.00000420,0.00000185,0.00241299,
 -0.00000665,0.00000791,0.00448567,0.00218984,-0.00000306,0.00133864,-0
 .00219543,0.00000323,0.00133846,0.00000459,-0.00000599,0.00448568,-0.0
 0015625,-0.00000132,-0.03288897,0.00015971,-0.00000261,0.01882752\\-0.
 00010311,0.00000015,-0.00000007,0.00000378,0.00018394,-0.00000004,0.00
 003453,-0.00000005,0.00001279,0.00003455,-0.00000005,-0.00001274,0.000
 00325,-0.00018395,0.00000004,0.00005837,-0.00000008,0.00000004,-0.0000
 3136,0.00000004,-0.00000002\\\@


 The chemist is a guest at the physicist's table and
 frequently dines well.
                   -- Richard Bersohn
 Job cpu time:       0 days  0 hours 20 minutes  1.1 seconds.
 File lengths (MBytes):  RWF=     39 Int=      0 D2E=      0 Chk=      4 Scr=      1
 Normal termination of Gaussian 09 at Thu Jan 31 05:29:39 2019.
