 Entering Gaussian System, Link 0=/home/proyectos/fulerenos/M3C-v1.9/M3C-deps_CCC/g09-AM64L-G09RevC.01/g09
 Initial command:
 /home/proyectos/fulerenos/M3C-v1.9/M3C-deps_CCC/g09-AM64L-G09RevC.01/l1.exe "/scratch/naguirre/gaussian/Gau-9108.inp" -scrdir="/scratch/naguirre/gaussian/"
 Entering Link 1 = /home/proyectos/fulerenos/M3C-v1.9/M3C-deps_CCC/g09-AM64L-G09RevC.01/l1.exe PID=      9116.
  
 Copyright (c) 1988,1990,1992,1993,1995,1998,2003,2009,2015,
            Gaussian, Inc.  All Rights Reserved.
  
 This is part of the Gaussian(R) 09 program.  It is based on
 the Gaussian(R) 03 system (copyright 2003, Gaussian, Inc.),
 the Gaussian(R) 98 system (copyright 1998, Gaussian, Inc.),
 the Gaussian(R) 94 system (copyright 1995, Gaussian, Inc.),
 the Gaussian 92(TM) system (copyright 1992, Gaussian, Inc.),
 the Gaussian 90(TM) system (copyright 1990, Gaussian, Inc.),
 the Gaussian 88(TM) system (copyright 1988, Gaussian, Inc.),
 the Gaussian 86(TM) system (copyright 1986, Carnegie Mellon
 University), and the Gaussian 82(TM) system (copyright 1983,
 Carnegie Mellon University). Gaussian is a federally registered
 trademark of Gaussian, Inc.
  
 This software contains proprietary and confidential information,
 including trade secrets, belonging to Gaussian, Inc.
  
 This software is provided under written license and may be
 used, copied, transmitted, or stored only in accord with that
 written license.
  
 The following legend is applicable only to US Government
 contracts under FAR:
  
                    RESTRICTED RIGHTS LEGEND
  
 Use, reproduction and disclosure by the US Government is
 subject to restrictions as set forth in subparagraphs (a)
 and (c) of the Commercial Computer Software - Restricted
 Rights clause in FAR 52.227-19.
  
 Gaussian, Inc.
 340 Quinnipiac St., Bldg. 40, Wallingford CT 06492
  
  
 ---------------------------------------------------------------
 Warning -- This program may not be used in any manner that
 competes with the business of Gaussian, Inc. or will provide
 assistance to any competitor of Gaussian, Inc.  The licensee
 of this program is prohibited from giving any competitor of
 Gaussian, Inc. access to this program.  By using this program,
 the user acknowledges that Gaussian, Inc. is engaged in the
 business of creating and licensing software in the field of
 computational chemistry and represents and warrants to the
 licensee that it is not a competitor of Gaussian, Inc. and that
 it will not use this program in any manner prohibited above.
 ---------------------------------------------------------------
  

 Cite this work as:
 Gaussian 09, Revision E.01,
 M. J. Frisch, G. W. Trucks, H. B. Schlegel, G. E. Scuseria, 
 M. A. Robb, J. R. Cheeseman, G. Scalmani, V. Barone, B. Mennucci, 
 G. A. Petersson, H. Nakatsuji, M. Caricato, X. Li, H. P. Hratchian, 
 A. F. Izmaylov, J. Bloino, G. Zheng, J. L. Sonnenberg, M. Hada, 
 M. Ehara, K. Toyota, R. Fukuda, J. Hasegawa, M. Ishida, T. Nakajima, 
 Y. Honda, O. Kitao, H. Nakai, T. Vreven, J. A. Montgomery, Jr., 
 J. E. Peralta, F. Ogliaro, M. Bearpark, J. J. Heyd, E. Brothers, 
 K. N. Kudin, V. N. Staroverov, T. Keith, R. Kobayashi, J. Normand, 
 K. Raghavachari, A. Rendell, J. C. Burant, S. S. Iyengar, J. Tomasi, 
 M. Cossi, N. Rega, J. M. Millam, M. Klene, J. E. Knox, J. B. Cross, 
 V. Bakken, C. Adamo, J. Jaramillo, R. Gomperts, R. E. Stratmann, 
 O. Yazyev, A. J. Austin, R. Cammi, C. Pomelli, J. W. Ochterski, 
 R. L. Martin, K. Morokuma, V. G. Zakrzewski, G. A. Voth, 
 P. Salvador, J. J. Dannenberg, S. Dapprich, A. D. Daniels, 
 O. Farkas, J. B. Foresman, J. V. Ortiz, J. Cioslowski, 
 and D. J. Fox, Gaussian, Inc., Wallingford CT, 2013.
 
 ******************************************
 Gaussian 09:  EM64L-G09RevE.01 30-Nov-2015
                19-Jun-2016 
 ******************************************
 %NProcShared=4
 Will use up to    4 processors via shared memory.
 ---------------------------------------------
 #p b3lyp/6-311++G(3df,2p) freq symmetry=Loose
 ---------------------------------------------
 1/10=4,30=1,38=1/1,3;
 2/12=2,17=4,18=3,40=1/2;
 3/5=4,6=6,7=1216,11=2,16=1,25=1,30=1,71=2,74=-5,140=1/1,2,3;
 4//1;
 5/5=2,38=5,98=1/2;
 8/6=4,10=90,11=11/1;
 11/6=1,8=1,9=11,15=111,16=1/1,2,10;
 10/6=1/2;
 6/7=2,8=2,9=2,10=2,18=1,28=1/1;
 7/8=1,10=1,25=1/1,2,3,16;
 1/10=4,30=1/3;
 99//99;
 Leave Link    1 at Sun Jun 19 06:40:15 2016, MaxMem=           0 cpu:         0.3
 (Enter /home/proyectos/fulerenos/M3C-v1.9/M3C-deps_CCC/g09-AM64L-G09RevC.01/l101.exe)
 ---------
 b3lyp opt
 ---------
 Symbolic Z-matrix:
 Charge =  3 Multiplicity = 1
 C                    -0.2161    0.01648  -0.00001 
 C                    -0.99863   1.31521  -0.00038 
 C                    -0.91652  -1.33999   0.00032 
 C                     1.17529  -0.07942  -0.00001 
 H                     2.37723   0.47944  -0.00137 
 H                     1.62125   1.10479   0.00378 
 H                     1.73722  -1.05788  -0.00194 
 
 NAtoms=      7 NQM=        7 NQMF=       0 NMMI=      0 NMMIF=      0
                NMic=       0 NMicF=      0.
                    Isotopes and Nuclear Properties:
 (Nuclear quadrupole moments (NQMom) in fm**2, nuclear magnetic moments (NMagM)
  in nuclear magnetons)

  Atom         1           2           3           4           5           6           7
 IAtWgt=          12          12          12          12           1           1           1
 AtmWgt=  12.0000000  12.0000000  12.0000000  12.0000000   1.0078250   1.0078250   1.0078250
 NucSpn=           0           0           0           0           1           1           1
 AtZEff=   0.0000000   0.0000000   0.0000000   0.0000000   0.0000000   0.0000000   0.0000000
 NQMom=    0.0000000   0.0000000   0.0000000   0.0000000   0.0000000   0.0000000   0.0000000
 NMagM=    0.0000000   0.0000000   0.0000000   0.0000000   2.7928460   2.7928460   2.7928460
 AtZNuc=   6.0000000   6.0000000   6.0000000   6.0000000   1.0000000   1.0000000   1.0000000
 Leave Link  101 at Sun Jun 19 06:40:15 2016, MaxMem=    33554432 cpu:         0.3
 (Enter /home/proyectos/fulerenos/M3C-v1.9/M3C-deps_CCC/g09-AM64L-G09RevC.01/l103.exe)

 GradGradGradGradGradGradGradGradGradGradGradGradGradGradGradGradGradGrad
 Berny optimization.
 Initialization pass.
 Trust Radius=3.00D-01 FncErr=1.00D-07 GrdErr=1.00D-07
 Number of steps in this run=      2 maximum allowed number of steps=      2.
 GradGradGradGradGradGradGradGradGradGradGradGradGradGradGradGradGradGrad

 Leave Link  103 at Sun Jun 19 06:40:15 2016, MaxMem=    33554432 cpu:         0.1
 (Enter /home/proyectos/fulerenos/M3C-v1.9/M3C-deps_CCC/g09-AM64L-G09RevC.01/l202.exe)
                          Input orientation:                          
 ---------------------------------------------------------------------
 Center     Atomic      Atomic             Coordinates (Angstroms)
 Number     Number       Type             X           Y           Z
 ---------------------------------------------------------------------
      1          6           0       -0.216095    0.016477   -0.000006
      2          6           0       -0.998628    1.315209   -0.000383
      3          6           0       -0.916519   -1.339988    0.000319
      4          6           0        1.175293   -0.079423   -0.000009
      5          1           0        2.377227    0.479443   -0.001365
      6          1           0        1.621251    1.104792    0.003783
      7          1           0        1.737220   -1.057884   -0.001941
 ---------------------------------------------------------------------
                    Distance matrix (angstroms):
                    1          2          3          4          5
     1  C    0.000000
     2  C    1.516266   0.000000
     3  C    1.526627   2.656466   0.000000
     4  C    1.394689   2.582815   2.442274   0.000000
     5  H    2.634323   3.477773   3.762857   1.325511   0.000000
     6  H    2.135482   2.628319   3.523810   1.265408   0.981115
     7  H    2.229281   3.621662   2.668692   1.128340   1.665228
                    6          7
     6  H    0.000000
     7  H    2.165791   0.000000
 Stoichiometry    C4H3(3+)
 Framework group  C1[X(C4H3)]
 Deg. of freedom    15
 Full point group                 C1      NOp   1
 Largest Abelian subgroup         C1      NOp   1
 Largest concise Abelian subgroup C1      NOp   1
                         Standard orientation:                         
 ---------------------------------------------------------------------
 Center     Atomic      Atomic             Coordinates (Angstroms)
 Number     Number       Type             X           Y           Z
 ---------------------------------------------------------------------
      1          6           0        0.216095   -0.016477   -0.000006
      2          6           0        0.998629   -1.315209   -0.000383
      3          6           0        0.916519    1.339988    0.000319
      4          6           0       -1.175293    0.079423   -0.000009
      5          1           0       -2.377227   -0.479444   -0.001365
      6          1           0       -1.621250   -1.104793    0.003783
      7          1           0       -1.737220    1.057883   -0.001941
 ---------------------------------------------------------------------
 Rotational constants (GHZ):     11.3016981     10.0703339      5.3252741
 Leave Link  202 at Sun Jun 19 06:40:15 2016, MaxMem=    33554432 cpu:         0.0
 (Enter /home/proyectos/fulerenos/M3C-v1.9/M3C-deps_CCC/g09-AM64L-G09RevC.01/l301.exe)
 Standard basis: 6-311++G(3df,2p) (5D, 7F)
 Ernie: Thresh=  0.10000D-02 Tol=  0.10000D-05 Strict=F.
 There are   210 symmetry adapted cartesian basis functions of A   symmetry.
 There are   186 symmetry adapted basis functions of A   symmetry.
   186 basis functions,   268 primitive gaussians,   210 cartesian basis functions
    12 alpha electrons       12 beta electrons
       nuclear repulsion energy        79.9178256495 Hartrees.
 IExCor=  402 DFT=T Ex+Corr=B3LYP ExCW=0 ScaHFX=  0.200000
 ScaDFX=  0.800000  0.720000  1.000000  0.810000 ScalE2=  1.000000  1.000000
 IRadAn=      0 IRanWt=     -1 IRanGd=            0 ICorTp=0 IEmpDi=  4
 NAtoms=    7 NActive=    7 NUniq=    7 SFac= 1.00D+00 NAtFMM=   60 NAOKFM=F Big=F
 Integral buffers will be    131072 words long.
 Raffenetti 2 integral format.
 Two-electron integral symmetry is turned on.
 Leave Link  301 at Sun Jun 19 06:40:15 2016, MaxMem=    33554432 cpu:         0.2
 (Enter /home/proyectos/fulerenos/M3C-v1.9/M3C-deps_CCC/g09-AM64L-G09RevC.01/l302.exe)
 NPDir=0 NMtPBC=     1 NCelOv=     1 NCel=       1 NClECP=     1 NCelD=      1
         NCelK=      1 NCelE2=     1 NClLst=     1 CellRange=     0.0.
 One-electron integrals computed using PRISM.
 NBasis=   186 RedAO= T EigKep=  2.35D-05  NBF=   186
 NBsUse=   186 1.00D-06 EigRej= -1.00D+00 NBFU=   186
 Precomputing XC quadrature grid using
 IXCGrd= 4 IRadAn=           0 IRanWt=          -1 IRanGd=           0 AccXCQ= 0.00D+00.
 Generated NRdTot=       0 NPtTot=           0 NUsed=           0 NTot=          32
 NSgBfM=   210   210   210   210   210 MxSgAt=     7 MxSgA2=     7.
 Leave Link  302 at Sun Jun 19 06:40:15 2016, MaxMem=    33554432 cpu:         1.1
 (Enter /home/proyectos/fulerenos/M3C-v1.9/M3C-deps_CCC/g09-AM64L-G09RevC.01/l303.exe)
 DipDrv:  MaxL=1.
 Leave Link  303 at Sun Jun 19 06:40:16 2016, MaxMem=    33554432 cpu:         0.1
 (Enter /home/proyectos/fulerenos/M3C-v1.9/M3C-deps_CCC/g09-AM64L-G09RevC.01/l401.exe)
 ExpMin= 3.60D-02 ExpMax= 4.56D+03 ExpMxC= 6.82D+02 IAcc=3 IRadAn=         5 AccDes= 0.00D+00
 Harris functional with IExCor=  402 and IRadAn=       5 diagonalized for initial guess.
 HarFok:  IExCor=  402 AccDes= 0.00D+00 IRadAn=         5 IDoV= 1 UseB2=F ITyADJ=14
 ICtDFT=  3500011 ScaDFX=  1.000000  1.000000  1.000000  1.000000
 FoFCou: FMM=F IPFlag=           0 FMFlag=      100000 FMFlg1=           0
         NFxFlg=           0 DoJE=T BraDBF=F KetDBF=T FulRan=T
         wScrn=  0.000000 ICntrl=     500 IOpCl=  0 I1Cent=   200000004 NGrid=           0
         NMat0=    1 NMatS0=      1 NMatT0=    0 NMatD0=    1 NMtDS0=    0 NMtDT0=    0
 Petite list used in FoFCou.
 Harris En= -153.079181861312    
 JPrj=0 DoOrth=F DoCkMO=F.
 Leave Link  401 at Sun Jun 19 06:40:17 2016, MaxMem=    33554432 cpu:         6.8
 (Enter /home/proyectos/fulerenos/M3C-v1.9/M3C-deps_CCC/g09-AM64L-G09RevC.01/l502.exe)
 Closed shell SCF:
 Using DIIS extrapolation, IDIIS=  1040.
 Integral symmetry usage will be decided dynamically.
 IVT=      153624 IEndB=      153624 NGot=    33554432 MDV=    33461759
 LenX=    33461759 LenY=    33417218
 Requested convergence on RMS density matrix=1.00D-08 within 128 cycles.
 Requested convergence on MAX density matrix=1.00D-06.
 Requested convergence on             energy=1.00D-06.
 No special actions if energy rises.
 Fock matrices will be formed incrementally for  20 cycles.

 Cycle   1  Pass 1  IDiag  1:
 FoFJK:  IHMeth= 1 ICntrl=       0 DoSepK=F KAlg= 0 I1Cent=   0 FoldK=F
 IRaf= 990000000 NMat=   1 IRICut=       1 DoRegI=T DoRafI=F ISym2E= 0.
 FoFCou: FMM=F IPFlag=           0 FMFlag=      100000 FMFlg1=           0
         NFxFlg=           0 DoJE=F BraDBF=F KetDBF=F FulRan=T
         wScrn=  0.000000 ICntrl=       0 IOpCl=  0 I1Cent=           0 NGrid=           0
         NMat0=    1 NMatS0=      1 NMatT0=    0 NMatD0=    1 NMtDS0=    0 NMtDT0=    0
 Symmetry not used in FoFCou.
 E= -151.969049056536    
 DIIS: error= 1.47D-02 at cycle   1 NSaved=   1.
 NSaved= 1 IEnMin= 1 EnMin= -151.969049056536     IErMin= 1 ErrMin= 1.47D-02
 ErrMax= 1.47D-02  0.00D+00 EMaxC= 1.00D-01 BMatC= 7.51D-02 BMatP= 7.51D-02
 IDIUse=3 WtCom= 8.53D-01 WtEn= 1.47D-01
 Coeff-Com:  0.100D+01
 Coeff-En:   0.100D+01
 Coeff:      0.100D+01
 Gap=     0.151 Goal=   None    Shift=    0.000
 GapD=    0.151 DampG=1.000 DampE=0.500 DampFc=0.5000 IDamp=-1.
 Damping current iteration by 5.00D-01
 RMSDP=5.98D-03 MaxDP=2.48D-01              OVMax= 1.80D-01

 Cycle   2  Pass 1  IDiag  1:
 RMSU=  2.79D-03    CP:  1.08D+00
 E= -152.019551386803     Delta-E=       -0.050502330267 Rises=F Damp=T
 DIIS: error= 8.84D-03 at cycle   2 NSaved=   2.
 NSaved= 2 IEnMin= 2 EnMin= -152.019551386803     IErMin= 2 ErrMin= 8.84D-03
 ErrMax= 8.84D-03  0.00D+00 EMaxC= 1.00D-01 BMatC= 9.62D-03 BMatP= 7.51D-02
 IDIUse=3 WtCom= 9.12D-01 WtEn= 8.84D-02
 Coeff-Com: -0.224D+00 0.122D+01
 Coeff-En:   0.000D+00 0.100D+01
 Coeff:     -0.204D+00 0.120D+01
 Gap=     0.144 Goal=   None    Shift=    0.000
 RMSDP=3.81D-03 MaxDP=2.29D-01 DE=-5.05D-02 OVMax= 2.00D-01

 Cycle   3  Pass 1  IDiag  1:
 RMSU=  2.18D-03    CP:  1.23D+00  1.82D+00
 E= -152.052744823762     Delta-E=       -0.033193436959 Rises=F Damp=F
 DIIS: error= 1.28D-02 at cycle   3 NSaved=   3.
 NSaved= 3 IEnMin= 3 EnMin= -152.052744823762     IErMin= 2 ErrMin= 8.84D-03
 ErrMax= 1.28D-02  0.00D+00 EMaxC= 1.00D-01 BMatC= 1.53D-02 BMatP= 9.62D-03
 IDIUse=2 WtCom= 0.00D+00 WtEn= 1.00D+00
 Coeff-En:   0.000D+00 0.000D+00 0.100D+01
 Coeff:      0.000D+00 0.000D+00 0.100D+01
 Gap=     0.197 Goal=   None    Shift=    0.000
 RMSDP=2.42D-03 MaxDP=9.19D-02 DE=-3.32D-02 OVMax= 2.50D-01

 Cycle   4  Pass 1  IDiag  1:
 RMSU=  1.92D-03    CP:  1.21D+00  2.03D+00  3.82D-01
 E= -151.989853630578     Delta-E=        0.062891193185 Rises=F Damp=F
 DIIS: error= 2.84D-02 at cycle   4 NSaved=   4.
 NSaved= 4 IEnMin= 3 EnMin= -152.052744823762     IErMin= 2 ErrMin= 8.84D-03
 ErrMax= 2.84D-02  0.00D+00 EMaxC= 1.00D-01 BMatC= 6.48D-02 BMatP= 9.62D-03
 IDIUse=2 WtCom= 0.00D+00 WtEn= 1.00D+00
 Coeff-En:   0.000D+00 0.000D+00 0.762D+00 0.238D+00
 Coeff:      0.000D+00 0.000D+00 0.762D+00 0.238D+00
 Gap=     0.149 Goal=   None    Shift=    0.000
 RMSDP=1.19D-03 MaxDP=3.70D-02 DE= 6.29D-02 OVMax= 1.31D-01

 Cycle   5  Pass 1  IDiag  1:
 RMSU=  3.28D-04    CP:  1.23D+00  1.91D+00  7.51D-01  6.23D-01
 E= -152.066194803289     Delta-E=       -0.076341172711 Rises=F Damp=F
 DIIS: error= 7.25D-03 at cycle   5 NSaved=   5.
 NSaved= 5 IEnMin= 5 EnMin= -152.066194803289     IErMin= 5 ErrMin= 7.25D-03
 ErrMax= 7.25D-03  0.00D+00 EMaxC= 1.00D-01 BMatC= 4.46D-03 BMatP= 9.62D-03
 IDIUse=3 WtCom= 9.28D-01 WtEn= 7.25D-02
 Coeff-Com: -0.729D-03 0.101D-01 0.377D+00 0.299D-01 0.584D+00
 Coeff-En:   0.000D+00 0.000D+00 0.272D+00 0.000D+00 0.728D+00
 Coeff:     -0.676D-03 0.940D-02 0.369D+00 0.277D-01 0.594D+00
 Gap=     0.143 Goal=   None    Shift=    0.000
 RMSDP=4.49D-04 MaxDP=1.69D-02 DE=-7.63D-02 OVMax= 5.00D-02

 Cycle   6  Pass 1  IDiag  1:
 RMSU=  2.32D-04    CP:  1.23D+00  1.89D+00  8.64D-01  4.88D-01  6.35D-01
 E= -152.071469137503     Delta-E=       -0.005274334215 Rises=F Damp=F
 DIIS: error= 1.17D-03 at cycle   6 NSaved=   6.
 NSaved= 6 IEnMin= 6 EnMin= -152.071469137503     IErMin= 6 ErrMin= 1.17D-03
 ErrMax= 1.17D-03  0.00D+00 EMaxC= 1.00D-01 BMatC= 1.58D-04 BMatP= 4.46D-03
 IDIUse=3 WtCom= 9.88D-01 WtEn= 1.17D-02
 Coeff-Com:  0.106D-02-0.479D-02 0.130D+00-0.465D-01 0.445D+00 0.475D+00
 Coeff-En:   0.000D+00 0.000D+00 0.000D+00 0.000D+00 0.000D+00 0.100D+01
 Coeff:      0.104D-02-0.473D-02 0.129D+00-0.459D-01 0.440D+00 0.481D+00
 Gap=     0.138 Goal=   None    Shift=    0.000
 RMSDP=1.31D-04 MaxDP=4.43D-03 DE=-5.27D-03 OVMax= 8.32D-03

 Cycle   7  Pass 1  IDiag  1:
 RMSU=  3.87D-05    CP:  1.23D+00  1.89D+00  8.66D-01  4.91D-01  8.63D-01
                    CP:  5.74D-01
 E= -152.071688386510     Delta-E=       -0.000219249006 Rises=F Damp=F
 DIIS: error= 2.40D-04 at cycle   7 NSaved=   7.
 NSaved= 7 IEnMin= 7 EnMin= -152.071688386510     IErMin= 7 ErrMin= 2.40D-04
 ErrMax= 2.40D-04  0.00D+00 EMaxC= 1.00D-01 BMatC= 3.38D-06 BMatP= 1.58D-04
 IDIUse=3 WtCom= 9.98D-01 WtEn= 2.40D-03
 Coeff-Com: -0.281D-02 0.545D-02 0.373D-01-0.281D-01 0.175D+00 0.222D+00
 Coeff-Com:  0.591D+00
 Coeff-En:   0.000D+00 0.000D+00 0.000D+00 0.000D+00 0.000D+00 0.000D+00
 Coeff-En:   0.100D+01
 Coeff:     -0.280D-02 0.543D-02 0.372D-01-0.280D-01 0.175D+00 0.222D+00
 Coeff:      0.592D+00
 Gap=     0.138 Goal=   None    Shift=    0.000
 RMSDP=1.32D-05 MaxDP=3.82D-04 DE=-2.19D-04 OVMax= 1.51D-03

 Cycle   8  Pass 1  IDiag  1:
 RMSU=  8.84D-06    CP:  1.23D+00  1.89D+00  8.67D-01  4.92D-01  8.83D-01
                    CP:  5.77D-01  8.45D-01
 E= -152.071692194843     Delta-E=       -0.000003808333 Rises=F Damp=F
 DIIS: error= 4.42D-05 at cycle   8 NSaved=   8.
 NSaved= 8 IEnMin= 8 EnMin= -152.071692194843     IErMin= 8 ErrMin= 4.42D-05
 ErrMax= 4.42D-05  0.00D+00 EMaxC= 1.00D-01 BMatC= 2.68D-07 BMatP= 3.38D-06
 IDIUse=1 WtCom= 1.00D+00 WtEn= 0.00D+00
 Coeff-Com: -0.433D-04-0.205D-03-0.130D-02-0.592D-03-0.100D-02 0.163D-01
 Coeff-Com:  0.239D+00 0.748D+00
 Coeff:     -0.433D-04-0.205D-03-0.130D-02-0.592D-03-0.100D-02 0.163D-01
 Coeff:      0.239D+00 0.748D+00
 Gap=     0.138 Goal=   None    Shift=    0.000
 RMSDP=5.11D-06 MaxDP=1.31D-04 DE=-3.81D-06 OVMax= 2.73D-04

 Cycle   9  Pass 1  IDiag  1:
 RMSU=  2.16D-06    CP:  1.23D+00  1.89D+00  8.67D-01  4.92D-01  8.76D-01
                    CP:  5.90D-01  8.99D-01  8.91D-01
 E= -152.071692529144     Delta-E=       -0.000000334301 Rises=F Damp=F
 DIIS: error= 6.65D-06 at cycle   9 NSaved=   9.
 NSaved= 9 IEnMin= 9 EnMin= -152.071692529144     IErMin= 9 ErrMin= 6.65D-06
 ErrMax= 6.65D-06  0.00D+00 EMaxC= 1.00D-01 BMatC= 6.77D-09 BMatP= 2.68D-07
 IDIUse=1 WtCom= 1.00D+00 WtEn= 0.00D+00
 Coeff-Com: -0.110D-03 0.190D-03-0.179D-02 0.482D-03-0.528D-02-0.226D-02
 Coeff-Com:  0.532D-01 0.216D+00 0.740D+00
 Coeff:     -0.110D-03 0.190D-03-0.179D-02 0.482D-03-0.528D-02-0.226D-02
 Coeff:      0.532D-01 0.216D+00 0.740D+00
 Gap=     0.138 Goal=   None    Shift=    0.000
 RMSDP=1.13D-06 MaxDP=3.32D-05 DE=-3.34D-07 OVMax= 5.79D-05

 Cycle  10  Pass 1  IDiag  1:
 RMSU=  8.76D-07    CP:  1.23D+00  1.89D+00  8.67D-01  4.93D-01  8.76D-01
                    CP:  5.90D-01  9.07D-01  9.01D-01  9.66D-01
 E= -152.071692537953     Delta-E=       -0.000000008809 Rises=F Damp=F
 DIIS: error= 2.54D-06 at cycle  10 NSaved=  10.
 NSaved=10 IEnMin=10 EnMin= -152.071692537953     IErMin=10 ErrMin= 2.54D-06
 ErrMax= 2.54D-06  0.00D+00 EMaxC= 1.00D-01 BMatC= 7.38D-10 BMatP= 6.77D-09
 IDIUse=1 WtCom= 1.00D+00 WtEn= 0.00D+00
 Coeff-Com: -0.550D-04 0.126D-03-0.485D-03 0.163D-03-0.130D-02-0.259D-02
 Coeff-Com: -0.101D-01-0.150D-01 0.185D+00 0.844D+00
 Coeff:     -0.550D-04 0.126D-03-0.485D-03 0.163D-03-0.130D-02-0.259D-02
 Coeff:     -0.101D-01-0.150D-01 0.185D+00 0.844D+00
 Gap=     0.138 Goal=   None    Shift=    0.000
 RMSDP=4.00D-07 MaxDP=1.81D-05 DE=-8.81D-09 OVMax= 1.90D-05

 Cycle  11  Pass 1  IDiag  1:
 RMSU=  1.31D-07    CP:  1.23D+00  1.89D+00  8.67D-01  4.93D-01  8.76D-01
                    CP:  5.90D-01  9.11D-01  9.18D-01  1.07D+00  9.88D-01
 E= -152.071692538958     Delta-E=       -0.000000001005 Rises=F Damp=F
 DIIS: error= 2.93D-07 at cycle  11 NSaved=  11.
 NSaved=11 IEnMin=11 EnMin= -152.071692538958     IErMin=11 ErrMin= 2.93D-07
 ErrMax= 2.93D-07  0.00D+00 EMaxC= 1.00D-01 BMatC= 1.20D-11 BMatP= 7.38D-10
 IDIUse=1 WtCom= 1.00D+00 WtEn= 0.00D+00
 Coeff-Com: -0.153D-05 0.392D-05 0.253D-04-0.933D-05 0.129D-03-0.213D-03
 Coeff-Com: -0.278D-02-0.736D-02-0.370D-02 0.521D-01 0.962D+00
 Coeff:     -0.153D-05 0.392D-05 0.253D-04-0.933D-05 0.129D-03-0.213D-03
 Coeff:     -0.278D-02-0.736D-02-0.370D-02 0.521D-01 0.962D+00
 Gap=     0.138 Goal=   None    Shift=    0.000
 RMSDP=7.74D-08 MaxDP=3.19D-06 DE=-1.01D-09 OVMax= 4.20D-06

 Cycle  12  Pass 1  IDiag  1:
 RMSU=  3.94D-08    CP:  1.23D+00  1.89D+00  8.67D-01  4.93D-01  8.76D-01
                    CP:  5.90D-01  9.11D-01  9.19D-01  1.08D+00  1.03D+00
                    CP:  1.14D+00
 E= -152.071692538980     Delta-E=       -0.000000000022 Rises=F Damp=F
 DIIS: error= 9.54D-08 at cycle  12 NSaved=  12.
 NSaved=12 IEnMin=12 EnMin= -152.071692538980     IErMin=12 ErrMin= 9.54D-08
 ErrMax= 9.54D-08  0.00D+00 EMaxC= 1.00D-01 BMatC= 1.20D-12 BMatP= 1.20D-11
 IDIUse=1 WtCom= 1.00D+00 WtEn= 0.00D+00
 Coeff-Com:  0.306D-05-0.651D-05 0.305D-04-0.848D-05 0.866D-04 0.231D-04
 Coeff-Com: -0.365D-03-0.154D-02-0.730D-02-0.365D-01 0.224D+00 0.822D+00
 Coeff:      0.306D-05-0.651D-05 0.305D-04-0.848D-05 0.866D-04 0.231D-04
 Coeff:     -0.365D-03-0.154D-02-0.730D-02-0.365D-01 0.224D+00 0.822D+00
 Gap=     0.138 Goal=   None    Shift=    0.000
 RMSDP=2.13D-08 MaxDP=6.49D-07 DE=-2.19D-11 OVMax= 1.52D-06

 Cycle  13  Pass 1  IDiag  1:
 RMSU=  1.27D-08    CP:  1.23D+00  1.89D+00  8.67D-01  4.93D-01  8.76D-01
                    CP:  5.90D-01  9.12D-01  9.20D-01  1.09D+00  1.04D+00
                    CP:  1.20D+00  9.71D-01
 E= -152.071692538987     Delta-E=       -0.000000000007 Rises=F Damp=F
 DIIS: error= 2.94D-08 at cycle  13 NSaved=  13.
 NSaved=13 IEnMin=13 EnMin= -152.071692538987     IErMin=13 ErrMin= 2.94D-08
 ErrMax= 2.94D-08  0.00D+00 EMaxC= 1.00D-01 BMatC= 1.52D-13 BMatP= 1.20D-12
 IDIUse=1 WtCom= 1.00D+00 WtEn= 0.00D+00
 Coeff-Com:  0.741D-06-0.162D-05 0.514D-05-0.180D-05 0.711D-05 0.313D-04
 Coeff-Com:  0.327D-03 0.747D-03 0.256D-03-0.174D-01-0.745D-01 0.147D+00
 Coeff-Com:  0.943D+00
 Coeff:      0.741D-06-0.162D-05 0.514D-05-0.180D-05 0.711D-05 0.313D-04
 Coeff:      0.327D-03 0.747D-03 0.256D-03-0.174D-01-0.745D-01 0.147D+00
 Coeff:      0.943D+00
 Gap=     0.138 Goal=   None    Shift=    0.000
 RMSDP=5.94D-09 MaxDP=2.91D-07 DE=-7.11D-12 OVMax= 3.04D-07

 SCF Done:  E(RB3LYP) =  -152.071692539     A.U. after   13 cycles
            NFock= 13  Conv=0.59D-08     -V/T= 2.0040
 KE= 1.514662880779D+02 PE=-4.933968420088D+02 EE= 1.099410357423D+02
 Leave Link  502 at Sun Jun 19 06:41:13 2016, MaxMem=    33554432 cpu:       215.6
 (Enter /home/proyectos/fulerenos/M3C-v1.9/M3C-deps_CCC/g09-AM64L-G09RevC.01/l801.exe)
 DoSCS=F DFT=T ScalE2(SS,OS)=  1.000000  1.000000
 Range of M.O.s used for correlation:     1   186
 NBasis=   186 NAE=    12 NBE=    12 NFC=     0 NFV=     0
 NROrb=    186 NOA=    12 NOB=    12 NVA=   174 NVB=   174

 **** Warning!!: The largest alpha MO coefficient is  0.75569325D+02

 Leave Link  801 at Sun Jun 19 06:41:13 2016, MaxMem=    33554432 cpu:         0.1
 (Enter /home/proyectos/fulerenos/M3C-v1.9/M3C-deps_CCC/g09-AM64L-G09RevC.01/l1101.exe)
 Using compressed storage, NAtomX=     7.
 Will process      8 centers per pass.
 Leave Link 1101 at Sun Jun 19 06:41:14 2016, MaxMem=    33554432 cpu:         1.0
 (Enter /home/proyectos/fulerenos/M3C-v1.9/M3C-deps_CCC/g09-AM64L-G09RevC.01/l1102.exe)
 Symmetrizing basis deriv contribution to polar:
 IMax=3 JMax=2 DiffMx= 0.00D+00
 Leave Link 1102 at Sun Jun 19 06:41:14 2016, MaxMem=    33554432 cpu:         0.1
 (Enter /home/proyectos/fulerenos/M3C-v1.9/M3C-deps_CCC/g09-AM64L-G09RevC.01/l1110.exe)
 Forming Gx(P) for the SCF density, NAtomX=     7.
 Integral derivatives from FoFJK, PRISM(SPDF).
 Do as many integral derivatives as possible in FoFJK.
 G2DrvN: MDV=      33554272.
 G2DrvN: will do     8 centers at a time, making    1 passes.
 Calling FoFCou, ICntrl=  3107 FMM=F I1Cent=   0 AccDes= 0.00D+00.
 FoFJK:  IHMeth= 1 ICntrl=    3107 DoSepK=F KAlg= 0 I1Cent=   0 FoldK=F
 IRaf=         0 NMat=   1 IRICut=       1 DoRegI=T DoRafI=F ISym2E= 0.
 FoFCou: FMM=F IPFlag=           0 FMFlag=      100000 FMFlg1=           0
         NFxFlg=           0 DoJE=F BraDBF=F KetDBF=F FulRan=T
         wScrn=  0.000000 ICntrl=    3107 IOpCl=  0 I1Cent=           0 NGrid=           0
         NMat0=    1 NMatS0=      1 NMatT0=    0 NMatD0=    1 NMtDS0=    0 NMtDT0=    0
 Symmetry not used in FoFCou.
 End of G2Drv F.D. properties file   721 does not exist.
 End of G2Drv F.D. properties file   722 does not exist.
 End of G2Drv F.D. properties file   788 does not exist.
 Leave Link 1110 at Sun Jun 19 06:41:57 2016, MaxMem=    33554432 cpu:       159.8
 (Enter /home/proyectos/fulerenos/M3C-v1.9/M3C-deps_CCC/g09-AM64L-G09RevC.01/l1002.exe)
 Minotr:  Closed shell wavefunction.
          IDoAtm=1111111
          Direct CPHF calculation.
          Differentiating once with respect to electric field.
                with respect to dipole field.
          Differentiating once with respect to nuclear coordinates.
          Requested convergence is 1.0D-08 RMS, and 1.0D-07 maximum.
          Secondary convergence is 1.0D-12 RMS, and 1.0D-12 maximum.
          NewPWx=T KeepS1=F KeepF1=F KeepIn=T MapXYZ=F SortEE=F KeepMc=T.
          MDV=      33554172 using IRadAn=       2.
 Generate precomputed XC quadrature information.
          Solving linear equations simultaneously, MaxMat=       0.
 FoFJK:  IHMeth= 1 ICntrl=       0 DoSepK=F KAlg= 0 I1Cent=   0 FoldK=F
 IRaf= 990000000 NMat=  24 IRICut=      60 DoRegI=T DoRafI=T ISym2E= 2.
 FoFCou: FMM=F IPFlag=           0 FMFlag=      100000 FMFlg1=           0
         NFxFlg=           0 DoJE=F BraDBF=F KetDBF=F FulRan=T
         wScrn=  0.000000 ICntrl=       0 IOpCl=  0 I1Cent=           0 NGrid=           0
         NMat0=   24 NMatS0=     24 NMatT0=    0 NMatD0=   24 NMtDS0=    0 NMtDT0=    0
 Integrals replicated using symmetry in FoFCou.
          There are    24 degrees of freedom in the 1st order CPHF.  IDoFFX=6 NUNeed=     3.
     21 vectors produced by pass  0 Test12= 8.70D-15 4.17D-09 XBig12= 9.36D+01 7.43D+00.
 AX will form    21 AO Fock derivatives at one time.
     21 vectors produced by pass  1 Test12= 8.70D-15 4.17D-09 XBig12= 1.92D+01 1.47D+00.
     21 vectors produced by pass  2 Test12= 8.70D-15 4.17D-09 XBig12= 1.01D-01 8.12D-02.
     21 vectors produced by pass  3 Test12= 8.70D-15 4.17D-09 XBig12= 6.67D-04 5.03D-03.
     21 vectors produced by pass  4 Test12= 8.70D-15 4.17D-09 XBig12= 1.11D-06 2.53D-04.
     20 vectors produced by pass  5 Test12= 8.70D-15 4.17D-09 XBig12= 1.91D-09 6.20D-06.
      4 vectors produced by pass  6 Test12= 8.70D-15 4.17D-09 XBig12= 1.92D-12 2.20D-07.
      2 vectors produced by pass  7 Test12= 8.70D-15 4.17D-09 XBig12= 1.56D-14 3.58D-08.
 InvSVY:  IOpt=1 It=  1 EMax= 2.66D-15
 Solved reduced A of dimension   131 with    24 vectors.
 FullF1:  Do perturbations    1 to     3.
 Isotropic polarizability for W=    0.000000       37.33 Bohr**3.
 End of Minotr F.D. properties file   721 does not exist.
 End of Minotr F.D. properties file   722 does not exist.
 End of Minotr F.D. properties file   788 does not exist.
 Leave Link 1002 at Sun Jun 19 06:43:33 2016, MaxMem=    33554432 cpu:       374.3
 (Enter /home/proyectos/fulerenos/M3C-v1.9/M3C-deps_CCC/g09-AM64L-G09RevC.01/l601.exe)
 Copying SCF densities to generalized density rwf, IOpCl= 0 IROHF=0.

 **********************************************************************

            Population analysis using the SCF density.

 **********************************************************************

 Orbital symmetries:
       Occupied  (A) (A) (A) (A) (A) (A) (A) (A) (A) (A) (A) (A)
       Virtual   (A) (A) (A) (A) (A) (A) (A) (A) (A) (A) (A) (A)
                 (A) (A) (A) (A) (A) (A) (A) (A) (A) (A) (A) (A)
                 (A) (A) (A) (A) (A) (A) (A) (A) (A) (A) (A) (A)
                 (A) (A) (A) (A) (A) (A) (A) (A) (A) (A) (A) (A)
                 (A) (A) (A) (A) (A) (A) (A) (A) (A) (A) (A) (A)
                 (A) (A) (A) (A) (A) (A) (A) (A) (A) (A) (A) (A)
                 (A) (A) (A) (A) (A) (A) (A) (A) (A) (A) (A) (A)
                 (A) (A) (A) (A) (A) (A) (A) (A) (A) (A) (A) (A)
                 (A) (A) (A) (A) (A) (A) (A) (A) (A) (A) (A) (A)
                 (A) (A) (A) (A) (A) (A) (A) (A) (A) (A) (A) (A)
                 (A) (A) (A) (A) (A) (A) (A) (A) (A) (A) (A) (A)
                 (A) (A) (A) (A) (A) (A) (A) (A) (A) (A) (A) (A)
                 (A) (A) (A) (A) (A) (A) (A) (A) (A) (A) (A) (A)
                 (A) (A) (A) (A) (A) (A) (A) (A) (A) (A) (A) (A)
                 (A) (A) (A) (A) (A) (A)
 The electronic state is 1-A.
 Alpha  occ. eigenvalues --  -11.14870 -11.14391 -11.09470 -11.01551  -1.63299
 Alpha  occ. eigenvalues --   -1.50010  -1.42576  -1.33469  -1.24554  -1.11734
 Alpha  occ. eigenvalues --   -1.09205  -1.05179
 Alpha virt. eigenvalues --   -0.91384  -0.90847  -0.88483  -0.87204  -0.73760
 Alpha virt. eigenvalues --   -0.71479  -0.69001  -0.57133  -0.53410  -0.49756
 Alpha virt. eigenvalues --   -0.45331  -0.45016  -0.42540  -0.41929  -0.40644
 Alpha virt. eigenvalues --   -0.38520  -0.38256  -0.34929  -0.34627  -0.33976
 Alpha virt. eigenvalues --   -0.32111  -0.30961  -0.30071  -0.29374  -0.28890
 Alpha virt. eigenvalues --   -0.27639  -0.27564  -0.25209  -0.24709  -0.20845
 Alpha virt. eigenvalues --   -0.20053  -0.18533  -0.18123  -0.17609  -0.16703
 Alpha virt. eigenvalues --   -0.16574  -0.13967  -0.12483  -0.10813  -0.09752
 Alpha virt. eigenvalues --   -0.09510  -0.08496  -0.06631  -0.05904  -0.05888
 Alpha virt. eigenvalues --   -0.04377  -0.03936  -0.03408  -0.01564  -0.00859
 Alpha virt. eigenvalues --   -0.00716   0.01109   0.03284   0.05650   0.06769
 Alpha virt. eigenvalues --    0.08814   0.11906   0.13208   0.13389   0.15661
 Alpha virt. eigenvalues --    0.20110   0.23705   0.25542   0.30088   0.33510
 Alpha virt. eigenvalues --    0.36405   0.38030   0.42264   0.46312   0.47971
 Alpha virt. eigenvalues --    0.48146   0.54745   0.56947   0.60155   0.66225
 Alpha virt. eigenvalues --    0.66675   0.69506   0.70417   0.71895   0.78477
 Alpha virt. eigenvalues --    0.83067   0.86025   0.86955   0.87670   0.90881
 Alpha virt. eigenvalues --    0.93637   0.96900   0.99552   0.99897   1.03155
 Alpha virt. eigenvalues --    1.23537   1.24921   1.26460   1.28211   1.32844
 Alpha virt. eigenvalues --    1.51139   1.55422   1.66310   1.80679   1.82811
 Alpha virt. eigenvalues --    1.88134   1.88255   1.94226   1.98946   1.99006
 Alpha virt. eigenvalues --    2.01610   2.01869   2.02318   2.05331   2.06018
 Alpha virt. eigenvalues --    2.06902   2.08184   2.09339   2.11508   2.14640
 Alpha virt. eigenvalues --    2.17355   2.20967   2.22457   2.25421   2.28003
 Alpha virt. eigenvalues --    2.31413   2.41664   2.49523   2.51100   2.54636
 Alpha virt. eigenvalues --    2.56802   2.57608   2.59813   2.64613   2.70392
 Alpha virt. eigenvalues --    2.74232   2.84763   2.95506   3.10534   3.15071
 Alpha virt. eigenvalues --    3.21074   3.21333   3.30221   3.40157   3.46032
 Alpha virt. eigenvalues --    3.53786   3.66824   3.68338   3.82572   3.92105
 Alpha virt. eigenvalues --    4.04381   4.16231   4.35899   4.70974   4.86972
 Alpha virt. eigenvalues --    6.10772   6.11122   6.13235   6.14889   6.15713
 Alpha virt. eigenvalues --    6.19052   6.21474   6.33151   6.37092   6.38237
 Alpha virt. eigenvalues --    6.50313   6.58802   6.68529   6.70911   6.74590
 Alpha virt. eigenvalues --    6.77187   6.94958   7.11466   7.32383   7.39055
 Alpha virt. eigenvalues --   22.74272  23.11976  23.39471  24.37037
          Condensed to atoms (all electrons):
               1          2          3          4          5          6
     1  C    7.430375  -0.499092  -0.433884  -1.374882  -0.006577  -0.061409
     2  C   -0.499092   6.665984  -0.553539  -0.242483  -0.017420   0.021046
     3  C   -0.433884  -0.553539   6.555226  -0.144153   0.024474  -0.002291
     4  C   -1.374882  -0.242483  -0.144153   7.228686   0.143800   0.251883
     5  H   -0.006577  -0.017420   0.024474   0.143800   0.286103   0.135237
     6  H   -0.061409   0.021046  -0.002291   0.251883   0.135237   0.365355
     7  H   -0.033541   0.035082  -0.026911   0.363539   0.004850  -0.003588
               7
     1  C   -0.033541
     2  C    0.035082
     3  C   -0.026911
     4  C    0.363539
     5  H    0.004850
     6  H   -0.003588
     7  H    0.307987
 Mulliken charges:
               1
     1  C    0.979009
     2  C    0.590421
     3  C    0.581078
     4  C   -0.226390
     5  H    0.429533
     6  H    0.293768
     7  H    0.352581
 Sum of Mulliken charges =   3.00000
 Mulliken charges with hydrogens summed into heavy atoms:
               1
     1  C    0.979009
     2  C    0.590421
     3  C    0.581078
     4  C    0.849492
 APT charges:
               1
     1  C   -0.682961
     2  C    1.045168
     3  C    1.048394
     4  C    0.445922
     5  H    0.565136
     6  H    0.244383
     7  H    0.333958
 Sum of APT charges =   3.00000
 APT charges with hydrogens summed into heavy atoms:
               1
     1  C   -0.682961
     2  C    1.045168
     3  C    1.048394
     4  C    1.589399
 Electronic spatial extent (au):  <R**2>=            200.5220
 Charge=              3.0000 electrons
 Dipole moment (field-independent basis, Debye):
    X=             -4.9777    Y=             -1.0717    Z=              0.0008  Tot=              5.0918
 Quadrupole moment (field-independent basis, Debye-Ang):
   XX=             13.5838   YY=             -3.0469   ZZ=            -17.7491
   XY=              2.7261   XZ=              0.0023   YZ=             -0.0097
 Traceless Quadrupole moment (field-independent basis, Debye-Ang):
   XX=             15.9879   YY=             -0.6428   ZZ=            -15.3450
   XY=              2.7261   XZ=              0.0023   YZ=             -0.0097
 Octapole moment (field-independent basis, Debye-Ang**2):
  XXX=            -47.2468  YYY=             -0.7972  ZZZ=              0.0002  XYY=             -2.6638
  XXY=             -6.4502  XXZ=             -0.0141  XZZ=             -0.6253  YZZ=             -0.1429
  YYZ=              0.0068  XYZ=              0.0175
 Hexadecapole moment (field-independent basis, Debye-Ang**3):
 XXXX=              0.7157 YYYY=            -94.9936 ZZZZ=            -15.4340 XXXY=             16.2467
 XXXZ=              0.0482 YYYX=              2.8520 YYYZ=             -0.0300 ZZZX=              0.0009
 ZZZY=             -0.0046 XXYY=            -16.9052 XXZZ=            -21.8764 YYZZ=            -19.7935
 XXYZ=             -0.0283 YYXZ=             -0.0076 ZZXY=              0.4089
 N-N= 7.991782564952D+01 E-N=-4.933968426956D+02  KE= 1.514662880779D+02
  Exact polarizability:  47.145   0.309  43.438   0.001  -0.003  21.419
 Approx polarizability:  90.130  -1.082  95.923   0.002   0.001  33.543
 No NMR shielding tensors so no spin-rotation constants.
 Leave Link  601 at Sun Jun 19 06:43:33 2016, MaxMem=    33554432 cpu:         0.9
 (Enter /home/proyectos/fulerenos/M3C-v1.9/M3C-deps_CCC/g09-AM64L-G09RevC.01/l701.exe)
 Compute integral second derivatives.
 ... and contract with generalized density number  0.
 Leave Link  701 at Sun Jun 19 06:43:34 2016, MaxMem=    33554432 cpu:         1.7
 (Enter /home/proyectos/fulerenos/M3C-v1.9/M3C-deps_CCC/g09-AM64L-G09RevC.01/l702.exe)
 L702 exits ... SP integral derivatives will be done elsewhere.
 Leave Link  702 at Sun Jun 19 06:43:34 2016, MaxMem=    33554432 cpu:         0.1
 (Enter /home/proyectos/fulerenos/M3C-v1.9/M3C-deps_CCC/g09-AM64L-G09RevC.01/l703.exe)
 Compute integral second derivatives, UseDBF=F ICtDFT=           0.
 Integral derivatives from FoFJK, PRISM(SPDF).
 Calling FoFJK, ICntrl=    100127 FMM=F ISym2X=0 I1Cent= 0 IOpClX= 0 NMat=1 NMatS=1 NMatT=0.
 FoFJK:  IHMeth= 1 ICntrl=  100127 DoSepK=F KAlg= 0 I1Cent=   0 FoldK=F
 IRaf=         0 NMat=   1 IRICut=       1 DoRegI=T DoRafI=F ISym2E= 0.
 FoFCou: FMM=F IPFlag=           0 FMFlag=      100000 FMFlg1=         800
         NFxFlg=           0 DoJE=F BraDBF=F KetDBF=F FulRan=T
         wScrn=  0.000000 ICntrl=  100127 IOpCl=  0 I1Cent=           0 NGrid=           0
         NMat0=    1 NMatS0=      1 NMatT0=    0 NMatD0=    1 NMtDS0=    0 NMtDT0=    0
 Symmetry not used in FoFCou.
 Leave Link  703 at Sun Jun 19 06:44:54 2016, MaxMem=    33554432 cpu:       320.0
 (Enter /home/proyectos/fulerenos/M3C-v1.9/M3C-deps_CCC/g09-AM64L-G09RevC.01/l716.exe)
 Dipole        =-1.95838968D+00-4.21645067D-01 3.15792625D-04
 Polarizability= 4.71454639D+01 3.08693227D-01 4.34377308D+01
                 1.46326697D-03-2.89813566D-03 2.14187709D+01
 Full mass-weighted force constant matrix:
 Low frequencies ---   -9.4059   -8.7737   -0.0006    0.0003    0.0005    4.3626
 Low frequencies ---  175.7732  260.5203  361.5745
 Diagonal vibrational polarizability:
       29.0881550      26.4674687      15.9396464
 Harmonic frequencies (cm**-1), IR intensities (KM/Mole), Raman scattering
 activities (A**4/AMU), depolarization ratios for plane and unpolarized
 incident light, reduced masses (AMU), force constants (mDyne/A),
 and normal coordinates:
                      1                      2                      3
                      A                      A                      A
 Frequencies --    175.7607               260.5201               361.5745
 Red. masses --      1.0307                 3.5035                 8.6573
 Frc consts  --      0.0188                 0.1401                 0.6669
 IR Inten    --      2.1764                 1.1439                28.2552
  Atom  AN      X      Y      Z        X      Y      Z        X      Y      Z
     1   6    -0.00   0.00   0.03    -0.00   0.15  -0.00     0.29   0.03   0.00
     2   6    -0.00  -0.00  -0.04    -0.26   0.08   0.00    -0.36  -0.36   0.00
     3   6     0.00   0.00   0.00     0.28   0.08   0.00    -0.34   0.36  -0.00
     4   6    -0.00   0.00   0.01    -0.03  -0.21  -0.00     0.32  -0.03   0.00
     5   1     0.00  -0.01  -0.67     0.12  -0.57   0.01     0.33   0.06  -0.04
     6   1     0.00   0.00   0.74     0.29  -0.34  -0.01     0.30  -0.01  -0.03
     7   1    -0.00  -0.00  -0.08    -0.31  -0.37   0.00     0.31  -0.04   0.04
                      4                      5                      6
                      A                      A                      A
 Frequencies --    372.0326               408.5637               668.9639
 Red. masses --      1.1245                 5.5928                 1.4784
 Frc consts  --      0.0917                 0.5500                 0.3898
 IR Inten    --     51.5806                 7.0713               145.2605
  Atom  AN      X      Y      Z        X      Y      Z        X      Y      Z
     1   6     0.00   0.00  -0.03     0.00   0.00   0.57     0.01  -0.01  -0.00
     2   6    -0.00  -0.00  -0.02    -0.00  -0.00  -0.21    -0.01   0.04  -0.00
     3   6    -0.00   0.00   0.07    -0.00   0.00  -0.18     0.05   0.08   0.00
     4   6     0.00  -0.00  -0.06     0.00  -0.00  -0.10    -0.01  -0.18   0.00
     5   1     0.00   0.00   0.62    -0.00   0.00   0.05    -0.24   0.75  -0.00
     6   1     0.00   0.00   0.51    -0.00  -0.00  -0.37    -0.47   0.08   0.00
     7   1     0.00  -0.00  -0.59     0.00  -0.00  -0.67     0.34   0.03  -0.00
                      7                      8                      9
                      A                      A                      A
 Frequencies --    734.1864               923.2827               963.1540
 Red. masses --      7.9714                 1.4660                 8.4403
 Frc consts  --      2.5316                 0.7363                 4.6132
 IR Inten    --     94.4173                91.3576               548.0638
  Atom  AN      X      Y      Z        X      Y      Z        X      Y      Z
     1   6     0.15   0.01  -0.00    -0.00  -0.00   0.07     0.10   0.67   0.00
     2   6    -0.27   0.47   0.00    -0.00   0.00   0.00     0.13  -0.27  -0.00
     3   6    -0.22  -0.44  -0.00     0.00   0.00  -0.01    -0.11  -0.30  -0.00
     4   6     0.27  -0.07   0.00     0.00  -0.00  -0.19    -0.08  -0.12  -0.00
     5   1     0.20   0.25  -0.00    -0.00  -0.00   0.31    -0.12   0.47   0.00
     6   1     0.18  -0.04   0.00    -0.00   0.00   0.38    -0.00   0.06   0.01
     7   1     0.48   0.08  -0.00     0.00   0.00   0.85    -0.24  -0.16   0.02
                     10                     11                     12
                      A                      A                      A
 Frequencies --   1195.7384              1353.7314              1435.5143
 Red. masses --      1.6058                 1.2196                 1.8552
 Frc consts  --      1.3527                 1.3168                 2.2524
 IR Inten    --    681.7583               105.3546                21.5109
  Atom  AN      X      Y      Z        X      Y      Z        X      Y      Z
     1   6    -0.21   0.02   0.00    -0.11   0.06  -0.00    -0.13   0.03   0.00
     2   6     0.02  -0.03  -0.00     0.01  -0.02  -0.00     0.01  -0.01  -0.00
     3   6     0.01   0.01   0.00     0.00   0.00  -0.00     0.00  -0.00   0.00
     4   6     0.08  -0.03  -0.00     0.05  -0.02   0.00     0.24   0.03  -0.00
     5   1     0.78   0.41   0.00    -0.32  -0.49   0.00    -0.28  -0.11   0.00
     6   1     0.36  -0.15   0.00     0.01   0.05  -0.00    -0.64   0.03  -0.00
     7   1     0.11   0.04  -0.00     0.76   0.26  -0.00    -0.46  -0.46   0.00
                     13                     14                     15
                      A                      A                      A
 Frequencies --   1536.5332              2410.1601              2777.4119
 Red. masses --      1.0589                 1.0401                 1.1022
 Frc consts  --      1.4729                 3.5597                 5.0095
 IR Inten    --    192.6793               430.2275               309.3029
  Atom  AN      X      Y      Z        X      Y      Z        X      Y      Z
     1   6    -0.04  -0.02   0.00     0.02   0.01  -0.00    -0.01   0.00  -0.00
     2   6    -0.00   0.00  -0.00    -0.00   0.01  -0.00     0.00  -0.00   0.00
     3   6     0.00   0.00   0.00    -0.00  -0.00  -0.00     0.00   0.00  -0.00
     4   6     0.03  -0.04   0.00    -0.04  -0.03   0.00     0.05  -0.08   0.00
     5   1    -0.37   0.14  -0.00     0.53  -0.27   0.00     0.03  -0.12   0.00
     6   1     0.59   0.66  -0.00    -0.36   0.69  -0.00    -0.10   0.14  -0.00
     7   1    -0.15  -0.16   0.00     0.12  -0.15   0.00    -0.45   0.86  -0.00

 -------------------
 - Thermochemistry -
 -------------------
 Temperature   298.150 Kelvin.  Pressure   1.00000 Atm.
 Atom     1 has atomic number  6 and mass  12.00000
 Atom     2 has atomic number  6 and mass  12.00000
 Atom     3 has atomic number  6 and mass  12.00000
 Atom     4 has atomic number  6 and mass  12.00000
 Atom     5 has atomic number  1 and mass   1.00783
 Atom     6 has atomic number  1 and mass   1.00783
 Atom     7 has atomic number  1 and mass   1.00783
 Molecular mass:    51.02348 amu.
 Principal axes and moments of inertia in atomic units:
                           1         2         3
     Eigenvalues --   159.68761 179.21364 338.90109
           X            0.97684   0.21396   0.00001
           Y           -0.21396   0.97684  -0.00012
           Z           -0.00003   0.00012   1.00000
 This molecule is an asymmetric top.
 Rotational symmetry number  1.
 Rotational temperatures (Kelvin)      0.54240     0.48330     0.25557
 Rotational constants (GHZ):          11.30170    10.07033     5.32527
 Zero-point vibrational energy      93171.9 (Joules/Mol)
                                   22.26862 (Kcal/Mol)
 Warning -- explicit consideration of   5 degrees of freedom as
           vibrations may cause significant error
 Vibrational temperatures:    252.88   374.83   520.22   535.27   587.83
          (Kelvin)            962.49  1056.33  1328.40  1385.76  1720.40
                             1947.72  2065.38  2210.73  3467.68  3996.07
 
 Zero-point correction=                           0.035487 (Hartree/Particle)
 Thermal correction to Energy=                    0.040733
 Thermal correction to Enthalpy=                  0.041677
 Thermal correction to Gibbs Free Energy=         0.008614
 Sum of electronic and zero-point Energies=           -152.036205
 Sum of electronic and thermal Energies=              -152.030960
 Sum of electronic and thermal Enthalpies=            -152.030015
 Sum of electronic and thermal Free Energies=         -152.063079
 
                     E (Thermal)             CV                S
                      KCal/Mol        Cal/Mol-Kelvin    Cal/Mol-Kelvin
 Total                   25.560             17.149             69.588
 Electronic               0.000              0.000              0.000
 Translational            0.889              2.981             37.712
 Rotational               0.889              2.981             23.788
 Vibrational             23.783             11.187              8.088
 Vibration     1          0.628              1.872              2.373
 Vibration     2          0.669              1.745              1.658
 Vibration     3          0.736              1.551              1.115
 Vibration     4          0.744              1.530              1.071
 Vibration     5          0.773              1.452              0.932
                       Q            Log10(Q)             Ln(Q)
 Total Bot       0.109156D-03         -3.961953         -9.122734
 Total V=0       0.229637D+13         12.361041         28.462349
 Vib (Bot)       0.216139D-15        -15.665267        -36.070611
 Vib (Bot)    1  0.114440D+01          0.058580          0.134884
 Vib (Bot)    2  0.745363D+00         -0.127632         -0.293884
 Vib (Bot)    3  0.506391D+00         -0.295514         -0.680445
 Vib (Bot)    4  0.488683D+00         -0.310973         -0.716041
 Vib (Bot)    5  0.433499D+00         -0.363011         -0.835865
 Vib (V=0)       0.454702D+01          0.657727          1.514472
 Vib (V=0)    1  0.174886D+01          0.242756          0.558967
 Vib (V=0)    2  0.139753D+01          0.145362          0.334709
 Vib (V=0)    3  0.121164D+01          0.083374          0.191975
 Vib (V=0)    4  0.119915D+01          0.078874          0.181613
 Vib (V=0)    5  0.116176D+01          0.065115          0.149933
 Electronic      0.100000D+01          0.000000          0.000000
 Translational   0.143255D+08          7.156110         16.477553
 Rotational      0.352536D+05          4.547204         10.470324
 
                                                              b3lyp opt
                                                             IR Spectrum
 
     2                2                                       1    1   1      1                                                      
     7                4                                       5    4   3      1         9 9        7  6           433    2  1        
     7                1                                       3    3   5      9         6 2        3  6           076    6  7        
     7                0                                       7    6   4      6         3 3        4  9           922    1  6        
 
     X                X                                       X    X   X      X         X X        X  X           XXX    X  X        
     X                X                                       X        X      X         X X        X  X            X                 
     X                X                                       X        X      X         X X        X  X                              
     X                X                                       X               X         X             X                              
     X                X                                       X               X         X                                            
     X                X                                       X               X         X                                            
     X                X                                                       X         X                                            
     X                X                                                       X         X                                            
     X                X                                                       X         X                                            
                      X                                                       X         X                                            
                      X                                                       X         X                                            
                      X                                                       X         X                                            
                      X                                                       X         X                                            
                                                                              X         X                                            
                                                                              X         X                                            
                                                                              X         X                                            
                                                                              X                                                      
                                                                              X                                                      
                                                                              X                                                      
                                                                              X                                                      
 
 ***** Axes restored to original set *****
 -------------------------------------------------------------------
 Center     Atomic                   Forces (Hartrees/Bohr)
 Number     Number              X              Y              Z
 -------------------------------------------------------------------
      1        6          -0.000031309   -0.000020141    0.000026069
      2        6          -0.000004912    0.000019455    0.000011724
      3        6          -0.000005803    0.000003380   -0.000021578
      4        6           0.000120543    0.000025237   -0.000045562
      5        1          -0.000094843    0.000070733   -0.000000203
      6        1           0.000049141   -0.000096757   -0.000007962
      7        1          -0.000032817   -0.000001907    0.000037512
 -------------------------------------------------------------------
 Cartesian Forces:  Max     0.000120543 RMS     0.000048150
 Z-matrix is all fixed cartesians, so copy forces.
 Force constants in Cartesian coordinates: 
                1             2             3             4             5 
      1  0.480119D+00
      2 -0.394251D-01  0.313022D+00
      3 -0.152642D-05 -0.740683D-04  0.686478D-01
      4 -0.546761D-01  0.531844D-01 -0.247756D-04  0.573560D-01
      5  0.563101D-01 -0.123105D+00  0.732236D-04 -0.653144D-01  0.149673D+00
      6 -0.187304D-04  0.581394D-04 -0.192763D-01  0.212182D-04 -0.522265D-04
      7 -0.470146D-01 -0.418475D-01  0.394044D-05  0.166909D-01 -0.650851D-02
      8 -0.432567D-01 -0.123182D+00  0.145877D-04  0.773721D-02 -0.330284D-01
      9  0.165946D-04  0.314888D-04 -0.194138D-01  0.000000D+00  0.690315D-05
     10 -0.356522D+00  0.296828D-01  0.147417D-04 -0.123294D-01  0.129899D-01
     11  0.330462D-01 -0.635935D-01  0.350906D-05  0.428803D-02 -0.199275D-02
     12  0.953491D-04  0.475452D-04 -0.487525D-01 -0.412921D-05 -0.146801D-04
     13  0.159477D-01  0.347066D-02  0.265517D-04 -0.494597D-02  0.685061D-02
     14 -0.510435D-02 -0.125040D-01 -0.154352D-04  0.149688D-02  0.101128D-02
     15 -0.616545D-04 -0.561183D-04  0.461218D-02  0.135106D-04  0.513254D-05
     16 -0.279729D-01 -0.232361D-01 -0.462087D-04  0.106279D-03 -0.532073D-02
     17  0.117668D-01  0.149518D-02 -0.557723D-05 -0.404172D-02  0.112184D-01
     18  0.434712D-04  0.854757D-05  0.328953D-02 -0.163568D-04  0.191253D-04
     19 -0.988174D-02  0.181708D-01  0.272769D-04 -0.220169D-02  0.992977D-03
     20 -0.133371D-01  0.786700D-02  0.376035D-05  0.264954D-02 -0.377580D-02
     21 -0.735036D-04 -0.155343D-04  0.108931D-01  0.982427D-05 -0.374780D-04
                6             7             8             9            10 
      6  0.816464D-02
      7 -0.269810D-05  0.482903D-01
      8  0.113381D-04  0.558810D-01  0.150053D+00
      9  0.499763D-02 -0.234065D-05 -0.343597D-04  0.876229D-02
     10  0.136330D-04 -0.125128D-01 -0.141341D-01 -0.167752D-04  0.587466D+00
     11 -0.338407D-04 -0.106930D-01  0.103889D-02  0.863523D-05 -0.976080D-01
     12  0.306749D-02 -0.578721D-05 -0.149574D-04  0.345990D-02 -0.208268D-03
     13 -0.745093D-05 -0.406979D-02 -0.811631D-02  0.475275D-05 -0.764085D-01
     14  0.679721D-05  0.113316D-02  0.807838D-03 -0.925778D-05 -0.558798D-02
     15 -0.505064D-03  0.164369D-05 -0.133660D-04  0.191808D-02  0.127685D-03
     16 -0.500664D-05  0.633614D-03  0.158425D-02 -0.468155D-05 -0.233024D-01
     17  0.119588D-04 -0.224946D-02 -0.484683D-02 -0.681065D-05 -0.253644D-01
     18  0.250051D-03  0.329635D-05 -0.207606D-05  0.237727D-02 -0.156522D-03
     19  0.000000D+00 -0.201752D-02  0.304593D-03  0.174152D-05 -0.106391D+00
     20 -0.216630D-05  0.428438D-02  0.915749D-02  0.340093D-05  0.100022D+00
     21  0.330158D-02  0.194549D-05  0.388333D-04 -0.210138D-02  0.225505D-03
               11            12            13            14            15 
     11  0.365776D+00
     12  0.426622D-03  0.121752D+00
     13 -0.360032D-01 -0.255874D-04  0.104042D+00
     14  0.253196D-01  0.125499D-03 -0.170427D-01  0.481961D-01
     15  0.182263D-03 -0.183184D-01 -0.381613D-03  0.263515D-03  0.452001D-02
     16  0.246669D-01  0.000000D+00 -0.428150D-01  0.344125D-01  0.338984D-03
     17 -0.116308D+00 -0.232203D-03  0.534991D-01 -0.382337D-01 -0.337255D-03
     18 -0.329387D-03 -0.207600D-01  0.382978D-03 -0.320495D-03  0.356563D-02
     19  0.823030D-01  0.147612D-03  0.824982D-02 -0.930752D-02 -0.385554D-04
     20 -0.210240D+00 -0.337826D-03 -0.265808D-02 -0.245971D-01 -0.441715D-04
     21 -0.257802D-03 -0.404485D-01  0.000000D+00 -0.506229D-04  0.420754D-02
               16            17            18            19            20 
     16  0.858340D-01
     17 -0.267553D-01  0.145485D+00
     18 -0.275707D-03  0.607369D-03  0.526873D-02
     19  0.751657D-02 -0.685497D-02  0.188399D-04  0.104725D+00
     20 -0.535154D-02  0.119026D-02  0.169170D-04 -0.856089D-01  0.220398D+00
     21 -0.818943D-05 -0.374820D-04  0.600879D-02 -0.155950D-03  0.360086D-03
               21 
     21  0.181388D-01
 Leave Link  716 at Sun Jun 19 06:44:54 2016, MaxMem=    33554432 cpu:         0.1
 (Enter /home/proyectos/fulerenos/M3C-v1.9/M3C-deps_CCC/g09-AM64L-G09RevC.01/l103.exe)

 GradGradGradGradGradGradGradGradGradGradGradGradGradGradGradGradGradGrad
 Berny optimization.
 Search for a local minimum.
 Step number   1 out of a maximum of    2
 All quantities printed in internal units (Hartrees-Bohrs-Radians)
 Second derivative matrix not updated -- analytic derivatives used.
 ITU=  0
     Eigenvalues ---    0.00126   0.00797   0.01325   0.03993   0.04983
     Eigenvalues ---    0.05170   0.06956   0.09171   0.12414   0.15591
     Eigenvalues ---    0.21736   0.28392   0.43011   0.52595   0.95360
 Angle between quadratic step and forces=  76.65 degrees.
 Linear search not attempted -- first point.
 B after Tr=     0.000052   -0.000009    0.000089
         Rot=    1.000000   -0.000229   -0.000032    0.000021 Ang=  -0.03 deg.
 Variable       Old X    -DE/DX   Delta X   Delta X   Delta X     New X
                                 (Linear)    (Quad)   (Total)
    X1       -0.40836  -0.00003   0.00000   0.00011   0.00016  -0.40820
    Y1        0.03114  -0.00002   0.00000  -0.00013  -0.00012   0.03101
    Z1       -0.00001   0.00003   0.00000   0.00008   0.00021   0.00020
    X2       -1.88713  -0.00000   0.00000   0.00026   0.00042  -1.88671
    Y2        2.48538   0.00002   0.00000   0.00009   0.00016   2.48554
    Z2       -0.00072   0.00001   0.00000   0.00147   0.00282   0.00209
    X3       -1.73197  -0.00001   0.00000  -0.00029  -0.00035  -1.73232
    Y3       -2.53221   0.00000   0.00000   0.00003   0.00010  -2.53211
    Z3        0.00060  -0.00002   0.00000  -0.00123  -0.00219  -0.00159
    X4        2.22098   0.00012   0.00000   0.00019   0.00024   2.22122
    Y4       -0.15009   0.00003   0.00000  -0.00029  -0.00040  -0.15048
    Z4       -0.00002  -0.00005   0.00000  -0.00002  -0.00014  -0.00016
    X5        4.49231  -0.00009   0.00000  -0.00060  -0.00051   4.49179
    Y5        0.90602   0.00007   0.00000   0.00124   0.00104   0.90706
    Z5       -0.00258  -0.00000   0.00000   0.00230   0.00251  -0.00007
    X6        3.06372   0.00005   0.00000  -0.00024  -0.00010   3.06362
    Y6        2.08775  -0.00010   0.00000  -0.00033  -0.00047   2.08729
    Z6        0.00715  -0.00001   0.00000  -0.00605  -0.00520   0.00195
    X7        3.28287  -0.00003   0.00000   0.00017   0.00014   3.28301
    Y7       -1.99911  -0.00000   0.00000  -0.00017  -0.00031  -1.99943
    Z7       -0.00367   0.00004   0.00000   0.00304   0.00200  -0.00167
         Item               Value     Threshold  Converged?
 Maximum Force            0.000121     0.000450     YES
 RMS     Force            0.000048     0.000300     YES
 Maximum Displacement     0.005203     0.001800     NO 
 RMS     Displacement     0.001581     0.001200     NO 
 Predicted change in Energy=-1.942525D-07
 GradGradGradGradGradGradGradGradGradGradGradGradGradGradGradGradGradGrad

 Leave Link  103 at Sun Jun 19 06:44:54 2016, MaxMem=    33554432 cpu:         0.1
 (Enter /home/proyectos/fulerenos/M3C-v1.9/M3C-deps_CCC/g09-AM64L-G09RevC.01/l9999.exe)
 1\1\GINC-BELVIS4\Freq\RB3LYP\6-311++G(3df,2p)\C4H3(3+)\ROOT\19-Jun-201
 6\0\\#p b3lyp/6-311++G(3df,2p) freq symmetry=Loose\\b3lyp opt\\3,1\C,-
 0.216095,0.016477,-0.000006\C,-0.998628,1.315209,-0.000383\C,-0.916519
 ,-1.339988,0.000319\C,1.175293,-0.079423,-0.000009\H,2.377227,0.479443
 ,-0.001365\H,1.621251,1.104792,0.003783\H,1.73722,-1.057884,-0.001941\
 \Version=EM64L-G09RevE.01\State=1-A\HF=-152.0716925\RMSD=5.943e-09\RMS
 F=4.815e-05\ZeroPoint=0.0354873\Thermal=0.0407329\Dipole=1.9583899,0.4
 216442,0.0003158\DipoleDeriv=-0.9222204,0.0651732,-0.0001599,0.0507522
 ,-1.6592607,0.0011669,0.0002824,0.0005046,0.5325987,0.8970583,-0.79671
 78,0.0001306,-0.9413477,1.6700096,-0.0006478,0.0001954,-0.0005504,0.56
 84353,0.8096757,0.706778,-0.0001253,0.8736238,1.7510858,-0.0003638,-0.
 0001826,-0.0002538,0.5844219,0.8710773,0.1607556,0.0013552,0.3031861,0
 .0488707,-0.0012353,0.0015819,-0.0007975,0.4178186,1.0147858,0.057125,
 -0.0010801,-0.1243517,0.3044174,-0.0004571,-0.0012514,-0.0006764,0.376
 2041,-0.0139852,0.0419789,0.0004124,0.1118325,0.4449928,0.0011567,0.00
 06089,0.0012426,0.3021405,0.3436085,-0.2350928,-0.000533,-0.2736951,0.
 4398844,0.0003805,-0.0012346,0.0005308,0.218381\Polar=47.1454642,0.308
 6916,43.4377305,-0.0014633,0.0028981,21.4187709\PG=C01 [X(C4H3)]\NImag
 =0\\0.48011928,-0.03942506,0.31302250,-0.00000153,-0.00007407,0.068647
 76,-0.05467606,0.05318441,-0.00002478,0.05735599,0.05631011,-0.1231052
 4,0.00007322,-0.06531436,0.14967255,-0.00001873,0.00005814,-0.01927633
 ,0.00002122,-0.00005223,0.00816464,-0.04701461,-0.04184752,0.00000394,
 0.01669086,-0.00650851,-0.00000270,0.04829029,-0.04325667,-0.12318190,
 0.00001459,0.00773721,-0.03302843,0.00001134,0.05588099,0.15005294,0.0
 0001659,0.00003149,-0.01941379,0.00000071,0.00000690,0.00499763,-0.000
 00234,-0.00003436,0.00876229,-0.35652160,0.02968280,0.00001474,-0.0123
 2941,0.01298991,0.00001363,-0.01251284,-0.01413405,-0.00001678,0.58746
 552,0.03304624,-0.06359354,0.00000351,0.00428803,-0.00199275,-0.000033
 84,-0.01069303,0.00103889,0.00000864,-0.09760796,0.36577562,0.00009535
 ,0.00004755,-0.04875245,-0.00000413,-0.00001468,0.00306749,-0.00000579
 ,-0.00001496,0.00345990,-0.00020827,0.00042662,0.12175190,0.01594768,0
 .00347066,0.00002655,-0.00494597,0.00685061,-0.00000745,-0.00406979,-0
 .00811631,0.00000475,-0.07640845,-0.03600323,-0.00002559,0.10404176,-0
 .00510435,-0.01250400,-0.00001544,0.00149688,0.00101128,0.00000680,0.0
 0113316,0.00080784,-0.00000926,-0.00558798,0.02531962,0.00012550,-0.01
 704272,0.04819611,-0.00006165,-0.00005612,0.00461218,0.00001351,0.0000
 0513,-0.00050506,0.00000164,-0.00001337,0.00191808,0.00012769,0.000182
 26,-0.01831837,-0.00038161,0.00026352,0.00452001,-0.02797295,-0.023236
 12,-0.00004621,0.00010628,-0.00532073,-0.00000501,0.00063361,0.0015842
 5,-0.00000468,-0.02330243,0.02466695,0.00000081,-0.04281505,0.03441252
 ,0.00033898,0.08583396,0.01176683,0.00149518,-0.00000558,-0.00404172,0
 .01121839,0.00001196,-0.00224946,-0.00484683,-0.00000681,-0.02536444,-
 0.11630806,-0.00023220,0.05349907,-0.03823372,-0.00033725,-0.02675531,
 0.14548478,0.00004347,0.00000855,0.00328953,-0.00001636,0.00001913,0.0
 0025005,0.00000330,-0.00000208,0.00237727,-0.00015652,-0.00032939,-0.0
 2075999,0.00038298,-0.00032050,0.00356563,-0.00027571,0.00060737,0.005
 26873,-0.00988174,0.01817084,0.00002728,-0.00220169,0.00099298,-0.0000
 0097,-0.00201752,0.00030459,0.00000174,-0.10639079,0.08230300,0.000147
 61,0.00824982,-0.00930752,-0.00003856,0.00751657,-0.00685497,0.0000188
 4,0.10472535,-0.01333710,0.00786700,0.00000376,0.00264954,-0.00377580,
 -0.00000217,0.00428438,0.00915749,0.00000340,0.10002173,-0.21023978,-0
 .00033783,-0.00265808,-0.02459712,-0.00004417,-0.00535154,0.00119026,0
 .00001692,-0.08560892,0.22039795,-0.00007350,-0.00001553,0.01089310,0.
 00000982,-0.00003748,0.00330158,0.00000195,0.00003883,-0.00210138,0.00
 022550,-0.00025780,-0.04044847,0.00000037,-0.00005062,0.00420754,-0.00
 000819,-0.00003748,0.00600879,-0.00015595,0.00036009,0.01813884\\0.000
 03131,0.00002014,-0.00002607,0.00000491,-0.00001946,-0.00001172,0.0000
 0580,-0.00000338,0.00002158,-0.00012054,-0.00002524,0.00004556,0.00009
 484,-0.00007073,0.00000020,-0.00004914,0.00009676,0.00000796,0.0000328
 2,0.00000191,-0.00003751\\\@


 ... SUBJECTS WHICH DISCLOSE THEIR FULL POWER, MEANING AND BEAUTY AS SOON
 AS THEY ARE PRESENTED TO THE MIND HAVE VERY LITTLE OF THOSE QUALITIES
 TO DISCLOSE.
                           -- CHARLES DUTTON (1882)
 Job cpu time:       0 days  0 hours 18 minutes  3.2 seconds.
 File lengths (MBytes):  RWF=     24 Int=      0 D2E=      0 Chk=      3 Scr=      1
 Normal termination of Gaussian 09 at Sun Jun 19 06:44:54 2016.
