 Entering Gaussian System, Link 0=/home/proyectos/fulerenos/M3C-v2.0/M3C-deps_CCC/g09-AM64L-G09RevC.01/g09
 Initial command:
 /home/proyectos/fulerenos/M3C-v2.0/M3C-deps_CCC/g09-AM64L-G09RevC.01/l1.exe "/scratch/naguirre/gaussian/Gau-15775.inp" -scrdir="/scratch/naguirre/gaussian/"
 Entering Link 1 = /home/proyectos/fulerenos/M3C-v2.0/M3C-deps_CCC/g09-AM64L-G09RevC.01/l1.exe PID=     15783.
  
 Copyright (c) 1988,1990,1992,1993,1995,1998,2003,2009,2015,
            Gaussian, Inc.  All Rights Reserved.
  
 This is part of the Gaussian(R) 09 program.  It is based on
 the Gaussian(R) 03 system (copyright 2003, Gaussian, Inc.),
 the Gaussian(R) 98 system (copyright 1998, Gaussian, Inc.),
 the Gaussian(R) 94 system (copyright 1995, Gaussian, Inc.),
 the Gaussian 92(TM) system (copyright 1992, Gaussian, Inc.),
 the Gaussian 90(TM) system (copyright 1990, Gaussian, Inc.),
 the Gaussian 88(TM) system (copyright 1988, Gaussian, Inc.),
 the Gaussian 86(TM) system (copyright 1986, Carnegie Mellon
 University), and the Gaussian 82(TM) system (copyright 1983,
 Carnegie Mellon University). Gaussian is a federally registered
 trademark of Gaussian, Inc.
  
 This software contains proprietary and confidential information,
 including trade secrets, belonging to Gaussian, Inc.
  
 This software is provided under written license and may be
 used, copied, transmitted, or stored only in accord with that
 written license.
  
 The following legend is applicable only to US Government
 contracts under FAR:
  
                    RESTRICTED RIGHTS LEGEND
  
 Use, reproduction and disclosure by the US Government is
 subject to restrictions as set forth in subparagraphs (a)
 and (c) of the Commercial Computer Software - Restricted
 Rights clause in FAR 52.227-19.
  
 Gaussian, Inc.
 340 Quinnipiac St., Bldg. 40, Wallingford CT 06492
  
  
 ---------------------------------------------------------------
 Warning -- This program may not be used in any manner that
 competes with the business of Gaussian, Inc. or will provide
 assistance to any competitor of Gaussian, Inc.  The licensee
 of this program is prohibited from giving any competitor of
 Gaussian, Inc. access to this program.  By using this program,
 the user acknowledges that Gaussian, Inc. is engaged in the
 business of creating and licensing software in the field of
 computational chemistry and represents and warrants to the
 licensee that it is not a competitor of Gaussian, Inc. and that
 it will not use this program in any manner prohibited above.
 ---------------------------------------------------------------
  

 Cite this work as:
 Gaussian 09, Revision E.01,
 M. J. Frisch, G. W. Trucks, H. B. Schlegel, G. E. Scuseria, 
 M. A. Robb, J. R. Cheeseman, G. Scalmani, V. Barone, B. Mennucci, 
 G. A. Petersson, H. Nakatsuji, M. Caricato, X. Li, H. P. Hratchian, 
 A. F. Izmaylov, J. Bloino, G. Zheng, J. L. Sonnenberg, M. Hada, 
 M. Ehara, K. Toyota, R. Fukuda, J. Hasegawa, M. Ishida, T. Nakajima, 
 Y. Honda, O. Kitao, H. Nakai, T. Vreven, J. A. Montgomery, Jr., 
 J. E. Peralta, F. Ogliaro, M. Bearpark, J. J. Heyd, E. Brothers, 
 K. N. Kudin, V. N. Staroverov, T. Keith, R. Kobayashi, J. Normand, 
 K. Raghavachari, A. Rendell, J. C. Burant, S. S. Iyengar, J. Tomasi, 
 M. Cossi, N. Rega, J. M. Millam, M. Klene, J. E. Knox, J. B. Cross, 
 V. Bakken, C. Adamo, J. Jaramillo, R. Gomperts, R. E. Stratmann, 
 O. Yazyev, A. J. Austin, R. Cammi, C. Pomelli, J. W. Ochterski, 
 R. L. Martin, K. Morokuma, V. G. Zakrzewski, G. A. Voth, 
 P. Salvador, J. J. Dannenberg, S. Dapprich, A. D. Daniels, 
 O. Farkas, J. B. Foresman, J. V. Ortiz, J. Cioslowski, 
 and D. J. Fox, Gaussian, Inc., Wallingford CT, 2013.
 
 ******************************************
 Gaussian 09:  EM64L-G09RevE.01 30-Nov-2015
                31-Jan-2019 
 ******************************************
 %NProcShared=4
 Will use up to    4 processors via shared memory.
 ------------------------------------------------------
 #p b3lyp/6-311++G(3df,2p) freq IOp(2/17=3) IOp(2/18=3)
 ------------------------------------------------------
 1/10=4,30=1,38=1/1,3;
 2/12=2,17=3,18=3,40=1/2;
 3/5=4,6=6,7=1216,11=2,16=1,25=1,30=1,71=2,74=-5,140=1/1,2,3;
 4//1;
 5/5=2,38=5,98=1/2;
 8/6=4,10=90,11=11/1;
 11/6=1,8=1,9=11,15=111,16=1/1,2,10;
 10/6=1/2;
 6/7=2,8=2,9=2,10=2,18=1,28=1/1;
 7/8=1,10=1,25=1/1,2,3,16;
 1/10=4,30=1/3;
 99//99;
 Leave Link    1 at Thu Jan 31 05:49:07 2019, MaxMem=           0 cpu:         0.2
 (Enter /home/proyectos/fulerenos/M3C-v2.0/M3C-deps_CCC/g09-AM64L-G09RevC.01/l101.exe)
 ---------
 b3lyp opt
 ---------
 Symbolic Z-matrix:
 Charge =  2 Multiplicity = 4
 C                     2.55111  -0.00028  -0.00037 
 H                     3.11132   0.94578  -0.00043 
 H                     3.11153  -0.94623  -0.00043 
 C                     1.1853   -0.00043  -0.00022 
 C                    -0.09966  -0.00057  -0.00008 
 C                    -1.38107  -0.00071   0.00005 
 C                    -2.6672   -0.00085   0.00019 
 H                    -3.75596  -0.00097   0.00031 
 
 NAtoms=      8 NQM=        8 NQMF=       0 NMMI=      0 NMMIF=      0
                NMic=       0 NMicF=      0.
                    Isotopes and Nuclear Properties:
 (Nuclear quadrupole moments (NQMom) in fm**2, nuclear magnetic moments (NMagM)
  in nuclear magnetons)

  Atom         1           2           3           4           5           6           7           8
 IAtWgt=          12           1           1          12          12          12          12           1
 AtmWgt=  12.0000000   1.0078250   1.0078250  12.0000000  12.0000000  12.0000000  12.0000000   1.0078250
 NucSpn=           0           1           1           0           0           0           0           1
 AtZEff=   0.0000000   0.0000000   0.0000000   0.0000000   0.0000000   0.0000000   0.0000000   0.0000000
 NQMom=    0.0000000   0.0000000   0.0000000   0.0000000   0.0000000   0.0000000   0.0000000   0.0000000
 NMagM=    0.0000000   2.7928460   2.7928460   0.0000000   0.0000000   0.0000000   0.0000000   2.7928460
 AtZNuc=   6.0000000   1.0000000   1.0000000   6.0000000   6.0000000   6.0000000   6.0000000   1.0000000
 Leave Link  101 at Thu Jan 31 05:49:07 2019, MaxMem=    33554432 cpu:         0.3
 (Enter /home/proyectos/fulerenos/M3C-v2.0/M3C-deps_CCC/g09-AM64L-G09RevC.01/l103.exe)

 GradGradGradGradGradGradGradGradGradGradGradGradGradGradGradGradGradGrad
 Berny optimization.
 Initialization pass.
 Trust Radius=3.00D-01 FncErr=1.00D-07 GrdErr=1.00D-07
 Number of steps in this run=      2 maximum allowed number of steps=      2.
 GradGradGradGradGradGradGradGradGradGradGradGradGradGradGradGradGradGrad

 Leave Link  103 at Thu Jan 31 05:49:07 2019, MaxMem=    33554432 cpu:         0.1
 (Enter /home/proyectos/fulerenos/M3C-v2.0/M3C-deps_CCC/g09-AM64L-G09RevC.01/l202.exe)
                          Input orientation:                          
 ---------------------------------------------------------------------
 Center     Atomic      Atomic             Coordinates (Angstroms)
 Number     Number       Type             X           Y           Z
 ---------------------------------------------------------------------
      1          6           0        2.551109   -0.000282   -0.000370
      2          1           0        3.111323    0.945784   -0.000432
      3          1           0        3.111529   -0.946226   -0.000428
      4          6           0        1.185297   -0.000431   -0.000223
      5          6           0       -0.099663   -0.000571   -0.000085
      6          6           0       -1.381075   -0.000710    0.000053
      7          6           0       -2.667200   -0.000850    0.000192
      8          1           0       -3.755961   -0.000969    0.000309
 ---------------------------------------------------------------------
                    Distance matrix (angstroms):
                    1          2          3          4          5
     1  C    0.000000
     2  H    1.099492   0.000000
     3  H    1.099492   1.892011   0.000000
     4  C    1.365812   2.145903   2.145903   0.000000
     5  C    2.650772   3.347540   3.347540   1.284960   0.000000
     6  C    3.932184   4.591023   4.591023   2.566372   1.281412
     7  C    5.218309   5.855548   5.855548   3.852497   2.567537
     8  H    6.307070   6.932239   6.932239   4.941258   3.656298
                    6          7          8
     6  C    0.000000
     7  C    1.286125   0.000000
     8  H    2.374886   1.088761   0.000000
 Stoichiometry    C5H3(2+,4)
 Framework group  C2[C2(CCCCCH),X(H2)]
 Deg. of freedom     7
 Full point group                 C2      NOp   2
 Largest Abelian subgroup         C2      NOp   2
 Largest concise Abelian subgroup C2      NOp   2
                         Standard orientation:                         
 ---------------------------------------------------------------------
 Center     Atomic      Atomic             Coordinates (Angstroms)
 Number     Number       Type             X           Y           Z
 ---------------------------------------------------------------------
      1          6           0       -0.000000    0.000000   -2.551179
      2          1           0       -0.946005   -0.000339   -3.111496
      3          1           0        0.946005    0.000339   -3.111496
      4          6           0       -0.000000    0.000000   -1.185367
      5          6           0        0.000000    0.000000    0.099593
      6          6           0        0.000000    0.000000    1.381005
      7          6           0        0.000000    0.000000    2.667130
      8          1           0        0.000000    0.000000    3.755891
 ---------------------------------------------------------------------
 Rotational constants (GHZ):    280.1655357      2.1326909      2.1165790
 Leave Link  202 at Thu Jan 31 05:49:07 2019, MaxMem=    33554432 cpu:         0.0
 (Enter /home/proyectos/fulerenos/M3C-v2.0/M3C-deps_CCC/g09-AM64L-G09RevC.01/l301.exe)
 Standard basis: 6-311++G(3df,2p) (5D, 7F)
 Ernie: Thresh=  0.10000D-02 Tol=  0.10000D-05 Strict=F.
 There are   141 symmetry adapted cartesian basis functions of A   symmetry.
 There are   114 symmetry adapted cartesian basis functions of B   symmetry.
 There are   121 symmetry adapted basis functions of A   symmetry.
 There are   104 symmetry adapted basis functions of B   symmetry.
   225 basis functions,   326 primitive gaussians,   255 cartesian basis functions
    17 alpha electrons       14 beta electrons
       nuclear repulsion energy       113.7216449477 Hartrees.
 IExCor=  402 DFT=T Ex+Corr=B3LYP ExCW=0 ScaHFX=  0.200000
 ScaDFX=  0.800000  0.720000  1.000000  0.810000 ScalE2=  1.000000  1.000000
 IRadAn=      0 IRanWt=     -1 IRanGd=            0 ICorTp=0 IEmpDi=  4
 NAtoms=    8 NActive=    8 NUniq=    7 SFac= 1.31D+00 NAtFMM=   60 NAOKFM=F Big=F
 Integral buffers will be    131072 words long.
 Raffenetti 2 integral format.
 Two-electron integral symmetry is turned on.
 Leave Link  301 at Thu Jan 31 05:49:07 2019, MaxMem=    33554432 cpu:         0.2
 (Enter /home/proyectos/fulerenos/M3C-v2.0/M3C-deps_CCC/g09-AM64L-G09RevC.01/l302.exe)
 NPDir=0 NMtPBC=     1 NCelOv=     1 NCel=       1 NClECP=     1 NCelD=      1
         NCelK=      1 NCelE2=     1 NClLst=     1 CellRange=     0.0.
 One-electron integrals computed using PRISM.
 One-electron integral symmetry used in STVInt
 NBasis=   225 RedAO= T EigKep=  1.98D-06  NBF=   121   104
 NBsUse=   223 1.00D-06 EigRej=  3.19D-08 NBFU=   119   104
 Precomputing XC quadrature grid using
 IXCGrd= 4 IRadAn=           0 IRanWt=          -1 IRanGd=           0 AccXCQ= 0.00D+00.
 Generated NRdTot=       0 NPtTot=           0 NUsed=           0 NTot=          32
 NSgBfM=   255   255   255   255   255 MxSgAt=     8 MxSgA2=     8.
 Leave Link  302 at Thu Jan 31 05:49:07 2019, MaxMem=    33554432 cpu:         1.5
 (Enter /home/proyectos/fulerenos/M3C-v2.0/M3C-deps_CCC/g09-AM64L-G09RevC.01/l303.exe)
 DipDrv:  MaxL=1.
 Leave Link  303 at Thu Jan 31 05:49:07 2019, MaxMem=    33554432 cpu:         0.2
 (Enter /home/proyectos/fulerenos/M3C-v2.0/M3C-deps_CCC/g09-AM64L-G09RevC.01/l401.exe)
 ExpMin= 3.60D-02 ExpMax= 4.56D+03 ExpMxC= 6.82D+02 IAcc=3 IRadAn=         5 AccDes= 0.00D+00
 Harris functional with IExCor=  402 and IRadAn=       5 diagonalized for initial guess.
 HarFok:  IExCor=  402 AccDes= 0.00D+00 IRadAn=         5 IDoV= 1 UseB2=F ITyADJ=14
 ICtDFT=  3500011 ScaDFX=  1.000000  1.000000  1.000000  1.000000
 FoFCou: FMM=F IPFlag=           0 FMFlag=      100000 FMFlg1=           0
         NFxFlg=           0 DoJE=T BraDBF=F KetDBF=T FulRan=T
         wScrn=  0.000000 ICntrl=     500 IOpCl=  0 I1Cent=   200000004 NGrid=           0
         NMat0=    1 NMatS0=      1 NMatT0=    0 NMatD0=    1 NMtDS0=    0 NMtDT0=    0
 Petite list used in FoFCou.
 Harris En= -191.576081449145    
 JPrj=0 DoOrth=F DoCkMO=F.
 Initial guess orbital symmetries:
 Alpha Orbitals:
       Occupied  (A) (A) (A) (A) (A) (A) (A) (A) (A) (A) (A) (B)
                 (B) (B) (B) (B) (B)
       Virtual   (B) (B) (A) (A) (B) (A) (B) (B) (A) (B) (B) (B)
                 (A) (A) (A) (B) (B) (A) (B) (A) (A) (B) (B) (A)
                 (A) (A) (B) (A) (B) (B) (A) (A) (A) (A) (A) (A)
                 (A) (A) (B) (B) (B) (A) (B) (B) (A) (B) (B) (B)
                 (A) (A) (A) (B) (B) (A) (B) (A) (B) (A) (A) (B)
                 (A) (B) (A) (B) (B) (B) (A) (A) (B) (B) (A) (A)
                 (A) (B) (B) (B) (A) (B) (B) (A) (A) (B) (A) (A)
                 (A) (B) (A) (A) (A) (A) (A) (A) (B) (A) (A) (B)
                 (A) (A) (B) (B) (B) (A) (A) (B) (A) (B) (A) (B)
                 (A) (A) (A) (B) (B) (B) (A) (B) (B) (B) (B) (B)
                 (A) (A) (B) (B) (A) (B) (B) (B) (B) (A) (B) (A)
                 (B) (B) (A) (B) (B) (B) (A) (B) (B) (A) (B) (B)
                 (A) (A) (B) (A) (A) (A) (B) (B) (A) (A) (A) (B)
                 (A) (B) (A) (B) (A) (A) (A) (B) (B) (B) (A) (A)
                 (B) (B) (A) (B) (A) (B) (B) (A) (A) (A) (A) (A)
                 (A) (A) (A) (A) (A) (A) (B) (B) (B) (B) (B) (B)
                 (B) (A) (B) (A) (B) (B) (A) (A) (A) (A) (A) (A)
                 (A) (A)
 Beta  Orbitals:
       Occupied  (A) (A) (A) (A) (A) (A) (A) (A) (A) (A) (A) (B)
                 (B) (B)
       Virtual   (B) (B) (B) (B) (B) (A) (A) (B) (A) (B) (B) (A)
                 (B) (B) (B) (A) (A) (A) (B) (B) (A) (B) (A) (A)
                 (B) (B) (A) (A) (A) (B) (A) (B) (B) (A) (A) (A)
                 (A) (A) (A) (A) (A) (B) (B) (B) (A) (B) (B) (A)
                 (B) (B) (B) (A) (A) (A) (B) (B) (A) (B) (A) (B)
                 (A) (A) (B) (A) (B) (A) (B) (B) (B) (A) (A) (B)
                 (B) (A) (A) (A) (B) (B) (B) (A) (B) (B) (A) (A)
                 (B) (A) (A) (A) (B) (A) (A) (A) (A) (A) (A) (B)
                 (A) (A) (B) (A) (A) (B) (B) (B) (A) (A) (B) (A)
                 (B) (A) (B) (A) (A) (A) (B) (B) (B) (A) (B) (B)
                 (B) (B) (B) (A) (A) (B) (B) (A) (B) (B) (B) (B)
                 (A) (B) (A) (B) (B) (A) (B) (B) (B) (A) (B) (B)
                 (A) (B) (B) (A) (A) (B) (A) (A) (A) (B) (B) (A)
                 (A) (A) (B) (A) (B) (A) (B) (A) (A) (A) (B) (B)
                 (B) (A) (A) (B) (B) (A) (B) (A) (B) (B) (A) (A)
                 (A) (A) (A) (A) (A) (A) (A) (A) (A) (B) (B) (B)
                 (B) (B) (B) (B) (A) (B) (A) (B) (B) (A) (A) (A)
                 (A) (A) (A) (A) (A)
 The electronic state of the initial guess is 4-B.
 Initial guess <Sx>= 0.0000 <Sy>= 0.0000 <Sz>= 1.5000 <S**2>= 3.7500 S= 1.5000
 Leave Link  401 at Thu Jan 31 05:49:09 2019, MaxMem=    33554432 cpu:         5.8
 (Enter /home/proyectos/fulerenos/M3C-v2.0/M3C-deps_CCC/g09-AM64L-G09RevC.01/l502.exe)
 UHF open shell SCF:
 Using DIIS extrapolation, IDIIS=  1040.
 Integral symmetry usage will be decided dynamically.
 IVT=      217281 IEndB=      217281 NGot=    33554432 MDV=    33419072
 LenX=    33419072 LenY=    33353606
 Requested convergence on RMS density matrix=1.00D-08 within 128 cycles.
 Requested convergence on MAX density matrix=1.00D-06.
 Requested convergence on             energy=1.00D-06.
 No special actions if energy rises.
 Fock matrices will be formed incrementally for  20 cycles.

 Cycle   1  Pass 1  IDiag  1:
 FoFJK:  IHMeth= 1 ICntrl=       0 DoSepK=F KAlg= 0 I1Cent=   0 FoldK=F
 IRaf= 930000000 NMat=   1 IRICut=       1 DoRegI=T DoRafI=F ISym2E= 1.
 FoFCou: FMM=F IPFlag=           0 FMFlag=      100000 FMFlg1=           0
         NFxFlg=           0 DoJE=F BraDBF=F KetDBF=F FulRan=T
         wScrn=  0.000000 ICntrl=       0 IOpCl=  1 I1Cent=           0 NGrid=           0
         NMat0=    1 NMatS0=      1 NMatT0=    0 NMatD0=    1 NMtDS0=    0 NMtDT0=    0
 Petite list used in FoFCou.
 E= -191.255401823175    
 DIIS: error= 1.55D-02 at cycle   1 NSaved=   1.
 NSaved= 1 IEnMin= 1 EnMin= -191.255401823175     IErMin= 1 ErrMin= 1.55D-02
 ErrMax= 1.55D-02  0.00D+00 EMaxC= 1.00D-01 BMatC= 1.77D-01 BMatP= 1.77D-01
 IDIUse=3 WtCom= 8.45D-01 WtEn= 1.55D-01
 Coeff-Com:  0.100D+01
 Coeff-En:   0.100D+01
 Coeff:      0.100D+01
 Gap=     0.106 Goal=   None    Shift=    0.000
 Gap=     0.120 Goal=   None    Shift=    0.000
 GapD=    0.106 DampG=1.000 DampE=0.500 DampFc=0.5000 IDamp=-1.
 Damping current iteration by 5.00D-01
 RMSDP=4.09D-03 MaxDP=2.43D-01              OVMax= 2.10D-01

 Cycle   2  Pass 1  IDiag  1:
 RMSU=  1.97D-03    CP:  1.03D+00
 E= -191.269818534028     Delta-E=       -0.014416710853 Rises=F Damp=T
 DIIS: error= 6.85D-03 at cycle   2 NSaved=   2.
 NSaved= 2 IEnMin= 2 EnMin= -191.269818534028     IErMin= 2 ErrMin= 6.85D-03
 ErrMax= 6.85D-03  0.00D+00 EMaxC= 1.00D-01 BMatC= 3.39D-02 BMatP= 1.77D-01
 IDIUse=3 WtCom= 9.32D-01 WtEn= 6.85D-02
 Coeff-Com:  0.759D-01 0.924D+00
 Coeff-En:   0.198D+00 0.802D+00
 Coeff:      0.843D-01 0.916D+00
 Gap=     0.141 Goal=   None    Shift=    0.000
 Gap=     0.141 Goal=   None    Shift=    0.000
 RMSDP=1.84D-03 MaxDP=8.04D-02 DE=-1.44D-02 OVMax= 1.46D-01

 Cycle   3  Pass 1  IDiag  1:
 RMSU=  1.45D-03    CP:  1.07D+00  1.39D+00
 E= -191.293320028829     Delta-E=       -0.023501494800 Rises=F Damp=F
 DIIS: error= 7.33D-03 at cycle   3 NSaved=   3.
 NSaved= 3 IEnMin= 3 EnMin= -191.293320028829     IErMin= 2 ErrMin= 6.85D-03
 ErrMax= 7.33D-03  0.00D+00 EMaxC= 1.00D-01 BMatC= 1.91D-02 BMatP= 3.39D-02
 IDIUse=3 WtCom= 9.27D-01 WtEn= 7.33D-02
 Coeff-Com: -0.177D+00 0.451D+00 0.726D+00
 Coeff-En:   0.000D+00 0.000D+00 0.100D+01
 Coeff:     -0.164D+00 0.418D+00 0.746D+00
 Gap=     0.139 Goal=   None    Shift=    0.000
 Gap=     0.126 Goal=   None    Shift=    0.000
 RMSDP=6.76D-04 MaxDP=4.09D-02 DE=-2.35D-02 OVMax= 4.64D-02

 Cycle   4  Pass 1  IDiag  1:
 RMSU=  6.37D-04    CP:  1.07D+00  1.43D+00  8.79D-01
 E= -191.296518040749     Delta-E=       -0.003198011920 Rises=F Damp=F
 DIIS: error= 5.69D-03 at cycle   4 NSaved=   4.
 NSaved= 4 IEnMin= 4 EnMin= -191.296518040749     IErMin= 4 ErrMin= 5.69D-03
 ErrMax= 5.69D-03  0.00D+00 EMaxC= 1.00D-01 BMatC= 7.93D-03 BMatP= 1.91D-02
 IDIUse=3 WtCom= 9.43D-01 WtEn= 5.69D-02
 Coeff-Com: -0.122D+00 0.266D+00 0.527D+00 0.328D+00
 Coeff-En:   0.000D+00 0.000D+00 0.291D+00 0.709D+00
 Coeff:     -0.115D+00 0.251D+00 0.514D+00 0.350D+00
 Gap=     0.138 Goal=   None    Shift=    0.000
 Gap=     0.128 Goal=   None    Shift=    0.000
 RMSDP=3.73D-04 MaxDP=2.26D-02 DE=-3.20D-03 OVMax= 3.07D-02

 Cycle   5  Pass 1  IDiag  1:
 RMSU=  2.32D-04    CP:  1.06D+00  1.45D+00  8.86D-01  5.58D-01
 E= -191.298697540626     Delta-E=       -0.002179499877 Rises=F Damp=F
 DIIS: error= 2.01D-03 at cycle   5 NSaved=   5.
 NSaved= 5 IEnMin= 5 EnMin= -191.298697540626     IErMin= 5 ErrMin= 2.01D-03
 ErrMax= 2.01D-03  0.00D+00 EMaxC= 1.00D-01 BMatC= 7.07D-04 BMatP= 7.93D-03
 IDIUse=3 WtCom= 9.80D-01 WtEn= 2.01D-02
 Coeff-Com: -0.475D-01 0.852D-01 0.215D+00 0.215D+00 0.532D+00
 Coeff-En:   0.000D+00 0.000D+00 0.000D+00 0.474D-01 0.953D+00
 Coeff:     -0.465D-01 0.835D-01 0.211D+00 0.212D+00 0.540D+00
 Gap=     0.138 Goal=   None    Shift=    0.000
 Gap=     0.131 Goal=   None    Shift=    0.000
 RMSDP=1.43D-04 MaxDP=6.63D-03 DE=-2.18D-03 OVMax= 2.20D-02

 Cycle   6  Pass 1  IDiag  1:
 RMSU=  1.25D-04    CP:  1.07D+00  1.45D+00  9.01D-01  6.06D-01  8.34D-01
 E= -191.298741393396     Delta-E=       -0.000043852770 Rises=F Damp=F
 DIIS: error= 1.99D-03 at cycle   6 NSaved=   6.
 NSaved= 6 IEnMin= 6 EnMin= -191.298741393396     IErMin= 6 ErrMin= 1.99D-03
 ErrMax= 1.99D-03  0.00D+00 EMaxC= 1.00D-01 BMatC= 6.94D-04 BMatP= 7.07D-04
 IDIUse=3 WtCom= 9.80D-01 WtEn= 1.99D-02
 Coeff-Com:  0.184D-02-0.240D-01-0.166D-01 0.427D-01 0.533D+00 0.463D+00
 Coeff-En:   0.000D+00 0.000D+00 0.000D+00 0.000D+00 0.464D+00 0.536D+00
 Coeff:      0.180D-02-0.235D-01-0.162D-01 0.418D-01 0.531D+00 0.465D+00
 Gap=     0.138 Goal=   None    Shift=    0.000
 Gap=     0.130 Goal=   None    Shift=    0.000
 RMSDP=1.03D-04 MaxDP=4.24D-03 DE=-4.39D-05 OVMax= 1.05D-02

 Cycle   7  Pass 1  IDiag  1:
 RMSU=  8.41D-05    CP:  1.07D+00  1.46D+00  8.91D-01  5.85D-01  1.00D+00
                    CP:  7.02D-01
 E= -191.298981080715     Delta-E=       -0.000239687319 Rises=F Damp=F
 DIIS: error= 3.07D-04 at cycle   7 NSaved=   7.
 NSaved= 7 IEnMin= 7 EnMin= -191.298981080715     IErMin= 7 ErrMin= 3.07D-04
 ErrMax= 3.07D-04  0.00D+00 EMaxC= 1.00D-01 BMatC= 2.98D-05 BMatP= 6.94D-04
 IDIUse=3 WtCom= 9.97D-01 WtEn= 3.07D-03
 Coeff-Com:  0.121D-01-0.299D-01-0.518D-01-0.253D-01 0.147D+00 0.207D+00
 Coeff-Com:  0.741D+00
 Coeff-En:   0.000D+00 0.000D+00 0.000D+00 0.000D+00 0.000D+00 0.000D+00
 Coeff-En:   0.100D+01
 Coeff:      0.120D-01-0.298D-01-0.517D-01-0.252D-01 0.147D+00 0.207D+00
 Coeff:      0.741D+00
 Gap=     0.138 Goal=   None    Shift=    0.000
 Gap=     0.131 Goal=   None    Shift=    0.000
 RMSDP=4.35D-05 MaxDP=1.93D-03 DE=-2.40D-04 OVMax= 4.43D-03

 Cycle   8  Pass 1  IDiag  1:
 RMSU=  2.56D-05    CP:  1.07D+00  1.46D+00  8.95D-01  5.82D-01  1.09D+00
                    CP:  9.24D-01  1.06D+00
 E= -191.298994340058     Delta-E=       -0.000013259343 Rises=F Damp=F
 DIIS: error= 1.97D-04 at cycle   8 NSaved=   8.
 NSaved= 8 IEnMin= 8 EnMin= -191.298994340058     IErMin= 8 ErrMin= 1.97D-04
 ErrMax= 1.97D-04  0.00D+00 EMaxC= 1.00D-01 BMatC= 1.48D-05 BMatP= 2.98D-05
 IDIUse=3 WtCom= 9.98D-01 WtEn= 1.97D-03
 Coeff-Com:  0.674D-02-0.105D-01-0.255D-01-0.265D-01-0.849D-01-0.496D-01
 Coeff-Com:  0.484D+00 0.707D+00
 Coeff-En:   0.000D+00 0.000D+00 0.000D+00 0.000D+00 0.000D+00 0.000D+00
 Coeff-En:   0.000D+00 0.100D+01
 Coeff:      0.673D-02-0.105D-01-0.254D-01-0.264D-01-0.848D-01-0.495D-01
 Coeff:      0.483D+00 0.707D+00
 Gap=     0.138 Goal=   None    Shift=    0.000
 Gap=     0.131 Goal=   None    Shift=    0.000
 RMSDP=2.59D-05 MaxDP=1.52D-03 DE=-1.33D-05 OVMax= 1.69D-03

 Cycle   9  Pass 1  IDiag  1:
 RMSU=  1.19D-05    CP:  1.07D+00  1.46D+00  8.95D-01  5.84D-01  1.14D+00
                    CP:  9.55D-01  1.29D+00  8.72D-01
 E= -191.299000868447     Delta-E=       -0.000006528389 Rises=F Damp=F
 DIIS: error= 5.32D-05 at cycle   9 NSaved=   9.
 NSaved= 9 IEnMin= 9 EnMin= -191.299000868447     IErMin= 9 ErrMin= 5.32D-05
 ErrMax= 5.32D-05  0.00D+00 EMaxC= 1.00D-01 BMatC= 4.72D-07 BMatP= 1.48D-05
 IDIUse=1 WtCom= 1.00D+00 WtEn= 0.00D+00
 Coeff-Com: -0.121D-02 0.274D-02 0.559D-02 0.604D-02-0.157D-01-0.284D-01
 Coeff-Com: -0.709D-01 0.557D-01 0.105D+01
 Coeff:     -0.121D-02 0.274D-02 0.559D-02 0.604D-02-0.157D-01-0.284D-01
 Coeff:     -0.709D-01 0.557D-01 0.105D+01
 Gap=     0.138 Goal=   None    Shift=    0.000
 Gap=     0.131 Goal=   None    Shift=    0.000
 RMSDP=7.63D-06 MaxDP=4.04D-04 DE=-6.53D-06 OVMax= 1.27D-03

 Cycle  10  Pass 1  IDiag  1:
 RMSU=  5.59D-06    CP:  1.07D+00  1.46D+00  8.96D-01  5.86D-01  1.14D+00
                    CP:  9.66D-01  1.32D+00  9.70D-01  1.26D+00
 E= -191.299001450066     Delta-E=       -0.000000581619 Rises=F Damp=F
 DIIS: error= 2.95D-05 at cycle  10 NSaved=  10.
 NSaved=10 IEnMin=10 EnMin= -191.299001450066     IErMin=10 ErrMin= 2.95D-05
 ErrMax= 2.95D-05  0.00D+00 EMaxC= 1.00D-01 BMatC= 1.63D-07 BMatP= 4.72D-07
 IDIUse=1 WtCom= 1.00D+00 WtEn= 0.00D+00
 Coeff-Com: -0.785D-03 0.138D-02 0.254D-02 0.188D-02 0.143D-01-0.163D-02
 Coeff-Com: -0.537D-01-0.771D-01-0.361D-01 0.115D+01
 Coeff:     -0.785D-03 0.138D-02 0.254D-02 0.188D-02 0.143D-01-0.163D-02
 Coeff:     -0.537D-01-0.771D-01-0.361D-01 0.115D+01
 Gap=     0.138 Goal=   None    Shift=    0.000
 Gap=     0.131 Goal=   None    Shift=    0.000
 RMSDP=3.96D-06 MaxDP=1.85D-04 DE=-5.82D-07 OVMax= 7.52D-04

 Cycle  11  Pass 1  IDiag  1:
 RMSU=  2.94D-06    CP:  1.07D+00  1.46D+00  8.95D-01  5.83D-01  1.14D+00
                    CP:  9.66D-01  1.33D+00  9.88D-01  1.37D+00  1.05D+00
 E= -191.299001661593     Delta-E=       -0.000000211527 Rises=F Damp=F
 DIIS: error= 1.37D-05 at cycle  11 NSaved=  11.
 NSaved=11 IEnMin=11 EnMin= -191.299001661593     IErMin=11 ErrMin= 1.37D-05
 ErrMax= 1.37D-05  0.00D+00 EMaxC= 1.00D-01 BMatC= 5.10D-08 BMatP= 1.63D-07
 IDIUse=1 WtCom= 1.00D+00 WtEn= 0.00D+00
 Coeff-Com: -0.258D-04-0.125D-03-0.857D-03-0.381D-03 0.533D-02 0.754D-03
 Coeff-Com:  0.161D-01-0.181D-01-0.233D+00-0.335D-01 0.126D+01
 Coeff:     -0.258D-04-0.125D-03-0.857D-03-0.381D-03 0.533D-02 0.754D-03
 Coeff:      0.161D-01-0.181D-01-0.233D+00-0.335D-01 0.126D+01
 Gap=     0.138 Goal=   None    Shift=    0.000
 Gap=     0.131 Goal=   None    Shift=    0.000
 RMSDP=2.53D-06 MaxDP=1.30D-04 DE=-2.12D-07 OVMax= 5.58D-04

 Cycle  12  Pass 1  IDiag  1:
 RMSU=  9.36D-07    CP:  1.07D+00  1.46D+00  8.95D-01  5.84D-01  1.14D+00
                    CP:  9.61D-01  1.33D+00  9.98D-01  1.41D+00  1.24D+00
                    CP:  1.61D+00
 E= -191.299001735820     Delta-E=       -0.000000074227 Rises=F Damp=F
 DIIS: error= 4.69D-06 at cycle  12 NSaved=  12.
 NSaved=12 IEnMin=12 EnMin= -191.299001735820     IErMin=12 ErrMin= 4.69D-06
 ErrMax= 4.69D-06  0.00D+00 EMaxC= 1.00D-01 BMatC= 6.72D-09 BMatP= 5.10D-08
 IDIUse=1 WtCom= 1.00D+00 WtEn= 0.00D+00
 Coeff-Com:  0.181D-03-0.295D-03-0.108D-02-0.753D-03-0.284D-02-0.326D-03
 Coeff-Com:  0.179D-01 0.184D-01-0.311D-01-0.284D+00 0.140D+00 0.114D+01
 Coeff:      0.181D-03-0.295D-03-0.108D-02-0.753D-03-0.284D-02-0.326D-03
 Coeff:      0.179D-01 0.184D-01-0.311D-01-0.284D+00 0.140D+00 0.114D+01
 Gap=     0.138 Goal=   None    Shift=    0.000
 Gap=     0.131 Goal=   None    Shift=    0.000
 RMSDP=1.42D-06 MaxDP=6.61D-05 DE=-7.42D-08 OVMax= 3.01D-04

 Cycle  13  Pass 1  IDiag  1:
 RMSU=  3.74D-07    CP:  1.07D+00  1.46D+00  8.95D-01  5.84D-01  1.14D+00
                    CP:  9.59D-01  1.33D+00  9.97D-01  1.43D+00  1.32D+00
                    CP:  1.97D+00  1.11D+00
 E= -191.299001747388     Delta-E=       -0.000000011568 Rises=F Damp=F
 DIIS: error= 1.55D-06 at cycle  13 NSaved=  13.
 NSaved=13 IEnMin=13 EnMin= -191.299001747388     IErMin=13 ErrMin= 1.55D-06
 ErrMax= 1.55D-06  0.00D+00 EMaxC= 1.00D-01 BMatC= 5.08D-10 BMatP= 6.72D-09
 IDIUse=1 WtCom= 1.00D+00 WtEn= 0.00D+00
 Coeff-Com: -0.391D-04 0.803D-04 0.223D-03 0.772D-04 0.627D-04-0.388D-03
 Coeff-Com: -0.399D-02-0.678D-03 0.276D-01 0.413D-01-0.170D+00-0.687D-01
 Coeff-Com:  0.117D+01
 Coeff:     -0.391D-04 0.803D-04 0.223D-03 0.772D-04 0.627D-04-0.388D-03
 Coeff:     -0.399D-02-0.678D-03 0.276D-01 0.413D-01-0.170D+00-0.687D-01
 Coeff:      0.117D+01
 Gap=     0.138 Goal=   None    Shift=    0.000
 Gap=     0.131 Goal=   None    Shift=    0.000
 RMSDP=2.31D-07 MaxDP=9.28D-06 DE=-1.16D-08 OVMax= 5.32D-05

 Cycle  14  Pass 1  IDiag  1:
 RMSU=  1.12D-07    CP:  1.07D+00  1.46D+00  8.95D-01  5.84D-01  1.14D+00
                    CP:  9.59D-01  1.33D+00  9.97D-01  1.43D+00  1.33D+00
                    CP:  2.03D+00  1.21D+00  1.08D+00
 E= -191.299001747920     Delta-E=       -0.000000000532 Rises=F Damp=F
 DIIS: error= 3.85D-07 at cycle  14 NSaved=  14.
 NSaved=14 IEnMin=14 EnMin= -191.299001747920     IErMin=14 ErrMin= 3.85D-07
 ErrMax= 3.85D-07  0.00D+00 EMaxC= 1.00D-01 BMatC= 4.05D-11 BMatP= 5.08D-10
 IDIUse=1 WtCom= 1.00D+00 WtEn= 0.00D+00
 Coeff-Com: -0.136D-04 0.249D-04 0.739D-04 0.364D-04 0.272D-03-0.662D-04
 Coeff-Com: -0.117D-02-0.106D-02 0.209D-02 0.180D-01-0.271D-02-0.896D-01
 Coeff-Com: -0.660D-01 0.114D+01
 Coeff:     -0.136D-04 0.249D-04 0.739D-04 0.364D-04 0.272D-03-0.662D-04
 Coeff:     -0.117D-02-0.106D-02 0.209D-02 0.180D-01-0.271D-02-0.896D-01
 Coeff:     -0.660D-01 0.114D+01
 Gap=     0.138 Goal=   None    Shift=    0.000
 Gap=     0.131 Goal=   None    Shift=    0.000
 RMSDP=5.85D-08 MaxDP=2.64D-06 DE=-5.32D-10 OVMax= 8.79D-06

 Cycle  15  Pass 1  IDiag  1:
 RMSU=  3.13D-08    CP:  1.07D+00  1.46D+00  8.95D-01  5.84D-01  1.14D+00
                    CP:  9.59D-01  1.33D+00  9.97D-01  1.43D+00  1.33D+00
                    CP:  2.03D+00  1.22D+00  1.13D+00  1.16D+00
 E= -191.299001747949     Delta-E=       -0.000000000029 Rises=F Damp=F
 DIIS: error= 9.48D-08 at cycle  15 NSaved=  15.
 NSaved=15 IEnMin=15 EnMin= -191.299001747949     IErMin=15 ErrMin= 9.48D-08
 ErrMax= 9.48D-08  0.00D+00 EMaxC= 1.00D-01 BMatC= 1.41D-12 BMatP= 4.05D-11
 IDIUse=1 WtCom= 1.00D+00 WtEn= 0.00D+00
 Coeff-Com:  0.573D-06-0.141D-05-0.638D-05-0.450D-05 0.142D-04-0.561D-05
 Coeff-Com:  0.891D-04 0.316D-04-0.979D-03-0.111D-02 0.650D-02 0.721D-03
 Coeff-Com: -0.500D-01 0.447D-02 0.104D+01
 Coeff:      0.573D-06-0.141D-05-0.638D-05-0.450D-05 0.142D-04-0.561D-05
 Coeff:      0.891D-04 0.316D-04-0.979D-03-0.111D-02 0.650D-02 0.721D-03
 Coeff:     -0.500D-01 0.447D-02 0.104D+01
 Gap=     0.138 Goal=   None    Shift=    0.000
 Gap=     0.131 Goal=   None    Shift=    0.000
 RMSDP=1.13D-08 MaxDP=5.93D-07 DE=-2.89D-11 OVMax= 1.03D-06

 Cycle  16  Pass 1  IDiag  1:
 RMSU=  4.91D-09    CP:  1.07D+00  1.46D+00  8.95D-01  5.84D-01  1.14D+00
                    CP:  9.59D-01  1.33D+00  9.98D-01  1.43D+00  1.33D+00
                    CP:  2.03D+00  1.22D+00  1.13D+00  1.19D+00  1.18D+00
 E= -191.299001747949     Delta-E=       -0.000000000001 Rises=F Damp=F
 DIIS: error= 3.19D-08 at cycle  16 NSaved=  16.
 NSaved=16 IEnMin=16 EnMin= -191.299001747949     IErMin=16 ErrMin= 3.19D-08
 ErrMax= 3.19D-08  0.00D+00 EMaxC= 1.00D-01 BMatC= 1.70D-13 BMatP= 1.41D-12
 IDIUse=1 WtCom= 1.00D+00 WtEn= 0.00D+00
 Coeff-Com:  0.624D-06-0.104D-05-0.346D-05-0.263D-05-0.147D-04-0.281D-05
 Coeff-Com:  0.464D-04 0.101D-03 0.721D-04-0.811D-03-0.162D-02 0.626D-02
 Coeff-Com:  0.146D-01-0.843D-01-0.170D+00 0.124D+01
 Coeff:      0.624D-06-0.104D-05-0.346D-05-0.263D-05-0.147D-04-0.281D-05
 Coeff:      0.464D-04 0.101D-03 0.721D-04-0.811D-03-0.162D-02 0.626D-02
 Coeff:      0.146D-01-0.843D-01-0.170D+00 0.124D+01
 Gap=     0.138 Goal=   None    Shift=    0.000
 Gap=     0.131 Goal=   None    Shift=    0.000
 RMSDP=3.97D-09 MaxDP=1.77D-07 DE=-7.96D-13 OVMax= 4.44D-07

 SCF Done:  E(UB3LYP) =  -191.299001748     A.U. after   16 cycles
            NFock= 16  Conv=0.40D-08     -V/T= 2.0045
 <Sx>= 0.0000 <Sy>= 0.0000 <Sz>= 1.5000 <S**2>= 3.7763 S= 1.5066
 <L.S>= 0.000000000000E+00
 KE= 1.904382065278D+02 PE=-6.563771932596D+02 EE= 1.609183400362D+02
 Annihilation of the first spin contaminant:
 S**2 before annihilation     3.7763,   after     3.7502
 Leave Link  502 at Thu Jan 31 05:51:20 2019, MaxMem=    33554432 cpu:       524.7
 (Enter /home/proyectos/fulerenos/M3C-v2.0/M3C-deps_CCC/g09-AM64L-G09RevC.01/l801.exe)
 DoSCS=F DFT=T ScalE2(SS,OS)=  1.000000  1.000000
 Range of M.O.s used for correlation:     1   223
 NBasis=   225 NAE=    17 NBE=    14 NFC=     0 NFV=     0
 NROrb=    223 NOA=    17 NOB=    14 NVA=   206 NVB=   209

 **** Warning!!: The largest alpha MO coefficient is  0.29793155D+03


 **** Warning!!: The largest beta MO coefficient is  0.29087044D+03

 Leave Link  801 at Thu Jan 31 05:51:20 2019, MaxMem=    33554432 cpu:         0.1
 (Enter /home/proyectos/fulerenos/M3C-v2.0/M3C-deps_CCC/g09-AM64L-G09RevC.01/l1101.exe)
 Using compressed storage, NAtomX=     8.
 Will process      9 centers per pass.
 Leave Link 1101 at Thu Jan 31 05:51:21 2019, MaxMem=    33554432 cpu:         1.7
 (Enter /home/proyectos/fulerenos/M3C-v2.0/M3C-deps_CCC/g09-AM64L-G09RevC.01/l1102.exe)
 Symmetrizing basis deriv contribution to polar:
 IMax=3 JMax=2 DiffMx= 0.00D+00
 Leave Link 1102 at Thu Jan 31 05:51:21 2019, MaxMem=    33554432 cpu:         0.1
 (Enter /home/proyectos/fulerenos/M3C-v2.0/M3C-deps_CCC/g09-AM64L-G09RevC.01/l1110.exe)
 Forming Gx(P) for the SCF density, NAtomX=     8.
 Integral derivatives from FoFJK, PRISM(SPDF).
 Do as many integral derivatives as possible in FoFJK.
 G2DrvN: MDV=      33554264.
 G2DrvN: will do     9 centers at a time, making    1 passes.
 Calling FoFCou, ICntrl=  3107 FMM=F I1Cent=   0 AccDes= 0.00D+00.
 FoFJK:  IHMeth= 1 ICntrl=    3107 DoSepK=F KAlg= 0 I1Cent=   0 FoldK=F
 IRaf=         0 NMat=   1 IRICut=       1 DoRegI=T DoRafI=F ISym2E= 1.
 FoFCou: FMM=F IPFlag=           0 FMFlag=      100000 FMFlg1=           0
         NFxFlg=           0 DoJE=F BraDBF=F KetDBF=F FulRan=T
         wScrn=  0.000000 ICntrl=    3107 IOpCl=  1 I1Cent=           0 NGrid=           0
         NMat0=    1 NMatS0=      1 NMatT0=    0 NMatD0=    1 NMtDS0=    0 NMtDT0=    0
 Petite list used in FoFCou.
 End of G2Drv F.D. properties file   721 does not exist.
 End of G2Drv F.D. properties file   722 does not exist.
 End of G2Drv F.D. properties file   788 does not exist.
 Leave Link 1110 at Thu Jan 31 05:52:35 2019, MaxMem=    33554432 cpu:       296.2
 (Enter /home/proyectos/fulerenos/M3C-v2.0/M3C-deps_CCC/g09-AM64L-G09RevC.01/l1002.exe)
 Minotr:  UHF open shell wavefunction.
          IDoAtm=11111111
          Direct CPHF calculation.
          Differentiating once with respect to electric field.
                with respect to dipole field.
          Differentiating once with respect to nuclear coordinates.
          Using symmetry in CPHF.
          Requested convergence is 1.0D-08 RMS, and 1.0D-07 maximum.
          Secondary convergence is 1.0D-12 RMS, and 1.0D-12 maximum.
          NewPWx=T KeepS1=F KeepF1=F KeepIn=T MapXYZ=F SortEE=F KeepMc=T.
          MDV=      33553902 using IRadAn=       2.
 Generate precomputed XC quadrature information.
          Solving linear equations simultaneously, MaxMat=       0.
 FoFJK:  IHMeth= 1 ICntrl=       0 DoSepK=F KAlg= 0 I1Cent=   0 FoldK=F
 IRaf= 930000000 NMat=  24 IRICut=      60 DoRegI=T DoRafI=T ISym2E= 2.
 FoFCou: FMM=F IPFlag=           0 FMFlag=      100000 FMFlg1=           0
         NFxFlg=           0 DoJE=F BraDBF=F KetDBF=F FulRan=T
         wScrn=  0.000000 ICntrl=       0 IOpCl=  1 I1Cent=           0 NGrid=           0
         NMat0=   24 NMatS0=     24 NMatT0=    0 NMatD0=   24 NMtDS0=    0 NMtDT0=    0
 Integrals replicated using symmetry in FoFCou.
          There are    24 degrees of freedom in the 1st order CPHF.  IDoFFX=4 NUNeed=    24.
     24 vectors produced by pass  0 Test12= 2.68D-14 4.17D-09 XBig12= 8.93D+02 1.67D+01.
 AX will form    24 AO Fock derivatives at one time.
     24 vectors produced by pass  1 Test12= 2.68D-14 4.17D-09 XBig12= 3.62D+02 5.64D+00.
     24 vectors produced by pass  2 Test12= 2.68D-14 4.17D-09 XBig12= 2.67D+01 1.70D+00.
     24 vectors produced by pass  3 Test12= 2.68D-14 4.17D-09 XBig12= 4.56D-01 1.58D-01.
     24 vectors produced by pass  4 Test12= 2.68D-14 4.17D-09 XBig12= 6.01D-03 2.16D-02.
     24 vectors produced by pass  5 Test12= 2.68D-14 4.17D-09 XBig12= 4.73D-05 1.32D-03.
     22 vectors produced by pass  6 Test12= 2.68D-14 4.17D-09 XBig12= 3.09D-07 7.09D-05.
     10 vectors produced by pass  7 Test12= 2.68D-14 4.17D-09 XBig12= 1.75D-09 6.28D-06.
      3 vectors produced by pass  8 Test12= 2.68D-14 4.17D-09 XBig12= 7.19D-12 3.72D-07.
      2 vectors produced by pass  9 Test12= 2.68D-14 4.17D-09 XBig12= 1.28D-12 3.08D-07.
      2 vectors produced by pass 10 Test12= 2.68D-14 4.17D-09 XBig12= 2.16D-14 3.40D-08.
      2 vectors produced by pass 11 Test12= 2.68D-14 4.17D-09 XBig12= 4.51D-15 1.84D-08.
 InvSVY:  IOpt=1 It=  1 EMax= 3.59D-15
 Solved reduced A of dimension   185 with    24 vectors.
 FullF1:  Do perturbations    1 to    24.
 Isotropic polarizability for W=    0.000000       62.59 Bohr**3.
 End of Minotr F.D. properties file   721 does not exist.
 End of Minotr F.D. properties file   722 does not exist.
 End of Minotr F.D. properties file   788 does not exist.
 Leave Link 1002 at Thu Jan 31 05:57:15 2019, MaxMem=    33554432 cpu:      1117.9
 (Enter /home/proyectos/fulerenos/M3C-v2.0/M3C-deps_CCC/g09-AM64L-G09RevC.01/l601.exe)
 Copying SCF densities to generalized density rwf, IOpCl= 1 IROHF=0.

 **********************************************************************

            Population analysis using the SCF density.

 **********************************************************************

 Orbital symmetries:
 Alpha Orbitals:
       Occupied  (A) (A) (A) (A) (A) (A) (A) (A) (A) (A) (A) (B)
                 (B) (B) (B) (B) (B)
       Virtual   (B) (B) (B) (B) (A) (A) (A) (A) (B) (B) (A) (B)
                 (B) (A) (A) (A) (B) (B) (A) (A) (B) (A) (B) (B)
                 (A) (A) (A) (A) (B) (A) (B) (A) (A) (B) (A) (A)
                 (A) (B) (B) (B) (B) (A) (A) (B) (A) (A) (B) (B)
                 (B) (A) (A) (B) (B) (B) (A) (B) (A) (A) (A) (B)
                 (A) (B) (A) (B) (B) (B) (A) (A) (B) (B) (A) (A)
                 (B) (A) (B) (B) (A) (B) (B) (A) (A) (A) (A) (B)
                 (A) (A) (A) (B) (A) (A) (A) (A) (B) (A) (A) (B)
                 (A) (A) (B) (B) (A) (B) (A) (B) (A) (B) (A) (B)
                 (A) (A) (A) (B) (B) (B) (A) (B) (B) (B) (B) (B)
                 (A) (A) (B) (B) (A) (B) (B) (B) (B) (A) (B) (A)
                 (B) (B) (B) (A) (B) (B) (A) (B) (B) (A) (B) (B)
                 (A) (A) (A) (B) (A) (A) (B) (B) (A) (A) (A) (B)
                 (A) (B) (A) (B) (A) (A) (A) (B) (B) (B) (A) (A)
                 (B) (B) (B) (A) (A) (B) (B) (A) (A) (A) (A) (A)
                 (A) (A) (A) (A) (A) (B) (B) (A) (B) (B) (B) (B)
                 (B) (A) (B) (B) (A) (B) (A) (A) (A) (A) (A) (A)
                 (A) (A)
 Beta  Orbitals:
       Occupied  (A) (A) (A) (A) (A) (A) (A) (A) (A) (A) (A) (B)
                 (B) (B)
       Virtual   (B) (B) (B) (B) (B) (A) (B) (A) (A) (B) (B) (A)
                 (B) (A) (B) (A) (B) (A) (B) (A) (B) (A) (A) (B)
                 (A) (B) (B) (A) (A) (A) (A) (B) (B) (A) (A) (B)
                 (A) (A) (A) (A) (B) (B) (B) (A) (B) (A) (A) (B)
                 (A) (B) (B) (B) (A) (A) (B) (B) (A) (B) (B) (A)
                 (A) (A) (B) (A) (A) (B) (B) (B) (B) (A) (A) (B)
                 (B) (A) (A) (B) (A) (B) (B) (A) (B) (B) (A) (A)
                 (B) (A) (A) (A) (A) (B) (A) (A) (A) (A) (A) (B)
                 (A) (A) (B) (A) (A) (B) (B) (A) (B) (A) (B) (A)
                 (B) (A) (B) (A) (A) (A) (B) (B) (B) (A) (B) (B)
                 (B) (B) (B) (A) (A) (B) (A) (B) (B) (B) (B) (B)
                 (A) (B) (A) (B) (B) (A) (B) (B) (B) (A) (B) (B)
                 (A) (B) (B) (A) (A) (A) (B) (A) (A) (B) (B) (A)
                 (A) (A) (B) (B) (A) (A) (B) (A) (A) (A) (B) (B)
                 (B) (A) (A) (B) (B) (B) (A) (A) (B) (B) (A) (A)
                 (A) (A) (A) (A) (A) (A) (A) (A) (B) (B) (B) (A)
                 (B) (B) (B) (B) (A) (B) (B) (A) (B) (A) (A) (A)
                 (A) (A) (A) (A) (A)
 The electronic state is 4-B.
 Alpha  occ. eigenvalues --  -10.76329 -10.74233 -10.72870 -10.70323 -10.68198
 Alpha  occ. eigenvalues --   -1.32530  -1.28223  -1.20664  -1.12257  -0.98897
 Alpha  occ. eigenvalues --   -0.94861  -0.90867  -0.87398  -0.84173  -0.80374
 Alpha  occ. eigenvalues --   -0.74829  -0.67946
 Alpha virt. eigenvalues --   -0.54125  -0.50066  -0.34383  -0.32581  -0.32131
 Alpha virt. eigenvalues --   -0.31019  -0.28594  -0.24965  -0.24684  -0.23954
 Alpha virt. eigenvalues --   -0.22939  -0.21668  -0.19941  -0.19919  -0.18830
 Alpha virt. eigenvalues --   -0.16938  -0.16868  -0.15370  -0.14933  -0.12947
 Alpha virt. eigenvalues --   -0.12035  -0.10851  -0.10340  -0.10005  -0.09341
 Alpha virt. eigenvalues --   -0.09263  -0.06424  -0.05572  -0.04081  -0.03253
 Alpha virt. eigenvalues --   -0.03050  -0.00612  -0.00006   0.00045   0.01874
 Alpha virt. eigenvalues --    0.05712   0.06921   0.07918   0.08328   0.09607
 Alpha virt. eigenvalues --    0.09653   0.10075   0.11509   0.12943   0.13368
 Alpha virt. eigenvalues --    0.13790   0.14342   0.14476   0.17511   0.19502
 Alpha virt. eigenvalues --    0.25286   0.26006   0.26692   0.27069   0.28326
 Alpha virt. eigenvalues --    0.28419   0.29322   0.32760   0.33720   0.35833
 Alpha virt. eigenvalues --    0.35911   0.42998   0.43565   0.47535   0.49756
 Alpha virt. eigenvalues --    0.50425   0.55430   0.56125   0.58689   0.66867
 Alpha virt. eigenvalues --    0.68084   0.69209   0.70031   0.72025   0.72974
 Alpha virt. eigenvalues --    0.74160   0.78831   0.83332   0.84522   0.85321
 Alpha virt. eigenvalues --    0.86039   0.92676   0.92725   0.93845   0.97754
 Alpha virt. eigenvalues --    0.99698   1.01542   1.01655   1.02959   1.03759
 Alpha virt. eigenvalues --    1.09190   1.12958   1.16381   1.16827   1.19946
 Alpha virt. eigenvalues --    1.24553   1.24780   1.29481   1.32241   1.38767
 Alpha virt. eigenvalues --    1.39796   1.40748   1.41721   1.56513   1.62119
 Alpha virt. eigenvalues --    1.69949   1.72364   1.76758   1.99528   2.00737
 Alpha virt. eigenvalues --    2.04826   2.07502   2.07742   2.12231   2.14195
 Alpha virt. eigenvalues --    2.17048   2.19655   2.20033   2.21689   2.23372
 Alpha virt. eigenvalues --    2.26942   2.30214   2.33997   2.34143   2.36039
 Alpha virt. eigenvalues --    2.39003   2.40242   2.42618   2.43787   2.44721
 Alpha virt. eigenvalues --    2.50070   2.50857   2.51606   2.56121   2.60109
 Alpha virt. eigenvalues --    2.60180   2.66366   2.66805   2.68343   2.68649
 Alpha virt. eigenvalues --    2.69611   2.75268   2.79491   2.81682   2.83433
 Alpha virt. eigenvalues --    3.02332   3.08254   3.13385   3.16252   3.17195
 Alpha virt. eigenvalues --    3.29221   3.30658   3.43022   3.61241   3.64340
 Alpha virt. eigenvalues --    3.72487   3.76909   3.76975   3.79740   3.80203
 Alpha virt. eigenvalues --    3.87529   3.93231   3.99105   4.12563   4.25288
 Alpha virt. eigenvalues --    4.51200   4.58991   4.72692   4.98335   5.09241
 Alpha virt. eigenvalues --    5.10202   5.10868   5.62579   6.08788   6.13658
 Alpha virt. eigenvalues --    6.17709   6.37661   6.38288   6.43895   6.45018
 Alpha virt. eigenvalues --    6.53144   6.53668   6.57633   6.61848   6.62205
 Alpha virt. eigenvalues --    6.79863   6.79977   6.80894   6.80925   6.87748
 Alpha virt. eigenvalues --    6.89478   6.95056   6.99633   7.17682   7.21417
 Alpha virt. eigenvalues --    7.23670   7.25457   7.55286   7.68496   8.22682
 Alpha virt. eigenvalues --    8.24435  23.32823  24.83630  25.55556  25.81953
 Alpha virt. eigenvalues --   25.89802
  Beta  occ. eigenvalues --  -10.75228 -10.72653 -10.72420 -10.69713 -10.67220
  Beta  occ. eigenvalues --   -1.29186  -1.23737  -1.16963  -1.09968  -0.97173
  Beta  occ. eigenvalues --   -0.93001  -0.88212  -0.81166  -0.80848
  Beta virt. eigenvalues --   -0.67715  -0.64407  -0.55078  -0.48963  -0.42555
  Beta virt. eigenvalues --   -0.31444  -0.31382  -0.28733  -0.27648  -0.27468
  Beta virt. eigenvalues --   -0.24317  -0.23310  -0.23118  -0.21647  -0.21192
  Beta virt. eigenvalues --   -0.19244  -0.18873  -0.18284  -0.15902  -0.15372
  Beta virt. eigenvalues --   -0.14416  -0.13795  -0.12092  -0.11665  -0.10404
  Beta virt. eigenvalues --   -0.09984  -0.09768  -0.09028  -0.07889  -0.06143
  Beta virt. eigenvalues --   -0.05057  -0.03796  -0.02594  -0.01706  -0.00208
  Beta virt. eigenvalues --    0.00487   0.01483   0.02423   0.06597   0.07873
  Beta virt. eigenvalues --    0.09620   0.09747   0.10110   0.10844   0.11476
  Beta virt. eigenvalues --    0.12160   0.13985   0.14152   0.14697   0.15366
  Beta virt. eigenvalues --    0.15806   0.18148   0.20191   0.26116   0.28238
  Beta virt. eigenvalues --    0.28286   0.28969   0.29133   0.29565   0.29972
  Beta virt. eigenvalues --    0.33745   0.34563   0.36553   0.37185   0.44459
  Beta virt. eigenvalues --    0.44664   0.48442   0.50545   0.51594   0.56670
  Beta virt. eigenvalues --    0.57035   0.59634   0.67576   0.68792   0.70239
  Beta virt. eigenvalues --    0.72305   0.72932   0.74721   0.76433   0.80450
  Beta virt. eigenvalues --    0.83954   0.85452   0.86426   0.88018   0.94223
  Beta virt. eigenvalues --    0.95480   0.95581   0.99074   1.01323   1.02341
  Beta virt. eigenvalues --    1.04766   1.06216   1.07797   1.10393   1.14115
  Beta virt. eigenvalues --    1.18468   1.21084   1.24285   1.25578   1.28836
  Beta virt. eigenvalues --    1.30360   1.34606   1.40780   1.42827   1.44180
  Beta virt. eigenvalues --    1.45010   1.57947   1.64443   1.73302   1.75378
  Beta virt. eigenvalues --    1.78459   2.02000   2.03557   2.07659   2.10531
  Beta virt. eigenvalues --    2.10719   2.15623   2.15703   2.19028   2.24389
  Beta virt. eigenvalues --    2.24713   2.25559   2.26503   2.29298   2.33469
  Beta virt. eigenvalues --    2.36486   2.38584   2.38594   2.43797   2.44393
  Beta virt. eigenvalues --    2.45965   2.45991   2.46862   2.51704   2.52115
  Beta virt. eigenvalues --    2.55261   2.59794   2.61793   2.63136   2.69506
  Beta virt. eigenvalues --    2.70130   2.71447   2.72473   2.72647   2.76497
  Beta virt. eigenvalues --    2.82577   2.83369   2.86354   3.03953   3.11138
  Beta virt. eigenvalues --    3.14688   3.19352   3.19379   3.32116   3.32255
  Beta virt. eigenvalues --    3.44598   3.63311   3.65974   3.73872   3.77659
  Beta virt. eigenvalues --    3.78912   3.80402   3.81722   3.88289   3.95425
  Beta virt. eigenvalues --    4.01133   4.13503   4.27791   4.52443   4.60690
  Beta virt. eigenvalues --    4.74325   5.01444   5.10116   5.12031   5.12483
  Beta virt. eigenvalues --    5.63516   6.11488   6.15330   6.19948   6.42370
  Beta virt. eigenvalues --    6.43065   6.50234   6.51377   6.58248   6.58686
  Beta virt. eigenvalues --    6.62614   6.65119   6.65401   6.83632   6.84325
  Beta virt. eigenvalues --    6.84897   6.85654   6.89533   6.91586   6.96677
  Beta virt. eigenvalues --    7.02919   7.19881   7.22788   7.26164   7.27534
  Beta virt. eigenvalues --    7.56282   7.70787   8.23591   8.25714  23.34006
  Beta virt. eigenvalues --   24.84876  25.57314  25.82488  25.90976
          Condensed to atoms (all electrons):
               1          2          3          4          5          6
     1  C    8.189973   0.424437   0.424437  -1.217339  -0.929928  -0.191674
     2  H    0.424437   0.338840  -0.004111  -0.075190   0.001864   0.001962
     3  H    0.424437  -0.004111   0.338840  -0.075190   0.001864   0.001962
     4  C   -1.217339  -0.075190  -0.075190   7.005599  -0.102920  -0.017728
     5  C   -0.929928   0.001864   0.001864  -0.102920   7.529941  -0.079309
     6  C   -0.191674   0.001962   0.001962  -0.017728  -0.079309   7.386461
     7  C   -0.359942   0.001171   0.001171  -0.400640  -0.093008  -1.407548
     8  H   -0.000266  -0.000003  -0.000003   0.004810   0.008673   0.023576
               7          8
     1  C   -0.359942  -0.000266
     2  H    0.001171  -0.000003
     3  H    0.001171  -0.000003
     4  C   -0.400640   0.004810
     5  C   -0.093008   0.008673
     6  C   -1.407548   0.023576
     7  C    7.540076   0.268709
     8  H    0.268709   0.250600
          Atomic-Atomic Spin Densities.
               1          2          3          4          5          6
     1  C    0.574737   0.030716   0.030716  -0.061763  -0.007033  -0.019569
     2  H    0.030716   0.003058   0.001638  -0.013593  -0.003953  -0.001456
     3  H    0.030716   0.001638   0.003058  -0.013593  -0.003953  -0.001456
     4  C   -0.061763  -0.013593  -0.013593   0.463687   0.109128  -0.127783
     5  C   -0.007033  -0.003953  -0.003953   0.109128   0.720014   0.088583
     6  C   -0.019569  -0.001456  -0.001456  -0.127783   0.088583   0.344164
     7  C    0.006051  -0.000447  -0.000447   0.021840  -0.052501   0.133203
     8  H   -0.000119  -0.000000  -0.000000  -0.000589  -0.001270  -0.003031
               7          8
     1  C    0.006051  -0.000119
     2  H   -0.000447  -0.000000
     3  H   -0.000447  -0.000000
     4  C    0.021840  -0.000589
     5  C   -0.052501  -0.001270
     6  C    0.133203  -0.003031
     7  C    0.699782  -0.001312
     8  H   -0.001312  -0.024506
 Mulliken charges and spin densities:
               1          2
     1  C   -0.339697   0.553735
     2  H    0.311031   0.015962
     3  H    0.311031   0.015962
     4  C    0.878599   0.377333
     5  C   -0.337177   0.849015
     6  C    0.282298   0.412655
     7  C    0.450012   0.806167
     8  H    0.443905  -0.030828
 Sum of Mulliken charges =   2.00000   3.00000
 Mulliken charges and spin densities with hydrogens summed into heavy atoms:
               1          2
     1  C    0.282364   0.585659
     4  C    0.878599   0.377333
     5  C   -0.337177   0.849015
     6  C    0.282298   0.412655
     7  C    0.893917   0.775339
 APT charges:
               1
     1  C   -0.199393
     2  H    0.324577
     3  H    0.324577
     4  C    1.035338
     5  C   -0.654639
     6  C    0.364958
     7  C    0.372800
     8  H    0.431782
 Sum of APT charges =   2.00000
 APT charges with hydrogens summed into heavy atoms:
               1
     1  C    0.449760
     4  C    1.035338
     5  C   -0.654639
     6  C    0.364958
     7  C    0.804583
 Electronic spatial extent (au):  <R**2>=            493.6840
 Charge=              2.0000 electrons
 Dipole moment (field-independent basis, Debye):
    X=             -0.0000    Y=             -0.0000    Z=              0.6491  Tot=              0.6491
 Quadrupole moment (field-independent basis, Debye-Ang):
   XX=            -21.9439   YY=            -24.5651   ZZ=             40.1662
   XY=              0.0009   XZ=              0.0000   YZ=              0.0000
 Traceless Quadrupole moment (field-independent basis, Debye-Ang):
   XX=            -19.8296   YY=            -22.4508   ZZ=             42.2804
   XY=              0.0009   XZ=              0.0000   YZ=              0.0000
 Octapole moment (field-independent basis, Debye-Ang**2):
  XXX=             -0.0000  YYY=              0.0000  ZZZ=             30.6715  XYY=             -0.0000
  XXY=             -0.0000  XXZ=             -7.9339  XZZ=             -0.0000  YZZ=             -0.0000
  YYZ=             -0.0923  XYZ=             -0.0028
 Hexadecapole moment (field-independent basis, Debye-Ang**3):
 XXXX=            -24.8405 YYYY=            -22.9021 ZZZZ=             84.8661 XXXY=              0.0003
 XXXZ=              0.0000 YYYX=             -0.0010 YYYZ=             -0.0000 ZZZX=              0.0000
 ZZZY=              0.0000 XXYY=             -8.5944 XXZZ=            -75.0506 YYZZ=           -101.4305
 XXYZ=              0.0000 YYXZ=             -0.0000 ZZXY=              0.0094
 N-N= 1.137216449477D+02 E-N=-6.563771932445D+02  KE= 1.904382065278D+02
 Symmetry A    KE= 1.795515326304D+02
 Symmetry B    KE= 1.088667389733D+01
  Exact polarizability:  26.888   0.001  24.636   0.000   0.000 136.232
 Approx polarizability:  37.314   0.001  34.103   0.000   0.000 315.319
                          Isotropic Fermi Contact Couplings
        Atom                 a.u.       MegaHertz       Gauss      10(-4) cm-1
     1  C(13)              0.01031       3.86283       1.37835       1.28850
     2  H(1)               0.01072      15.97912       5.70175       5.33006
     3  H(1)               0.01072      15.97912       5.70175       5.33006
     4  C(13)             -0.01429      -5.35365      -1.91032      -1.78579
     5  C(13)             -0.02675     -10.02544      -3.57733      -3.34413
     6  C(13)             -0.06124     -22.95021      -8.18920      -7.65536
     7  C(13)              0.06194      23.21079       8.28219       7.74229
     8  H(1)              -0.02077     -30.94079     -11.04044     -10.32074
 --------------------------------------------------------
       Center         ----  Spin Dipole Couplings  ----
                      3XX-RR        3YY-RR        3ZZ-RR
 --------------------------------------------------------
     1   Atom       -0.379672      0.796969     -0.417297
     2   Atom        0.019223     -0.017762     -0.001461
     3   Atom        0.019223     -0.017762     -0.001461
     4   Atom        0.268217      0.178832     -0.447049
     5   Atom       -0.058728      0.292162     -0.233434
     6   Atom       -0.131139      0.194348     -0.063209
     7   Atom        0.107994      0.631264     -0.739258
     8   Atom       -0.058840     -0.042038      0.100879
 --------------------------------------------------------
                        XY            XZ            YZ
 --------------------------------------------------------
     1   Atom       -0.000421      0.000000     -0.000000
     2   Atom        0.000013      0.061009      0.000022
     3   Atom        0.000013     -0.061009     -0.000022
     4   Atom        0.000032     -0.000000     -0.000000
     5   Atom       -0.000126     -0.000000      0.000000
     6   Atom       -0.000117     -0.000000      0.000000
     7   Atom       -0.000187      0.000000      0.000000
     8   Atom       -0.000006     -0.000000      0.000000
 --------------------------------------------------------


 ---------------------------------------------------------------------------------
              Anisotropic Spin Dipole Couplings in Principal Axis System
 ---------------------------------------------------------------------------------

       Atom             a.u.   MegaHertz   Gauss  10(-4) cm-1        Axes

              Baa    -0.4173   -55.997   -19.981   -18.679 -0.0000 -0.0000  1.0000
     1 C(13)  Bbb    -0.3797   -50.948   -18.180   -16.995  1.0000  0.0004  0.0000
              Bcc     0.7970   106.946    38.161    35.673 -0.0004  1.0000 -0.0000
 
              Baa    -0.0530   -28.277   -10.090    -9.432 -0.6453 -0.0002  0.7639
     2 H(1)   Bbb    -0.0178    -9.477    -3.382    -3.161 -0.0004  1.0000  0.0000
              Bcc     0.0708    37.754    13.472    12.593  0.7639  0.0003  0.6453
 
              Baa    -0.0530   -28.277   -10.090    -9.432  0.6453  0.0002  0.7639
     3 H(1)   Bbb    -0.0178    -9.477    -3.382    -3.161 -0.0004  1.0000 -0.0000
              Bcc     0.0708    37.754    13.472    12.593  0.7639  0.0003 -0.6453
 
              Baa    -0.4470   -59.990   -21.406   -20.010  0.0000  0.0000  1.0000
     4 C(13)  Bbb     0.1788    23.998     8.563     8.005 -0.0004  1.0000  0.0000
              Bcc     0.2682    35.992    12.843    12.006  1.0000  0.0004 -0.0000
 
              Baa    -0.2334   -31.325   -11.177   -10.449  0.0000  0.0000  1.0000
     5 C(13)  Bbb    -0.0587    -7.881    -2.812    -2.629  1.0000  0.0004  0.0000
              Bcc     0.2922    39.205    13.989    13.077 -0.0004  1.0000 -0.0000
 
              Baa    -0.1311   -17.598    -6.279    -5.870  1.0000  0.0004  0.0000
     6 C(13)  Bbb    -0.0632    -8.482    -3.027    -2.829  0.0000  0.0000  1.0000
              Bcc     0.1943    26.080     9.306     8.699 -0.0004  1.0000 -0.0000
 
              Baa    -0.7393   -99.201   -35.398   -33.090  0.0000  0.0000  1.0000
     7 C(13)  Bbb     0.1080    14.492     5.171     4.834  1.0000  0.0004  0.0000
              Bcc     0.6313    84.710    30.227    28.256 -0.0004  1.0000 -0.0000
 
              Baa    -0.0588   -31.394   -11.202   -10.472  1.0000  0.0004  0.0000
     8 H(1)   Bbb    -0.0420   -22.430    -8.003    -7.482 -0.0004  1.0000 -0.0000
              Bcc     0.1009    53.824    19.206    17.954  0.0000  0.0000  1.0000
 

 ---------------------------------------------------------------------------------

 No NMR shielding tensors so no spin-rotation constants.
 Leave Link  601 at Thu Jan 31 05:57:16 2019, MaxMem=    33554432 cpu:         2.4
 (Enter /home/proyectos/fulerenos/M3C-v2.0/M3C-deps_CCC/g09-AM64L-G09RevC.01/l701.exe)
 Compute integral second derivatives.
 ... and contract with generalized density number  0.
 Leave Link  701 at Thu Jan 31 05:57:17 2019, MaxMem=    33554432 cpu:         2.1
 (Enter /home/proyectos/fulerenos/M3C-v2.0/M3C-deps_CCC/g09-AM64L-G09RevC.01/l702.exe)
 L702 exits ... SP integral derivatives will be done elsewhere.
 Leave Link  702 at Thu Jan 31 05:57:17 2019, MaxMem=    33554432 cpu:         0.1
 (Enter /home/proyectos/fulerenos/M3C-v2.0/M3C-deps_CCC/g09-AM64L-G09RevC.01/l703.exe)
 Compute integral second derivatives, UseDBF=F ICtDFT=           0.
 Integral derivatives from FoFJK, PRISM(SPDF).
 Calling FoFJK, ICntrl=    100127 FMM=F ISym2X=1 I1Cent= 0 IOpClX= 1 NMat=1 NMatS=1 NMatT=0.
 FoFJK:  IHMeth= 1 ICntrl=  100127 DoSepK=F KAlg= 0 I1Cent=   0 FoldK=F
 IRaf=         0 NMat=   1 IRICut=       1 DoRegI=T DoRafI=F ISym2E= 1.
 FoFCou: FMM=F IPFlag=           0 FMFlag=      100000 FMFlg1=         800
         NFxFlg=           0 DoJE=F BraDBF=F KetDBF=F FulRan=T
         wScrn=  0.000000 ICntrl=  100127 IOpCl=  1 I1Cent=           0 NGrid=           0
         NMat0=    1 NMatS0=      1 NMatT0=    0 NMatD0=    1 NMtDS0=    0 NMtDT0=    0
 Petite list used in FoFCou.
 Leave Link  703 at Thu Jan 31 05:59:02 2019, MaxMem=    33554432 cpu:       419.5
 (Enter /home/proyectos/fulerenos/M3C-v2.0/M3C-deps_CCC/g09-AM64L-G09RevC.01/l716.exe)
 Dipole        =-1.27151075D-16-5.55681671D-17 2.55363892D-01
 Polarizability= 2.68881869D+01 8.06771732D-04 2.46363619D+01
                 1.91664364D-07 1.07486783D-07 1.36231951D+02
 Full mass-weighted force constant matrix:
 Low frequencies ---  -26.0140   -3.2736   -0.0014   -0.0006    0.0006    1.0588
 Low frequencies ---  122.4306  141.2784  341.3000
 Diagonal vibrational polarizability:
       25.4182262      38.0235529      12.4077794
 Harmonic frequencies (cm**-1), IR intensities (KM/Mole), Raman scattering
 activities (A**4/AMU), depolarization ratios for plane and unpolarized
 incident light, reduced masses (AMU), force constants (mDyne/A),
 and normal coordinates:
                      1                      2                      3
                      B                      B                      B
 Frequencies --    122.4304               141.2784               341.3000
 Red. masses --      4.7580                 3.5774                 3.1770
 Frc consts  --      0.0420                 0.0421                 0.2180
 IR Inten    --     17.6563                17.3966                 0.4167
  Atom  AN      X      Y      Z        X      Y      Z        X      Y      Z
     1   6     0.00  -0.26  -0.00    -0.21  -0.00   0.00    -0.06  -0.00  -0.00
     2   1     0.00  -0.42  -0.00    -0.38  -0.00   0.27    -0.33  -0.00   0.44
     3   1     0.00  -0.42   0.00    -0.38  -0.00  -0.27    -0.33  -0.00  -0.44
     4   6    -0.00   0.14   0.00     0.14   0.00  -0.00     0.32   0.00   0.00
     5   6    -0.00   0.40   0.00     0.30   0.00  -0.00    -0.05  -0.00   0.00
     6   6    -0.00   0.12   0.00     0.14   0.00  -0.00    -0.28  -0.00   0.00
     7   6     0.00  -0.28  -0.00    -0.25  -0.00   0.00     0.09   0.00  -0.00
     8   1     0.00  -0.56  -0.00    -0.58  -0.00   0.00     0.43   0.00  -0.00
                      4                      5                      6
                      B                      B                      B
 Frequencies --    392.3440               434.0006               497.3982
 Red. masses --      2.8294                 1.5951                 7.1360
 Frc consts  --      0.2566                 0.1770                 1.0402
 IR Inten    --      4.5880                23.2271                 4.2998
  Atom  AN      X      Y      Z        X      Y      Z        X      Y      Z
     1   6     0.00  -0.08  -0.00    -0.00   0.04   0.00     0.00  -0.06  -0.00
     2   1     0.00  -0.26   0.00    -0.00   0.14   0.00     0.00  -0.31  -0.00
     3   1     0.00  -0.26  -0.00    -0.00   0.14  -0.00     0.00  -0.31   0.00
     4   6    -0.00   0.28   0.00     0.00  -0.14  -0.00    -0.00   0.31   0.00
     5   6    -0.00   0.01   0.00    -0.00   0.10  -0.00     0.00  -0.44   0.00
     6   6     0.00  -0.28   0.00    -0.00   0.05  -0.00    -0.00   0.45   0.00
     7   6    -0.00   0.04  -0.00     0.00  -0.14   0.00     0.00  -0.25  -0.00
     8   1    -0.00   0.84  -0.00    -0.00   0.95   0.00    -0.00   0.51  -0.00
                      7                      8                      9
                      B                      B                      A
 Frequencies --    535.1064               711.6508               729.2768
 Red. masses --      4.9810                 1.3761                 5.6767
 Frc consts  --      0.8403                 0.4106                 1.7788
 IR Inten    --      3.4385                16.3268                 0.4025
  Atom  AN      X      Y      Z        X      Y      Z        X      Y      Z
     1   6    -0.03  -0.00  -0.00     0.00   0.00   0.00    -0.00  -0.00   0.45
     2   1     0.19   0.00  -0.35    -0.01  -0.00   0.01    -0.01  -0.00   0.46
     3   1     0.19   0.00   0.35    -0.01  -0.00  -0.01     0.01   0.00   0.46
     4   6    -0.19  -0.00   0.00     0.00   0.00   0.00     0.00   0.00   0.17
     5   6     0.45   0.00   0.00    -0.02  -0.00  -0.00     0.00  -0.00  -0.06
     6   6    -0.35  -0.00   0.00     0.09   0.00  -0.00    -0.00   0.00  -0.25
     7   6     0.04   0.00  -0.00    -0.16  -0.00  -0.00     0.00  -0.00  -0.35
     8   1     0.56   0.00  -0.00     0.98   0.00  -0.00    -0.00   0.00  -0.38
                     10                     11                     12
                      B                      B                      A
 Frequencies --    825.0171               899.6820              1216.5161
 Red. masses --      1.3697                 1.5883                 6.5084
 Frc consts  --      0.5493                 0.7575                 5.6749
 IR Inten    --     43.8972                 4.7735                96.9442
  Atom  AN      X      Y      Z        X      Y      Z        X      Y      Z
     1   6     0.00  -0.17  -0.00     0.16   0.00  -0.00    -0.00   0.00  -0.30
     2   1    -0.00   0.70   0.00    -0.24  -0.00   0.65     0.03   0.00  -0.37
     3   1    -0.00   0.70  -0.00    -0.24  -0.00  -0.65    -0.03  -0.00  -0.37
     4   6    -0.00   0.06   0.00    -0.16  -0.00   0.00     0.00  -0.00   0.31
     5   6     0.00  -0.01   0.00     0.04   0.00   0.00     0.00   0.00   0.40
     6   6    -0.00   0.00  -0.00    -0.01  -0.00  -0.00     0.00  -0.00   0.08
     7   6     0.00  -0.00  -0.00     0.00   0.00  -0.00    -0.00   0.00  -0.39
     8   1     0.00  -0.00  -0.00    -0.00  -0.00  -0.00    -0.00  -0.00  -0.48
                     13                     14                     15
                      A                      A                      A
 Frequencies --   1320.1284              1736.4892              2165.7862
 Red. masses --      1.1268                 8.5546                11.3152
 Frc consts  --      1.1570                15.1983                31.2711
 IR Inten    --     77.9714               284.8658               598.4036
  Atom  AN      X      Y      Z        X      Y      Z        X      Y      Z
     1   6    -0.00   0.00  -0.10     0.00  -0.00   0.19    -0.00  -0.00   0.11
     2   1    -0.39  -0.00   0.58     0.02   0.00   0.14     0.03   0.00   0.06
     3   1     0.39   0.00   0.58    -0.02  -0.00   0.14    -0.03  -0.00   0.06
     4   6     0.00  -0.00  -0.00    -0.00   0.00  -0.48     0.00   0.00  -0.48
     5   6     0.00   0.00   0.01    -0.00  -0.00   0.07     0.00  -0.00   0.69
     6   6     0.00  -0.00   0.00    -0.00   0.00   0.56     0.00   0.00  -0.46
     7   6    -0.00   0.00  -0.01     0.00  -0.00  -0.32    -0.00   0.00   0.12
     8   1    -0.00  -0.00  -0.01     0.00   0.00  -0.52    -0.00  -0.00   0.23
                     16                     17                     18
                      A                      B                      A
 Frequencies --   2966.4347              3064.6392              3186.3997
 Red. masses --      1.0465                 1.1164                 1.1257
 Frc consts  --      5.4256                 6.1777                 6.7342
 IR Inten    --    643.1132               180.4148               557.7266
  Atom  AN      X      Y      Z        X      Y      Z        X      Y      Z
     1   6     0.00   0.00  -0.06    -0.10  -0.00  -0.00    -0.00  -0.00   0.00
     2   1     0.61   0.00   0.35     0.60   0.00   0.37    -0.01  -0.00  -0.01
     3   1    -0.61  -0.00   0.35     0.60   0.00  -0.37     0.01   0.00  -0.01
     4   6     0.00  -0.00  -0.00    -0.00  -0.00   0.00     0.00   0.00  -0.00
     5   6     0.00   0.00   0.00    -0.00  -0.00   0.00    -0.00  -0.00   0.00
     6   6     0.00  -0.00   0.00    -0.00  -0.00  -0.00     0.00   0.00   0.02
     7   6    -0.00  -0.00  -0.00     0.00   0.00   0.00    -0.00   0.00  -0.10
     8   1    -0.00   0.00   0.02     0.00   0.00  -0.00     0.00  -0.00   0.99

 -------------------
 - Thermochemistry -
 -------------------
 Temperature   298.150 Kelvin.  Pressure   1.00000 Atm.
 Atom     1 has atomic number  6 and mass  12.00000
 Atom     2 has atomic number  1 and mass   1.00783
 Atom     3 has atomic number  1 and mass   1.00783
 Atom     4 has atomic number  6 and mass  12.00000
 Atom     5 has atomic number  6 and mass  12.00000
 Atom     6 has atomic number  6 and mass  12.00000
 Atom     7 has atomic number  6 and mass  12.00000
 Atom     8 has atomic number  1 and mass   1.00783
 Molecular mass:    63.02348 amu.
 Principal axes and moments of inertia in atomic units:
                           1         2         3
     Eigenvalues --     6.44170 846.22727 852.66896
           X            0.00000   1.00000  -0.00036
           Y            0.00000   0.00036   1.00000
           Z            1.00000   0.00000  -0.00000
 This molecule is an asymmetric top.
 Rotational symmetry number  2.
 Rotational temperatures (Kelvin)     13.44581     0.10235     0.10158
 Rotational constants (GHZ):         280.16554     2.13269     2.11658
 Zero-point vibrational energy     127317.8 (Joules/Mol)
                                   30.42969 (Kcal/Mol)
 Warning -- explicit consideration of   7 degrees of freedom as
           vibrations may cause significant error
 Vibrational temperatures:    176.15   203.27   491.05   564.49   624.43
          (Kelvin)            715.64   769.90  1023.91  1049.27  1187.01
                             1294.44  1750.29  1899.37  2498.42  3116.08
                             4268.03  4409.33  4584.51
 
 Zero-point correction=                           0.048493 (Hartree/Particle)
 Thermal correction to Energy=                    0.054431
 Thermal correction to Enthalpy=                  0.055375
 Thermal correction to Gibbs Free Energy=         0.020277
 Sum of electronic and zero-point Energies=           -191.250509
 Sum of electronic and thermal Energies=              -191.244571
 Sum of electronic and thermal Enthalpies=            -191.243627
 Sum of electronic and thermal Free Energies=         -191.278725
 
                     E (Thermal)             CV                S
                      KCal/Mol        Cal/Mol-Kelvin    Cal/Mol-Kelvin
 Total                   34.156             19.772             73.870
 Electronic               0.000              0.000              2.755
 Translational            0.889              2.981             38.342
 Rotational               0.889              2.981             21.679
 Vibrational             32.378             13.810             11.094
 Vibration     1          0.610              1.930              3.062
 Vibration     2          0.615              1.912              2.786
 Vibration     3          0.721              1.593              1.206
 Vibration     4          0.760              1.487              0.991
 Vibration     5          0.795              1.396              0.846
 Vibration     6          0.853              1.256              0.665
 Vibration     7          0.890              1.172              0.576
                       Q            Log10(Q)             Ln(Q)
 Total Bot       0.471260D-09         -9.326739        -21.475610
 Total V=0       0.951376D+13         12.978352         29.883760
 Vib (Bot)       0.490955D-21        -21.308958        -49.065689
 Vib (Bot)    1  0.166822D+01          0.222255          0.511760
 Vib (Bot)    2  0.143876D+01          0.157988          0.363780
 Vib (Bot)    3  0.543605D+00         -0.264717         -0.609533
 Vib (Bot)    4  0.456817D+00         -0.340258         -0.783472
 Vib (Bot)    5  0.400215D+00         -0.397706         -0.915753
 Vib (Bot)    6  0.331188D+00         -0.479925         -1.105069
 Vib (Bot)    7  0.297450D+00         -0.526587         -1.212511
 Vib (V=0)       0.991136D+01          0.996133          2.293681
 Vib (V=0)    1  0.224154D+01          0.350547          0.807165
 Vib (V=0)    2  0.202316D+01          0.306031          0.704662
 Vib (V=0)    3  0.123858D+01          0.092925          0.213969
 Vib (V=0)    4  0.117726D+01          0.070873          0.163190
 Vib (V=0)    5  0.114045D+01          0.057075          0.131420
 Vib (V=0)    6  0.109974D+01          0.041289          0.095072
 Vib (V=0)    7  0.108179D+01          0.034142          0.078614
 Electronic      0.400000D+01          0.602060          1.386294
 Translational   0.196657D+08          7.293709         16.794385
 Rotational      0.122025D+05          4.086450          9.409399
 
                                                              b3lyp opt
                                                             IR Spectrum
 
     3    3   2                               2                1                1   1                                                
     1    0   9                               1                7                3   2            9  8  77      5 4 4 3 3       11    
     8    6   6                               6                3                2   1            0  2  21      3 9 3 9 4       42    
     6    5   6                               6                6                0   7            0  5  92      5 7 4 2 1       12    
 
     X    X   X                               X                X                X   X            X  X  XX      X X X X X       XX    
     X    X   X                               X                X                X   X                                                
     X    X   X                               X                X                    X                                                
     X    X   X                               X                X                                                                     
     X    X   X                               X                X                                                                     
     X    X   X                               X                X                                                                     
     X        X                               X                X                                                                     
     X        X                               X                X                                                                     
     X        X                               X                X                                                                     
     X        X                               X                                                                                      
     X        X                               X                                                                                      
     X        X                               X                                                                                      
     X        X                               X                                                                                      
     X        X                               X                                                                                      
     X        X                               X                                                                                      
     X        X                               X                                                                                      
     X        X                               X                                                                                      
              X                               X                                                                                      
              X                               X                                                                                      
              X                                                                                                                      
 
 ***** Axes restored to original set *****
 -------------------------------------------------------------------
 Center     Atomic                   Forces (Hartrees/Bohr)
 Number     Number              X              Y              Z
 -------------------------------------------------------------------
      1        6           0.000004298    0.000000000   -0.000000000
      2        1          -0.000002996   -0.000003529   -0.000000010
      3        1          -0.000002997    0.000003528    0.000000010
      4        6           0.000008173    0.000000001   -0.000000000
      5        6          -0.000005348   -0.000000001   -0.000000000
      6        6          -0.000003816   -0.000000000   -0.000000000
      7        6           0.000011257    0.000000001   -0.000000000
      8        1          -0.000008571   -0.000000001   -0.000000000
 -------------------------------------------------------------------
 Cartesian Forces:  Max     0.000011257 RMS     0.000003934
 Z-matrix is all fixed cartesians, so copy forces.
 Force constants in Cartesian coordinates: 
                1             2             3             4             5 
      1  0.562943D+00
      2  0.385981D-05  0.527850D+00
      3  0.000000D+00 -0.158675D-03  0.831060D-01
      4 -0.965942D-01 -0.117551D+00  0.418930D-04  0.115314D+00
      5 -0.110811D+00 -0.237645D+00  0.756215D-04  0.124027D+00  0.247644D+00
      6  0.395278D-04  0.756290D-04 -0.256566D-01 -0.442036D-04 -0.849011D-04
      7 -0.966439D-01  0.117582D+00 -0.419095D-04  0.932304D-02 -0.123734D-01
      8  0.110842D+00 -0.237595D+00  0.756124D-04  0.123783D-01 -0.132282D-01
      9 -0.395441D-04  0.756204D-04 -0.256566D-01 -0.441002D-05  0.814044D-05
     10 -0.368948D+00 -0.323328D-04  0.000000D+00 -0.269676D-01 -0.330373D-02
     11 -0.323012D-04 -0.723393D-01  0.105239D-04 -0.199545D-01  0.512291D-02
     12  0.000000D+00  0.105152D-04 -0.428422D-01  0.711188D-05  0.000000D+00
     13  0.222178D-01  0.000000D+00  0.000000D+00 -0.125791D-02  0.258162D-02
     14  0.000000D+00  0.166701D-01 -0.219425D-05  0.639704D-03 -0.189941D-02
     15  0.000000D+00 -0.220312D-05  0.104864D-01  0.000000D+00  0.000000D+00
     16  0.168696D-02  0.000000D+00  0.000000D+00  0.255213D-02  0.150133D-02
     17  0.000000D+00  0.373109D-02 -0.104970D-05  0.537231D-03 -0.157795D-03
     18  0.000000D+00 -0.104822D-05  0.783145D-03  0.000000D+00  0.000000D+00
     19 -0.267704D-01 -0.286014D-05  0.000000D+00 -0.186781D-02 -0.902556D-03
     20 -0.285615D-05 -0.422851D-03  0.000000D+00 -0.512004D-04  0.136865D-03
     21  0.000000D+00  0.000000D+00 -0.264726D-03  0.000000D+00  0.000000D+00
     22  0.210822D-02  0.000000D+00  0.000000D+00 -0.501420D-03 -0.719602D-03
     23  0.000000D+00 -0.248490D-03  0.000000D+00 -0.258275D-04  0.263358D-04
     24  0.000000D+00  0.000000D+00  0.446509D-04  0.000000D+00  0.000000D+00
                6             7             8             9            10 
      6  0.959726D-02
      7  0.440825D-05  0.115368D+00
      8  0.814140D-05 -0.124056D+00  0.247590D+00
      9  0.962303D-02  0.442221D-04 -0.848915D-04  0.959726D-02
     10  0.113977D-05 -0.269727D-01  0.329674D-02 -0.113984D-05  0.110220D+01
     11  0.000000D+00  0.199475D-01  0.512797D-02  0.000000D+00  0.108900D-03
     12  0.529157D-02 -0.711189D-05  0.000000D+00  0.529157D-02  0.000000D+00
     13  0.000000D+00 -0.125721D-02 -0.258148D-02  0.000000D+00 -0.661668D+00
     14  0.000000D+00 -0.639564D-03 -0.190012D-02  0.000000D+00 -0.668906D-04
     15  0.675322D-03  0.000000D+00  0.000000D+00  0.675322D-03  0.000000D+00
     16  0.000000D+00  0.255258D-02 -0.150074D-02  0.000000D+00 -0.101756D-01
     17  0.000000D+00 -0.536640D-03 -0.158239D-03  0.000000D+00 -0.177934D-05
     18  0.480796D-03  0.000000D+00  0.000000D+00  0.480796D-03  0.000000D+00
     19  0.000000D+00 -0.186802D-02  0.902120D-03  0.000000D+00 -0.212675D-02
     20  0.000000D+00  0.507637D-04  0.137072D-03  0.000000D+00  0.000000D+00
     21  0.418042D-04  0.000000D+00  0.000000D+00  0.418042D-04  0.000000D+00
     22  0.000000D+00 -0.501582D-03  0.719487D-03  0.000000D+00 -0.533719D-02
     23  0.000000D+00  0.257126D-04  0.264982D-04  0.000000D+00  0.000000D+00
     24 -0.531812D-04  0.000000D+00  0.000000D+00 -0.531813D-04  0.000000D+00
               11            12            13            14            15 
     11  0.102171D+00
     12 -0.130249D-04  0.656094D-01
     13 -0.668984D-04  0.000000D+00  0.127193D+01
     14 -0.473283D-01  0.451215D-05  0.130719D-03  0.715915D-01
     15  0.450835D-05 -0.346517D-01  0.000000D+00 -0.923635D-05  0.456235D-01
     16 -0.181831D-05  0.000000D+00 -0.589769D+00 -0.589820D-04  0.000000D+00
     17  0.652711D-02 -0.245292D-05 -0.589367D-04 -0.481975D-01  0.481712D-05
     18 -0.245228D-05 -0.356382D-03  0.000000D+00  0.481658D-05 -0.346630D-01
     19  0.000000D+00  0.000000D+00 -0.469669D-01 -0.598828D-05  0.000000D+00
     20  0.755809D-03  0.000000D+00 -0.599743D-05  0.802300D-02  0.000000D+00
     21  0.000000D+00  0.848665D-03  0.000000D+00  0.000000D+00  0.104138D-01
     22  0.000000D+00  0.000000D+00  0.677230D-02  0.000000D+00  0.000000D+00
     23 -0.372189D-04  0.000000D+00  0.000000D+00  0.304072D-02  0.000000D+00
     24  0.000000D+00  0.809090D-03  0.000000D+00  0.000000D+00  0.144035D-02
               16            17            18            19            20 
     16  0.113007D+01
     17  0.115432D-03  0.698536D-01
     18  0.000000D+00 -0.251472D-05  0.628174D-01
     19 -0.545607D+00 -0.551973D-04  0.000000D+00  0.986455D+00
     20 -0.551789D-04 -0.388339D-01  0.329874D-05  0.101439D-03  0.549533D-01
     21  0.000000D+00  0.329838D-05 -0.295933D-01  0.000000D+00 -0.100643D-04
     22  0.868867D-02  0.000000D+00  0.000000D+00 -0.361247D+00 -0.366430D-04
     23  0.000000D+00  0.723565D-02 -0.255472D-05 -0.366418D-04 -0.247492D-01
     24  0.000000D+00 -0.255465D-05  0.504895D-04  0.000000D+00  0.589042D-05
               21            22            23            24 
     21  0.267111D-01
     22  0.000000D+00  0.350018D+00
     23  0.589116D-05  0.365142D-04  0.147057D-01
     24 -0.819915D-02  0.000000D+00 -0.311584D-05  0.596094D-02
 Leave Link  716 at Thu Jan 31 05:59:02 2019, MaxMem=    33554432 cpu:         0.1
 (Enter /home/proyectos/fulerenos/M3C-v2.0/M3C-deps_CCC/g09-AM64L-G09RevC.01/l103.exe)

 GradGradGradGradGradGradGradGradGradGradGradGradGradGradGradGradGradGrad
 Berny optimization.
 Search for a local minimum.
 Step number   1 out of a maximum of    2
 All quantities printed in internal units (Hartrees-Bohrs-Radians)
 Second derivative matrix not updated -- analytic derivatives used.
 ITU=  0
     Eigenvalues ---    0.00282   0.00292   0.01601   0.01651   0.04700
     Eigenvalues ---    0.05564   0.06231   0.09715   0.11531   0.13611
     Eigenvalues ---    0.15779   0.16810   0.30324   0.59413   0.74122
     Eigenvalues ---    0.92329   1.55948   2.15083
 Angle between quadratic step and forces=  42.00 degrees.
 ClnCor:  largest displacement from symmetrization is 2.73D-12 for atom     3.
 Linear search not attempted -- first point.
 ClnCor:  largest displacement from symmetrization is 9.93D-16 for atom     2.
 B after Tr=     0.000003    0.000000   -0.000000
         Rot=    1.000000    0.000000    0.000000    0.000000 Ang=   0.00 deg.
 Variable       Old X    -DE/DX   Delta X   Delta X   Delta X     New X
                                 (Linear)    (Quad)   (Total)
    X1        4.82090   0.00000   0.00000   0.00001   0.00001   4.82091
    Y1       -0.00053   0.00000   0.00000   0.00000   0.00000  -0.00053
    Z1       -0.00018  -0.00000   0.00000   0.00000   0.00000  -0.00018
    X2        5.87955  -0.00000   0.00000  -0.00001  -0.00001   5.87954
    Y2        1.78727  -0.00000   0.00000  -0.00001  -0.00001   1.78727
    Z2       -0.00082  -0.00000   0.00000   0.00000   0.00000  -0.00082
    X3        5.87994  -0.00000   0.00000  -0.00001  -0.00001   5.87993
    Y3       -1.78811   0.00000   0.00000   0.00001   0.00001  -1.78810
    Z3        0.00046   0.00000   0.00000  -0.00000  -0.00000   0.00046
    X4        2.23989   0.00001   0.00000   0.00001   0.00001   2.23990
    Y4       -0.00081   0.00000   0.00000   0.00000   0.00000  -0.00081
    Z4       -0.00018  -0.00000   0.00000   0.00000  -0.00000  -0.00018
    X5       -0.18834  -0.00001   0.00000  -0.00000   0.00000  -0.18833
    Y5       -0.00108  -0.00000   0.00000  -0.00000   0.00000  -0.00108
    Z5       -0.00018  -0.00000   0.00000  -0.00000  -0.00000  -0.00018
    X6       -2.60985  -0.00000   0.00000  -0.00000   0.00000  -2.60985
    Y6       -0.00134  -0.00000   0.00000  -0.00000   0.00000  -0.00134
    Z6       -0.00018  -0.00000   0.00000  -0.00000  -0.00000  -0.00018
    X7       -5.04028   0.00001   0.00000   0.00000   0.00001  -5.04027
    Y7       -0.00161   0.00000   0.00000   0.00000   0.00000  -0.00161
    Z7       -0.00018  -0.00000   0.00000   0.00000  -0.00000  -0.00018
    X8       -7.09774  -0.00001   0.00000  -0.00002  -0.00002  -7.09776
    Y8       -0.00183  -0.00000   0.00000  -0.00000  -0.00000  -0.00183
    Z8       -0.00018  -0.00000   0.00000  -0.00000  -0.00000  -0.00018
         Item               Value     Threshold  Converged?
 Maximum Force            0.000011     0.000450     YES
 RMS     Force            0.000004     0.000300     YES
 Maximum Displacement     0.000019     0.001800     YES
 RMS     Displacement     0.000006     0.001200     YES
 Predicted change in Energy=-2.190225D-10
 Optimization completed.
    -- Stationary point found.
 GradGradGradGradGradGradGradGradGradGradGradGradGradGradGradGradGradGrad

 Leave Link  103 at Thu Jan 31 05:59:02 2019, MaxMem=    33554432 cpu:         0.1
 (Enter /home/proyectos/fulerenos/M3C-v2.0/M3C-deps_CCC/g09-AM64L-G09RevC.01/l9999.exe)

 Test job not archived.
 1\1\GINC-COPERNICIO\Freq\UB3LYP\6-311++G(3df,2p)\C5H3(2+,4)\ROOT\31-Ja
 n-2019\0\\#p b3lyp/6-311++G(3df,2p) freq IOp(2/17=3) IOp(2/18=3)\\b3ly
 p opt\\2,4\C,2.551108871,-0.0002819872,-0.0000953577\H,3.111323325,0.9
 4578449,-0.000432201\H,3.1115293564,-0.9462264323,0.0002414855\C,1.185
 296919,-0.000430718,-0.0000953577\C,-0.099663022,-0.0005706443,-0.0000
 953577\C,-1.381074916,-0.0007101843,-0.0000953577\C,-2.667199848,-0.00
 08502375,-0.0000953577\H,-3.755960729,-0.0009687986,-0.0000953577\\Ver
 sion=EM64L-G09RevE.01\State=4-B\HF=-191.2990017\S2=3.776334\S2-1=0.\S2
 A=3.750185\RMSD=3.970e-09\RMSF=3.934e-06\ZeroPoint=0.0484928\Thermal=0
 .0544308\Dipole=-0.2553639,-0.0000278,0.\DipoleDeriv=-0.737395,-0.0000
 744,0.,-0.0000747,-0.0540203,0.0000883,0.,0.000088,0.193235,0.4729901,
 0.0937443,-0.0000334,0.3594139,0.3175991,-0.0000479,-0.0001279,-0.0000
 478,0.1831417,0.4730887,-0.0937104,0.0000334,-0.3593801,0.3175004,-0.0
 000479,0.0001279,-0.0000478,0.1831417,2.3215712,0.0002142,0.,0.0002143
 ,0.3541011,0.0000271,0.,0.0000271,0.4303419,-2.2479831,-0.0002677,0.,-
 0.0002676,0.2102457,-0.0000486,0.,-0.0000486,0.0738202,0.4846485,0.000
 0269,0.,0.0000272,0.2379079,0.0000479,0.,0.0000479,0.3723176,0.3730023
 ,-0.0000044,0.,-0.0000045,0.4130543,-0.0000287,0.,-0.0000288,0.3323438
 ,0.8600772,0.0000715,0.,0.0000715,0.2036119,0.00001,0.,0.00001,0.23165
 82\Polar=136.2319492,0.0119072,26.8881882,0.,-0.0008021,24.6363619\PG=
 C02 [C2(C1C1C1C1C1H1),X(H2)]\NImag=0\\0.56294340,0.00000386,0.52785005
 ,0.00000002,-0.00015867,0.08310597,-0.09659417,-0.11755089,0.00004189,
 0.11531373,-0.11081080,-0.23764515,0.00007562,0.12402717,0.24764441,0.
 00003953,0.00007563,-0.02565660,-0.00004420,-0.00008490,0.00959726,-0.
 09664391,0.11758160,-0.00004191,0.00932304,-0.01237343,0.00000441,0.11
 536776,0.11084151,-0.23759541,0.00007561,0.01237835,-0.01322816,0.0000
 0814,-0.12405598,0.24759038,-0.00003954,0.00007562,-0.02565660,-0.0000
 0441,0.00000814,0.00962303,0.00004422,-0.00008489,0.00959726,-0.368947
 94,-0.00003233,0.,-0.02696759,-0.00330373,0.00000114,-0.02697266,0.003
 29674,-0.00000114,1.10219547,-0.00003230,-0.07233931,0.00001052,-0.019
 95453,0.00512291,0.00000006,0.01994754,0.00512797,0.00000006,0.0001089
 0,0.10217101,0.,0.00001052,-0.04284220,0.00000711,0.00000006,0.0052915
 7,-0.00000711,0.00000006,0.00529157,0.,-0.00001302,0.06560935,0.022217
 85,0.00000057,0.,-0.00125791,0.00258162,-0.00000092,-0.00125721,-0.002
 58148,0.00000092,-0.66166774,-0.00006690,0.,1.27192866,0.00000060,0.01
 667008,-0.00000219,0.00063970,-0.00189941,0.00000091,-0.00063956,-0.00
 190012,0.00000091,-0.00006689,-0.04732828,0.00000451,0.00013072,0.0715
 9147,0.,-0.00000220,0.01048637,-0.00000023,0.00000092,0.00067532,0.000
 00023,0.00000092,0.00067532,0.,0.00000451,-0.03465167,0.,-0.00000924,0
 .04562351,0.00168696,-0.00000020,0.,0.00255213,0.00150133,-0.00000053,
 0.00255258,-0.00150074,0.00000053,-0.01017561,-0.00000182,0.,-0.589769
 08,-0.00005898,0.,1.13007176,-0.00000027,0.00373109,-0.00000105,0.0005
 3723,-0.00015780,0.00000023,-0.00053664,-0.00015824,0.00000023,-0.0000
 0178,0.00652711,-0.00000245,-0.00005894,-0.04819746,0.00000482,0.00011
 543,0.06985358,0.,-0.00000105,0.00078314,-0.00000019,0.00000023,0.0004
 8080,0.00000019,0.00000023,0.00048080,0.,-0.00000245,-0.00035638,0.,0.
 00000482,-0.03466300,0.,-0.00000251,0.06281741,-0.02677041,-0.00000286
 ,0.,-0.00186781,-0.00090256,0.00000033,-0.00186802,0.00090212,-0.00000
 033,-0.00212675,-0.00000031,0.,-0.04696688,-0.00000599,0.,-0.54560742,
 -0.00005520,0.,0.98645474,-0.00000286,-0.00042285,0.00000006,-0.000051
 20,0.00013686,-0.00000003,0.00005076,0.00013707,-0.00000003,-0.0000003
 3,0.00075581,0.00000003,-0.00000600,0.00802300,0.00000085,-0.00005518,
 -0.03883393,0.00000330,0.00010144,0.05495326,0.,0.00000006,-0.00026473
 ,0.00000002,-0.00000003,0.00004180,-0.00000002,-0.00000003,0.00004180,
 0.,0.00000003,0.00084867,0.,0.00000085,0.01041381,0.,0.00000330,-0.029
 59325,0.,-0.00001006,0.02671105,0.00210822,0.00000026,0.,-0.00050142,-
 0.00071960,0.00000025,-0.00050158,0.00071949,-0.00000025,-0.00533719,-
 0.00000058,0.,0.00677230,0.00000041,0.,0.00868867,0.00000016,0.,-0.361
 24745,-0.00003664,0.,0.35001845,0.00000026,-0.00024849,0.00000010,-0.0
 0002583,0.00002634,-0.00000003,0.00002571,0.00002650,-0.00000003,-0.00
 000058,-0.00003722,0.00000030,0.00000040,0.00304072,-0.00000057,0.0000
 0016,0.00723565,-0.00000255,-0.00003664,-0.02474923,0.00000589,0.00003
 651,0.01470573,0.,0.00000010,0.00004465,0.,-0.00000003,-0.00005318,0.,
 -0.00000003,-0.00005318,0.,0.00000030,0.00080909,0.,-0.00000057,0.0014
 4035,0.,-0.00000255,0.00005049,0.,0.00000589,-0.00819915,0.,-0.0000031
 2,0.00596094\\-0.00000430,0.,0.,0.00000300,0.00000353,0.,0.00000300,-0
 .00000353,0.,-0.00000817,0.,0.,0.00000535,0.,0.,0.00000382,0.,0.,-0.00
 001126,0.,0.,0.00000857,0.,0.\\\@


 SCIENCE AT ITS BEST PROVIDES US WITH BETTER QUESTIONS, 
 NOT ABSOLUTE ANSWERS

                                    -- NORMAN COUSINS, 1976
 Job cpu time:       0 days  0 hours 39 minutes 34.2 seconds.
 File lengths (MBytes):  RWF=     64 Int=      0 D2E=      0 Chk=      5 Scr=      1
 Normal termination of Gaussian 09 at Thu Jan 31 05:59:02 2019.
