 Entering Gaussian System, Link 0=/home/proyectos/fulerenos/M3C-v2.0/M3C-deps_CCC/g09-AM64L-G09RevC.01/g09
 Initial command:
 /home/proyectos/fulerenos/M3C-v2.0/M3C-deps_CCC/g09-AM64L-G09RevC.01/l1.exe "/scratch/naguirre/gaussian/Gau-24909.inp" -scrdir="/scratch/naguirre/gaussian/"
 Entering Link 1 = /home/proyectos/fulerenos/M3C-v2.0/M3C-deps_CCC/g09-AM64L-G09RevC.01/l1.exe PID=     24913.
  
 Copyright (c) 1988,1990,1992,1993,1995,1998,2003,2009,2015,
            Gaussian, Inc.  All Rights Reserved.
  
 This is part of the Gaussian(R) 09 program.  It is based on
 the Gaussian(R) 03 system (copyright 2003, Gaussian, Inc.),
 the Gaussian(R) 98 system (copyright 1998, Gaussian, Inc.),
 the Gaussian(R) 94 system (copyright 1995, Gaussian, Inc.),
 the Gaussian 92(TM) system (copyright 1992, Gaussian, Inc.),
 the Gaussian 90(TM) system (copyright 1990, Gaussian, Inc.),
 the Gaussian 88(TM) system (copyright 1988, Gaussian, Inc.),
 the Gaussian 86(TM) system (copyright 1986, Carnegie Mellon
 University), and the Gaussian 82(TM) system (copyright 1983,
 Carnegie Mellon University). Gaussian is a federally registered
 trademark of Gaussian, Inc.
  
 This software contains proprietary and confidential information,
 including trade secrets, belonging to Gaussian, Inc.
  
 This software is provided under written license and may be
 used, copied, transmitted, or stored only in accord with that
 written license.
  
 The following legend is applicable only to US Government
 contracts under FAR:
  
                    RESTRICTED RIGHTS LEGEND
  
 Use, reproduction and disclosure by the US Government is
 subject to restrictions as set forth in subparagraphs (a)
 and (c) of the Commercial Computer Software - Restricted
 Rights clause in FAR 52.227-19.
  
 Gaussian, Inc.
 340 Quinnipiac St., Bldg. 40, Wallingford CT 06492
  
  
 ---------------------------------------------------------------
 Warning -- This program may not be used in any manner that
 competes with the business of Gaussian, Inc. or will provide
 assistance to any competitor of Gaussian, Inc.  The licensee
 of this program is prohibited from giving any competitor of
 Gaussian, Inc. access to this program.  By using this program,
 the user acknowledges that Gaussian, Inc. is engaged in the
 business of creating and licensing software in the field of
 computational chemistry and represents and warrants to the
 licensee that it is not a competitor of Gaussian, Inc. and that
 it will not use this program in any manner prohibited above.
 ---------------------------------------------------------------
  

 Cite this work as:
 Gaussian 09, Revision E.01,
 M. J. Frisch, G. W. Trucks, H. B. Schlegel, G. E. Scuseria, 
 M. A. Robb, J. R. Cheeseman, G. Scalmani, V. Barone, B. Mennucci, 
 G. A. Petersson, H. Nakatsuji, M. Caricato, X. Li, H. P. Hratchian, 
 A. F. Izmaylov, J. Bloino, G. Zheng, J. L. Sonnenberg, M. Hada, 
 M. Ehara, K. Toyota, R. Fukuda, J. Hasegawa, M. Ishida, T. Nakajima, 
 Y. Honda, O. Kitao, H. Nakai, T. Vreven, J. A. Montgomery, Jr., 
 J. E. Peralta, F. Ogliaro, M. Bearpark, J. J. Heyd, E. Brothers, 
 K. N. Kudin, V. N. Staroverov, T. Keith, R. Kobayashi, J. Normand, 
 K. Raghavachari, A. Rendell, J. C. Burant, S. S. Iyengar, J. Tomasi, 
 M. Cossi, N. Rega, J. M. Millam, M. Klene, J. E. Knox, J. B. Cross, 
 V. Bakken, C. Adamo, J. Jaramillo, R. Gomperts, R. E. Stratmann, 
 O. Yazyev, A. J. Austin, R. Cammi, C. Pomelli, J. W. Ochterski, 
 R. L. Martin, K. Morokuma, V. G. Zakrzewski, G. A. Voth, 
 P. Salvador, J. J. Dannenberg, S. Dapprich, A. D. Daniels, 
 O. Farkas, J. B. Foresman, J. V. Ortiz, J. Cioslowski, 
 and D. J. Fox, Gaussian, Inc., Wallingford CT, 2013.
 
 ******************************************
 Gaussian 09:  EM64L-G09RevE.01 30-Nov-2015
                19-Jul-2016 
 ******************************************
 %NProcShared=1
 Will use up to    1 processors via shared memory.
 ---------------------------------------------
 #p b3lyp/6-311++G(3df,2p) freq symmetry=Loose
 ---------------------------------------------
 1/10=4,30=1,38=1/1,3;
 2/12=2,17=4,18=3,40=1/2;
 3/5=4,6=6,7=1216,11=2,16=1,25=1,30=1,71=2,74=-5,140=1/1,2,3;
 4//1;
 5/5=2,38=5,98=1/2;
 8/6=4,10=90,11=11/1;
 11/6=1,8=1,9=11,15=111,16=1/1,2,10;
 10/6=1/2;
 6/7=2,8=2,9=2,10=2,18=1,28=1/1;
 7/8=1,10=1,25=1/1,2,3,16;
 1/10=4,30=1/3;
 99//99;
 Leave Link    1 at Tue Jul 19 16:00:41 2016, MaxMem=           0 cpu:         0.1
 (Enter /home/proyectos/fulerenos/M3C-v2.0/M3C-deps_CCC/g09-AM64L-G09RevC.01/l101.exe)
 ---------
 b3lyp opt
 ---------
 Symbolic Z-matrix:
 Charge =  3 Multiplicity = 3
 C                    -1.82659   0.68034   0.00199 
 C                    -1.82807  -0.68079  -0.002 
 C                    -0.58177  -0.00291   0.00001 
 C                     0.8151    0.00002   0.00004 
 C                     2.1224    0.02502   0.00014 
 H                     2.59843  -0.60865   0.88219 
 H                     2.59846  -0.60348  -0.8856 
 H                     2.59671   1.08205   0.00324 
 
 NAtoms=      8 NQM=        8 NQMF=       0 NMMI=      0 NMMIF=      0
                NMic=       0 NMicF=      0.
                    Isotopes and Nuclear Properties:
 (Nuclear quadrupole moments (NQMom) in fm**2, nuclear magnetic moments (NMagM)
  in nuclear magnetons)

  Atom         1           2           3           4           5           6           7           8
 IAtWgt=          12          12          12          12          12           1           1           1
 AtmWgt=  12.0000000  12.0000000  12.0000000  12.0000000  12.0000000   1.0078250   1.0078250   1.0078250
 NucSpn=           0           0           0           0           0           1           1           1
 AtZEff=   0.0000000   0.0000000   0.0000000   0.0000000   0.0000000   0.0000000   0.0000000   0.0000000
 NQMom=    0.0000000   0.0000000   0.0000000   0.0000000   0.0000000   0.0000000   0.0000000   0.0000000
 NMagM=    0.0000000   0.0000000   0.0000000   0.0000000   0.0000000   2.7928460   2.7928460   2.7928460
 AtZNuc=   6.0000000   6.0000000   6.0000000   6.0000000   6.0000000   1.0000000   1.0000000   1.0000000
 Leave Link  101 at Tue Jul 19 16:00:41 2016, MaxMem=    33554432 cpu:         0.3
 (Enter /home/proyectos/fulerenos/M3C-v2.0/M3C-deps_CCC/g09-AM64L-G09RevC.01/l103.exe)

 GradGradGradGradGradGradGradGradGradGradGradGradGradGradGradGradGradGrad
 Berny optimization.
 Initialization pass.
 Trust Radius=3.00D-01 FncErr=1.00D-07 GrdErr=1.00D-07
 Number of steps in this run=      2 maximum allowed number of steps=      2.
 GradGradGradGradGradGradGradGradGradGradGradGradGradGradGradGradGradGrad

 Leave Link  103 at Tue Jul 19 16:00:41 2016, MaxMem=    33554432 cpu:         0.1
 (Enter /home/proyectos/fulerenos/M3C-v2.0/M3C-deps_CCC/g09-AM64L-G09RevC.01/l202.exe)
                          Input orientation:                          
 ---------------------------------------------------------------------
 Center     Atomic      Atomic             Coordinates (Angstroms)
 Number     Number       Type             X           Y           Z
 ---------------------------------------------------------------------
      1          6           0       -1.826589    0.680337    0.001988
      2          6           0       -1.828075   -0.680787   -0.001996
      3          6           0       -0.581773   -0.002911    0.000009
      4          6           0        0.815105    0.000021    0.000040
      5          6           0        2.122397    0.025019    0.000135
      6          1           0        2.598433   -0.608651    0.882187
      7          1           0        2.598463   -0.603477   -0.885596
      8          1           0        2.596712    1.082052    0.003237
 ---------------------------------------------------------------------
                    Distance matrix (angstroms):
                    1          2          3          4          5
     1  C    0.000000
     2  C    1.361130   0.000000
     3  C    1.419999   1.418728   0.000000
     4  C    2.727889   2.729451   1.396881   0.000000
     5  C    4.002991   4.013028   2.704314   1.307531   0.000000
     6  H    4.692234   4.514528   3.355424   2.080607   1.185818
     7  H    4.692234   4.514528   3.355424   2.080607   1.185818
     8  H    4.441505   4.763021   3.358559   2.084448   1.158578
                    6          7          8
     6  H    0.000000
     7  H    1.767791   0.000000
     8  H    1.905527   1.905527   0.000000
 Stoichiometry    C5H3(3+,3)
 Framework group  CS[SG(C5H),X(H2)]
 Deg. of freedom    12
 Full point group                 CS      NOp   2
 Largest Abelian subgroup         CS      NOp   2
 Largest concise Abelian subgroup CS      NOp   2
                         Standard orientation:                         
 ---------------------------------------------------------------------
 Center     Atomic      Atomic             Coordinates (Angstroms)
 Number     Number       Type             X           Y           Z
 ---------------------------------------------------------------------
      1          6           0        0.689470    1.823162    0.000000
      2          6           0       -0.671635    1.831458   -0.000000
      3          6           0        0.000000    0.581780   -0.000000
      4          6           0       -0.004057   -0.815095    0.000000
      5          6           0        0.014400   -2.122496    0.000000
      6          1           0       -0.619059   -2.595383    0.883895
      7          1           0       -0.619059   -2.595383   -0.883895
      8          1           0        1.069051   -2.602093    0.000000
 ---------------------------------------------------------------------
 Rotational constants (GHZ):     34.5730130      3.0215071      2.8276311
 Leave Link  202 at Tue Jul 19 16:00:41 2016, MaxMem=    33554432 cpu:         0.0
 (Enter /home/proyectos/fulerenos/M3C-v2.0/M3C-deps_CCC/g09-AM64L-G09RevC.01/l301.exe)
 Standard basis: 6-311++G(3df,2p) (5D, 7F)
 Ernie: Thresh=  0.10000D-02 Tol=  0.10000D-05 Strict=F.
 There are   173 symmetry adapted cartesian basis functions of A'  symmetry.
 There are    82 symmetry adapted cartesian basis functions of A"  symmetry.
 There are   148 symmetry adapted basis functions of A'  symmetry.
 There are    77 symmetry adapted basis functions of A"  symmetry.
   225 basis functions,   326 primitive gaussians,   255 cartesian basis functions
    16 alpha electrons       14 beta electrons
       nuclear repulsion energy       120.0656473184 Hartrees.
 IExCor=  402 DFT=T Ex+Corr=B3LYP ExCW=0 ScaHFX=  0.200000
 ScaDFX=  0.800000  0.720000  1.000000  0.810000 ScalE2=  1.000000  1.000000
 IRadAn=      0 IRanWt=     -1 IRanGd=            0 ICorTp=0 IEmpDi=  4
 NAtoms=    8 NActive=    8 NUniq=    7 SFac= 1.31D+00 NAtFMM=   60 NAOKFM=F Big=F
 Integral buffers will be    131072 words long.
 Raffenetti 2 integral format.
 Two-electron integral symmetry is turned on.
 Leave Link  301 at Tue Jul 19 16:00:41 2016, MaxMem=    33554432 cpu:         0.2
 (Enter /home/proyectos/fulerenos/M3C-v2.0/M3C-deps_CCC/g09-AM64L-G09RevC.01/l302.exe)
 NPDir=0 NMtPBC=     1 NCelOv=     1 NCel=       1 NClECP=     1 NCelD=      1
         NCelK=      1 NCelE2=     1 NClLst=     1 CellRange=     0.0.
 One-electron integrals computed using PRISM.
 One-electron integral symmetry used in STVInt
 NBasis=   225 RedAO= T EigKep=  1.19D-05  NBF=   148    77
 NBsUse=   224 1.00D-06 EigRej=  7.41D-07 NBFU=   147    77
 Precomputing XC quadrature grid using
 IXCGrd= 4 IRadAn=           0 IRanWt=          -1 IRanGd=           0 AccXCQ= 0.00D+00.
 Generated NRdTot=       0 NPtTot=           0 NUsed=           0 NTot=          32
 NSgBfM=   255   255   255   255   255 MxSgAt=     8 MxSgA2=     8.
 Leave Link  302 at Tue Jul 19 16:00:42 2016, MaxMem=    33554432 cpu:         0.6
 (Enter /home/proyectos/fulerenos/M3C-v2.0/M3C-deps_CCC/g09-AM64L-G09RevC.01/l303.exe)
 DipDrv:  MaxL=1.
 Leave Link  303 at Tue Jul 19 16:00:42 2016, MaxMem=    33554432 cpu:         0.1
 (Enter /home/proyectos/fulerenos/M3C-v2.0/M3C-deps_CCC/g09-AM64L-G09RevC.01/l401.exe)
 ExpMin= 3.60D-02 ExpMax= 4.56D+03 ExpMxC= 6.82D+02 IAcc=3 IRadAn=         5 AccDes= 0.00D+00
 Harris functional with IExCor=  402 and IRadAn=       5 diagonalized for initial guess.
 HarFok:  IExCor=  402 AccDes= 0.00D+00 IRadAn=         5 IDoV= 1 UseB2=F ITyADJ=14
 ICtDFT=  3500011 ScaDFX=  1.000000  1.000000  1.000000  1.000000
 FoFCou: FMM=F IPFlag=           0 FMFlag=      100000 FMFlg1=           0
         NFxFlg=           0 DoJE=T BraDBF=F KetDBF=T FulRan=T
         wScrn=  0.000000 ICntrl=     500 IOpCl=  0 I1Cent=   200000004 NGrid=           0
         NMat0=    1 NMatS0=      1 NMatT0=    0 NMatD0=    1 NMtDS0=    0 NMtDT0=    0
 Petite list used in FoFCou.
 Harris En= -191.202112949093    
 JPrj=0 DoOrth=F DoCkMO=F.
 Initial guess orbital symmetries:
 Alpha Orbitals:
       Occupied  (A') (A') (A') (A') (A') (A') (A') (A') (A') (A')
                 (A') (A') (A") (A") (A') (A')
       Virtual   (A") (A') (A") (A") (A') (A') (A") (A') (A') (A')
                 (A") (A') (A") (A') (A') (A') (A') (A') (A") (A")
                 (A') (A") (A') (A') (A') (A') (A') (A") (A') (A')
                 (A') (A') (A") (A') (A') (A") (A') (A') (A') (A')
                 (A") (A") (A") (A') (A') (A') (A') (A') (A') (A")
                 (A") (A") (A') (A") (A') (A') (A") (A') (A') (A')
                 (A') (A") (A') (A') (A") (A") (A") (A') (A") (A')
                 (A') (A') (A') (A") (A") (A') (A') (A') (A") (A")
                 (A') (A') (A') (A') (A') (A") (A') (A') (A") (A')
                 (A') (A") (A') (A") (A') (A') (A") (A') (A") (A')
                 (A') (A') (A") (A') (A') (A") (A') (A") (A') (A")
                 (A') (A') (A') (A") (A") (A') (A") (A') (A") (A')
                 (A") (A') (A') (A') (A') (A") (A') (A") (A") (A")
                 (A') (A') (A") (A') (A") (A") (A') (A') (A") (A')
                 (A") (A') (A') (A") (A') (A') (A") (A') (A') (A')
                 (A') (A") (A') (A') (A") (A') (A') (A') (A") (A')
                 (A') (A") (A') (A") (A") (A') (A') (A") (A') (A")
                 (A') (A') (A') (A") (A') (A") (A') (A') (A") (A')
                 (A') (A") (A') (A") (A') (A") (A') (A") (A') (A")
                 (A') (A") (A') (A') (A") (A") (A') (A') (A") (A')
                 (A') (A') (A') (A') (A') (A') (A') (A')
 Beta  Orbitals:
       Occupied  (A') (A') (A') (A') (A') (A') (A') (A') (A') (A')
                 (A') (A') (A") (A")
       Virtual   (A') (A') (A") (A') (A") (A") (A') (A') (A") (A')
                 (A') (A') (A") (A') (A") (A') (A') (A') (A') (A')
                 (A") (A") (A') (A") (A') (A') (A') (A') (A') (A")
                 (A') (A') (A') (A') (A") (A') (A') (A") (A') (A')
                 (A') (A') (A") (A") (A") (A') (A') (A') (A') (A')
                 (A') (A") (A") (A") (A') (A") (A') (A') (A") (A')
                 (A') (A') (A') (A") (A') (A') (A") (A") (A") (A')
                 (A") (A') (A') (A') (A') (A") (A") (A') (A') (A')
                 (A") (A") (A') (A') (A') (A') (A') (A") (A') (A')
                 (A") (A') (A') (A") (A') (A") (A') (A') (A") (A')
                 (A") (A') (A') (A') (A") (A') (A') (A") (A') (A")
                 (A') (A") (A') (A') (A') (A") (A") (A') (A") (A')
                 (A") (A') (A") (A') (A') (A') (A') (A") (A') (A")
                 (A") (A") (A') (A') (A") (A') (A") (A") (A') (A')
                 (A") (A') (A") (A') (A') (A") (A') (A') (A") (A')
                 (A') (A') (A') (A") (A') (A') (A") (A') (A') (A')
                 (A") (A') (A') (A") (A') (A") (A") (A') (A') (A")
                 (A') (A") (A') (A') (A') (A") (A') (A") (A') (A')
                 (A") (A') (A') (A") (A') (A") (A') (A") (A') (A")
                 (A') (A") (A') (A") (A') (A') (A") (A") (A') (A')
                 (A") (A') (A') (A') (A') (A') (A') (A') (A') (A')
 The electronic state of the initial guess is 3-A'.
 Initial guess <Sx>= 0.0000 <Sy>= 0.0000 <Sz>= 1.0000 <S**2>= 2.0000 S= 1.0000
 Leave Link  401 at Tue Jul 19 16:00:48 2016, MaxMem=    33554432 cpu:         5.7
 (Enter /home/proyectos/fulerenos/M3C-v2.0/M3C-deps_CCC/g09-AM64L-G09RevC.01/l502.exe)
 UHF open shell SCF:
 Using DIIS extrapolation, IDIIS=  1040.
 Integral symmetry usage will be decided dynamically.
 IVT=      217281 IEndB=      217281 NGot=    33554432 MDV=    33419072
 LenX=    33419072 LenY=    33353606
 Requested convergence on RMS density matrix=1.00D-08 within 128 cycles.
 Requested convergence on MAX density matrix=1.00D-06.
 Requested convergence on             energy=1.00D-06.
 No special actions if energy rises.
 Fock matrices will be formed incrementally for  20 cycles.

 Cycle   1  Pass 1  IDiag  1:
 FoFJK:  IHMeth= 1 ICntrl=       0 DoSepK=F KAlg= 0 I1Cent=   0 FoldK=F
 IRaf= 970000000 NMat=   1 IRICut=       1 DoRegI=T DoRafI=F ISym2E= 1.
 FoFCou: FMM=F IPFlag=           0 FMFlag=      100000 FMFlg1=           0
         NFxFlg=           0 DoJE=F BraDBF=F KetDBF=F FulRan=T
         wScrn=  0.000000 ICntrl=       0 IOpCl=  1 I1Cent=           0 NGrid=           0
         NMat0=    1 NMatS0=      1 NMatT0=    0 NMatD0=    1 NMtDS0=    0 NMtDT0=    0
 Petite list used in FoFCou.
 E= -190.213598002552    
 DIIS: error= 3.08D-02 at cycle   1 NSaved=   1.
 NSaved= 1 IEnMin= 1 EnMin= -190.213598002552     IErMin= 1 ErrMin= 3.08D-02
 ErrMax= 3.08D-02  0.00D+00 EMaxC= 1.00D-01 BMatC= 4.46D-01 BMatP= 4.46D-01
 IDIUse=3 WtCom= 6.92D-01 WtEn= 3.08D-01
 Coeff-Com:  0.100D+01
 Coeff-En:   0.100D+01
 Coeff:      0.100D+01
 Gap=     0.098 Goal=   None    Shift=    0.000
 Gap=     0.187 Goal=   None    Shift=    0.000
 GapD=    0.098 DampG=0.500 DampE=0.500 DampFc=0.2500 IDamp=-1.
 Damping current iteration by 2.50D-01
 RMSDP=7.48D-03 MaxDP=2.85D-01              OVMax= 5.38D-01

 Cycle   2  Pass 1  IDiag  1:
 RMSU=  1.82D-03    CP:  1.03D+00
 E= -190.239760491312     Delta-E=       -0.026162488760 Rises=F Damp=T
 DIIS: error= 8.32D-03 at cycle   2 NSaved=   2.
 NSaved= 2 IEnMin= 2 EnMin= -190.239760491312     IErMin= 2 ErrMin= 8.32D-03
 ErrMax= 8.32D-03  0.00D+00 EMaxC= 1.00D-01 BMatC= 7.64D-02 BMatP= 4.46D-01
 IDIUse=3 WtCom= 9.17D-01 WtEn= 8.32D-02
 Coeff-Com: -0.614D-01 0.106D+01
 Coeff-En:   0.343D+00 0.657D+00
 Coeff:     -0.278D-01 0.103D+01
 Gap=     0.083 Goal=   None    Shift=    0.000
 Gap=     0.125 Goal=   None    Shift=    0.000
 RMSDP=3.70D-03 MaxDP=2.33D-01 DE=-2.62D-02 OVMax= 4.63D-01

 Cycle   3  Pass 1  IDiag  1:
 RMSU=  3.10D-03    CP:  1.08D+00  2.01D+00
 E= -190.353075389498     Delta-E=       -0.113314898186 Rises=F Damp=F
 DIIS: error= 9.09D-03 at cycle   3 NSaved=   3.
 NSaved= 3 IEnMin= 3 EnMin= -190.353075389498     IErMin= 2 ErrMin= 8.32D-03
 ErrMax= 9.09D-03  0.00D+00 EMaxC= 1.00D-01 BMatC= 3.33D-02 BMatP= 7.64D-02
 IDIUse=3 WtCom= 9.09D-01 WtEn= 9.09D-02
 Coeff-Com: -0.269D+00 0.392D+00 0.877D+00
 Coeff-En:   0.000D+00 0.000D+00 0.100D+01
 Coeff:     -0.245D+00 0.356D+00 0.888D+00
 Gap=     0.120 Goal=   None    Shift=    0.000
 Gap=     0.203 Goal=   None    Shift=    0.000
 RMSDP=9.65D-04 MaxDP=9.68D-02 DE=-1.13D-01 OVMax= 4.80D-02

 Cycle   4  Pass 1  IDiag  1:
 RMSU=  7.53D-04    CP:  1.10D+00  2.27D+00  9.80D-01
 E= -190.363336882660     Delta-E=       -0.010261493162 Rises=F Damp=F
 DIIS: error= 1.44D-03 at cycle   4 NSaved=   4.
 NSaved= 4 IEnMin= 4 EnMin= -190.363336882660     IErMin= 4 ErrMin= 1.44D-03
 ErrMax= 1.44D-03  0.00D+00 EMaxC= 1.00D-01 BMatC= 6.53D-04 BMatP= 3.33D-02
 IDIUse=3 WtCom= 9.86D-01 WtEn= 1.44D-02
 Coeff-Com: -0.669D-01 0.855D-01 0.162D+00 0.819D+00
 Coeff-En:   0.000D+00 0.000D+00 0.000D+00 0.100D+01
 Coeff:     -0.659D-01 0.843D-01 0.160D+00 0.822D+00
 Gap=     0.119 Goal=   None    Shift=    0.000
 Gap=     0.203 Goal=   None    Shift=    0.000
 RMSDP=1.68D-04 MaxDP=9.71D-03 DE=-1.03D-02 OVMax= 8.55D-03

 Cycle   5  Pass 1  IDiag  1:
 RMSU=  1.46D-04    CP:  1.10D+00  2.29D+00  9.77D-01  9.17D-01
 E= -190.363543195842     Delta-E=       -0.000206313182 Rises=F Damp=F
 DIIS: error= 1.19D-03 at cycle   5 NSaved=   5.
 NSaved= 5 IEnMin= 5 EnMin= -190.363543195842     IErMin= 5 ErrMin= 1.19D-03
 ErrMax= 1.19D-03  0.00D+00 EMaxC= 1.00D-01 BMatC= 2.94D-04 BMatP= 6.53D-04
 IDIUse=3 WtCom= 9.88D-01 WtEn= 1.19D-02
 Coeff-Com: -0.130D-01 0.808D-02-0.199D-01 0.341D+00 0.684D+00
 Coeff-En:   0.000D+00 0.000D+00 0.000D+00 0.000D+00 0.100D+01
 Coeff:     -0.128D-01 0.798D-02-0.197D-01 0.337D+00 0.688D+00
 Gap=     0.122 Goal=   None    Shift=    0.000
 Gap=     0.204 Goal=   None    Shift=    0.000
 RMSDP=1.19D-04 MaxDP=8.44D-03 DE=-2.06D-04 OVMax= 1.22D-02

 Cycle   6  Pass 1  IDiag  1:
 RMSU=  9.99D-05    CP:  1.10D+00  2.32D+00  9.72D-01  9.71D-01  1.05D+00
 E= -190.363636621756     Delta-E=       -0.000093425914 Rises=F Damp=F
 DIIS: error= 7.86D-04 at cycle   6 NSaved=   6.
 NSaved= 6 IEnMin= 6 EnMin= -190.363636621756     IErMin= 6 ErrMin= 7.86D-04
 ErrMax= 7.86D-04  0.00D+00 EMaxC= 1.00D-01 BMatC= 1.23D-04 BMatP= 2.94D-04
 IDIUse=3 WtCom= 9.92D-01 WtEn= 7.86D-03
 Coeff-Com:  0.531D-03-0.382D-02-0.410D-01 0.434D-01 0.458D+00 0.543D+00
 Coeff-En:   0.000D+00 0.000D+00 0.000D+00 0.000D+00 0.415D-01 0.959D+00
 Coeff:      0.527D-03-0.379D-02-0.407D-01 0.430D-01 0.454D+00 0.547D+00
 Gap=     0.121 Goal=   None    Shift=    0.000
 Gap=     0.203 Goal=   None    Shift=    0.000
 RMSDP=5.48D-05 MaxDP=2.61D-03 DE=-9.34D-05 OVMax= 5.79D-03

 Cycle   7  Pass 1  IDiag  1:
 RMSU=  3.68D-05    CP:  1.10D+00  2.32D+00  9.72D-01  9.49D-01  1.24D+00
                    CP:  7.54D-01
 E= -190.363682909399     Delta-E=       -0.000046287644 Rises=F Damp=F
 DIIS: error= 3.28D-04 at cycle   7 NSaved=   7.
 NSaved= 7 IEnMin= 7 EnMin= -190.363682909399     IErMin= 7 ErrMin= 3.28D-04
 ErrMax= 3.28D-04  0.00D+00 EMaxC= 1.00D-01 BMatC= 1.80D-05 BMatP= 1.23D-04
 IDIUse=3 WtCom= 9.97D-01 WtEn= 3.28D-03
 Coeff-Com:  0.471D-02-0.626D-02-0.184D-01-0.781D-01 0.584D-01 0.304D+00
 Coeff-Com:  0.736D+00
 Coeff-En:   0.000D+00 0.000D+00 0.000D+00 0.000D+00 0.000D+00 0.000D+00
 Coeff-En:   0.100D+01
 Coeff:      0.469D-02-0.624D-02-0.184D-01-0.779D-01 0.583D-01 0.303D+00
 Coeff:      0.737D+00
 Gap=     0.121 Goal=   None    Shift=    0.000
 Gap=     0.203 Goal=   None    Shift=    0.000
 RMSDP=3.17D-05 MaxDP=2.51D-03 DE=-4.63D-05 OVMax= 3.57D-03

 Cycle   8  Pass 1  IDiag  1:
 RMSU=  1.74D-05    CP:  1.10D+00  2.32D+00  9.70D-01  9.61D-01  1.31D+00
                    CP:  9.55D-01  9.15D-01
 E= -190.363694342587     Delta-E=       -0.000011433188 Rises=F Damp=F
 DIIS: error= 1.83D-04 at cycle   8 NSaved=   8.
 NSaved= 8 IEnMin= 8 EnMin= -190.363694342587     IErMin= 8 ErrMin= 1.83D-04
 ErrMax= 1.83D-04  0.00D+00 EMaxC= 1.00D-01 BMatC= 6.41D-06 BMatP= 1.80D-05
 IDIUse=3 WtCom= 9.98D-01 WtEn= 1.83D-03
 Coeff-Com:  0.301D-02-0.269D-02 0.232D-02-0.464D-01-0.911D-01 0.125D-01
 Coeff-Com:  0.424D+00 0.698D+00
 Coeff-En:   0.000D+00 0.000D+00 0.000D+00 0.000D+00 0.000D+00 0.000D+00
 Coeff-En:   0.000D+00 0.100D+01
 Coeff:      0.301D-02-0.268D-02 0.232D-02-0.463D-01-0.910D-01 0.125D-01
 Coeff:      0.424D+00 0.698D+00
 Gap=     0.121 Goal=   None    Shift=    0.000
 Gap=     0.203 Goal=   None    Shift=    0.000
 RMSDP=1.50D-05 MaxDP=1.17D-03 DE=-1.14D-05 OVMax= 1.91D-03

 Cycle   9  Pass 1  IDiag  1:
 RMSU=  8.11D-06    CP:  1.10D+00  2.32D+00  9.69D-01  9.60D-01  1.35D+00
                    CP:  1.04D+00  1.05D+00  9.49D-01
 E= -190.363697916964     Delta-E=       -0.000003574376 Rises=F Damp=F
 DIIS: error= 1.01D-04 at cycle   9 NSaved=   9.
 NSaved= 9 IEnMin= 9 EnMin= -190.363697916964     IErMin= 9 ErrMin= 1.01D-04
 ErrMax= 1.01D-04  0.00D+00 EMaxC= 1.00D-01 BMatC= 1.29D-06 BMatP= 6.41D-06
 IDIUse=3 WtCom= 9.99D-01 WtEn= 1.01D-03
 Coeff-Com:  0.866D-03-0.102D-02 0.665D-02 0.486D-02-0.556D-01-0.999D-01
 Coeff-Com: -0.390D-01 0.227D+00 0.956D+00
 Coeff-En:   0.000D+00 0.000D+00 0.000D+00 0.000D+00 0.000D+00 0.000D+00
 Coeff-En:   0.000D+00 0.000D+00 0.100D+01
 Coeff:      0.865D-03-0.102D-02 0.664D-02 0.486D-02-0.555D-01-0.998D-01
 Coeff:     -0.389D-01 0.227D+00 0.956D+00
 Gap=     0.121 Goal=   None    Shift=    0.000
 Gap=     0.203 Goal=   None    Shift=    0.000
 RMSDP=7.34D-06 MaxDP=3.24D-04 DE=-3.57D-06 OVMax= 1.49D-03

 Cycle  10  Pass 1  IDiag  1:
 RMSU=  4.35D-06    CP:  1.10D+00  2.32D+00  9.69D-01  9.62D-01  1.37D+00
                    CP:  1.07D+00  1.15D+00  1.10D+00  1.11D+00
 E= -190.363699147534     Delta-E=       -0.000001230570 Rises=F Damp=F
 DIIS: error= 3.06D-05 at cycle  10 NSaved=  10.
 NSaved=10 IEnMin=10 EnMin= -190.363699147534     IErMin=10 ErrMin= 3.06D-05
 ErrMax= 3.06D-05  0.00D+00 EMaxC= 1.00D-01 BMatC= 1.41D-07 BMatP= 1.29D-06
 IDIUse=1 WtCom= 1.00D+00 WtEn= 0.00D+00
 Coeff-Com: -0.438D-03 0.475D-03 0.741D-03 0.993D-02 0.142D-01-0.117D-01
 Coeff-Com: -0.830D-01-0.132D+00 0.109D+00 0.109D+01
 Coeff:     -0.438D-03 0.475D-03 0.741D-03 0.993D-02 0.142D-01-0.117D-01
 Coeff:     -0.830D-01-0.132D+00 0.109D+00 0.109D+01
 Gap=     0.121 Goal=   None    Shift=    0.000
 Gap=     0.203 Goal=   None    Shift=    0.000
 RMSDP=3.26D-06 MaxDP=1.87D-04 DE=-1.23D-06 OVMax= 6.67D-04

 Cycle  11  Pass 1  IDiag  1:
 RMSU=  2.00D-06    CP:  1.10D+00  2.32D+00  9.69D-01  9.62D-01  1.36D+00
                    CP:  1.07D+00  1.16D+00  1.17D+00  1.34D+00  1.26D+00
 E= -190.363699335496     Delta-E=       -0.000000187962 Rises=F Damp=F
 DIIS: error= 1.78D-05 at cycle  11 NSaved=  11.
 NSaved=11 IEnMin=11 EnMin= -190.363699335496     IErMin=11 ErrMin= 1.78D-05
 ErrMax= 1.78D-05  0.00D+00 EMaxC= 1.00D-01 BMatC= 5.87D-08 BMatP= 1.41D-07
 IDIUse=1 WtCom= 1.00D+00 WtEn= 0.00D+00
 Coeff-Com: -0.391D-03 0.441D-03-0.515D-03 0.449D-02 0.143D-01 0.857D-02
 Coeff-Com: -0.438D-01-0.981D-01-0.461D-01 0.556D+00 0.605D+00
 Coeff:     -0.391D-03 0.441D-03-0.515D-03 0.449D-02 0.143D-01 0.857D-02
 Coeff:     -0.438D-01-0.981D-01-0.461D-01 0.556D+00 0.605D+00
 Gap=     0.121 Goal=   None    Shift=    0.000
 Gap=     0.203 Goal=   None    Shift=    0.000
 RMSDP=1.40D-06 MaxDP=8.33D-05 DE=-1.88D-07 OVMax= 1.68D-04

 Cycle  12  Pass 1  IDiag  1:
 RMSU=  1.15D-06    CP:  1.10D+00  2.32D+00  9.69D-01  9.62D-01  1.36D+00
                    CP:  1.07D+00  1.16D+00  1.18D+00  1.36D+00  1.41D+00
                    CP:  8.58D-01
 E= -190.363699367998     Delta-E=       -0.000000032502 Rises=F Damp=F
 DIIS: error= 1.24D-05 at cycle  12 NSaved=  12.
 NSaved=12 IEnMin=12 EnMin= -190.363699367998     IErMin=12 ErrMin= 1.24D-05
 ErrMax= 1.24D-05  0.00D+00 EMaxC= 1.00D-01 BMatC= 2.46D-08 BMatP= 5.87D-08
 IDIUse=1 WtCom= 1.00D+00 WtEn= 0.00D+00
 Coeff-Com: -0.917D-04 0.119D-03-0.849D-03-0.238D-02 0.169D-02 0.142D-01
 Coeff-Com:  0.866D-02 0.305D-02-0.721D-01-0.211D+00 0.369D+00 0.889D+00
 Coeff:     -0.917D-04 0.119D-03-0.849D-03-0.238D-02 0.169D-02 0.142D-01
 Coeff:      0.866D-02 0.305D-02-0.721D-01-0.211D+00 0.369D+00 0.889D+00
 Gap=     0.121 Goal=   None    Shift=    0.000
 Gap=     0.203 Goal=   None    Shift=    0.000
 RMSDP=1.14D-06 MaxDP=5.52D-05 DE=-3.25D-08 OVMax= 1.84D-04

 Cycle  13  Pass 1  IDiag  1:
 RMSU=  6.10D-07    CP:  1.10D+00  2.32D+00  9.69D-01  9.62D-01  1.36D+00
                    CP:  1.07D+00  1.16D+00  1.19D+00  1.40D+00  1.49D+00
                    CP:  1.25D+00  1.07D+00
 E= -190.363699389260     Delta-E=       -0.000000021262 Rises=F Damp=F
 DIIS: error= 5.01D-06 at cycle  13 NSaved=  13.
 NSaved=13 IEnMin=13 EnMin= -190.363699389260     IErMin=13 ErrMin= 5.01D-06
 ErrMax= 5.01D-06  0.00D+00 EMaxC= 1.00D-01 BMatC= 2.75D-09 BMatP= 2.46D-08
 IDIUse=1 WtCom= 1.00D+00 WtEn= 0.00D+00
 Coeff-Com:  0.300D-04-0.183D-04-0.105D-03-0.141D-02-0.262D-02 0.245D-02
 Coeff-Com:  0.102D-01 0.195D-01-0.664D-02-0.159D+00-0.641D-01 0.182D+00
 Coeff-Com:  0.102D+01
 Coeff:      0.300D-04-0.183D-04-0.105D-03-0.141D-02-0.262D-02 0.245D-02
 Coeff:      0.102D-01 0.195D-01-0.664D-02-0.159D+00-0.641D-01 0.182D+00
 Coeff:      0.102D+01
 Gap=     0.121 Goal=   None    Shift=    0.000
 Gap=     0.203 Goal=   None    Shift=    0.000
 RMSDP=5.19D-07 MaxDP=3.23D-05 DE=-2.13D-08 OVMax= 9.99D-05

 Cycle  14  Pass 1  IDiag  1:
 RMSU=  2.38D-07    CP:  1.10D+00  2.32D+00  9.69D-01  9.62D-01  1.36D+00
                    CP:  1.06D+00  1.16D+00  1.19D+00  1.41D+00  1.54D+00
                    CP:  1.36D+00  1.32D+00  1.15D+00
 E= -190.363699393807     Delta-E=       -0.000000004547 Rises=F Damp=F
 DIIS: error= 2.28D-06 at cycle  14 NSaved=  14.
 NSaved=14 IEnMin=14 EnMin= -190.363699393807     IErMin=14 ErrMin= 2.28D-06
 ErrMax= 2.28D-06  0.00D+00 EMaxC= 1.00D-01 BMatC= 6.48D-10 BMatP= 2.75D-09
 IDIUse=1 WtCom= 1.00D+00 WtEn= 0.00D+00
 Coeff-Com:  0.457D-04-0.632D-04 0.249D-03 0.584D-03-0.715D-03-0.413D-02
 Coeff-Com: -0.641D-03-0.582D-03 0.194D-01 0.514D-01-0.113D+00-0.242D+00
 Coeff-Com:  0.129D+00 0.116D+01
 Coeff:      0.457D-04-0.632D-04 0.249D-03 0.584D-03-0.715D-03-0.413D-02
 Coeff:     -0.641D-03-0.582D-03 0.194D-01 0.514D-01-0.113D+00-0.242D+00
 Coeff:      0.129D+00 0.116D+01
 Gap=     0.121 Goal=   None    Shift=    0.000
 Gap=     0.203 Goal=   None    Shift=    0.000
 RMSDP=2.85D-07 MaxDP=1.84D-05 DE=-4.55D-09 OVMax= 3.93D-05

 Cycle  15  Pass 1  IDiag  1:
 RMSU=  1.18D-07    CP:  1.10D+00  2.32D+00  9.69D-01  9.62D-01  1.36D+00
                    CP:  1.06D+00  1.16D+00  1.19D+00  1.42D+00  1.55D+00
                    CP:  1.41D+00  1.39D+00  1.43D+00  1.37D+00
 E= -190.363699394861     Delta-E=       -0.000000001054 Rises=F Damp=F
 DIIS: error= 9.38D-07 at cycle  15 NSaved=  15.
 NSaved=15 IEnMin=15 EnMin= -190.363699394861     IErMin=15 ErrMin= 9.38D-07
 ErrMax= 9.38D-07  0.00D+00 EMaxC= 1.00D-01 BMatC= 1.52D-10 BMatP= 6.48D-10
 IDIUse=1 WtCom= 1.00D+00 WtEn= 0.00D+00
 Coeff-Com:  0.953D-05-0.146D-04 0.600D-05 0.122D-03 0.402D-03-0.329D-03
 Coeff-Com: -0.568D-03-0.216D-02-0.576D-03 0.115D-01 0.211D-01 0.303D-02
 Coeff-Com: -0.161D+00-0.114D+00 0.124D+01
 Coeff:      0.953D-05-0.146D-04 0.600D-05 0.122D-03 0.402D-03-0.329D-03
 Coeff:     -0.568D-03-0.216D-02-0.576D-03 0.115D-01 0.211D-01 0.303D-02
 Coeff:     -0.161D+00-0.114D+00 0.124D+01
 Gap=     0.121 Goal=   None    Shift=    0.000
 Gap=     0.203 Goal=   None    Shift=    0.000
 RMSDP=9.14D-08 MaxDP=5.70D-06 DE=-1.05D-09 OVMax= 1.48D-05

 Cycle  16  Pass 1  IDiag  1:
 RMSU=  3.40D-08    CP:  1.10D+00  2.32D+00  9.69D-01  9.62D-01  1.36D+00
                    CP:  1.06D+00  1.16D+00  1.19D+00  1.42D+00  1.56D+00
                    CP:  1.41D+00  1.40D+00  1.46D+00  1.60D+00  1.32D+00
 E= -190.363699394991     Delta-E=       -0.000000000131 Rises=F Damp=F
 DIIS: error= 1.07D-07 at cycle  16 NSaved=  16.
 NSaved=16 IEnMin=16 EnMin= -190.363699394991     IErMin=16 ErrMin= 1.07D-07
 ErrMax= 1.07D-07  0.00D+00 EMaxC= 1.00D-01 BMatC= 4.25D-12 BMatP= 1.52D-10
 IDIUse=1 WtCom= 1.00D+00 WtEn= 0.00D+00
 Coeff-Com: -0.238D-05 0.281D-05-0.167D-04-0.323D-04 0.454D-04 0.267D-03
 Coeff-Com: -0.800D-04 0.226D-03-0.156D-02-0.409D-02 0.114D-01 0.215D-01
 Coeff-Com: -0.222D-01-0.104D+00 0.271D-01 0.107D+01
 Coeff:     -0.238D-05 0.281D-05-0.167D-04-0.323D-04 0.454D-04 0.267D-03
 Coeff:     -0.800D-04 0.226D-03-0.156D-02-0.409D-02 0.114D-01 0.215D-01
 Coeff:     -0.222D-01-0.104D+00 0.271D-01 0.107D+01
 Gap=     0.121 Goal=   None    Shift=    0.000
 Gap=     0.203 Goal=   None    Shift=    0.000
 RMSDP=2.62D-08 MaxDP=1.46D-06 DE=-1.31D-10 OVMax= 2.87D-06

 Cycle  17  Pass 1  IDiag  1:
 RMSU=  1.18D-08    CP:  1.10D+00  2.32D+00  9.69D-01  9.62D-01  1.36D+00
                    CP:  1.06D+00  1.16D+00  1.19D+00  1.42D+00  1.56D+00
                    CP:  1.41D+00  1.40D+00  1.46D+00  1.63D+00  1.42D+00
                    CP:  1.24D+00
 E= -190.363699394999     Delta-E=       -0.000000000008 Rises=F Damp=F
 DIIS: error= 4.16D-08 at cycle  17 NSaved=  17.
 NSaved=17 IEnMin=17 EnMin= -190.363699394999     IErMin=17 ErrMin= 4.16D-08
 ErrMax= 4.16D-08  0.00D+00 EMaxC= 1.00D-01 BMatC= 6.27D-13 BMatP= 4.25D-12
 IDIUse=1 WtCom= 1.00D+00 WtEn= 0.00D+00
 Coeff-Com: -0.131D-05 0.209D-05 0.133D-05-0.525D-05-0.267D-04-0.300D-04
 Coeff-Com:  0.571D-04 0.213D-03 0.325D-04 0.203D-03-0.380D-02-0.498D-02
 Coeff-Com:  0.177D-01 0.338D-01-0.120D+00-0.185D+00 0.126D+01
 Coeff:     -0.131D-05 0.209D-05 0.133D-05-0.525D-05-0.267D-04-0.300D-04
 Coeff:      0.571D-04 0.213D-03 0.325D-04 0.203D-03-0.380D-02-0.498D-02
 Coeff:      0.177D-01 0.338D-01-0.120D+00-0.185D+00 0.126D+01
 Gap=     0.121 Goal=   None    Shift=    0.000
 Gap=     0.203 Goal=   None    Shift=    0.000
 RMSDP=9.08D-09 MaxDP=5.03D-07 DE=-7.67D-12 OVMax= 6.39D-07

 SCF Done:  E(UB3LYP) =  -190.363699395     A.U. after   17 cycles
            NFock= 17  Conv=0.91D-08     -V/T= 2.0043
 <Sx>= 0.0000 <Sy>= 0.0000 <Sz>= 1.0000 <S**2>= 2.0193 S= 1.0064
 <L.S>= 0.000000000000E+00
 KE= 1.895521536598D+02 PE=-6.589908830867D+02 EE= 1.590093827136D+02
 Annihilation of the first spin contaminant:
 S**2 before annihilation     2.0193,   after     2.0002
 Leave Link  502 at Tue Jul 19 16:10:10 2016, MaxMem=    33554432 cpu:       560.3
 (Enter /home/proyectos/fulerenos/M3C-v2.0/M3C-deps_CCC/g09-AM64L-G09RevC.01/l801.exe)
 DoSCS=F DFT=T ScalE2(SS,OS)=  1.000000  1.000000
 Range of M.O.s used for correlation:     1   224
 NBasis=   225 NAE=    16 NBE=    14 NFC=     0 NFV=     0
 NROrb=    224 NOA=    16 NOB=    14 NVA=   208 NVB=   210

 **** Warning!!: The largest alpha MO coefficient is  0.12120466D+03


 **** Warning!!: The largest beta MO coefficient is  0.12941838D+03

 Leave Link  801 at Tue Jul 19 16:10:10 2016, MaxMem=    33554432 cpu:         0.1
 (Enter /home/proyectos/fulerenos/M3C-v2.0/M3C-deps_CCC/g09-AM64L-G09RevC.01/l1101.exe)
 Using compressed storage, NAtomX=     8.
 Will process      9 centers per pass.
 Leave Link 1101 at Tue Jul 19 16:10:10 2016, MaxMem=    33554432 cpu:         0.5
 (Enter /home/proyectos/fulerenos/M3C-v2.0/M3C-deps_CCC/g09-AM64L-G09RevC.01/l1102.exe)
 Symmetrizing basis deriv contribution to polar:
 IMax=3 JMax=2 DiffMx= 0.00D+00
 Leave Link 1102 at Tue Jul 19 16:10:10 2016, MaxMem=    33554432 cpu:         0.1
 (Enter /home/proyectos/fulerenos/M3C-v2.0/M3C-deps_CCC/g09-AM64L-G09RevC.01/l1110.exe)
 Forming Gx(P) for the SCF density, NAtomX=     8.
 Integral derivatives from FoFJK, PRISM(SPDF).
 Do as many integral derivatives as possible in FoFJK.
 G2DrvN: MDV=      33554264.
 G2DrvN: will do     9 centers at a time, making    1 passes.
 Calling FoFCou, ICntrl=  3107 FMM=F I1Cent=   0 AccDes= 0.00D+00.
 FoFJK:  IHMeth= 1 ICntrl=    3107 DoSepK=F KAlg= 0 I1Cent=   0 FoldK=F
 IRaf=         0 NMat=   1 IRICut=       1 DoRegI=T DoRafI=F ISym2E= 1.
 FoFCou: FMM=F IPFlag=           0 FMFlag=      100000 FMFlg1=           0
         NFxFlg=           0 DoJE=F BraDBF=F KetDBF=F FulRan=T
         wScrn=  0.000000 ICntrl=    3107 IOpCl=  1 I1Cent=           0 NGrid=           0
         NMat0=    1 NMatS0=      1 NMatT0=    0 NMatD0=    1 NMtDS0=    0 NMtDT0=    0
 Petite list used in FoFCou.
 End of G2Drv F.D. properties file   721 does not exist.
 End of G2Drv F.D. properties file   722 does not exist.
 End of G2Drv F.D. properties file   788 does not exist.
 Leave Link 1110 at Tue Jul 19 16:16:26 2016, MaxMem=    33554432 cpu:       375.2
 (Enter /home/proyectos/fulerenos/M3C-v2.0/M3C-deps_CCC/g09-AM64L-G09RevC.01/l1002.exe)
 Minotr:  UHF open shell wavefunction.
          IDoAtm=11111111
          Direct CPHF calculation.
          Differentiating once with respect to electric field.
                with respect to dipole field.
          Differentiating once with respect to nuclear coordinates.
          Using symmetry in CPHF.
          Requested convergence is 1.0D-08 RMS, and 1.0D-07 maximum.
          Secondary convergence is 1.0D-12 RMS, and 1.0D-12 maximum.
          NewPWx=T KeepS1=F KeepF1=F KeepIn=T MapXYZ=F SortEE=F KeepMc=T.
          MDV=      33553900 using IRadAn=       2.
 Generate precomputed XC quadrature information.
          Solving linear equations simultaneously, MaxMat=       0.
 FoFJK:  IHMeth= 1 ICntrl=       0 DoSepK=F KAlg= 0 I1Cent=   0 FoldK=F
 IRaf= 970000000 NMat=  24 IRICut=      60 DoRegI=T DoRafI=T ISym2E= 2.
 FoFCou: FMM=F IPFlag=           0 FMFlag=      100000 FMFlg1=           0
         NFxFlg=           0 DoJE=F BraDBF=F KetDBF=F FulRan=T
         wScrn=  0.000000 ICntrl=       0 IOpCl=  1 I1Cent=           0 NGrid=           0
         NMat0=   24 NMatS0=     24 NMatT0=    0 NMatD0=   24 NMtDS0=    0 NMtDT0=    0
 Integrals replicated using symmetry in FoFCou.
          There are    24 degrees of freedom in the 1st order CPHF.  IDoFFX=4 NUNeed=    24.
     24 vectors produced by pass  0 Test12= 2.61D-14 4.17D-09 XBig12= 4.80D+02 1.42D+01.
 AX will form    24 AO Fock derivatives at one time.
     24 vectors produced by pass  1 Test12= 2.61D-14 4.17D-09 XBig12= 4.85D+01 1.45D+00.
     24 vectors produced by pass  2 Test12= 2.61D-14 4.17D-09 XBig12= 1.22D+00 3.49D-01.
     24 vectors produced by pass  3 Test12= 2.61D-14 4.17D-09 XBig12= 4.27D-02 8.62D-02.
     24 vectors produced by pass  4 Test12= 2.61D-14 4.17D-09 XBig12= 7.57D-04 6.96D-03.
     24 vectors produced by pass  5 Test12= 2.61D-14 4.17D-09 XBig12= 4.94D-06 4.61D-04.
     22 vectors produced by pass  6 Test12= 2.61D-14 4.17D-09 XBig12= 3.40D-08 3.92D-05.
     10 vectors produced by pass  7 Test12= 2.61D-14 4.17D-09 XBig12= 2.01D-10 1.92D-06.
      2 vectors produced by pass  8 Test12= 2.61D-14 4.17D-09 XBig12= 8.71D-13 1.24D-07.
      2 vectors produced by pass  9 Test12= 2.61D-14 4.17D-09 XBig12= 5.17D-14 6.19D-08.
      1 vectors produced by pass 10 Test12= 2.61D-14 4.17D-09 XBig12= 3.04D-16 4.27D-09.
 InvSVY:  IOpt=1 It=  1 EMax= 1.07D-14
 Solved reduced A of dimension   181 with    24 vectors.
 FullF1:  Do perturbations    1 to    24.
 Isotropic polarizability for W=    0.000000       50.57 Bohr**3.
 End of Minotr F.D. properties file   721 does not exist.
 End of Minotr F.D. properties file   722 does not exist.
 End of Minotr F.D. properties file   788 does not exist.
 Leave Link 1002 at Tue Jul 19 16:39:43 2016, MaxMem=    33554432 cpu:      1396.2
 (Enter /home/proyectos/fulerenos/M3C-v2.0/M3C-deps_CCC/g09-AM64L-G09RevC.01/l601.exe)
 Copying SCF densities to generalized density rwf, IOpCl= 1 IROHF=0.

 **********************************************************************

            Population analysis using the SCF density.

 **********************************************************************

 Orbital symmetries:
 Alpha Orbitals:
       Occupied  (A') (A') (A') (A') (A') (A') (A') (A') (A') (A')
                 (A') (A") (A') (A") (A') (A')
       Virtual   (A") (A') (A") (A") (A') (A') (A') (A") (A') (A')
                 (A') (A") (A') (A') (A') (A") (A') (A') (A") (A')
                 (A") (A') (A') (A') (A") (A') (A") (A") (A') (A')
                 (A') (A') (A') (A') (A') (A') (A") (A") (A') (A")
                 (A') (A') (A") (A') (A") (A') (A') (A") (A') (A')
                 (A") (A') (A") (A') (A") (A') (A') (A') (A') (A')
                 (A') (A") (A') (A') (A") (A") (A") (A') (A") (A')
                 (A') (A') (A") (A') (A") (A') (A') (A') (A") (A")
                 (A') (A') (A') (A') (A") (A') (A') (A") (A') (A")
                 (A') (A') (A') (A') (A") (A") (A') (A') (A") (A')
                 (A') (A') (A") (A') (A") (A') (A") (A') (A') (A")
                 (A') (A') (A') (A") (A") (A') (A") (A') (A') (A")
                 (A") (A') (A') (A') (A') (A") (A") (A') (A") (A")
                 (A') (A") (A') (A') (A") (A") (A') (A') (A") (A')
                 (A") (A') (A") (A') (A') (A") (A') (A') (A') (A')
                 (A") (A') (A') (A') (A") (A') (A') (A') (A") (A')
                 (A') (A") (A') (A") (A") (A') (A') (A") (A') (A")
                 (A') (A') (A') (A") (A') (A") (A') (A') (A") (A')
                 (A') (A") (A') (A") (A') (A") (A') (A") (A') (A")
                 (A') (A") (A') (A") (A') (A") (A') (A') (A') (A")
                 (A') (A') (A') (A') (A') (A') (A') (A')
 Beta  Orbitals:
       Occupied  (A') (A') (A') (A') (A') (A') (A') (A') (A') (A')
                 (A') (A") (A') (A")
       Virtual   (A') (A") (A') (A') (A") (A") (A') (A') (A') (A")
                 (A') (A') (A") (A') (A') (A') (A") (A') (A') (A')
                 (A") (A') (A") (A') (A') (A') (A") (A") (A') (A")
                 (A') (A') (A') (A') (A') (A') (A') (A') (A") (A")
                 (A') (A") (A') (A') (A") (A') (A") (A') (A") (A')
                 (A') (A') (A") (A') (A") (A') (A") (A') (A') (A')
                 (A') (A') (A") (A') (A') (A') (A") (A") (A") (A')
                 (A") (A') (A') (A') (A") (A') (A") (A') (A') (A')
                 (A") (A") (A') (A') (A') (A') (A") (A') (A') (A")
                 (A') (A") (A') (A') (A') (A') (A") (A") (A') (A')
                 (A") (A') (A') (A') (A") (A') (A") (A') (A') (A")
                 (A') (A") (A') (A') (A') (A") (A") (A') (A") (A')
                 (A') (A") (A") (A') (A') (A') (A') (A") (A") (A')
                 (A") (A") (A') (A") (A') (A') (A") (A") (A') (A')
                 (A") (A') (A") (A') (A") (A') (A') (A') (A") (A')
                 (A') (A') (A") (A') (A') (A') (A") (A') (A') (A')
                 (A") (A') (A') (A") (A') (A") (A") (A') (A') (A")
                 (A') (A") (A') (A') (A') (A") (A') (A") (A') (A')
                 (A") (A') (A') (A") (A') (A") (A') (A") (A') (A")
                 (A') (A") (A') (A") (A') (A') (A") (A") (A') (A')
                 (A") (A') (A') (A') (A') (A') (A') (A') (A') (A')
 The electronic state is 3-A'.
 Alpha  occ. eigenvalues --  -11.08929 -11.05534 -11.05450 -11.02810 -10.91757
 Alpha  occ. eigenvalues --   -1.69851  -1.56340  -1.44769  -1.25855  -1.22219
 Alpha  occ. eigenvalues --   -1.18364  -1.15065  -1.14624  -1.09988  -1.06910
 Alpha  occ. eigenvalues --   -1.01814
 Alpha virt. eigenvalues --   -0.89708  -0.84984  -0.73861  -0.70153  -0.58163
 Alpha virt. eigenvalues --   -0.53242  -0.52769  -0.48916  -0.46977  -0.46232
 Alpha virt. eigenvalues --   -0.42806  -0.42510  -0.40885  -0.38194  -0.37810
 Alpha virt. eigenvalues --   -0.37566  -0.37037  -0.35197  -0.33984  -0.32986
 Alpha virt. eigenvalues --   -0.30904  -0.29157  -0.27570  -0.26892  -0.25763
 Alpha virt. eigenvalues --   -0.24870  -0.24307  -0.24133  -0.24007  -0.22103
 Alpha virt. eigenvalues --   -0.20917  -0.20185  -0.18629  -0.17670  -0.16338
 Alpha virt. eigenvalues --   -0.15986  -0.15512  -0.14530  -0.13086  -0.12831
 Alpha virt. eigenvalues --   -0.11309  -0.10446  -0.09999  -0.08124  -0.06221
 Alpha virt. eigenvalues --   -0.05712  -0.03662  -0.02954  -0.02876  -0.01737
 Alpha virt. eigenvalues --   -0.00090   0.00612   0.00733   0.01826   0.03599
 Alpha virt. eigenvalues --    0.04378   0.04856   0.05574   0.06903   0.09076
 Alpha virt. eigenvalues --    0.12227   0.12613   0.13747   0.16099   0.17010
 Alpha virt. eigenvalues --    0.19858   0.22008   0.22572   0.22633   0.25854
 Alpha virt. eigenvalues --    0.29318   0.31553   0.37450   0.38815   0.43795
 Alpha virt. eigenvalues --    0.45610   0.49057   0.52820   0.54726   0.55799
 Alpha virt. eigenvalues --    0.57095   0.58184   0.60720   0.64328   0.64332
 Alpha virt. eigenvalues --    0.68338   0.70317   0.70597   0.72147   0.74102
 Alpha virt. eigenvalues --    0.75756   0.80452   0.83038   0.83335   0.84009
 Alpha virt. eigenvalues --    0.91380   0.92764   0.96073   1.02484   1.03277
 Alpha virt. eigenvalues --    1.06507   1.12334   1.17131   1.21013   1.23627
 Alpha virt. eigenvalues --    1.24231   1.27967   1.31799   1.34133   1.38498
 Alpha virt. eigenvalues --    1.42846   1.56177   1.61999   1.66120   1.75547
 Alpha virt. eigenvalues --    1.86651   1.90157   1.90323   1.93949   1.95361
 Alpha virt. eigenvalues --    1.96582   1.99664   2.01076   2.05426   2.06933
 Alpha virt. eigenvalues --    2.07393   2.09891   2.11285   2.12233   2.18421
 Alpha virt. eigenvalues --    2.21253   2.24988   2.25046   2.29137   2.29948
 Alpha virt. eigenvalues --    2.33170   2.35293   2.41735   2.44265   2.49528
 Alpha virt. eigenvalues --    2.53870   2.55633   2.58079   2.58287   2.59438
 Alpha virt. eigenvalues --    2.68052   2.68183   2.69513   2.74326   2.88664
 Alpha virt. eigenvalues --    2.94633   2.97218   2.99991   3.01467   3.06009
 Alpha virt. eigenvalues --    3.14731   3.35675   3.41971   3.42529   3.52008
 Alpha virt. eigenvalues --    3.53190   3.55178   3.58823   3.60568   3.64583
 Alpha virt. eigenvalues --    3.69219   3.72466   3.78750   3.84869   3.91621
 Alpha virt. eigenvalues --    3.97586   4.49219   4.56505   4.65333   4.71184
 Alpha virt. eigenvalues --    4.93447   5.52970   5.92209   6.14433   6.15705
 Alpha virt. eigenvalues --    6.21406   6.23732   6.27064   6.28327   6.31883
 Alpha virt. eigenvalues --    6.38145   6.49894   6.51430   6.51600   6.54677
 Alpha virt. eigenvalues --    6.55973   6.63573   6.67463   6.71253   6.71934
 Alpha virt. eigenvalues --    6.91341   7.21753   7.33993   7.36897   7.38846
 Alpha virt. eigenvalues --    7.47906   7.64593   7.98978  23.07560  23.76902
 Alpha virt. eigenvalues --   24.55743  24.66157  25.21194
  Beta  occ. eigenvalues --  -11.08637 -11.03466 -11.03396 -11.02714 -10.91758
  Beta  occ. eigenvalues --   -1.68128  -1.55543  -1.43891  -1.21596  -1.20253
  Beta  occ. eigenvalues --   -1.15512  -1.14692  -1.12784  -1.09144
  Beta virt. eigenvalues --   -0.88797  -0.88670  -0.86742  -0.78914  -0.69458
  Beta virt. eigenvalues --   -0.69037  -0.56973  -0.52290  -0.49811  -0.48898
  Beta virt. eigenvalues --   -0.45841  -0.45380  -0.42464  -0.42381  -0.40480
  Beta virt. eigenvalues --   -0.37540  -0.37419  -0.36935  -0.36532  -0.33942
  Beta virt. eigenvalues --   -0.33661  -0.31966  -0.30630  -0.27884  -0.26859
  Beta virt. eigenvalues --   -0.26199  -0.25666  -0.24273  -0.23900  -0.23814
  Beta virt. eigenvalues --   -0.22707  -0.21658  -0.20474  -0.19825  -0.18524
  Beta virt. eigenvalues --   -0.17430  -0.16001  -0.15579  -0.15083  -0.13509
  Beta virt. eigenvalues --   -0.12624  -0.12454  -0.11094  -0.09958  -0.09589
  Beta virt. eigenvalues --   -0.07192  -0.05685  -0.04317  -0.02667  -0.02550
  Beta virt. eigenvalues --   -0.01759   0.00053   0.01038   0.01132   0.01372
  Beta virt. eigenvalues --    0.03179   0.03855   0.04808   0.05608   0.06650
  Beta virt. eigenvalues --    0.07824   0.09697   0.13259   0.13720   0.14222
  Beta virt. eigenvalues --    0.16390   0.17317   0.19976   0.22260   0.23104
  Beta virt. eigenvalues --    0.23148   0.26659   0.30046   0.32092   0.37719
  Beta virt. eigenvalues --    0.39543   0.44015   0.46195   0.49571   0.53252
  Beta virt. eigenvalues --    0.54798   0.56016   0.57540   0.58483   0.61650
  Beta virt. eigenvalues --    0.65088   0.67196   0.71072   0.71579   0.72202
  Beta virt. eigenvalues --    0.74669   0.75264   0.77333   0.80681   0.83673
  Beta virt. eigenvalues --    0.84174   0.84852   0.92689   0.94096   0.98272
  Beta virt. eigenvalues --    1.03124   1.07520   1.08506   1.16450   1.18276
  Beta virt. eigenvalues --    1.22833   1.25594   1.27209   1.34083   1.34565
  Beta virt. eigenvalues --    1.35998   1.39116   1.49752   1.58712   1.63505
  Beta virt. eigenvalues --    1.68009   1.76829   1.88130   1.91138   1.91408
  Beta virt. eigenvalues --    1.95288   1.95940   1.97598   2.02872   2.03763
  Beta virt. eigenvalues --    2.07680   2.08194   2.09054   2.11311   2.12515
  Beta virt. eigenvalues --    2.13107   2.20010   2.22385   2.26369   2.26904
  Beta virt. eigenvalues --    2.30359   2.32302   2.35056   2.37253   2.42723
  Beta virt. eigenvalues --    2.45610   2.50218   2.55005   2.57449   2.59706
  Beta virt. eigenvalues --    2.59767   2.61576   2.69747   2.71458   2.74112
  Beta virt. eigenvalues --    2.75076   2.92634   2.95629   2.98549   3.02939
  Beta virt. eigenvalues --    3.05560   3.06976   3.15996   3.38001   3.42212
  Beta virt. eigenvalues --    3.42641   3.52892   3.55979   3.56672   3.60398
  Beta virt. eigenvalues --    3.61258   3.68561   3.72898   3.74636   3.80037
  Beta virt. eigenvalues --    3.85948   3.92325   3.98866   4.49610   4.58092
  Beta virt. eigenvalues --    4.65460   4.72205   4.93696   5.55534   5.93413
  Beta virt. eigenvalues --    6.15840   6.17208   6.26589   6.27182   6.29251
  Beta virt. eigenvalues --    6.29739   6.32762   6.41783   6.50825   6.51946
  Beta virt. eigenvalues --    6.53741   6.56966   6.59192   6.64497   6.68811
  Beta virt. eigenvalues --    6.75124   6.77479   6.91565   7.26956   7.34489
  Beta virt. eigenvalues --    7.38786   7.40428   7.51138   7.65052   8.02788
  Beta virt. eigenvalues --   23.08675  23.78205  24.56116  24.68656  25.21334
          Condensed to atoms (all electrons):
               1          2          3          4          5          6
     1  C    8.018661  -1.850811  -0.557466  -0.094795   0.016828  -0.003738
     2  C   -1.850811   8.154293  -0.622860  -0.171462  -0.003467   0.003748
     3  C   -0.557466  -0.622860   6.753588   0.426212  -0.372705  -0.000460
     4  C   -0.094795  -0.171462   0.426212   6.973973  -1.485536  -0.041330
     5  C    0.016828  -0.003467  -0.372705  -1.485536   6.777567   0.341361
     6  H   -0.003738   0.003748  -0.000460  -0.041330   0.341361   0.304841
     7  H   -0.003738   0.003748  -0.000460  -0.041330   0.341361   0.002754
     8  H    0.006088  -0.008652  -0.003872  -0.038693   0.360088  -0.002072
               7          8
     1  C   -0.003738   0.006088
     2  C    0.003748  -0.008652
     3  C   -0.000460  -0.003872
     4  C   -0.041330  -0.038693
     5  C    0.341361   0.360088
     6  H    0.002754  -0.002072
     7  H    0.304841  -0.002072
     8  H   -0.002072   0.318901
          Atomic-Atomic Spin Densities.
               1          2          3          4          5          6
     1  C    1.302403  -0.009556  -0.220537  -0.081183  -0.031997   0.001187
     2  C   -0.009556   1.232599  -0.180589  -0.070520  -0.030183  -0.001183
     3  C   -0.220537  -0.180589   0.300889   0.034591  -0.054204   0.000343
     4  C   -0.081183  -0.070520   0.034591   0.350658  -0.063880  -0.000392
     5  C   -0.031997  -0.030183  -0.054204  -0.063880   0.177606  -0.001112
     6  H    0.001187  -0.001183   0.000343  -0.000392  -0.001112   0.001100
     7  H    0.001187  -0.001183   0.000343  -0.000392  -0.001112   0.001687
     8  H   -0.002700   0.002659   0.003191  -0.003166   0.011211  -0.001303
               7          8
     1  C    0.001187  -0.002700
     2  C   -0.001183   0.002659
     3  C    0.000343   0.003191
     4  C   -0.000392  -0.003166
     5  C   -0.001112   0.011211
     6  H    0.001687  -0.001303
     7  H    0.001100  -0.001303
     8  H   -0.001303   0.033835
 Mulliken charges and spin densities:
               1          2
     1  C    0.468973   0.958804
     2  C    0.495464   0.942043
     3  C    0.378024  -0.115973
     4  C    0.472961   0.165716
     5  C    0.024502   0.006330
     6  H    0.394896   0.000328
     7  H    0.394896   0.000328
     8  H    0.370284   0.042425
 Sum of Mulliken charges =   3.00000   2.00000
 Mulliken charges and spin densities with hydrogens summed into heavy atoms:
               1          2
     1  C    0.468973   0.958804
     2  C    0.495464   0.942043
     3  C    0.378024  -0.115973
     4  C    0.472961   0.165716
     5  C    1.184578   0.049410
 APT charges:
               1
     1  C    0.791282
     2  C    0.734683
     3  C   -0.405911
     4  C    1.269344
     5  C   -1.067670
     6  H    0.582114
     7  H    0.582114
     8  H    0.514045
 Sum of APT charges =   3.00000
 APT charges with hydrogens summed into heavy atoms:
               1
     1  C    0.791282
     2  C    0.734683
     3  C   -0.405911
     4  C    1.269344
     5  C    0.610602
 Electronic spatial extent (au):  <R**2>=            363.7873
 Charge=              3.0000 electrons
 Dipole moment (field-independent basis, Debye):
    X=             -0.3588    Y=             -4.2277    Z=              0.0000  Tot=              4.2428
 Quadrupole moment (field-independent basis, Debye-Ang):
   XX=            -14.9524   YY=             36.2833   ZZ=            -18.8329
   XY=              1.2408   XZ=             -0.0000   YZ=             -0.0000
 Traceless Quadrupole moment (field-independent basis, Debye-Ang):
   XX=            -15.7851   YY=             35.4506   ZZ=            -19.6656
   XY=              1.2408   XZ=             -0.0000   YZ=             -0.0000
 Octapole moment (field-independent basis, Debye-Ang**2):
  XXX=              1.7125  YYY=            -58.9584  ZZZ=              0.0000  XYY=             -3.0078
  XXY=             -2.9826  XXZ=              0.0000  XZZ=             -2.4578  YZZ=             -8.5283
  YYZ=              0.0000  XYZ=              0.0000
 Hexadecapole moment (field-independent basis, Debye-Ang**3):
 XXXX=            -39.0712 YYYY=            -45.3737 ZZZZ=            -19.6035 XXXY=             -4.9181
 XXXZ=             -0.0000 YYYX=              7.9669 YYYZ=             -0.0000 ZZZX=             -0.0000
 ZZZY=             -0.0000 XXYY=            -27.9472 XXZZ=             -9.3054 YYZZ=            -42.0584
 XXYZ=             -0.0000 YYXZ=             -0.0000 ZZXY=              6.4248
 N-N= 1.200656473184D+02 E-N=-6.589908832916D+02  KE= 1.895521536598D+02
 Symmetry A'   KE= 1.849708580438D+02
 Symmetry A"   KE= 4.581295616036D+00
  Exact polarizability:  31.156   0.580  95.278  -0.000  -0.000  25.273
 Approx polarizability:  56.323   2.146 203.244  -0.000   0.000  38.963
                          Isotropic Fermi Contact Couplings
        Atom                 a.u.       MegaHertz       Gauss      10(-4) cm-1
     1  C(13)              1.01007     567.75536     202.58922     189.38280
     2  C(13)              1.00704     566.05398     201.98213     188.81528
     3  C(13)             -0.04355     -24.47989      -8.73503      -8.16561
     4  C(13)              0.01408       7.91662       2.82485       2.64070
     5  C(13)             -0.00896      -5.03396      -1.79624      -1.67915
     6  H(1)               0.00033       0.74825       0.26700       0.24959
     7  H(1)               0.00033       0.74825       0.26700       0.24959
     8  H(1)               0.02266      50.64503      18.07141      16.89336
 --------------------------------------------------------
       Center         ----  Spin Dipole Couplings  ----
                      3XX-RR        3YY-RR        3ZZ-RR
 --------------------------------------------------------
     1   Atom        0.824379     -0.373313     -0.451066
     2   Atom        0.814496     -0.362906     -0.451591
     3   Atom        0.309201     -0.022663     -0.286538
     4   Atom        0.206219     -0.092088     -0.114131
     5   Atom        0.062872      0.000274     -0.063146
     6   Atom       -0.006393      0.004885      0.001508
     7   Atom       -0.006393      0.004885      0.001508
     8   Atom        0.003297      0.005775     -0.009072
 --------------------------------------------------------
                        XY            XZ            YZ
 --------------------------------------------------------
     1   Atom        0.270098      0.000000      0.000000
     2   Atom       -0.285520      0.000000     -0.000000
     3   Atom       -0.004140     -0.000000     -0.000000
     4   Atom       -0.003745      0.000000      0.000000
     5   Atom       -0.004495     -0.000000      0.000000
     6   Atom        0.000437      0.000261     -0.003835
     7   Atom        0.000437     -0.000261      0.003835
     8   Atom       -0.009197      0.000000      0.000000
 --------------------------------------------------------


 ---------------------------------------------------------------------------------
              Anisotropic Spin Dipole Couplings in Principal Axis System
 ---------------------------------------------------------------------------------

       Atom             a.u.   MegaHertz   Gauss  10(-4) cm-1        Axes

              Baa    -0.4511   -60.529   -21.598   -20.190  0.0000  0.0000  1.0000
     1 C(13)  Bbb    -0.4314   -57.891   -20.657   -19.310 -0.2103  0.9776  0.0000
              Bcc     0.8825   118.419    42.255    39.500  0.9776  0.2103 -0.0000
 
              Baa    -0.4516   -60.599   -21.623   -20.214  0.0000  0.0000  1.0000
     2 C(13)  Bbb    -0.4285   -57.499   -20.517   -19.180  0.2239  0.9746  0.0000
              Bcc     0.8801   118.099    42.140    39.393  0.9746 -0.2239  0.0000
 
              Baa    -0.2865   -38.451   -13.720   -12.826  0.0000  0.0000  1.0000
     3 C(13)  Bbb    -0.0227    -3.048    -1.088    -1.017  0.0125  0.9999 -0.0000
              Bcc     0.3093    41.499    14.808    13.842  0.9999 -0.0125 -0.0000
 
              Baa    -0.1141   -15.315    -5.465    -5.109 -0.0000 -0.0000  1.0000
     4 C(13)  Bbb    -0.0921   -12.364    -4.412    -4.124  0.0126  0.9999  0.0000
              Bcc     0.2063    27.679     9.877     9.233  0.9999 -0.0126  0.0000
 
              Baa    -0.0631    -8.474    -3.024    -2.826  0.0000 -0.0000  1.0000
     5 C(13)  Bbb    -0.0000    -0.006    -0.002    -0.002  0.0713  0.9975  0.0000
              Bcc     0.0632     8.480     3.026     2.829  0.9975 -0.0713 -0.0000
 
              Baa    -0.0064    -3.433    -1.225    -1.145  0.9964 -0.0593 -0.0613
     6 H(1)   Bbb    -0.0010    -0.510    -0.182    -0.170  0.0837  0.5426  0.8358
              Bcc     0.0074     3.943     1.407     1.315  0.0163  0.8379 -0.5456
 
              Baa    -0.0064    -3.433    -1.225    -1.145  0.9964 -0.0593  0.0613
     7 H(1)   Bbb    -0.0010    -0.510    -0.182    -0.170 -0.0837 -0.5426  0.8358
              Bcc     0.0074     3.943     1.407     1.315  0.0163  0.8379  0.5456
 
              Baa    -0.0091    -4.840    -1.727    -1.615  0.0000  0.0000  1.0000
     8 H(1)   Bbb    -0.0047    -2.531    -0.903    -0.844  0.7528  0.6582  0.0000
              Bcc     0.0138     7.372     2.630     2.459 -0.6582  0.7528 -0.0000
 

 ---------------------------------------------------------------------------------

 No NMR shielding tensors so no spin-rotation constants.
 Leave Link  601 at Tue Jul 19 16:39:43 2016, MaxMem=    33554432 cpu:         0.8
 (Enter /home/proyectos/fulerenos/M3C-v2.0/M3C-deps_CCC/g09-AM64L-G09RevC.01/l701.exe)
 Compute integral second derivatives.
 ... and contract with generalized density number  0.
 Leave Link  701 at Tue Jul 19 16:39:44 2016, MaxMem=    33554432 cpu:         0.9
 (Enter /home/proyectos/fulerenos/M3C-v2.0/M3C-deps_CCC/g09-AM64L-G09RevC.01/l702.exe)
 L702 exits ... SP integral derivatives will be done elsewhere.
 Leave Link  702 at Tue Jul 19 16:39:45 2016, MaxMem=    33554432 cpu:         0.1
 (Enter /home/proyectos/fulerenos/M3C-v2.0/M3C-deps_CCC/g09-AM64L-G09RevC.01/l703.exe)
 Compute integral second derivatives, UseDBF=F ICtDFT=           0.
 Integral derivatives from FoFJK, PRISM(SPDF).
 Calling FoFJK, ICntrl=    100127 FMM=F ISym2X=1 I1Cent= 0 IOpClX= 1 NMat=1 NMatS=1 NMatT=0.
 FoFJK:  IHMeth= 1 ICntrl=  100127 DoSepK=F KAlg= 0 I1Cent=   0 FoldK=F
 IRaf=         0 NMat=   1 IRICut=       1 DoRegI=T DoRafI=F ISym2E= 1.
 FoFCou: FMM=F IPFlag=           0 FMFlag=      100000 FMFlg1=         800
         NFxFlg=           0 DoJE=F BraDBF=F KetDBF=F FulRan=T
         wScrn=  0.000000 ICntrl=  100127 IOpCl=  1 I1Cent=           0 NGrid=           0
         NMat0=    1 NMatS0=      1 NMatT0=    0 NMatD0=    1 NMtDS0=    0 NMtDT0=    0
 Petite list used in FoFCou.
 Leave Link  703 at Tue Jul 19 16:53:38 2016, MaxMem=    33554432 cpu:       833.6
 (Enter /home/proyectos/fulerenos/M3C-v2.0/M3C-deps_CCC/g09-AM64L-G09RevC.01/l716.exe)
 Dipole        =-1.41146878D-01-1.66328653D+00-6.00434955D-17
 Polarizability= 3.11564195D+01 5.80468397D-01 9.52780894D+01
                -1.55552170D-09-9.70301606D-08 2.52730274D+01
 Full mass-weighted force constant matrix:
 Low frequencies ---  -16.0718   -4.6957   -2.6620   -0.0004    0.0002    0.0057
 Low frequencies ---   71.4534  205.0845  213.9067
 Diagonal vibrational polarizability:
       25.1774056      31.3656793      94.4580497
 Harmonic frequencies (cm**-1), IR intensities (KM/Mole), Raman scattering
 activities (A**4/AMU), depolarization ratios for plane and unpolarized
 incident light, reduced masses (AMU), force constants (mDyne/A),
 and normal coordinates:
                      1                      2                      3
                     A"                     A'                     A"
 Frequencies --     71.2753               205.0845               213.9066
 Red. masses --      1.2975                 3.5332                 2.4119
 Frc consts  --      0.0039                 0.0876                 0.0650
 IR Inten    --     12.7535                13.5589                23.2535
  Atom  AN      X      Y      Z        X      Y      Z        X      Y      Z
     1   6     0.00  -0.00   0.11    -0.10   0.18   0.00    -0.00   0.00  -0.11
     2   6     0.00   0.00  -0.11    -0.11  -0.18   0.00    -0.00  -0.00  -0.12
     3   6    -0.00  -0.00   0.00     0.25  -0.00  -0.00     0.00  -0.00   0.19
     4   6    -0.00  -0.00   0.00     0.23  -0.00  -0.00     0.00  -0.00   0.24
     5   6     0.00   0.00  -0.03    -0.17  -0.01   0.00    -0.00  -0.00  -0.10
     6   1     0.50   0.01   0.36    -0.36   0.28   0.02     0.05  -0.50  -0.36
     7   1    -0.50  -0.01   0.36    -0.36   0.28  -0.02    -0.05   0.50  -0.36
     8   1     0.00   0.00  -0.46    -0.39  -0.46   0.00    -0.00  -0.00  -0.33
                      4                      5                      6
                     A"                     A'                     A'
 Frequencies --    369.8536               411.6387               644.2607
 Red. masses --      1.9754                 2.1088                 2.3605
 Frc consts  --      0.1592                 0.2105                 0.5773
 IR Inten    --     17.0174                21.1213                65.1415
  Atom  AN      X      Y      Z        X      Y      Z        X      Y      Z
     1   6    -0.00   0.00  -0.07     0.00   0.12  -0.00    -0.03   0.20   0.00
     2   6     0.00   0.00  -0.06    -0.00  -0.12   0.00     0.05   0.12   0.00
     3   6    -0.00   0.00   0.24     0.19   0.00   0.00     0.02   0.03  -0.00
     4   6     0.00  -0.00  -0.02    -0.17   0.00  -0.00    -0.09  -0.10   0.00
     5   6     0.00  -0.00  -0.14    -0.08   0.00  -0.00     0.12  -0.18  -0.00
     6   1    -0.11   0.63   0.19     0.23  -0.40  -0.02    -0.41  -0.26  -0.37
     7   1     0.11  -0.63   0.19     0.23  -0.40   0.02    -0.41  -0.26   0.37
     8   1    -0.00  -0.00   0.18     0.25   0.64  -0.00    -0.02  -0.35   0.00
                      7                      8                      9
                     A'                     A"                     A'
 Frequencies --    661.8967               703.2887               753.6776
 Red. masses --      2.6340                 4.8267                 1.6023
 Frc consts  --      0.6799                 1.4066                 0.5362
 IR Inten    --     60.6971                56.5219                86.0656
  Atom  AN      X      Y      Z        X      Y      Z        X      Y      Z
     1   6    -0.01   0.07   0.00     0.00  -0.00   0.04    -0.05  -0.11   0.00
     2   6    -0.03   0.20  -0.00     0.00  -0.00   0.06    -0.02   0.07  -0.00
     3   6    -0.03   0.06  -0.00     0.00  -0.00  -0.31     0.01  -0.02  -0.00
     4   6     0.15  -0.11   0.00    -0.00   0.00   0.42     0.16   0.04   0.00
     5   6    -0.17  -0.18  -0.00     0.00   0.00  -0.27    -0.06   0.05  -0.00
     6   1     0.48  -0.24   0.37     0.09   0.39   0.13    -0.28  -0.40  -0.37
     7   1     0.48  -0.24  -0.37    -0.09  -0.39   0.13    -0.28  -0.40   0.37
     8   1    -0.00   0.01   0.00     0.00   0.00   0.54     0.10   0.44  -0.00
                     10                     11                     12
                     A"                     A'                     A'
 Frequencies --    838.4991               954.7389              1091.8657
 Red. masses --      1.1021                 8.1401                 1.1785
 Frc consts  --      0.4566                 4.3717                 0.8278
 IR Inten    --     91.3787                77.5509               334.0447
  Atom  AN      X      Y      Z        X      Y      Z        X      Y      Z
     1   6    -0.00  -0.00  -0.02    -0.21  -0.35  -0.00    -0.02   0.04   0.00
     2   6     0.00  -0.00   0.00    -0.21   0.36   0.00     0.03   0.02  -0.00
     3   6     0.00   0.00   0.04     0.50   0.00   0.00    -0.02  -0.04   0.00
     4   6    -0.00   0.00  -0.06    -0.20  -0.03  -0.00     0.02  -0.07   0.00
     5   6     0.00   0.00  -0.05     0.11  -0.03  -0.00    -0.00  -0.07  -0.00
     6   1     0.32  -0.28   0.08     0.02   0.36   0.14    -0.22   0.41   0.09
     7   1    -0.32   0.28   0.08     0.02   0.36  -0.14    -0.22   0.41  -0.09
     8   1     0.00   0.00   0.79     0.01  -0.23   0.00     0.31   0.66   0.00
                     13                     14                     15
                     A'                     A'                     A'
 Frequencies --   1264.4159              1521.9120              1743.2955
 Red. masses --      8.1701                10.7882                10.7832
 Frc consts  --      7.6958                14.7224                19.3081
 IR Inten    --     33.6686                14.5926               836.0724
  Atom  AN      X      Y      Z        X      Y      Z        X      Y      Z
     1   6     0.37  -0.16   0.00     0.49   0.20  -0.00     0.11   0.04  -0.00
     2   6    -0.37  -0.16  -0.00    -0.49   0.21   0.00    -0.11   0.05  -0.00
     3   6    -0.00   0.52   0.00    -0.00  -0.46   0.00    -0.00  -0.36   0.00
     4   6     0.00   0.01   0.00     0.00  -0.22  -0.00    -0.01   0.73   0.00
     5   6     0.03  -0.24   0.00     0.00   0.27  -0.00     0.01  -0.45  -0.00
     6   1    -0.32   0.04  -0.11     0.02   0.03  -0.22    -0.07  -0.05   0.21
     7   1    -0.32   0.04   0.11     0.02   0.03   0.22    -0.07  -0.05  -0.21
     8   1     0.28   0.21  -0.00    -0.10   0.01   0.00     0.08  -0.03   0.00
                     16                     17                     18
                     A"                     A'                     A'
 Frequencies --   2174.3320              2302.5320              2443.4533
 Red. masses --      1.0657                 1.0788                 1.0605
 Frc consts  --      2.9686                 3.3697                 3.7306
 IR Inten    --    580.0435              1674.5010              1334.3230
  Atom  AN      X      Y      Z        X      Y      Z        X      Y      Z
     1   6     0.00   0.00  -0.00     0.01   0.00  -0.00    -0.00   0.00   0.00
     2   6    -0.00   0.00   0.00    -0.01   0.00   0.00     0.00   0.00  -0.00
     3   6    -0.00  -0.00  -0.00     0.00  -0.00  -0.00    -0.00  -0.01  -0.00
     4   6     0.00   0.00  -0.01     0.00  -0.01  -0.00    -0.00   0.01   0.00
     5   6    -0.00  -0.00  -0.07     0.06   0.05  -0.00    -0.06   0.04   0.00
     6   1    -0.40  -0.31   0.49    -0.34  -0.27   0.54    -0.09  -0.04   0.08
     7   1     0.40   0.31   0.49    -0.34  -0.27  -0.54    -0.09  -0.04  -0.08
     8   1     0.00  -0.00  -0.06    -0.12   0.08   0.00     0.89  -0.41  -0.00

 -------------------
 - Thermochemistry -
 -------------------
 Temperature   298.150 Kelvin.  Pressure   1.00000 Atm.
 Atom     1 has atomic number  6 and mass  12.00000
 Atom     2 has atomic number  6 and mass  12.00000
 Atom     3 has atomic number  6 and mass  12.00000
 Atom     4 has atomic number  6 and mass  12.00000
 Atom     5 has atomic number  6 and mass  12.00000
 Atom     6 has atomic number  1 and mass   1.00783
 Atom     7 has atomic number  1 and mass   1.00783
 Atom     8 has atomic number  1 and mass   1.00783
 Molecular mass:    63.02348 amu.
 Principal axes and moments of inertia in atomic units:
                           1         2         3
     Eigenvalues --    52.20087 597.29835 638.25201
           X            0.00269   1.00000   0.00000
           Y            1.00000  -0.00269   0.00000
           Z           -0.00000  -0.00000   1.00000
 This molecule is an asymmetric top.
 Rotational symmetry number  1.
 Rotational temperatures (Kelvin)      1.65924     0.14501     0.13570
 Rotational constants (GHZ):          34.57301     3.02151     2.82763
 Zero-point vibrational energy     109876.6 (Joules/Mol)
                                   26.26113 (Kcal/Mol)
 Warning -- explicit consideration of   5 degrees of freedom as
           vibrations may cause significant error
 Vibrational temperatures:    102.55   295.07   307.76   532.14   592.26
          (Kelvin)            926.95   952.32  1011.87  1084.37  1206.41
                             1373.65  1570.95  1819.21  2189.69  2508.21
                             3128.37  3312.83  3515.58
 
 Zero-point correction=                           0.041850 (Hartree/Particle)
 Thermal correction to Energy=                    0.047831
 Thermal correction to Enthalpy=                  0.048775
 Thermal correction to Gibbs Free Energy=         0.012223
 Sum of electronic and zero-point Energies=           -190.321850
 Sum of electronic and thermal Energies=              -190.315868
 Sum of electronic and thermal Enthalpies=            -190.314924
 Sum of electronic and thermal Free Energies=         -190.351476
 
                     E (Thermal)             CV                S
                      KCal/Mol        Cal/Mol-Kelvin    Cal/Mol-Kelvin
 Total                   30.015             19.542             76.930
 Electronic               0.000              0.000              2.183
 Translational            0.889              2.981             38.342
 Rotational               0.889              2.981             24.502
 Vibrational             28.237             13.580             11.903
 Vibration     1          0.598              1.968              4.118
 Vibration     2          0.640              1.833              2.087
 Vibration     3          0.644              1.820              2.010
 Vibration     4          0.742              1.534              1.080
 Vibration     5          0.776              1.445              0.921
                       Q            Log10(Q)             Ln(Q)
 Total Bot       0.238600D-05         -5.622330        -12.945893
 Total V=0       0.423827D+14         13.627188         31.377761
 Vib (Bot)       0.800872D-18        -18.096437        -41.668585
 Vib (Bot)    1  0.289310D+01          0.461364          1.062330
 Vib (Bot)    2  0.970349D+00         -0.013072         -0.030100
 Vib (Bot)    3  0.927054D+00         -0.032895         -0.075744
 Vib (Bot)    4  0.492296D+00         -0.307774         -0.708676
 Vib (Bot)    5  0.429272D+00         -0.367267         -0.845664
 Vib (V=0)       0.142259D+02          1.153081          2.655068
 Vib (V=0)    1  0.343599D+01          0.536052          1.234306
 Vib (V=0)    2  0.159159D+01          0.201832          0.464736
 Vib (V=0)    3  0.155329D+01          0.191254          0.440378
 Vib (V=0)    4  0.120168D+01          0.079789          0.183721
 Vib (V=0)    5  0.115900D+01          0.064082          0.147553
 Electronic      0.300000D+01          0.477121          1.098612
 Translational   0.196657D+08          7.293709         16.794385
 Rotational      0.504983D+05          4.703277         10.829696
 
                                                              b3lyp opt
                                                             IR Spectrum
 
     2       2     2                      1          1             1        1                                                        
     4       3     1                      7          5             2        0      9     8   7  7 66           4 3       22          
     4       0     7                      4          2             6        9      5     3   5  0 64           1 7       10      7   
     3       3     4                      3          2             4        2      5     8   4  3 24           2 0       45      1   
 
     X       X     X                      X          X             X        X      X     X   X  X XX           X X       XX      X   
     X       X     X                      X                                 X                                                        
     X       X     X                      X                                 X                                                        
     X       X     X                      X                                 X                                                        
     X       X     X                      X                                                                                          
     X       X     X                      X                                                                                          
     X       X     X                      X                                                                                          
     X       X                            X                                                                                          
     X       X                            X                                                                                          
     X       X                            X                                                                                          
     X       X                                                                                                                       
     X       X                                                                                                                       
     X       X                                                                                                                       
     X       X                                                                                                                       
     X       X                                                                                                                       
     X       X                                                                                                                       
             X                                                                                                                       
             X                                                                                                                       
             X                                                                                                                       
             X                                                                                                                       
 
 ***** Axes restored to original set *****
 -------------------------------------------------------------------
 Center     Atomic                   Forces (Hartrees/Bohr)
 Number     Number              X              Y              Z
 -------------------------------------------------------------------
      1        6          -0.000075874    0.000222583    0.000000650
      2        6          -0.000020000   -0.000187652   -0.000000550
      3        6           0.000072555   -0.000038781   -0.000000112
      4        6           0.000090148    0.000008503    0.000000026
      5        6          -0.000057673    0.000016934    0.000000049
      6        1          -0.000000760    0.000000528   -0.000015976
      7        1          -0.000000761    0.000000435    0.000015979
      8        1          -0.000007635   -0.000022549   -0.000000066
 -------------------------------------------------------------------
 Cartesian Forces:  Max     0.000222583 RMS     0.000067876
 Z-matrix is all fixed cartesians, so copy forces.
 Force constants in Cartesian coordinates: 
                1             2             3             4             5 
      1  0.230830D+00
      2 -0.104992D+00  0.483859D+00
      3 -0.303602D-03  0.139961D-02  0.512842D-02
      4  0.170995D-01 -0.127172D-02 -0.350294D-05  0.233480D+00
      5  0.752952D-03 -0.422952D+00 -0.124917D-02  0.105634D+00  0.483305D+00
      6  0.241905D-05 -0.124920D-02  0.379949D-02  0.312970D-03  0.140106D-02
      7 -0.214016D+00  0.111509D+00  0.323166D-03 -0.216484D+00 -0.111836D+00
      8  0.962161D-01 -0.659797D-01 -0.140242D-03 -0.961252D-01 -0.660711D-01
      9  0.278400D-03 -0.139987D-03 -0.175274D-01 -0.284652D-03 -0.143162D-03
     10 -0.446785D-01 -0.111134D-01 -0.334562D-04 -0.448301D-01  0.111159D-01
     11  0.244631D-02  0.691762D-02 -0.769589D-05 -0.345949D-02  0.116473D-01
     12  0.626681D-05 -0.792997D-05  0.956379D-02 -0.110418D-04  0.301444D-05
     13  0.129448D-01 -0.475799D-04  0.000000D+00  0.127906D-01  0.979396D-04
     14  0.925415D-02  0.214173D-01  0.508987D-04 -0.195502D-02 -0.320761D-01
     15  0.272320D-04  0.507342D-04  0.408122D-02 -0.537153D-05 -0.691185D-04
     16 -0.717878D-03  0.507094D-02 -0.157301D-02  0.145119D-03 -0.419993D-02
     17 -0.213238D-03 -0.983570D-02 -0.390767D-03 -0.125560D-03  0.103662D-01
     18 -0.203945D-02 -0.265035D-02 -0.107972D-02 -0.227035D-02  0.197987D-02
     19 -0.717997D-03  0.506155D-02  0.160268D-02  0.145071D-03 -0.419504D-02
     20 -0.225186D-03 -0.985320D-02  0.339396D-03 -0.138864D-03  0.103750D-01
     21  0.203818D-02  0.259915D-02 -0.106209D-02  0.226951D-02 -0.193068D-02
     22 -0.744375D-03 -0.421604D-02 -0.123107D-04 -0.234622D-02  0.263094D-02
     23 -0.323889D-02 -0.357358D-02 -0.201589D-05 -0.255765D-02  0.540547D-02
     24 -0.944791D-05 -0.202479D-05 -0.290372D-02 -0.756959D-05  0.818004D-05
                6             7             8             9            10 
      6  0.526176D-02
      7 -0.330632D-03  0.741940D+00
      8 -0.142900D-03  0.131245D-02  0.177836D+00
      9 -0.177945D-01  0.146573D-04  0.266983D-03  0.866353D-01
     10  0.316257D-04 -0.270470D+00  0.118129D-03 -0.283957D-05  0.922707D+00
     11  0.276531D-05 -0.112879D-02 -0.770868D-01  0.324660D-05  0.953473D-02
     12  0.106804D-01 -0.647812D-05  0.326466D-05 -0.782014D-01  0.412321D-04
     13  0.000000D+00 -0.349783D-01 -0.978762D-03 -0.386893D-05 -0.512638D+00
     14 -0.691567D-04 -0.173535D-01  0.346009D-01  0.239980D-04  0.126184D-01
     15 -0.845900D-02 -0.518310D-04  0.242649D-04  0.263052D-01  0.292569D-04
     16  0.812113D-03 -0.458165D-02 -0.282796D-02  0.437543D-02 -0.126398D-01
     17 -0.423049D-03  0.378340D-02  0.540199D-03  0.326399D-02 -0.272337D-02
     18  0.194856D-02  0.668397D-02  0.285847D-02 -0.133585D-02 -0.946415D-02
     19 -0.836746D-03 -0.458130D-02 -0.280220D-02 -0.439202D-02 -0.126406D-01
     20  0.472377D-03  0.382257D-02  0.575977D-03 -0.325267D-02 -0.277871D-02
     21  0.193978D-02 -0.666180D-02 -0.284737D-02 -0.137200D-02  0.944779D-02
     22  0.761932D-05  0.317099D-02  0.508746D-02  0.148877D-04 -0.248092D-01
     23  0.809989D-05  0.989166D-02 -0.441527D-02 -0.223950D-04 -0.167716D-01
     24  0.262354D-02  0.289659D-04 -0.224710D-04  0.329065D-02 -0.494572D-04
               11            12            13            14            15 
     11  0.122924D+00
     12  0.229033D-04  0.115154D+00
     13 -0.588789D-02 -0.249673D-04  0.650330D+00
     14 -0.563170D-01 -0.361558D-04  0.241148D-02  0.271174D+00
     15 -0.364687D-04 -0.438948D-01  0.146950D-04  0.250004D-03  0.185778D+00
     16  0.939582D-02 -0.142783D-01 -0.399636D-01  0.278301D-01 -0.420262D-01
     17 -0.356424D-02  0.564768D-03  0.283441D-01 -0.447977D-01  0.525756D-01
     18 -0.157509D-02 -0.504191D-02 -0.415521D-01  0.638543D-01 -0.757596D-01
     19  0.931202D-02  0.143328D-01 -0.399664D-01  0.275857D-01  0.421896D-01
     20 -0.357020D-02 -0.556245D-03  0.281021D-01 -0.441172D-01 -0.523895D-01
     21  0.158402D-02 -0.503516D-02  0.417186D-01 -0.636681D-01 -0.764374D-01
     22 -0.202127D-01 -0.595214D-04 -0.485182D-01 -0.603912D-01 -0.177375D-03
     23 -0.950954D-03  0.638007D-05 -0.520414D-01 -0.149884D+00 -0.405597D-03
     24  0.631943D-05 -0.322492D-02 -0.152944D-03 -0.405735D-03 -0.116139D-01
               16            17            18            19            20 
     16  0.451757D-01
     17 -0.346965D-01  0.599800D-01
     18  0.510405D-01 -0.663540D-01  0.103760D+00
     19  0.557740D-02  0.251705D-02 -0.497588D-03  0.451790D-01
     20  0.251412D-02  0.877154D-03 -0.670632D-03 -0.343993D-01  0.592046D-01
     21  0.513154D-03  0.792208D-03 -0.198752D-01 -0.512447D-01  0.660920D-01
     22  0.700483D-02  0.311408D-02 -0.190083D-02  0.700480D-02  0.310323D-02
     23 -0.308657D-02 -0.135659D-01  0.255746D-02 -0.307978D-02 -0.134922D-01
     24  0.113633D-02  0.997121D-02 -0.261612D-02 -0.115406D-02 -0.100348D-01
               21            22            23            24 
     21  0.104532D+00
     22  0.191935D-02  0.592374D-01
     23 -0.262124D-02  0.708843D-01  0.180477D+00
     24 -0.268981D-02  0.208183D-03  0.479302D-03  0.171342D-01
 Leave Link  716 at Tue Jul 19 16:53:39 2016, MaxMem=    33554432 cpu:         0.1
 (Enter /home/proyectos/fulerenos/M3C-v2.0/M3C-deps_CCC/g09-AM64L-G09RevC.01/l103.exe)

 GradGradGradGradGradGradGradGradGradGradGradGradGradGradGradGradGradGrad
 Berny optimization.
 Search for a local minimum.
 Step number   1 out of a maximum of    2
 All quantities printed in internal units (Hartrees-Bohrs-Radians)
 Second derivative matrix not updated -- analytic derivatives used.
 ITU=  0
     Eigenvalues ---    0.00049   0.00435   0.00605   0.02150   0.02660
     Eigenvalues ---    0.03450   0.04549   0.04734   0.15681   0.16224
     Eigenvalues ---    0.18775   0.30471   0.32733   0.37206   0.43358
     Eigenvalues ---    0.72702   1.06303   1.39119
 Angle between quadratic step and forces=  47.22 degrees.
 ClnCor:  largest displacement from symmetrization is 7.69D-09 for atom     7.
 Linear search not attempted -- first point.
 ClnCor:  largest displacement from symmetrization is 2.22D-15 for atom     8.
 B after Tr=    -0.000012    0.000010    0.000000
         Rot=    1.000000    0.000000    0.000000   -0.000003 Ang=  -0.00 deg.
 Variable       Old X    -DE/DX   Delta X   Delta X   Delta X     New X
                                 (Linear)    (Quad)   (Total)
    X1       -3.45175  -0.00008   0.00000  -0.00013  -0.00015  -3.45190
    Y1        1.28565   0.00022   0.00000   0.00024   0.00023   1.28588
    Z1        0.00376   0.00000   0.00000   0.00000   0.00000   0.00376
    X2       -3.45456  -0.00002   0.00000  -0.00000  -0.00000  -3.45457
    Y2       -1.28650  -0.00019   0.00000  -0.00018  -0.00019  -1.28669
    Z2       -0.00377  -0.00000   0.00000  -0.00000  -0.00000  -0.00377
    X3       -1.09939   0.00007   0.00000   0.00003   0.00002  -1.09937
    Y3       -0.00550  -0.00004   0.00000  -0.00012  -0.00012  -0.00562
    Z3        0.00002  -0.00000   0.00000  -0.00000  -0.00000   0.00002
    X4        1.54033   0.00009   0.00000   0.00008   0.00007   1.54039
    Y4        0.00004   0.00001   0.00000   0.00005   0.00007   0.00011
    Z4        0.00008   0.00000   0.00000   0.00000   0.00000   0.00008
    X5        4.01075  -0.00006   0.00000  -0.00004  -0.00005   4.01069
    Y5        0.04728   0.00002   0.00000   0.00012   0.00015   0.04743
    Z5        0.00026   0.00000   0.00000   0.00000   0.00000   0.00026
    X6        4.91033  -0.00000   0.00000   0.00002   0.00001   4.91034
    Y6       -1.15018   0.00000   0.00000  -0.00009  -0.00005  -1.15023
    Z6        1.66709  -0.00002   0.00000  -0.00024  -0.00024   1.66685
    X7        4.91038  -0.00000   0.00000   0.00002   0.00001   4.91040
    Y7       -1.14041   0.00000   0.00000  -0.00009  -0.00005  -1.14046
    Z7       -1.67353   0.00002   0.00000   0.00024   0.00024  -1.67329
    X8        4.90707  -0.00001   0.00000   0.00012   0.00010   4.90717
    Y8        2.04478  -0.00002   0.00000  -0.00008  -0.00004   2.04474
    Z8        0.00612  -0.00000   0.00000  -0.00000  -0.00000   0.00612
         Item               Value     Threshold  Converged?
 Maximum Force            0.000223     0.000450     YES
 RMS     Force            0.000068     0.000300     YES
 Maximum Displacement     0.000242     0.001800     YES
 RMS     Displacement     0.000111     0.001200     YES
 Predicted change in Energy=-6.202484D-08
 Optimization completed.
    -- Stationary point found.
 GradGradGradGradGradGradGradGradGradGradGradGradGradGradGradGradGradGrad

 Leave Link  103 at Tue Jul 19 16:53:39 2016, MaxMem=    33554432 cpu:         0.1
 (Enter /home/proyectos/fulerenos/M3C-v2.0/M3C-deps_CCC/g09-AM64L-G09RevC.01/l9999.exe)
 1\1\GINC-EINSTENIO\Freq\UB3LYP\6-311++G(3df,2p)\C5H3(3+,3)\ROOT\19-Jul
 -2016\0\\#p b3lyp/6-311++G(3df,2p) freq symmetry=Loose\\b3lyp opt\\3,3
 \C,-1.826589036,0.680336659,0.0019881809\C,-1.828074965,-0.680786838,-
 0.0019960742\C,-0.581772999,-0.002910891,0.0000087374\C,0.815104999,0.
 000020861,0.000040361\C,2.122397004,0.025018644,0.0001350978\H,2.59843
 3386,-0.608651328,0.882187287\H,2.5984625461,-0.603476738,-0.885595950
 2\H,2.596712039,1.082051844,0.0032370304\\Version=EM64L-G09RevE.01\Sta
 te=3-A'\HF=-190.3636994\S2=2.019308\S2-1=0.\S2A=2.000165\RMSD=9.077e-0
 9\RMSF=6.788e-05\ZeroPoint=0.0418498\Thermal=0.0478312\Dipole=1.663971
 9,-0.1328229,-0.0003613\DipoleDeriv=1.0031881,-0.4354929,-0.0012672,-0
 .1682423,0.8238104,0.000808,-0.0004847,0.0008036,0.5468471,0.9909564,0
 .4492928,0.001323,0.159598,0.6975177,0.0005352,0.000475,0.00054,0.5155
 759,-1.4117172,-0.033018,-0.0001252,0.0062853,-0.1272021,-0.0013124,-0
 .0000101,-0.0013131,0.3211862,2.5323813,0.010461,0.0000617,0.0825484,0
 .6254694,-0.000071,0.0002727,-0.0000722,0.6501816,-2.1824302,0.0486287
 ,0.0001145,0.1093138,-0.5255081,-0.0000873,0.0002918,-0.0000883,-0.495
 0717,0.7248641,-0.1082987,0.1505967,-0.4165895,0.4498154,-0.1551235,0.
 4965965,-0.1094549,0.5716615,0.7248854,-0.1074189,-0.1512231,-0.413680
 2,0.4482707,0.1543875,-0.4990217,0.1087291,0.5731848,0.6178723,0.17584
 6,0.0005197,0.6407664,0.6078266,0.0008635,0.0018806,0.0008559,0.316434
 6\Polar=95.2822926,-0.2596322,31.1521659,0.0003949,0.0172049,25.273077
 7\PG=CS [SG(C5H1),X(H2)]\NImag=0\\0.23083048,-0.10499222,0.48385938,-0
 .00030360,0.00139961,0.00512842,0.01709945,-0.00127172,-0.00000350,0.2
 3348003,0.00075295,-0.42295215,-0.00124917,0.10563355,0.48330531,0.000
 00242,-0.00124920,0.00379949,0.00031297,0.00140106,0.00526176,-0.21401
 593,0.11150850,0.00032317,-0.21648396,-0.11183632,-0.00033063,0.741940
 36,0.09621612,-0.06597968,-0.00014024,-0.09612524,-0.06607110,-0.00014
 290,0.00131245,0.17783584,0.00027840,-0.00013999,-0.01752739,-0.000284
 65,-0.00014316,-0.01779453,0.00001466,0.00026698,0.08663535,-0.0446785
 3,-0.01111343,-0.00003346,-0.04483005,0.01111591,0.00003163,-0.2704701
 7,0.00011813,-0.00000284,0.92270676,0.00244631,0.00691762,-0.00000770,
 -0.00345949,0.01164734,0.00000277,-0.00112879,-0.07708683,0.00000325,0
 .00953473,0.12292428,0.00000627,-0.00000793,0.00956379,-0.00001104,0.0
 0000301,0.01068040,-0.00000648,0.00000326,-0.07820142,0.00004123,0.000
 02290,0.11515407,0.01294478,-0.00004758,0.00000003,0.01279055,0.000097
 94,0.00000063,-0.03497833,-0.00097876,-0.00000387,-0.51263835,-0.00588
 789,-0.00002497,0.65032958,0.00925415,0.02141731,0.00005090,-0.0019550
 2,-0.03207610,-0.00006916,-0.01735347,0.03460086,0.00002400,0.01261837
 ,-0.05631700,-0.00003616,0.00241148,0.27117430,0.00002723,0.00005073,0
 .00408122,-0.00000537,-0.00006912,-0.00845900,-0.00005183,0.00002426,0
 .02630520,0.00002926,-0.00003647,-0.04389484,0.00001470,0.00025000,0.1
 8577833,-0.00071788,0.00507094,-0.00157301,0.00014512,-0.00419993,0.00
 081211,-0.00458165,-0.00282796,0.00437543,-0.01263982,0.00939582,-0.01
 427831,-0.03996364,0.02783007,-0.04202625,0.04517566,-0.00021324,-0.00
 983570,-0.00039077,-0.00012556,0.01036620,-0.00042305,0.00378340,0.000
 54020,0.00326399,-0.00272337,-0.00356424,0.00056477,0.02834413,-0.0447
 9771,0.05257564,-0.03469649,0.05998004,-0.00203945,-0.00265035,-0.0010
 7972,-0.00227035,0.00197987,0.00194856,0.00668397,0.00285847,-0.001335
 85,-0.00946415,-0.00157509,-0.00504191,-0.04155214,0.06385427,-0.07575
 963,0.05104054,-0.06635400,0.10375989,-0.00071800,0.00506155,0.0016026
 8,0.00014507,-0.00419504,-0.00083675,-0.00458130,-0.00280220,-0.004392
 02,-0.01264060,0.00931202,0.01433282,-0.03996641,0.02758566,0.04218965
 ,0.00557740,0.00251705,-0.00049759,0.04517903,-0.00022519,-0.00985320,
 0.00033940,-0.00013886,0.01037503,0.00047238,0.00382257,0.00057598,-0.
 00325267,-0.00277871,-0.00357020,-0.00055625,0.02810212,-0.04411718,-0
 .05238947,0.00251412,0.00087715,-0.00067063,-0.03439927,0.05920465,0.0
 0203818,0.00259915,-0.00106209,0.00226951,-0.00193068,0.00193978,-0.00
 666180,-0.00284737,-0.00137200,0.00944779,0.00158402,-0.00503516,0.041
 71856,-0.06366811,-0.07643740,0.00051315,0.00079221,-0.01987523,-0.051
 24474,0.06609203,0.10453191,-0.00074437,-0.00421604,-0.00001231,-0.002
 34622,0.00263094,0.00000762,0.00317099,0.00508746,0.00001489,-0.024809
 24,-0.02021271,-0.00005952,-0.04851817,-0.06039123,-0.00017738,0.00700
 483,0.00311408,-0.00190083,0.00700480,0.00310323,0.00191935,0.05923738
 ,-0.00323889,-0.00357358,-0.00000202,-0.00255765,0.00540547,0.00000810
 ,0.00989166,-0.00441527,-0.00002239,-0.01677163,-0.00095095,0.00000638
 ,-0.05204144,-0.14988447,-0.00040560,-0.00308657,-0.01356594,0.0025574
 6,-0.00307978,-0.01349222,-0.00262124,0.07088428,0.18047697,-0.0000094
 5,-0.00000202,-0.00290372,-0.00000757,0.00000818,0.00262354,0.00002897
 ,-0.00002247,0.00329065,-0.00004946,0.00000632,-0.00322492,-0.00015294
 ,-0.00040574,-0.01161387,0.00113633,0.00997121,-0.00261612,-0.00115406
 ,-0.01003478,-0.00268981,0.00020818,0.00047930,0.01713424\\0.00007587,
 -0.00022258,-0.00000065,0.00002000,0.00018765,0.00000055,-0.00007256,0
 .00003878,0.00000011,-0.00009015,-0.00000850,-0.00000003,0.00005767,-0
 .00001693,-0.00000005,0.00000076,-0.00000053,0.00001598,0.00000076,-0.
 00000043,-0.00001598,0.00000763,0.00002255,0.00000007\\\@


 FIREWORKS ENDED
 AND SPECTATORS GONE AWAY....
 AH, HOW VAST AND DARK
                     SHIKI
 Job cpu time:       0 days  0 hours 52 minutes 56.0 seconds.
 File lengths (MBytes):  RWF=     64 Int=      0 D2E=      0 Chk=      5 Scr=      1
 Normal termination of Gaussian 09 at Tue Jul 19 16:53:39 2016.
