 Entering Gaussian System, Link 0=/home/proyectos/fulerenos/M3C-v1.9/M3C-deps_CCC/g09-AM64L-G09RevC.01/g09
 Initial command:
 /home/proyectos/fulerenos/M3C-v1.9/M3C-deps_CCC/g09-AM64L-G09RevC.01/l1.exe "/scratch/naguirre/gaussian/Gau-30841.inp" -scrdir="/scratch/naguirre/gaussian/"
 Entering Link 1 = /home/proyectos/fulerenos/M3C-v1.9/M3C-deps_CCC/g09-AM64L-G09RevC.01/l1.exe PID=     30851.
  
 Copyright (c) 1988,1990,1992,1993,1995,1998,2003,2009,2015,
            Gaussian, Inc.  All Rights Reserved.
  
 This is part of the Gaussian(R) 09 program.  It is based on
 the Gaussian(R) 03 system (copyright 2003, Gaussian, Inc.),
 the Gaussian(R) 98 system (copyright 1998, Gaussian, Inc.),
 the Gaussian(R) 94 system (copyright 1995, Gaussian, Inc.),
 the Gaussian 92(TM) system (copyright 1992, Gaussian, Inc.),
 the Gaussian 90(TM) system (copyright 1990, Gaussian, Inc.),
 the Gaussian 88(TM) system (copyright 1988, Gaussian, Inc.),
 the Gaussian 86(TM) system (copyright 1986, Carnegie Mellon
 University), and the Gaussian 82(TM) system (copyright 1983,
 Carnegie Mellon University). Gaussian is a federally registered
 trademark of Gaussian, Inc.
  
 This software contains proprietary and confidential information,
 including trade secrets, belonging to Gaussian, Inc.
  
 This software is provided under written license and may be
 used, copied, transmitted, or stored only in accord with that
 written license.
  
 The following legend is applicable only to US Government
 contracts under FAR:
  
                    RESTRICTED RIGHTS LEGEND
  
 Use, reproduction and disclosure by the US Government is
 subject to restrictions as set forth in subparagraphs (a)
 and (c) of the Commercial Computer Software - Restricted
 Rights clause in FAR 52.227-19.
  
 Gaussian, Inc.
 340 Quinnipiac St., Bldg. 40, Wallingford CT 06492
  
  
 ---------------------------------------------------------------
 Warning -- This program may not be used in any manner that
 competes with the business of Gaussian, Inc. or will provide
 assistance to any competitor of Gaussian, Inc.  The licensee
 of this program is prohibited from giving any competitor of
 Gaussian, Inc. access to this program.  By using this program,
 the user acknowledges that Gaussian, Inc. is engaged in the
 business of creating and licensing software in the field of
 computational chemistry and represents and warrants to the
 licensee that it is not a competitor of Gaussian, Inc. and that
 it will not use this program in any manner prohibited above.
 ---------------------------------------------------------------
  

 Cite this work as:
 Gaussian 09, Revision E.01,
 M. J. Frisch, G. W. Trucks, H. B. Schlegel, G. E. Scuseria, 
 M. A. Robb, J. R. Cheeseman, G. Scalmani, V. Barone, B. Mennucci, 
 G. A. Petersson, H. Nakatsuji, M. Caricato, X. Li, H. P. Hratchian, 
 A. F. Izmaylov, J. Bloino, G. Zheng, J. L. Sonnenberg, M. Hada, 
 M. Ehara, K. Toyota, R. Fukuda, J. Hasegawa, M. Ishida, T. Nakajima, 
 Y. Honda, O. Kitao, H. Nakai, T. Vreven, J. A. Montgomery, Jr., 
 J. E. Peralta, F. Ogliaro, M. Bearpark, J. J. Heyd, E. Brothers, 
 K. N. Kudin, V. N. Staroverov, T. Keith, R. Kobayashi, J. Normand, 
 K. Raghavachari, A. Rendell, J. C. Burant, S. S. Iyengar, J. Tomasi, 
 M. Cossi, N. Rega, J. M. Millam, M. Klene, J. E. Knox, J. B. Cross, 
 V. Bakken, C. Adamo, J. Jaramillo, R. Gomperts, R. E. Stratmann, 
 O. Yazyev, A. J. Austin, R. Cammi, C. Pomelli, J. W. Ochterski, 
 R. L. Martin, K. Morokuma, V. G. Zakrzewski, G. A. Voth, 
 P. Salvador, J. J. Dannenberg, S. Dapprich, A. D. Daniels, 
 O. Farkas, J. B. Foresman, J. V. Ortiz, J. Cioslowski, 
 and D. J. Fox, Gaussian, Inc., Wallingford CT, 2013.
 
 ******************************************
 Gaussian 09:  EM64L-G09RevE.01 30-Nov-2015
                19-Jun-2016 
 ******************************************
 %NProcShared=4
 Will use up to    4 processors via shared memory.
 ---------------------------------------------
 #p b3lyp/6-311++G(3df,2p) freq symmetry=Loose
 ---------------------------------------------
 1/10=4,30=1,38=1/1,3;
 2/12=2,17=4,18=3,40=1/2;
 3/5=4,6=6,7=1216,11=2,16=1,25=1,30=1,71=2,74=-5,140=1/1,2,3;
 4//1;
 5/5=2,38=5,98=1/2;
 8/6=4,10=90,11=11/1;
 11/6=1,8=1,9=11,15=111,16=1/1,2,10;
 10/6=1/2;
 6/7=2,8=2,9=2,10=2,18=1,28=1/1;
 7/8=1,10=1,25=1/1,2,3,16;
 1/10=4,30=1/3;
 99//99;
 Leave Link    1 at Sun Jun 19 12:22:27 2016, MaxMem=           0 cpu:         0.2
 (Enter /home/proyectos/fulerenos/M3C-v1.9/M3C-deps_CCC/g09-AM64L-G09RevC.01/l101.exe)
 ---------
 b3lyp opt
 ---------
 Symbolic Z-matrix:
 Charge =  2 Multiplicity = 4
 C                     0.87384   0.07632  -0.06517 
 C                     2.11483  -0.13045   0.13072 
 H                     2.83963   0.70696   0.18768 
 H                     2.54925  -1.13992   0.26093 
 C                    -0.46019   0.33525  -0.35802 
 H                    -0.62304   1.04116  -1.21165 
 C                    -1.6753    0.31674   0.66261 
 C                    -1.64747  -0.69922  -0.24297 
 
 NAtoms=      8 NQM=        8 NQMF=       0 NMMI=      0 NMMIF=      0
                NMic=       0 NMicF=      0.
                    Isotopes and Nuclear Properties:
 (Nuclear quadrupole moments (NQMom) in fm**2, nuclear magnetic moments (NMagM)
  in nuclear magnetons)

  Atom         1           2           3           4           5           6           7           8
 IAtWgt=          12          12           1           1          12           1          12          12
 AtmWgt=  12.0000000  12.0000000   1.0078250   1.0078250  12.0000000   1.0078250  12.0000000  12.0000000
 NucSpn=           0           0           1           1           0           1           0           0
 AtZEff=   0.0000000   0.0000000   0.0000000   0.0000000   0.0000000   0.0000000   0.0000000   0.0000000
 NQMom=    0.0000000   0.0000000   0.0000000   0.0000000   0.0000000   0.0000000   0.0000000   0.0000000
 NMagM=    0.0000000   0.0000000   2.7928460   2.7928460   0.0000000   2.7928460   0.0000000   0.0000000
 AtZNuc=   6.0000000   6.0000000   1.0000000   1.0000000   6.0000000   1.0000000   6.0000000   6.0000000
 Leave Link  101 at Sun Jun 19 12:22:27 2016, MaxMem=    33554432 cpu:         0.6
 (Enter /home/proyectos/fulerenos/M3C-v1.9/M3C-deps_CCC/g09-AM64L-G09RevC.01/l103.exe)

 GradGradGradGradGradGradGradGradGradGradGradGradGradGradGradGradGradGrad
 Berny optimization.
 Initialization pass.
 Trust Radius=3.00D-01 FncErr=1.00D-07 GrdErr=1.00D-07
 Number of steps in this run=      2 maximum allowed number of steps=      2.
 GradGradGradGradGradGradGradGradGradGradGradGradGradGradGradGradGradGrad

 Leave Link  103 at Sun Jun 19 12:22:27 2016, MaxMem=    33554432 cpu:         0.1
 (Enter /home/proyectos/fulerenos/M3C-v1.9/M3C-deps_CCC/g09-AM64L-G09RevC.01/l202.exe)
                          Input orientation:                          
 ---------------------------------------------------------------------
 Center     Atomic      Atomic             Coordinates (Angstroms)
 Number     Number       Type             X           Y           Z
 ---------------------------------------------------------------------
      1          6           0        0.873836    0.076323   -0.065168
      2          6           0        2.114825   -0.130452    0.130724
      3          1           0        2.839632    0.706962    0.187684
      4          1           0        2.549252   -1.139920    0.260932
      5          6           0       -0.460194    0.335247   -0.358017
      6          1           0       -0.623035    1.041162   -1.211653
      7          6           0       -1.675303    0.316737    0.662607
      8          6           0       -1.647472   -0.699223   -0.242974
 ---------------------------------------------------------------------
                    Distance matrix (angstroms):
                    1          2          3          4          5
     1  C    0.000000
     2  C    1.273257   0.000000
     3  H    2.079902   1.108987   0.000000
     4  H    2.095855   1.106665   1.871005   0.000000
     5  C    1.390122   2.662042   3.365236   3.408223   0.000000
     6  H    2.118010   3.266578   3.749653   4.121775   1.119610
     7  C    2.661872   3.853303   4.556585   4.486653   1.586980
     8  C    2.643876   3.823353   4.721962   4.249780   1.578921
                    6          7          8
     6  H    0.000000
     7  C    2.268239   0.000000
     8  C    2.239810   1.361259   0.000000
 Stoichiometry    C5H3(2+,4)
 Framework group  C1[X(C5H3)]
 Deg. of freedom    18
 Full point group                 C1      NOp   1
 Largest Abelian subgroup         C1      NOp   1
 Largest concise Abelian subgroup C1      NOp   1
                         Standard orientation:                         
 ---------------------------------------------------------------------
 Center     Atomic      Atomic             Coordinates (Angstroms)
 Number     Number       Type             X           Y           Z
 ---------------------------------------------------------------------
      1          6           0        0.873836   -0.076323    0.065168
      2          6           0        2.114825    0.130452   -0.130724
      3          1           0        2.839632   -0.706962   -0.187684
      4          1           0        2.549252    1.139920   -0.260932
      5          6           0       -0.460194   -0.335247    0.358017
      6          1           0       -0.623035   -1.041162    1.211653
      7          6           0       -1.675303   -0.316737   -0.662607
      8          6           0       -1.647472    0.699223    0.242974
 ---------------------------------------------------------------------
 Rotational constants (GHZ):     24.1836466      3.2606079      3.1853186
 Leave Link  202 at Sun Jun 19 12:22:27 2016, MaxMem=    33554432 cpu:         0.5
 (Enter /home/proyectos/fulerenos/M3C-v1.9/M3C-deps_CCC/g09-AM64L-G09RevC.01/l301.exe)
 Standard basis: 6-311++G(3df,2p) (5D, 7F)
 Ernie: Thresh=  0.10000D-02 Tol=  0.10000D-05 Strict=F.
 There are   255 symmetry adapted cartesian basis functions of A   symmetry.
 There are   225 symmetry adapted basis functions of A   symmetry.
   225 basis functions,   326 primitive gaussians,   255 cartesian basis functions
    17 alpha electrons       14 beta electrons
       nuclear repulsion energy       120.3246368359 Hartrees.
 IExCor=  402 DFT=T Ex+Corr=B3LYP ExCW=0 ScaHFX=  0.200000
 ScaDFX=  0.800000  0.720000  1.000000  0.810000 ScalE2=  1.000000  1.000000
 IRadAn=      0 IRanWt=     -1 IRanGd=            0 ICorTp=0 IEmpDi=  4
 NAtoms=    8 NActive=    8 NUniq=    8 SFac= 1.00D+00 NAtFMM=   60 NAOKFM=F Big=F
 Integral buffers will be    131072 words long.
 Raffenetti 2 integral format.
 Two-electron integral symmetry is turned on.
 Leave Link  301 at Sun Jun 19 12:22:27 2016, MaxMem=    33554432 cpu:         0.3
 (Enter /home/proyectos/fulerenos/M3C-v1.9/M3C-deps_CCC/g09-AM64L-G09RevC.01/l302.exe)
 NPDir=0 NMtPBC=     1 NCelOv=     1 NCel=       1 NClECP=     1 NCelD=      1
         NCelK=      1 NCelE2=     1 NClLst=     1 CellRange=     0.0.
 One-electron integrals computed using PRISM.
 NBasis=   225 RedAO= T EigKep=  2.09D-06  NBF=   225
 NBsUse=   225 1.00D-06 EigRej= -1.00D+00 NBFU=   225
 Precomputing XC quadrature grid using
 IXCGrd= 4 IRadAn=           0 IRanWt=          -1 IRanGd=           0 AccXCQ= 0.00D+00.
 Generated NRdTot=       0 NPtTot=           0 NUsed=           0 NTot=          32
 NSgBfM=   255   255   255   255   255 MxSgAt=     8 MxSgA2=     8.
 Leave Link  302 at Sun Jun 19 12:22:28 2016, MaxMem=    33554432 cpu:         1.3
 (Enter /home/proyectos/fulerenos/M3C-v1.9/M3C-deps_CCC/g09-AM64L-G09RevC.01/l303.exe)
 DipDrv:  MaxL=1.
 Leave Link  303 at Sun Jun 19 12:22:28 2016, MaxMem=    33554432 cpu:         0.1
 (Enter /home/proyectos/fulerenos/M3C-v1.9/M3C-deps_CCC/g09-AM64L-G09RevC.01/l401.exe)
 ExpMin= 3.60D-02 ExpMax= 4.56D+03 ExpMxC= 6.82D+02 IAcc=3 IRadAn=         5 AccDes= 0.00D+00
 Harris functional with IExCor=  402 and IRadAn=       5 diagonalized for initial guess.
 HarFok:  IExCor=  402 AccDes= 0.00D+00 IRadAn=         5 IDoV= 1 UseB2=F ITyADJ=14
 ICtDFT=  3500011 ScaDFX=  1.000000  1.000000  1.000000  1.000000
 FoFCou: FMM=F IPFlag=           0 FMFlag=      100000 FMFlg1=           0
         NFxFlg=           0 DoJE=T BraDBF=F KetDBF=T FulRan=T
         wScrn=  0.000000 ICntrl=     500 IOpCl=  0 I1Cent=   200000004 NGrid=           0
         NMat0=    1 NMatS0=      1 NMatT0=    0 NMatD0=    1 NMtDS0=    0 NMtDT0=    0
 Petite list used in FoFCou.
 Harris En= -191.445149812866    
 JPrj=0 DoOrth=F DoCkMO=F.
 Initial guess <Sx>= 0.0000 <Sy>= 0.0000 <Sz>= 1.5000 <S**2>= 3.7500 S= 1.5000
 Leave Link  401 at Sun Jun 19 12:22:30 2016, MaxMem=    33554432 cpu:         9.1
 (Enter /home/proyectos/fulerenos/M3C-v1.9/M3C-deps_CCC/g09-AM64L-G09RevC.01/l502.exe)
 UHF open shell SCF:
 Using DIIS extrapolation, IDIIS=  1040.
 Integral symmetry usage will be decided dynamically.
 IVT=      216989 IEndB=      216989 NGot=    33554432 MDV=    33419364
 LenX=    33419364 LenY=    33353898
 Requested convergence on RMS density matrix=1.00D-08 within 128 cycles.
 Requested convergence on MAX density matrix=1.00D-06.
 Requested convergence on             energy=1.00D-06.
 No special actions if energy rises.
 Fock matrices will be formed incrementally for  20 cycles.

 Cycle   1  Pass 1  IDiag  1:
 FoFJK:  IHMeth= 1 ICntrl=       0 DoSepK=F KAlg= 0 I1Cent=   0 FoldK=F
 IRaf= 980000000 NMat=   1 IRICut=       1 DoRegI=T DoRafI=F ISym2E= 0.
 FoFCou: FMM=F IPFlag=           0 FMFlag=      100000 FMFlg1=           0
         NFxFlg=           0 DoJE=F BraDBF=F KetDBF=F FulRan=T
         wScrn=  0.000000 ICntrl=       0 IOpCl=  1 I1Cent=           0 NGrid=           0
         NMat0=    1 NMatS0=      1 NMatT0=    0 NMatD0=    1 NMtDS0=    0 NMtDT0=    0
 Symmetry not used in FoFCou.
 E= -191.028459981536    
 DIIS: error= 2.02D-02 at cycle   1 NSaved=   1.
 NSaved= 1 IEnMin= 1 EnMin= -191.028459981536     IErMin= 1 ErrMin= 2.02D-02
 ErrMax= 2.02D-02  0.00D+00 EMaxC= 1.00D-01 BMatC= 3.78D-01 BMatP= 3.78D-01
 IDIUse=3 WtCom= 7.98D-01 WtEn= 2.02D-01
 Coeff-Com:  0.100D+01
 Coeff-En:   0.100D+01
 Coeff:      0.100D+01
 Gap=     0.196 Goal=   None    Shift=    0.000
 Gap=    -0.083 Goal=   None    Shift=    0.000
 GapD=   -0.083 DampG=0.250 DampE=0.500 DampFc=0.2500 IDamp=-1.
 Damping current iteration by 2.50D-01
 RMSDP=1.63D-02 MaxDP=1.83D+00              OVMax= 8.86D-01

 Cycle   2  Pass 1  IDiag  1:
 RMSU=  3.87D-03    CP:  1.05D+00
 E= -191.036208027889     Delta-E=       -0.007748046353 Rises=F Damp=T
 DIIS: error= 7.66D-03 at cycle   2 NSaved=   2.
 NSaved= 2 IEnMin= 2 EnMin= -191.036208027889     IErMin= 2 ErrMin= 7.66D-03
 ErrMax= 7.66D-03  0.00D+00 EMaxC= 1.00D-01 BMatC= 6.51D-02 BMatP= 3.78D-01
 IDIUse=3 WtCom= 9.23D-01 WtEn= 7.66D-02
 Coeff-Com: -0.119D+00 0.112D+01
 Coeff-En:   0.449D+00 0.551D+00
 Coeff:     -0.754D-01 0.108D+01
 Gap=     0.265 Goal=   None    Shift=    0.000
 Gap=     0.054 Goal=   None    Shift=    0.000
 RMSDP=1.31D-02 MaxDP=1.74D+00 DE=-7.75D-03 OVMax= 8.87D-01

 Cycle   3  Pass 1  IDiag  1:
 RMSU=  7.92D-03    CP:  1.42D+00  1.68D+00
 E= -191.096014359665     Delta-E=       -0.059806331776 Rises=F Damp=F
 DIIS: error= 1.79D-02 at cycle   3 NSaved=   3.
 NSaved= 3 IEnMin= 3 EnMin= -191.096014359665     IErMin= 2 ErrMin= 7.66D-03
 ErrMax= 1.79D-02  0.00D+00 EMaxC= 1.00D-01 BMatC= 1.36D-01 BMatP= 6.51D-02
 IDIUse=2 WtCom= 0.00D+00 WtEn= 1.00D+00
 Coeff-En:   0.000D+00 0.000D+00 0.100D+01
 Coeff:      0.000D+00 0.000D+00 0.100D+01
 Gap=     0.187 Goal=   None    Shift=    0.000
 Gap=    -0.042 Goal=   None    Shift=    0.000
 RMSDP=1.44D-02 MaxDP=1.15D+00 DE=-5.98D-02 OVMax= 9.77D-01

 Cycle   4  Pass 1  IDiag  1:
 RMSU=  4.41D-03    CP:  1.08D+00  2.97D+00 -1.36D-01
 E= -190.636464832500     Delta-E=        0.459549527166 Rises=F Damp=F
 DIIS: error= 4.31D-02 at cycle   4 NSaved=   4.
 NSaved= 4 IEnMin= 3 EnMin= -191.096014359665     IErMin= 2 ErrMin= 7.66D-03
 ErrMax= 4.31D-02  0.00D+00 EMaxC= 1.00D-01 BMatC= 1.27D+00 BMatP= 6.51D-02
 IDIUse=2 WtCom= 0.00D+00 WtEn= 1.00D+00
 Coeff-En:   0.000D+00 0.000D+00 0.854D+00 0.146D+00
 Coeff:      0.000D+00 0.000D+00 0.854D+00 0.146D+00
 Gap=     0.158 Goal=   None    Shift=    0.000
 Gap=     0.026 Goal=   None    Shift=    0.000
 RMSDP=9.69D-03 MaxDP=6.76D-01 DE= 4.60D-01 OVMax= 9.58D-01

 Cycle   5  Pass 1  IDiag  1:
 RMSU=  3.42D-03    CP:  1.29D+00  1.93D+00  5.84D-01  5.83D-01
 E= -191.127347411947     Delta-E=       -0.490882579448 Rises=F Damp=F
 DIIS: error= 9.42D-03 at cycle   5 NSaved=   5.
 NSaved= 5 IEnMin= 5 EnMin= -191.127347411947     IErMin= 2 ErrMin= 7.66D-03
 ErrMax= 9.42D-03  0.00D+00 EMaxC= 1.00D-01 BMatC= 6.58D-02 BMatP= 6.51D-02
 IDIUse=3 WtCom= 9.06D-01 WtEn= 9.42D-02
 Coeff-Com: -0.597D-01 0.124D+00 0.410D+00-0.317D-02 0.529D+00
 Coeff-En:   0.000D+00 0.000D+00 0.323D+00 0.000D+00 0.677D+00
 Coeff:     -0.541D-01 0.112D+00 0.401D+00-0.287D-02 0.543D+00
 Gap=     0.178 Goal=   None    Shift=    0.000
 Gap=     0.085 Goal=   None    Shift=    0.000
 RMSDP=2.69D-03 MaxDP=3.34D-01 DE=-4.91D-01 OVMax= 1.59D-01

 Cycle   6  Pass 1  IDiag  1:
 RMSU=  6.63D-04    CP:  1.34D+00  1.79D+00  7.43D-01  3.87D-01  5.79D-01
 E= -191.149283901498     Delta-E=       -0.021936489550 Rises=F Damp=F
 DIIS: error= 1.52D-03 at cycle   6 NSaved=   6.
 NSaved= 6 IEnMin= 6 EnMin= -191.149283901498     IErMin= 6 ErrMin= 1.52D-03
 ErrMax= 1.52D-03  0.00D+00 EMaxC= 1.00D-01 BMatC= 1.43D-03 BMatP= 6.51D-02
 IDIUse=3 WtCom= 9.85D-01 WtEn= 1.52D-02
 Coeff-Com: -0.370D-01 0.438D-01 0.389D-01-0.637D-02 0.117D+00 0.844D+00
 Coeff-En:   0.000D+00 0.000D+00 0.000D+00 0.000D+00 0.000D+00 0.100D+01
 Coeff:     -0.365D-01 0.431D-01 0.383D-01-0.627D-02 0.115D+00 0.846D+00
 Gap=     0.160 Goal=   None    Shift=    0.000
 Gap=     0.091 Goal=   None    Shift=    0.000
 RMSDP=5.28D-04 MaxDP=3.80D-02 DE=-2.19D-02 OVMax= 2.14D-02

 Cycle   7  Pass 1  IDiag  1:
 RMSU=  4.56D-04    CP:  1.33D+00  1.75D+00  7.42D-01  3.87D-01  5.93D-01
                    CP:  1.19D+00
 E= -191.149745566905     Delta-E=       -0.000461665408 Rises=F Damp=F
 DIIS: error= 1.30D-03 at cycle   7 NSaved=   7.
 NSaved= 7 IEnMin= 7 EnMin= -191.149745566905     IErMin= 7 ErrMin= 1.30D-03
 ErrMax= 1.30D-03  0.00D+00 EMaxC= 1.00D-01 BMatC= 1.15D-03 BMatP= 1.43D-03
 IDIUse=3 WtCom= 9.87D-01 WtEn= 1.30D-02
 Coeff-Com: -0.206D-01 0.197D-01-0.308D-01 0.330D-02-0.217D-01 0.574D+00
 Coeff-Com:  0.477D+00
 Coeff-En:   0.000D+00 0.000D+00 0.000D+00 0.000D+00 0.000D+00 0.389D-01
 Coeff-En:   0.961D+00
 Coeff:     -0.203D-01 0.194D-01-0.304D-01 0.325D-02-0.214D-01 0.567D+00
 Coeff:      0.483D+00
 Gap=     0.161 Goal=   None    Shift=    0.000
 Gap=     0.093 Goal=   None    Shift=    0.000
 RMSDP=2.65D-04 MaxDP=2.13D-02 DE=-4.62D-04 OVMax= 1.47D-02

 Cycle   8  Pass 1  IDiag  1:
 RMSU=  1.58D-04    CP:  1.33D+00  1.77D+00  7.40D-01  3.97D-01  5.73D-01
                    CP:  1.21D+00  6.37D-01
 E= -191.150078020866     Delta-E=       -0.000332453961 Rises=F Damp=F
 DIIS: error= 4.98D-04 at cycle   8 NSaved=   8.
 NSaved= 8 IEnMin= 8 EnMin= -191.150078020866     IErMin= 8 ErrMin= 4.98D-04
 ErrMax= 4.98D-04  0.00D+00 EMaxC= 1.00D-01 BMatC= 1.86D-04 BMatP= 1.15D-03
 IDIUse=3 WtCom= 9.95D-01 WtEn= 4.98D-03
 Coeff-Com: -0.952D-02 0.913D-02-0.285D-01 0.340D-02-0.372D-01 0.117D+00
 Coeff-Com:  0.270D+00 0.675D+00
 Coeff-En:   0.000D+00 0.000D+00 0.000D+00 0.000D+00 0.000D+00 0.000D+00
 Coeff-En:   0.000D+00 0.100D+01
 Coeff:     -0.948D-02 0.909D-02-0.284D-01 0.338D-02-0.370D-01 0.117D+00
 Coeff:      0.269D+00 0.677D+00
 Gap=     0.162 Goal=   None    Shift=    0.000
 Gap=     0.093 Goal=   None    Shift=    0.000
 RMSDP=1.44D-04 MaxDP=9.16D-03 DE=-3.32D-04 OVMax= 6.88D-03

 Cycle   9  Pass 1  IDiag  1:
 RMSU=  8.18D-05    CP:  1.33D+00  1.77D+00  7.40D-01  3.98D-01  5.74D-01
                    CP:  1.31D+00  8.38D-01  8.17D-01
 E= -191.150167653166     Delta-E=       -0.000089632300 Rises=F Damp=F
 DIIS: error= 2.17D-04 at cycle   9 NSaved=   9.
 NSaved= 9 IEnMin= 9 EnMin= -191.150167653166     IErMin= 9 ErrMin= 2.17D-04
 ErrMax= 2.17D-04  0.00D+00 EMaxC= 1.00D-01 BMatC= 5.77D-05 BMatP= 1.86D-04
 IDIUse=3 WtCom= 9.98D-01 WtEn= 2.17D-03
 Coeff-Com: -0.271D-02 0.684D-02-0.522D-02-0.108D-03-0.799D-02-0.157D+00
 Coeff-Com: -0.386D-01 0.408D+00 0.797D+00
 Coeff-En:   0.000D+00 0.000D+00 0.000D+00 0.000D+00 0.000D+00 0.000D+00
 Coeff-En:   0.000D+00 0.000D+00 0.100D+01
 Coeff:     -0.271D-02 0.682D-02-0.521D-02-0.107D-03-0.797D-02-0.157D+00
 Coeff:     -0.386D-01 0.407D+00 0.797D+00
 Gap=     0.163 Goal=   None    Shift=    0.000
 Gap=     0.094 Goal=   None    Shift=    0.000
 RMSDP=7.00D-05 MaxDP=3.06D-03 DE=-8.96D-05 OVMax= 5.23D-03

 Cycle  10  Pass 1  IDiag  1:
 RMSU=  3.86D-05    CP:  1.33D+00  1.77D+00  7.41D-01  3.99D-01  5.70D-01
                    CP:  1.33D+00  8.82D-01  1.11D+00  1.01D+00
 E= -191.150199782468     Delta-E=       -0.000032129302 Rises=F Damp=F
 DIIS: error= 8.11D-05 at cycle  10 NSaved=  10.
 NSaved=10 IEnMin=10 EnMin= -191.150199782468     IErMin=10 ErrMin= 8.11D-05
 ErrMax= 8.11D-05  0.00D+00 EMaxC= 1.00D-01 BMatC= 6.00D-06 BMatP= 5.77D-05
 IDIUse=1 WtCom= 1.00D+00 WtEn= 0.00D+00
 Coeff-Com:  0.201D-02-0.226D-02 0.331D-02 0.114D-03 0.522D-02-0.720D-01
 Coeff-Com: -0.717D-01-0.132D-01 0.283D+00 0.865D+00
 Coeff:      0.201D-02-0.226D-02 0.331D-02 0.114D-03 0.522D-02-0.720D-01
 Coeff:     -0.717D-01-0.132D-01 0.283D+00 0.865D+00
 Gap=     0.163 Goal=   None    Shift=    0.000
 Gap=     0.094 Goal=   None    Shift=    0.000
 RMSDP=4.40D-05 MaxDP=4.03D-03 DE=-3.21D-05 OVMax= 1.85D-03

 Cycle  11  Pass 1  IDiag  1:
 RMSU=  1.63D-05    CP:  1.33D+00  1.77D+00  7.39D-01  4.01D-01  5.71D-01
                    CP:  1.34D+00  9.19D-01  1.18D+00  1.11D+00  1.17D+00
 E= -191.150203650736     Delta-E=       -0.000003868268 Rises=F Damp=F
 DIIS: error= 3.26D-05 at cycle  11 NSaved=  11.
 NSaved=11 IEnMin=11 EnMin= -191.150203650736     IErMin=11 ErrMin= 3.26D-05
 ErrMax= 3.26D-05  0.00D+00 EMaxC= 1.00D-01 BMatC= 8.23D-07 BMatP= 6.00D-06
 IDIUse=1 WtCom= 1.00D+00 WtEn= 0.00D+00
 Coeff-Com:  0.902D-03-0.974D-03 0.171D-02 0.328D-05 0.923D-03 0.314D-02
 Coeff-Com: -0.485D-02-0.330D-01-0.332D-01 0.140D+00 0.926D+00
 Coeff:      0.902D-03-0.974D-03 0.171D-02 0.328D-05 0.923D-03 0.314D-02
 Coeff:     -0.485D-02-0.330D-01-0.332D-01 0.140D+00 0.926D+00
 Gap=     0.163 Goal=   None    Shift=    0.000
 Gap=     0.094 Goal=   None    Shift=    0.000
 RMSDP=9.62D-06 MaxDP=4.36D-04 DE=-3.87D-06 OVMax= 5.76D-04

 Cycle  12  Pass 1  IDiag  1:
 RMSU=  5.38D-06    CP:  1.33D+00  1.77D+00  7.39D-01  4.01D-01  5.71D-01
                    CP:  1.34D+00  9.21D-01  1.18D+00  1.15D+00  1.30D+00
                    CP:  1.25D+00
 E= -191.150204205225     Delta-E=       -0.000000554490 Rises=F Damp=F
 DIIS: error= 1.39D-05 at cycle  12 NSaved=  12.
 NSaved=12 IEnMin=12 EnMin= -191.150204205225     IErMin=12 ErrMin= 1.39D-05
 ErrMax= 1.39D-05  0.00D+00 EMaxC= 1.00D-01 BMatC= 1.53D-07 BMatP= 8.23D-07
 IDIUse=1 WtCom= 1.00D+00 WtEn= 0.00D+00
 Coeff-Com: -0.177D-03 0.163D-03 0.216D-03-0.484D-04-0.966D-03 0.131D-01
 Coeff-Com:  0.123D-01-0.207D-02-0.635D-01-0.143D+00 0.133D+00 0.105D+01
 Coeff:     -0.177D-03 0.163D-03 0.216D-03-0.484D-04-0.966D-03 0.131D-01
 Coeff:      0.123D-01-0.207D-02-0.635D-01-0.143D+00 0.133D+00 0.105D+01
 Gap=     0.163 Goal=   None    Shift=    0.000
 Gap=     0.094 Goal=   None    Shift=    0.000
 RMSDP=6.73D-06 MaxDP=4.93D-04 DE=-5.54D-07 OVMax= 5.12D-04

 Cycle  13  Pass 1  IDiag  1:
 RMSU=  2.36D-06    CP:  1.33D+00  1.77D+00  7.39D-01  4.01D-01  5.71D-01
                    CP:  1.34D+00  9.22D-01  1.18D+00  1.16D+00  1.39D+00
                    CP:  1.50D+00  1.36D+00
 E= -191.150204367009     Delta-E=       -0.000000161784 Rises=F Damp=F
 DIIS: error= 5.42D-06 at cycle  13 NSaved=  13.
 NSaved=13 IEnMin=13 EnMin= -191.150204367009     IErMin=13 ErrMin= 5.42D-06
 ErrMax= 5.42D-06  0.00D+00 EMaxC= 1.00D-01 BMatC= 1.90D-08 BMatP= 1.53D-07
 IDIUse=1 WtCom= 1.00D+00 WtEn= 0.00D+00
 Coeff-Com: -0.164D-03 0.166D-03-0.194D-03-0.889D-05-0.222D-03 0.569D-04
 Coeff-Com: -0.247D-03 0.340D-02 0.410D-02-0.267D-01-0.166D+00 0.148D+00
 Coeff-Com:  0.104D+01
 Coeff:     -0.164D-03 0.166D-03-0.194D-03-0.889D-05-0.222D-03 0.569D-04
 Coeff:     -0.247D-03 0.340D-02 0.410D-02-0.267D-01-0.166D+00 0.148D+00
 Coeff:      0.104D+01
 Gap=     0.163 Goal=   None    Shift=    0.000
 Gap=     0.094 Goal=   None    Shift=    0.000
 RMSDP=3.05D-06 MaxDP=2.23D-04 DE=-1.62D-07 OVMax= 2.42D-04

 Cycle  14  Pass 1  IDiag  1:
 RMSU=  9.04D-07    CP:  1.33D+00  1.77D+00  7.39D-01  4.01D-01  5.71D-01
                    CP:  1.34D+00  9.22D-01  1.18D+00  1.17D+00  1.42D+00
                    CP:  1.59D+00  1.64D+00  1.31D+00
 E= -191.150204392550     Delta-E=       -0.000000025541 Rises=F Damp=F
 DIIS: error= 2.88D-06 at cycle  14 NSaved=  14.
 NSaved=14 IEnMin=14 EnMin= -191.150204392550     IErMin=14 ErrMin= 2.88D-06
 ErrMax= 2.88D-06  0.00D+00 EMaxC= 1.00D-01 BMatC= 2.69D-09 BMatP= 1.90D-08
 IDIUse=1 WtCom= 1.00D+00 WtEn= 0.00D+00
 Coeff-Com: -0.585D-06 0.283D-04-0.724D-04 0.892D-06 0.182D-03-0.208D-02
 Coeff-Com: -0.253D-02 0.186D-03 0.114D-01 0.228D-01-0.290D-01-0.149D+00
 Coeff-Com: -0.691D-01 0.122D+01
 Coeff:     -0.585D-06 0.283D-04-0.724D-04 0.892D-06 0.182D-03-0.208D-02
 Coeff:     -0.253D-02 0.186D-03 0.114D-01 0.228D-01-0.290D-01-0.149D+00
 Coeff:     -0.691D-01 0.122D+01
 Gap=     0.163 Goal=   None    Shift=    0.000
 Gap=     0.094 Goal=   None    Shift=    0.000
 RMSDP=1.48D-06 MaxDP=1.05D-04 DE=-2.55D-08 OVMax= 1.21D-04

 Cycle  15  Pass 1  IDiag  1:
 RMSU=  4.02D-07    CP:  1.33D+00  1.77D+00  7.39D-01  4.01D-01  5.71D-01
                    CP:  1.34D+00  9.22D-01  1.18D+00  1.17D+00  1.43D+00
                    CP:  1.62D+00  1.75D+00  1.56D+00  1.44D+00
 E= -191.150204396717     Delta-E=       -0.000000004167 Rises=F Damp=F
 DIIS: error= 5.37D-07 at cycle  15 NSaved=  15.
 NSaved=15 IEnMin=15 EnMin= -191.150204396717     IErMin=15 ErrMin= 5.37D-07
 ErrMax= 5.37D-07  0.00D+00 EMaxC= 1.00D-01 BMatC= 2.77D-10 BMatP= 2.69D-09
 IDIUse=1 WtCom= 1.00D+00 WtEn= 0.00D+00
 Coeff-Com:  0.177D-04-0.168D-04-0.125D-05 0.184D-05 0.408D-04-0.588D-04
 Coeff-Com: -0.997D-04-0.330D-04-0.122D-03 0.343D-02 0.137D-01-0.211D-01
 Coeff-Com: -0.118D+00 0.905D-01 0.103D+01
 Coeff:      0.177D-04-0.168D-04-0.125D-05 0.184D-05 0.408D-04-0.588D-04
 Coeff:     -0.997D-04-0.330D-04-0.122D-03 0.343D-02 0.137D-01-0.211D-01
 Coeff:     -0.118D+00 0.905D-01 0.103D+01
 Gap=     0.163 Goal=   None    Shift=    0.000
 Gap=     0.094 Goal=   None    Shift=    0.000
 RMSDP=3.63D-07 MaxDP=2.10D-05 DE=-4.17D-09 OVMax= 2.77D-05

 Cycle  16  Pass 1  IDiag  1:
 RMSU=  1.34D-07    CP:  1.33D+00  1.77D+00  7.39D-01  4.01D-01  5.71D-01
                    CP:  1.34D+00  9.22D-01  1.18D+00  1.17D+00  1.43D+00
                    CP:  1.63D+00  1.77D+00  1.60D+00  1.63D+00  1.17D+00
 E= -191.150204397026     Delta-E=       -0.000000000309 Rises=F Damp=F
 DIIS: error= 2.18D-07 at cycle  16 NSaved=  16.
 NSaved=16 IEnMin=16 EnMin= -191.150204397026     IErMin=16 ErrMin= 2.18D-07
 ErrMax= 2.18D-07  0.00D+00 EMaxC= 1.00D-01 BMatC= 3.61D-11 BMatP= 2.77D-10
 IDIUse=1 WtCom= 1.00D+00 WtEn= 0.00D+00
 Coeff-Com:  0.238D-05-0.230D-05 0.844D-05 0.636D-06-0.172D-04 0.176D-03
 Coeff-Com:  0.269D-03 0.189D-03-0.122D-02-0.193D-02 0.486D-02 0.139D-01
 Coeff-Com: -0.108D-01-0.137D+00 0.184D+00 0.948D+00
 Coeff:      0.238D-05-0.230D-05 0.844D-05 0.636D-06-0.172D-04 0.176D-03
 Coeff:      0.269D-03 0.189D-03-0.122D-02-0.193D-02 0.486D-02 0.139D-01
 Coeff:     -0.108D-01-0.137D+00 0.184D+00 0.948D+00
 Gap=     0.163 Goal=   None    Shift=    0.000
 Gap=     0.094 Goal=   None    Shift=    0.000
 RMSDP=1.08D-07 MaxDP=6.20D-06 DE=-3.09D-10 OVMax= 5.41D-06

 Cycle  17  Pass 1  IDiag  1:
 RMSU=  4.20D-08    CP:  1.33D+00  1.77D+00  7.39D-01  4.01D-01  5.71D-01
                    CP:  1.34D+00  9.22D-01  1.18D+00  1.17D+00  1.43D+00
                    CP:  1.63D+00  1.77D+00  1.62D+00  1.66D+00  1.32D+00
                    CP:  1.07D+00
 E= -191.150204397053     Delta-E=       -0.000000000027 Rises=F Damp=F
 DIIS: error= 4.65D-08 at cycle  17 NSaved=  17.
 NSaved=17 IEnMin=17 EnMin= -191.150204397053     IErMin=17 ErrMin= 4.65D-08
 ErrMax= 4.65D-08  0.00D+00 EMaxC= 1.00D-01 BMatC= 2.47D-12 BMatP= 3.61D-11
 IDIUse=1 WtCom= 1.00D+00 WtEn= 0.00D+00
 Coeff-Com: -0.163D-05 0.146D-05 0.263D-05-0.287D-07-0.555D-05 0.255D-04
 Coeff-Com:  0.331D-04-0.112D-05-0.151D-03-0.578D-03-0.289D-03 0.406D-02
 Coeff-Com:  0.761D-02-0.211D-01-0.625D-01 0.939D-01 0.979D+00
 Coeff:     -0.163D-05 0.146D-05 0.263D-05-0.287D-07-0.555D-05 0.255D-04
 Coeff:      0.331D-04-0.112D-05-0.151D-03-0.578D-03-0.289D-03 0.406D-02
 Coeff:      0.761D-02-0.211D-01-0.625D-01 0.939D-01 0.979D+00
 Gap=     0.163 Goal=   None    Shift=    0.000
 Gap=     0.094 Goal=   None    Shift=    0.000
 RMSDP=2.51D-08 MaxDP=1.28D-06 DE=-2.66D-11 OVMax= 1.17D-06

 Cycle  18  Pass 1  IDiag  1:
 RMSU=  1.34D-08    CP:  1.33D+00  1.77D+00  7.39D-01  4.01D-01  5.71D-01
                    CP:  1.34D+00  9.22D-01  1.18D+00  1.17D+00  1.43D+00
                    CP:  1.63D+00  1.77D+00  1.61D+00  1.67D+00  1.34D+00
                    CP:  1.17D+00  1.01D+00
 E= -191.150204397056     Delta-E=       -0.000000000003 Rises=F Damp=F
 DIIS: error= 2.13D-08 at cycle  18 NSaved=  18.
 NSaved=18 IEnMin=18 EnMin= -191.150204397056     IErMin=18 ErrMin= 2.13D-08
 ErrMax= 2.13D-08  0.00D+00 EMaxC= 1.00D-01 BMatC= 3.99D-13 BMatP= 2.47D-12
 IDIUse=1 WtCom= 1.00D+00 WtEn= 0.00D+00
 Coeff-Com: -0.959D-06 0.130D-05-0.193D-06-0.168D-06 0.812D-06-0.127D-04
 Coeff-Com: -0.197D-04-0.306D-04 0.887D-04 0.147D-03-0.349D-03-0.809D-03
 Coeff-Com:  0.117D-02 0.101D-01-0.248D-01-0.841D-01 0.174D+00 0.925D+00
 Coeff:     -0.959D-06 0.130D-05-0.193D-06-0.168D-06 0.812D-06-0.127D-04
 Coeff:     -0.197D-04-0.306D-04 0.887D-04 0.147D-03-0.349D-03-0.809D-03
 Coeff:      0.117D-02 0.101D-01-0.248D-01-0.841D-01 0.174D+00 0.925D+00
 Gap=     0.163 Goal=   None    Shift=    0.000
 Gap=     0.094 Goal=   None    Shift=    0.000
 RMSDP=9.01D-09 MaxDP=4.80D-07 DE=-2.73D-12 OVMax= 4.88D-07

 SCF Done:  E(UB3LYP) =  -191.150204397     A.U. after   18 cycles
            NFock= 18  Conv=0.90D-08     -V/T= 2.0043
 <Sx>= 0.0000 <Sy>= 0.0000 <Sz>= 1.5000 <S**2>= 3.7779 S= 1.5070
 <L.S>= 0.000000000000E+00
 KE= 1.903303601517D+02 PE=-6.686915664179D+02 EE= 1.668863650332D+02
 Annihilation of the first spin contaminant:
 S**2 before annihilation     3.7779,   after     3.7501
 Leave Link  502 at Sun Jun 19 12:25:31 2016, MaxMem=    33554432 cpu:       717.2
 (Enter /home/proyectos/fulerenos/M3C-v1.9/M3C-deps_CCC/g09-AM64L-G09RevC.01/l801.exe)
 DoSCS=F DFT=T ScalE2(SS,OS)=  1.000000  1.000000
 Range of M.O.s used for correlation:     1   225
 NBasis=   225 NAE=    17 NBE=    14 NFC=     0 NFV=     0
 NROrb=    225 NOA=    17 NOB=    14 NVA=   208 NVB=   211

 **** Warning!!: The largest alpha MO coefficient is  0.16264927D+03


 **** Warning!!: The largest beta MO coefficient is  0.17738384D+03


 **** Warning!!: The smallest beta delta epsilon is  0.94331350D-01

 Leave Link  801 at Sun Jun 19 12:25:31 2016, MaxMem=    33554432 cpu:         0.2
 (Enter /home/proyectos/fulerenos/M3C-v1.9/M3C-deps_CCC/g09-AM64L-G09RevC.01/l1101.exe)
 Using compressed storage, NAtomX=     8.
 Will process      9 centers per pass.
 Leave Link 1101 at Sun Jun 19 12:25:32 2016, MaxMem=    33554432 cpu:         1.3
 (Enter /home/proyectos/fulerenos/M3C-v1.9/M3C-deps_CCC/g09-AM64L-G09RevC.01/l1102.exe)
 Symmetrizing basis deriv contribution to polar:
 IMax=3 JMax=2 DiffMx= 0.00D+00
 Leave Link 1102 at Sun Jun 19 12:25:32 2016, MaxMem=    33554432 cpu:         0.2
 (Enter /home/proyectos/fulerenos/M3C-v1.9/M3C-deps_CCC/g09-AM64L-G09RevC.01/l1110.exe)
 Forming Gx(P) for the SCF density, NAtomX=     8.
 Integral derivatives from FoFJK, PRISM(SPDF).
 Do as many integral derivatives as possible in FoFJK.
 G2DrvN: MDV=      33554264.
 G2DrvN: will do     9 centers at a time, making    1 passes.
 Calling FoFCou, ICntrl=  3107 FMM=F I1Cent=   0 AccDes= 0.00D+00.
 FoFJK:  IHMeth= 1 ICntrl=    3107 DoSepK=F KAlg= 0 I1Cent=   0 FoldK=F
 IRaf=         0 NMat=   1 IRICut=       1 DoRegI=T DoRafI=F ISym2E= 0.
 FoFCou: FMM=F IPFlag=           0 FMFlag=      100000 FMFlg1=           0
         NFxFlg=           0 DoJE=F BraDBF=F KetDBF=F FulRan=T
         wScrn=  0.000000 ICntrl=    3107 IOpCl=  1 I1Cent=           0 NGrid=           0
         NMat0=    1 NMatS0=      1 NMatT0=    0 NMatD0=    1 NMtDS0=    0 NMtDT0=    0
 Symmetry not used in FoFCou.
 End of G2Drv F.D. properties file   721 does not exist.
 End of G2Drv F.D. properties file   722 does not exist.
 End of G2Drv F.D. properties file   788 does not exist.
 Leave Link 1110 at Sun Jun 19 12:27:12 2016, MaxMem=    33554432 cpu:       401.0
 (Enter /home/proyectos/fulerenos/M3C-v1.9/M3C-deps_CCC/g09-AM64L-G09RevC.01/l1002.exe)
 Minotr:  UHF open shell wavefunction.
          IDoAtm=11111111
          Direct CPHF calculation.
          Differentiating once with respect to electric field.
                with respect to dipole field.
          Differentiating once with respect to nuclear coordinates.
          Requested convergence is 1.0D-08 RMS, and 1.0D-07 maximum.
          Secondary convergence is 1.0D-12 RMS, and 1.0D-12 maximum.
          NewPWx=T KeepS1=F KeepF1=F KeepIn=T MapXYZ=F SortEE=F KeepMc=T.
          MDV=      33553898 using IRadAn=       2.
 Generate precomputed XC quadrature information.
          Solving linear equations simultaneously, MaxMat=       0.
 FoFJK:  IHMeth= 1 ICntrl=       0 DoSepK=F KAlg= 0 I1Cent=   0 FoldK=F
 IRaf= 980000000 NMat=  27 IRICut=      67 DoRegI=T DoRafI=T ISym2E= 2.
 FoFCou: FMM=F IPFlag=           0 FMFlag=      100000 FMFlg1=           0
         NFxFlg=           0 DoJE=F BraDBF=F KetDBF=F FulRan=T
         wScrn=  0.000000 ICntrl=       0 IOpCl=  1 I1Cent=           0 NGrid=           0
         NMat0=   27 NMatS0=     27 NMatT0=    0 NMatD0=   27 NMtDS0=    0 NMtDT0=    0
 Integrals replicated using symmetry in FoFCou.
          There are    27 degrees of freedom in the 1st order CPHF.  IDoFFX=6 NUNeed=     3.
     24 vectors produced by pass  0 Test12= 2.40D-14 3.70D-09 XBig12= 3.29D+02 1.02D+01.
 AX will form    24 AO Fock derivatives at one time.
     24 vectors produced by pass  1 Test12= 2.40D-14 3.70D-09 XBig12= 3.41D+01 2.03D+00.
     24 vectors produced by pass  2 Test12= 2.40D-14 3.70D-09 XBig12= 2.13D+00 5.14D-01.
     24 vectors produced by pass  3 Test12= 2.40D-14 3.70D-09 XBig12= 5.94D-02 4.76D-02.
     24 vectors produced by pass  4 Test12= 2.40D-14 3.70D-09 XBig12= 8.48D-04 4.58D-03.
     24 vectors produced by pass  5 Test12= 2.40D-14 3.70D-09 XBig12= 6.11D-06 3.25D-04.
     24 vectors produced by pass  6 Test12= 2.40D-14 3.70D-09 XBig12= 2.61D-08 1.87D-05.
     10 vectors produced by pass  7 Test12= 2.40D-14 3.70D-09 XBig12= 9.49D-11 1.36D-06.
      5 vectors produced by pass  8 Test12= 2.40D-14 3.70D-09 XBig12= 1.52D-12 3.54D-07.
      5 vectors produced by pass  9 Test12= 2.40D-14 3.70D-09 XBig12= 1.40D-13 8.41D-08.
      4 vectors produced by pass 10 Test12= 2.40D-14 3.70D-09 XBig12= 3.10D-15 1.33D-08.
 InvSVY:  IOpt=1 It=  1 EMax= 3.55D-15
 Solved reduced A of dimension   192 with    27 vectors.
 FullF1:  Do perturbations    1 to     3.
 Isotropic polarizability for W=    0.000000       51.83 Bohr**3.
 End of Minotr F.D. properties file   721 does not exist.
 End of Minotr F.D. properties file   722 does not exist.
 End of Minotr F.D. properties file   788 does not exist.
 Leave Link 1002 at Sun Jun 19 12:33:59 2016, MaxMem=    33554432 cpu:      1629.6
 (Enter /home/proyectos/fulerenos/M3C-v1.9/M3C-deps_CCC/g09-AM64L-G09RevC.01/l601.exe)
 Copying SCF densities to generalized density rwf, IOpCl= 1 IROHF=0.

 **********************************************************************

            Population analysis using the SCF density.

 **********************************************************************

 Orbital symmetries:
 Alpha Orbitals:
       Occupied  (A) (A) (A) (A) (A) (A) (A) (A) (A) (A) (A) (A)
                 (A) (A) (A) (A) (A)
       Virtual   (A) (A) (A) (A) (A) (A) (A) (A) (A) (A) (A) (A)
                 (A) (A) (A) (A) (A) (A) (A) (A) (A) (A) (A) (A)
                 (A) (A) (A) (A) (A) (A) (A) (A) (A) (A) (A) (A)
                 (A) (A) (A) (A) (A) (A) (A) (A) (A) (A) (A) (A)
                 (A) (A) (A) (A) (A) (A) (A) (A) (A) (A) (A) (A)
                 (A) (A) (A) (A) (A) (A) (A) (A) (A) (A) (A) (A)
                 (A) (A) (A) (A) (A) (A) (A) (A) (A) (A) (A) (A)
                 (A) (A) (A) (A) (A) (A) (A) (A) (A) (A) (A) (A)
                 (A) (A) (A) (A) (A) (A) (A) (A) (A) (A) (A) (A)
                 (A) (A) (A) (A) (A) (A) (A) (A) (A) (A) (A) (A)
                 (A) (A) (A) (A) (A) (A) (A) (A) (A) (A) (A) (A)
                 (A) (A) (A) (A) (A) (A) (A) (A) (A) (A) (A) (A)
                 (A) (A) (A) (A) (A) (A) (A) (A) (A) (A) (A) (A)
                 (A) (A) (A) (A) (A) (A) (A) (A) (A) (A) (A) (A)
                 (A) (A) (A) (A) (A) (A) (A) (A) (A) (A) (A) (A)
                 (A) (A) (A) (A) (A) (A) (A) (A) (A) (A) (A) (A)
                 (A) (A) (A) (A) (A) (A) (A) (A) (A) (A) (A) (A)
                 (A) (A) (A) (A)
 Beta  Orbitals:
       Occupied  (A) (A) (A) (A) (A) (A) (A) (A) (A) (A) (A) (A)
                 (A) (A)
       Virtual   (A) (A) (A) (A) (A) (A) (A) (A) (A) (A) (A) (A)
                 (A) (A) (A) (A) (A) (A) (A) (A) (A) (A) (A) (A)
                 (A) (A) (A) (A) (A) (A) (A) (A) (A) (A) (A) (A)
                 (A) (A) (A) (A) (A) (A) (A) (A) (A) (A) (A) (A)
                 (A) (A) (A) (A) (A) (A) (A) (A) (A) (A) (A) (A)
                 (A) (A) (A) (A) (A) (A) (A) (A) (A) (A) (A) (A)
                 (A) (A) (A) (A) (A) (A) (A) (A) (A) (A) (A) (A)
                 (A) (A) (A) (A) (A) (A) (A) (A) (A) (A) (A) (A)
                 (A) (A) (A) (A) (A) (A) (A) (A) (A) (A) (A) (A)
                 (A) (A) (A) (A) (A) (A) (A) (A) (A) (A) (A) (A)
                 (A) (A) (A) (A) (A) (A) (A) (A) (A) (A) (A) (A)
                 (A) (A) (A) (A) (A) (A) (A) (A) (A) (A) (A) (A)
                 (A) (A) (A) (A) (A) (A) (A) (A) (A) (A) (A) (A)
                 (A) (A) (A) (A) (A) (A) (A) (A) (A) (A) (A) (A)
                 (A) (A) (A) (A) (A) (A) (A) (A) (A) (A) (A) (A)
                 (A) (A) (A) (A) (A) (A) (A) (A) (A) (A) (A) (A)
                 (A) (A) (A) (A) (A) (A) (A) (A) (A) (A) (A) (A)
                 (A) (A) (A) (A) (A) (A) (A)
 The electronic state is 4-A.
 Alpha  occ. eigenvalues --  -10.81162 -10.81046 -10.75167 -10.74171 -10.66756
 Alpha  occ. eigenvalues --   -1.42990  -1.28233  -1.18290  -1.02010  -1.00115
 Alpha  occ. eigenvalues --   -0.95656  -0.93750  -0.89757  -0.84287  -0.81859
 Alpha  occ. eigenvalues --   -0.80228  -0.74385
 Alpha virt. eigenvalues --   -0.58092  -0.54088  -0.47087  -0.35567  -0.34970
 Alpha virt. eigenvalues --   -0.30121  -0.28997  -0.27214  -0.26402  -0.24978
 Alpha virt. eigenvalues --   -0.22889  -0.22282  -0.21486  -0.20562  -0.19314
 Alpha virt. eigenvalues --   -0.18832  -0.17370  -0.17101  -0.15179  -0.14785
 Alpha virt. eigenvalues --   -0.14002  -0.13371  -0.13048  -0.11468  -0.11398
 Alpha virt. eigenvalues --   -0.10658  -0.10459  -0.09196  -0.09032  -0.07645
 Alpha virt. eigenvalues --   -0.05893  -0.05508  -0.04577  -0.02570  -0.00070
 Alpha virt. eigenvalues --    0.01089   0.01723   0.04023   0.05459   0.06140
 Alpha virt. eigenvalues --    0.06904   0.08386   0.09176   0.09922   0.10926
 Alpha virt. eigenvalues --    0.12713   0.13707   0.13895   0.15449   0.15961
 Alpha virt. eigenvalues --    0.16829   0.17329   0.18250   0.19414   0.19987
 Alpha virt. eigenvalues --    0.20282   0.22810   0.23899   0.25263   0.27386
 Alpha virt. eigenvalues --    0.29008   0.31093   0.34052   0.36744   0.38625
 Alpha virt. eigenvalues --    0.38759   0.40928   0.42712   0.47299   0.48291
 Alpha virt. eigenvalues --    0.50367   0.52614   0.56569   0.57788   0.59243
 Alpha virt. eigenvalues --    0.63531   0.64427   0.70057   0.73261   0.75744
 Alpha virt. eigenvalues --    0.78342   0.81327   0.83251   0.85440   0.88025
 Alpha virt. eigenvalues --    0.90120   0.91580   0.93422   0.95323   0.99177
 Alpha virt. eigenvalues --    1.01189   1.02609   1.04308   1.07334   1.08522
 Alpha virt. eigenvalues --    1.10113   1.14294   1.17067   1.22489   1.24037
 Alpha virt. eigenvalues --    1.29187   1.31068   1.34035   1.40399   1.46380
 Alpha virt. eigenvalues --    1.49263   1.52444   1.57458   1.58380   1.63099
 Alpha virt. eigenvalues --    1.66393   1.73966   1.75496   1.90359   1.98668
 Alpha virt. eigenvalues --    2.05889   2.08248   2.18986   2.21579   2.22538
 Alpha virt. eigenvalues --    2.24251   2.25567   2.26613   2.28201   2.29812
 Alpha virt. eigenvalues --    2.31733   2.35445   2.35899   2.40025   2.42609
 Alpha virt. eigenvalues --    2.45169   2.46188   2.48899   2.49486   2.53633
 Alpha virt. eigenvalues --    2.56828   2.57694   2.60162   2.62555   2.64420
 Alpha virt. eigenvalues --    2.69720   2.75664   2.79489   2.82131   2.83357
 Alpha virt. eigenvalues --    2.87225   2.91869   2.99981   3.04705   3.07687
 Alpha virt. eigenvalues --    3.15677   3.19568   3.21940   3.25032   3.30639
 Alpha virt. eigenvalues --    3.48730   3.51150   3.63564   3.65499   3.68908
 Alpha virt. eigenvalues --    3.69984   3.71686   3.78683   3.80474   3.85768
 Alpha virt. eigenvalues --    3.88487   3.93346   3.95360   4.08331   4.15129
 Alpha virt. eigenvalues --    4.38001   4.64491   4.80754   5.01572   5.07959
 Alpha virt. eigenvalues --    5.08729   5.28877   5.73139   6.42534   6.45775
 Alpha virt. eigenvalues --    6.47543   6.51594   6.52962   6.53441   6.60870
 Alpha virt. eigenvalues --    6.60948   6.63404   6.75820   6.76965   6.84237
 Alpha virt. eigenvalues --    6.89291   6.91219   6.98925   7.02725   7.08160
 Alpha virt. eigenvalues --    7.21138   7.22879   7.38574   7.48407   7.55226
 Alpha virt. eigenvalues --    7.68911   7.96887   8.00374  23.32078  23.50099
 Alpha virt. eigenvalues --   24.64884  24.83623  25.77337
  Beta  occ. eigenvalues --  -10.78909 -10.78567 -10.74687 -10.73987 -10.66543
  Beta  occ. eigenvalues --   -1.38807  -1.26817  -1.15983  -0.99127  -0.94427
  Beta  occ. eigenvalues --   -0.92372  -0.90668  -0.88135  -0.76799
  Beta virt. eigenvalues --   -0.67366  -0.65334  -0.63130  -0.55202  -0.45725
  Beta virt. eigenvalues --   -0.44348  -0.34171  -0.31189  -0.29482  -0.27518
  Beta virt. eigenvalues --   -0.26505  -0.25723  -0.24347  -0.22338  -0.21218
  Beta virt. eigenvalues --   -0.21002  -0.19942  -0.18469  -0.18180  -0.16764
  Beta virt. eigenvalues --   -0.16489  -0.14698  -0.13991  -0.13556  -0.12896
  Beta virt. eigenvalues --   -0.11971  -0.11052  -0.10420  -0.10168  -0.09947
  Beta virt. eigenvalues --   -0.08724  -0.08467  -0.05980  -0.05214  -0.04630
  Beta virt. eigenvalues --   -0.04230  -0.02049   0.01162   0.01782   0.02727
  Beta virt. eigenvalues --    0.05005   0.06735   0.07027   0.08387   0.09046
  Beta virt. eigenvalues --    0.09953   0.10851   0.11899   0.13437   0.14668
  Beta virt. eigenvalues --    0.14985   0.17526   0.17956   0.18258   0.18853
  Beta virt. eigenvalues --    0.19193   0.20210   0.20874   0.21385   0.23807
  Beta virt. eigenvalues --    0.24300   0.25865   0.29311   0.31183   0.32795
  Beta virt. eigenvalues --    0.34830   0.37617   0.39280   0.39631   0.41698
  Beta virt. eigenvalues --    0.43365   0.48099   0.49436   0.51144   0.53128
  Beta virt. eigenvalues --    0.57454   0.58471   0.60393   0.64183   0.65254
  Beta virt. eigenvalues --    0.70472   0.75181   0.77467   0.79742   0.82361
  Beta virt. eigenvalues --    0.84764   0.86865   0.89174   0.93368   0.94090
  Beta virt. eigenvalues --    0.94991   0.99013   0.99576   1.03248   1.04357
  Beta virt. eigenvalues --    1.06517   1.08415   1.10480   1.12247   1.16039
  Beta virt. eigenvalues --    1.18971   1.24780   1.26121   1.33187   1.35608
  Beta virt. eigenvalues --    1.37787   1.44291   1.49318   1.55504   1.56740
  Beta virt. eigenvalues --    1.60178   1.63839   1.65142   1.68774   1.76235
  Beta virt. eigenvalues --    1.78232   1.92469   2.00259   2.08958   2.11278
  Beta virt. eigenvalues --    2.21951   2.22988   2.23974   2.26326   2.27758
  Beta virt. eigenvalues --    2.28446   2.30752   2.32813   2.34268   2.37049
  Beta virt. eigenvalues --    2.38140   2.43844   2.45056   2.46410   2.48409
  Beta virt. eigenvalues --    2.50912   2.52523   2.57524   2.59652   2.61005
  Beta virt. eigenvalues --    2.63658   2.64427   2.67317   2.70753   2.78432
  Beta virt. eigenvalues --    2.82001   2.84760   2.87766   2.92499   2.95010
  Beta virt. eigenvalues --    3.03821   3.06199   3.09155   3.17890   3.22447
  Beta virt. eigenvalues --    3.25584   3.28193   3.32595   3.50541   3.51904
  Beta virt. eigenvalues --    3.66189   3.67406   3.70092   3.71370   3.73228
  Beta virt. eigenvalues --    3.80276   3.82019   3.91640   3.93696   3.94112
  Beta virt. eigenvalues --    3.98344   4.09764   4.16363   4.39046   4.67548
  Beta virt. eigenvalues --    4.82358   5.02712   5.08989   5.09070   5.29679
  Beta virt. eigenvalues --    5.74305   6.48220   6.50228   6.53800   6.54540
  Beta virt. eigenvalues --    6.55362   6.57286   6.61926   6.66937   6.67774
  Beta virt. eigenvalues --    6.78789   6.79754   6.85408   6.94571   6.98007
  Beta virt. eigenvalues --    7.01732   7.04228   7.09342   7.24126   7.27130
  Beta virt. eigenvalues --    7.41201   7.52555   7.56373   7.70515   8.00232
  Beta virt. eigenvalues --    8.01033  23.34537  23.50698  24.65363  24.86548
  Beta virt. eigenvalues --   25.77602
          Condensed to atoms (all electrons):
               1          2          3          4          5          6
     1  C    9.179927  -1.778755   0.021657  -0.093471  -2.081377  -0.078568
     2  C   -1.778755  12.316315   0.260124   0.468559  -5.005082   0.014707
     3  H    0.021657   0.260124   0.341519  -0.001383   0.061557  -0.000465
     4  H   -0.093471   0.468559  -0.001383   0.347393  -0.033485  -0.000597
     5  C   -2.081377  -5.005082   0.061557  -0.033485  13.810652   0.476959
     6  H   -0.078568   0.014707  -0.000465  -0.000597   0.476959   0.372438
     7  C    0.052763  -0.078022   0.001525   0.001695  -0.400684  -0.051256
     8  C    0.463991   0.205833  -0.000327  -0.000079  -1.165960  -0.051072
               7          8
     1  C    0.052763   0.463991
     2  C   -0.078022   0.205833
     3  H    0.001525  -0.000327
     4  H    0.001695  -0.000079
     5  C   -0.400684  -1.165960
     6  H   -0.051256  -0.051072
     7  C    7.496736  -1.458498
     8  C   -1.458498   7.634444
          Atomic-Atomic Spin Densities.
               1          2          3          4          5          6
     1  C    1.023214  -0.126869  -0.011417   0.015719  -0.996428  -0.018023
     2  C   -0.126869   1.309099   0.026967  -0.023209  -1.083390  -0.003894
     3  H   -0.011417   0.026967   0.002316   0.000327  -0.012485  -0.000601
     4  H    0.015719  -0.023209   0.000327   0.005351   0.009370   0.000234
     5  C   -0.996428  -1.083390  -0.012485   0.009370   2.854588   0.078634
     6  H   -0.018023  -0.003894  -0.000601   0.000234   0.078634   0.062008
     7  C    0.379649   0.100368   0.000323  -0.000318  -0.724041  -0.019813
     8  C    0.011541  -0.053306   0.002026  -0.000299  -0.222231  -0.023775
               7          8
     1  C    0.379649   0.011541
     2  C    0.100368  -0.053306
     3  H    0.000323   0.002026
     4  H   -0.000318  -0.000299
     5  C   -0.724041  -0.222231
     6  H   -0.019813  -0.023775
     7  C    1.475089   0.170500
     8  C    0.170500   1.317216
 Mulliken charges and spin densities:
               1          2
     1  C    0.313832   0.277385
     2  C   -0.403678   0.145767
     3  H    0.315793   0.007454
     4  H    0.311369   0.007175
     5  C    0.337422  -0.095984
     6  H    0.317854   0.074772
     7  C    0.435740   1.381759
     8  C    0.371669   1.201672
 Sum of Mulliken charges =   2.00000   3.00000
 Mulliken charges and spin densities with hydrogens summed into heavy atoms:
               1          2
     1  C    0.313832   0.277385
     2  C    0.223483   0.160396
     5  C    0.655276  -0.021212
     7  C    0.435740   1.381759
     8  C    0.371669   1.201672
 APT charges:
               1
     1  C    0.203367
     2  C   -0.086783
     3  H    0.388608
     4  H    0.349975
     5  C   -0.062234
     6  H    0.280712
     7  C    0.433346
     8  C    0.493010
 Sum of APT charges =   2.00000
 APT charges with hydrogens summed into heavy atoms:
               1
     1  C    0.203367
     2  C    0.651800
     5  C    0.218478
     7  C    0.433346
     8  C    0.493010
 Electronic spatial extent (au):  <R**2>=            356.2199
 Charge=              2.0000 electrons
 Dipole moment (field-independent basis, Debye):
    X=              0.9821    Y=             -0.2043    Z=              0.1170  Tot=              1.0099
 Quadrupole moment (field-independent basis, Debye-Ang):
   XX=              9.7432   YY=            -18.4791   ZZ=            -21.5357
   XY=              0.8612   XZ=             -1.0120   YZ=             -1.4769
 Traceless Quadrupole moment (field-independent basis, Debye-Ang):
   XX=             19.8337   YY=             -8.3886   ZZ=            -11.4451
   XY=              0.8612   XZ=             -1.0120   YZ=             -1.4769
 Octapole moment (field-independent basis, Debye-Ang**2):
  XXX=             39.5841  YYY=              0.9153  ZZZ=              1.7543  XYY=              4.6099
  XXY=              2.9883  XXZ=             -7.0071  XZZ=             -3.7016  YZZ=             -2.7989
  YYZ=              1.5247  XYZ=             -1.0215
 Hexadecapole moment (field-independent basis, Debye-Ang**3):
 XXXX=           -170.7268 YYYY=            -43.1304 ZZZZ=            -40.7150 XXXY=              1.7505
 XXXZ=             -9.6357 YYYX=              5.0183 YYYZ=             -4.1616 ZZZX=             -0.9180
 ZZZY=             -4.2909 XXYY=            -42.8546 XXZZ=            -63.3178 YYZZ=            -12.9274
 XXYZ=              0.5382 YYXZ=             -3.5970 ZZXY=              2.5747
 N-N= 1.203246368359D+02 E-N=-6.686915677724D+02  KE= 1.903303601517D+02
  Exact polarizability:  86.535  -2.100  35.828   0.083   2.412  33.131
 Approx polarizability: 150.116  -5.760  64.031   0.361   9.579  57.545
                          Isotropic Fermi Contact Couplings
        Atom                 a.u.       MegaHertz       Gauss      10(-4) cm-1
     1  C(13)              0.04754      17.81433       6.35660       5.94222
     2  C(13)              0.00309       1.15894       0.41354       0.38658
     3  H(1)               0.00506       7.54277       2.69145       2.51600
     4  H(1)               0.00382       5.68584       2.02885       1.89659
     5  C(13)             -0.01975      -7.39956      -2.64035      -2.46823
     6  H(1)               0.05192      77.35242      27.60127      25.80199
     7  C(13)              0.64557     241.91492      86.32126      80.69413
     8  C(13)              0.62092     232.67687      83.02489      77.61265
 --------------------------------------------------------
       Center         ----  Spin Dipole Couplings  ----
                      3XX-RR        3YY-RR        3ZZ-RR
 --------------------------------------------------------
     1   Atom        0.071851      0.003402     -0.075253
     2   Atom       -0.067938     -0.067374      0.135313
     3   Atom        0.013293     -0.003818     -0.009475
     4   Atom        0.001994      0.002575     -0.004570
     5   Atom       -0.227108      0.102754      0.124354
     6   Atom       -0.035418      0.018704      0.016714
     7   Atom       -0.413170      0.095372      0.317798
     8   Atom       -0.534621      0.460280      0.074342
 --------------------------------------------------------
                        XY            XZ            YZ
 --------------------------------------------------------
     1   Atom       -0.073400      0.032113     -0.297721
     2   Atom        0.016159      0.014512      0.141937
     3   Atom       -0.015500      0.009114     -0.008258
     4   Atom        0.012033     -0.007302     -0.014432
     5   Atom       -0.009816      0.005984      0.286820
     6   Atom       -0.004507      0.004646     -0.046411
     7   Atom        0.358011      0.017713      0.241103
     8   Atom        0.063772     -0.361292      0.249101
 --------------------------------------------------------


 ---------------------------------------------------------------------------------
              Anisotropic Spin Dipole Couplings in Principal Axis System
 ---------------------------------------------------------------------------------

       Atom             a.u.   MegaHertz   Gauss  10(-4) cm-1        Axes

              Baa    -0.3377   -45.316   -16.170   -15.116  0.0605  0.6637  0.7455
     1 C(13)  Bbb     0.0466     6.254     2.232     2.086  0.9420  0.2091 -0.2626
              Bcc     0.2911    39.062    13.938    13.030 -0.3302  0.7182 -0.6126
 
              Baa    -0.1413   -18.956    -6.764    -6.323 -0.1065  0.8869 -0.4496
     2 C(13)  Bbb    -0.0686    -9.205    -3.285    -3.070  0.9916  0.0616 -0.1134
              Bcc     0.2099    28.161    10.048     9.393  0.0729  0.4579  0.8860
 
              Baa    -0.0156    -8.330    -2.972    -2.778  0.1449  0.6882  0.7109
     3 H(1)   Bbb    -0.0109    -5.806    -2.072    -1.937 -0.5741 -0.5267  0.6269
              Bcc     0.0265    14.136     5.044     4.715  0.8059 -0.4989  0.3187
 
              Baa    -0.0161    -8.593    -3.066    -2.866 -0.1421  0.6609  0.7369
     4 H(1)   Bbb    -0.0070    -3.754    -1.339    -1.252  0.8213 -0.3368  0.4605
              Bcc     0.0231    12.346     4.405     4.118  0.5525  0.6706 -0.4949
 
              Baa    -0.2294   -30.779   -10.983   -10.267  0.9804  0.1445 -0.1337
     5 C(13)  Bbb    -0.1712   -22.976    -8.198    -7.664 -0.1968  0.7056 -0.6807
              Bcc     0.4006    53.755    19.181    17.931 -0.0040  0.6937  0.7202
 
              Baa    -0.0358   -19.123    -6.824    -6.379  0.9976  0.0298 -0.0619
     6 H(1)   Bbb    -0.0287   -15.317    -5.466    -5.109  0.0234  0.7005  0.7133
              Bcc     0.0645    34.440    12.289    11.488 -0.0646  0.7131 -0.6981
 
              Baa    -0.6084   -81.636   -29.130   -27.231  0.8706 -0.4800  0.1083
     7 C(13)  Bbb     0.0818    10.980     3.918     3.663 -0.4231 -0.6177  0.6629
              Bcc     0.5265    70.656    25.212    23.568  0.2513  0.6229  0.7408
 
              Baa    -0.7258   -97.393   -34.752   -32.487  0.8852 -0.1407  0.4435
     8 C(13)  Bbb     0.1323    17.751     6.334     5.921 -0.4526 -0.4819  0.7503
              Bcc     0.5935    79.642    28.418    26.566 -0.1081  0.8649  0.4902
 

 ---------------------------------------------------------------------------------

 No NMR shielding tensors so no spin-rotation constants.
 Leave Link  601 at Sun Jun 19 12:34:01 2016, MaxMem=    33554432 cpu:         5.9
 (Enter /home/proyectos/fulerenos/M3C-v1.9/M3C-deps_CCC/g09-AM64L-G09RevC.01/l701.exe)
 Compute integral second derivatives.
 ... and contract with generalized density number  0.
 Leave Link  701 at Sun Jun 19 12:34:02 2016, MaxMem=    33554432 cpu:         2.0
 (Enter /home/proyectos/fulerenos/M3C-v1.9/M3C-deps_CCC/g09-AM64L-G09RevC.01/l702.exe)
 L702 exits ... SP integral derivatives will be done elsewhere.
 Leave Link  702 at Sun Jun 19 12:34:02 2016, MaxMem=    33554432 cpu:         0.1
 (Enter /home/proyectos/fulerenos/M3C-v1.9/M3C-deps_CCC/g09-AM64L-G09RevC.01/l703.exe)
 Compute integral second derivatives, UseDBF=F ICtDFT=           0.
 Integral derivatives from FoFJK, PRISM(SPDF).
 Calling FoFJK, ICntrl=    100127 FMM=F ISym2X=0 I1Cent= 0 IOpClX= 1 NMat=1 NMatS=1 NMatT=0.
 FoFJK:  IHMeth= 1 ICntrl=  100127 DoSepK=F KAlg= 0 I1Cent=   0 FoldK=F
 IRaf=         0 NMat=   1 IRICut=       1 DoRegI=T DoRafI=F ISym2E= 0.
 FoFCou: FMM=F IPFlag=           0 FMFlag=      100000 FMFlg1=         800
         NFxFlg=           0 DoJE=F BraDBF=F KetDBF=F FulRan=T
         wScrn=  0.000000 ICntrl=  100127 IOpCl=  1 I1Cent=           0 NGrid=           0
         NMat0=    1 NMatS0=      1 NMatT0=    0 NMatD0=    1 NMtDS0=    0 NMtDT0=    0
 Symmetry not used in FoFCou.
 Leave Link  703 at Sun Jun 19 12:36:20 2016, MaxMem=    33554432 cpu:       550.7
 (Enter /home/proyectos/fulerenos/M3C-v1.9/M3C-deps_CCC/g09-AM64L-G09RevC.01/l716.exe)
 Dipole        = 3.86389788D-01-8.03838735D-02 4.60280241D-02
 Polarizability= 8.65352805D+01-2.10026536D+00 3.58279290D+01
                 8.31423129D-02 2.41151868D+00 3.31306217D+01
 Full mass-weighted force constant matrix:
 Low frequencies ---  -13.5046   -6.0073   -4.1509   -0.0004   -0.0003    0.0007
 Low frequencies ---  182.7254  208.1221  300.2288
 Diagonal vibrational polarizability:
       16.5896628       8.5007776      10.6198179
 Harmonic frequencies (cm**-1), IR intensities (KM/Mole), Raman scattering
 activities (A**4/AMU), depolarization ratios for plane and unpolarized
 incident light, reduced masses (AMU), force constants (mDyne/A),
 and normal coordinates:
                      1                      2                      3
                      A                      A                      A
 Frequencies --    182.7251               208.1220               300.2288
 Red. masses --      3.6728                 5.0260                 1.1424
 Frc consts  --      0.0723                 0.1283                 0.0607
 IR Inten    --      8.1049                 9.4044                23.5871
  Atom  AN      X      Y      Z        X      Y      Z        X      Y      Z
     1   6    -0.05  -0.17   0.14    -0.00   0.13   0.29    -0.00   0.05  -0.02
     2   6    -0.14   0.14  -0.10    -0.05  -0.10  -0.23     0.01  -0.01   0.01
     3   1     0.11   0.38  -0.42    -0.29  -0.30  -0.45    -0.19  -0.14  -0.65
     4   1    -0.49   0.31   0.04     0.18  -0.23  -0.39     0.23  -0.02   0.67
     5   6    -0.05  -0.19   0.13    -0.02   0.08   0.17     0.01   0.02   0.03
     6   1    -0.23  -0.16   0.11    -0.10  -0.08   0.02    -0.03   0.00   0.01
     7   6     0.07   0.05  -0.03     0.27   0.07  -0.20    -0.03  -0.04   0.03
     8   6     0.22   0.13  -0.12    -0.18  -0.13   0.04     0.01  -0.00  -0.06
                      4                      5                      6
                      A                      A                      A
 Frequencies --    394.7772               448.8285               525.8224
 Red. masses --      1.9672                 8.6752                 7.1867
 Frc consts  --      0.1806                 1.0297                 1.1707
 IR Inten    --     14.6480                13.5742                 5.6205
  Atom  AN      X      Y      Z        X      Y      Z        X      Y      Z
     1   6    -0.08   0.16  -0.00    -0.18  -0.04  -0.43    -0.13   0.00  -0.29
     2   6    -0.07   0.05   0.01    -0.13  -0.00   0.09    -0.08  -0.07   0.07
     3   1    -0.51  -0.39   0.32    -0.22  -0.10   0.20     0.15   0.15   0.20
     4   1     0.49  -0.25  -0.23     0.04  -0.05   0.36    -0.35   0.07   0.14
     5   6    -0.01  -0.13   0.00    -0.04  -0.12   0.10     0.02   0.24   0.39
     6   1     0.08  -0.18  -0.03     0.18  -0.06   0.18     0.21   0.18   0.35
     7   6    -0.02  -0.01  -0.00     0.57   0.02   0.16    -0.07   0.05  -0.29
     8   6     0.17   0.00  -0.01    -0.22   0.17   0.02     0.26  -0.27   0.07
                      7                      8                      9
                      A                      A                      A
 Frequencies --    669.5428               764.5874               867.6886
 Red. masses --      6.1407                 1.9669                 1.4565
 Frc consts  --      1.6219                 0.6775                 0.6461
 IR Inten    --      3.6390                 4.7077                66.5402
  Atom  AN      X      Y      Z        X      Y      Z        X      Y      Z
     1   6     0.10  -0.11  -0.09    -0.05   0.21  -0.00    -0.02   0.09   0.00
     2   6     0.18   0.14  -0.03     0.03  -0.16   0.02     0.02  -0.05   0.03
     3   1    -0.09  -0.14   0.21     0.41   0.21  -0.07     0.09   0.05  -0.17
     4   1     0.55  -0.06  -0.12    -0.47   0.08  -0.03    -0.15   0.02  -0.05
     5   6     0.18  -0.22   0.34     0.03  -0.08   0.05     0.04  -0.14  -0.05
     6   1     0.09  -0.33   0.15     0.34  -0.52  -0.28     0.00   0.69   0.64
     7   6    -0.22   0.12  -0.12    -0.03  -0.02   0.01    -0.01   0.06  -0.03
     8   6    -0.28   0.11  -0.12    -0.01   0.06  -0.05    -0.02  -0.02   0.01
                     10                     11                     12
                      A                      A                      A
 Frequencies --    900.3956               963.9261              1163.5523
 Red. masses --      1.3330                 3.2659                 1.2507
 Frc consts  --      0.6367                 1.7879                 0.9976
 IR Inten    --     57.2244                15.3566                31.1327
  Atom  AN      X      Y      Z        X      Y      Z        X      Y      Z
     1   6     0.00   0.03   0.04    -0.09  -0.09   0.08     0.02  -0.05   0.03
     2   6    -0.02  -0.03  -0.16    -0.20  -0.00   0.03     0.01   0.02  -0.01
     3   1     0.14   0.06   0.66    -0.44  -0.19   0.03     0.08   0.08  -0.08
     4   1     0.05   0.05   0.70    -0.32   0.03   0.08     0.22  -0.06   0.03
     5   6     0.00  -0.02  -0.00     0.36   0.07  -0.08    -0.13   0.01  -0.01
     6   1    -0.01   0.08   0.08     0.67   0.05  -0.04     0.93  -0.00   0.20
     7   6    -0.00   0.00  -0.00    -0.03   0.02  -0.00    -0.00  -0.00  -0.03
     8   6    -0.00  -0.00   0.00    -0.04   0.02  -0.03     0.00   0.02   0.00
                     13                     14                     15
                      A                      A                      A
 Frequencies --   1224.6217              1436.9268              1694.7819
 Red. masses --      1.1932                10.4803                 9.6845
 Frc consts  --      1.0543                12.7495                16.3891
 IR Inten    --    109.2976                14.1253                12.7039
  Atom  AN      X      Y      Z        X      Y      Z        X      Y      Z
     1   6    -0.06  -0.00   0.01     0.03  -0.00  -0.00     0.69   0.12  -0.12
     2   6    -0.09  -0.02   0.01    -0.00   0.00  -0.00    -0.50  -0.09   0.08
     3   1     0.49   0.49  -0.10     0.00  -0.00   0.15    -0.23   0.20   0.04
     4   1     0.61  -0.32  -0.08    -0.02  -0.00  -0.12    -0.20  -0.27   0.02
     5   6     0.07   0.01  -0.01    -0.06   0.01   0.00    -0.07  -0.06   0.05
     6   1    -0.11   0.01  -0.04     0.23  -0.22  -0.02    -0.03   0.01   0.04
     7   6     0.00   0.00   0.01     0.02   0.49   0.44    -0.04   0.01  -0.03
     8   6    -0.00  -0.01  -0.00    -0.00  -0.49  -0.44    -0.04   0.03  -0.00
                     16                     17                     18
                      A                      A                      A
 Frequencies --   2775.2525              2911.7269              2962.6039
 Red. masses --      1.0738                 1.0607                 1.1038
 Frc consts  --      4.8727                 5.2983                 5.7083
 IR Inten    --    247.8183               540.3378               254.6173
  Atom  AN      X      Y      Z        X      Y      Z        X      Y      Z
     1   6     0.00   0.00  -0.00    -0.00  -0.00   0.00     0.00  -0.00  -0.00
     2   6     0.00  -0.00  -0.00     0.07  -0.01  -0.01    -0.00  -0.09   0.01
     3   1    -0.03   0.04   0.00    -0.55   0.64   0.04    -0.36   0.37   0.03
     4   1    -0.01  -0.04   0.01    -0.19  -0.49   0.06     0.35   0.77  -0.10
     5   6     0.02   0.05  -0.06    -0.00  -0.00   0.00     0.00  -0.00  -0.00
     6   1    -0.15  -0.63   0.75     0.01   0.04  -0.05    -0.00  -0.00   0.01
     7   6    -0.00  -0.00  -0.00     0.00  -0.00   0.00    -0.00   0.00  -0.00
     8   6    -0.00   0.01   0.00     0.00  -0.00   0.00    -0.00   0.00  -0.00

 -------------------
 - Thermochemistry -
 -------------------
 Temperature   298.150 Kelvin.  Pressure   1.00000 Atm.
 Atom     1 has atomic number  6 and mass  12.00000
 Atom     2 has atomic number  6 and mass  12.00000
 Atom     3 has atomic number  1 and mass   1.00783
 Atom     4 has atomic number  1 and mass   1.00783
 Atom     5 has atomic number  6 and mass  12.00000
 Atom     6 has atomic number  1 and mass   1.00783
 Atom     7 has atomic number  6 and mass  12.00000
 Atom     8 has atomic number  6 and mass  12.00000
 Molecular mass:    63.02348 amu.
 Principal axes and moments of inertia in atomic units:
                           1         2         3
     Eigenvalues --    74.62651 553.49838 566.58106
           X            0.99985   0.00384  -0.01701
           Y           -0.01091   0.89890  -0.43801
           Z            0.01361   0.43813   0.89881
 This molecule is an asymmetric top.
 Rotational symmetry number  1.
 Rotational temperatures (Kelvin)      1.16063     0.15648     0.15287
 Rotational constants (GHZ):          24.18365     3.26061     3.18532
 Zero-point vibrational energy     121995.8 (Joules/Mol)
                                   29.15770 (Kcal/Mol)
 Warning -- explicit consideration of   6 degrees of freedom as
           vibrations may cause significant error
 Vibrational temperatures:    262.90   299.44   431.96   568.00   645.76
          (Kelvin)            756.54   963.32  1100.07  1248.41  1295.47
                             1386.87  1674.09  1761.96  2067.41  2438.41
                             3992.96  4189.32  4262.52
 
 Zero-point correction=                           0.046466 (Hartree/Particle)
 Thermal correction to Energy=                    0.052055
 Thermal correction to Enthalpy=                  0.052999
 Thermal correction to Gibbs Free Energy=         0.017360
 Sum of electronic and zero-point Energies=           -191.103739
 Sum of electronic and thermal Energies=              -191.098150
 Sum of electronic and thermal Enthalpies=            -191.097205
 Sum of electronic and thermal Free Energies=         -191.132844
 
                     E (Thermal)             CV                S
                      KCal/Mol        Cal/Mol-Kelvin    Cal/Mol-Kelvin
 Total                   32.665             18.978             75.008
 Electronic               0.000              0.000              2.755
 Translational            0.889              2.981             38.342
 Rotational               0.889              2.981             24.663
 Vibrational             30.887             13.017              9.249
 Vibration     1          0.630              1.863              2.300
 Vibration     2          0.641              1.828              2.060
 Vibration     3          0.693              1.673              1.416
 Vibration     4          0.762              1.481              0.982
 Vibration     5          0.808              1.363              0.799
 Vibration     6          0.881              1.193              0.597
                       Q            Log10(Q)             Ln(Q)
 Total Bot       0.103504D-07         -7.985044        -18.386244
 Total V=0       0.244160D+14         13.387675         30.826262
 Vib (Bot)       0.240273D-20        -20.619295        -47.477682
 Vib (Bot)    1  0.109816D+01          0.040664          0.093632
 Vib (Bot)    2  0.955041D+00         -0.019978         -0.046001
 Vib (Bot)    3  0.633358D+00         -0.198351         -0.456720
 Vib (Bot)    4  0.453205D+00         -0.343705         -0.791410
 Vib (Bot)    5  0.382441D+00         -0.417436         -0.961182
 Vib (Bot)    6  0.305332D+00         -0.515227         -1.186355
 Vib (V=0)       0.566793D+01          0.753424          1.734824
 Vib (V=0)    1  0.170663D+01          0.232138          0.534518
 Vib (V=0)    2  0.157801D+01          0.198110          0.456164
 Vib (V=0)    3  0.130693D+01          0.116254          0.267684
 Vib (V=0)    4  0.117483D+01          0.069975          0.161123
 Vib (V=0)    5  0.112949D+01          0.052883          0.121768
 Vib (V=0)    6  0.108586D+01          0.035772          0.082369
 Electronic      0.400000D+01          0.602060          1.386294
 Translational   0.196657D+08          7.293709         16.794385
 Rotational      0.547624D+05          4.738482         10.910758
 
                                                              b3lyp opt
                                                             IR Spectrum
 
     2  2     2                                             1          1        1  1                                                 
     9  9     7                                             6          4        2  1       9  98    7   6     5  4  3   3   21       
     6  1     7                                             9          3        2  6       6  06    6   7     2  4  9   0   08       
     3  2     5                                             5          7        5  4       4  08    5   0     6  9  5   0   83       
 
     X  X     X                                             X          X        X  X       X  XX    X   X     X  X  X   X   XX       
     X  X     X                                                                 X             XX                                     
     X  X     X                                                                 X                                                    
     X  X     X                                                                 X                                                    
     X  X     X                                                                                                                      
     X  X     X                                                                                                                      
     X  X     X                                                                                                                      
     X  X     X                                                                                                                      
     X  X     X                                                                                                                      
        X                                                                                                                            
        X                                                                                                                            
        X                                                                                                                            
        X                                                                                                                            
        X                                                                                                                            
        X                                                                                                                            
        X                                                                                                                            
        X                                                                                                                            
        X                                                                                                                            
        X                                                                                                                            
        X                                                                                                                            
 
 ***** Axes restored to original set *****
 -------------------------------------------------------------------
 Center     Atomic                   Forces (Hartrees/Bohr)
 Number     Number              X              Y              Z
 -------------------------------------------------------------------
      1        6          -0.000003637   -0.000037538   -0.000000357
      2        6           0.000009920    0.000020653   -0.000000045
      3        1          -0.000008990   -0.000011640   -0.000001897
      4        1          -0.000008912    0.000010792    0.000006846
      5        6           0.000046743   -0.000004847   -0.000008485
      6        1          -0.000017525    0.000021196   -0.000007485
      7        6          -0.000014832    0.000061261    0.000054204
      8        6          -0.000002767   -0.000059875   -0.000042781
 -------------------------------------------------------------------
 Cartesian Forces:  Max     0.000061261 RMS     0.000027262
 Z-matrix is all fixed cartesians, so copy forces.
 Force constants in Cartesian coordinates: 
                1             2             3             4             5 
      1  0.827474D+00
      2 -0.111508D+00  0.158741D+00
      3  0.127201D+00 -0.322814D-01  0.936165D-01
      4 -0.498864D+00  0.682520D-01 -0.699030D-01  0.752810D+00
      5  0.727956D-01 -0.838357D-01  0.149015D-01 -0.577601D-01  0.457344D+00
      6 -0.749968D-01  0.124785D-01 -0.465431D-01  0.104398D+00 -0.299320D-01
      7 -0.291840D-01 -0.135549D-01 -0.452537D-02 -0.130118D+00 -0.131381D+00
      8 -0.200742D-03  0.263926D-02 -0.368763D-03 -0.121620D+00 -0.164940D+00
      9 -0.640339D-02  0.112285D-02  0.259555D-02 -0.763649D-02 -0.127706D-01
     10 -0.233055D-01  0.213873D-01 -0.596716D-02 -0.594499D-01  0.980836D-01
     11  0.621156D-02 -0.375124D-02  0.149469D-02  0.904926D-01 -0.237427D+00
     12 -0.256901D-02  0.226807D-02  0.607649D-02 -0.106743D-01  0.276858D-01
     13 -0.157756D+00  0.148425D-01 -0.279960D-01 -0.983824D-01  0.240942D-01
     14  0.626421D-01 -0.771210D-01  0.128750D-01  0.562347D-02  0.304274D-01
     15 -0.657908D-01  0.101661D-01 -0.570653D-01 -0.635758D-02  0.158733D-04
     16 -0.339810D-02  0.202286D-01 -0.204986D-01 -0.330973D-02 -0.453205D-02
     17  0.798793D-02 -0.363385D-02  0.620013D-02 -0.198276D-02  0.132245D-02
     18 -0.130841D-01  0.705683D-02 -0.586064D-02  0.532215D-02 -0.226773D-03
     19 -0.563010D-01  0.110111D-01  0.103449D-01  0.160230D-01 -0.238983D-02
     20 -0.161558D-01  0.148226D-03 -0.511742D-02  0.583099D-02  0.251916D-02
     21  0.231795D-01  0.315892D-02  0.102495D-01 -0.113174D-01 -0.113155D-02
     22 -0.586659D-01 -0.106583D-01 -0.865615D-02  0.212907D-01  0.109001D-02
     23 -0.217724D-01  0.681327D-02  0.229618D-02  0.111642D-01 -0.540928D-02
     24  0.124632D-01 -0.396990D-02 -0.306893D-02 -0.383167D-02  0.145781D-02
                6             7             8             9            10 
      6  0.112069D+00
      7 -0.624454D-02  0.150732D+00
      8 -0.103605D-01  0.135029D+00  0.182785D+00
      9 -0.308953D-01  0.123118D-01  0.102504D-01  0.145600D-01
     10 -0.109522D-01  0.735445D-02 -0.155442D-01  0.104687D-02  0.757414D-01
     11  0.267758D-01  0.772309D-02 -0.168116D-01  0.272204D-02 -0.100859D+00
     12 -0.350598D-01 -0.118853D-02 -0.801612D-03  0.952079D-02  0.156691D-01
     13 -0.184972D-01  0.290822D-02  0.335954D-02 -0.133218D-02  0.235653D-03
     14 -0.240860D-02  0.264335D-02 -0.320191D-02 -0.430874D-03 -0.281801D-02
     15  0.298143D-02 -0.343862D-03  0.969909D-03  0.459162D-02  0.389360D-03
     16  0.103526D-03 -0.517877D-03  0.977551D-03  0.224342D-02  0.926759D-03
     17 -0.750246D-04  0.409775D-03  0.151684D-03 -0.133311D-02 -0.111647D-03
     18  0.422663D-03 -0.632413D-03 -0.785474D-03 -0.992617D-03 -0.965978D-03
     19  0.343109D-02 -0.723598D-03 -0.493902D-03  0.698699D-04 -0.442589D-03
     20 -0.432439D-03 -0.147754D-02 -0.303831D-03  0.704473D-02  0.175869D-03
     21 -0.340711D-02 -0.811127D-03  0.778128D-03  0.511715D-02  0.109046D-02
     22  0.275775D-02 -0.451204D-03 -0.150649D-02 -0.299935D-03 -0.106023D-02
     23  0.395424D-02  0.608878D-03 -0.318320D-03 -0.660535D-02 -0.314112D-03
     24  0.432159D-03  0.143400D-02  0.317907D-03 -0.449721D-02 -0.310436D-03
               11            12            13            14            15 
     11  0.259397D+00
     12 -0.306525D-01  0.180916D-01
     13 -0.487713D-02  0.157916D-02  0.371283D+00
     14 -0.253705D-02  0.147684D-02 -0.392102D-01  0.217703D+00
     15 -0.620656D-03 -0.326105D-03  0.574396D-01 -0.122108D+00  0.237694D+00
     16  0.131269D-03 -0.163979D-02 -0.392561D-01  0.196074D-01 -0.203255D-01
     17 -0.547874D-04  0.120613D-02  0.276016D-01 -0.115482D+00  0.105651D+00
     18  0.987080D-03  0.132648D-02 -0.287495D-01  0.100657D+00 -0.147728D+00
     19  0.552585D-03 -0.129552D-02 -0.365852D-01 -0.140193D-01  0.210553D-01
     20  0.281986D-03 -0.656047D-02  0.682797D-02 -0.279756D-01  0.184268D-01
     21 -0.123457D-03 -0.439631D-02  0.196514D-01  0.285263D-03 -0.221241D-01
     22  0.624756D-03  0.118942D-03 -0.424476D-01 -0.344688D-01  0.139334D-01
     23  0.903097D-03  0.537782D-02 -0.326384D-01 -0.218123D-01 -0.125017D-01
     24 -0.582991D-03  0.476688D-02 -0.209533D-02  0.965311D-02 -0.180230D-01
               16            17            18            19            20 
     16  0.497261D-01
     17 -0.238642D-01  0.124974D+00
     18  0.244306D-01 -0.121377D+00  0.167937D+00
     19 -0.223836D-02 -0.562167D-02  0.734402D-02  0.723419D-01
     20 -0.117562D-01  0.530734D-02  0.285736D-02 -0.116396D-02  0.278570D+00
     21  0.300908D-02 -0.346145D-02 -0.228958D-01 -0.374021D-01  0.215372D+00
     22 -0.193267D-02 -0.441905D-02  0.633521D-02  0.792592D-02  0.177187D-01
     23 -0.792381D-03 -0.125850D-01  0.108308D-01  0.121250D-01 -0.258547D+00
     24  0.126773D-01  0.131888D-01  0.779116D-02 -0.354763D-02 -0.231591D+00
               21            22            23            24 
     21  0.242447D+00
     22  0.260021D-02  0.753410D-01
     23 -0.214878D+00  0.316192D-01  0.290956D+00
     24 -0.204991D+00 -0.167894D-01  0.211526D+00  0.217590D+00
 Leave Link  716 at Sun Jun 19 12:36:21 2016, MaxMem=    33554432 cpu:         3.2
 (Enter /home/proyectos/fulerenos/M3C-v1.9/M3C-deps_CCC/g09-AM64L-G09RevC.01/l103.exe)

 GradGradGradGradGradGradGradGradGradGradGradGradGradGradGradGradGradGrad
 Berny optimization.
 Search for a local minimum.
 Step number   1 out of a maximum of    2
 All quantities printed in internal units (Hartrees-Bohrs-Radians)
 Second derivative matrix not updated -- analytic derivatives used.
 ITU=  0
     Eigenvalues ---    0.00441   0.00523   0.01024   0.02476   0.04318
     Eigenvalues ---    0.05533   0.07153   0.08242   0.10956   0.14560
     Eigenvalues ---    0.15675   0.20067   0.32060   0.47183   0.64775
     Eigenvalues ---    0.65656   0.93443   1.37586
 Angle between quadratic step and forces=  75.48 degrees.
 Linear search not attempted -- first point.
 B after Tr=     0.000021   -0.000084   -0.000077
         Rot=    1.000000   -0.000016   -0.000004    0.000004 Ang=  -0.00 deg.
 Variable       Old X    -DE/DX   Delta X   Delta X   Delta X     New X
                                 (Linear)    (Quad)   (Total)
    X1        1.65131  -0.00000   0.00000  -0.00000   0.00002   1.65133
    Y1        0.14423  -0.00004   0.00000  -0.00044  -0.00053   0.14370
    Z1       -0.12315  -0.00000   0.00000  -0.00044  -0.00053  -0.12368
    X2        3.99644   0.00001   0.00000  -0.00001   0.00001   3.99645
    Y2       -0.24652   0.00002   0.00000   0.00000  -0.00012  -0.24664
    Z2        0.24703  -0.00000   0.00000   0.00008  -0.00003   0.24700
    X3        5.36613  -0.00001   0.00000  -0.00030  -0.00026   5.36586
    Y3        1.33596  -0.00001   0.00000   0.00023   0.00009   1.33606
    Z3        0.35467  -0.00000   0.00000  -0.00043  -0.00050   0.35417
    X4        4.81739  -0.00001   0.00000   0.00018   0.00018   4.81757
    Y4       -2.15414   0.00001   0.00000   0.00027   0.00013  -2.15401
    Z4        0.49309   0.00001   0.00000   0.00114   0.00096   0.49405
    X5       -0.86964   0.00005   0.00000   0.00009   0.00011  -0.86953
    Y5        0.63353  -0.00000   0.00000  -0.00006  -0.00011   0.63341
    Z5       -0.67655  -0.00001   0.00000  -0.00022  -0.00027  -0.67683
    X6       -1.17737  -0.00002   0.00000  -0.00016  -0.00014  -1.17751
    Y6        1.96751   0.00002   0.00000   0.00067   0.00067   1.96818
    Z6       -2.28969  -0.00001   0.00000   0.00037   0.00037  -2.28933
    X7       -3.16586  -0.00001   0.00000   0.00023   0.00026  -3.16560
    Y7        0.59855   0.00006   0.00000  -0.00011  -0.00021   0.59833
    Z7        1.25215   0.00005   0.00000   0.00037   0.00033   1.25248
    X8       -3.11327  -0.00000   0.00000  -0.00019  -0.00019  -3.11346
    Y8       -1.32134  -0.00006   0.00000   0.00013   0.00009  -1.32125
    Z8       -0.45915  -0.00004   0.00000  -0.00022  -0.00032  -0.45947
         Item               Value     Threshold  Converged?
 Maximum Force            0.000061     0.000450     YES
 RMS     Force            0.000027     0.000300     YES
 Maximum Displacement     0.000958     0.001800     YES
 RMS     Displacement     0.000351     0.001200     YES
 Predicted change in Energy=-2.890678D-08
 Optimization completed.
    -- Stationary point found.
 GradGradGradGradGradGradGradGradGradGradGradGradGradGradGradGradGradGrad

 Leave Link  103 at Sun Jun 19 12:36:21 2016, MaxMem=    33554432 cpu:         0.7
 (Enter /home/proyectos/fulerenos/M3C-v1.9/M3C-deps_CCC/g09-AM64L-G09RevC.01/l9999.exe)
 1\1\GINC-BELVIS4\Freq\UB3LYP\6-311++G(3df,2p)\C5H3(2+,4)\ROOT\19-Jun-2
 016\0\\#p b3lyp/6-311++G(3df,2p) freq symmetry=Loose\\b3lyp opt\\2,4\C
 ,0.873836,0.076323,-0.065168\C,2.114825,-0.130452,0.130724\H,2.839632,
 0.706962,0.187684\H,2.549252,-1.13992,0.260932\C,-0.460194,0.335247,-0
 .358017\H,-0.623035,1.041162,-1.211653\C,-1.675303,0.316737,0.662607\C
 ,-1.647472,-0.699223,-0.242974\\Version=EM64L-G09RevE.01\State=4-A\HF=
 -191.1502044\S2=3.777934\S2-1=0.\S2A=3.750145\RMSD=9.011e-09\RMSF=2.72
 6e-05\ZeroPoint=0.0464658\Thermal=0.0520547\Dipole=0.3863898,0.0803839
 ,-0.046028\DipoleDeriv=0.0340216,-0.1037725,-0.0148944,0.125001,0.3963
 933,0.0096839,-0.0405115,0.0067604,0.1796847,-0.2079847,0.0529296,-0.0
 577466,-0.0554335,-0.2390647,0.0229248,-0.0792197,0.0543227,0.1866991,
 0.5999016,0.0913767,0.0301071,0.2770282,0.3335078,0.0185238,-0.0613637
 ,-0.0028677,0.2324142,0.4491764,-0.1074846,0.032806,-0.3045858,0.40579
 43,-0.0368441,0.1614953,-0.0304612,0.1949556,0.0636529,-0.0734662,0.09
 51391,-0.3000821,-0.170101,0.0556367,0.1151775,0.02777,-0.0802537,0.10
 99207,-0.0262606,0.0317625,0.075711,0.3456063,-0.1430266,0.0714771,-0.
 1430437,0.386608,0.4077996,-0.0617746,-0.1756203,0.3073662,0.4070269,-
 0.0039309,0.194148,0.0942368,0.485211,0.5435118,0.2284522,0.0584466,-0
 .1250049,0.5208371,0.0770323,-0.3612029,-0.0067172,0.4146812\Polar=86.
 5352805,2.1002649,35.8279289,-0.0831423,2.4115187,33.1306217\PG=C01 [X
 (C5H3)]\NImag=0\\0.82747418,-0.11150823,0.15874106,0.12720135,-0.03228
 136,0.09361648,-0.49886362,0.06825201,-0.06990304,0.75280965,0.0727956
 3,-0.08383569,0.01490154,-0.05776011,0.45734350,-0.07499682,0.01247848
 ,-0.04654312,0.10439842,-0.02993202,0.11206910,-0.02918398,-0.01355487
 ,-0.00452537,-0.13011767,-0.13138136,-0.00624454,0.15073166,-0.0002007
 4,0.00263926,-0.00036876,-0.12162045,-0.16494015,-0.01036047,0.1350286
 9,0.18278491,-0.00640339,0.00112285,0.00259555,-0.00763649,-0.01277064
 ,-0.03089528,0.01231184,0.01025037,0.01456000,-0.02330553,0.02138729,-
 0.00596716,-0.05944991,0.09808356,-0.01095221,0.00735445,-0.01554420,0
 .00104687,0.07574139,0.00621156,-0.00375124,0.00149469,0.09049261,-0.2
 3742738,0.02677583,0.00772309,-0.01681164,0.00272204,-0.10085875,0.259
 39701,-0.00256901,0.00226807,0.00607649,-0.01067434,0.02768577,-0.0350
 5984,-0.00118853,-0.00080161,0.00952079,0.01566910,-0.03065253,0.01809
 163,-0.15775603,0.01484249,-0.02799598,-0.09838239,0.02409417,-0.01849
 721,0.00290822,0.00335954,-0.00133218,0.00023565,-0.00487713,0.0015791
 6,0.37128342,0.06264210,-0.07712105,0.01287501,0.00562347,0.03042739,-
 0.00240860,0.00264335,-0.00320191,-0.00043087,-0.00281801,-0.00253705,
 0.00147684,-0.03921024,0.21770286,-0.06579076,0.01016612,-0.05706528,-
 0.00635758,0.00001587,0.00298143,-0.00034386,0.00096991,0.00459162,0.0
 0038936,-0.00062066,-0.00032610,0.05743964,-0.12210782,0.23769367,-0.0
 0339810,0.02022861,-0.02049859,-0.00330973,-0.00453205,0.00010353,-0.0
 0051788,0.00097755,0.00224342,0.00092676,0.00013127,-0.00163979,-0.039
 25611,0.01960740,-0.02032549,0.04972609,0.00798793,-0.00363385,0.00620
 013,-0.00198276,0.00132245,-0.00007502,0.00040977,0.00015168,-0.001333
 11,-0.00011165,-0.00005479,0.00120613,0.02760163,-0.11548235,0.1056514
 1,-0.02386421,0.12497447,-0.01308410,0.00705683,-0.00586064,0.00532215
 ,-0.00022677,0.00042266,-0.00063241,-0.00078547,-0.00099262,-0.0009659
 8,0.00098708,0.00132648,-0.02874947,0.10065708,-0.14772821,0.02443059,
 -0.12137687,0.16793695,-0.05630100,0.01101105,0.01034493,0.01602297,-0
 .00238983,0.00343109,-0.00072360,-0.00049390,0.00006987,-0.00044259,0.
 00055259,-0.00129552,-0.03658520,-0.01401928,0.02105533,-0.00223836,-0
 .00562167,0.00734402,0.07234185,-0.01615583,0.00014823,-0.00511742,0.0
 0583099,0.00251916,-0.00043244,-0.00147754,-0.00030383,0.00704473,0.00
 017587,0.00028199,-0.00656047,0.00682797,-0.02797564,0.01842684,-0.011
 75618,0.00530734,0.00285736,-0.00116396,0.27857007,0.02317953,0.003158
 92,0.01024946,-0.01131744,-0.00113155,-0.00340711,-0.00081113,0.000778
 13,0.00511715,0.00109046,-0.00012346,-0.00439631,0.01965138,0.00028526
 ,-0.02212413,0.00300908,-0.00346145,-0.02289578,-0.03740209,0.21537227
 ,0.24244737,-0.05866591,-0.01065834,-0.00865615,0.02129070,0.00109001,
 0.00275775,-0.00045120,-0.00150649,-0.00029994,-0.00106023,0.00062476,
 0.00011894,-0.04244757,-0.03446878,0.01393337,-0.00193267,-0.00441905,
 0.00633521,0.00792592,0.01771868,0.00260021,0.07534096,-0.02177242,0.0
 0681327,0.00229618,0.01116424,-0.00540928,0.00395424,0.00060888,-0.000
 31832,-0.00660535,-0.00031411,0.00090310,0.00537782,-0.03263843,-0.021
 81225,-0.01250168,-0.00079238,-0.01258496,0.01083077,0.01212500,-0.258
 54731,-0.21487813,0.03161922,0.29095576,0.01246320,-0.00396990,-0.0030
 6893,-0.00383167,0.00145781,0.00043216,0.00143400,0.00031791,-0.004497
 21,-0.00031044,-0.00058299,0.00476688,-0.00209533,0.00965311,-0.018023
 00,0.01267725,0.01318879,0.00779116,-0.00354763,-0.23159087,-0.2049906
 5,-0.01678939,0.21152615,0.21758960\\0.00000364,0.00003754,0.00000036,
 -0.00000992,-0.00002065,0.00000005,0.00000899,0.00001164,0.00000190,0.
 00000891,-0.00001079,-0.00000685,-0.00004674,0.00000485,0.00000849,0.0
 0001753,-0.00002120,0.00000749,0.00001483,-0.00006126,-0.00005420,0.00
 000277,0.00005988,0.00004278\\\@


 Life may have no meaning.  Or even worse, it may have a
 meaning of which I disapprove.
                                 -- Ashleigh Brilliant
 Job cpu time:       0 days  0 hours 55 minutes 25.7 seconds.
 File lengths (MBytes):  RWF=     70 Int=      0 D2E=      0 Chk=      5 Scr=      1
 Normal termination of Gaussian 09 at Sun Jun 19 12:36:21 2016.
