 Entering Gaussian System, Link 0=/home/proyectos/fulerenos/M3C-v2.0/M3C-deps_CCC/g09-AM64L-G09RevC.01/g09
 Initial command:
 /home/proyectos/fulerenos/M3C-v2.0/M3C-deps_CCC/g09-AM64L-G09RevC.01/l1.exe "/scratch/naguirre/gaussian/Gau-23791.inp" -scrdir="/scratch/naguirre/gaussian/"
 Entering Link 1 = /home/proyectos/fulerenos/M3C-v2.0/M3C-deps_CCC/g09-AM64L-G09RevC.01/l1.exe PID=     23795.
  
 Copyright (c) 1988,1990,1992,1993,1995,1998,2003,2009,2015,
            Gaussian, Inc.  All Rights Reserved.
  
 This is part of the Gaussian(R) 09 program.  It is based on
 the Gaussian(R) 03 system (copyright 2003, Gaussian, Inc.),
 the Gaussian(R) 98 system (copyright 1998, Gaussian, Inc.),
 the Gaussian(R) 94 system (copyright 1995, Gaussian, Inc.),
 the Gaussian 92(TM) system (copyright 1992, Gaussian, Inc.),
 the Gaussian 90(TM) system (copyright 1990, Gaussian, Inc.),
 the Gaussian 88(TM) system (copyright 1988, Gaussian, Inc.),
 the Gaussian 86(TM) system (copyright 1986, Carnegie Mellon
 University), and the Gaussian 82(TM) system (copyright 1983,
 Carnegie Mellon University). Gaussian is a federally registered
 trademark of Gaussian, Inc.
  
 This software contains proprietary and confidential information,
 including trade secrets, belonging to Gaussian, Inc.
  
 This software is provided under written license and may be
 used, copied, transmitted, or stored only in accord with that
 written license.
  
 The following legend is applicable only to US Government
 contracts under FAR:
  
                    RESTRICTED RIGHTS LEGEND
  
 Use, reproduction and disclosure by the US Government is
 subject to restrictions as set forth in subparagraphs (a)
 and (c) of the Commercial Computer Software - Restricted
 Rights clause in FAR 52.227-19.
  
 Gaussian, Inc.
 340 Quinnipiac St., Bldg. 40, Wallingford CT 06492
  
  
 ---------------------------------------------------------------
 Warning -- This program may not be used in any manner that
 competes with the business of Gaussian, Inc. or will provide
 assistance to any competitor of Gaussian, Inc.  The licensee
 of this program is prohibited from giving any competitor of
 Gaussian, Inc. access to this program.  By using this program,
 the user acknowledges that Gaussian, Inc. is engaged in the
 business of creating and licensing software in the field of
 computational chemistry and represents and warrants to the
 licensee that it is not a competitor of Gaussian, Inc. and that
 it will not use this program in any manner prohibited above.
 ---------------------------------------------------------------
  

 Cite this work as:
 Gaussian 09, Revision E.01,
 M. J. Frisch, G. W. Trucks, H. B. Schlegel, G. E. Scuseria, 
 M. A. Robb, J. R. Cheeseman, G. Scalmani, V. Barone, B. Mennucci, 
 G. A. Petersson, H. Nakatsuji, M. Caricato, X. Li, H. P. Hratchian, 
 A. F. Izmaylov, J. Bloino, G. Zheng, J. L. Sonnenberg, M. Hada, 
 M. Ehara, K. Toyota, R. Fukuda, J. Hasegawa, M. Ishida, T. Nakajima, 
 Y. Honda, O. Kitao, H. Nakai, T. Vreven, J. A. Montgomery, Jr., 
 J. E. Peralta, F. Ogliaro, M. Bearpark, J. J. Heyd, E. Brothers, 
 K. N. Kudin, V. N. Staroverov, T. Keith, R. Kobayashi, J. Normand, 
 K. Raghavachari, A. Rendell, J. C. Burant, S. S. Iyengar, J. Tomasi, 
 M. Cossi, N. Rega, J. M. Millam, M. Klene, J. E. Knox, J. B. Cross, 
 V. Bakken, C. Adamo, J. Jaramillo, R. Gomperts, R. E. Stratmann, 
 O. Yazyev, A. J. Austin, R. Cammi, C. Pomelli, J. W. Ochterski, 
 R. L. Martin, K. Morokuma, V. G. Zakrzewski, G. A. Voth, 
 P. Salvador, J. J. Dannenberg, S. Dapprich, A. D. Daniels, 
 O. Farkas, J. B. Foresman, J. V. Ortiz, J. Cioslowski, 
 and D. J. Fox, Gaussian, Inc., Wallingford CT, 2013.
 
 ******************************************
 Gaussian 09:  EM64L-G09RevE.01 30-Nov-2015
                19-Jul-2016 
 ******************************************
 %NProcShared=1
 Will use up to    1 processors via shared memory.
 ---------------------------------------------
 #p b3lyp/6-311++G(3df,2p) freq symmetry=Loose
 ---------------------------------------------
 1/10=4,30=1,38=1/1,3;
 2/12=2,17=4,18=3,40=1/2;
 3/5=4,6=6,7=1216,11=2,16=1,25=1,30=1,71=2,74=-5,140=1/1,2,3;
 4//1;
 5/5=2,38=5,98=1/2;
 8/6=4,10=90,11=11/1;
 11/6=1,8=1,9=11,15=111,16=1/1,2,10;
 10/6=1/2;
 6/7=2,8=2,9=2,10=2,18=1,28=1/1;
 7/8=1,10=1,25=1/1,2,3,16;
 1/10=4,30=1/3;
 99//99;
 Leave Link    1 at Tue Jul 19 14:36:57 2016, MaxMem=           0 cpu:         0.1
 (Enter /home/proyectos/fulerenos/M3C-v2.0/M3C-deps_CCC/g09-AM64L-G09RevC.01/l101.exe)
 ---------
 b3lyp opt
 ---------
 Symbolic Z-matrix:
 Charge =  2 Multiplicity = 4
 C                    -0.8604    0.73837   0.00006 
 H                    -1.25835   1.20428  -0.92185 
 H                    -1.25823   1.2042    0.92207 
 C                    -1.10816  -0.76053   0.00002 
 C                     0.1543   -1.12656  -0.00008 
 C                     0.735     0.86171  -0.00004 
 H                     1.24009   1.83831  -0.00003 
 C                     1.29179  -0.42074  -0.00013 
 
 NAtoms=      8 NQM=        8 NQMF=       0 NMMI=      0 NMMIF=      0
                NMic=       0 NMicF=      0.
                    Isotopes and Nuclear Properties:
 (Nuclear quadrupole moments (NQMom) in fm**2, nuclear magnetic moments (NMagM)
  in nuclear magnetons)

  Atom         1           2           3           4           5           6           7           8
 IAtWgt=          12           1           1          12          12          12           1          12
 AtmWgt=  12.0000000   1.0078250   1.0078250  12.0000000  12.0000000  12.0000000   1.0078250  12.0000000
 NucSpn=           0           1           1           0           0           0           1           0
 AtZEff=   0.0000000   0.0000000   0.0000000   0.0000000   0.0000000   0.0000000   0.0000000   0.0000000
 NQMom=    0.0000000   0.0000000   0.0000000   0.0000000   0.0000000   0.0000000   0.0000000   0.0000000
 NMagM=    0.0000000   2.7928460   2.7928460   0.0000000   0.0000000   0.0000000   2.7928460   0.0000000
 AtZNuc=   6.0000000   1.0000000   1.0000000   6.0000000   6.0000000   6.0000000   1.0000000   6.0000000
 Leave Link  101 at Tue Jul 19 14:36:58 2016, MaxMem=    33554432 cpu:         0.2
 (Enter /home/proyectos/fulerenos/M3C-v2.0/M3C-deps_CCC/g09-AM64L-G09RevC.01/l103.exe)

 GradGradGradGradGradGradGradGradGradGradGradGradGradGradGradGradGradGrad
 Berny optimization.
 Initialization pass.
 Trust Radius=3.00D-01 FncErr=1.00D-07 GrdErr=1.00D-07
 Number of steps in this run=      2 maximum allowed number of steps=      2.
 GradGradGradGradGradGradGradGradGradGradGradGradGradGradGradGradGradGrad

 Leave Link  103 at Tue Jul 19 14:36:58 2016, MaxMem=    33554432 cpu:         0.1
 (Enter /home/proyectos/fulerenos/M3C-v2.0/M3C-deps_CCC/g09-AM64L-G09RevC.01/l202.exe)
                          Input orientation:                          
 ---------------------------------------------------------------------
 Center     Atomic      Atomic             Coordinates (Angstroms)
 Number     Number       Type             X           Y           Z
 ---------------------------------------------------------------------
      1          6           0       -0.860401    0.738371    0.000065
      2          1           0       -1.258352    1.204275   -0.921847
      3          1           0       -1.258225    1.204199    0.922070
      4          6           0       -1.108164   -0.760528    0.000020
      5          6           0        0.154305   -1.126562   -0.000082
      6          6           0        0.734996    0.861708   -0.000040
      7          1           0        1.240094    1.838310   -0.000034
      8          6           0        1.291795   -0.420741   -0.000131
 ---------------------------------------------------------------------
                    Distance matrix (angstroms):
                    1          2          3          4          5
     1  C    0.000000
     2  H    1.106957   0.000000
     3  H    1.106957   1.843917   0.000000
     4  C    1.519238   2.175511   2.175511   0.000000
     5  C    2.123112   2.877160   2.877160   1.314461   0.000000
     6  C    1.600157   2.222727   2.222727   2.455379   2.071333
     7  H    2.371064   2.737512   2.737512   3.502610   3.157436
     8  C    2.444481   3.161248   3.161248   2.423893   1.338681
                    6          7          8
     6  C    0.000000
     7  H    1.099489   0.000000
     8  C    1.398106   2.259643   0.000000
 Stoichiometry    C5H3(2+,4)
 Framework group  C1[X(C5H3)]
 Deg. of freedom    18
 Full point group                 C1      NOp   1
 Largest Abelian subgroup         C1      NOp   1
 Largest concise Abelian subgroup C1      NOp   1
                         Standard orientation:                         
 ---------------------------------------------------------------------
 Center     Atomic      Atomic             Coordinates (Angstroms)
 Number     Number       Type             X           Y           Z
 ---------------------------------------------------------------------
      1          6           0       -0.862298    0.736100    0.000090
      2          1           0       -1.261472    1.200957   -0.921822
      3          1           0       -1.261345    1.200881    0.922095
      4          6           0       -1.106123   -0.763445    0.000045
      5          6           0        0.157303   -1.126161   -0.000057
      6          6           0        0.732769    0.863628   -0.000015
      7          1           0        1.235300    1.841553   -0.000010
      8          6           0        1.292935   -0.417354   -0.000106
 ---------------------------------------------------------------------
 Rotational constants (GHZ):     10.6533610      8.8800245      5.0075347
 Leave Link  202 at Tue Jul 19 14:36:58 2016, MaxMem=    33554432 cpu:         0.0
 (Enter /home/proyectos/fulerenos/M3C-v2.0/M3C-deps_CCC/g09-AM64L-G09RevC.01/l301.exe)
 Standard basis: 6-311++G(3df,2p) (5D, 7F)
 Ernie: Thresh=  0.10000D-02 Tol=  0.10000D-05 Strict=F.
 There are   255 symmetry adapted cartesian basis functions of A   symmetry.
 There are   225 symmetry adapted basis functions of A   symmetry.
   225 basis functions,   326 primitive gaussians,   255 cartesian basis functions
    17 alpha electrons       14 beta electrons
       nuclear repulsion energy       132.3213373459 Hartrees.
 IExCor=  402 DFT=T Ex+Corr=B3LYP ExCW=0 ScaHFX=  0.200000
 ScaDFX=  0.800000  0.720000  1.000000  0.810000 ScalE2=  1.000000  1.000000
 IRadAn=      0 IRanWt=     -1 IRanGd=            0 ICorTp=0 IEmpDi=  4
 NAtoms=    8 NActive=    8 NUniq=    8 SFac= 1.00D+00 NAtFMM=   60 NAOKFM=F Big=F
 Integral buffers will be    131072 words long.
 Raffenetti 2 integral format.
 Two-electron integral symmetry is turned on.
 Leave Link  301 at Tue Jul 19 14:36:58 2016, MaxMem=    33554432 cpu:         0.2
 (Enter /home/proyectos/fulerenos/M3C-v2.0/M3C-deps_CCC/g09-AM64L-G09RevC.01/l302.exe)
 NPDir=0 NMtPBC=     1 NCelOv=     1 NCel=       1 NClECP=     1 NCelD=      1
         NCelK=      1 NCelE2=     1 NClLst=     1 CellRange=     0.0.
 One-electron integrals computed using PRISM.
 NBasis=   225 RedAO= T EigKep=  1.11D-05  NBF=   225
 NBsUse=   225 1.00D-06 EigRej= -1.00D+00 NBFU=   225
 Precomputing XC quadrature grid using
 IXCGrd= 4 IRadAn=           0 IRanWt=          -1 IRanGd=           0 AccXCQ= 0.00D+00.
 Generated NRdTot=       0 NPtTot=           0 NUsed=           0 NTot=          32
 NSgBfM=   255   255   255   255   255 MxSgAt=     8 MxSgA2=     8.
 Leave Link  302 at Tue Jul 19 14:36:59 2016, MaxMem=    33554432 cpu:         0.5
 (Enter /home/proyectos/fulerenos/M3C-v2.0/M3C-deps_CCC/g09-AM64L-G09RevC.01/l303.exe)
 DipDrv:  MaxL=1.
 Leave Link  303 at Tue Jul 19 14:36:59 2016, MaxMem=    33554432 cpu:         0.1
 (Enter /home/proyectos/fulerenos/M3C-v2.0/M3C-deps_CCC/g09-AM64L-G09RevC.01/l401.exe)
 ExpMin= 3.60D-02 ExpMax= 4.56D+03 ExpMxC= 6.82D+02 IAcc=3 IRadAn=         5 AccDes= 0.00D+00
 Harris functional with IExCor=  402 and IRadAn=       5 diagonalized for initial guess.
 HarFok:  IExCor=  402 AccDes= 0.00D+00 IRadAn=         5 IDoV= 1 UseB2=F ITyADJ=14
 ICtDFT=  3500011 ScaDFX=  1.000000  1.000000  1.000000  1.000000
 FoFCou: FMM=F IPFlag=           0 FMFlag=      100000 FMFlg1=           0
         NFxFlg=           0 DoJE=T BraDBF=F KetDBF=T FulRan=T
         wScrn=  0.000000 ICntrl=     500 IOpCl=  0 I1Cent=   200000004 NGrid=           0
         NMat0=    1 NMatS0=      1 NMatT0=    0 NMatD0=    1 NMtDS0=    0 NMtDT0=    0
 Petite list used in FoFCou.
 Harris En= -191.453389623902    
 JPrj=0 DoOrth=F DoCkMO=F.
 Initial guess <Sx>= 0.0000 <Sy>= 0.0000 <Sz>= 1.5000 <S**2>= 3.7500 S= 1.5000
 Leave Link  401 at Tue Jul 19 14:37:10 2016, MaxMem=    33554432 cpu:        10.9
 (Enter /home/proyectos/fulerenos/M3C-v2.0/M3C-deps_CCC/g09-AM64L-G09RevC.01/l502.exe)
 UHF open shell SCF:
 Using DIIS extrapolation, IDIIS=  1040.
 Integral symmetry usage will be decided dynamically.
 IVT=      216989 IEndB=      216989 NGot=    33554432 MDV=    33419364
 LenX=    33419364 LenY=    33353898
 Requested convergence on RMS density matrix=1.00D-08 within 128 cycles.
 Requested convergence on MAX density matrix=1.00D-06.
 Requested convergence on             energy=1.00D-06.
 No special actions if energy rises.
 Fock matrices will be formed incrementally for  20 cycles.

 Cycle   1  Pass 1  IDiag  1:
 FoFJK:  IHMeth= 1 ICntrl=       0 DoSepK=F KAlg= 0 I1Cent=   0 FoldK=F
 IRaf= 990000000 NMat=   1 IRICut=       1 DoRegI=T DoRafI=F ISym2E= 0.
 FoFCou: FMM=F IPFlag=           0 FMFlag=      100000 FMFlg1=           0
         NFxFlg=           0 DoJE=F BraDBF=F KetDBF=F FulRan=T
         wScrn=  0.000000 ICntrl=       0 IOpCl=  1 I1Cent=           0 NGrid=           0
         NMat0=    1 NMatS0=      1 NMatT0=    0 NMatD0=    1 NMtDS0=    0 NMtDT0=    0
 Symmetry not used in FoFCou.
 E= -191.099666558451    
 DIIS: error= 1.64D-02 at cycle   1 NSaved=   1.
 NSaved= 1 IEnMin= 1 EnMin= -191.099666558451     IErMin= 1 ErrMin= 1.64D-02
 ErrMax= 1.64D-02  0.00D+00 EMaxC= 1.00D-01 BMatC= 1.90D-01 BMatP= 1.90D-01
 IDIUse=3 WtCom= 8.36D-01 WtEn= 1.64D-01
 Coeff-Com:  0.100D+01
 Coeff-En:   0.100D+01
 Coeff:      0.100D+01
 Gap=     0.120 Goal=   None    Shift=    0.000
 Gap=     0.141 Goal=   None    Shift=    0.000
 GapD=    0.120 DampG=1.000 DampE=0.500 DampFc=0.5000 IDamp=-1.
 Damping current iteration by 5.00D-01
 RMSDP=7.17D-03 MaxDP=4.37D-01              OVMax= 1.57D-01

 Cycle   2  Pass 1  IDiag  1:
 RMSU=  3.55D-03    CP:  1.03D+00
 E= -191.117756735232     Delta-E=       -0.018090176782 Rises=F Damp=T
 DIIS: error= 8.03D-03 at cycle   2 NSaved=   2.
 NSaved= 2 IEnMin= 2 EnMin= -191.117756735232     IErMin= 2 ErrMin= 8.03D-03
 ErrMax= 8.03D-03  0.00D+00 EMaxC= 1.00D-01 BMatC= 4.59D-02 BMatP= 1.90D-01
 IDIUse=3 WtCom= 9.20D-01 WtEn= 8.03D-02
 Coeff-Com:  0.111D+00 0.889D+00
 Coeff-En:   0.208D+00 0.792D+00
 Coeff:      0.119D+00 0.881D+00
 Gap=     0.162 Goal=   None    Shift=    0.000
 Gap=     0.169 Goal=   None    Shift=    0.000
 RMSDP=3.14D-03 MaxDP=2.31D-01 DE=-1.81D-02 OVMax= 2.01D-01

 Cycle   3  Pass 1  IDiag  1:
 RMSU=  1.99D-03    CP:  1.07D+00  1.66D+00
 E= -191.144887225247     Delta-E=       -0.027130490015 Rises=F Damp=F
 DIIS: error= 1.20D-02 at cycle   3 NSaved=   3.
 NSaved= 3 IEnMin= 3 EnMin= -191.144887225247     IErMin= 2 ErrMin= 8.03D-03
 ErrMax= 1.20D-02  0.00D+00 EMaxC= 1.00D-01 BMatC= 5.23D-02 BMatP= 4.59D-02
 IDIUse=2 WtCom= 0.00D+00 WtEn= 1.00D+00
 Coeff-En:   0.000D+00 0.000D+00 0.100D+01
 Coeff:      0.000D+00 0.000D+00 0.100D+01
 Gap=     0.115 Goal=   None    Shift=    0.000
 Gap=     0.151 Goal=   None    Shift=    0.000
 RMSDP=2.27D-03 MaxDP=1.14D-01 DE=-2.71D-02 OVMax= 1.61D-01

 Cycle   4  Pass 1  IDiag  1:
 RMSU=  8.45D-04    CP:  1.07D+00  2.03D+00  1.75D-01
 E= -191.087814009132     Delta-E=        0.057073216114 Rises=F Damp=F
 DIIS: error= 2.78D-02 at cycle   4 NSaved=   4.
 NSaved= 4 IEnMin= 3 EnMin= -191.144887225247     IErMin= 2 ErrMin= 8.03D-03
 ErrMax= 2.78D-02  0.00D+00 EMaxC= 1.00D-01 BMatC= 2.54D-01 BMatP= 4.59D-02
 IDIUse=2 WtCom= 0.00D+00 WtEn= 1.00D+00
 Coeff-En:   0.000D+00 0.000D+00 0.777D+00 0.223D+00
 Coeff:      0.000D+00 0.000D+00 0.777D+00 0.223D+00
 Gap=     0.140 Goal=   None    Shift=    0.000
 Gap=     0.152 Goal=   None    Shift=    0.000
 RMSDP=1.15D-03 MaxDP=6.41D-02 DE= 5.71D-02 OVMax= 9.86D-02

 Cycle   5  Pass 1  IDiag  1:
 RMSU=  2.35D-04    CP:  1.06D+00  1.88D+00  6.45D-01  6.28D-01
 E= -191.155020473445     Delta-E=       -0.067206464313 Rises=F Damp=F
 DIIS: error= 7.11D-03 at cycle   5 NSaved=   5.
 NSaved= 5 IEnMin= 5 EnMin= -191.155020473445     IErMin= 5 ErrMin= 7.11D-03
 ErrMax= 7.11D-03  0.00D+00 EMaxC= 1.00D-01 BMatC= 1.77D-02 BMatP= 4.59D-02
 IDIUse=3 WtCom= 9.29D-01 WtEn= 7.11D-02
 Coeff-Com:  0.283D-02-0.242D-01 0.222D+00-0.140D+00 0.940D+00
 Coeff-En:   0.000D+00 0.000D+00 0.290D+00 0.000D+00 0.710D+00
 Coeff:      0.263D-02-0.225D-01 0.227D+00-0.130D+00 0.923D+00
 Gap=     0.153 Goal=   None    Shift=    0.000
 Gap=     0.150 Goal=   None    Shift=    0.000
 RMSDP=4.07D-04 MaxDP=2.25D-02 DE=-6.72D-02 OVMax= 3.97D-02

 Cycle   6  Pass 1  IDiag  1:
 RMSU=  1.13D-04    CP:  1.06D+00  1.83D+00  8.12D-01  5.19D-01  1.38D+00
 E= -191.160076098702     Delta-E=       -0.005055625257 Rises=F Damp=F
 DIIS: error= 6.92D-04 at cycle   6 NSaved=   6.
 NSaved= 6 IEnMin= 6 EnMin= -191.160076098702     IErMin= 6 ErrMin= 6.92D-04
 ErrMax= 6.92D-04  0.00D+00 EMaxC= 1.00D-01 BMatC= 2.51D-04 BMatP= 1.77D-02
 IDIUse=3 WtCom= 9.93D-01 WtEn= 6.92D-03
 Coeff-Com:  0.271D-02-0.178D-01 0.399D-01-0.107D+00 0.512D+00 0.570D+00
 Coeff-En:   0.000D+00 0.000D+00 0.000D+00 0.000D+00 0.000D+00 0.100D+01
 Coeff:      0.269D-02-0.177D-01 0.397D-01-0.106D+00 0.509D+00 0.573D+00
 Gap=     0.153 Goal=   None    Shift=    0.000
 Gap=     0.151 Goal=   None    Shift=    0.000
 RMSDP=1.12D-04 MaxDP=7.03D-03 DE=-5.06D-03 OVMax= 7.11D-03

 Cycle   7  Pass 1  IDiag  1:
 RMSU=  6.94D-05    CP:  1.06D+00  1.84D+00  8.13D-01  5.57D-01  1.68D+00
                    CP:  9.28D-01
 E= -191.160169065432     Delta-E=       -0.000092966730 Rises=F Damp=F
 DIIS: error= 3.74D-04 at cycle   7 NSaved=   7.
 NSaved= 7 IEnMin= 7 EnMin= -191.160169065432     IErMin= 7 ErrMin= 3.74D-04
 ErrMax= 3.74D-04  0.00D+00 EMaxC= 1.00D-01 BMatC= 4.85D-05 BMatP= 2.51D-04
 IDIUse=3 WtCom= 9.96D-01 WtEn= 3.74D-03
 Coeff-Com:  0.401D-02-0.852D-02-0.578D-01 0.154D-01-0.143D+00 0.270D+00
 Coeff-Com:  0.921D+00
 Coeff-En:   0.000D+00 0.000D+00 0.000D+00 0.000D+00 0.000D+00 0.000D+00
 Coeff-En:   0.100D+01
 Coeff:      0.400D-02-0.849D-02-0.576D-01 0.153D-01-0.143D+00 0.269D+00
 Coeff:      0.921D+00
 Gap=     0.155 Goal=   None    Shift=    0.000
 Gap=     0.152 Goal=   None    Shift=    0.000
 RMSDP=6.27D-05 MaxDP=3.66D-03 DE=-9.30D-05 OVMax= 6.37D-03

 Cycle   8  Pass 1  IDiag  1:
 RMSU=  2.68D-05    CP:  1.06D+00  1.84D+00  8.18D-01  5.78D-01  1.81D+00
                    CP:  1.29D+00  1.08D+00
 E= -191.160204851781     Delta-E=       -0.000035786349 Rises=F Damp=F
 DIIS: error= 2.07D-04 at cycle   8 NSaved=   8.
 NSaved= 8 IEnMin= 8 EnMin= -191.160204851781     IErMin= 8 ErrMin= 2.07D-04
 ErrMax= 2.07D-04  0.00D+00 EMaxC= 1.00D-01 BMatC= 1.87D-05 BMatP= 4.85D-05
 IDIUse=3 WtCom= 9.98D-01 WtEn= 2.07D-03
 Coeff-Com:  0.233D-02-0.233D-02-0.426D-01 0.264D-01-0.173D+00 0.609D-01
 Coeff-Com:  0.569D+00 0.559D+00
 Coeff-En:   0.000D+00 0.000D+00 0.000D+00 0.000D+00 0.000D+00 0.000D+00
 Coeff-En:   0.000D+00 0.100D+01
 Coeff:      0.232D-02-0.233D-02-0.425D-01 0.264D-01-0.172D+00 0.608D-01
 Coeff:      0.568D+00 0.560D+00
 Gap=     0.155 Goal=   None    Shift=    0.000
 Gap=     0.152 Goal=   None    Shift=    0.000
 RMSDP=2.79D-05 MaxDP=1.80D-03 DE=-3.58D-05 OVMax= 1.73D-03

 Cycle   9  Pass 1  IDiag  1:
 RMSU=  1.77D-05    CP:  1.06D+00  1.84D+00  8.21D-01  5.81D-01  1.87D+00
                    CP:  1.31D+00  1.30D+00  9.99D-01
 E= -191.160212015163     Delta-E=       -0.000007163382 Rises=F Damp=F
 DIIS: error= 1.01D-04 at cycle   9 NSaved=   9.
 NSaved= 9 IEnMin= 9 EnMin= -191.160212015163     IErMin= 9 ErrMin= 1.01D-04
 ErrMax= 1.01D-04  0.00D+00 EMaxC= 1.00D-01 BMatC= 3.38D-06 BMatP= 1.87D-05
 IDIUse=3 WtCom= 9.99D-01 WtEn= 1.01D-03
 Coeff-Com:  0.176D-03 0.123D-02 0.643D-03 0.661D-02-0.299D-01-0.742D-01
 Coeff-Com: -0.324D-01 0.323D+00 0.805D+00
 Coeff-En:   0.000D+00 0.000D+00 0.000D+00 0.000D+00 0.000D+00 0.000D+00
 Coeff-En:   0.000D+00 0.000D+00 0.100D+01
 Coeff:      0.176D-03 0.123D-02 0.642D-03 0.661D-02-0.299D-01-0.742D-01
 Coeff:     -0.324D-01 0.323D+00 0.805D+00
 Gap=     0.155 Goal=   None    Shift=    0.000
 Gap=     0.152 Goal=   None    Shift=    0.000
 RMSDP=1.11D-05 MaxDP=5.68D-04 DE=-7.16D-06 OVMax= 1.25D-03

 Cycle  10  Pass 1  IDiag  1:
 RMSU=  5.25D-06    CP:  1.06D+00  1.84D+00  8.21D-01  5.83D-01  1.89D+00
                    CP:  1.35D+00  1.36D+00  1.21D+00  9.84D-01
 E= -191.160213743645     Delta-E=       -0.000001728482 Rises=F Damp=F
 DIIS: error= 3.67D-05 at cycle  10 NSaved=  10.
 NSaved=10 IEnMin=10 EnMin= -191.160213743645     IErMin=10 ErrMin= 3.67D-05
 ErrMax= 3.67D-05  0.00D+00 EMaxC= 1.00D-01 BMatC= 4.81D-07 BMatP= 3.38D-06
 IDIUse=1 WtCom= 1.00D+00 WtEn= 0.00D+00
 Coeff-Com: -0.530D-03 0.111D-02 0.757D-02-0.324D-02 0.202D-01-0.318D-01
 Coeff-Com: -0.985D-01 0.198D-02 0.266D+00 0.837D+00
 Coeff:     -0.530D-03 0.111D-02 0.757D-02-0.324D-02 0.202D-01-0.318D-01
 Coeff:     -0.985D-01 0.198D-02 0.266D+00 0.837D+00
 Gap=     0.155 Goal=   None    Shift=    0.000
 Gap=     0.152 Goal=   None    Shift=    0.000
 RMSDP=4.71D-06 MaxDP=3.84D-04 DE=-1.73D-06 OVMax= 2.68D-04

 Cycle  11  Pass 1  IDiag  1:
 RMSU=  2.33D-06    CP:  1.06D+00  1.84D+00  8.22D-01  5.82D-01  1.89D+00
                    CP:  1.35D+00  1.37D+00  1.26D+00  1.12D+00  1.16D+00
 E= -191.160213948245     Delta-E=       -0.000000204600 Rises=F Damp=F
 DIIS: error= 1.24D-05 at cycle  11 NSaved=  11.
 NSaved=11 IEnMin=11 EnMin= -191.160213948245     IErMin=11 ErrMin= 1.24D-05
 ErrMax= 1.24D-05  0.00D+00 EMaxC= 1.00D-01 BMatC= 5.73D-08 BMatP= 4.81D-07
 IDIUse=1 WtCom= 1.00D+00 WtEn= 0.00D+00
 Coeff-Com: -0.133D-03 0.173D-03 0.210D-02-0.139D-02 0.737D-02-0.319D-03
 Coeff-Com: -0.260D-01-0.444D-01 0.440D-02 0.291D+00 0.767D+00
 Coeff:     -0.133D-03 0.173D-03 0.210D-02-0.139D-02 0.737D-02-0.319D-03
 Coeff:     -0.260D-01-0.444D-01 0.440D-02 0.291D+00 0.767D+00
 Gap=     0.155 Goal=   None    Shift=    0.000
 Gap=     0.152 Goal=   None    Shift=    0.000
 RMSDP=1.35D-06 MaxDP=9.88D-05 DE=-2.05D-07 OVMax= 8.28D-05

 Cycle  12  Pass 1  IDiag  1:
 RMSU=  8.64D-07    CP:  1.06D+00  1.84D+00  8.23D-01  5.82D-01  1.89D+00
                    CP:  1.35D+00  1.37D+00  1.28D+00  1.14D+00  1.23D+00
                    CP:  9.53D-01
 E= -191.160213970599     Delta-E=       -0.000000022354 Rises=F Damp=F
 DIIS: error= 2.53D-06 at cycle  12 NSaved=  12.
 NSaved=12 IEnMin=12 EnMin= -191.160213970599     IErMin=12 ErrMin= 2.53D-06
 ErrMax= 2.53D-06  0.00D+00 EMaxC= 1.00D-01 BMatC= 4.42D-09 BMatP= 5.73D-08
 IDIUse=1 WtCom= 1.00D+00 WtEn= 0.00D+00
 Coeff-Com:  0.433D-04-0.115D-03-0.754D-03 0.338D-03-0.223D-02 0.578D-02
 Coeff-Com:  0.103D-01-0.998D-02-0.342D-01-0.934D-01 0.590D-01 0.107D+01
 Coeff:      0.433D-04-0.115D-03-0.754D-03 0.338D-03-0.223D-02 0.578D-02
 Coeff:      0.103D-01-0.998D-02-0.342D-01-0.934D-01 0.590D-01 0.107D+01
 Gap=     0.155 Goal=   None    Shift=    0.000
 Gap=     0.152 Goal=   None    Shift=    0.000
 RMSDP=5.45D-07 MaxDP=3.70D-05 DE=-2.24D-08 OVMax= 4.12D-05

 Cycle  13  Pass 1  IDiag  1:
 RMSU=  2.46D-07    CP:  1.06D+00  1.84D+00  8.23D-01  5.82D-01  1.89D+00
                    CP:  1.34D+00  1.37D+00  1.28D+00  1.15D+00  1.27D+00
                    CP:  1.03D+00  1.28D+00
 E= -191.160213973097     Delta-E=       -0.000000002498 Rises=F Damp=F
 DIIS: error= 3.73D-07 at cycle  13 NSaved=  13.
 NSaved=13 IEnMin=13 EnMin= -191.160213973097     IErMin=13 ErrMin= 3.73D-07
 ErrMax= 3.73D-07  0.00D+00 EMaxC= 1.00D-01 BMatC= 9.60D-11 BMatP= 4.42D-09
 IDIUse=1 WtCom= 1.00D+00 WtEn= 0.00D+00
 Coeff-Com:  0.310D-05-0.447D-05-0.221D-04 0.347D-04-0.107D-03-0.379D-03
 Coeff-Com: -0.104D-03 0.318D-02 0.350D-02-0.891D-02-0.243D-01-0.112D+00
 Coeff-Com:  0.114D+01
 Coeff:      0.310D-05-0.447D-05-0.221D-04 0.347D-04-0.107D-03-0.379D-03
 Coeff:     -0.104D-03 0.318D-02 0.350D-02-0.891D-02-0.243D-01-0.112D+00
 Coeff:      0.114D+01
 Gap=     0.155 Goal=   None    Shift=    0.000
 Gap=     0.152 Goal=   None    Shift=    0.000
 RMSDP=1.40D-07 MaxDP=1.47D-05 DE=-2.50D-09 OVMax= 9.31D-06

 Cycle  14  Pass 1  IDiag  1:
 RMSU=  4.68D-08    CP:  1.06D+00  1.84D+00  8.23D-01  5.82D-01  1.89D+00
                    CP:  1.35D+00  1.37D+00  1.28D+00  1.15D+00  1.27D+00
                    CP:  1.04D+00  1.36D+00  1.31D+00
 E= -191.160213973193     Delta-E=       -0.000000000095 Rises=F Damp=F
 DIIS: error= 1.31D-07 at cycle  14 NSaved=  14.
 NSaved=14 IEnMin=14 EnMin= -191.160213973193     IErMin=14 ErrMin= 1.31D-07
 ErrMax= 1.31D-07  0.00D+00 EMaxC= 1.00D-01 BMatC= 9.45D-12 BMatP= 9.60D-11
 IDIUse=1 WtCom= 1.00D+00 WtEn= 0.00D+00
 Coeff-Com: -0.347D-05 0.951D-05 0.391D-04-0.213D-04 0.132D-03-0.361D-03
 Coeff-Com: -0.642D-03 0.666D-03 0.235D-02 0.516D-02-0.249D-02-0.755D-01
 Coeff-Com:  0.634D-01 0.101D+01
 Coeff:     -0.347D-05 0.951D-05 0.391D-04-0.213D-04 0.132D-03-0.361D-03
 Coeff:     -0.642D-03 0.666D-03 0.235D-02 0.516D-02-0.249D-02-0.755D-01
 Coeff:      0.634D-01 0.101D+01
 Gap=     0.155 Goal=   None    Shift=    0.000
 Gap=     0.152 Goal=   None    Shift=    0.000
 RMSDP=3.43D-08 MaxDP=2.13D-06 DE=-9.55D-11 OVMax= 2.63D-06

 Cycle  15  Pass 1  IDiag  1:
 RMSU=  1.46D-08    CP:  1.06D+00  1.84D+00  8.23D-01  5.82D-01  1.89D+00
                    CP:  1.35D+00  1.37D+00  1.28D+00  1.15D+00  1.27D+00
                    CP:  1.04D+00  1.37D+00  1.40D+00  1.30D+00
 E= -191.160213973200     Delta-E=       -0.000000000007 Rises=F Damp=F
 DIIS: error= 4.66D-08 at cycle  15 NSaved=  15.
 NSaved=15 IEnMin=15 EnMin= -191.160213973200     IErMin=15 ErrMin= 4.66D-08
 ErrMax= 4.66D-08  0.00D+00 EMaxC= 1.00D-01 BMatC= 1.59D-12 BMatP= 9.45D-12
 IDIUse=1 WtCom= 1.00D+00 WtEn= 0.00D+00
 Coeff-Com:  0.282D-06-0.132D-05 0.532D-05-0.617D-06 0.117D-04 0.813D-04
 Coeff-Com: -0.371D-04-0.460D-03-0.298D-03 0.106D-02 0.317D-02 0.130D-01
 Coeff-Com: -0.132D+00-0.473D-01 0.116D+01
 Coeff:      0.282D-06-0.132D-05 0.532D-05-0.617D-06 0.117D-04 0.813D-04
 Coeff:     -0.371D-04-0.460D-03-0.298D-03 0.106D-02 0.317D-02 0.130D-01
 Coeff:     -0.132D+00-0.473D-01 0.116D+01
 Gap=     0.155 Goal=   None    Shift=    0.000
 Gap=     0.152 Goal=   None    Shift=    0.000
 RMSDP=1.56D-08 MaxDP=1.17D-06 DE=-6.99D-12 OVMax= 1.26D-06

 Cycle  16  Pass 1  IDiag  1:
 RMSU=  3.43D-09    CP:  1.06D+00  1.84D+00  8.23D-01  5.82D-01  1.89D+00
                    CP:  1.35D+00  1.37D+00  1.28D+00  1.15D+00  1.27D+00
                    CP:  1.04D+00  1.37D+00  1.43D+00  1.48D+00  1.28D+00
 E= -191.160213973202     Delta-E=       -0.000000000002 Rises=F Damp=F
 DIIS: error= 1.04D-08 at cycle  16 NSaved=  16.
 NSaved=16 IEnMin=16 EnMin= -191.160213973202     IErMin=16 ErrMin= 1.04D-08
 ErrMax= 1.04D-08  0.00D+00 EMaxC= 1.00D-01 BMatC= 8.35D-14 BMatP= 1.59D-12
 IDIUse=1 WtCom= 1.00D+00 WtEn= 0.00D+00
 Coeff-Com:  0.636D-07-0.186D-06-0.302D-05 0.774D-06-0.686D-05 0.246D-04
 Coeff-Com:  0.164D-04-0.233D-04-0.667D-04-0.399D-03-0.191D-04 0.341D-02
 Coeff-Com:  0.350D-02-0.544D-01-0.454D-01 0.109D+01
 Coeff:      0.636D-07-0.186D-06-0.302D-05 0.774D-06-0.686D-05 0.246D-04
 Coeff:      0.164D-04-0.233D-04-0.667D-04-0.399D-03-0.191D-04 0.341D-02
 Coeff:      0.350D-02-0.544D-01-0.454D-01 0.109D+01
 Gap=     0.155 Goal=   None    Shift=    0.000
 Gap=     0.152 Goal=   None    Shift=    0.000
 RMSDP=2.34D-09 MaxDP=1.46D-07 DE=-2.33D-12 OVMax= 2.84D-07

 SCF Done:  E(UB3LYP) =  -191.160213973     A.U. after   16 cycles
            NFock= 16  Conv=0.23D-08     -V/T= 2.0043
 <Sx>= 0.0000 <Sy>= 0.0000 <Sz>= 1.5000 <S**2>= 3.7780 S= 1.5070
 <L.S>= 0.000000000000E+00
 KE= 1.903487528677D+02 PE=-6.917735494616D+02 EE= 1.779432452749D+02
 Annihilation of the first spin contaminant:
 S**2 before annihilation     3.7780,   after     3.7503
 Leave Link  502 at Tue Jul 19 14:51:37 2016, MaxMem=    33554432 cpu:       861.8
 (Enter /home/proyectos/fulerenos/M3C-v2.0/M3C-deps_CCC/g09-AM64L-G09RevC.01/l801.exe)
 DoSCS=F DFT=T ScalE2(SS,OS)=  1.000000  1.000000
 Range of M.O.s used for correlation:     1   225
 NBasis=   225 NAE=    17 NBE=    14 NFC=     0 NFV=     0
 NROrb=    225 NOA=    17 NOB=    14 NVA=   208 NVB=   211

 **** Warning!!: The largest alpha MO coefficient is  0.91612106D+02


 **** Warning!!: The largest beta MO coefficient is  0.89654117D+02

 Leave Link  801 at Tue Jul 19 14:51:38 2016, MaxMem=    33554432 cpu:         0.1
 (Enter /home/proyectos/fulerenos/M3C-v2.0/M3C-deps_CCC/g09-AM64L-G09RevC.01/l1101.exe)
 Using compressed storage, NAtomX=     8.
 Will process      9 centers per pass.
 Leave Link 1101 at Tue Jul 19 14:51:38 2016, MaxMem=    33554432 cpu:         0.6
 (Enter /home/proyectos/fulerenos/M3C-v2.0/M3C-deps_CCC/g09-AM64L-G09RevC.01/l1102.exe)
 Symmetrizing basis deriv contribution to polar:
 IMax=3 JMax=2 DiffMx= 0.00D+00
 Leave Link 1102 at Tue Jul 19 14:51:39 2016, MaxMem=    33554432 cpu:         0.1
 (Enter /home/proyectos/fulerenos/M3C-v2.0/M3C-deps_CCC/g09-AM64L-G09RevC.01/l1110.exe)
 Forming Gx(P) for the SCF density, NAtomX=     8.
 Integral derivatives from FoFJK, PRISM(SPDF).
 Do as many integral derivatives as possible in FoFJK.
 G2DrvN: MDV=      33554264.
 G2DrvN: will do     9 centers at a time, making    1 passes.
 Calling FoFCou, ICntrl=  3107 FMM=F I1Cent=   0 AccDes= 0.00D+00.
 FoFJK:  IHMeth= 1 ICntrl=    3107 DoSepK=F KAlg= 0 I1Cent=   0 FoldK=F
 IRaf=         0 NMat=   1 IRICut=       1 DoRegI=T DoRafI=F ISym2E= 0.
 FoFCou: FMM=F IPFlag=           0 FMFlag=      100000 FMFlg1=           0
         NFxFlg=           0 DoJE=F BraDBF=F KetDBF=F FulRan=T
         wScrn=  0.000000 ICntrl=    3107 IOpCl=  1 I1Cent=           0 NGrid=           0
         NMat0=    1 NMatS0=      1 NMatT0=    0 NMatD0=    1 NMtDS0=    0 NMtDT0=    0
 Symmetry not used in FoFCou.
 End of G2Drv F.D. properties file   721 does not exist.
 End of G2Drv F.D. properties file   722 does not exist.
 End of G2Drv F.D. properties file   788 does not exist.
 Leave Link 1110 at Tue Jul 19 15:01:45 2016, MaxMem=    33554432 cpu:       606.6
 (Enter /home/proyectos/fulerenos/M3C-v2.0/M3C-deps_CCC/g09-AM64L-G09RevC.01/l1002.exe)
 Minotr:  UHF open shell wavefunction.
          IDoAtm=11111111
          Direct CPHF calculation.
          Differentiating once with respect to electric field.
                with respect to dipole field.
          Differentiating once with respect to nuclear coordinates.
          Requested convergence is 1.0D-08 RMS, and 1.0D-07 maximum.
          Secondary convergence is 1.0D-12 RMS, and 1.0D-12 maximum.
          NewPWx=T KeepS1=F KeepF1=F KeepIn=T MapXYZ=F SortEE=F KeepMc=T.
          MDV=      33553898 using IRadAn=       2.
 Generate precomputed XC quadrature information.
          Solving linear equations simultaneously, MaxMat=       0.
 FoFJK:  IHMeth= 1 ICntrl=       0 DoSepK=F KAlg= 0 I1Cent=   0 FoldK=F
 IRaf= 990000000 NMat=  27 IRICut=      67 DoRegI=T DoRafI=T ISym2E= 2.
 FoFCou: FMM=F IPFlag=           0 FMFlag=      100000 FMFlg1=           0
         NFxFlg=           0 DoJE=F BraDBF=F KetDBF=F FulRan=T
         wScrn=  0.000000 ICntrl=       0 IOpCl=  1 I1Cent=           0 NGrid=           0
         NMat0=   27 NMatS0=     27 NMatT0=    0 NMatD0=   27 NMtDS0=    0 NMtDT0=    0
 Integrals replicated using symmetry in FoFCou.
          There are    27 degrees of freedom in the 1st order CPHF.  IDoFFX=6 NUNeed=     3.
     24 vectors produced by pass  0 Test12= 2.40D-14 3.70D-09 XBig12= 1.64D+02 5.46D+00.
 AX will form    24 AO Fock derivatives at one time.
     24 vectors produced by pass  1 Test12= 2.40D-14 3.70D-09 XBig12= 4.39D+01 1.19D+00.
     24 vectors produced by pass  2 Test12= 2.40D-14 3.70D-09 XBig12= 1.91D+00 3.89D-01.
     24 vectors produced by pass  3 Test12= 2.40D-14 3.70D-09 XBig12= 3.79D-02 5.16D-02.
     24 vectors produced by pass  4 Test12= 2.40D-14 3.70D-09 XBig12= 3.19D-04 2.22D-03.
     24 vectors produced by pass  5 Test12= 2.40D-14 3.70D-09 XBig12= 2.13D-06 2.67D-04.
     24 vectors produced by pass  6 Test12= 2.40D-14 3.70D-09 XBig12= 1.47D-08 1.81D-05.
     11 vectors produced by pass  7 Test12= 2.40D-14 3.70D-09 XBig12= 5.85D-11 1.05D-06.
      3 vectors produced by pass  8 Test12= 2.40D-14 3.70D-09 XBig12= 3.24D-13 7.56D-08.
      3 vectors produced by pass  9 Test12= 2.40D-14 3.70D-09 XBig12= 3.94D-14 3.52D-08.
      1 vectors produced by pass 10 Test12= 2.40D-14 3.70D-09 XBig12= 7.66D-16 4.44D-09.
 InvSVY:  IOpt=1 It=  1 EMax= 3.55D-15
 Solved reduced A of dimension   186 with    27 vectors.
 FullF1:  Do perturbations    1 to     3.
 Isotropic polarizability for W=    0.000000       40.34 Bohr**3.
 End of Minotr F.D. properties file   721 does not exist.
 End of Minotr F.D. properties file   722 does not exist.
 End of Minotr F.D. properties file   788 does not exist.
 Leave Link 1002 at Tue Jul 19 15:32:23 2016, MaxMem=    33554432 cpu:      1835.4
 (Enter /home/proyectos/fulerenos/M3C-v2.0/M3C-deps_CCC/g09-AM64L-G09RevC.01/l601.exe)
 Copying SCF densities to generalized density rwf, IOpCl= 1 IROHF=0.

 **********************************************************************

            Population analysis using the SCF density.

 **********************************************************************

 Orbital symmetries:
 Alpha Orbitals:
       Occupied  (A) (A) (A) (A) (A) (A) (A) (A) (A) (A) (A) (A)
                 (A) (A) (A) (A) (A)
       Virtual   (A) (A) (A) (A) (A) (A) (A) (A) (A) (A) (A) (A)
                 (A) (A) (A) (A) (A) (A) (A) (A) (A) (A) (A) (A)
                 (A) (A) (A) (A) (A) (A) (A) (A) (A) (A) (A) (A)
                 (A) (A) (A) (A) (A) (A) (A) (A) (A) (A) (A) (A)
                 (A) (A) (A) (A) (A) (A) (A) (A) (A) (A) (A) (A)
                 (A) (A) (A) (A) (A) (A) (A) (A) (A) (A) (A) (A)
                 (A) (A) (A) (A) (A) (A) (A) (A) (A) (A) (A) (A)
                 (A) (A) (A) (A) (A) (A) (A) (A) (A) (A) (A) (A)
                 (A) (A) (A) (A) (A) (A) (A) (A) (A) (A) (A) (A)
                 (A) (A) (A) (A) (A) (A) (A) (A) (A) (A) (A) (A)
                 (A) (A) (A) (A) (A) (A) (A) (A) (A) (A) (A) (A)
                 (A) (A) (A) (A) (A) (A) (A) (A) (A) (A) (A) (A)
                 (A) (A) (A) (A) (A) (A) (A) (A) (A) (A) (A) (A)
                 (A) (A) (A) (A) (A) (A) (A) (A) (A) (A) (A) (A)
                 (A) (A) (A) (A) (A) (A) (A) (A) (A) (A) (A) (A)
                 (A) (A) (A) (A) (A) (A) (A) (A) (A) (A) (A) (A)
                 (A) (A) (A) (A) (A) (A) (A) (A) (A) (A) (A) (A)
                 (A) (A) (A) (A)
 Beta  Orbitals:
       Occupied  (A) (A) (A) (A) (A) (A) (A) (A) (A) (A) (A) (A)
                 (A) (A)
       Virtual   (A) (A) (A) (A) (A) (A) (A) (A) (A) (A) (A) (A)
                 (A) (A) (A) (A) (A) (A) (A) (A) (A) (A) (A) (A)
                 (A) (A) (A) (A) (A) (A) (A) (A) (A) (A) (A) (A)
                 (A) (A) (A) (A) (A) (A) (A) (A) (A) (A) (A) (A)
                 (A) (A) (A) (A) (A) (A) (A) (A) (A) (A) (A) (A)
                 (A) (A) (A) (A) (A) (A) (A) (A) (A) (A) (A) (A)
                 (A) (A) (A) (A) (A) (A) (A) (A) (A) (A) (A) (A)
                 (A) (A) (A) (A) (A) (A) (A) (A) (A) (A) (A) (A)
                 (A) (A) (A) (A) (A) (A) (A) (A) (A) (A) (A) (A)
                 (A) (A) (A) (A) (A) (A) (A) (A) (A) (A) (A) (A)
                 (A) (A) (A) (A) (A) (A) (A) (A) (A) (A) (A) (A)
                 (A) (A) (A) (A) (A) (A) (A) (A) (A) (A) (A) (A)
                 (A) (A) (A) (A) (A) (A) (A) (A) (A) (A) (A) (A)
                 (A) (A) (A) (A) (A) (A) (A) (A) (A) (A) (A) (A)
                 (A) (A) (A) (A) (A) (A) (A) (A) (A) (A) (A) (A)
                 (A) (A) (A) (A) (A) (A) (A) (A) (A) (A) (A) (A)
                 (A) (A) (A) (A) (A) (A) (A) (A) (A) (A) (A) (A)
                 (A) (A) (A) (A) (A) (A) (A)
 The electronic state is 4-A.
 Alpha  occ. eigenvalues --  -10.81868 -10.80314 -10.78756 -10.77912 -10.72026
 Alpha  occ. eigenvalues --   -1.45903  -1.28976  -1.22713  -1.10055  -1.00669
 Alpha  occ. eigenvalues --   -0.98215  -0.96648  -0.91174  -0.86227  -0.84090
 Alpha  occ. eigenvalues --   -0.81769  -0.78846
 Alpha virt. eigenvalues --   -0.63347  -0.57989  -0.45273  -0.34649  -0.33363
 Alpha virt. eigenvalues --   -0.30684  -0.29567  -0.29450  -0.27139  -0.25424
 Alpha virt. eigenvalues --   -0.24747  -0.24020  -0.23821  -0.21566  -0.19539
 Alpha virt. eigenvalues --   -0.18633  -0.17574  -0.17246  -0.15273  -0.14749
 Alpha virt. eigenvalues --   -0.14680  -0.13950  -0.13798  -0.12890  -0.11807
 Alpha virt. eigenvalues --   -0.09744  -0.08895  -0.07312  -0.06696  -0.05751
 Alpha virt. eigenvalues --   -0.04259  -0.03078  -0.02683  -0.02329  -0.02075
 Alpha virt. eigenvalues --   -0.01351   0.01237   0.02573   0.02789   0.04072
 Alpha virt. eigenvalues --    0.05252   0.05849   0.07377   0.08609   0.09603
 Alpha virt. eigenvalues --    0.11239   0.12710   0.14476   0.14912   0.16752
 Alpha virt. eigenvalues --    0.17607   0.18409   0.19693   0.20609   0.21704
 Alpha virt. eigenvalues --    0.23876   0.24101   0.24226   0.24969   0.26029
 Alpha virt. eigenvalues --    0.27088   0.31579   0.35324   0.38702   0.39219
 Alpha virt. eigenvalues --    0.41442   0.42809   0.43593   0.44512   0.46969
 Alpha virt. eigenvalues --    0.50914   0.57129   0.57593   0.62547   0.63233
 Alpha virt. eigenvalues --    0.66209   0.66284   0.68375   0.74495   0.75230
 Alpha virt. eigenvalues --    0.79057   0.80147   0.81446   0.83976   0.85186
 Alpha virt. eigenvalues --    0.86131   0.87327   0.87917   0.88538   0.92362
 Alpha virt. eigenvalues --    0.95571   0.96839   0.98928   1.00845   1.02420
 Alpha virt. eigenvalues --    1.08527   1.11165   1.17093   1.24413   1.24498
 Alpha virt. eigenvalues --    1.30850   1.32612   1.37519   1.41276   1.42951
 Alpha virt. eigenvalues --    1.46143   1.46206   1.53409   1.57879   1.63427
 Alpha virt. eigenvalues --    1.66204   1.71350   1.74544   1.79741   1.96154
 Alpha virt. eigenvalues --    1.96895   2.00223   2.09508   2.12510   2.16047
 Alpha virt. eigenvalues --    2.24432   2.25648   2.29193   2.29441   2.31588
 Alpha virt. eigenvalues --    2.34286   2.36301   2.39216   2.41078   2.44992
 Alpha virt. eigenvalues --    2.47428   2.47519   2.50051   2.55225   2.56323
 Alpha virt. eigenvalues --    2.58792   2.65498   2.68908   2.69638   2.72225
 Alpha virt. eigenvalues --    2.77026   2.77657   2.80593   2.86148   2.96086
 Alpha virt. eigenvalues --    2.96302   3.09957   3.11996   3.13412   3.17667
 Alpha virt. eigenvalues --    3.21903   3.25265   3.40246   3.41163   3.44717
 Alpha virt. eigenvalues --    3.49552   3.49598   3.62219   3.66174   3.73674
 Alpha virt. eigenvalues --    3.73941   3.76555   3.80637   3.85764   3.85887
 Alpha virt. eigenvalues --    3.96885   4.07776   4.09527   4.17719   4.21840
 Alpha virt. eigenvalues --    4.24076   4.25176   4.50677   4.68575   4.92380
 Alpha virt. eigenvalues --    5.08101   5.10103   5.35718   6.42876   6.44083
 Alpha virt. eigenvalues --    6.48156   6.52377   6.55148   6.57416   6.61501
 Alpha virt. eigenvalues --    6.62897   6.71114   6.76164   6.77384   6.87570
 Alpha virt. eigenvalues --    6.90494   6.91377   7.00945   7.10122   7.11392
 Alpha virt. eigenvalues --    7.24614   7.31144   7.48035   7.51651   7.57363
 Alpha virt. eigenvalues --    7.77585   8.04821   8.40375  23.24293  23.82972
 Alpha virt. eigenvalues --   24.36928  24.83707  25.47416
  Beta  occ. eigenvalues --  -10.81624 -10.77799 -10.77001 -10.76707 -10.71866
  Beta  occ. eigenvalues --   -1.42539  -1.24691  -1.20748  -1.07938  -0.99031
  Beta  occ. eigenvalues --   -0.94127  -0.92418  -0.89319  -0.84302
  Beta virt. eigenvalues --   -0.69132  -0.66627  -0.62452  -0.58613  -0.51783
  Beta virt. eigenvalues --   -0.39985  -0.34362  -0.31281  -0.29275  -0.29000
  Beta virt. eigenvalues --   -0.28237  -0.26383  -0.24610  -0.24106  -0.23506
  Beta virt. eigenvalues --   -0.22153  -0.20834  -0.18896  -0.17808  -0.16841
  Beta virt. eigenvalues --   -0.16344  -0.14549  -0.14244  -0.14195  -0.13298
  Beta virt. eigenvalues --   -0.12954  -0.12776  -0.10870  -0.08357  -0.08220
  Beta virt. eigenvalues --   -0.06632  -0.06062  -0.04439  -0.03394  -0.02044
  Beta virt. eigenvalues --   -0.01949  -0.01697  -0.01496  -0.00896   0.02907
  Beta virt. eigenvalues --    0.03506   0.03719   0.04743   0.06705   0.06739
  Beta virt. eigenvalues --    0.08133   0.09599   0.10911   0.13495   0.14443
  Beta virt. eigenvalues --    0.15702   0.15736   0.17827   0.18912   0.20266
  Beta virt. eigenvalues --    0.21829   0.22005   0.22647   0.24452   0.25023
  Beta virt. eigenvalues --    0.25220   0.25691   0.27303   0.28260   0.32078
  Beta virt. eigenvalues --    0.36842   0.39885   0.40140   0.42287   0.43735
  Beta virt. eigenvalues --    0.44712   0.45317   0.47634   0.51728   0.58003
  Beta virt. eigenvalues --    0.58203   0.63374   0.64003   0.66812   0.66950
  Beta virt. eigenvalues --    0.69534   0.75256   0.76503   0.80457   0.81493
  Beta virt. eigenvalues --    0.83291   0.85476   0.86342   0.87495   0.88567
  Beta virt. eigenvalues --    0.90680   0.91349   0.95288   0.98402   0.99452
  Beta virt. eigenvalues --    1.00731   1.03412   1.03585   1.10711   1.13196
  Beta virt. eigenvalues --    1.19286   1.26761   1.27182   1.33120   1.36284
  Beta virt. eigenvalues --    1.40424   1.44753   1.45105   1.48223   1.51200
  Beta virt. eigenvalues --    1.59610   1.60524   1.65802   1.70038   1.73374
  Beta virt. eigenvalues --    1.78096   1.83204   1.98658   1.99649   2.02244
  Beta virt. eigenvalues --    2.11673   2.14853   2.21004   2.27664   2.27829
  Beta virt. eigenvalues --    2.31068   2.32695   2.34123   2.36621   2.38432
  Beta virt. eigenvalues --    2.43244   2.44302   2.48231   2.50227   2.50588
  Beta virt. eigenvalues --    2.52350   2.57769   2.58935   2.60499   2.67870
  Beta virt. eigenvalues --    2.71438   2.71962   2.75281   2.79312   2.79627
  Beta virt. eigenvalues --    2.84013   2.89773   2.97765   2.98790   3.12628
  Beta virt. eigenvalues --    3.14807   3.16116   3.21932   3.24085   3.27993
  Beta virt. eigenvalues --    3.41773   3.43615   3.46933   3.51166   3.53558
  Beta virt. eigenvalues --    3.64303   3.69299   3.76095   3.77246   3.78160
  Beta virt. eigenvalues --    3.81998   3.87534   3.88190   3.99559   4.08802
  Beta virt. eigenvalues --    4.10296   4.18991   4.23000   4.26260   4.27590
  Beta virt. eigenvalues --    4.52712   4.72114   4.93540   5.09326   5.10595
  Beta virt. eigenvalues --    5.37536   6.46305   6.47322   6.49881   6.56591
  Beta virt. eigenvalues --    6.59831   6.61114   6.64984   6.67979   6.75801
  Beta virt. eigenvalues --    6.81964   6.83718   6.90746   6.93186   6.94507
  Beta virt. eigenvalues --    7.03961   7.13800   7.14304   7.28719   7.33261
  Beta virt. eigenvalues --    7.50465   7.52845   7.59818   7.81425   8.07205
  Beta virt. eigenvalues --    8.43017  23.25944  23.83293  24.38547  24.86134
  Beta virt. eigenvalues --   25.48580
          Condensed to atoms (all electrons):
               1          2          3          4          5          6
     1  C    5.929429   0.402438   0.402439  -0.226270  -0.125473  -0.187951
     2  H    0.402438   0.362970  -0.022016  -0.027984   0.004670   0.001210
     3  H    0.402439  -0.022016   0.362970  -0.027984   0.004671   0.001210
     4  C   -0.226270  -0.027984  -0.027984   7.895515  -1.203231   0.259522
     5  C   -0.125473   0.004670   0.004671  -1.203231   7.478837  -0.198372
     6  C   -0.187951   0.001210   0.001210   0.259522  -0.198372   5.980661
     7  H   -0.010651  -0.001731  -0.001731  -0.008825  -0.008739   0.397333
     8  C    0.232905   0.000513   0.000513  -1.063334  -0.701823  -0.315416
               7          8
     1  C   -0.010651   0.232905
     2  H   -0.001731   0.000513
     3  H   -0.001731   0.000513
     4  C   -0.008825  -1.063334
     5  C   -0.008739  -0.701823
     6  C    0.397333  -0.315416
     7  H    0.382593  -0.067637
     8  C   -0.067637   7.590517
          Atomic-Atomic Spin Densities.
               1          2          3          4          5          6
     1  C    0.133159   0.015407   0.015407  -0.310418   0.082711  -0.106042
     2  H    0.015407   0.012689   0.001865  -0.016958   0.008224  -0.004020
     3  H    0.015407   0.001865   0.012689  -0.016958   0.008224  -0.004020
     4  C   -0.310418  -0.016958  -0.016958   2.812240  -0.747416   0.160799
     5  C    0.082711   0.008224   0.008224  -0.747416   1.241843   0.047293
     6  C   -0.106042  -0.004020  -0.004020   0.160799   0.047293   0.741091
     7  H   -0.000887   0.000537   0.000537  -0.003182   0.003278   0.023830
     8  C    0.180594  -0.003781  -0.003781  -0.470834  -0.813825  -0.337658
               7          8
     1  C   -0.000887   0.180594
     2  H    0.000537  -0.003781
     3  H    0.000537  -0.003781
     4  C   -0.003182  -0.470834
     5  C    0.003278  -0.813825
     6  C    0.023830  -0.337658
     7  H    0.007162  -0.005339
     8  C   -0.005339   2.631955
 Mulliken charges and spin densities:
               1          2
     1  C   -0.416866   0.009931
     2  H    0.279929   0.013963
     3  H    0.279929   0.013963
     4  C    0.402591   1.407273
     5  C    0.749461  -0.169668
     6  C    0.061804   0.521273
     7  H    0.319389   0.025935
     8  C    0.323761   1.177330
 Sum of Mulliken charges =   2.00000   3.00000
 Mulliken charges and spin densities with hydrogens summed into heavy atoms:
               1          2
     1  C    0.142993   0.037856
     4  C    0.402591   1.407273
     5  C    0.749461  -0.169668
     6  C    0.381193   0.547208
     8  C    0.323761   1.177330
 APT charges:
               1
     1  C   -0.129693
     2  H    0.249710
     3  H    0.249710
     4  C    0.354990
     5  C    0.518284
     6  C    0.169031
     7  H    0.313726
     8  C    0.274243
 Sum of APT charges =   2.00000
 APT charges with hydrogens summed into heavy atoms:
               1
     1  C    0.369727
     4  C    0.354990
     5  C    0.518284
     6  C    0.482756
     8  C    0.274243
 Electronic spatial extent (au):  <R**2>=            238.0486
 Charge=              2.0000 electrons
 Dipole moment (field-independent basis, Debye):
    X=             -0.0659    Y=              0.7546    Z=              0.0000  Tot=              0.7574
 Quadrupole moment (field-independent basis, Debye-Ang):
   XX=            -11.3487   YY=             -9.0177   ZZ=            -22.3625
   XY=              0.3187   XZ=             -0.0007   YZ=              0.0005
 Traceless Quadrupole moment (field-independent basis, Debye-Ang):
   XX=              2.8943   YY=              5.2253   ZZ=             -8.1195
   XY=              0.3187   XZ=             -0.0007   YZ=              0.0005
 Octapole moment (field-independent basis, Debye-Ang**2):
  XXX=             -0.6823  YYY=              5.9229  ZZZ=              0.0011  XYY=              2.1603
  XXY=              4.8181  XXZ=             -0.0002  XZZ=             -3.0803  YZZ=              3.5896
  YYZ=             -0.0002  XYZ=              0.0001
 Hexadecapole moment (field-independent basis, Debye-Ang**3):
 XXXX=           -126.8394 YYYY=            -89.4177 ZZZZ=            -25.6253 XXXY=              0.3131
 XXXZ=              0.0036 YYYX=              6.5053 YYYZ=             -0.0014 ZZZX=              0.0029
 ZZZY=             -0.0009 XXYY=            -28.0577 XXZZ=            -24.9132 YYZZ=            -22.0819
 XXYZ=             -0.0007 YYXZ=              0.0010 ZZXY=             -3.9056
 N-N= 1.323213373459D+02 E-N=-6.917735494505D+02  KE= 1.903487528677D+02
  Exact polarizability:  48.858   0.317  45.996  -0.002   0.001  26.168
 Approx polarizability:  99.274   1.511  91.437  -0.004   0.002  38.854
                          Isotropic Fermi Contact Couplings
        Atom                 a.u.       MegaHertz       Gauss      10(-4) cm-1
     1  C(13)              0.03295      12.34625       4.40545       4.11826
     2  H(1)               0.00731      10.88536       3.88417       3.63097
     3  H(1)               0.00731      10.88536       3.88417       3.63097
     4  C(13)              0.74504     279.18786      99.62117      93.12704
     5  C(13)              0.02589       9.70264       3.46214       3.23645
     6  C(13)              0.09425      35.31754      12.60218      11.78066
     7  H(1)               0.01419      21.13988       7.54323       7.05150
     8  C(13)              0.64699     242.44519      86.51047      80.87101
 --------------------------------------------------------
       Center         ----  Spin Dipole Couplings  ----
                      3XX-RR        3YY-RR        3ZZ-RR
 --------------------------------------------------------
     1   Atom        0.180609     -0.042256     -0.138353
     2   Atom       -0.006583      0.007790     -0.001207
     3   Atom       -0.006585      0.007786     -0.001202
     4   Atom        0.426607     -0.542047      0.115440
     5   Atom        0.100099      0.122718     -0.222817
     6   Atom       -0.137198     -0.300039      0.437237
     7   Atom       -0.035340      0.062794     -0.027453
     8   Atom        0.780580     -0.555181     -0.225399
 --------------------------------------------------------
                        XY            XZ            YZ
 --------------------------------------------------------
     1   Atom       -0.106437     -0.000026      0.000011
     2   Atom       -0.009336      0.006743     -0.023163
     3   Atom       -0.009333     -0.006743      0.023165
     4   Atom        0.565469      0.000002     -0.000066
     5   Atom       -0.046577     -0.000024      0.000017
     6   Atom        0.067736      0.000042     -0.000035
     7   Atom        0.033033      0.000002      0.000001
     8   Atom       -0.364444     -0.000084      0.000012
 --------------------------------------------------------


 ---------------------------------------------------------------------------------
              Anisotropic Spin Dipole Couplings in Principal Axis System
 ---------------------------------------------------------------------------------

       Atom             a.u.   MegaHertz   Gauss  10(-4) cm-1        Axes

              Baa    -0.1384   -18.566    -6.625    -6.193  0.0001 -0.0000  1.0000
     1 C(13)  Bbb    -0.0849   -11.396    -4.066    -3.801  0.3721  0.9282  0.0000
              Bcc     0.2233    29.961    10.691     9.994  0.9282 -0.3721 -0.0001
 
              Baa    -0.0204   -10.860    -3.875    -3.622  0.0669  0.6472  0.7594
     2 H(1)   Bbb    -0.0101    -5.389    -1.923    -1.798  0.9527  0.1847 -0.2414
              Bcc     0.0305    16.249     5.798     5.420 -0.2964  0.7396 -0.6042
 
              Baa    -0.0204   -10.860    -3.875    -3.622 -0.0668 -0.6473  0.7593
     3 H(1)   Bbb    -0.0101    -5.389    -1.923    -1.798  0.9527  0.1847  0.2412
              Bcc     0.0305    16.249     5.798     5.420 -0.2964  0.7396  0.6043
 
              Baa    -0.8023  -107.654   -38.414   -35.910 -0.4180  0.9084  0.0001
     4 C(13)  Bbb     0.1154    15.491     5.528     5.167  0.0001 -0.0000  1.0000
              Bcc     0.6868    92.164    32.886    30.742  0.9084  0.4180 -0.0000
 
              Baa    -0.2228   -29.900   -10.669    -9.974  0.0001 -0.0000  1.0000
     5 C(13)  Bbb     0.0635     8.518     3.039     2.841  0.7861  0.6181 -0.0000
              Bcc     0.1593    21.382     7.630     7.132 -0.6181  0.7861  0.0001
 
              Baa    -0.3245   -43.549   -15.539   -14.526 -0.3400  0.9404  0.0001
     6 C(13)  Bbb    -0.1127   -15.124    -5.397    -5.045  0.9404  0.3400 -0.0001
              Bcc     0.4372    58.673    20.936    19.571  0.0001 -0.0000  1.0000
 
              Baa    -0.0454   -24.236    -8.648    -8.084  0.9564 -0.2919 -0.0001
     7 H(1)   Bbb    -0.0275   -14.648    -5.227    -4.886  0.0001 -0.0000  1.0000
              Bcc     0.0729    38.884    13.875    12.970  0.2919  0.9564  0.0000
 
              Baa    -0.6481   -86.975   -31.035   -29.012  0.2472  0.9690  0.0000
     8 C(13)  Bbb    -0.2254   -30.246   -10.793   -10.089  0.0001 -0.0000  1.0000
              Bcc     0.8735   117.221    41.827    39.101  0.9690 -0.2472 -0.0001
 

 ---------------------------------------------------------------------------------

 No NMR shielding tensors so no spin-rotation constants.
 Leave Link  601 at Tue Jul 19 15:32:23 2016, MaxMem=    33554432 cpu:         0.8
 (Enter /home/proyectos/fulerenos/M3C-v2.0/M3C-deps_CCC/g09-AM64L-G09RevC.01/l701.exe)
 Compute integral second derivatives.
 ... and contract with generalized density number  0.
 Leave Link  701 at Tue Jul 19 15:32:24 2016, MaxMem=    33554432 cpu:         1.0
 (Enter /home/proyectos/fulerenos/M3C-v2.0/M3C-deps_CCC/g09-AM64L-G09RevC.01/l702.exe)
 L702 exits ... SP integral derivatives will be done elsewhere.
 Leave Link  702 at Tue Jul 19 15:32:25 2016, MaxMem=    33554432 cpu:         0.0
 (Enter /home/proyectos/fulerenos/M3C-v2.0/M3C-deps_CCC/g09-AM64L-G09RevC.01/l703.exe)
 Compute integral second derivatives, UseDBF=F ICtDFT=           0.
 Integral derivatives from FoFJK, PRISM(SPDF).
 Calling FoFJK, ICntrl=    100127 FMM=F ISym2X=0 I1Cent= 0 IOpClX= 1 NMat=1 NMatS=1 NMatT=0.
 FoFJK:  IHMeth= 1 ICntrl=  100127 DoSepK=F KAlg= 0 I1Cent=   0 FoldK=F
 IRaf=         0 NMat=   1 IRICut=       1 DoRegI=T DoRafI=F ISym2E= 0.
 FoFCou: FMM=F IPFlag=           0 FMFlag=      100000 FMFlg1=         800
         NFxFlg=           0 DoJE=F BraDBF=F KetDBF=F FulRan=T
         wScrn=  0.000000 ICntrl=  100127 IOpCl=  1 I1Cent=           0 NGrid=           0
         NMat0=    1 NMatS0=      1 NMatT0=    0 NMatD0=    1 NMtDS0=    0 NMtDT0=    0
 Symmetry not used in FoFCou.
 Leave Link  703 at Tue Jul 19 16:02:03 2016, MaxMem=    33554432 cpu:      1777.2
 (Enter /home/proyectos/fulerenos/M3C-v2.0/M3C-deps_CCC/g09-AM64L-G09RevC.01/l716.exe)
 Dipole        =-2.59139835D-02 2.96871290D-01 1.39252478D-05
 Polarizability= 4.88581243D+01 3.17166430D-01 4.59955444D+01
                -1.55194331D-03 7.91152374D-04 2.61683060D+01
 Full mass-weighted force constant matrix:
 Low frequencies ---  -14.4207  -13.3307   -1.9330   -0.0003    0.0002    0.0009
 Low frequencies ---  329.7172  409.7468  514.3872
 Diagonal vibrational polarizability:
        2.5634158       3.5202745       2.8282900
 Harmonic frequencies (cm**-1), IR intensities (KM/Mole), Raman scattering
 activities (A**4/AMU), depolarization ratios for plane and unpolarized
 incident light, reduced masses (AMU), force constants (mDyne/A),
 and normal coordinates:
                      1                      2                      3
                      A                      A                      A
 Frequencies --    329.7170               409.7465               514.3870
 Red. masses --      2.0555                 7.7537                 6.9842
 Frc consts  --      0.1317                 0.7670                 1.0888
 IR Inten    --      0.2166                 0.0117                 7.7347
  Atom  AN      X      Y      Z        X      Y      Z        X      Y      Z
     1   6    -0.00   0.00  -0.11     0.00  -0.00   0.06     0.39  -0.12  -0.00
     2   1     0.29  -0.32  -0.40     0.19   0.07  -0.01     0.29  -0.30  -0.05
     3   1    -0.29   0.32  -0.40    -0.19  -0.07  -0.01     0.29  -0.30   0.05
     4   6     0.00  -0.00   0.18    -0.00   0.00  -0.33    -0.22  -0.33   0.00
     5   6    -0.00   0.00  -0.06     0.00  -0.00   0.56    -0.19   0.02   0.00
     6   6     0.00  -0.00   0.17     0.00  -0.00   0.08     0.17   0.29   0.00
     7   1     0.00  -0.00   0.46     0.00  -0.00   0.55     0.10   0.30   0.00
     8   6    -0.00   0.00  -0.14    -0.00   0.00  -0.42    -0.22   0.16   0.00
                      4                      5                      6
                      A                      A                      A
 Frequencies --    542.1150               687.8068               705.7397
 Red. masses --     10.6933                 1.2206                 5.4782
 Frc consts  --      1.8516                 0.3402                 1.6076
 IR Inten    --     12.1857                38.7481                 0.4779
  Atom  AN      X      Y      Z        X      Y      Z        X      Y      Z
     1   6    -0.25  -0.23   0.00    -0.00   0.00  -0.12    -0.35   0.01   0.00
     2   1     0.06  -0.21  -0.10    -0.39   0.22   0.17    -0.31  -0.16  -0.09
     3   1     0.06  -0.21   0.10     0.39  -0.22   0.17    -0.31  -0.16   0.09
     4   6    -0.32  -0.12   0.00     0.00  -0.00   0.06     0.09  -0.00  -0.00
     5   6    -0.08   0.63   0.00     0.00  -0.00   0.01    -0.01  -0.18  -0.00
     6   6     0.30  -0.17  -0.00    -0.00   0.00  -0.04     0.43   0.19  -0.00
     7   1    -0.01   0.00  -0.00     0.00  -0.00   0.72     0.56   0.14  -0.00
     8   6     0.34  -0.07  -0.00     0.00  -0.00   0.00    -0.15  -0.00   0.00
                      7                      8                      9
                      A                      A                      A
 Frequencies --    870.6528               884.6781              1068.1855
 Red. masses --      1.7463                 5.7373                 1.1378
 Frc consts  --      0.7799                 2.6456                 0.7649
 IR Inten    --      0.1107                 1.5162                23.5221
  Atom  AN      X      Y      Z        X      Y      Z        X      Y      Z
     1   6     0.00  -0.00   0.15    -0.07   0.46   0.00     0.06  -0.01  -0.00
     2   1     0.13  -0.43  -0.14    -0.08   0.35  -0.03    -0.41  -0.28   0.06
     3   1    -0.13   0.43  -0.14    -0.08   0.35   0.03    -0.41  -0.28  -0.06
     4   6    -0.00   0.00  -0.05    -0.07  -0.44  -0.00     0.02   0.03   0.00
     5   6    -0.00   0.00  -0.02     0.06  -0.00  -0.00    -0.00   0.06   0.00
     6   6    -0.00   0.00  -0.19    -0.03  -0.06  -0.00    -0.06   0.01   0.00
     7   1     0.00  -0.00   0.70     0.47  -0.31  -0.00     0.62  -0.33  -0.00
     8   6     0.00  -0.00   0.07     0.09   0.00  -0.00    -0.00  -0.01   0.00
                     10                     11                     12
                      A                      A                      A
 Frequencies --   1085.4251              1143.8850              1235.3283
 Red. masses --      1.0961                 1.6907                 2.1460
 Frc consts  --      0.7609                 1.3034                 1.9295
 IR Inten    --      1.8820                16.7455                20.5824
  Atom  AN      X      Y      Z        X      Y      Z        X      Y      Z
     1   6    -0.00  -0.00   0.00    -0.05  -0.08  -0.00    -0.03  -0.13  -0.00
     2   1     0.51   0.47   0.02     0.43   0.23  -0.04     0.02   0.50   0.29
     3   1    -0.51  -0.47   0.02     0.43   0.23   0.04     0.02   0.50  -0.29
     4   6     0.00  -0.00   0.05     0.04  -0.01  -0.00    -0.12   0.01   0.00
     5   6    -0.00  -0.00  -0.00     0.06   0.06  -0.00    -0.01  -0.10  -0.00
     6   6    -0.00   0.00  -0.07    -0.02  -0.09  -0.00    -0.05   0.17   0.00
     7   1     0.00  -0.00   0.17     0.55  -0.38  -0.00     0.46  -0.07  -0.00
     8   6     0.00  -0.00   0.01    -0.15   0.11   0.00     0.17  -0.03  -0.00
                     13                     14                     15
                      A                      A                      A
 Frequencies --   1300.8393              1308.7637              1541.4733
 Red. masses --      4.8609                 1.6058                 7.9153
 Frc consts  --      4.8463                 1.6205                11.0812
 IR Inten    --     53.8251                25.5409                 0.4128
  Atom  AN      X      Y      Z        X      Y      Z        X      Y      Z
     1   6    -0.01   0.05   0.00    -0.06   0.03   0.00     0.00   0.05   0.00
     2   1     0.09  -0.45  -0.28     0.43  -0.33  -0.39     0.12  -0.30  -0.26
     3   1     0.09  -0.45   0.28     0.43  -0.33   0.39     0.12  -0.30   0.26
     4   6    -0.26   0.12   0.00     0.06   0.00  -0.00    -0.39   0.09   0.00
     5   6     0.00  -0.26  -0.00    -0.08  -0.00   0.00     0.59   0.01  -0.00
     6   6     0.05  -0.17  -0.00    -0.10   0.12   0.00    -0.04   0.13   0.00
     7   1     0.13  -0.24  -0.00     0.25  -0.05  -0.00     0.00   0.15   0.00
     8   6     0.19   0.36   0.00     0.09  -0.09  -0.00    -0.18  -0.25   0.00
                     16                     17                     18
                      A                      A                      A
 Frequencies --   2896.1324              2962.5324              3028.7807
 Red. masses --      1.0508                 1.1079                 1.0924
 Frc consts  --      5.1927                 5.7288                 5.9040
 IR Inten    --    247.4383               170.1378               267.6722
  Atom  AN      X      Y      Z        X      Y      Z        X      Y      Z
     1   6     0.04  -0.05  -0.00    -0.00   0.00  -0.10     0.01  -0.00  -0.00
     2   1    -0.25   0.29  -0.59     0.26  -0.30   0.58    -0.03   0.03  -0.07
     3   1    -0.25   0.29   0.59    -0.26   0.30   0.58    -0.03   0.03   0.07
     4   6     0.00  -0.00  -0.00    -0.00   0.00  -0.00     0.00  -0.00  -0.00
     5   6    -0.00   0.00   0.00     0.00  -0.00   0.00    -0.00  -0.00   0.00
     6   6     0.01   0.01  -0.00    -0.00   0.00  -0.00    -0.04  -0.08  -0.00
     7   1    -0.05  -0.09  -0.00    -0.00  -0.00   0.00     0.44   0.88   0.00
     8   6     0.00   0.00  -0.00    -0.00   0.00  -0.00    -0.00   0.01   0.00

 -------------------
 - Thermochemistry -
 -------------------
 Temperature   298.150 Kelvin.  Pressure   1.00000 Atm.
 Atom     1 has atomic number  6 and mass  12.00000
 Atom     2 has atomic number  1 and mass   1.00783
 Atom     3 has atomic number  1 and mass   1.00783
 Atom     4 has atomic number  6 and mass  12.00000
 Atom     5 has atomic number  6 and mass  12.00000
 Atom     6 has atomic number  6 and mass  12.00000
 Atom     7 has atomic number  1 and mass   1.00783
 Atom     8 has atomic number  6 and mass  12.00000
 Molecular mass:    63.02348 amu.
 Principal axes and moments of inertia in atomic units:
                           1         2         3
     Eigenvalues --   169.40581 203.23606 360.40513
           X            0.99608  -0.08841   0.00007
           Y            0.08841   0.99608  -0.00004
           Z           -0.00007   0.00005   1.00000
 This molecule is an asymmetric top.
 Rotational symmetry number  1.
 Rotational temperatures (Kelvin)      0.51128     0.42617     0.24032
 Rotational constants (GHZ):          10.65336     8.88002     5.00753
 Zero-point vibrational energy     134676.7 (Joules/Mol)
                                   32.18851 (Kcal/Mol)
 Warning -- explicit consideration of   4 degrees of freedom as
           vibrations may cause significant error
 Vibrational temperatures:    474.39   589.53   740.09   779.98   989.60
          (Kelvin)           1015.40  1252.67  1272.85  1536.88  1561.68
                             1645.79  1777.36  1871.62  1883.02  2217.83
                             4166.88  4262.42  4357.73
 
 Zero-point correction=                           0.051296 (Hartree/Particle)
 Thermal correction to Energy=                    0.055683
 Thermal correction to Enthalpy=                  0.056627
 Thermal correction to Gibbs Free Energy=         0.023503
 Sum of electronic and zero-point Energies=           -191.108918
 Sum of electronic and thermal Energies=              -191.104531
 Sum of electronic and thermal Enthalpies=            -191.103587
 Sum of electronic and thermal Free Energies=         -191.136711
 
                     E (Thermal)             CV                S
                      KCal/Mol        Cal/Mol-Kelvin    Cal/Mol-Kelvin
 Total                   34.941             15.521             69.716
 Electronic               0.000              0.000              2.755
 Translational            0.889              2.981             38.342
 Rotational               0.889              2.981             24.032
 Vibrational             33.164              9.559              4.587
 Vibration     1          0.713              1.616              1.261
 Vibration     2          0.774              1.449              0.928
 Vibration     3          0.869              1.218              0.623
 Vibration     4          0.897              1.157              0.561
                       Q            Log10(Q)             Ln(Q)
 Total Bot       0.154718D-10        -10.810459        -24.892002
 Total V=0       0.607929D+13         12.783853         29.435909
 Vib (Bot)       0.493249D-23        -23.306934        -53.666199
 Vib (Bot)    1  0.566786D+00         -0.246581         -0.567774
 Vib (Bot)    2  0.431866D+00         -0.364651         -0.839639
 Vib (Bot)    3  0.315410D+00         -0.501124         -1.153880
 Vib (Bot)    4  0.291668D+00         -0.535110         -1.232137
 Vib (V=0)       0.193811D+01          0.287378          0.661711
 Vib (V=0)    1  0.125581D+01          0.098923          0.227779
 Vib (V=0)    2  0.116069D+01          0.064715          0.149013
 Vib (V=0)    3  0.109117D+01          0.037893          0.087252
 Vib (V=0)    4  0.107885D+01          0.032962          0.075898
 Electronic      0.400000D+01          0.602060          1.386294
 Translational   0.196657D+08          7.293709         16.794385
 Rotational      0.398755D+05          4.600706         10.593518
 
                                                              b3lyp opt
                                                             IR Spectrum
 
     3  2  2                                                        1        11  1   1 11                                            
     0  9  8                                                        5        33  2   1 00      88      76     55   4   3             
     2  6  9                                                        4        00  3   4 86      87      08     41   1   3             
     9  3  6                                                        1        91  5   4 58      51      68     24   0   0             
 
     X  X  X                                                        X        XX  X   X XX      XX      XX     XX       X             
     X  X  X                                                                 XX  X      X               X                            
     X  X  X                                                                  X                         X                            
     X  X  X                                                                  X                                                      
     X  X  X                                                                                                                         
     X  X  X                                                                                                                         
     X  X  X                                                                                                                         
     X  X  X                                                                                                                         
     X  X  X                                                                                                                         
     X  X  X                                                                                                                         
     X  X  X                                                                                                                         
     X  X  X                                                                                                                         
     X  X  X                                                                                                                         
     X     X                                                                                                                         
     X     X                                                                                                                         
     X     X                                                                                                                         
     X     X                                                                                                                         
     X     X                                                                                                                         
     X                                                                                                                               
     X                                                                                                                               
 
 ***** Axes restored to original set *****
 -------------------------------------------------------------------
 Center     Atomic                   Forces (Hartrees/Bohr)
 Number     Number              X              Y              Z
 -------------------------------------------------------------------
      1        6           0.000136164    0.000069363    0.000000003
      2        1          -0.000018336    0.000009773    0.000008160
      3        1          -0.000018332    0.000009777   -0.000008147
      4        6           0.000063166   -0.000011119   -0.000000001
      5        6          -0.000054091   -0.000024766   -0.000000023
      6        6          -0.000050948   -0.000034643    0.000000001
      7        1           0.000006751   -0.000007819   -0.000000002
      8        6          -0.000064373   -0.000010567    0.000000010
 -------------------------------------------------------------------
 Cartesian Forces:  Max     0.000136164 RMS     0.000040906
 Z-matrix is all fixed cartesians, so copy forces.
 Force constants in Cartesian coordinates: 
                1             2             3             4             5 
      1  0.233116D+00
      2 -0.941454D-01  0.376135D+00
      3  0.132963D-04  0.215235D-05  0.483033D+00
      4 -0.620470D-01  0.365443D-01 -0.777623D-01  0.734563D-01
      5  0.362303D-01 -0.773762D-01  0.884960D-01 -0.383547D-01  0.886509D-01
      6 -0.723778D-01  0.821123D-01 -0.207071D+00  0.809062D-01 -0.943894D-01
      7 -0.620263D-01  0.365267D-01  0.777453D-01  0.499619D-02 -0.520041D-02
      8  0.362122D-01 -0.773623D-01 -0.884903D-01 -0.519990D-02  0.630662D-02
      9  0.723609D-01 -0.821067D-01 -0.207106D+00  0.831577D-02 -0.868198D-02
     10 -0.224111D-01 -0.107381D-01 -0.143785D-05  0.762857D-03  0.770567D-02
     11  0.337088D-02 -0.119576D+00 -0.347927D-05  0.452263D-03 -0.248227D-01
     12  0.000000D+00 -0.282748D-05 -0.340695D-01  0.621397D-02  0.176568D-01
     13 -0.248488D-02  0.494962D-01  0.153907D-05  0.506606D-02 -0.868331D-02
     14  0.332335D-01 -0.222269D-01 -0.282673D-05 -0.436676D-02 -0.925510D-03
     15  0.000000D+00 -0.386516D-05 -0.102286D-01 -0.573550D-03  0.107005D-02
     16 -0.495375D-01 -0.747103D-02  0.000000D+00 -0.197122D-01  0.785701D-02
     17 -0.494388D-01 -0.495064D-01  0.363794D-05  0.127175D-01  0.132946D-02
     18 -0.272976D-05  0.000000D+00 -0.602609D-01 -0.204313D-01 -0.316270D-02
     19 -0.676001D-02 -0.199748D-01  0.000000D+00  0.122174D-02 -0.244071D-03
     20  0.112733D-01  0.563782D-02  0.000000D+00 -0.774123D-03  0.138449D-03
     21  0.118370D-05  0.146082D-05  0.373115D-02  0.159908D-02 -0.775288D-04
     22 -0.278494D-01  0.976208D-02  0.454186D-05 -0.374394D-02  0.689587D-03
     23  0.232641D-01 -0.357253D-01 -0.440288D-05 -0.101858D-02  0.669901D-02
     24  0.505947D-05 -0.344388D-05  0.319712D-01  0.173222D-02 -0.911258D-03
                6             7             8             9            10 
      6  0.220819D+00
      7 -0.831886D-02  0.734341D-01
      8  0.868440D-02 -0.383352D-01  0.886354D-01
      9 -0.143698D-01 -0.808890D-01  0.943838D-01  0.220857D+00
     10  0.536682D-03  0.761903D-03  0.770331D-02 -0.536362D-03  0.501443D+00
     11 -0.452672D-03  0.452872D-03 -0.248213D-01  0.450705D-03 -0.827484D-01
     12 -0.143992D-02 -0.621422D-02 -0.176598D-01 -0.144040D-02 -0.347771D-04
     13 -0.127900D-02  0.506631D-02 -0.868357D-02  0.127814D-02 -0.384380D+00
     14  0.252503D-02 -0.436717D-02 -0.925192D-03 -0.252486D-02  0.146036D+00
     15  0.411275D-02  0.573024D-03 -0.106921D-02  0.411217D-02  0.313081D-04
     16  0.528266D-02 -0.197101D-01  0.785787D-02 -0.527927D-02 -0.195133D-01
     17  0.377057D-02  0.127153D-01  0.132954D-02 -0.377223D-02 -0.514442D-01
     18  0.271404D-03  0.204352D-01  0.316168D-02  0.269290D-03  0.000000D+00
     19 -0.158112D-02  0.122174D-02 -0.244187D-03  0.158103D-02 -0.346760D-02
     20 -0.132189D-02 -0.773809D-03  0.138334D-03  0.132195D-02  0.304363D-04
     21  0.702518D-03 -0.159921D-02  0.775141D-04  0.702638D-03  0.000000D+00
     22 -0.316867D-02 -0.374372D-02  0.689442D-03  0.316884D-02 -0.731955D-01
     23 -0.928393D-03 -0.101832D-02  0.669887D-02  0.929331D-03 -0.165448D-01
     24 -0.302493D-02 -0.173224D-02  0.911982D-03 -0.302499D-02  0.464172D-05
               11            12            13            14            15 
     11  0.215465D+00
     12  0.128124D-04  0.481230D-01
     13  0.849040D-01  0.285356D-04  0.634251D+00
     14 -0.714858D-01 -0.122131D-04  0.226334D-01  0.279690D+00
     15 -0.838078D-05 -0.220414D-01 -0.401262D-04  0.852585D-05  0.402174D-01
     16 -0.136077D-01  0.100735D-05 -0.133134D-02 -0.309459D-01  0.000000D+00
     17 -0.226833D-02  0.329677D-05  0.372379D-01 -0.308424D-01 -0.419103D-05
     18  0.000000D+00  0.277202D-02  0.251497D-05  0.000000D+00  0.128355D-01
     19 -0.268112D-02  0.000000D+00 -0.310431D-02  0.174459D-02  0.000000D+00
     20 -0.735875D-03  0.000000D+00 -0.466102D-02 -0.681350D-02  0.000000D+00
     21  0.000000D+00  0.390209D-02  0.000000D+00  0.000000D+00  0.518060D-03
     22  0.985721D-02  0.573592D-05 -0.253083D+00 -0.163968D+00  0.865037D-05
     23  0.282452D-01  0.213228D-05 -0.172244D+00 -0.146471D+00  0.705769D-05
     24  0.000000D+00  0.419402D-02  0.832957D-05  0.650037D-05 -0.295259D-01
               16            17            18            19            20 
     16  0.268353D+00
     17  0.574316D-01  0.637433D+00
     18 -0.745446D-05  0.172029D-04  0.127881D+00
     19 -0.940767D-01 -0.110592D+00  0.000000D+00  0.998470D-01
     20 -0.112465D+00 -0.252231D+00 -0.119572D-05  0.112345D+00  0.265595D+00
     21  0.000000D+00 -0.133198D-05 -0.350692D-01 -0.102938D-05  0.246930D-05
     22 -0.644720D-01  0.913724D-01  0.487802D-05  0.511810D-02 -0.497446D-02
     23  0.913430D-01 -0.305244D+00 -0.168951D-04  0.196468D-01 -0.117295D-01
     24  0.494318D-05 -0.169585D-04 -0.486994D-01  0.000000D+00  0.000000D+00
               21            22            23            24 
     21  0.177943D-01
     22  0.000000D+00  0.420969D+00
     23 -0.215567D-05  0.565714D-01  0.457527D+00
     24  0.771838D-02 -0.239470D-04  0.133261D-04  0.403915D-01
 Leave Link  716 at Tue Jul 19 16:02:03 2016, MaxMem=    33554432 cpu:         0.1
 (Enter /home/proyectos/fulerenos/M3C-v2.0/M3C-deps_CCC/g09-AM64L-G09RevC.01/l103.exe)

 GradGradGradGradGradGradGradGradGradGradGradGradGradGradGradGradGradGrad
 Berny optimization.
 Search for a local minimum.
 Step number   1 out of a maximum of    2
 All quantities printed in internal units (Hartrees-Bohrs-Radians)
 Second derivative matrix not updated -- analytic derivatives used.
 ITU=  0
     Eigenvalues ---    0.01080   0.02836   0.03951   0.05078   0.05156
     Eigenvalues ---    0.08809   0.10655   0.11102   0.14927   0.17194
     Eigenvalues ---    0.17394   0.28946   0.49107   0.59378   0.68453
     Eigenvalues ---    0.73439   0.89925   1.09466
 Angle between quadratic step and forces=  37.57 degrees.
 Linear search not attempted -- first point.
 B after Tr=     0.000044   -0.000011    0.000000
         Rot=    1.000000   -0.000000    0.000000    0.000001 Ang=   0.00 deg.
 Variable       Old X    -DE/DX   Delta X   Delta X   Delta X     New X
                                 (Linear)    (Quad)   (Total)
    X1       -1.62592   0.00014   0.00000   0.00064   0.00069  -1.62524
    Y1        1.39532   0.00007   0.00000   0.00028   0.00028   1.39560
    Z1        0.00012   0.00000   0.00000  -0.00000  -0.00000   0.00012
    X2       -2.37794  -0.00002   0.00000  -0.00029  -0.00024  -2.37818
    Y2        2.27575   0.00001   0.00000   0.00011   0.00010   2.27585
    Z2       -1.74204   0.00001   0.00000   0.00027   0.00027  -1.74177
    X3       -2.37770  -0.00002   0.00000  -0.00029  -0.00024  -2.37794
    Y3        2.27561   0.00001   0.00000   0.00011   0.00010   2.27571
    Z3        1.74246  -0.00001   0.00000  -0.00027  -0.00027   1.74219
    X4       -2.09413   0.00006   0.00000   0.00029   0.00033  -2.09380
    Y4       -1.43719  -0.00001   0.00000  -0.00003  -0.00003  -1.43722
    Z4        0.00004  -0.00000   0.00000   0.00000  -0.00000   0.00004
    X5        0.29159  -0.00005   0.00000   0.00001   0.00005   0.29165
    Y5       -2.12889  -0.00002   0.00000  -0.00049  -0.00050  -2.12939
    Z5       -0.00015  -0.00000   0.00000  -0.00000  -0.00000  -0.00016
    X6        1.38894  -0.00005   0.00000  -0.00037  -0.00032   1.38862
    Y6        1.62839  -0.00003   0.00000   0.00012   0.00010   1.62849
    Z6       -0.00008   0.00000   0.00000   0.00000   0.00000  -0.00008
    X7        2.34344   0.00001   0.00000  -0.00004   0.00001   2.34345
    Y7        3.47390  -0.00001   0.00000  -0.00008  -0.00009   3.47381
    Z7       -0.00007  -0.00000   0.00000  -0.00000  -0.00000  -0.00007
    X8        2.44114  -0.00006   0.00000  -0.00032  -0.00027   2.44086
    Y8       -0.79509  -0.00001   0.00000   0.00006   0.00004  -0.79504
    Z8       -0.00025   0.00000   0.00000   0.00000   0.00000  -0.00025
         Item               Value     Threshold  Converged?
 Maximum Force            0.000136     0.000450     YES
 RMS     Force            0.000041     0.000300     YES
 Maximum Displacement     0.000686     0.001800     YES
 RMS     Displacement     0.000240     0.001200     YES
 Predicted change in Energy=-9.517164D-08
 Optimization completed.
    -- Stationary point found.
 GradGradGradGradGradGradGradGradGradGradGradGradGradGradGradGradGradGrad

 Leave Link  103 at Tue Jul 19 16:02:03 2016, MaxMem=    33554432 cpu:         0.0
 (Enter /home/proyectos/fulerenos/M3C-v2.0/M3C-deps_CCC/g09-AM64L-G09RevC.01/l9999.exe)
 1\1\GINC-EINSTENIO\Freq\UB3LYP\6-311++G(3df,2p)\C5H3(2+,4)\ROOT\19-Jul
 -2016\0\\#p b3lyp/6-311++G(3df,2p) freq symmetry=Loose\\b3lyp opt\\2,4
 \C,-0.860401002,0.738371001,0.000064864\H,-1.258352001,1.204275001,-0.
 92184703\H,-1.258225001,1.204199001,0.92206997\C,-1.108163997,-0.76052
 8002,0.000020149\C,0.154304999,-1.126561999,-0.00008189\C,0.734996004,
 0.861707997,-0.000039936\H,1.240094011,1.838309994,-0.000034472\C,1.29
 1794995,-0.420740997,-0.000131143\\Version=EM64L-G09RevE.01\State=4-A\
 HF=-191.160214\S2=3.778029\S2-1=0.\S2A=3.750271\RMSD=2.335e-09\RMSF=4.
 091e-05\ZeroPoint=0.0512957\Thermal=0.0556828\Dipole=-0.025134,0.29693
 83,0.0000139\DipoleDeriv=-0.121878,-0.0233484,-0.0000088,0.1694184,-0.
 0326504,-0.0000032,-0.0000007,0.0000099,-0.2345498,0.2226277,-0.033149
 4,0.0525941,-0.0430462,0.2189127,-0.0556089,0.1935402,-0.1884334,0.307
 5887,0.2225938,-0.0331192,-0.0525852,-0.0430226,0.2188926,0.0556076,-0
 .193532,0.1884306,0.3076427,0.4904058,0.1379079,0.0000027,0.0605077,0.
 1269262,-0.0000176,-0.0000004,-0.0000227,0.4476382,0.4180136,-0.146837
 7,-0.0000111,0.0028586,0.7915856,0.0000183,-0.000005,0.0000285,0.34525
 34,-0.0156633,0.0225731,0.0000211,-0.0434206,0.2478262,0.0000018,0.000
 0182,-0.0000027,0.2749288,0.2742974,0.1025812,-0.000002,0.1822048,0.48
 26198,-0.0000003,0.0000013,0.0000052,0.1842596,0.509603,-0.0266076,-0.
 0000108,-0.2855003,-0.0541127,0.0000023,-0.0000216,-0.0000156,0.367238
 3\Polar=48.8597709,0.3096423,45.9938978,-0.0015499,0.0007952,26.168306
 \PG=C01 [X(C5H3)]\NImag=0\\0.23311626,-0.09414541,0.37613536,0.0000133
 0,0.00000215,0.48303319,-0.06204700,0.03654431,-0.07776230,0.07345634,
 0.03623027,-0.07737623,0.08849596,-0.03835474,0.08865085,-0.07237785,0
 .08211231,-0.20707090,0.08090616,-0.09438936,0.22081886,-0.06202635,0.
 03652671,0.07774534,0.00499619,-0.00520041,-0.00831886,0.07343408,0.03
 621220,-0.07736232,-0.08849035,-0.00519990,0.00630662,0.00868440,-0.03
 833517,0.08863543,0.07236086,-0.08210671,-0.20710568,0.00831577,-0.008
 68198,-0.01436979,-0.08088901,0.09438380,0.22085676,-0.02241114,-0.010
 73808,-0.00000144,0.00076286,0.00770567,0.00053668,0.00076190,0.007703
 31,-0.00053636,0.50144274,0.00337088,-0.11957608,-0.00000348,0.0004522
 6,-0.02482265,-0.00045267,0.00045287,-0.02482128,0.00045071,-0.0827483
 6,0.21546480,-0.00000065,-0.00000283,-0.03406946,0.00621397,0.01765681
 ,-0.00143992,-0.00621422,-0.01765982,-0.00144040,-0.00003478,0.0000128
 1,0.04812300,-0.00248488,0.04949618,0.00000154,0.00506606,-0.00868331,
 -0.00127900,0.00506631,-0.00868357,0.00127814,-0.38437992,0.08490397,0
 .00002854,0.63425113,0.03323348,-0.02222687,-0.00000283,-0.00436676,-0
 .00092551,0.00252503,-0.00436717,-0.00092519,-0.00252486,0.14603604,-0
 .07148577,-0.00001221,0.02263337,0.27969049,0.00000082,-0.00000387,-0.
 01022861,-0.00057355,0.00107005,0.00411275,0.00057302,-0.00106921,0.00
 411217,0.00003131,-0.00000838,-0.02204135,-0.00004013,0.00000853,0.040
 21738,-0.04953749,-0.00747103,-0.00000088,-0.01971224,0.00785701,0.005
 28266,-0.01971014,0.00785787,-0.00527927,-0.01951335,-0.01360771,0.000
 00101,-0.00133134,-0.03094587,-0.00000045,0.26835317,-0.04943882,-0.04
 950637,0.00000364,0.01271754,0.00132946,0.00377057,0.01271530,0.001329
 54,-0.00377223,-0.05144422,-0.00226833,0.00000330,0.03723792,-0.030842
 44,-0.00000419,0.05743162,0.63743312,-0.00000273,0.00000093,-0.0602609
 3,-0.02043134,-0.00316270,0.00027140,0.02043518,0.00316168,0.00026929,
 -0.00000056,0.00000071,0.00277202,0.00000251,0.00000027,0.01283547,-0.
 00000745,0.00001720,0.12788128,-0.00676001,-0.01997476,-0.00000010,0.0
 0122174,-0.00024407,-0.00158112,0.00122174,-0.00024419,0.00158103,-0.0
 0346760,-0.00268112,0.00000040,-0.00310431,0.00174459,0.00000032,-0.09
 407665,-0.11059175,-0.00000049,0.09984699,0.01127330,0.00563782,-0.000
 00070,-0.00077412,0.00013845,-0.00132189,-0.00077381,0.00013833,0.0013
 2195,0.00003044,-0.00073588,-0.00000019,-0.00466102,-0.00681350,0.0000
 0002,-0.11246483,-0.25223067,-0.00000120,0.11234451,0.26559495,0.00000
 118,0.00000146,0.00373115,0.00159908,-0.00007753,0.00070252,-0.0015992
 1,0.00007751,0.00070264,0.00000051,0.,0.00390209,0.00000006,-0.0000004
 2,0.00051806,-0.00000056,-0.00000133,-0.03506917,-0.00000103,0.0000024
 7,0.01779433,-0.02784940,0.00976208,0.00000454,-0.00374394,0.00068959,
 -0.00316867,-0.00374372,0.00068944,0.00316884,-0.07319549,0.00985721,0
 .00000574,-0.25308305,-0.16396767,0.00000865,-0.06447196,0.09137242,0.
 00000488,0.00511810,-0.00497446,-0.00000002,0.42096946,0.02326409,-0.0
 3572532,-0.00000440,-0.00101858,0.00669901,-0.00092839,-0.00101832,0.0
 0669887,0.00092933,-0.01654480,0.02824520,0.00000213,-0.17224353,-0.14
 647120,0.00000706,0.09134296,-0.30524431,-0.00001690,0.01964680,-0.011
 72950,-0.00000216,0.05657139,0.45752726,0.00000506,-0.00000344,0.03197
 124,0.00173222,-0.00091126,-0.00302493,-0.00173224,0.00091198,-0.00302
 499,0.00000464,0.00000031,0.00419402,0.00000833,0.00000650,-0.02952587
 ,0.00000494,-0.00001696,-0.04869935,0.00000099,-0.00000046,0.00771838,
 -0.00002395,0.00001333,0.04039149\\-0.00013616,-0.00006936,0.,0.000018
 34,-0.00000977,-0.00000816,0.00001833,-0.00000978,0.00000815,-0.000063
 17,0.00001112,0.,0.00005409,0.00002477,0.00000002,0.00005095,0.0000346
 4,0.,-0.00000675,0.00000782,0.,0.00006437,0.00001057,0.\\\@


 ONE OF THE BENEFITS OF A COLLEGE EDUCATION
 IS TO SHOW THE BOY ITS LITTLE AVAIL 
                                    EMERSON IN 'CULTURE'
 Job cpu time:       0 days  1 hours 24 minutes 56.9 seconds.
 File lengths (MBytes):  RWF=     70 Int=      0 D2E=      0 Chk=      5 Scr=      1
 Normal termination of Gaussian 09 at Tue Jul 19 16:02:03 2016.
