 Entering Gaussian System, Link 0=/home/proyectos/fulerenos/M3C-v2.0/M3C-deps_CCC/g09-AM64L-G09RevC.01/g09
 Initial command:
 /home/proyectos/fulerenos/M3C-v2.0/M3C-deps_CCC/g09-AM64L-G09RevC.01/l1.exe "/scratch/naguirre/gaussian/Gau-2068.inp" -scrdir="/scratch/naguirre/gaussian/"
 Entering Link 1 = /home/proyectos/fulerenos/M3C-v2.0/M3C-deps_CCC/g09-AM64L-G09RevC.01/l1.exe PID=      2072.
  
 Copyright (c) 1988,1990,1992,1993,1995,1998,2003,2009,2015,
            Gaussian, Inc.  All Rights Reserved.
  
 This is part of the Gaussian(R) 09 program.  It is based on
 the Gaussian(R) 03 system (copyright 2003, Gaussian, Inc.),
 the Gaussian(R) 98 system (copyright 1998, Gaussian, Inc.),
 the Gaussian(R) 94 system (copyright 1995, Gaussian, Inc.),
 the Gaussian 92(TM) system (copyright 1992, Gaussian, Inc.),
 the Gaussian 90(TM) system (copyright 1990, Gaussian, Inc.),
 the Gaussian 88(TM) system (copyright 1988, Gaussian, Inc.),
 the Gaussian 86(TM) system (copyright 1986, Carnegie Mellon
 University), and the Gaussian 82(TM) system (copyright 1983,
 Carnegie Mellon University). Gaussian is a federally registered
 trademark of Gaussian, Inc.
  
 This software contains proprietary and confidential information,
 including trade secrets, belonging to Gaussian, Inc.
  
 This software is provided under written license and may be
 used, copied, transmitted, or stored only in accord with that
 written license.
  
 The following legend is applicable only to US Government
 contracts under FAR:
  
                    RESTRICTED RIGHTS LEGEND
  
 Use, reproduction and disclosure by the US Government is
 subject to restrictions as set forth in subparagraphs (a)
 and (c) of the Commercial Computer Software - Restricted
 Rights clause in FAR 52.227-19.
  
 Gaussian, Inc.
 340 Quinnipiac St., Bldg. 40, Wallingford CT 06492
  
  
 ---------------------------------------------------------------
 Warning -- This program may not be used in any manner that
 competes with the business of Gaussian, Inc. or will provide
 assistance to any competitor of Gaussian, Inc.  The licensee
 of this program is prohibited from giving any competitor of
 Gaussian, Inc. access to this program.  By using this program,
 the user acknowledges that Gaussian, Inc. is engaged in the
 business of creating and licensing software in the field of
 computational chemistry and represents and warrants to the
 licensee that it is not a competitor of Gaussian, Inc. and that
 it will not use this program in any manner prohibited above.
 ---------------------------------------------------------------
  

 Cite this work as:
 Gaussian 09, Revision E.01,
 M. J. Frisch, G. W. Trucks, H. B. Schlegel, G. E. Scuseria, 
 M. A. Robb, J. R. Cheeseman, G. Scalmani, V. Barone, B. Mennucci, 
 G. A. Petersson, H. Nakatsuji, M. Caricato, X. Li, H. P. Hratchian, 
 A. F. Izmaylov, J. Bloino, G. Zheng, J. L. Sonnenberg, M. Hada, 
 M. Ehara, K. Toyota, R. Fukuda, J. Hasegawa, M. Ishida, T. Nakajima, 
 Y. Honda, O. Kitao, H. Nakai, T. Vreven, J. A. Montgomery, Jr., 
 J. E. Peralta, F. Ogliaro, M. Bearpark, J. J. Heyd, E. Brothers, 
 K. N. Kudin, V. N. Staroverov, T. Keith, R. Kobayashi, J. Normand, 
 K. Raghavachari, A. Rendell, J. C. Burant, S. S. Iyengar, J. Tomasi, 
 M. Cossi, N. Rega, J. M. Millam, M. Klene, J. E. Knox, J. B. Cross, 
 V. Bakken, C. Adamo, J. Jaramillo, R. Gomperts, R. E. Stratmann, 
 O. Yazyev, A. J. Austin, R. Cammi, C. Pomelli, J. W. Ochterski, 
 R. L. Martin, K. Morokuma, V. G. Zakrzewski, G. A. Voth, 
 P. Salvador, J. J. Dannenberg, S. Dapprich, A. D. Daniels, 
 O. Farkas, J. B. Foresman, J. V. Ortiz, J. Cioslowski, 
 and D. J. Fox, Gaussian, Inc., Wallingford CT, 2013.
 
 ******************************************
 Gaussian 09:  EM64L-G09RevE.01 30-Nov-2015
                19-Jul-2016 
 ******************************************
 %NProcShared=1
 Will use up to    1 processors via shared memory.
 ---------------------------------------------
 #p b3lyp/6-311++G(3df,2p) freq symmetry=Loose
 ---------------------------------------------
 1/10=4,30=1,38=1/1,3;
 2/12=2,17=4,18=3,40=1/2;
 3/5=4,6=6,7=1216,11=2,16=1,25=1,30=1,71=2,74=-5,140=1/1,2,3;
 4//1;
 5/5=2,38=5,98=1/2;
 8/6=4,10=90,11=11/1;
 11/6=1,8=1,9=11,15=111,16=1/1,2,10;
 10/6=1/2;
 6/7=2,8=2,9=2,10=2,18=1,28=1/1;
 7/8=1,10=1,25=1/1,2,3,16;
 1/10=4,30=1/3;
 99//99;
 Leave Link    1 at Tue Jul 19 14:31:28 2016, MaxMem=           0 cpu:         0.1
 (Enter /home/proyectos/fulerenos/M3C-v2.0/M3C-deps_CCC/g09-AM64L-G09RevC.01/l101.exe)
 ---------
 b3lyp opt
 ---------
 Symbolic Z-matrix:
 Charge =  0 Multiplicity = 4
 C                    -1.47582   0.06511  -0.00018 
 C                     0.52171  -0.04174   0.00012 
 C                    -0.50447   1.0655    0.00016 
 H                    -0.46791   2.13976   0.00037 
 C                    -0.61873  -1.02826  -0.00025 
 H                    -0.68826  -2.10081  -0.00046 
 C                     1.81909  -0.14408   0.00032 
 H                     2.70735   0.46011   0.00058 
 
 NAtoms=      8 NQM=        8 NQMF=       0 NMMI=      0 NMMIF=      0
                NMic=       0 NMicF=      0.
                    Isotopes and Nuclear Properties:
 (Nuclear quadrupole moments (NQMom) in fm**2, nuclear magnetic moments (NMagM)
  in nuclear magnetons)

  Atom         1           2           3           4           5           6           7           8
 IAtWgt=          12          12          12           1          12           1          12           1
 AtmWgt=  12.0000000  12.0000000  12.0000000   1.0078250  12.0000000   1.0078250  12.0000000   1.0078250
 NucSpn=           0           0           0           1           0           1           0           1
 AtZEff=   0.0000000   0.0000000   0.0000000   0.0000000   0.0000000   0.0000000   0.0000000   0.0000000
 NQMom=    0.0000000   0.0000000   0.0000000   0.0000000   0.0000000   0.0000000   0.0000000   0.0000000
 NMagM=    0.0000000   0.0000000   0.0000000   2.7928460   0.0000000   2.7928460   0.0000000   2.7928460
 AtZNuc=   6.0000000   6.0000000   6.0000000   1.0000000   6.0000000   1.0000000   6.0000000   1.0000000
 Leave Link  101 at Tue Jul 19 14:31:29 2016, MaxMem=    33554432 cpu:         0.3
 (Enter /home/proyectos/fulerenos/M3C-v2.0/M3C-deps_CCC/g09-AM64L-G09RevC.01/l103.exe)

 GradGradGradGradGradGradGradGradGradGradGradGradGradGradGradGradGradGrad
 Berny optimization.
 Initialization pass.
 Trust Radius=3.00D-01 FncErr=1.00D-07 GrdErr=1.00D-07
 Number of steps in this run=      2 maximum allowed number of steps=      2.
 GradGradGradGradGradGradGradGradGradGradGradGradGradGradGradGradGradGrad

 Leave Link  103 at Tue Jul 19 14:31:29 2016, MaxMem=    33554432 cpu:         0.1
 (Enter /home/proyectos/fulerenos/M3C-v2.0/M3C-deps_CCC/g09-AM64L-G09RevC.01/l202.exe)
                          Input orientation:                          
 ---------------------------------------------------------------------
 Center     Atomic      Atomic             Coordinates (Angstroms)
 Number     Number       Type             X           Y           Z
 ---------------------------------------------------------------------
      1          6           0       -1.475819    0.065111   -0.000185
      2          6           0        0.521709   -0.041740    0.000125
      3          6           0       -0.504466    1.065500    0.000163
      4          1           0       -0.467910    2.139756    0.000370
      5          6           0       -0.618733   -1.028258   -0.000248
      6          1           0       -0.688261   -2.100811   -0.000461
      7          6           0        1.819087   -0.144082    0.000320
      8          1           0        2.707351    0.460109    0.000580
 ---------------------------------------------------------------------
                    Distance matrix (angstroms):
                    1          2          3          4          5
     1  C    0.000000
     2  C    2.000384   0.000000
     3  C    1.394383   1.509641   0.000000
     4  H    2.306520   2.395469   1.074878   0.000000
     5  C    1.389263   1.507921   2.096874   3.171602   0.000000
     6  H    2.304662   2.388263   3.171641   4.246288   1.074804
     7  C    3.301540   1.301408   2.619539   3.232069   2.593209
     8  H    4.201778   2.242517   3.268374   3.592144   3.643909
                    6          7          8
     6  H    0.000000
     7  C    3.180500   0.000000
     8  H    4.253057   1.074272   0.000000
 Stoichiometry    C5H3(4)
 Framework group  CS[SG(C5H3)]
 Deg. of freedom    13
 Full point group                 CS      NOp   2
 Largest Abelian subgroup         CS      NOp   2
 Largest concise Abelian subgroup C1      NOp   1
                         Standard orientation:                         
 ---------------------------------------------------------------------
 Center     Atomic      Atomic             Coordinates (Angstroms)
 Number     Number       Type             X           Y           Z
 ---------------------------------------------------------------------
      1          6           0        0.052609   -1.476376    0.000000
      2          6           0       -0.000000    0.523316   -0.000000
      3          6           0       -1.021978   -0.587799    0.000000
      4          1           0       -2.095732   -0.636933    0.000000
      5          6           0        1.074229   -0.534917   -0.000000
      6          1           0        2.148912   -0.518786   -0.000000
      7          6           0       -0.001331    1.824724   -0.000000
      8          1           0       -0.674360    2.662036    0.000000
 ---------------------------------------------------------------------
 Rotational constants (GHZ):     14.0986195      5.9550896      4.1866839
 Leave Link  202 at Tue Jul 19 14:31:29 2016, MaxMem=    33554432 cpu:         0.0
 (Enter /home/proyectos/fulerenos/M3C-v2.0/M3C-deps_CCC/g09-AM64L-G09RevC.01/l301.exe)
 Standard basis: 6-311++G(3df,2p) (5D, 7F)
 Ernie: Thresh=  0.10000D-02 Tol=  0.10000D-05 Strict=F.
 There are   179 symmetry adapted cartesian basis functions of A'  symmetry.
 There are    76 symmetry adapted cartesian basis functions of A"  symmetry.
 There are   154 symmetry adapted basis functions of A'  symmetry.
 There are    71 symmetry adapted basis functions of A"  symmetry.
   225 basis functions,   326 primitive gaussians,   255 cartesian basis functions
    18 alpha electrons       15 beta electrons
       nuclear repulsion energy       128.9291873009 Hartrees.
 IExCor=  402 DFT=T Ex+Corr=B3LYP ExCW=0 ScaHFX=  0.200000
 ScaDFX=  0.800000  0.720000  1.000000  0.810000 ScalE2=  1.000000  1.000000
 IRadAn=      0 IRanWt=     -1 IRanGd=            0 ICorTp=0 IEmpDi=  4
 NAtoms=    8 NActive=    8 NUniq=    8 SFac= 1.00D+00 NAtFMM=   60 NAOKFM=F Big=F
 Integral buffers will be    131072 words long.
 Raffenetti 2 integral format.
 Two-electron integral symmetry is turned on.
 Leave Link  301 at Tue Jul 19 14:31:29 2016, MaxMem=    33554432 cpu:         0.3
 (Enter /home/proyectos/fulerenos/M3C-v2.0/M3C-deps_CCC/g09-AM64L-G09RevC.01/l302.exe)
 NPDir=0 NMtPBC=     1 NCelOv=     1 NCel=       1 NClECP=     1 NCelD=      1
         NCelK=      1 NCelE2=     1 NClLst=     1 CellRange=     0.0.
 One-electron integrals computed using PRISM.
 NBasis=   225 RedAO= T EigKep=  4.45D-06  NBF=   154    71
 NBsUse=   225 1.00D-06 EigRej= -1.00D+00 NBFU=   154    71
 Precomputing XC quadrature grid using
 IXCGrd= 4 IRadAn=           0 IRanWt=          -1 IRanGd=           0 AccXCQ= 0.00D+00.
 Generated NRdTot=       0 NPtTot=           0 NUsed=           0 NTot=          32
 NSgBfM=   255   255   255   255   255 MxSgAt=     8 MxSgA2=     8.
 Leave Link  302 at Tue Jul 19 14:31:30 2016, MaxMem=    33554432 cpu:         0.6
 (Enter /home/proyectos/fulerenos/M3C-v2.0/M3C-deps_CCC/g09-AM64L-G09RevC.01/l303.exe)
 DipDrv:  MaxL=1.
 Leave Link  303 at Tue Jul 19 14:31:30 2016, MaxMem=    33554432 cpu:         0.1
 (Enter /home/proyectos/fulerenos/M3C-v2.0/M3C-deps_CCC/g09-AM64L-G09RevC.01/l401.exe)
 ExpMin= 3.60D-02 ExpMax= 4.56D+03 ExpMxC= 6.82D+02 IAcc=3 IRadAn=         5 AccDes= 0.00D+00
 Harris functional with IExCor=  402 and IRadAn=       5 diagonalized for initial guess.
 HarFok:  IExCor=  402 AccDes= 0.00D+00 IRadAn=         5 IDoV= 1 UseB2=F ITyADJ=14
 ICtDFT=  3500011 ScaDFX=  1.000000  1.000000  1.000000  1.000000
 FoFCou: FMM=F IPFlag=           0 FMFlag=      100000 FMFlg1=           0
         NFxFlg=           0 DoJE=T BraDBF=F KetDBF=T FulRan=T
         wScrn=  0.000000 ICntrl=     500 IOpCl=  0 I1Cent=   200000004 NGrid=           0
         NMat0=    1 NMatS0=      1 NMatT0=    0 NMatD0=    1 NMtDS0=    0 NMtDT0=    0
 Petite list used in FoFCou.
 Harris En= -192.039275274506    
 JPrj=0 DoOrth=F DoCkMO=F.
 Initial guess orbital symmetries:
 Alpha Orbitals:
       Occupied  (A') (A') (A') (A') (A') (A') (A') (A') (A') (A')
                 (A') (A') (A') (A") (A") (A') (A') (A")
       Virtual   (A") (A") (A') (A') (A') (A') (A') (A') (A") (A')
                 (A") (A') (A") (A') (A') (A') (A') (A') (A") (A')
                 (A') (A") (A') (A') (A') (A') (A') (A') (A') (A')
                 (A") (A') (A') (A") (A') (A') (A') (A') (A") (A')
                 (A") (A") (A') (A") (A') (A') (A') (A') (A") (A")
                 (A') (A') (A") (A") (A') (A') (A') (A') (A') (A")
                 (A') (A") (A') (A') (A") (A") (A') (A') (A") (A')
                 (A') (A') (A') (A') (A") (A') (A') (A') (A") (A')
                 (A') (A") (A') (A') (A') (A") (A') (A') (A") (A')
                 (A") (A') (A') (A") (A') (A") (A") (A') (A') (A')
                 (A') (A') (A') (A") (A") (A') (A") (A') (A") (A')
                 (A') (A') (A') (A") (A') (A') (A") (A') (A") (A")
                 (A') (A') (A") (A") (A") (A') (A') (A') (A") (A')
                 (A") (A') (A") (A') (A") (A") (A') (A') (A') (A")
                 (A') (A") (A') (A') (A') (A') (A') (A') (A') (A')
                 (A") (A') (A') (A') (A") (A') (A') (A") (A") (A')
                 (A') (A") (A') (A") (A") (A') (A") (A') (A') (A')
                 (A') (A") (A') (A') (A') (A') (A') (A") (A") (A')
                 (A") (A") (A') (A") (A') (A") (A') (A') (A") (A")
                 (A') (A") (A') (A') (A') (A") (A') (A') (A') (A')
                 (A') (A') (A') (A') (A') (A') (A')
 Beta  Orbitals:
       Occupied  (A') (A') (A') (A') (A') (A') (A') (A') (A') (A')
                 (A') (A') (A') (A") (A")
       Virtual   (A') (A') (A") (A") (A") (A') (A') (A') (A') (A')
                 (A') (A") (A') (A") (A') (A") (A') (A') (A') (A')
                 (A') (A") (A') (A') (A") (A') (A') (A') (A') (A')
                 (A') (A') (A') (A") (A') (A') (A") (A') (A') (A')
                 (A') (A") (A') (A") (A") (A') (A") (A') (A') (A')
                 (A') (A") (A") (A') (A') (A") (A") (A') (A') (A')
                 (A') (A') (A") (A') (A") (A') (A') (A") (A") (A')
                 (A') (A") (A') (A') (A') (A') (A') (A") (A') (A')
                 (A') (A") (A') (A') (A") (A') (A') (A') (A") (A')
                 (A') (A") (A') (A") (A') (A') (A") (A') (A") (A")
                 (A') (A') (A') (A') (A') (A') (A") (A") (A') (A")
                 (A') (A") (A') (A') (A') (A') (A") (A') (A') (A")
                 (A') (A") (A") (A') (A') (A") (A") (A") (A') (A')
                 (A') (A") (A') (A") (A') (A") (A') (A") (A") (A')
                 (A') (A') (A") (A') (A") (A') (A') (A') (A') (A')
                 (A') (A') (A') (A") (A') (A') (A') (A") (A') (A')
                 (A") (A") (A') (A') (A") (A') (A") (A") (A') (A")
                 (A') (A') (A') (A') (A") (A') (A') (A') (A') (A')
                 (A") (A") (A') (A") (A") (A') (A") (A') (A") (A')
                 (A') (A") (A") (A') (A") (A') (A') (A') (A") (A')
                 (A') (A') (A') (A') (A') (A') (A') (A') (A') (A')
 The electronic state of the initial guess is 4-A".
 Initial guess <Sx>= 0.0000 <Sy>= 0.0000 <Sz>= 1.5000 <S**2>= 3.7500 S= 1.5000
 Leave Link  401 at Tue Jul 19 14:31:40 2016, MaxMem=    33554432 cpu:         6.6
 (Enter /home/proyectos/fulerenos/M3C-v2.0/M3C-deps_CCC/g09-AM64L-G09RevC.01/l502.exe)
 UHF open shell SCF:
 Using DIIS extrapolation, IDIIS=  1040.
 Integral symmetry usage will be decided dynamically.
 IVT=      217056 IEndB=      217056 NGot=    33554432 MDV=    33419297
 LenX=    33419297 LenY=    33353831
 Requested convergence on RMS density matrix=1.00D-08 within 128 cycles.
 Requested convergence on MAX density matrix=1.00D-06.
 Requested convergence on             energy=1.00D-06.
 No special actions if energy rises.
 Fock matrices will be formed incrementally for  20 cycles.

 Cycle   1  Pass 1  IDiag  1:
 FoFJK:  IHMeth= 1 ICntrl=       0 DoSepK=F KAlg= 0 I1Cent=   0 FoldK=F
 IRaf= 990000000 NMat=   1 IRICut=       1 DoRegI=T DoRafI=F ISym2E= 1.
 FoFCou: FMM=F IPFlag=           0 FMFlag=      100000 FMFlg1=           0
         NFxFlg=           0 DoJE=F BraDBF=F KetDBF=F FulRan=T
         wScrn=  0.000000 ICntrl=       0 IOpCl=  1 I1Cent=           0 NGrid=           0
         NMat0=    1 NMatS0=      1 NMatT0=    0 NMatD0=    1 NMtDS0=    0 NMtDT0=    0
 Petite list used in FoFCou.
 E= -191.991295354941    
 DIIS: error= 2.16D-02 at cycle   1 NSaved=   1.
 NSaved= 1 IEnMin= 1 EnMin= -191.991295354941     IErMin= 1 ErrMin= 2.16D-02
 ErrMax= 2.16D-02  0.00D+00 EMaxC= 1.00D-01 BMatC= 4.05D-01 BMatP= 4.05D-01
 IDIUse=3 WtCom= 7.84D-01 WtEn= 2.16D-01
 Coeff-Com:  0.100D+01
 Coeff-En:   0.100D+01
 Coeff:      0.100D+01
 Gap=     0.140 Goal=   None    Shift=    0.000
 Gap=     0.088 Goal=   None    Shift=    0.000
 GapD=    0.088 DampG=0.500 DampE=0.500 DampFc=0.2500 IDamp=-1.
 Damping current iteration by 2.50D-01
 RMSDP=5.30D-03 MaxDP=2.62D-01              OVMax= 1.81D-01

 Cycle   2  Pass 1  IDiag  1:
 RMSU=  1.27D-03    CP:  9.77D-01
 E= -192.025629924273     Delta-E=       -0.034334569332 Rises=F Damp=T
 DIIS: error= 1.24D-02 at cycle   2 NSaved=   2.
 NSaved= 2 IEnMin= 2 EnMin= -192.025629924273     IErMin= 2 ErrMin= 1.24D-02
 ErrMax= 1.24D-02  0.00D+00 EMaxC= 1.00D-01 BMatC= 1.24D-01 BMatP= 4.05D-01
 IDIUse=3 WtCom= 8.76D-01 WtEn= 1.24D-01
 Coeff-Com: -0.986D+00 0.199D+01
 Coeff-En:   0.000D+00 0.100D+01
 Coeff:     -0.864D+00 0.186D+01
 Gap=     0.181 Goal=   None    Shift=    0.000
 Gap=     0.133 Goal=   None    Shift=    0.000
 RMSDP=2.26D-03 MaxDP=1.32D-01 DE=-3.43D-02 OVMax= 1.22D-01

 Cycle   3  Pass 1  IDiag  1:
 RMSU=  1.72D-03    CP:  9.03D-01  1.66D+00
 E= -192.086109281244     Delta-E=       -0.060479356972 Rises=F Damp=F
 DIIS: error= 7.51D-03 at cycle   3 NSaved=   3.
 NSaved= 3 IEnMin= 3 EnMin= -192.086109281244     IErMin= 3 ErrMin= 7.51D-03
 ErrMax= 7.51D-03  0.00D+00 EMaxC= 1.00D-01 BMatC= 2.38D-02 BMatP= 1.24D-01
 IDIUse=3 WtCom= 9.25D-01 WtEn= 7.51D-02
 Coeff-Com: -0.533D+00 0.962D+00 0.572D+00
 Coeff-En:   0.000D+00 0.000D+00 0.100D+01
 Coeff:     -0.493D+00 0.889D+00 0.604D+00
 Gap=     0.174 Goal=   None    Shift=    0.000
 Gap=     0.125 Goal=   None    Shift=    0.000
 RMSDP=8.59D-04 MaxDP=6.09D-02 DE=-6.05D-02 OVMax= 3.82D-02

 Cycle   4  Pass 1  IDiag  1:
 RMSU=  8.14D-04    CP:  9.02D-01  1.60D+00  8.50D-01
 E= -192.091152621462     Delta-E=       -0.005043340218 Rises=F Damp=F
 DIIS: error= 3.84D-03 at cycle   4 NSaved=   4.
 NSaved= 4 IEnMin= 4 EnMin= -192.091152621462     IErMin= 4 ErrMin= 3.84D-03
 ErrMax= 3.84D-03  0.00D+00 EMaxC= 1.00D-01 BMatC= 4.76D-03 BMatP= 2.38D-02
 IDIUse=3 WtCom= 9.62D-01 WtEn= 3.84D-02
 Coeff-Com: -0.101D+00 0.135D+00 0.324D+00 0.642D+00
 Coeff-En:   0.000D+00 0.000D+00 0.144D+00 0.856D+00
 Coeff:     -0.967D-01 0.130D+00 0.317D+00 0.650D+00
 Gap=     0.178 Goal=   None    Shift=    0.000
 Gap=     0.127 Goal=   None    Shift=    0.000
 RMSDP=3.19D-04 MaxDP=2.03D-02 DE=-5.04D-03 OVMax= 1.49D-02

 Cycle   5  Pass 1  IDiag  1:
 RMSU=  2.14D-04    CP:  9.02D-01  1.68D+00  8.64D-01  7.44D-01
 E= -192.092427248834     Delta-E=       -0.001274627371 Rises=F Damp=F
 DIIS: error= 6.60D-04 at cycle   5 NSaved=   5.
 NSaved= 5 IEnMin= 5 EnMin= -192.092427248834     IErMin= 5 ErrMin= 6.60D-04
 ErrMax= 6.60D-04  0.00D+00 EMaxC= 1.00D-01 BMatC= 1.23D-04 BMatP= 4.76D-03
 IDIUse=3 WtCom= 9.93D-01 WtEn= 6.60D-03
 Coeff-Com:  0.113D-01-0.321D-01 0.188D-01 0.135D+00 0.867D+00
 Coeff-En:   0.000D+00 0.000D+00 0.000D+00 0.000D+00 0.100D+01
 Coeff:      0.113D-01-0.319D-01 0.187D-01 0.134D+00 0.868D+00
 Gap=     0.178 Goal=   None    Shift=    0.000
 Gap=     0.127 Goal=   None    Shift=    0.000
 RMSDP=8.63D-05 MaxDP=5.21D-03 DE=-1.27D-03 OVMax= 7.87D-03

 Cycle   6  Pass 1  IDiag  1:
 RMSU=  7.65D-05    CP:  9.02D-01  1.67D+00  8.67D-01  7.88D-01  1.02D+00
 E= -192.092501571852     Delta-E=       -0.000074323018 Rises=F Damp=F
 DIIS: error= 3.95D-04 at cycle   6 NSaved=   6.
 NSaved= 6 IEnMin= 6 EnMin= -192.092501571852     IErMin= 6 ErrMin= 3.95D-04
 ErrMax= 3.95D-04  0.00D+00 EMaxC= 1.00D-01 BMatC= 4.85D-05 BMatP= 1.23D-04
 IDIUse=3 WtCom= 9.96D-01 WtEn= 3.95D-03
 Coeff-Com:  0.181D-01-0.325D-01-0.299D-01-0.135D-01 0.388D+00 0.669D+00
 Coeff-En:   0.000D+00 0.000D+00 0.000D+00 0.000D+00 0.000D+00 0.100D+01
 Coeff:      0.180D-01-0.324D-01-0.298D-01-0.134D-01 0.387D+00 0.671D+00
 Gap=     0.178 Goal=   None    Shift=    0.000
 Gap=     0.127 Goal=   None    Shift=    0.000
 RMSDP=4.54D-05 MaxDP=2.39D-03 DE=-7.43D-05 OVMax= 5.10D-03

 Cycle   7  Pass 1  IDiag  1:
 RMSU=  3.44D-05    CP:  9.03D-01  1.67D+00  8.62D-01  7.82D-01  1.12D+00
                    CP:  1.12D+00
 E= -192.092528174133     Delta-E=       -0.000026602281 Rises=F Damp=F
 DIIS: error= 2.49D-04 at cycle   7 NSaved=   7.
 NSaved= 7 IEnMin= 7 EnMin= -192.092528174133     IErMin= 7 ErrMin= 2.49D-04
 ErrMax= 2.49D-04  0.00D+00 EMaxC= 1.00D-01 BMatC= 2.44D-05 BMatP= 4.85D-05
 IDIUse=3 WtCom= 9.98D-01 WtEn= 2.49D-03
 Coeff-Com:  0.670D-02-0.645D-02-0.279D-01-0.709D-01-0.144D+00 0.461D+00
 Coeff-Com:  0.782D+00
 Coeff-En:   0.000D+00 0.000D+00 0.000D+00 0.000D+00 0.000D+00 0.000D+00
 Coeff-En:   0.100D+01
 Coeff:      0.668D-02-0.644D-02-0.278D-01-0.707D-01-0.144D+00 0.460D+00
 Coeff:      0.782D+00
 Gap=     0.179 Goal=   None    Shift=    0.000
 Gap=     0.127 Goal=   None    Shift=    0.000
 RMSDP=3.35D-05 MaxDP=1.41D-03 DE=-2.66D-05 OVMax= 5.40D-03

 Cycle   8  Pass 1  IDiag  1:
 RMSU=  2.23D-05    CP:  9.04D-01  1.67D+00  8.60D-01  7.88D-01  1.19D+00
                    CP:  1.35D+00  1.04D+00
 E= -192.092547711492     Delta-E=       -0.000019537359 Rises=F Damp=F
 DIIS: error= 1.39D-04 at cycle   8 NSaved=   8.
 NSaved= 8 IEnMin= 8 EnMin= -192.092547711492     IErMin= 8 ErrMin= 1.39D-04
 ErrMax= 1.39D-04  0.00D+00 EMaxC= 1.00D-01 BMatC= 4.24D-06 BMatP= 2.44D-05
 IDIUse=3 WtCom= 9.99D-01 WtEn= 1.39D-03
 Coeff-Com: -0.199D-02 0.562D-02-0.296D-02-0.234D-01-0.146D+00-0.121D-01
 Coeff-Com:  0.296D+00 0.886D+00
 Coeff-En:   0.000D+00 0.000D+00 0.000D+00 0.000D+00 0.000D+00 0.000D+00
 Coeff-En:   0.000D+00 0.100D+01
 Coeff:     -0.198D-02 0.562D-02-0.295D-02-0.234D-01-0.146D+00-0.120D-01
 Coeff:      0.295D+00 0.886D+00
 Gap=     0.179 Goal=   None    Shift=    0.000
 Gap=     0.127 Goal=   None    Shift=    0.000
 RMSDP=2.08D-05 MaxDP=1.47D-03 DE=-1.95D-05 OVMax= 3.30D-03

 Cycle   9  Pass 1  IDiag  1:
 RMSU=  1.07D-05    CP:  9.04D-01  1.67D+00  8.59D-01  7.80D-01  1.21D+00
                    CP:  1.48D+00  1.36D+00  1.15D+00
 E= -192.092552819890     Delta-E=       -0.000005108398 Rises=F Damp=F
 DIIS: error= 8.40D-05 at cycle   9 NSaved=   9.
 NSaved= 9 IEnMin= 9 EnMin= -192.092552819890     IErMin= 9 ErrMin= 8.40D-05
 ErrMax= 8.40D-05  0.00D+00 EMaxC= 1.00D-01 BMatC= 1.96D-06 BMatP= 4.24D-06
 IDIUse=1 WtCom= 1.00D+00 WtEn= 0.00D+00
 Coeff-Com: -0.402D-02 0.635D-02 0.975D-02 0.129D-01-0.420D-01-0.184D+00
 Coeff-Com: -0.114D+00 0.557D+00 0.758D+00
 Coeff:     -0.402D-02 0.635D-02 0.975D-02 0.129D-01-0.420D-01-0.184D+00
 Coeff:     -0.114D+00 0.557D+00 0.758D+00
 Gap=     0.179 Goal=   None    Shift=    0.000
 Gap=     0.127 Goal=   None    Shift=    0.000
 RMSDP=1.13D-05 MaxDP=4.39D-04 DE=-5.11D-06 OVMax= 2.10D-03

 Cycle  10  Pass 1  IDiag  1:
 RMSU=  5.49D-06    CP:  9.04D-01  1.67D+00  8.58D-01  7.79D-01  1.23D+00
                    CP:  1.52D+00  1.49D+00  1.44D+00  1.15D+00
 E= -192.092554419246     Delta-E=       -0.000001599356 Rises=F Damp=F
 DIIS: error= 3.80D-05 at cycle  10 NSaved=  10.
 NSaved=10 IEnMin=10 EnMin= -192.092554419246     IErMin=10 ErrMin= 3.80D-05
 ErrMax= 3.80D-05  0.00D+00 EMaxC= 1.00D-01 BMatC= 3.96D-07 BMatP= 1.96D-06
 IDIUse=1 WtCom= 1.00D+00 WtEn= 0.00D+00
 Coeff-Com: -0.161D-02 0.206D-02 0.580D-02 0.115D-01 0.598D-02-0.102D+00
 Coeff-Com: -0.127D+00 0.161D+00 0.406D+00 0.639D+00
 Coeff:     -0.161D-02 0.206D-02 0.580D-02 0.115D-01 0.598D-02-0.102D+00
 Coeff:     -0.127D+00 0.161D+00 0.406D+00 0.639D+00
 Gap=     0.179 Goal=   None    Shift=    0.000
 Gap=     0.127 Goal=   None    Shift=    0.000
 RMSDP=5.19D-06 MaxDP=3.09D-04 DE=-1.60D-06 OVMax= 7.36D-04

 Cycle  11  Pass 1  IDiag  1:
 RMSU=  2.94D-06    CP:  9.04D-01  1.67D+00  8.58D-01  7.77D-01  1.24D+00
                    CP:  1.54D+00  1.53D+00  1.54D+00  1.33D+00  9.20D-01
 E= -192.092554606630     Delta-E=       -0.000000187383 Rises=F Damp=F
 DIIS: error= 2.05D-05 at cycle  11 NSaved=  11.
 NSaved=11 IEnMin=11 EnMin= -192.092554606630     IErMin=11 ErrMin= 2.05D-05
 ErrMax= 2.05D-05  0.00D+00 EMaxC= 1.00D-01 BMatC= 1.28D-07 BMatP= 3.96D-07
 IDIUse=1 WtCom= 1.00D+00 WtEn= 0.00D+00
 Coeff-Com:  0.173D-03-0.507D-03 0.687D-03 0.286D-02 0.142D-01-0.621D-02
 Coeff-Com: -0.423D-01-0.619D-01 0.214D-01 0.412D+00 0.660D+00
 Coeff:      0.173D-03-0.507D-03 0.687D-03 0.286D-02 0.142D-01-0.621D-02
 Coeff:     -0.423D-01-0.619D-01 0.214D-01 0.412D+00 0.660D+00
 Gap=     0.179 Goal=   None    Shift=    0.000
 Gap=     0.127 Goal=   None    Shift=    0.000
 RMSDP=1.82D-06 MaxDP=7.66D-05 DE=-1.87D-07 OVMax= 2.96D-04

 Cycle  12  Pass 1  IDiag  1:
 RMSU=  1.18D-06    CP:  9.04D-01  1.67D+00  8.58D-01  7.77D-01  1.24D+00
                    CP:  1.54D+00  1.54D+00  1.57D+00  1.34D+00  1.08D+00
                    CP:  9.01D-01
 E= -192.092554659142     Delta-E=       -0.000000052513 Rises=F Damp=F
 DIIS: error= 3.87D-06 at cycle  12 NSaved=  12.
 NSaved=12 IEnMin=12 EnMin= -192.092554659142     IErMin=12 ErrMin= 3.87D-06
 ErrMax= 3.87D-06  0.00D+00 EMaxC= 1.00D-01 BMatC= 4.97D-09 BMatP= 1.28D-07
 IDIUse=1 WtCom= 1.00D+00 WtEn= 0.00D+00
 Coeff-Com:  0.240D-03-0.327D-03-0.776D-03-0.132D-02 0.458D-03 0.131D-01
 Coeff-Com:  0.177D-01-0.280D-01-0.582D-01-0.904D-01 0.680D-01 0.108D+01
 Coeff:      0.240D-03-0.327D-03-0.776D-03-0.132D-02 0.458D-03 0.131D-01
 Coeff:      0.177D-01-0.280D-01-0.582D-01-0.904D-01 0.680D-01 0.108D+01
 Gap=     0.179 Goal=   None    Shift=    0.000
 Gap=     0.127 Goal=   None    Shift=    0.000
 RMSDP=7.27D-07 MaxDP=4.70D-05 DE=-5.25D-08 OVMax= 7.02D-05

 Cycle  13  Pass 1  IDiag  1:
 RMSU=  4.64D-07    CP:  9.04D-01  1.67D+00  8.58D-01  7.77D-01  1.23D+00
                    CP:  1.54D+00  1.54D+00  1.57D+00  1.37D+00  1.13D+00
                    CP:  1.01D+00  1.20D+00
 E= -192.092554662990     Delta-E=       -0.000000003848 Rises=F Damp=F
 DIIS: error= 1.06D-06 at cycle  13 NSaved=  13.
 NSaved=13 IEnMin=13 EnMin= -192.092554662990     IErMin=13 ErrMin= 1.06D-06
 ErrMax= 1.06D-06  0.00D+00 EMaxC= 1.00D-01 BMatC= 2.66D-10 BMatP= 4.97D-09
 IDIUse=1 WtCom= 1.00D+00 WtEn= 0.00D+00
 Coeff-Com: -0.136D-04 0.351D-04-0.124D-03-0.280D-03-0.794D-03 0.146D-02
 Coeff-Com:  0.387D-02 0.185D-02-0.462D-02-0.352D-01-0.447D-01 0.793D-01
 Coeff-Com:  0.999D+00
 Coeff:     -0.136D-04 0.351D-04-0.124D-03-0.280D-03-0.794D-03 0.146D-02
 Coeff:      0.387D-02 0.185D-02-0.462D-02-0.352D-01-0.447D-01 0.793D-01
 Coeff:      0.999D+00
 Gap=     0.179 Goal=   None    Shift=    0.000
 Gap=     0.127 Goal=   None    Shift=    0.000
 RMSDP=2.11D-07 MaxDP=1.14D-05 DE=-3.85D-09 OVMax= 1.08D-05

 Cycle  14  Pass 1  IDiag  1:
 RMSU=  1.33D-07    CP:  9.04D-01  1.67D+00  8.58D-01  7.78D-01  1.23D+00
                    CP:  1.54D+00  1.54D+00  1.57D+00  1.37D+00  1.13D+00
                    CP:  1.02D+00  1.27D+00  1.13D+00
 E= -192.092554663192     Delta-E=       -0.000000000202 Rises=F Damp=F
 DIIS: error= 2.69D-07 at cycle  14 NSaved=  14.
 NSaved=14 IEnMin=14 EnMin= -192.092554663192     IErMin=14 ErrMin= 2.69D-07
 ErrMax= 2.69D-07  0.00D+00 EMaxC= 1.00D-01 BMatC= 2.77D-11 BMatP= 2.66D-10
 IDIUse=1 WtCom= 1.00D+00 WtEn= 0.00D+00
 Coeff-Com: -0.282D-04 0.393D-04 0.556D-04 0.974D-04-0.900D-04-0.108D-02
 Coeff-Com: -0.138D-02 0.284D-02 0.532D-02 0.523D-02-0.150D-01-0.912D-01
 Coeff-Com:  0.137D+00 0.958D+00
 Coeff:     -0.282D-04 0.393D-04 0.556D-04 0.974D-04-0.900D-04-0.108D-02
 Coeff:     -0.138D-02 0.284D-02 0.532D-02 0.523D-02-0.150D-01-0.912D-01
 Coeff:      0.137D+00 0.958D+00
 Gap=     0.179 Goal=   None    Shift=    0.000
 Gap=     0.127 Goal=   None    Shift=    0.000
 RMSDP=6.97D-08 MaxDP=4.24D-06 DE=-2.02D-10 OVMax= 2.78D-06

 Cycle  15  Pass 1  IDiag  1:
 RMSU=  2.78D-08    CP:  9.04D-01  1.67D+00  8.58D-01  7.78D-01  1.23D+00
                    CP:  1.54D+00  1.54D+00  1.57D+00  1.37D+00  1.13D+00
                    CP:  1.01D+00  1.28D+00  1.23D+00  1.01D+00
 E= -192.092554663204     Delta-E=       -0.000000000012 Rises=F Damp=F
 DIIS: error= 6.35D-08 at cycle  15 NSaved=  15.
 NSaved=15 IEnMin=15 EnMin= -192.092554663204     IErMin=15 ErrMin= 6.35D-08
 ErrMax= 6.35D-08  0.00D+00 EMaxC= 1.00D-01 BMatC= 1.56D-12 BMatP= 2.77D-11
 IDIUse=1 WtCom= 1.00D+00 WtEn= 0.00D+00
 Coeff-Com: -0.111D-05 0.550D-06 0.149D-04 0.276D-04 0.543D-04-0.207D-03
 Coeff-Com: -0.336D-03 0.570D-04 0.754D-03 0.223D-02 0.273D-02-0.105D-01
 Coeff-Com: -0.692D-01 0.653D-01 0.101D+01
 Coeff:     -0.111D-05 0.550D-06 0.149D-04 0.276D-04 0.543D-04-0.207D-03
 Coeff:     -0.336D-03 0.570D-04 0.754D-03 0.223D-02 0.273D-02-0.105D-01
 Coeff:     -0.692D-01 0.653D-01 0.101D+01
 Gap=     0.179 Goal=   None    Shift=    0.000
 Gap=     0.127 Goal=   None    Shift=    0.000
 RMSDP=1.39D-08 MaxDP=8.15D-07 DE=-1.21D-11 OVMax= 6.03D-07

 Cycle  16  Pass 1  IDiag  1:
 RMSU=  6.62D-09    CP:  9.04D-01  1.67D+00  8.58D-01  7.78D-01  1.23D+00
                    CP:  1.54D+00  1.54D+00  1.57D+00  1.37D+00  1.13D+00
                    CP:  1.01D+00  1.28D+00  1.23D+00  1.07D+00  1.09D+00
 E= -192.092554663208     Delta-E=       -0.000000000004 Rises=F Damp=F
 DIIS: error= 7.33D-09 at cycle  16 NSaved=  16.
 NSaved=16 IEnMin=16 EnMin= -192.092554663208     IErMin=16 ErrMin= 7.33D-09
 ErrMax= 7.33D-09  0.00D+00 EMaxC= 1.00D-01 BMatC= 4.73D-14 BMatP= 1.56D-12
 IDIUse=1 WtCom= 1.00D+00 WtEn= 0.00D+00
 Coeff-Com:  0.867D-06-0.125D-05-0.671D-06-0.111D-05 0.906D-05 0.200D-04
 Coeff-Com:  0.226D-04-0.879D-04-0.168D-03 0.133D-04 0.870D-03 0.259D-02
 Coeff-Com: -0.109D-01-0.327D-01 0.641D-01 0.976D+00
 Coeff:      0.867D-06-0.125D-05-0.671D-06-0.111D-05 0.906D-05 0.200D-04
 Coeff:      0.226D-04-0.879D-04-0.168D-03 0.133D-04 0.870D-03 0.259D-02
 Coeff:     -0.109D-01-0.327D-01 0.641D-01 0.976D+00
 Gap=     0.179 Goal=   None    Shift=    0.000
 Gap=     0.127 Goal=   None    Shift=    0.000
 RMSDP=2.75D-09 MaxDP=1.88D-07 DE=-3.98D-12 OVMax= 9.72D-08

 SCF Done:  E(UB3LYP) =  -192.092554663     A.U. after   16 cycles
            NFock= 16  Conv=0.27D-08     -V/T= 2.0045
 <Sx>= 0.0000 <Sy>= 0.0000 <Sz>= 1.5000 <S**2>= 3.7780 S= 1.5070
 <L.S>= 0.000000000000E+00
 KE= 1.912249062748D+02 PE=-7.032952603602D+02 EE= 1.910486121214D+02
 Annihilation of the first spin contaminant:
 S**2 before annihilation     3.7780,   after     3.7503
 Leave Link  502 at Tue Jul 19 14:43:35 2016, MaxMem=    33554432 cpu:       695.0
 (Enter /home/proyectos/fulerenos/M3C-v2.0/M3C-deps_CCC/g09-AM64L-G09RevC.01/l801.exe)
 DoSCS=F DFT=T ScalE2(SS,OS)=  1.000000  1.000000
 Range of M.O.s used for correlation:     1   225
 NBasis=   225 NAE=    18 NBE=    15 NFC=     0 NFV=     0
 NROrb=    225 NOA=    18 NOB=    15 NVA=   207 NVB=   210

 **** Warning!!: The largest alpha MO coefficient is  0.20035761D+03


 **** Warning!!: The largest beta MO coefficient is  0.17546923D+03

 Leave Link  801 at Tue Jul 19 14:43:36 2016, MaxMem=    33554432 cpu:         0.1
 (Enter /home/proyectos/fulerenos/M3C-v2.0/M3C-deps_CCC/g09-AM64L-G09RevC.01/l1101.exe)
 Using compressed storage, NAtomX=     8.
 Will process      9 centers per pass.
 Leave Link 1101 at Tue Jul 19 14:43:36 2016, MaxMem=    33554432 cpu:         0.6
 (Enter /home/proyectos/fulerenos/M3C-v2.0/M3C-deps_CCC/g09-AM64L-G09RevC.01/l1102.exe)
 Symmetrizing basis deriv contribution to polar:
 IMax=3 JMax=2 DiffMx= 0.00D+00
 Leave Link 1102 at Tue Jul 19 14:43:36 2016, MaxMem=    33554432 cpu:         0.1
 (Enter /home/proyectos/fulerenos/M3C-v2.0/M3C-deps_CCC/g09-AM64L-G09RevC.01/l1110.exe)
 Forming Gx(P) for the SCF density, NAtomX=     8.
 Integral derivatives from FoFJK, PRISM(SPDF).
 Do as many integral derivatives as possible in FoFJK.
 G2DrvN: MDV=      33554264.
 G2DrvN: will do     9 centers at a time, making    1 passes.
 Calling FoFCou, ICntrl=  3107 FMM=F I1Cent=   0 AccDes= 0.00D+00.
 FoFJK:  IHMeth= 1 ICntrl=    3107 DoSepK=F KAlg= 0 I1Cent=   0 FoldK=F
 IRaf=         0 NMat=   1 IRICut=       1 DoRegI=T DoRafI=F ISym2E= 1.
 FoFCou: FMM=F IPFlag=           0 FMFlag=      100000 FMFlg1=           0
         NFxFlg=           0 DoJE=F BraDBF=F KetDBF=F FulRan=T
         wScrn=  0.000000 ICntrl=    3107 IOpCl=  1 I1Cent=           0 NGrid=           0
         NMat0=    1 NMatS0=      1 NMatT0=    0 NMatD0=    1 NMtDS0=    0 NMtDT0=    0
 Petite list used in FoFCou.
 End of G2Drv F.D. properties file   721 does not exist.
 End of G2Drv F.D. properties file   722 does not exist.
 End of G2Drv F.D. properties file   788 does not exist.
 Leave Link 1110 at Tue Jul 19 14:54:10 2016, MaxMem=    33554432 cpu:       630.9
 (Enter /home/proyectos/fulerenos/M3C-v2.0/M3C-deps_CCC/g09-AM64L-G09RevC.01/l1002.exe)
 Minotr:  UHF open shell wavefunction.
          IDoAtm=11111111
          Direct CPHF calculation.
          Differentiating once with respect to electric field.
                with respect to dipole field.
          Differentiating once with respect to nuclear coordinates.
          Using symmetry in CPHF.
          Requested convergence is 1.0D-08 RMS, and 1.0D-07 maximum.
          Secondary convergence is 1.0D-12 RMS, and 1.0D-12 maximum.
          NewPWx=T KeepS1=F KeepF1=F KeepIn=T MapXYZ=F SortEE=F KeepMc=T.
          MDV=      33553898 using IRadAn=       2.
 Generate precomputed XC quadrature information.
          Solving linear equations simultaneously, MaxMat=       0.
 FoFJK:  IHMeth= 1 ICntrl=       0 DoSepK=F KAlg= 0 I1Cent=   0 FoldK=F
 IRaf= 990000000 NMat=  27 IRICut=      67 DoRegI=T DoRafI=T ISym2E= 2.
 FoFCou: FMM=F IPFlag=           0 FMFlag=      100000 FMFlg1=           0
         NFxFlg=           0 DoJE=F BraDBF=F KetDBF=F FulRan=T
         wScrn=  0.000000 ICntrl=       0 IOpCl=  1 I1Cent=           0 NGrid=           0
         NMat0=   27 NMatS0=     27 NMatT0=    0 NMatD0=   27 NMtDS0=    0 NMtDT0=    0
 Integrals replicated using symmetry in FoFCou.
          There are    27 degrees of freedom in the 1st order CPHF.  IDoFFX=6 NUNeed=     3.
     24 vectors produced by pass  0 Test12= 2.55D-14 3.70D-09 XBig12= 2.17D+02 8.73D+00.
 AX will form    24 AO Fock derivatives at one time.
     24 vectors produced by pass  1 Test12= 2.55D-14 3.70D-09 XBig12= 7.21D+01 2.16D+00.
     24 vectors produced by pass  2 Test12= 2.55D-14 3.70D-09 XBig12= 1.99D+00 2.99D-01.
     24 vectors produced by pass  3 Test12= 2.55D-14 3.70D-09 XBig12= 2.43D-02 2.67D-02.
     24 vectors produced by pass  4 Test12= 2.55D-14 3.70D-09 XBig12= 1.58D-04 1.87D-03.
     24 vectors produced by pass  5 Test12= 2.55D-14 3.70D-09 XBig12= 1.20D-06 1.36D-04.
     24 vectors produced by pass  6 Test12= 2.55D-14 3.70D-09 XBig12= 7.65D-09 1.75D-05.
     12 vectors produced by pass  7 Test12= 2.55D-14 3.70D-09 XBig12= 3.34D-11 9.31D-07.
      6 vectors produced by pass  8 Test12= 2.55D-14 3.70D-09 XBig12= 6.42D-13 2.19D-07.
      4 vectors produced by pass  9 Test12= 2.55D-14 3.70D-09 XBig12= 1.49D-13 8.61D-08.
      3 vectors produced by pass 10 Test12= 2.55D-14 3.70D-09 XBig12= 2.20D-15 1.03D-08.
 InvSVY:  IOpt=1 It=  1 EMax= 7.11D-15
 Solved reduced A of dimension   193 with    27 vectors.
 FullF1:  Do perturbations    1 to     3.
 Isotropic polarizability for W=    0.000000       58.73 Bohr**3.
 End of Minotr F.D. properties file   721 does not exist.
 End of Minotr F.D. properties file   722 does not exist.
 End of Minotr F.D. properties file   788 does not exist.
 Leave Link 1002 at Tue Jul 19 15:20:38 2016, MaxMem=    33554432 cpu:      1565.8
 (Enter /home/proyectos/fulerenos/M3C-v2.0/M3C-deps_CCC/g09-AM64L-G09RevC.01/l601.exe)
 Copying SCF densities to generalized density rwf, IOpCl= 1 IROHF=0.

 **********************************************************************

            Population analysis using the SCF density.

 **********************************************************************

 Orbital symmetries:
 Alpha Orbitals:
       Occupied  (A') (A') (A') (A') (A') (A') (A') (A') (A') (A')
                 (A') (A') (A') (A") (A') (A") (A') (A")
       Virtual   (A") (A') (A') (A') (A") (A') (A') (A') (A") (A')
                 (A") (A') (A") (A') (A') (A') (A') (A") (A') (A')
                 (A") (A') (A') (A') (A') (A') (A') (A') (A') (A")
                 (A') (A') (A') (A") (A') (A') (A') (A') (A") (A')
                 (A") (A') (A") (A') (A") (A') (A') (A") (A') (A')
                 (A") (A') (A") (A") (A') (A') (A') (A") (A') (A')
                 (A") (A') (A") (A') (A') (A") (A') (A') (A") (A')
                 (A') (A') (A') (A') (A") (A') (A') (A') (A") (A")
                 (A') (A') (A') (A') (A') (A') (A') (A") (A") (A')
                 (A') (A") (A') (A") (A') (A") (A") (A') (A') (A')
                 (A') (A') (A") (A') (A") (A') (A") (A') (A') (A")
                 (A') (A') (A') (A") (A') (A') (A') (A") (A") (A')
                 (A") (A') (A") (A") (A') (A") (A') (A') (A") (A')
                 (A") (A') (A") (A') (A") (A") (A') (A') (A') (A")
                 (A') (A") (A') (A') (A') (A') (A') (A') (A') (A')
                 (A") (A') (A') (A') (A") (A') (A") (A') (A") (A')
                 (A") (A') (A') (A") (A") (A') (A") (A') (A') (A')
                 (A') (A") (A') (A') (A') (A') (A') (A") (A") (A')
                 (A") (A") (A') (A") (A') (A') (A") (A') (A") (A")
                 (A') (A") (A') (A') (A') (A") (A') (A') (A') (A')
                 (A') (A') (A') (A') (A') (A') (A')
 Beta  Orbitals:
       Occupied  (A') (A') (A') (A') (A') (A') (A') (A') (A') (A')
                 (A') (A') (A') (A") (A")
       Virtual   (A') (A") (A') (A") (A') (A') (A') (A") (A') (A')
                 (A') (A") (A') (A") (A') (A') (A') (A") (A') (A')
                 (A') (A") (A') (A") (A') (A') (A') (A') (A') (A')
                 (A') (A') (A") (A') (A') (A') (A") (A') (A') (A')
                 (A') (A") (A') (A") (A') (A") (A') (A") (A') (A')
                 (A") (A') (A") (A') (A') (A") (A") (A') (A') (A')
                 (A') (A") (A") (A') (A') (A") (A') (A') (A") (A')
                 (A') (A") (A') (A') (A') (A') (A') (A") (A') (A')
                 (A") (A') (A") (A') (A') (A') (A') (A') (A') (A')
                 (A") (A') (A") (A') (A") (A') (A") (A') (A") (A")
                 (A') (A') (A') (A') (A') (A") (A') (A") (A') (A")
                 (A') (A') (A") (A') (A') (A') (A") (A') (A') (A')
                 (A") (A') (A") (A") (A') (A") (A") (A') (A") (A')
                 (A') (A") (A') (A") (A') (A") (A') (A") (A") (A')
                 (A') (A') (A") (A') (A") (A') (A') (A') (A') (A')
                 (A') (A') (A') (A") (A') (A') (A') (A") (A') (A")
                 (A') (A") (A') (A") (A') (A') (A") (A") (A') (A")
                 (A') (A') (A') (A') (A") (A') (A') (A') (A') (A')
                 (A") (A") (A") (A") (A') (A') (A") (A') (A") (A')
                 (A') (A") (A") (A") (A') (A') (A') (A') (A") (A')
                 (A') (A') (A') (A') (A') (A') (A') (A') (A') (A')
 The electronic state is 4-A".
 Alpha  occ. eigenvalues --  -10.23022 -10.21990 -10.21678 -10.21539 -10.20041
 Alpha  occ. eigenvalues --   -0.91936  -0.75551  -0.68443  -0.57361  -0.55028
 Alpha  occ. eigenvalues --   -0.48802  -0.44024  -0.41236  -0.41106  -0.27910
 Alpha  occ. eigenvalues --   -0.26747  -0.24828  -0.21835
 Alpha virt. eigenvalues --   -0.03919  -0.00180   0.01340   0.01616   0.03684
 Alpha virt. eigenvalues --    0.04677   0.05526   0.06062   0.07684   0.09061
 Alpha virt. eigenvalues --    0.09212   0.10451   0.10805   0.10952   0.11686
 Alpha virt. eigenvalues --    0.12524   0.13822   0.14087   0.14628   0.15928
 Alpha virt. eigenvalues --    0.16311   0.16916   0.19379   0.19893   0.20922
 Alpha virt. eigenvalues --    0.21417   0.22705   0.24162   0.27787   0.29084
 Alpha virt. eigenvalues --    0.30251   0.32482   0.35475   0.36044   0.38438
 Alpha virt. eigenvalues --    0.39982   0.40016   0.41287   0.43283   0.44049
 Alpha virt. eigenvalues --    0.44080   0.46025   0.46814   0.49192   0.50371
 Alpha virt. eigenvalues --    0.50910   0.53413   0.53884   0.55041   0.56494
 Alpha virt. eigenvalues --    0.57386   0.58454   0.58739   0.61536   0.62074
 Alpha virt. eigenvalues --    0.62582   0.69007   0.70945   0.71381   0.73516
 Alpha virt. eigenvalues --    0.73591   0.75953   0.77183   0.77519   0.78959
 Alpha virt. eigenvalues --    0.80629   0.82747   0.88870   0.90109   0.91270
 Alpha virt. eigenvalues --    0.93985   1.02186   1.03712   1.05749   1.06623
 Alpha virt. eigenvalues --    1.10953   1.12008   1.15456   1.15561   1.18606
 Alpha virt. eigenvalues --    1.19061   1.20221   1.22697   1.24851   1.28830
 Alpha virt. eigenvalues --    1.33973   1.34720   1.35919   1.43461   1.43545
 Alpha virt. eigenvalues --    1.46067   1.47507   1.52550   1.57236   1.60960
 Alpha virt. eigenvalues --    1.62231   1.69216   1.71448   1.75447   1.78677
 Alpha virt. eigenvalues --    1.80966   1.86292   1.92393   1.93358   1.95320
 Alpha virt. eigenvalues --    2.01637   2.06827   2.16598   2.20557   2.21128
 Alpha virt. eigenvalues --    2.25632   2.32842   2.38806   2.43384   2.53246
 Alpha virt. eigenvalues --    2.61890   2.65408   2.67089   2.68647   2.68903
 Alpha virt. eigenvalues --    2.71752   2.76843   2.78581   2.82468   2.86278
 Alpha virt. eigenvalues --    2.86687   2.88948   2.90438   2.93254   2.95625
 Alpha virt. eigenvalues --    2.98373   3.02464   3.03512   3.07240   3.07709
 Alpha virt. eigenvalues --    3.12363   3.14008   3.20261   3.24802   3.25943
 Alpha virt. eigenvalues --    3.26771   3.32589   3.36120   3.43088   3.47007
 Alpha virt. eigenvalues --    3.51210   3.57792   3.61442   3.65660   3.74301
 Alpha virt. eigenvalues --    3.75886   3.79680   3.91193   3.91950   3.95611
 Alpha virt. eigenvalues --    4.05971   4.13562   4.15702   4.21508   4.23099
 Alpha virt. eigenvalues --    4.28885   4.30818   4.44647   4.45523   4.47889
 Alpha virt. eigenvalues --    4.57717   4.61039   4.69644   4.84426   4.85344
 Alpha virt. eigenvalues --    5.01082   5.02778   5.17700   5.90318   6.04637
 Alpha virt. eigenvalues --    6.20700   6.39387   6.94938   7.00779   7.05238
 Alpha virt. eigenvalues --    7.05475   7.09049   7.14327   7.15709   7.18811
 Alpha virt. eigenvalues --    7.26738   7.27320   7.33860   7.39386   7.47736
 Alpha virt. eigenvalues --    7.53308   7.56469   7.60412   7.63330   7.70161
 Alpha virt. eigenvalues --    7.72577   7.99113   8.01741   8.20466   8.29379
 Alpha virt. eigenvalues --    8.70405   9.22414  23.93507  24.30462  25.09562
 Alpha virt. eigenvalues --   25.30842  25.98937
  Beta  occ. eigenvalues --  -10.22042 -10.21843 -10.20414 -10.20361 -10.18461
  Beta  occ. eigenvalues --   -0.89280  -0.72680  -0.65087  -0.54234  -0.53454
  Beta  occ. eigenvalues --   -0.45835  -0.41717  -0.39251  -0.37768  -0.24821
  Beta virt. eigenvalues --   -0.12113  -0.09532  -0.09420  -0.01862   0.00063
  Beta virt. eigenvalues --    0.01544   0.01897   0.04263   0.05227   0.06099
  Beta virt. eigenvalues --    0.06499   0.08492   0.09573   0.10151   0.10800
  Beta virt. eigenvalues --    0.11323   0.12273   0.12378   0.12983   0.14085
  Beta virt. eigenvalues --    0.15012   0.15015   0.16395   0.16722   0.17411
  Beta virt. eigenvalues --    0.19809   0.20789   0.21287   0.22267   0.23703
  Beta virt. eigenvalues --    0.24809   0.29332   0.30301   0.31198   0.34200
  Beta virt. eigenvalues --    0.36597   0.37261   0.39627   0.40591   0.41579
  Beta virt. eigenvalues --    0.42665   0.44580   0.45486   0.46108   0.46857
  Beta virt. eigenvalues --    0.48154   0.50994   0.51083   0.53792   0.54795
  Beta virt. eigenvalues --    0.55857   0.56584   0.58628   0.58630   0.60011
  Beta virt. eigenvalues --    0.60338   0.62055   0.63083   0.64179   0.70435
  Beta virt. eigenvalues --    0.72607   0.72707   0.73810   0.74366   0.77032
  Beta virt. eigenvalues --    0.78051   0.78500   0.80133   0.81303   0.84376
  Beta virt. eigenvalues --    0.89977   0.91063   0.92089   0.95154   1.03002
  Beta virt. eigenvalues --    1.04780   1.06460   1.07230   1.11941   1.12843
  Beta virt. eigenvalues --    1.16701   1.17060   1.19401   1.20542   1.21718
  Beta virt. eigenvalues --    1.23968   1.26282   1.29524   1.35354   1.36943
  Beta virt. eigenvalues --    1.37940   1.45930   1.47076   1.48005   1.49653
  Beta virt. eigenvalues --    1.53659   1.59254   1.62597   1.66300   1.71939
  Beta virt. eigenvalues --    1.74739   1.76959   1.81383   1.83915   1.89533
  Beta virt. eigenvalues --    1.94586   1.95792   1.98759   2.05849   2.09806
  Beta virt. eigenvalues --    2.20184   2.23393   2.23421   2.27712   2.35771
  Beta virt. eigenvalues --    2.41780   2.45822   2.54791   2.63240   2.67390
  Beta virt. eigenvalues --    2.69655   2.70459   2.71241   2.72864   2.80044
  Beta virt. eigenvalues --    2.82235   2.86488   2.88997   2.89128   2.91154
  Beta virt. eigenvalues --    2.94269   2.97237   2.98147   3.00043   3.06299
  Beta virt. eigenvalues --    3.07226   3.09073   3.09411   3.14851   3.16750
  Beta virt. eigenvalues --    3.23019   3.27647   3.27937   3.28421   3.35734
  Beta virt. eigenvalues --    3.38945   3.45979   3.49140   3.53080   3.59328
  Beta virt. eigenvalues --    3.63060   3.67213   3.76802   3.77748   3.81759
  Beta virt. eigenvalues --    3.92508   3.93380   3.97654   4.07094   4.14812
  Beta virt. eigenvalues --    4.18008   4.23699   4.24953   4.30256   4.32436
  Beta virt. eigenvalues --    4.46679   4.47059   4.49756   4.59335   4.62585
  Beta virt. eigenvalues --    4.70174   4.85885   4.86571   5.02545   5.04261
  Beta virt. eigenvalues --    5.19861   5.91622   6.06177   6.22688   6.40982
  Beta virt. eigenvalues --    6.98387   7.05994   7.10257   7.11876   7.12330
  Beta virt. eigenvalues --    7.17323   7.19519   7.20102   7.29776   7.32173
  Beta virt. eigenvalues --    7.35992   7.41227   7.51080   7.58730   7.59077
  Beta virt. eigenvalues --    7.63351   7.65776   7.73433   7.74596   8.00946
  Beta virt. eigenvalues --    8.03430   8.24667   8.31636   8.72015   9.23788
  Beta virt. eigenvalues --   23.94659  24.31592  25.11026  25.32267  25.99876
          Condensed to atoms (all electrons):
               1          2          3          4          5          6
     1  C    7.513129   0.199292  -0.802141  -0.092242  -0.810373  -0.086866
     2  C    0.199292   6.551172   0.103406  -0.029615   0.131210  -0.029961
     3  C   -0.802141   0.103406   6.959717   0.364167   0.185828   0.029362
     4  H   -0.092242  -0.029615   0.364167   0.440198   0.028896  -0.001917
     5  C   -0.810373   0.131210   0.185828   0.028896   6.674781   0.364998
     6  H   -0.086866  -0.029961   0.029362  -0.001917   0.364998   0.440082
     7  C    0.173862  -1.205805  -0.657864   0.037550  -0.413309   0.031084
     8  H   -0.003174  -0.078800  -0.000848   0.000506   0.020912  -0.000169
               7          8
     1  C    0.173862  -0.003174
     2  C   -1.205805  -0.078800
     3  C   -0.657864  -0.000848
     4  H    0.037550   0.000506
     5  C   -0.413309   0.020912
     6  H    0.031084  -0.000169
     7  C    8.274934   0.383616
     8  H    0.383616   0.462781
          Atomic-Atomic Spin Densities.
               1          2          3          4          5          6
     1  C    1.528671   0.317042  -0.583039   0.002168  -0.572574  -0.001878
     2  C    0.317042   0.234112  -0.262120  -0.002517  -0.281085  -0.000347
     3  C   -0.583039  -0.262120   1.445058   0.009947   0.204027   0.008459
     4  H    0.002168  -0.002517   0.009947  -0.033855   0.005770   0.000573
     5  C   -0.572574  -0.281085   0.204027   0.005770   1.358840   0.012563
     6  H   -0.001878  -0.000347   0.008459   0.000573   0.012563  -0.032414
     7  C    0.012971  -0.157460  -0.033383  -0.003898  -0.014259  -0.007120
     8  H    0.007952   0.009994  -0.021147  -0.000445  -0.000032  -0.000244
               7          8
     1  C    0.012971   0.007952
     2  C   -0.157460   0.009994
     3  C   -0.033383  -0.021147
     4  H   -0.003898  -0.000445
     5  C   -0.014259  -0.000032
     6  H   -0.007120  -0.000244
     7  C    1.212888  -0.038154
     8  H   -0.038154   0.063174
 Mulliken charges and spin densities:
               1          2
     1  C   -0.091486   0.711313
     2  C    0.359103  -0.142380
     3  C   -0.181627   0.767801
     4  H    0.252458  -0.022257
     5  C   -0.182943   0.713250
     6  H    0.253387  -0.020409
     7  C   -0.624068   0.971584
     8  H    0.215177   0.021098
 Sum of Mulliken charges =   0.00000   3.00000
 Mulliken charges and spin densities with hydrogens summed into heavy atoms:
               1          2
     1  C   -0.091486   0.711313
     2  C    0.359103  -0.142380
     3  C    0.070831   0.745545
     5  C    0.070444   0.692841
     7  C   -0.408892   0.992682
 APT charges:
               1
     1  C   -0.049539
     2  C    0.044019
     3  C   -0.043716
     4  H    0.086629
     5  C   -0.039868
     6  H    0.093993
     7  C   -0.237685
     8  H    0.146167
 Sum of APT charges =  -0.00000
 APT charges with hydrogens summed into heavy atoms:
               1
     1  C   -0.049539
     2  C    0.044019
     3  C    0.042913
     5  C    0.054124
     7  C   -0.091518
 Electronic spatial extent (au):  <R**2>=            310.8012
 Charge=              0.0000 electrons
 Dipole moment (field-independent basis, Debye):
    X=             -0.5618    Y=              0.2940    Z=              0.0000  Tot=              0.6341
 Quadrupole moment (field-independent basis, Debye-Ang):
   XX=            -24.9391   YY=            -29.9590   ZZ=            -32.0946
   XY=             -1.6157   XZ=              0.0000   YZ=              0.0000
 Traceless Quadrupole moment (field-independent basis, Debye-Ang):
   XX=              4.0585   YY=             -0.9614   ZZ=             -3.0971
   XY=             -1.6157   XZ=              0.0000   YZ=              0.0000
 Octapole moment (field-independent basis, Debye-Ang**2):
  XXX=             -0.5031  YYY=             10.5369  ZZZ=              0.0000  XYY=             -5.6996
  XXY=             -2.1749  XXZ=              0.0000  XZZ=             -0.2448  YZZ=             -0.4909
  YYZ=              0.0000  XYZ=              0.0000
 Hexadecapole moment (field-independent basis, Debye-Ang**3):
 XXXX=           -115.0604 YYYY=           -275.0954 ZZZZ=            -40.2337 XXXY=              2.9008
 XXXZ=              0.0000 YYYX=            -10.7592 YYYZ=              0.0000 ZZZX=              0.0000
 ZZZY=              0.0000 XXYY=            -70.2215 XXZZ=            -33.2437 YYZZ=            -59.4616
 XXYZ=              0.0000 YYXZ=              0.0000 ZZXY=              1.1557
 N-N= 1.289291873009D+02 E-N=-7.032952605833D+02  KE= 1.912249062748D+02
 Symmetry A'   KE= 1.856476443399D+02
 Symmetry A"   KE= 5.577261934855D+00
  Exact polarizability:  58.848  -0.764  78.145  -0.000  -0.000  39.183
 Approx polarizability:  91.477  -0.444 129.716  -0.000  -0.000  55.911
                          Isotropic Fermi Contact Couplings
        Atom                 a.u.       MegaHertz       Gauss      10(-4) cm-1
     1  C(13)              0.29191     109.38643      39.03180      36.48739
     2  C(13)              0.07184      26.92024       9.60581       8.97963
     3  C(13)              0.15646      58.63163      20.92122      19.55741
     4  H(1)              -0.00936     -13.94113      -4.97454      -4.65026
     5  C(13)              0.13011      48.75547      17.39716      16.26307
     6  H(1)              -0.00839     -12.49848      -4.45977      -4.16904
     7  C(13)              0.28883     108.23306      38.62025      36.10266
     8  H(1)               0.00670       9.97764       3.56027       3.32818
 --------------------------------------------------------
       Center         ----  Spin Dipole Couplings  ----
                      3XX-RR        3YY-RR        3ZZ-RR
 --------------------------------------------------------
     1   Atom       -0.421609      1.132905     -0.711295
     2   Atom       -0.039855      0.224364     -0.184509
     3   Atom       -0.418244     -0.191530      0.609774
     4   Atom        0.073000     -0.052755     -0.020245
     5   Atom       -0.408240     -0.202706      0.610945
     6   Atom        0.068303     -0.048836     -0.019468
     7   Atom        0.794469     -0.345391     -0.449079
     8   Atom        0.012931      0.055389     -0.068320
 --------------------------------------------------------
                        XY            XZ            YZ
 --------------------------------------------------------
     1   Atom       -0.037680      0.000000     -0.000000
     2   Atom       -0.008391     -0.000000     -0.000000
     3   Atom       -0.005695     -0.000000     -0.000000
     4   Atom        0.000661     -0.000000      0.000000
     5   Atom        0.016882     -0.000000     -0.000000
     6   Atom        0.006267     -0.000000     -0.000000
     7   Atom        0.500700     -0.000000      0.000000
     8   Atom       -0.043215     -0.000000      0.000000
 --------------------------------------------------------


 ---------------------------------------------------------------------------------
              Anisotropic Spin Dipole Couplings in Principal Axis System
 ---------------------------------------------------------------------------------

       Atom             a.u.   MegaHertz   Gauss  10(-4) cm-1        Axes

              Baa    -0.7113   -95.449   -34.059   -31.838  0.0000  0.0000  1.0000
     1 C(13)  Bbb    -0.4225   -56.698   -20.231   -18.913  0.9997  0.0242 -0.0000
              Bcc     1.1338   152.147    54.290    50.751 -0.0242  0.9997 -0.0000
 
              Baa    -0.1845   -24.759    -8.835    -8.259  0.0000  0.0000  1.0000
     2 C(13)  Bbb    -0.0401    -5.384    -1.921    -1.796  0.9995  0.0317  0.0000
              Bcc     0.2246    30.143    10.756    10.055 -0.0317  0.9995 -0.0000
 
              Baa    -0.4184   -56.144   -20.033   -18.727  0.9997  0.0251 -0.0000
     3 C(13)  Bbb    -0.1914   -25.682    -9.164    -8.567 -0.0251  0.9997 -0.0000
              Bcc     0.6098    81.826    29.198    27.294  0.0000  0.0000  1.0000
 
              Baa    -0.0528   -28.149   -10.044    -9.390 -0.0053  1.0000  0.0000
     4 H(1)   Bbb    -0.0202   -10.802    -3.854    -3.603  0.0000  0.0000  1.0000
              Bcc     0.0730    38.951    13.899    12.993  1.0000  0.0053  0.0000
 
              Baa    -0.4096   -54.967   -19.613   -18.335  0.9967 -0.0813 -0.0000
     5 C(13)  Bbb    -0.2013   -27.016    -9.640    -9.012  0.0813  0.9967 -0.0000
              Bcc     0.6109    81.983    29.254    27.347  0.0000  0.0000  1.0000
 
              Baa    -0.0492   -26.235    -9.361    -8.751 -0.0533  0.9986 -0.0000
     6 H(1)   Bbb    -0.0195   -10.387    -3.706    -3.465  0.0000  0.0000  1.0000
              Bcc     0.0686    36.622    13.068    12.216  0.9986  0.0533 -0.0000
 
              Baa    -0.5341   -71.670   -25.574   -23.907 -0.3527  0.9358 -0.0000
     7 C(13)  Bbb    -0.4491   -60.262   -21.503   -20.101  0.0000  0.0000  1.0000
              Bcc     0.9832   131.932    47.077    44.008  0.9358  0.3527  0.0000
 
              Baa    -0.0683   -36.452   -13.007   -12.159  0.0000  0.0000  1.0000
     8 H(1)   Bbb    -0.0140    -7.463    -2.663    -2.489  0.8488  0.5287 -0.0000
              Bcc     0.0823    43.915    15.670    14.649 -0.5287  0.8488 -0.0000
 

 ---------------------------------------------------------------------------------

 No NMR shielding tensors so no spin-rotation constants.
 Leave Link  601 at Tue Jul 19 15:20:39 2016, MaxMem=    33554432 cpu:         0.9
 (Enter /home/proyectos/fulerenos/M3C-v2.0/M3C-deps_CCC/g09-AM64L-G09RevC.01/l701.exe)
 Compute integral second derivatives.
 ... and contract with generalized density number  0.
 Leave Link  701 at Tue Jul 19 15:20:41 2016, MaxMem=    33554432 cpu:         0.8
 (Enter /home/proyectos/fulerenos/M3C-v2.0/M3C-deps_CCC/g09-AM64L-G09RevC.01/l702.exe)
 L702 exits ... SP integral derivatives will be done elsewhere.
 Leave Link  702 at Tue Jul 19 15:20:41 2016, MaxMem=    33554432 cpu:         0.1
 (Enter /home/proyectos/fulerenos/M3C-v2.0/M3C-deps_CCC/g09-AM64L-G09RevC.01/l703.exe)
 Compute integral second derivatives, UseDBF=F ICtDFT=           0.
 Integral derivatives from FoFJK, PRISM(SPDF).
 Calling FoFJK, ICntrl=    100127 FMM=F ISym2X=1 I1Cent= 0 IOpClX= 1 NMat=1 NMatS=1 NMatT=0.
 FoFJK:  IHMeth= 1 ICntrl=  100127 DoSepK=F KAlg= 0 I1Cent=   0 FoldK=F
 IRaf=         0 NMat=   1 IRICut=       1 DoRegI=T DoRafI=F ISym2E= 1.
 FoFCou: FMM=F IPFlag=           0 FMFlag=      100000 FMFlg1=         800
         NFxFlg=           0 DoJE=F BraDBF=F KetDBF=F FulRan=T
         wScrn=  0.000000 ICntrl=  100127 IOpCl=  1 I1Cent=           0 NGrid=           0
         NMat0=    1 NMatS0=      1 NMatT0=    0 NMatD0=    1 NMtDS0=    0 NMtDT0=    0
 Petite list used in FoFCou.
 Leave Link  703 at Tue Jul 19 15:41:36 2016, MaxMem=    33554432 cpu:      1254.7
 (Enter /home/proyectos/fulerenos/M3C-v2.0/M3C-deps_CCC/g09-AM64L-G09RevC.01/l716.exe)
 Dipole        =-2.21030756D-01 1.15663570D-01 1.55676697D-20
 Polarizability= 5.88483007D+01-7.63853888D-01 7.81453942D+01
                -3.49895780D-09-8.18260814D-08 3.91827567D+01
 Full mass-weighted force constant matrix:
 Low frequencies ---   -9.3567   -2.2641   -0.0006   -0.0002    0.0011    5.3659
 Low frequencies ---  227.4809  353.6223  498.0436
 Diagonal vibrational polarizability:
        0.3495601       2.3486188      12.3964522
 Harmonic frequencies (cm**-1), IR intensities (KM/Mole), Raman scattering
 activities (A**4/AMU), depolarization ratios for plane and unpolarized
 incident light, reduced masses (AMU), force constants (mDyne/A),
 and normal coordinates:
                      1                      2                      3
                     A"                     A'                     A"
 Frequencies --    227.4801               353.6223               498.0435
 Red. masses --      6.9964                 2.4557                 1.4729
 Frc consts  --      0.2133                 0.1809                 0.2153
 IR Inten    --      1.3647                 4.2920                69.4763
  Atom  AN      X      Y      Z        X      Y      Z        X      Y      Z
     1   6    -0.00  -0.00   0.50     0.07  -0.00   0.00    -0.00  -0.00  -0.06
     2   6     0.00   0.00  -0.34    -0.18  -0.00   0.00    -0.00   0.00  -0.19
     3   6     0.00   0.00  -0.23    -0.07  -0.16  -0.00    -0.00  -0.00   0.04
     4   1     0.00   0.00  -0.33    -0.06  -0.35  -0.00     0.00  -0.00   0.65
     5   6     0.00  -0.00  -0.21    -0.07   0.14  -0.00     0.00   0.00   0.05
     6   1     0.00  -0.00  -0.32    -0.08   0.33  -0.00    -0.00   0.00   0.67
     7   6    -0.00  -0.00   0.29     0.20  -0.00   0.00     0.00  -0.00   0.03
     8   1    -0.00  -0.00   0.50     0.69   0.39   0.00     0.00   0.00   0.29
                      4                      5                      6
                     A"                     A"                     A"
 Frequencies --    557.9680               612.3926               634.0513
 Red. masses --      1.2339                 1.2588                 2.8693
 Frc consts  --      0.2263                 0.2781                 0.6796
 IR Inten    --      4.6870                19.7618                34.7463
  Atom  AN      X      Y      Z        X      Y      Z        X      Y      Z
     1   6     0.00  -0.00   0.01    -0.00   0.00  -0.01     0.00  -0.00   0.11
     2   6    -0.00  -0.00   0.01     0.00  -0.00  -0.00    -0.00  -0.00   0.26
     3   6    -0.00   0.00  -0.11    -0.00  -0.00  -0.04    -0.00   0.00  -0.20
     4   1    -0.00   0.00   0.73     0.00   0.00   0.09    -0.00   0.00   0.55
     5   6    -0.00  -0.00   0.07     0.00   0.00   0.11    -0.00  -0.00  -0.19
     6   1    -0.00  -0.00  -0.49    -0.00   0.00  -0.49    -0.00   0.00   0.63
     7   6     0.00   0.00   0.05     0.00  -0.00  -0.10     0.00  -0.00  -0.12
     8   1    -0.00  -0.00  -0.45    -0.00  -0.00   0.85    -0.00  -0.00   0.35
                      7                      8                      9
                     A'                     A'                     A'
 Frequencies --    687.7398               740.7171               841.5850
 Red. masses --      2.1148                 3.8851                 3.6307
 Frc consts  --      0.5893                 1.2559                 1.5151
 IR Inten    --      7.8188                10.9472                 9.3936
  Atom  AN      X      Y      Z        X      Y      Z        X      Y      Z
     1   6     0.03  -0.09   0.00    -0.09  -0.13   0.00    -0.19   0.11   0.00
     2   6    -0.07   0.11   0.00     0.19   0.19   0.00     0.31  -0.04   0.00
     3   6     0.08  -0.00  -0.00    -0.01  -0.26  -0.00    -0.08  -0.14  -0.00
     4   1     0.08  -0.05   0.00    -0.01  -0.53   0.00    -0.08  -0.13   0.00
     5   6     0.03  -0.17  -0.00    -0.12   0.01  -0.00     0.07   0.15  -0.00
     6   1     0.04  -0.37   0.00    -0.12  -0.16   0.00     0.07  -0.01   0.00
     7   6    -0.14   0.13  -0.00     0.09   0.27  -0.00    -0.17  -0.10  -0.00
     8   1     0.55   0.67   0.00    -0.59  -0.25   0.00     0.68   0.52  -0.00
                     10                     11                     12
                     A'                     A'                     A'
 Frequencies --    889.1956              1091.0684              1113.2773
 Red. masses --      2.6169                 2.8440                 1.7079
 Frc consts  --      1.2191                 1.9947                 1.2472
 IR Inten    --      1.7920                 0.4541                 3.7202
  Atom  AN      X      Y      Z        X      Y      Z        X      Y      Z
     1   6     0.04   0.24  -0.00     0.29  -0.01  -0.00     0.09  -0.01  -0.00
     2   6    -0.07   0.02  -0.00     0.12   0.00  -0.00     0.10   0.00  -0.00
     3   6    -0.18  -0.05   0.00    -0.20  -0.03   0.00    -0.11   0.11   0.00
     4   1    -0.16  -0.61   0.00    -0.25   0.68  -0.00    -0.09  -0.57  -0.00
     5   6     0.18  -0.11  -0.00    -0.16   0.02   0.00    -0.05  -0.14   0.00
     6   1     0.19  -0.61   0.00    -0.16  -0.52  -0.00    -0.07   0.77  -0.00
     7   6     0.04   0.02   0.00    -0.03   0.00   0.00    -0.03   0.01  -0.00
     8   1    -0.17  -0.14  -0.00     0.08   0.07   0.00     0.06   0.08   0.00
                     13                     14                     15
                     A'                     A'                     A'
 Frequencies --   1136.7330              1365.4021              1682.6819
 Red. masses --      1.9501                 4.4646                 8.2770
 Frc consts  --      1.4847                 4.9040                13.8079
 IR Inten    --      7.4540                 0.1621                11.5208
  Atom  AN      X      Y      Z        X      Y      Z        X      Y      Z
     1   6    -0.04  -0.06   0.00    -0.00   0.36   0.00     0.00  -0.11   0.00
     2   6    -0.03   0.02   0.00     0.00   0.05   0.00    -0.02   0.65   0.00
     3   6    -0.14  -0.10   0.00     0.19  -0.23  -0.00    -0.05  -0.02  -0.00
     4   1    -0.19   0.70  -0.00     0.19   0.55   0.00    -0.09   0.04   0.00
     5   6     0.20  -0.05  -0.00    -0.18  -0.24  -0.00     0.06  -0.01  -0.00
     6   1     0.21   0.58   0.00    -0.24   0.53   0.00     0.10   0.04  -0.00
     7   6     0.01   0.09   0.00     0.00  -0.04  -0.00    -0.00  -0.47  -0.00
     8   1    -0.09   0.03  -0.00     0.00  -0.04  -0.00     0.21  -0.52  -0.00
                     16                     17                     18
                     A'                     A'                     A'
 Frequencies --   3266.2051              3271.7588              3280.0100
 Red. masses --      1.0926                 1.1009                 1.1052
 Frc consts  --      6.8677                 6.9430                 7.0054
 IR Inten    --      0.8364                 0.1777                 5.6420
  Atom  AN      X      Y      Z        X      Y      Z        X      Y      Z
     1   6     0.00  -0.00  -0.00     0.00   0.01  -0.00     0.00  -0.00   0.00
     2   6     0.00   0.00  -0.00     0.00  -0.00  -0.00     0.00   0.01   0.00
     3   6    -0.08  -0.00   0.00     0.05   0.00   0.00    -0.01   0.00  -0.00
     4   1     0.85   0.04  -0.00    -0.51  -0.02  -0.00     0.06   0.00   0.00
     5   6    -0.04  -0.00   0.00    -0.08  -0.00   0.00     0.00   0.00  -0.00
     6   1     0.52   0.01  -0.00     0.85   0.02  -0.00    -0.01  -0.00  -0.00
     7   6    -0.00   0.00   0.00     0.00  -0.00  -0.00     0.05  -0.08  -0.00
     8   1     0.03  -0.04  -0.00    -0.02   0.03   0.00    -0.61   0.79   0.00

 -------------------
 - Thermochemistry -
 -------------------
 Temperature   298.150 Kelvin.  Pressure   1.00000 Atm.
 Atom     1 has atomic number  6 and mass  12.00000
 Atom     2 has atomic number  6 and mass  12.00000
 Atom     3 has atomic number  6 and mass  12.00000
 Atom     4 has atomic number  1 and mass   1.00783
 Atom     5 has atomic number  6 and mass  12.00000
 Atom     6 has atomic number  1 and mass   1.00783
 Atom     7 has atomic number  6 and mass  12.00000
 Atom     8 has atomic number  1 and mass   1.00783
 Molecular mass:    63.02348 amu.
 Principal axes and moments of inertia in atomic units:
                           1         2         3
     Eigenvalues --   128.00836 303.05862 431.06698
           X           -0.04535   0.99897   0.00000
           Y            0.99897   0.04535   0.00000
           Z           -0.00000  -0.00000   1.00000
 This molecule is an asymmetric top.
 Rotational symmetry number  1.
 Rotational temperatures (Kelvin)      0.67663     0.28580     0.20093
 Rotational constants (GHZ):          14.09862     5.95509     4.18668
 Zero-point vibrational energy     133084.1 (Joules/Mol)
                                   31.80787 (Kcal/Mol)
 Warning -- explicit consideration of   5 degrees of freedom as
           vibrations may cause significant error
 Vibrational temperatures:    327.29   508.78   716.57   802.79   881.10
          (Kelvin)            912.26   989.50  1065.73  1210.85  1279.35
                             1569.80  1601.76  1635.50  1964.51  2421.00
                             4699.33  4707.33  4719.20
 
 Zero-point correction=                           0.050689 (Hartree/Particle)
 Thermal correction to Energy=                    0.055524
 Thermal correction to Enthalpy=                  0.056468
 Thermal correction to Gibbs Free Energy=         0.022450
 Sum of electronic and zero-point Energies=           -192.041866
 Sum of electronic and thermal Energies=              -192.037031
 Sum of electronic and thermal Enthalpies=            -192.036087
 Sum of electronic and thermal Free Energies=         -192.070104
 
                     E (Thermal)             CV                S
                      KCal/Mol        Cal/Mol-Kelvin    Cal/Mol-Kelvin
 Total                   34.842             17.342             71.596
 Electronic               0.000              0.000              2.755
 Translational            0.889              2.981             38.342
 Rotational               0.889              2.981             24.329
 Vibrational             33.064             11.380              6.171
 Vibration     1          0.651              1.799              1.899
 Vibration     2          0.730              1.568              1.150
 Vibration     3          0.854              1.254              0.663
 Vibration     4          0.914              1.122              0.528
 Vibration     5          0.972              1.006              0.429
                       Q            Log10(Q)             Ln(Q)
 Total Bot       0.471641D-10        -10.326389        -23.777389
 Total V=0       0.974804D+13         12.988917         29.908087
 Vib (Bot)       0.129521D-22        -22.887659        -52.700782
 Vib (Bot)    1  0.866777D+00         -0.062093         -0.142974
 Vib (Bot)    2  0.520511D+00         -0.283570         -0.652944
 Vib (Bot)    3  0.330570D+00         -0.480736         -1.106937
 Vib (Bot)    4  0.279102D+00         -0.554237         -1.276179
 Vib (Bot)    5  0.240717D+00         -0.618492         -1.424132
 Vib (V=0)       0.267699D+01          0.427647          0.984694
 Vib (V=0)    1  0.150065D+01          0.176280          0.405899
 Vib (V=0)    2  0.122176D+01          0.086985          0.200289
 Vib (V=0)    3  0.109940D+01          0.041154          0.094762
 Vib (V=0)    4  0.107262D+01          0.030447          0.070108
 Vib (V=0)    5  0.105493D+01          0.023223          0.053472
 Electronic      0.400000D+01          0.602060          1.386294
 Translational   0.196657D+08          7.293709         16.794385
 Rotational      0.462915D+05          4.665501         10.742714
 
                                                              b3lyp opt
                                                             IR Spectrum
 
    333                                                            1            1       111                                          
    222                                                            6            3       110       8 8   7 6 66 5 4     3    2        
    876                                                            8            6       319       8 4   4 8 31 5 9     5    2        
    026                                                            3            5       731       9 2   1 8 42 8 8     4    7        
 
    XXX                                                            X            X       XXX       X X   X X XX X X     X    X        
    X                                                              X                    X           X   X X XX   X                   
                                                                   X                                X   X   XX   X                   
                                                                                                            XX   X                   
                                                                                                            XX   X                   
                                                                                                            XX   X                   
                                                                                                            X    X                   
                                                                                                            X    X                   
                                                                                                            X    X                   
                                                                                                            X    X                   
                                                                                                                 X                   
                                                                                                                 X                   
                                                                                                                 X                   
                                                                                                                 X                   
                                                                                                                 X                   
                                                                                                                 X                   
                                                                                                                 X                   
                                                                                                                 X                   
                                                                                                                 X                   
                                                                                                                 X                   
 
 ***** Axes restored to original set *****
 -------------------------------------------------------------------
 Center     Atomic                   Forces (Hartrees/Bohr)
 Number     Number              X              Y              Z
 -------------------------------------------------------------------
      1        6          -0.000031797    0.000021252   -0.000000001
      2        6          -0.000048577    0.000016068   -0.000000005
      3        6           0.000038155   -0.000013953    0.000000004
      4        1           0.000000685   -0.000007308   -0.000000001
      5        6           0.000041541   -0.000006485    0.000000006
      6        1          -0.000015207   -0.000000785   -0.000000003
      7        6           0.000012427   -0.000029363   -0.000000003
      8        1           0.000002774    0.000020575    0.000000004
 -------------------------------------------------------------------
 Cartesian Forces:  Max     0.000048577 RMS     0.000019613
 Z-matrix is all fixed cartesians, so copy forces.
 Force constants in Cartesian coordinates: 
                1             2             3             4             5 
      1  0.473408D+00
      2 -0.148541D-01  0.279289D+00
      3  0.716215D-04  0.456726D-04  0.226280D-01
      4 -0.123693D+00  0.922661D-02 -0.228979D-04  0.843117D+00
      5  0.845269D-02  0.353964D-01  0.324808D-05 -0.245871D-01  0.234194D+00
      6 -0.230432D-04  0.337658D-05  0.255142D-01  0.119796D-03  0.230859D-04
      7 -0.192126D+00 -0.682793D-01 -0.406739D-04 -0.770883D-01  0.214632D-01
      8 -0.133094D+00 -0.139601D+00 -0.437803D-04  0.552972D-01 -0.106866D+00
      9 -0.528265D-04 -0.330826D-04 -0.232729D-01  0.478079D-05 -0.838661D-05
     10  0.771844D-02 -0.154983D-01 -0.174761D-05  0.555763D-02  0.114088D-01
     11  0.622952D-02 -0.360918D-02  0.000000D+00 -0.718578D-02 -0.572730D-03
     12  0.232646D-05 -0.336613D-05  0.701089D-03  0.000000D+00  0.160055D-05
     13 -0.173114D+00  0.740216D-01 -0.108199D-04 -0.871940D-01 -0.270599D-01
     14  0.140784D+00 -0.167115D+00 -0.369404D-05 -0.631118D-01 -0.104802D+00
     15  0.169780D-05 -0.147140D-04 -0.234791D-01 -0.191554D-04 -0.160853D-04
     16  0.811551D-02  0.146523D-01  0.391227D-05  0.487828D-02 -0.136733D-01
     17 -0.755204D-02 -0.426479D-02 -0.224437D-05  0.645519D-02 -0.593618D-03
     18  0.000000D+00  0.142058D-05  0.105779D-02  0.180568D-05 -0.260658D-05
     19  0.246120D-03  0.106993D-02  0.000000D+00 -0.558308D+00  0.425461D-01
     20  0.319776D-03 -0.120314D-02  0.000000D+00  0.599949D-02 -0.618678D-01
     21  0.000000D+00  0.000000D+00 -0.396289D-02 -0.858288D-04  0.133128D-05
     22 -0.555300D-03 -0.338680D-03  0.000000D+00 -0.727034D-02 -0.185503D-01
     23 -0.285987D-03  0.110803D-02  0.000000D+00  0.179062D-01  0.511188D-02
     24  0.000000D+00  0.000000D+00  0.813959D-03  0.208355D-05 -0.218722D-05
                6             7             8             9            10 
      6  0.894232D-01
      7 -0.156278D-05  0.298717D+00
      8 -0.280254D-05  0.707884D-01  0.775118D+00
      9 -0.432415D-01  0.538983D-04  0.147158D-03  0.525960D-01
     10  0.290227D-05 -0.545086D-01 -0.809901D-02 -0.804016D-05  0.405304D-01
     11 -0.146863D-05 -0.116969D-01 -0.364167D+00 -0.673998D-04  0.128156D-01
     12  0.934179D-03 -0.871492D-05 -0.668060D-04 -0.149984D-01  0.749610D-05
     13 -0.123956D-04  0.625903D-01  0.966070D-02  0.975581D-05 -0.255291D-02
     14 -0.220365D-04 -0.349386D-01 -0.160528D+00 -0.385770D-04 -0.455933D-03
     15 -0.428354D-01  0.139360D-05 -0.312157D-04  0.144604D-01 -0.100218D-05
     16 -0.196833D-05 -0.261652D-02  0.215454D-03  0.000000D+00  0.196996D-02
     17  0.000000D+00  0.801765D-03 -0.529897D-02 -0.143017D-05 -0.126156D-03
     18  0.127135D-02  0.000000D+00 -0.152685D-05  0.303377D-02  0.000000D+00
     19 -0.789767D-04 -0.372256D-01  0.490599D-02 -0.748643D-05  0.145263D-02
     20 -0.470098D-05  0.247838D-01  0.141189D-03  0.154725D-05  0.116647D-03
     21 -0.315126D-01 -0.375974D-05 -0.173345D-05  0.137064D-01  0.000000D+00
     22 -0.475192D-05  0.225806D-02  0.324858D-03  0.000000D+00 -0.167558D-03
     23  0.383031D-05 -0.292221D-02  0.120202D-02  0.000000D+00 -0.161622D-03
     24  0.446700D-03  0.000000D+00  0.000000D+00 -0.228364D-02  0.000000D+00
               11            12            13            14            15 
     11  0.373937D+00
     12  0.704145D-04  0.967407D-02
     13 -0.929431D-03 -0.109097D-05  0.294937D+00
     14 -0.510882D-02 -0.159586D-05 -0.215925D-01  0.795538D+00
     15 -0.167377D-05  0.300078D-02  0.352915D-04  0.134987D-03  0.566001D-01
     16 -0.737033D-04  0.000000D+00 -0.550139D-01 -0.219452D-01 -0.105111D-04
     17 -0.209594D-03  0.000000D+00 -0.192086D-01 -0.363565D+00 -0.682901D-04
     18  0.000000D+00  0.736383D-03 -0.999808D-05 -0.687417D-04 -0.162618D-01
     19  0.800454D-03  0.000000D+00 -0.396142D-01 -0.574246D-03 -0.716901D-05
     20 -0.391678D-03  0.000000D+00 -0.148133D-01  0.632036D-02 -0.185374D-05
     21  0.000000D+00  0.333687D-04 -0.983894D-05  0.000000D+00  0.316677D-02
     22  0.403152D-04  0.000000D+00 -0.376234D-04  0.183450D-02  0.000000D+00
     23  0.122598D-03  0.000000D+00 -0.785828D-04 -0.738496D-03 -0.115424D-05
     24  0.000000D+00 -0.814551D-04  0.000000D+00  0.000000D+00  0.534823D-02
               16            17            18            19            20 
     16  0.412416D-01
     17  0.204365D-01  0.373690D+00
     18  0.895489D-05  0.715268D-04  0.102042D-01
     19  0.165275D-02 -0.801362D-03  0.000000D+00  0.895854D+00
     20  0.495991D-03  0.403050D-03  0.000000D+00  0.129938D+00  0.184965D+00
     21  0.000000D+00  0.000000D+00  0.160514D-03  0.166611D-03  0.497402D-04
     22 -0.227655D-03 -0.531647D-05  0.000000D+00 -0.264058D+00 -0.146841D+00
     23 -0.108054D-03 -0.160524D-03  0.000000D+00 -0.177885D+00 -0.128367D+00
     24  0.000000D+00  0.000000D+00 -0.202228D-03 -0.743538D-04 -0.453697D-04
               21            22            23            24 
     21  0.340709D-01
     22 -0.685331D-04  0.270058D+00
     23 -0.504940D-04  0.163535D+00  0.121721D+00
     24 -0.156624D-01  0.733209D-04  0.476371D-04  0.116208D-01
 Leave Link  716 at Tue Jul 19 15:41:37 2016, MaxMem=    33554432 cpu:         0.1
 (Enter /home/proyectos/fulerenos/M3C-v2.0/M3C-deps_CCC/g09-AM64L-G09RevC.01/l103.exe)

 GradGradGradGradGradGradGradGradGradGradGradGradGradGradGradGradGradGrad
 Berny optimization.
 Search for a local minimum.
 Step number   1 out of a maximum of    2
 All quantities printed in internal units (Hartrees-Bohrs-Radians)
 Second derivative matrix not updated -- analytic derivatives used.
 ITU=  0
     Eigenvalues ---    0.01026   0.01075   0.01707   0.03488   0.04136
     Eigenvalues ---    0.04795   0.05669   0.15685   0.16197   0.17896
     Eigenvalues ---    0.23709   0.28558   0.35963   0.59975   0.64257
     Eigenvalues ---    0.92897   1.18169   1.50491
 Angle between quadratic step and forces=  73.75 degrees.
 ClnCor:  largest displacement from symmetrization is 9.12D-13 for atom     3.
 Linear search not attempted -- first point.
 ClnCor:  largest displacement from symmetrization is 6.84D-15 for atom     6.
 B after Tr=     0.000052   -0.000070   -0.000000
         Rot=    1.000000   -0.000000   -0.000000    0.000008 Ang=   0.00 deg.
 Variable       Old X    -DE/DX   Delta X   Delta X   Delta X     New X
                                 (Linear)    (Quad)   (Total)
    X1       -2.78889  -0.00003   0.00000   0.00002   0.00008  -2.78882
    Y1        0.12304   0.00002   0.00000   0.00011   0.00009   0.12313
    Z1       -0.00035  -0.00000   0.00000   0.00000   0.00000  -0.00035
    X2        0.98589  -0.00005   0.00000  -0.00004   0.00001   0.98590
    Y2       -0.07888   0.00002   0.00000  -0.00026  -0.00035  -0.07923
    Z2        0.00024  -0.00000   0.00000  -0.00000  -0.00000   0.00024
    X3       -0.95330   0.00004   0.00000   0.00033   0.00041  -0.95289
    Y3        2.01350  -0.00001   0.00000  -0.00016  -0.00022   2.01328
    Z3        0.00031   0.00000   0.00000   0.00000   0.00000   0.00031
    X4       -0.88422   0.00000   0.00000   0.00058   0.00070  -0.88353
    Y4        4.04355  -0.00001   0.00000  -0.00019  -0.00025   4.04330
    Z4        0.00070  -0.00000   0.00000   0.00000   0.00000   0.00070
    X5       -1.16924   0.00004   0.00000  -0.00007  -0.00005  -1.16929
    Y5       -1.94313  -0.00001   0.00000  -0.00009  -0.00014  -1.94327
    Z5       -0.00047   0.00000   0.00000  -0.00000  -0.00000  -0.00047
    X6       -1.30062  -0.00002   0.00000  -0.00057  -0.00058  -1.30120
    Y6       -3.96996  -0.00000   0.00000  -0.00007  -0.00012  -3.97007
    Z6       -0.00087  -0.00000   0.00000  -0.00000  -0.00000  -0.00087
    X7        3.43758   0.00001   0.00000   0.00005   0.00010   3.43768
    Y7       -0.27228  -0.00003   0.00000  -0.00001  -0.00013  -0.27241
    Z7        0.00060  -0.00000   0.00000   0.00000  -0.00000   0.00060
    X8        5.11615   0.00000   0.00000  -0.00073  -0.00067   5.11548
    Y8        0.86948   0.00002   0.00000   0.00127   0.00112   0.87060
    Z8        0.00110   0.00000   0.00000   0.00000   0.00000   0.00110
         Item               Value     Threshold  Converged?
 Maximum Force            0.000049     0.000450     YES
 RMS     Force            0.000020     0.000300     YES
 Maximum Displacement     0.001119     0.001800     YES
 RMS     Displacement     0.000353     0.001200     YES
 Predicted change in Energy=-2.468627D-08
 Optimization completed.
    -- Stationary point found.
 GradGradGradGradGradGradGradGradGradGradGradGradGradGradGradGradGradGrad

 Leave Link  103 at Tue Jul 19 15:41:37 2016, MaxMem=    33554432 cpu:         0.1
 (Enter /home/proyectos/fulerenos/M3C-v2.0/M3C-deps_CCC/g09-AM64L-G09RevC.01/l9999.exe)
 1\1\GINC-CALIFORNIO\Freq\UB3LYP\6-311++G(3df,2p)\C5H3(4)\ROOT\19-Jul-2
 016\0\\#p b3lyp/6-311++G(3df,2p) freq symmetry=Loose\\b3lyp opt\\0,4\C
 ,-1.475819061,0.06511093,-0.0001849052\C,0.521708977,-0.041740026,0.00
 01247744\C,-0.504466,1.0655,0.0001630001\H,-0.467909987,2.139756014,0.
 0003704568\C,-0.618732929,-1.02825792,-0.0002484401\H,-0.68826092,-2.1
 00810909,-0.0004610199\C,1.819086999,-0.144082001,0.0003197319\H,2.707
 351084,0.460109095,0.0005796354\\Version=EM64L-G09RevE.01\State=4-A"\H
 F=-192.0925547\S2=3.777958\S2-1=0.\S2A=3.750285\RMSD=2.747e-09\RMSF=1.
 961e-05\ZeroPoint=0.0506891\Thermal=0.0555238\Dipole=0.132903,0.211114
 7,0.0000615\DipoleDeriv=-0.0629963,0.0059498,0.0000111,0.0034733,0.037
 9265,0.0000309,0.0000106,0.0000313,-0.1235466,0.2461221,-0.0140448,0.0
 000525,-0.0157884,-0.0262545,0.0000089,0.0000522,0.0000092,-0.0878105,
 -0.0350243,-0.0801649,-0.0000102,0.1429589,-0.0319619,0.0000296,0.0000
 316,-0.0000072,-0.0641613,0.0649029,0.0272349,-0.0000144,0.0139953,0.0
 119806,-0.0000298,-0.0000169,-0.0000276,0.1830045,-0.063518,0.0732901,
 0.0000082,-0.1628883,-0.0260697,-0.0000261,-0.0000361,0.0000128,-0.030
 0168,0.0681995,-0.0272426,-0.0000246,-0.0208608,0.0276148,-0.0000332,-
 0.0000234,-0.0000342,0.1861634,-0.3374012,0.0173173,-0.0000026,0.14334
 1,-0.073902,0.0000664,0.000021,0.0000456,-0.3017524,0.1197153,-0.00233
 99,-0.00002,-0.1042309,0.0806662,-0.0000467,-0.0000391,-0.0000299,0.23
 81197\Polar=78.1442517,-0.7781383,58.8494415,0.006285,0.0035591,39.182
 7584\PG=CS [SG(C5H3)]\NImag=0\\0.47340841,-0.01485413,0.27928881,0.000
 07162,0.00004567,0.02262797,-0.12369266,0.00922661,-0.00002290,0.84311
 741,0.00845269,0.03539640,0.00000325,-0.02458715,0.23419406,-0.0000230
 4,0.00000338,0.02551416,0.00011980,0.00002309,0.08942318,-0.19212613,-
 0.06827934,-0.00004067,-0.07708832,0.02146319,-0.00000156,0.29871690,-
 0.13309357,-0.13960130,-0.00004378,0.05529721,-0.10686570,-0.00000280,
 0.07078838,0.77511831,-0.00005283,-0.00003308,-0.02327295,0.00000478,-
 0.00000839,-0.04324154,0.00005390,0.00014716,0.05259596,0.00771844,-0.
 01549826,-0.00000175,0.00555763,0.01140876,0.00000290,-0.05450862,-0.0
 0809901,-0.00000804,0.04053043,0.00622952,-0.00360918,0.00000022,-0.00
 718578,-0.00057273,-0.00000147,-0.01169695,-0.36416732,-0.00006740,0.0
 1281557,0.37393672,0.00000233,-0.00000337,0.00070109,-0.00000058,0.000
 00160,0.00093418,-0.00000871,-0.00006681,-0.01499842,0.00000750,0.0000
 7041,0.00967407,-0.17311439,0.07402157,-0.00001082,-0.08719404,-0.0270
 5992,-0.00001240,0.06259025,0.00966070,0.00000976,-0.00255291,-0.00092
 943,-0.00000109,0.29493681,0.14078375,-0.16711484,-0.00000369,-0.06311
 182,-0.10480248,-0.00002204,-0.03493862,-0.16052824,-0.00003858,-0.000
 45593,-0.00510882,-0.00000160,-0.02159248,0.79553788,0.00000170,-0.000
 01471,-0.02347913,-0.00001916,-0.00001609,-0.04283538,0.00000139,-0.00
 003122,0.01446043,-0.00000100,-0.00000167,0.00300078,0.00003529,0.0001
 3499,0.05660009,0.00811551,0.01465230,0.00000391,0.00487828,-0.0136733
 1,-0.00000197,-0.00261652,0.00021545,-0.00000089,0.00196996,-0.0000737
 0,0.00000019,-0.05501389,-0.02194516,-0.00001051,0.04124157,-0.0075520
 4,-0.00426479,-0.00000224,0.00645519,-0.00059362,0.00000072,0.00080176
 ,-0.00529897,-0.00000143,-0.00012616,-0.00020959,-0.00000020,-0.019208
 55,-0.36356537,-0.00006829,0.02043647,0.37368981,-0.00000025,0.0000014
 2,0.00105779,0.00000181,-0.00000261,0.00127135,-0.00000078,-0.00000153
 ,0.00303377,0.00000018,-0.00000019,0.00073638,-0.00001000,-0.00006874,
 -0.01626180,0.00000895,0.00007153,0.01020422,0.00024612,0.00106993,0.0
 0000090,-0.55830796,0.04254606,-0.00007898,-0.03722563,0.00490599,-0.0
 0000749,0.00145263,0.00080045,0.00000038,-0.03961420,-0.00057425,-0.00
 000717,0.00165275,-0.00080136,0.00000010,0.89585419,0.00031978,-0.0012
 0314,0.00000057,0.00599949,-0.06186782,-0.00000470,0.02478378,0.000141
 19,0.00000155,0.00011665,-0.00039168,-0.00000006,-0.01481331,0.0063203
 6,-0.00000185,0.00049599,0.00040305,0.00000013,0.12993844,0.18496460,0
 .00000075,0.00000069,-0.00396289,-0.00008583,0.00000133,-0.03151265,-0
 .00000376,-0.00000173,0.01370638,0.00000026,0.00000005,0.00003337,-0.0
 0000984,0.00000050,0.00316677,0.00000034,-0.00000009,0.00016051,0.0001
 6661,0.00004974,0.03407087,-0.00055530,-0.00033868,-0.00000029,-0.0072
 7034,-0.01855034,-0.00000475,0.00225806,0.00032486,0.00000081,-0.00016
 756,0.00004032,0.,-0.00003762,0.00183450,-0.00000055,-0.00022766,-0.00
 000532,0.,-0.26405790,-0.14684081,-0.00006853,0.27005832,-0.00028599,0
 .00110803,0.,0.01790625,0.00511188,0.00000383,-0.00292221,0.00120202,0
 .00000017,-0.00016162,0.00012260,0.00000001,-0.00007858,-0.00073850,-0
 .00000115,-0.00010805,-0.00016052,-0.00000001,-0.17788525,-0.12836656,
 -0.00005049,0.16353546,0.12172106,-0.00000028,0.,0.00081396,0.00000208
 ,-0.00000219,0.00044670,0.00000020,0.00000071,-0.00228364,-0.00000004,
 0.00000005,-0.00008146,-0.00000090,-0.00000084,0.00534823,-0.00000002,
 0.,-0.00020223,-0.00007435,-0.00004537,-0.01566237,0.00007332,0.000047
 64,0.01162081\\0.00003180,-0.00002125,0.,0.00004858,-0.00001607,0.,-0.
 00003815,0.00001395,0.,-0.00000068,0.00000731,0.,-0.00004154,0.0000064
 9,0.,0.00001521,0.00000078,0.,-0.00001243,0.00002936,0.,-0.00000277,-0
 .00002057,0.\\\@


 NEVER LISTEN TO CRITICISM
 OR YOU'LL BE DOIN' EVERYBODY ELSE'S THING BUT BUT YOUR OWN.

                                               -- ANDY CAPP
 Job cpu time:       0 days  1 hours  9 minutes 18.3 seconds.
 File lengths (MBytes):  RWF=     71 Int=      0 D2E=      0 Chk=      5 Scr=      1
 Normal termination of Gaussian 09 at Tue Jul 19 15:41:37 2016.
