 Entering Gaussian System, Link 0=/home/proyectos/fulerenos/M3C-v2.0/M3C-deps_CCC/g09-AM64L-G09RevC.01/g09
 Initial command:
 /home/proyectos/fulerenos/M3C-v2.0/M3C-deps_CCC/g09-AM64L-G09RevC.01/l1.exe "/scratch/naguirre/gaussian/Gau-15773.inp" -scrdir="/scratch/naguirre/gaussian/"
 Entering Link 1 = /home/proyectos/fulerenos/M3C-v2.0/M3C-deps_CCC/g09-AM64L-G09RevC.01/l1.exe PID=     15781.
  
 Copyright (c) 1988,1990,1992,1993,1995,1998,2003,2009,2015,
            Gaussian, Inc.  All Rights Reserved.
  
 This is part of the Gaussian(R) 09 program.  It is based on
 the Gaussian(R) 03 system (copyright 2003, Gaussian, Inc.),
 the Gaussian(R) 98 system (copyright 1998, Gaussian, Inc.),
 the Gaussian(R) 94 system (copyright 1995, Gaussian, Inc.),
 the Gaussian 92(TM) system (copyright 1992, Gaussian, Inc.),
 the Gaussian 90(TM) system (copyright 1990, Gaussian, Inc.),
 the Gaussian 88(TM) system (copyright 1988, Gaussian, Inc.),
 the Gaussian 86(TM) system (copyright 1986, Carnegie Mellon
 University), and the Gaussian 82(TM) system (copyright 1983,
 Carnegie Mellon University). Gaussian is a federally registered
 trademark of Gaussian, Inc.
  
 This software contains proprietary and confidential information,
 including trade secrets, belonging to Gaussian, Inc.
  
 This software is provided under written license and may be
 used, copied, transmitted, or stored only in accord with that
 written license.
  
 The following legend is applicable only to US Government
 contracts under FAR:
  
                    RESTRICTED RIGHTS LEGEND
  
 Use, reproduction and disclosure by the US Government is
 subject to restrictions as set forth in subparagraphs (a)
 and (c) of the Commercial Computer Software - Restricted
 Rights clause in FAR 52.227-19.
  
 Gaussian, Inc.
 340 Quinnipiac St., Bldg. 40, Wallingford CT 06492
  
  
 ---------------------------------------------------------------
 Warning -- This program may not be used in any manner that
 competes with the business of Gaussian, Inc. or will provide
 assistance to any competitor of Gaussian, Inc.  The licensee
 of this program is prohibited from giving any competitor of
 Gaussian, Inc. access to this program.  By using this program,
 the user acknowledges that Gaussian, Inc. is engaged in the
 business of creating and licensing software in the field of
 computational chemistry and represents and warrants to the
 licensee that it is not a competitor of Gaussian, Inc. and that
 it will not use this program in any manner prohibited above.
 ---------------------------------------------------------------
  

 Cite this work as:
 Gaussian 09, Revision E.01,
 M. J. Frisch, G. W. Trucks, H. B. Schlegel, G. E. Scuseria, 
 M. A. Robb, J. R. Cheeseman, G. Scalmani, V. Barone, B. Mennucci, 
 G. A. Petersson, H. Nakatsuji, M. Caricato, X. Li, H. P. Hratchian, 
 A. F. Izmaylov, J. Bloino, G. Zheng, J. L. Sonnenberg, M. Hada, 
 M. Ehara, K. Toyota, R. Fukuda, J. Hasegawa, M. Ishida, T. Nakajima, 
 Y. Honda, O. Kitao, H. Nakai, T. Vreven, J. A. Montgomery, Jr., 
 J. E. Peralta, F. Ogliaro, M. Bearpark, J. J. Heyd, E. Brothers, 
 K. N. Kudin, V. N. Staroverov, T. Keith, R. Kobayashi, J. Normand, 
 K. Raghavachari, A. Rendell, J. C. Burant, S. S. Iyengar, J. Tomasi, 
 M. Cossi, N. Rega, J. M. Millam, M. Klene, J. E. Knox, J. B. Cross, 
 V. Bakken, C. Adamo, J. Jaramillo, R. Gomperts, R. E. Stratmann, 
 O. Yazyev, A. J. Austin, R. Cammi, C. Pomelli, J. W. Ochterski, 
 R. L. Martin, K. Morokuma, V. G. Zakrzewski, G. A. Voth, 
 P. Salvador, J. J. Dannenberg, S. Dapprich, A. D. Daniels, 
 O. Farkas, J. B. Foresman, J. V. Ortiz, J. Cioslowski, 
 and D. J. Fox, Gaussian, Inc., Wallingford CT, 2013.
 
 ******************************************
 Gaussian 09:  EM64L-G09RevE.01 30-Nov-2015
                31-Jan-2019 
 ******************************************
 %NProcShared=4
 Will use up to    4 processors via shared memory.
 ------------------------------------------------------
 #p b3lyp/6-311++G(3df,2p) freq IOp(2/17=3) IOp(2/18=3)
 ------------------------------------------------------
 1/10=4,30=1,38=1/1,3;
 2/12=2,17=3,18=3,40=1/2;
 3/5=4,6=6,7=1216,11=2,16=1,25=1,30=1,71=2,74=-5,140=1/1,2,3;
 4//1;
 5/5=2,38=5,98=1/2;
 8/6=4,10=90,11=11/1;
 11/6=1,8=1,9=11,15=111,16=1/1,2,10;
 10/6=1/2;
 6/7=2,8=2,9=2,10=2,18=1,28=1/1;
 7/8=1,10=1,25=1/1,2,3,16;
 1/10=4,30=1/3;
 99//99;
 Leave Link    1 at Thu Jan 31 05:49:07 2019, MaxMem=           0 cpu:         0.2
 (Enter /home/proyectos/fulerenos/M3C-v2.0/M3C-deps_CCC/g09-AM64L-G09RevC.01/l101.exe)
 ---------
 b3lyp opt
 ---------
 Symbolic Z-matrix:
 Charge =  2 Multiplicity = 4
 C                    -0.8604    0.73837   0.00006 
 H                    -1.25835   1.20428  -0.92185 
 H                    -1.25823   1.2042    0.92207 
 C                    -1.10816  -0.76053   0.00002 
 C                     0.1543   -1.12656  -0.00008 
 C                     0.735     0.86171  -0.00004 
 H                     1.24009   1.83831  -0.00003 
 C                     1.29179  -0.42074  -0.00013 
 
 NAtoms=      8 NQM=        8 NQMF=       0 NMMI=      0 NMMIF=      0
                NMic=       0 NMicF=      0.
                    Isotopes and Nuclear Properties:
 (Nuclear quadrupole moments (NQMom) in fm**2, nuclear magnetic moments (NMagM)
  in nuclear magnetons)

  Atom         1           2           3           4           5           6           7           8
 IAtWgt=          12           1           1          12          12          12           1          12
 AtmWgt=  12.0000000   1.0078250   1.0078250  12.0000000  12.0000000  12.0000000   1.0078250  12.0000000
 NucSpn=           0           1           1           0           0           0           1           0
 AtZEff=   0.0000000   0.0000000   0.0000000   0.0000000   0.0000000   0.0000000   0.0000000   0.0000000
 NQMom=    0.0000000   0.0000000   0.0000000   0.0000000   0.0000000   0.0000000   0.0000000   0.0000000
 NMagM=    0.0000000   2.7928460   2.7928460   0.0000000   0.0000000   0.0000000   2.7928460   0.0000000
 AtZNuc=   6.0000000   1.0000000   1.0000000   6.0000000   6.0000000   6.0000000   1.0000000   6.0000000
 Leave Link  101 at Thu Jan 31 05:49:07 2019, MaxMem=    33554432 cpu:         0.3
 (Enter /home/proyectos/fulerenos/M3C-v2.0/M3C-deps_CCC/g09-AM64L-G09RevC.01/l103.exe)

 GradGradGradGradGradGradGradGradGradGradGradGradGradGradGradGradGradGrad
 Berny optimization.
 Initialization pass.
 Trust Radius=3.00D-01 FncErr=1.00D-07 GrdErr=1.00D-07
 Number of steps in this run=      2 maximum allowed number of steps=      2.
 GradGradGradGradGradGradGradGradGradGradGradGradGradGradGradGradGradGrad

 Leave Link  103 at Thu Jan 31 05:49:07 2019, MaxMem=    33554432 cpu:         0.1
 (Enter /home/proyectos/fulerenos/M3C-v2.0/M3C-deps_CCC/g09-AM64L-G09RevC.01/l202.exe)
                          Input orientation:                          
 ---------------------------------------------------------------------
 Center     Atomic      Atomic             Coordinates (Angstroms)
 Number     Number       Type             X           Y           Z
 ---------------------------------------------------------------------
      1          6           0       -0.860401    0.738371    0.000065
      2          1           0       -1.258352    1.204275   -0.921847
      3          1           0       -1.258225    1.204199    0.922070
      4          6           0       -1.108164   -0.760528    0.000020
      5          6           0        0.154305   -1.126562   -0.000082
      6          6           0        0.734996    0.861708   -0.000040
      7          1           0        1.240094    1.838310   -0.000034
      8          6           0        1.291795   -0.420741   -0.000131
 ---------------------------------------------------------------------
                    Distance matrix (angstroms):
                    1          2          3          4          5
     1  C    0.000000
     2  H    1.106957   0.000000
     3  H    1.106957   1.843917   0.000000
     4  C    1.519238   2.175511   2.175511   0.000000
     5  C    2.123112   2.877160   2.877160   1.314461   0.000000
     6  C    1.600157   2.222727   2.222727   2.455379   2.071333
     7  H    2.371064   2.737512   2.737512   3.502610   3.157436
     8  C    2.444481   3.161248   3.161248   2.423893   1.338681
                    6          7          8
     6  C    0.000000
     7  H    1.099489   0.000000
     8  C    1.398106   2.259643   0.000000
 Stoichiometry    C5H3(2+,4)
 Framework group  CS[SG(C5H),X(H2)]
 Deg. of freedom    12
 Full point group                 CS      NOp   2
 Largest Abelian subgroup         CS      NOp   2
 Largest concise Abelian subgroup CS      NOp   2
                         Standard orientation:                         
 ---------------------------------------------------------------------
 Center     Atomic      Atomic             Coordinates (Angstroms)
 Number     Number       Type             X           Y           Z
 ---------------------------------------------------------------------
      1          6           0       -1.126168    0.130945    0.000000
      2          1           0       -1.716626    0.294625   -0.921822
      3          1           0       -1.716626    0.294625    0.921822
      4          6           0       -0.493305   -1.250202    0.000000
      5          6           0        0.757985   -0.847609    0.000000
      6          6           0        0.127438    1.125417    0.000000
      7          1           0        0.000000    2.217495    0.000000
      8          6           0        1.306234    0.373657    0.000000
 ---------------------------------------------------------------------
 Rotational constants (GHZ):     10.6534209      8.8800596      5.0075088
 Leave Link  202 at Thu Jan 31 05:49:07 2019, MaxMem=    33554432 cpu:         0.1
 (Enter /home/proyectos/fulerenos/M3C-v2.0/M3C-deps_CCC/g09-AM64L-G09RevC.01/l301.exe)
 Standard basis: 6-311++G(3df,2p) (5D, 7F)
 Ernie: Thresh=  0.10000D-02 Tol=  0.10000D-05 Strict=F.
 There are   173 symmetry adapted cartesian basis functions of A'  symmetry.
 There are    82 symmetry adapted cartesian basis functions of A"  symmetry.
 There are   148 symmetry adapted basis functions of A'  symmetry.
 There are    77 symmetry adapted basis functions of A"  symmetry.
   225 basis functions,   326 primitive gaussians,   255 cartesian basis functions
    17 alpha electrons       14 beta electrons
       nuclear repulsion energy       132.3217504189 Hartrees.
 IExCor=  402 DFT=T Ex+Corr=B3LYP ExCW=0 ScaHFX=  0.200000
 ScaDFX=  0.800000  0.720000  1.000000  0.810000 ScalE2=  1.000000  1.000000
 IRadAn=      0 IRanWt=     -1 IRanGd=            0 ICorTp=0 IEmpDi=  4
 NAtoms=    8 NActive=    8 NUniq=    7 SFac= 1.31D+00 NAtFMM=   60 NAOKFM=F Big=F
 Integral buffers will be    131072 words long.
 Raffenetti 2 integral format.
 Two-electron integral symmetry is turned on.
 Leave Link  301 at Thu Jan 31 05:49:07 2019, MaxMem=    33554432 cpu:         0.3
 (Enter /home/proyectos/fulerenos/M3C-v2.0/M3C-deps_CCC/g09-AM64L-G09RevC.01/l302.exe)
 NPDir=0 NMtPBC=     1 NCelOv=     1 NCel=       1 NClECP=     1 NCelD=      1
         NCelK=      1 NCelE2=     1 NClLst=     1 CellRange=     0.0.
 One-electron integrals computed using PRISM.
 One-electron integral symmetry used in STVInt
 NBasis=   225 RedAO= T EigKep=  1.56D-05  NBF=   148    77
 NBsUse=   225 1.00D-06 EigRej= -1.00D+00 NBFU=   148    77
 Precomputing XC quadrature grid using
 IXCGrd= 4 IRadAn=           0 IRanWt=          -1 IRanGd=           0 AccXCQ= 0.00D+00.
 Generated NRdTot=       0 NPtTot=           0 NUsed=           0 NTot=          32
 NSgBfM=   255   255   255   255   255 MxSgAt=     8 MxSgA2=     8.
 Leave Link  302 at Thu Jan 31 05:49:07 2019, MaxMem=    33554432 cpu:         1.8
 (Enter /home/proyectos/fulerenos/M3C-v2.0/M3C-deps_CCC/g09-AM64L-G09RevC.01/l303.exe)
 DipDrv:  MaxL=1.
 Leave Link  303 at Thu Jan 31 05:49:08 2019, MaxMem=    33554432 cpu:         0.4
 (Enter /home/proyectos/fulerenos/M3C-v2.0/M3C-deps_CCC/g09-AM64L-G09RevC.01/l401.exe)
 ExpMin= 3.60D-02 ExpMax= 4.56D+03 ExpMxC= 6.82D+02 IAcc=3 IRadAn=         5 AccDes= 0.00D+00
 Harris functional with IExCor=  402 and IRadAn=       5 diagonalized for initial guess.
 HarFok:  IExCor=  402 AccDes= 0.00D+00 IRadAn=         5 IDoV= 1 UseB2=F ITyADJ=14
 ICtDFT=  3500011 ScaDFX=  1.000000  1.000000  1.000000  1.000000
 FoFCou: FMM=F IPFlag=           0 FMFlag=      100000 FMFlg1=           0
         NFxFlg=           0 DoJE=T BraDBF=F KetDBF=T FulRan=T
         wScrn=  0.000000 ICntrl=     500 IOpCl=  0 I1Cent=   200000004 NGrid=           0
         NMat0=    1 NMatS0=      1 NMatT0=    0 NMatD0=    1 NMtDS0=    0 NMtDT0=    0
 Petite list used in FoFCou.
 Harris En= -191.453397807921    
 JPrj=0 DoOrth=F DoCkMO=F.
 Initial guess orbital symmetries:
 Alpha Orbitals:
       Occupied  (A') (A') (A') (A') (A') (A') (A') (A') (A') (A')
                 (A") (A') (A') (A") (A') (A') (A")
       Virtual   (A') (A") (A") (A') (A') (A") (A') (A') (A') (A')
                 (A") (A') (A") (A') (A') (A') (A') (A') (A") (A")
                 (A') (A') (A") (A") (A') (A') (A') (A') (A') (A')
                 (A') (A') (A') (A') (A") (A") (A') (A') (A') (A")
                 (A') (A") (A") (A') (A') (A') (A") (A') (A') (A")
                 (A') (A') (A") (A') (A") (A') (A') (A") (A') (A")
                 (A") (A') (A') (A') (A") (A') (A') (A') (A") (A")
                 (A') (A") (A') (A') (A') (A') (A") (A') (A') (A')
                 (A") (A') (A') (A") (A') (A") (A') (A") (A") (A')
                 (A") (A') (A') (A') (A") (A') (A') (A') (A") (A')
                 (A') (A") (A') (A") (A') (A') (A") (A') (A") (A')
                 (A') (A') (A") (A') (A') (A') (A") (A") (A') (A")
                 (A') (A") (A') (A") (A") (A') (A') (A") (A") (A')
                 (A') (A") (A") (A') (A') (A") (A') (A') (A") (A')
                 (A') (A") (A') (A') (A") (A') (A') (A") (A') (A')
                 (A") (A') (A') (A') (A") (A') (A') (A") (A') (A')
                 (A') (A") (A') (A") (A') (A") (A') (A") (A') (A")
                 (A') (A") (A') (A') (A') (A") (A') (A') (A") (A")
                 (A') (A") (A') (A") (A') (A") (A') (A') (A") (A')
                 (A') (A") (A") (A') (A") (A') (A') (A") (A') (A')
                 (A') (A') (A') (A') (A') (A') (A') (A')
 Beta  Orbitals:
       Occupied  (A') (A') (A') (A') (A') (A') (A') (A') (A') (A')
                 (A") (A') (A') (A")
       Virtual   (A') (A') (A") (A') (A") (A") (A') (A') (A") (A')
                 (A') (A') (A') (A") (A') (A") (A') (A') (A') (A')
                 (A') (A") (A") (A') (A') (A") (A") (A') (A') (A')
                 (A') (A') (A') (A') (A') (A') (A') (A") (A") (A')
                 (A') (A') (A") (A') (A") (A") (A') (A') (A') (A")
                 (A') (A') (A") (A') (A') (A") (A') (A") (A') (A')
                 (A") (A') (A") (A") (A') (A') (A') (A") (A') (A')
                 (A') (A") (A") (A') (A") (A') (A') (A') (A') (A")
                 (A') (A') (A') (A") (A') (A') (A") (A') (A") (A')
                 (A") (A") (A') (A") (A') (A') (A') (A") (A') (A')
                 (A') (A") (A') (A') (A") (A') (A") (A') (A') (A")
                 (A') (A") (A') (A') (A') (A") (A') (A') (A') (A")
                 (A") (A') (A") (A') (A") (A') (A") (A") (A') (A')
                 (A") (A") (A') (A') (A") (A") (A') (A') (A") (A')
                 (A') (A") (A') (A') (A") (A') (A') (A") (A') (A')
                 (A") (A') (A') (A") (A') (A') (A') (A") (A') (A')
                 (A") (A') (A') (A') (A") (A') (A") (A') (A") (A')
                 (A") (A') (A") (A') (A") (A') (A') (A') (A") (A')
                 (A') (A") (A") (A') (A") (A') (A") (A') (A") (A')
                 (A') (A") (A') (A') (A") (A") (A') (A") (A') (A')
                 (A") (A') (A') (A') (A') (A') (A') (A') (A') (A')
                 (A')
 The electronic state of the initial guess is 4-A".
 Initial guess <Sx>= 0.0000 <Sy>= 0.0000 <Sz>= 1.5000 <S**2>= 3.7500 S= 1.5000
 Leave Link  401 at Thu Jan 31 05:49:10 2019, MaxMem=    33554432 cpu:         8.5
 (Enter /home/proyectos/fulerenos/M3C-v2.0/M3C-deps_CCC/g09-AM64L-G09RevC.01/l502.exe)
 UHF open shell SCF:
 Using DIIS extrapolation, IDIIS=  1040.
 Integral symmetry usage will be decided dynamically.
 IVT=      217281 IEndB=      217281 NGot=    33554432 MDV=    33419072
 LenX=    33419072 LenY=    33353606
 Requested convergence on RMS density matrix=1.00D-08 within 128 cycles.
 Requested convergence on MAX density matrix=1.00D-06.
 Requested convergence on             energy=1.00D-06.
 No special actions if energy rises.
 Fock matrices will be formed incrementally for  20 cycles.

 Cycle   1  Pass 1  IDiag  1:
 FoFJK:  IHMeth= 1 ICntrl=       0 DoSepK=F KAlg= 0 I1Cent=   0 FoldK=F
 IRaf= 990000000 NMat=   1 IRICut=       1 DoRegI=T DoRafI=F ISym2E= 1.
 FoFCou: FMM=F IPFlag=           0 FMFlag=      100000 FMFlg1=           0
         NFxFlg=           0 DoJE=F BraDBF=F KetDBF=F FulRan=T
         wScrn=  0.000000 ICntrl=       0 IOpCl=  1 I1Cent=           0 NGrid=           0
         NMat0=    1 NMatS0=      1 NMatT0=    0 NMatD0=    1 NMtDS0=    0 NMtDT0=    0
 Petite list used in FoFCou.
 E= -191.099660416174    
 DIIS: error= 1.49D-02 at cycle   1 NSaved=   1.
 NSaved= 1 IEnMin= 1 EnMin= -191.099660416174     IErMin= 1 ErrMin= 1.49D-02
 ErrMax= 1.49D-02  0.00D+00 EMaxC= 1.00D-01 BMatC= 1.90D-01 BMatP= 1.90D-01
 IDIUse=3 WtCom= 8.51D-01 WtEn= 1.49D-01
 Coeff-Com:  0.100D+01
 Coeff-En:   0.100D+01
 Coeff:      0.100D+01
 Gap=     0.120 Goal=   None    Shift=    0.000
 Gap=     0.141 Goal=   None    Shift=    0.000
 GapD=    0.120 DampG=1.000 DampE=0.500 DampFc=0.5000 IDamp=-1.
 Damping current iteration by 5.00D-01
 RMSDP=7.17D-03 MaxDP=4.37D-01              OVMax= 1.57D-01

 Cycle   2  Pass 1  IDiag  1:
 RMSU=  3.55D-03    CP:  1.03D+00
 E= -191.117751817398     Delta-E=       -0.018091401224 Rises=F Damp=T
 DIIS: error= 7.11D-03 at cycle   2 NSaved=   2.
 NSaved= 2 IEnMin= 2 EnMin= -191.117751817398     IErMin= 2 ErrMin= 7.11D-03
 ErrMax= 7.11D-03  0.00D+00 EMaxC= 1.00D-01 BMatC= 4.59D-02 BMatP= 1.90D-01
 IDIUse=3 WtCom= 9.29D-01 WtEn= 7.11D-02
 Coeff-Com:  0.111D+00 0.889D+00
 Coeff-En:   0.208D+00 0.792D+00
 Coeff:      0.118D+00 0.882D+00
 Gap=     0.162 Goal=   None    Shift=    0.000
 Gap=     0.169 Goal=   None    Shift=    0.000
 RMSDP=3.14D-03 MaxDP=2.31D-01 DE=-1.81D-02 OVMax= 2.01D-01

 Cycle   3  Pass 1  IDiag  1:
 RMSU=  1.99D-03    CP:  1.07D+00  1.66D+00
 E= -191.144813256818     Delta-E=       -0.027061439419 Rises=F Damp=F
 DIIS: error= 1.16D-02 at cycle   3 NSaved=   3.
 NSaved= 3 IEnMin= 3 EnMin= -191.144813256818     IErMin= 2 ErrMin= 7.11D-03
 ErrMax= 1.16D-02  0.00D+00 EMaxC= 1.00D-01 BMatC= 5.26D-02 BMatP= 4.59D-02
 IDIUse=2 WtCom= 0.00D+00 WtEn= 1.00D+00
 Coeff-En:   0.000D+00 0.000D+00 0.100D+01
 Coeff:      0.000D+00 0.000D+00 0.100D+01
 Gap=     0.114 Goal=   None    Shift=    0.000
 Gap=     0.151 Goal=   None    Shift=    0.000
 RMSDP=2.28D-03 MaxDP=1.14D-01 DE=-2.71D-02 OVMax= 1.61D-01

 Cycle   4  Pass 1  IDiag  1:
 RMSU=  8.46D-04    CP:  1.07D+00  2.03D+00  1.73D-01
 E= -191.087387788437     Delta-E=        0.057425468381 Rises=F Damp=F
 DIIS: error= 2.45D-02 at cycle   4 NSaved=   4.
 NSaved= 4 IEnMin= 3 EnMin= -191.144813256818     IErMin= 2 ErrMin= 7.11D-03
 ErrMax= 2.45D-02  0.00D+00 EMaxC= 1.00D-01 BMatC= 2.56D-01 BMatP= 4.59D-02
 IDIUse=2 WtCom= 0.00D+00 WtEn= 1.00D+00
 Coeff-En:   0.000D+00 0.000D+00 0.777D+00 0.223D+00
 Coeff:      0.000D+00 0.000D+00 0.777D+00 0.223D+00
 Gap=     0.140 Goal=   None    Shift=    0.000
 Gap=     0.152 Goal=   None    Shift=    0.000
 RMSDP=1.15D-03 MaxDP=6.43D-02 DE= 5.74D-02 OVMax= 9.89D-02

 Cycle   5  Pass 1  IDiag  1:
 RMSU=  2.36D-04    CP:  1.06D+00  1.88D+00  6.44D-01  6.27D-01
 E= -191.154992705793     Delta-E=       -0.067604917356 Rises=F Damp=F
 DIIS: error= 6.05D-03 at cycle   5 NSaved=   5.
 NSaved= 5 IEnMin= 5 EnMin= -191.154992705793     IErMin= 5 ErrMin= 6.05D-03
 ErrMax= 6.05D-03  0.00D+00 EMaxC= 1.00D-01 BMatC= 1.78D-02 BMatP= 4.59D-02
 IDIUse=3 WtCom= 9.40D-01 WtEn= 6.05D-02
 Coeff-Com:  0.293D-02-0.244D-01 0.223D+00-0.140D+00 0.939D+00
 Coeff-En:   0.000D+00 0.000D+00 0.290D+00 0.000D+00 0.710D+00
 Coeff:      0.275D-02-0.229D-01 0.227D+00-0.131D+00 0.925D+00
 Gap=     0.152 Goal=   None    Shift=    0.000
 Gap=     0.150 Goal=   None    Shift=    0.000
 RMSDP=4.07D-04 MaxDP=2.25D-02 DE=-6.76D-02 OVMax= 3.97D-02

 Cycle   6  Pass 1  IDiag  1:
 RMSU=  1.13D-04    CP:  1.06D+00  1.84D+00  8.10D-01  5.19D-01  1.38D+00
 E= -191.160082835255     Delta-E=       -0.005090129463 Rises=F Damp=F
 DIIS: error= 6.60D-04 at cycle   6 NSaved=   6.
 NSaved= 6 IEnMin= 6 EnMin= -191.160082835255     IErMin= 6 ErrMin= 6.60D-04
 ErrMax= 6.60D-04  0.00D+00 EMaxC= 1.00D-01 BMatC= 2.49D-04 BMatP= 1.78D-02
 IDIUse=3 WtCom= 9.93D-01 WtEn= 6.60D-03
 Coeff-Com:  0.281D-02-0.180D-01 0.413D-01-0.107D+00 0.514D+00 0.568D+00
 Coeff-En:   0.000D+00 0.000D+00 0.000D+00 0.000D+00 0.000D+00 0.100D+01
 Coeff:      0.279D-02-0.179D-01 0.411D-01-0.107D+00 0.510D+00 0.570D+00
 Gap=     0.153 Goal=   None    Shift=    0.000
 Gap=     0.151 Goal=   None    Shift=    0.000
 RMSDP=1.12D-04 MaxDP=6.98D-03 DE=-5.09D-03 OVMax= 7.13D-03

 Cycle   7  Pass 1  IDiag  1:
 RMSU=  6.95D-05    CP:  1.06D+00  1.84D+00  8.12D-01  5.56D-01  1.68D+00
                    CP:  9.26D-01
 E= -191.160174860431     Delta-E=       -0.000092025176 Rises=F Damp=F
 DIIS: error= 3.66D-04 at cycle   7 NSaved=   7.
 NSaved= 7 IEnMin= 7 EnMin= -191.160174860431     IErMin= 7 ErrMin= 3.66D-04
 ErrMax= 3.66D-04  0.00D+00 EMaxC= 1.00D-01 BMatC= 4.85D-05 BMatP= 2.49D-04
 IDIUse=3 WtCom= 9.96D-01 WtEn= 3.66D-03
 Coeff-Com:  0.407D-02-0.865D-02-0.574D-01 0.152D-01-0.143D+00 0.268D+00
 Coeff-Com:  0.922D+00
 Coeff-En:   0.000D+00 0.000D+00 0.000D+00 0.000D+00 0.000D+00 0.000D+00
 Coeff-En:   0.100D+01
 Coeff:      0.406D-02-0.862D-02-0.572D-01 0.151D-01-0.143D+00 0.267D+00
 Coeff:      0.922D+00
 Gap=     0.154 Goal=   None    Shift=    0.000
 Gap=     0.152 Goal=   None    Shift=    0.000
 RMSDP=6.29D-05 MaxDP=3.68D-03 DE=-9.20D-05 OVMax= 6.39D-03

 Cycle   8  Pass 1  IDiag  1:
 RMSU=  2.69D-05    CP:  1.06D+00  1.84D+00  8.18D-01  5.77D-01  1.80D+00
                    CP:  1.29D+00  1.08D+00
 E= -191.160210706884     Delta-E=       -0.000035846453 Rises=F Damp=F
 DIIS: error= 1.79D-04 at cycle   8 NSaved=   8.
 NSaved= 8 IEnMin= 8 EnMin= -191.160210706884     IErMin= 8 ErrMin= 1.79D-04
 ErrMax= 1.79D-04  0.00D+00 EMaxC= 1.00D-01 BMatC= 1.89D-05 BMatP= 4.85D-05
 IDIUse=3 WtCom= 9.98D-01 WtEn= 1.79D-03
 Coeff-Com:  0.236D-02-0.241D-02-0.427D-01 0.265D-01-0.173D+00 0.609D-01
 Coeff-Com:  0.572D+00 0.557D+00
 Coeff-En:   0.000D+00 0.000D+00 0.000D+00 0.000D+00 0.000D+00 0.000D+00
 Coeff-En:   0.000D+00 0.100D+01
 Coeff:      0.235D-02-0.241D-02-0.426D-01 0.264D-01-0.173D+00 0.607D-01
 Coeff:      0.571D+00 0.558D+00
 Gap=     0.155 Goal=   None    Shift=    0.000
 Gap=     0.152 Goal=   None    Shift=    0.000
 RMSDP=2.80D-05 MaxDP=1.80D-03 DE=-3.58D-05 OVMax= 1.73D-03

 Cycle   9  Pass 1  IDiag  1:
 RMSU=  1.78D-05    CP:  1.06D+00  1.84D+00  8.20D-01  5.80D-01  1.86D+00
                    CP:  1.31D+00  1.31D+00  9.96D-01
 E= -191.160217941710     Delta-E=       -0.000007234826 Rises=F Damp=F
 DIIS: error= 9.29D-05 at cycle   9 NSaved=   9.
 NSaved= 9 IEnMin= 9 EnMin= -191.160217941710     IErMin= 9 ErrMin= 9.29D-05
 ErrMax= 9.29D-05  0.00D+00 EMaxC= 1.00D-01 BMatC= 3.35D-06 BMatP= 1.89D-05
 IDIUse=1 WtCom= 1.00D+00 WtEn= 0.00D+00
 Coeff-Com:  0.165D-03 0.124D-02 0.542D-03 0.664D-02-0.298D-01-0.737D-01
 Coeff-Com: -0.331D-01 0.320D+00 0.808D+00
 Coeff:      0.165D-03 0.124D-02 0.542D-03 0.664D-02-0.298D-01-0.737D-01
 Coeff:     -0.331D-01 0.320D+00 0.808D+00
 Gap=     0.155 Goal=   None    Shift=    0.000
 Gap=     0.152 Goal=   None    Shift=    0.000
 RMSDP=1.11D-05 MaxDP=5.69D-04 DE=-7.23D-06 OVMax= 1.25D-03

 Cycle  10  Pass 1  IDiag  1:
 RMSU=  5.26D-06    CP:  1.06D+00  1.84D+00  8.21D-01  5.82D-01  1.88D+00
                    CP:  1.35D+00  1.36D+00  1.21D+00  9.88D-01
 E= -191.160219671254     Delta-E=       -0.000001729544 Rises=F Damp=F
 DIIS: error= 3.03D-05 at cycle  10 NSaved=  10.
 NSaved=10 IEnMin=10 EnMin= -191.160219671254     IErMin=10 ErrMin= 3.03D-05
 ErrMax= 3.03D-05  0.00D+00 EMaxC= 1.00D-01 BMatC= 4.80D-07 BMatP= 3.35D-06
 IDIUse=1 WtCom= 1.00D+00 WtEn= 0.00D+00
 Coeff-Com: -0.539D-03 0.113D-02 0.752D-02-0.324D-02 0.202D-01-0.314D-01
 Coeff-Com: -0.988D-01 0.110D-02 0.265D+00 0.839D+00
 Coeff:     -0.539D-03 0.113D-02 0.752D-02-0.324D-02 0.202D-01-0.314D-01
 Coeff:     -0.988D-01 0.110D-02 0.265D+00 0.839D+00
 Gap=     0.155 Goal=   None    Shift=    0.000
 Gap=     0.152 Goal=   None    Shift=    0.000
 RMSDP=4.71D-06 MaxDP=3.83D-04 DE=-1.73D-06 OVMax= 2.68D-04

 Cycle  11  Pass 1  IDiag  1:
 RMSU=  2.34D-06    CP:  1.06D+00  1.84D+00  8.22D-01  5.82D-01  1.89D+00
                    CP:  1.35D+00  1.37D+00  1.26D+00  1.12D+00  1.16D+00
 E= -191.160219875819     Delta-E=       -0.000000204565 Rises=F Damp=F
 DIIS: error= 1.22D-05 at cycle  11 NSaved=  11.
 NSaved=11 IEnMin=11 EnMin= -191.160219875819     IErMin=11 ErrMin= 1.22D-05
 ErrMax= 1.22D-05  0.00D+00 EMaxC= 1.00D-01 BMatC= 5.74D-08 BMatP= 4.80D-07
 IDIUse=1 WtCom= 1.00D+00 WtEn= 0.00D+00
 Coeff-Com: -0.136D-03 0.181D-03 0.212D-02-0.140D-02 0.741D-02-0.400D-03
 Coeff-Com: -0.262D-01-0.440D-01 0.456D-02 0.293D+00 0.765D+00
 Coeff:     -0.136D-03 0.181D-03 0.212D-02-0.140D-02 0.741D-02-0.400D-03
 Coeff:     -0.262D-01-0.440D-01 0.456D-02 0.293D+00 0.765D+00
 Gap=     0.155 Goal=   None    Shift=    0.000
 Gap=     0.152 Goal=   None    Shift=    0.000
 RMSDP=1.35D-06 MaxDP=9.85D-05 DE=-2.05D-07 OVMax= 8.28D-05

 Cycle  12  Pass 1  IDiag  1:
 RMSU=  8.63D-07    CP:  1.06D+00  1.84D+00  8.22D-01  5.81D-01  1.89D+00
                    CP:  1.34D+00  1.37D+00  1.27D+00  1.15D+00  1.23D+00
                    CP:  9.53D-01
 E= -191.160219898154     Delta-E=       -0.000000022335 Rises=F Damp=F
 DIIS: error= 2.45D-06 at cycle  12 NSaved=  12.
 NSaved=12 IEnMin=12 EnMin= -191.160219898154     IErMin=12 ErrMin= 2.45D-06
 ErrMax= 2.45D-06  0.00D+00 EMaxC= 1.00D-01 BMatC= 4.46D-09 BMatP= 5.74D-08
 IDIUse=1 WtCom= 1.00D+00 WtEn= 0.00D+00
 Coeff-Com:  0.448D-04-0.119D-03-0.750D-03 0.339D-03-0.225D-02 0.575D-02
 Coeff-Com:  0.104D-01-0.983D-02-0.343D-01-0.943D-01 0.589D-01 0.107D+01
 Coeff:      0.448D-04-0.119D-03-0.750D-03 0.339D-03-0.225D-02 0.575D-02
 Coeff:      0.104D-01-0.983D-02-0.343D-01-0.943D-01 0.589D-01 0.107D+01
 Gap=     0.155 Goal=   None    Shift=    0.000
 Gap=     0.152 Goal=   None    Shift=    0.000
 RMSDP=5.48D-07 MaxDP=3.71D-05 DE=-2.23D-08 OVMax= 4.14D-05

 Cycle  13  Pass 1  IDiag  1:
 RMSU=  2.45D-07    CP:  1.06D+00  1.84D+00  8.22D-01  5.81D-01  1.89D+00
                    CP:  1.34D+00  1.37D+00  1.27D+00  1.16D+00  1.27D+00
                    CP:  1.03D+00  1.28D+00
 E= -191.160219900673     Delta-E=       -0.000000002519 Rises=F Damp=F
 DIIS: error= 3.77D-07 at cycle  13 NSaved=  13.
 NSaved=13 IEnMin=13 EnMin= -191.160219900673     IErMin=13 ErrMin= 3.77D-07
 ErrMax= 3.77D-07  0.00D+00 EMaxC= 1.00D-01 BMatC= 9.60D-11 BMatP= 4.46D-09
 IDIUse=1 WtCom= 1.00D+00 WtEn= 0.00D+00
 Coeff-Com:  0.295D-05-0.408D-05-0.220D-04 0.338D-04-0.102D-03-0.380D-03
 Coeff-Com: -0.123D-03 0.315D-02 0.355D-02-0.872D-02-0.240D-01-0.113D+00
 Coeff-Com:  0.114D+01
 Coeff:      0.295D-05-0.408D-05-0.220D-04 0.338D-04-0.102D-03-0.380D-03
 Coeff:     -0.123D-03 0.315D-02 0.355D-02-0.872D-02-0.240D-01-0.113D+00
 Coeff:      0.114D+01
 Gap=     0.155 Goal=   None    Shift=    0.000
 Gap=     0.152 Goal=   None    Shift=    0.000
 RMSDP=1.40D-07 MaxDP=1.47D-05 DE=-2.52D-09 OVMax= 9.33D-06

 Cycle  14  Pass 1  IDiag  1:
 RMSU=  4.65D-08    CP:  1.06D+00  1.84D+00  8.22D-01  5.81D-01  1.89D+00
                    CP:  1.34D+00  1.37D+00  1.27D+00  1.16D+00  1.27D+00
                    CP:  1.04D+00  1.36D+00  1.31D+00
 E= -191.160219900767     Delta-E=       -0.000000000094 Rises=F Damp=F
 DIIS: error= 1.13D-07 at cycle  14 NSaved=  14.
 NSaved=14 IEnMin=14 EnMin= -191.160219900767     IErMin=14 ErrMin= 1.13D-07
 ErrMax= 1.13D-07  0.00D+00 EMaxC= 1.00D-01 BMatC= 9.47D-12 BMatP= 9.60D-11
 IDIUse=1 WtCom= 1.00D+00 WtEn= 0.00D+00
 Coeff-Com: -0.353D-05 0.962D-05 0.387D-04-0.211D-04 0.132D-03-0.357D-03
 Coeff-Com: -0.645D-03 0.649D-03 0.234D-02 0.522D-02-0.244D-02-0.752D-01
 Coeff-Com:  0.622D-01 0.101D+01
 Coeff:     -0.353D-05 0.962D-05 0.387D-04-0.211D-04 0.132D-03-0.357D-03
 Coeff:     -0.645D-03 0.649D-03 0.234D-02 0.522D-02-0.244D-02-0.752D-01
 Coeff:      0.622D-01 0.101D+01
 Gap=     0.155 Goal=   None    Shift=    0.000
 Gap=     0.152 Goal=   None    Shift=    0.000
 RMSDP=3.43D-08 MaxDP=2.13D-06 DE=-9.36D-11 OVMax= 2.62D-06

 Cycle  15  Pass 1  IDiag  1:
 RMSU=  1.46D-08    CP:  1.06D+00  1.84D+00  8.22D-01  5.81D-01  1.89D+00
                    CP:  1.34D+00  1.37D+00  1.27D+00  1.16D+00  1.27D+00
                    CP:  1.04D+00  1.37D+00  1.40D+00  1.30D+00
 E= -191.160219900777     Delta-E=       -0.000000000011 Rises=F Damp=F
 DIIS: error= 5.62D-08 at cycle  15 NSaved=  15.
 NSaved=15 IEnMin=15 EnMin= -191.160219900777     IErMin=15 ErrMin= 5.62D-08
 ErrMax= 5.62D-08  0.00D+00 EMaxC= 1.00D-01 BMatC= 1.58D-12 BMatP= 9.47D-12
 IDIUse=1 WtCom= 1.00D+00 WtEn= 0.00D+00
 Coeff-Com:  0.300D-06-0.135D-05 0.533D-05-0.634D-06 0.114D-04 0.811D-04
 Coeff-Com: -0.348D-04-0.455D-03-0.305D-03 0.104D-02 0.314D-02 0.132D-01
 Coeff-Com: -0.132D+00-0.469D-01 0.116D+01
 Coeff:      0.300D-06-0.135D-05 0.533D-05-0.634D-06 0.114D-04 0.811D-04
 Coeff:     -0.348D-04-0.455D-03-0.305D-03 0.104D-02 0.314D-02 0.132D-01
 Coeff:     -0.132D+00-0.469D-01 0.116D+01
 Gap=     0.155 Goal=   None    Shift=    0.000
 Gap=     0.152 Goal=   None    Shift=    0.000
 RMSDP=1.56D-08 MaxDP=1.17D-06 DE=-1.06D-11 OVMax= 1.27D-06

 Cycle  16  Pass 1  IDiag  1:
 RMSU=  3.42D-09    CP:  1.06D+00  1.84D+00  8.22D-01  5.81D-01  1.89D+00
                    CP:  1.34D+00  1.37D+00  1.27D+00  1.16D+00  1.27D+00
                    CP:  1.04D+00  1.37D+00  1.43D+00  1.48D+00  1.28D+00
 E= -191.160219900777     Delta-E=        0.000000000000 Rises=F Damp=F
 DIIS: error= 9.57D-09 at cycle  16 NSaved=  16.
 NSaved=16 IEnMin=15 EnMin= -191.160219900777     IErMin=16 ErrMin= 9.57D-09
 ErrMax= 9.57D-09  0.00D+00 EMaxC= 1.00D-01 BMatC= 8.40D-14 BMatP= 1.58D-12
 IDIUse=1 WtCom= 1.00D+00 WtEn= 0.00D+00
 Coeff-Com:  0.668D-07-0.188D-06-0.301D-05 0.775D-06-0.699D-05 0.245D-04
 Coeff-Com:  0.168D-04-0.226D-04-0.659D-04-0.404D-03-0.211D-04 0.340D-02
 Coeff-Com:  0.364D-02-0.548D-01-0.454D-01 0.109D+01
 Coeff:      0.668D-07-0.188D-06-0.301D-05 0.775D-06-0.699D-05 0.245D-04
 Coeff:      0.168D-04-0.226D-04-0.659D-04-0.404D-03-0.211D-04 0.340D-02
 Coeff:      0.364D-02-0.548D-01-0.454D-01 0.109D+01
 Gap=     0.155 Goal=   None    Shift=    0.000
 Gap=     0.152 Goal=   None    Shift=    0.000
 RMSDP=2.34D-09 MaxDP=1.45D-07 DE= 0.00D+00 OVMax= 2.84D-07

 SCF Done:  E(UB3LYP) =  -191.160219901     A.U. after   16 cycles
            NFock= 16  Conv=0.23D-08     -V/T= 2.0043
 <Sx>= 0.0000 <Sy>= 0.0000 <Sz>= 1.5000 <S**2>= 3.7780 S= 1.5070
 <L.S>= 0.000000000000E+00
 KE= 1.903488949978D+02 PE=-6.917743484001D+02 EE= 1.779434830825D+02
 Annihilation of the first spin contaminant:
 S**2 before annihilation     3.7780,   after     3.7503
 Leave Link  502 at Thu Jan 31 05:52:31 2019, MaxMem=    33554432 cpu:       729.9
 (Enter /home/proyectos/fulerenos/M3C-v2.0/M3C-deps_CCC/g09-AM64L-G09RevC.01/l801.exe)
 DoSCS=F DFT=T ScalE2(SS,OS)=  1.000000  1.000000
 Range of M.O.s used for correlation:     1   225
 NBasis=   225 NAE=    17 NBE=    14 NFC=     0 NFV=     0
 NROrb=    225 NOA=    17 NOB=    14 NVA=   208 NVB=   211

 **** Warning!!: The largest alpha MO coefficient is  0.91704229D+02


 **** Warning!!: The largest beta MO coefficient is  0.90210801D+02

 Leave Link  801 at Thu Jan 31 05:52:32 2019, MaxMem=    33554432 cpu:         0.1
 (Enter /home/proyectos/fulerenos/M3C-v2.0/M3C-deps_CCC/g09-AM64L-G09RevC.01/l1101.exe)
 Using compressed storage, NAtomX=     8.
 Will process      9 centers per pass.
 Leave Link 1101 at Thu Jan 31 05:52:32 2019, MaxMem=    33554432 cpu:         2.3
 (Enter /home/proyectos/fulerenos/M3C-v2.0/M3C-deps_CCC/g09-AM64L-G09RevC.01/l1102.exe)
 Symmetrizing basis deriv contribution to polar:
 IMax=3 JMax=2 DiffMx= 0.00D+00
 Leave Link 1102 at Thu Jan 31 05:52:32 2019, MaxMem=    33554432 cpu:         0.2
 (Enter /home/proyectos/fulerenos/M3C-v2.0/M3C-deps_CCC/g09-AM64L-G09RevC.01/l1110.exe)
 Forming Gx(P) for the SCF density, NAtomX=     8.
 Integral derivatives from FoFJK, PRISM(SPDF).
 Do as many integral derivatives as possible in FoFJK.
 G2DrvN: MDV=      33554264.
 G2DrvN: will do     9 centers at a time, making    1 passes.
 Calling FoFCou, ICntrl=  3107 FMM=F I1Cent=   0 AccDes= 0.00D+00.
 FoFJK:  IHMeth= 1 ICntrl=    3107 DoSepK=F KAlg= 0 I1Cent=   0 FoldK=F
 IRaf=         0 NMat=   1 IRICut=       1 DoRegI=T DoRafI=F ISym2E= 1.
 FoFCou: FMM=F IPFlag=           0 FMFlag=      100000 FMFlg1=           0
         NFxFlg=           0 DoJE=F BraDBF=F KetDBF=F FulRan=T
         wScrn=  0.000000 ICntrl=    3107 IOpCl=  1 I1Cent=           0 NGrid=           0
         NMat0=    1 NMatS0=      1 NMatT0=    0 NMatD0=    1 NMtDS0=    0 NMtDT0=    0
 Petite list used in FoFCou.
 End of G2Drv F.D. properties file   721 does not exist.
 End of G2Drv F.D. properties file   722 does not exist.
 End of G2Drv F.D. properties file   788 does not exist.
 Leave Link 1110 at Thu Jan 31 05:54:23 2019, MaxMem=    33554432 cpu:       407.7
 (Enter /home/proyectos/fulerenos/M3C-v2.0/M3C-deps_CCC/g09-AM64L-G09RevC.01/l1002.exe)
 Minotr:  UHF open shell wavefunction.
          IDoAtm=11111111
          Direct CPHF calculation.
          Differentiating once with respect to electric field.
                with respect to dipole field.
          Differentiating once with respect to nuclear coordinates.
          Using symmetry in CPHF.
          Requested convergence is 1.0D-08 RMS, and 1.0D-07 maximum.
          Secondary convergence is 1.0D-12 RMS, and 1.0D-12 maximum.
          NewPWx=T KeepS1=F KeepF1=F KeepIn=T MapXYZ=F SortEE=F KeepMc=T.
          MDV=      33553898 using IRadAn=       2.
 Generate precomputed XC quadrature information.
          Solving linear equations simultaneously, MaxMat=       0.
 FoFJK:  IHMeth= 1 ICntrl=       0 DoSepK=F KAlg= 0 I1Cent=   0 FoldK=F
 IRaf= 990000000 NMat=  24 IRICut=      60 DoRegI=T DoRafI=T ISym2E= 2.
 FoFCou: FMM=F IPFlag=           0 FMFlag=      100000 FMFlg1=           0
         NFxFlg=           0 DoJE=F BraDBF=F KetDBF=F FulRan=T
         wScrn=  0.000000 ICntrl=       0 IOpCl=  1 I1Cent=           0 NGrid=           0
         NMat0=   24 NMatS0=     24 NMatT0=    0 NMatD0=   24 NMtDS0=    0 NMtDT0=    0
 Integrals replicated using symmetry in FoFCou.
          There are    24 degrees of freedom in the 1st order CPHF.  IDoFFX=4 NUNeed=    24.
     24 vectors produced by pass  0 Test12= 2.70D-14 4.17D-09 XBig12= 1.55D+02 5.97D+00.
 AX will form    24 AO Fock derivatives at one time.
     24 vectors produced by pass  1 Test12= 2.70D-14 4.17D-09 XBig12= 3.82D+01 1.53D+00.
     24 vectors produced by pass  2 Test12= 2.70D-14 4.17D-09 XBig12= 1.05D+00 2.44D-01.
     24 vectors produced by pass  3 Test12= 2.70D-14 4.17D-09 XBig12= 1.81D-02 3.07D-02.
     24 vectors produced by pass  4 Test12= 2.70D-14 4.17D-09 XBig12= 1.86D-04 2.61D-03.
     24 vectors produced by pass  5 Test12= 2.70D-14 4.17D-09 XBig12= 1.34D-06 2.25D-04.
     24 vectors produced by pass  6 Test12= 2.70D-14 4.17D-09 XBig12= 8.76D-09 1.34D-05.
     12 vectors produced by pass  7 Test12= 2.70D-14 4.17D-09 XBig12= 3.80D-11 8.11D-07.
      3 vectors produced by pass  8 Test12= 2.70D-14 4.17D-09 XBig12= 2.26D-13 5.22D-08.
      3 vectors produced by pass  9 Test12= 2.70D-14 4.17D-09 XBig12= 3.64D-14 4.02D-08.
      1 vectors produced by pass 10 Test12= 2.70D-14 4.17D-09 XBig12= 3.35D-16 4.99D-09.
 InvSVY:  IOpt=1 It=  1 EMax= 8.88D-15
 Solved reduced A of dimension   187 with    24 vectors.
 FullF1:  Do perturbations    1 to    24.
 Isotropic polarizability for W=    0.000000       40.34 Bohr**3.
 End of Minotr F.D. properties file   721 does not exist.
 End of Minotr F.D. properties file   722 does not exist.
 End of Minotr F.D. properties file   788 does not exist.
 Leave Link 1002 at Thu Jan 31 06:00:52 2019, MaxMem=    33554432 cpu:      1543.6
 (Enter /home/proyectos/fulerenos/M3C-v2.0/M3C-deps_CCC/g09-AM64L-G09RevC.01/l601.exe)
 Copying SCF densities to generalized density rwf, IOpCl= 1 IROHF=0.

 **********************************************************************

            Population analysis using the SCF density.

 **********************************************************************

 Orbital symmetries:
 Alpha Orbitals:
       Occupied  (A') (A') (A') (A') (A') (A') (A') (A') (A') (A')
                 (A') (A") (A') (A") (A') (A') (A")
       Virtual   (A') (A") (A") (A') (A') (A') (A") (A') (A') (A')
                 (A') (A") (A') (A") (A') (A") (A') (A') (A') (A")
                 (A') (A') (A") (A") (A') (A') (A') (A') (A') (A')
                 (A') (A") (A') (A') (A") (A') (A') (A') (A") (A')
                 (A") (A') (A") (A') (A') (A') (A") (A") (A') (A')
                 (A") (A') (A") (A') (A') (A') (A") (A") (A") (A')
                 (A') (A') (A') (A") (A') (A') (A') (A") (A') (A")
                 (A') (A') (A") (A') (A') (A') (A") (A') (A') (A')
                 (A") (A') (A') (A") (A') (A") (A") (A') (A") (A')
                 (A") (A') (A') (A") (A') (A') (A') (A') (A') (A")
                 (A') (A") (A') (A') (A") (A") (A') (A') (A") (A')
                 (A') (A') (A") (A') (A') (A') (A") (A") (A') (A")
                 (A') (A") (A") (A') (A") (A') (A') (A") (A") (A')
                 (A') (A") (A") (A') (A') (A") (A') (A") (A') (A')
                 (A') (A") (A') (A') (A") (A') (A') (A') (A") (A")
                 (A') (A') (A') (A') (A") (A') (A') (A") (A') (A')
                 (A") (A') (A') (A") (A') (A") (A') (A") (A') (A")
                 (A') (A") (A') (A') (A') (A') (A") (A') (A") (A")
                 (A') (A") (A') (A") (A') (A") (A') (A') (A") (A')
                 (A') (A") (A") (A') (A") (A') (A') (A') (A") (A')
                 (A') (A') (A') (A') (A') (A') (A') (A')
 Beta  Orbitals:
       Occupied  (A') (A') (A') (A') (A') (A') (A') (A') (A') (A')
                 (A") (A') (A') (A")
       Virtual   (A') (A") (A') (A') (A") (A") (A') (A') (A") (A')
                 (A') (A') (A') (A') (A") (A') (A") (A') (A") (A')
                 (A') (A') (A") (A') (A") (A') (A") (A') (A') (A')
                 (A') (A') (A') (A') (A") (A') (A') (A") (A') (A')
                 (A') (A") (A') (A") (A') (A") (A') (A') (A') (A")
                 (A') (A") (A') (A") (A') (A') (A") (A') (A") (A")
                 (A') (A") (A') (A') (A') (A') (A") (A') (A') (A')
                 (A") (A') (A") (A') (A") (A') (A') (A') (A") (A')
                 (A') (A') (A') (A") (A') (A') (A") (A') (A") (A")
                 (A') (A") (A') (A") (A') (A') (A") (A') (A') (A')
                 (A') (A') (A") (A') (A") (A') (A") (A') (A') (A")
                 (A') (A") (A') (A') (A') (A") (A') (A') (A') (A")
                 (A") (A') (A") (A') (A") (A') (A") (A") (A') (A')
                 (A") (A") (A') (A') (A") (A") (A') (A') (A") (A')
                 (A') (A") (A') (A") (A') (A') (A') (A") (A') (A')
                 (A') (A") (A") (A') (A') (A') (A') (A") (A') (A')
                 (A") (A') (A') (A") (A') (A') (A") (A') (A") (A')
                 (A") (A') (A") (A') (A") (A') (A') (A') (A') (A")
                 (A') (A") (A") (A') (A") (A') (A") (A') (A") (A')
                 (A') (A") (A') (A') (A") (A") (A") (A') (A') (A')
                 (A') (A") (A') (A') (A') (A') (A') (A') (A') (A')
                 (A')
 The electronic state is 4-A".
 Alpha  occ. eigenvalues --  -10.81868 -10.80315 -10.78756 -10.77912 -10.72025
 Alpha  occ. eigenvalues --   -1.45904  -1.28976  -1.22714  -1.10056  -1.00669
 Alpha  occ. eigenvalues --   -0.98216  -0.96648  -0.91175  -0.86227  -0.84091
 Alpha  occ. eigenvalues --   -0.81770  -0.78846
 Alpha virt. eigenvalues --   -0.63348  -0.57990  -0.45273  -0.34653  -0.33363
 Alpha virt. eigenvalues --   -0.30684  -0.29570  -0.29451  -0.27140  -0.25426
 Alpha virt. eigenvalues --   -0.24747  -0.24032  -0.23823  -0.21567  -0.19541
 Alpha virt. eigenvalues --   -0.18638  -0.17574  -0.17246  -0.15272  -0.14749
 Alpha virt. eigenvalues --   -0.14682  -0.13950  -0.13798  -0.12891  -0.11807
 Alpha virt. eigenvalues --   -0.09744  -0.08894  -0.07313  -0.06697  -0.05750
 Alpha virt. eigenvalues --   -0.04260  -0.03078  -0.02706  -0.02327  -0.02074
 Alpha virt. eigenvalues --   -0.01353   0.01234   0.02572   0.02786   0.04059
 Alpha virt. eigenvalues --    0.05251   0.05848   0.07355   0.08607   0.09602
 Alpha virt. eigenvalues --    0.11236   0.12708   0.14474   0.14911   0.16750
 Alpha virt. eigenvalues --    0.17607   0.18408   0.19692   0.20608   0.21704
 Alpha virt. eigenvalues --    0.23876   0.24102   0.24226   0.24971   0.26030
 Alpha virt. eigenvalues --    0.27087   0.31577   0.35323   0.38700   0.39219
 Alpha virt. eigenvalues --    0.41443   0.42808   0.43589   0.44514   0.46969
 Alpha virt. eigenvalues --    0.50912   0.57128   0.57593   0.62548   0.63234
 Alpha virt. eigenvalues --    0.66206   0.66286   0.68373   0.74491   0.75229
 Alpha virt. eigenvalues --    0.79057   0.80146   0.81445   0.83975   0.85186
 Alpha virt. eigenvalues --    0.86131   0.87327   0.87917   0.88538   0.92362
 Alpha virt. eigenvalues --    0.95570   0.96839   0.98926   1.00842   1.02421
 Alpha virt. eigenvalues --    1.08527   1.11162   1.17093   1.24412   1.24496
 Alpha virt. eigenvalues --    1.30850   1.32612   1.37521   1.41274   1.42952
 Alpha virt. eigenvalues --    1.46143   1.46206   1.53410   1.57882   1.63427
 Alpha virt. eigenvalues --    1.66204   1.71350   1.74544   1.79742   1.96154
 Alpha virt. eigenvalues --    1.96894   2.00224   2.09507   2.12510   2.16047
 Alpha virt. eigenvalues --    2.24432   2.25646   2.29193   2.29434   2.31589
 Alpha virt. eigenvalues --    2.34285   2.36302   2.39214   2.41075   2.44991
 Alpha virt. eigenvalues --    2.47426   2.47518   2.50056   2.55224   2.56321
 Alpha virt. eigenvalues --    2.58793   2.65497   2.68908   2.69638   2.72224
 Alpha virt. eigenvalues --    2.77026   2.77659   2.80593   2.86148   2.96093
 Alpha virt. eigenvalues --    2.96302   3.09957   3.11995   3.13415   3.17671
 Alpha virt. eigenvalues --    3.21901   3.25266   3.40252   3.41172   3.44716
 Alpha virt. eigenvalues --    3.49553   3.49599   3.62223   3.66172   3.73674
 Alpha virt. eigenvalues --    3.73941   3.76563   3.80647   3.85764   3.85886
 Alpha virt. eigenvalues --    3.96885   4.07782   4.09541   4.17715   4.21842
 Alpha virt. eigenvalues --    4.24077   4.25176   4.50678   4.68574   4.92383
 Alpha virt. eigenvalues --    5.08109   5.10154   5.35718   6.42877   6.44083
 Alpha virt. eigenvalues --    6.48155   6.52379   6.55148   6.57415   6.61501
 Alpha virt. eigenvalues --    6.62897   6.71115   6.76163   6.77382   6.87570
 Alpha virt. eigenvalues --    6.90494   6.91378   7.00946   7.10122   7.11391
 Alpha virt. eigenvalues --    7.24613   7.31141   7.48032   7.51670   7.57360
 Alpha virt. eigenvalues --    7.77585   8.04823   8.40377  23.24294  23.82986
 Alpha virt. eigenvalues --   24.36928  24.83707  25.47415
  Beta  occ. eigenvalues --  -10.81624 -10.77799 -10.77002 -10.76707 -10.71865
  Beta  occ. eigenvalues --   -1.42539  -1.24691  -1.20749  -1.07939  -0.99032
  Beta  occ. eigenvalues --   -0.94127  -0.92419  -0.89321  -0.84303
  Beta virt. eigenvalues --   -0.69133  -0.66627  -0.62452  -0.58613  -0.51783
  Beta virt. eigenvalues --   -0.39986  -0.34367  -0.31282  -0.29279  -0.29001
  Beta virt. eigenvalues --   -0.28237  -0.26384  -0.24613  -0.24106  -0.23517
  Beta virt. eigenvalues --   -0.22154  -0.20834  -0.18898  -0.17814  -0.16842
  Beta virt. eigenvalues --   -0.16346  -0.14549  -0.14244  -0.14195  -0.13293
  Beta virt. eigenvalues --   -0.12956  -0.12776  -0.10870  -0.08356  -0.08219
  Beta virt. eigenvalues --   -0.06632  -0.06064  -0.04442  -0.03395  -0.02044
  Beta virt. eigenvalues --   -0.01955  -0.01709  -0.01495  -0.00900   0.02905
  Beta virt. eigenvalues --    0.03508   0.03714   0.04726   0.06706   0.06740
  Beta virt. eigenvalues --    0.08110   0.09599   0.10913   0.13496   0.14444
  Beta virt. eigenvalues --    0.15701   0.15733   0.17826   0.18914   0.20268
  Beta virt. eigenvalues --    0.21830   0.22004   0.22647   0.24456   0.25021
  Beta virt. eigenvalues --    0.25221   0.25692   0.27303   0.28259   0.32075
  Beta virt. eigenvalues --    0.36841   0.39883   0.40140   0.42288   0.43734
  Beta virt. eigenvalues --    0.44709   0.45319   0.47634   0.51727   0.58001
  Beta virt. eigenvalues --    0.58201   0.63375   0.64004   0.66813   0.66947
  Beta virt. eigenvalues --    0.69531   0.75253   0.76501   0.80457   0.81493
  Beta virt. eigenvalues --    0.83290   0.85476   0.86341   0.87494   0.88567
  Beta virt. eigenvalues --    0.90680   0.91348   0.95288   0.98401   0.99450
  Beta virt. eigenvalues --    1.00731   1.03410   1.03588   1.10711   1.13194
  Beta virt. eigenvalues --    1.19285   1.26760   1.27181   1.33120   1.36284
  Beta virt. eigenvalues --    1.40425   1.44754   1.45104   1.48222   1.51200
  Beta virt. eigenvalues --    1.59611   1.60527   1.65803   1.70038   1.73374
  Beta virt. eigenvalues --    1.78096   1.83204   1.98657   1.99648   2.02245
  Beta virt. eigenvalues --    2.11673   2.14853   2.21004   2.27663   2.27827
  Beta virt. eigenvalues --    2.31061   2.32695   2.34122   2.36621   2.38432
  Beta virt. eigenvalues --    2.43239   2.44301   2.48231   2.50225   2.50588
  Beta virt. eigenvalues --    2.52356   2.57768   2.58934   2.60500   2.67869
  Beta virt. eigenvalues --    2.71438   2.71962   2.75280   2.79313   2.79627
  Beta virt. eigenvalues --    2.84013   2.89773   2.97773   2.98789   3.12628
  Beta virt. eigenvalues --    3.14806   3.16119   3.21934   3.24083   3.27994
  Beta virt. eigenvalues --    3.41788   3.43616   3.46932   3.51166   3.53558
  Beta virt. eigenvalues --    3.64306   3.69297   3.76096   3.77246   3.78171
  Beta virt. eigenvalues --    3.82003   3.87534   3.88190   3.99559   4.08808
  Beta virt. eigenvalues --    4.10309   4.18988   4.23002   4.26261   4.27590
  Beta virt. eigenvalues --    4.52712   4.72113   4.93543   5.09333   5.10646
  Beta virt. eigenvalues --    5.37537   6.46306   6.47322   6.49880   6.56593
  Beta virt. eigenvalues --    6.59831   6.61113   6.64984   6.67979   6.75801
  Beta virt. eigenvalues --    6.81964   6.83716   6.90745   6.93186   6.94508
  Beta virt. eigenvalues --    7.03962   7.13799   7.14304   7.28715   7.33259
  Beta virt. eigenvalues --    7.50463   7.52864   7.59815   7.81425   8.07207
  Beta virt. eigenvalues --    8.43020  23.25945  23.83307  24.38546  24.86133
  Beta virt. eigenvalues --   25.48579
          Condensed to atoms (all electrons):
               1          2          3          4          5          6
     1  C    5.929147   0.402444   0.402444  -0.226307  -0.125207  -0.188016
     2  H    0.402444   0.362971  -0.022022  -0.027996   0.004674   0.001220
     3  H    0.402444  -0.022022   0.362971  -0.027996   0.004674   0.001220
     4  C   -0.226307  -0.027996  -0.027996   7.895586  -1.203092   0.259490
     5  C   -0.125207   0.004674   0.004674  -1.203092   7.478519  -0.198345
     6  C   -0.188016   0.001220   0.001220   0.259490  -0.198345   5.980860
     7  H   -0.010674  -0.001734  -0.001734  -0.008814  -0.008781   0.397314
     8  C    0.232883   0.000508   0.000508  -1.063394  -0.701825  -0.315333
               7          8
     1  C   -0.010674   0.232883
     2  H   -0.001734   0.000508
     3  H   -0.001734   0.000508
     4  C   -0.008814  -1.063394
     5  C   -0.008781  -0.701825
     6  C    0.397314  -0.315333
     7  H    0.382679  -0.067597
     8  C   -0.067597   7.590239
          Atomic-Atomic Spin Densities.
               1          2          3          4          5          6
     1  C    0.133144   0.015401   0.015401  -0.310340   0.082686  -0.106066
     2  H    0.015401   0.012677   0.001864  -0.016949   0.008215  -0.004023
     3  H    0.015401   0.001864   0.012677  -0.016949   0.008215  -0.004023
     4  C   -0.310340  -0.016949  -0.016949   2.812374  -0.747506   0.160826
     5  C    0.082686   0.008215   0.008215  -0.747506   1.241937   0.047200
     6  C   -0.106066  -0.004023  -0.004023   0.160826   0.047200   0.741178
     7  H   -0.000876   0.000538   0.000538  -0.003190   0.003283   0.023833
     8  C    0.180581  -0.003771  -0.003771  -0.471006  -0.813673  -0.337595
               7          8
     1  C   -0.000876   0.180581
     2  H    0.000538  -0.003771
     3  H    0.000538  -0.003771
     4  C   -0.003190  -0.471006
     5  C    0.003283  -0.813673
     6  C    0.023833  -0.337595
     7  H    0.007158  -0.005352
     8  C   -0.005352   2.631871
 Mulliken charges and spin densities:
               1          2
     1  C   -0.416714   0.009931
     2  H    0.279935   0.013952
     3  H    0.279935   0.013952
     4  C    0.402523   1.407261
     5  C    0.749382  -0.169643
     6  C    0.061589   0.521330
     7  H    0.319340   0.025932
     8  C    0.324011   1.177284
 Sum of Mulliken charges =   2.00000   3.00000
 Mulliken charges and spin densities with hydrogens summed into heavy atoms:
               1          2
     1  C    0.143155   0.037836
     4  C    0.402523   1.407261
     5  C    0.749382  -0.169643
     6  C    0.380929   0.547262
     8  C    0.324011   1.177284
 APT charges:
               1
     1  C   -0.129790
     2  H    0.249745
     3  H    0.249745
     4  C    0.355033
     5  C    0.518243
     6  C    0.169035
     7  H    0.313758
     8  C    0.274231
 Sum of APT charges =   2.00000
 APT charges with hydrogens summed into heavy atoms:
               1
     1  C    0.369700
     4  C    0.355033
     5  C    0.518243
     6  C    0.482793
     8  C    0.274231
 Electronic spatial extent (au):  <R**2>=            238.0484
 Charge=              2.0000 electrons
 Dipole moment (field-independent basis, Debye):
    X=             -0.4748    Y=              0.5899    Z=             -0.0000  Tot=              0.7573
 Quadrupole moment (field-independent basis, Debye-Ang):
   XX=            -10.9196   YY=             -9.4457   ZZ=            -22.3634
   XY=             -0.9575   XZ=              0.0000   YZ=              0.0000
 Traceless Quadrupole moment (field-independent basis, Debye-Ang):
   XX=              3.3233   YY=              4.7972   ZZ=             -8.1205
   XY=             -0.9575   XZ=              0.0000   YZ=              0.0000
 Octapole moment (field-independent basis, Debye-Ang**2):
  XXX=             -5.2991  YYY=              9.4895  ZZZ=             -0.0000  XYY=              0.5418
  XXY=              0.2541  XXZ=              0.0000  XZZ=             -4.5562  YZZ=              1.2648
  YYZ=              0.0000  XYZ=              0.0000
 Hexadecapole moment (field-independent basis, Debye-Ang**3):
 XXXX=           -109.1030 YYYY=            -82.2924 ZZZZ=            -25.6258 XXXY=             -9.3623
 XXXZ=              0.0000 YYYX=             -5.3640 YYYZ=              0.0000 ZZZX=             -0.0000
 ZZZY=             -0.0000 XXYY=            -40.4848 XXZZ=            -20.4227 YYZZ=            -26.5740
 XXYZ=              0.0000 YYXZ=              0.0000 ZZXY=             -2.7910
 N-N= 1.323217504189D+02 E-N=-6.917743483947D+02  KE= 1.903488949978D+02
 Symmetry A'   KE= 1.845027332586D+02
 Symmetry A"   KE= 5.846161739151D+00
  Exact polarizability:  47.674   1.446  47.179   0.000  -0.000  26.169
 Approx polarizability:  95.440   4.200  95.266   0.000  -0.000  38.852
                          Isotropic Fermi Contact Couplings
        Atom                 a.u.       MegaHertz       Gauss      10(-4) cm-1
     1  C(13)              0.03296      12.34936       4.40656       4.11930
     2  H(1)               0.00730      10.88152       3.88280       3.62968
     3  H(1)               0.00730      10.88152       3.88280       3.62968
     4  C(13)              0.74501     279.17796      99.61764      93.12374
     5  C(13)              0.02589       9.70098       3.46155       3.23590
     6  C(13)              0.09423      35.31258      12.60041      11.77901
     7  H(1)               0.01419      21.14517       7.54512       7.05327
     8  C(13)              0.64700     242.45029      86.51229      80.87271
 --------------------------------------------------------
       Center         ----  Spin Dipole Couplings  ----
                      3XX-RR        3YY-RR        3ZZ-RR
 --------------------------------------------------------
     1   Atom        0.209892     -0.071554     -0.138338
     2   Atom        0.006517     -0.005307     -0.001210
     3   Atom        0.006517     -0.005307     -0.001210
     4   Atom       -0.397210      0.281788      0.115422
     5   Atom        0.150202      0.072625     -0.222827
     6   Atom       -0.250422     -0.186820      0.437242
     7   Atom       -0.035451      0.062904     -0.027453
     8   Atom        0.703244     -0.477847     -0.225398
 --------------------------------------------------------
                        XY            XZ            YZ
 --------------------------------------------------------
     1   Atom        0.062735      0.000000     -0.000000
     2   Atom       -0.010192      0.018503     -0.015480
     3   Atom       -0.010192     -0.018503      0.015480
     4   Atom        0.662638     -0.000000      0.000000
     5   Atom       -0.028162      0.000000     -0.000000
     6   Atom        0.101017      0.000000     -0.000000
     7   Atom       -0.032869     -0.000000     -0.000000
     8   Atom        0.479730     -0.000000     -0.000000
 --------------------------------------------------------


 ---------------------------------------------------------------------------------
              Anisotropic Spin Dipole Couplings in Principal Axis System
 ---------------------------------------------------------------------------------

       Atom             a.u.   MegaHertz   Gauss  10(-4) cm-1        Axes

              Baa    -0.1383   -18.564    -6.624    -6.192  0.0000  0.0000  1.0000
     1 C(13)  Bbb    -0.0849   -11.393    -4.065    -3.800 -0.2081  0.9781 -0.0000
              Bcc     0.2232    29.957    10.689     9.993  0.9781  0.2081  0.0000
 
              Baa    -0.0204   -10.860    -3.875    -3.623 -0.3050  0.5747  0.7594
     2 H(1)   Bbb    -0.0101    -5.389    -1.923    -1.798  0.6883  0.6841 -0.2413
              Bcc     0.0305    16.249     5.798     5.420  0.6582 -0.4491  0.6042
 
              Baa    -0.0204   -10.860    -3.875    -3.623  0.3050 -0.5747  0.7594
     3 H(1)   Bbb    -0.0101    -5.389    -1.923    -1.798  0.6883  0.6841  0.2413
              Bcc     0.0305    16.249     5.798     5.420  0.6582 -0.4491 -0.6042
 
              Baa    -0.8023  -107.655   -38.414   -35.910  0.8532 -0.5215  0.0000
     4 C(13)  Bbb     0.1154    15.489     5.527     5.166  0.0000  0.0000  1.0000
              Bcc     0.6868    92.167    32.887    30.743  0.5215  0.8532  0.0000
 
              Baa    -0.2228   -29.901   -10.669    -9.974  0.0000  0.0000  1.0000
     5 C(13)  Bbb     0.0635     8.518     3.040     2.841  0.3089  0.9511 -0.0000
              Bcc     0.1593    21.383     7.630     7.133  0.9511 -0.3089  0.0000
 
              Baa    -0.3245   -43.548   -15.539   -14.526  0.8063 -0.5915  0.0000
     6 C(13)  Bbb    -0.1127   -15.125    -5.397    -5.045  0.5915  0.8063  0.0000
              Bcc     0.4372    58.674    20.936    19.571  0.0000  0.0000  1.0000
 
              Baa    -0.0454   -24.236    -8.648    -8.084  0.9569  0.2904 -0.0000
     7 H(1)   Bbb    -0.0275   -14.648    -5.227    -4.886  0.0000  0.0000  1.0000
              Bcc     0.0729    38.884    13.875    12.970 -0.2904  0.9569 -0.0000
 
              Baa    -0.6481   -86.975   -31.035   -29.012 -0.3345  0.9424 -0.0000
     8 C(13)  Bbb    -0.2254   -30.246   -10.793   -10.089  0.0000  0.0000  1.0000
              Bcc     0.8735   117.221    41.827    39.101  0.9424  0.3345 -0.0000
 

 ---------------------------------------------------------------------------------

 No NMR shielding tensors so no spin-rotation constants.
 Leave Link  601 at Thu Jan 31 06:00:52 2019, MaxMem=    33554432 cpu:         2.0
 (Enter /home/proyectos/fulerenos/M3C-v2.0/M3C-deps_CCC/g09-AM64L-G09RevC.01/l701.exe)
 Compute integral second derivatives.
 ... and contract with generalized density number  0.
 Leave Link  701 at Thu Jan 31 06:00:52 2019, MaxMem=    33554432 cpu:         1.4
 (Enter /home/proyectos/fulerenos/M3C-v2.0/M3C-deps_CCC/g09-AM64L-G09RevC.01/l702.exe)
 L702 exits ... SP integral derivatives will be done elsewhere.
 Leave Link  702 at Thu Jan 31 06:00:52 2019, MaxMem=    33554432 cpu:         0.1
 (Enter /home/proyectos/fulerenos/M3C-v2.0/M3C-deps_CCC/g09-AM64L-G09RevC.01/l703.exe)
 Compute integral second derivatives, UseDBF=F ICtDFT=           0.
 Integral derivatives from FoFJK, PRISM(SPDF).
 Calling FoFJK, ICntrl=    100127 FMM=F ISym2X=1 I1Cent= 0 IOpClX= 1 NMat=1 NMatS=1 NMatT=0.
 FoFJK:  IHMeth= 1 ICntrl=  100127 DoSepK=F KAlg= 0 I1Cent=   0 FoldK=F
 IRaf=         0 NMat=   1 IRICut=       1 DoRegI=T DoRafI=F ISym2E= 1.
 FoFCou: FMM=F IPFlag=           0 FMFlag=      100000 FMFlg1=         800
         NFxFlg=           0 DoJE=F BraDBF=F KetDBF=F FulRan=T
         wScrn=  0.000000 ICntrl=  100127 IOpCl=  1 I1Cent=           0 NGrid=           0
         NMat0=    1 NMatS0=      1 NMatT0=    0 NMatD0=    1 NMtDS0=    0 NMtDT0=    0
 Petite list used in FoFCou.
 Leave Link  703 at Thu Jan 31 06:02:19 2019, MaxMem=    33554432 cpu:       347.2
 (Enter /home/proyectos/fulerenos/M3C-v2.0/M3C-deps_CCC/g09-AM64L-G09RevC.01/l716.exe)
 Dipole        =-1.86819990D-01 2.32080161D-01-1.00505541D-16
 Polarizability= 4.76740413D+01 1.44606130D+00 4.71786787D+01
                 1.21309264D-08-7.33512498D-08 2.61689434D+01
 Full mass-weighted force constant matrix:
 Low frequencies ---   -1.1012   -0.0004   -0.0003    0.0019    8.7623   13.9805
 Low frequencies ---  330.1334  409.9953  514.4115
 Diagonal vibrational polarizability:
        2.7425515       3.3292801       2.8278600
 Harmonic frequencies (cm**-1), IR intensities (KM/Mole), Raman scattering
 activities (A**4/AMU), depolarization ratios for plane and unpolarized
 incident light, reduced masses (AMU), force constants (mDyne/A),
 and normal coordinates:
                      1                      2                      3
                     A"                     A"                     A'
 Frequencies --    330.1328               409.9952               514.4112
 Red. masses --      2.0602                 7.7099                 6.9708
 Frc consts  --      0.1323                 0.7636                 1.0868
 IR Inten    --      0.2143                 0.0120                 7.7725
  Atom  AN      X      Y      Z        X      Y      Z        X      Y      Z
     1   6    -0.00   0.00  -0.11     0.00  -0.00   0.06    -0.39  -0.12   0.00
     2   1     0.42  -0.10  -0.40     0.12   0.16  -0.01    -0.41   0.09   0.05
     3   1    -0.42   0.10  -0.40    -0.12  -0.16  -0.01    -0.41   0.09  -0.05
     4   6     0.00   0.00   0.18    -0.00  -0.00  -0.32     0.00   0.40  -0.00
     5   6     0.00  -0.00  -0.07    -0.00   0.00   0.56     0.17   0.08   0.00
     6   6    -0.00  -0.00   0.17     0.00   0.00   0.08     0.02  -0.33   0.00
     7   1     0.00  -0.00   0.46    -0.00   0.00   0.56     0.09  -0.31  -0.00
     8   6    -0.00  -0.00  -0.14     0.00   0.00  -0.42     0.27  -0.01  -0.00
                      4                      5                      6
                     A'                     A"                     A'
 Frequencies --    543.3349               688.2610               706.0461
 Red. masses --     10.7327                 1.2207                 5.4644
 Frc consts  --      1.8668                 0.3407                 1.6049
 IR Inten    --     12.0840                38.8177                 0.4845
  Atom  AN      X      Y      Z        X      Y      Z        X      Y      Z
     1   6    -0.08  -0.34  -0.00     0.00   0.00  -0.12    -0.30  -0.19  -0.00
     2   1     0.16  -0.14  -0.10    -0.45  -0.03   0.17    -0.17  -0.31  -0.09
     3   1     0.16  -0.14   0.10     0.45   0.03   0.17    -0.17  -0.31   0.09
     4   6    -0.19  -0.28   0.00    -0.00   0.00   0.06     0.07   0.05   0.00
     5   6    -0.42   0.48  -0.00    -0.00   0.00   0.01     0.09  -0.15   0.00
     6   6     0.35   0.02  -0.00    -0.00  -0.00  -0.04     0.26   0.39  -0.00
     7   1    -0.01  -0.01   0.00    -0.00  -0.00   0.72     0.39   0.43   0.00
     8   6     0.32   0.13   0.00     0.00   0.00   0.00    -0.12  -0.09  -0.00
                      7                      8                      9
                     A"                     A'                     A'
 Frequencies --    870.9197               884.6952              1068.8081
 Red. masses --      1.7452                 5.7387                 1.1383
 Frc consts  --      0.7799                 2.6464                 0.7662
 IR Inten    --      0.1101                 1.5362                23.5312
  Atom  AN      X      Y      Z        X      Y      Z        X      Y      Z
     1   6    -0.00   0.00   0.15     0.31  -0.35   0.00     0.06   0.03  -0.00
     2   1     0.35  -0.28  -0.14     0.26  -0.24   0.03    -0.18  -0.46   0.06
     3   1    -0.35   0.28  -0.14     0.26  -0.24  -0.03    -0.18  -0.46  -0.06
     4   6     0.00  -0.00  -0.05    -0.18   0.40  -0.00    -0.00   0.03   0.00
     5   6     0.00  -0.00  -0.02    -0.05  -0.03  -0.00    -0.04   0.05  -0.00
     6   6    -0.00   0.00  -0.19    -0.01   0.07  -0.00    -0.05  -0.02  -0.00
     7   1     0.00   0.00   0.70    -0.56  -0.00   0.00     0.70   0.07  -0.00
     8   6     0.00  -0.00   0.07    -0.07  -0.05   0.00     0.00  -0.01   0.00
                     10                     11                     12
                     A"                     A'                     A'
 Frequencies --   1086.0843              1144.3824              1235.4157
 Red. masses --      1.0960                 1.6953                 2.1446
 Frc consts  --      0.7617                 1.3081                 1.9285
 IR Inten    --      1.8570                16.6223                20.3782
  Atom  AN      X      Y      Z        X      Y      Z        X      Y      Z
     1   6    -0.00  -0.00   0.00     0.01  -0.10   0.00     0.05  -0.12  -0.00
     2   1     0.17   0.67   0.01     0.23   0.44  -0.04    -0.26   0.43   0.29
     3   1    -0.17  -0.67   0.01     0.23   0.44   0.04    -0.26   0.43  -0.29
     4   6     0.00  -0.00   0.05     0.04   0.02  -0.00    -0.11  -0.06   0.00
     5   6     0.00  -0.00  -0.00     0.02   0.08   0.00     0.05  -0.09  -0.00
     6   6     0.00   0.00  -0.07     0.03  -0.08  -0.00    -0.14   0.11   0.00
     7   1    -0.00  -0.00   0.17     0.67  -0.01   0.00     0.42   0.20  -0.00
     8   6     0.00   0.00   0.01    -0.19   0.01   0.00     0.16   0.07   0.00
                     13                     14                     15
                     A'                     A'                     A'
 Frequencies --   1301.0562              1309.3134              1541.3551
 Red. masses --      4.9229                 1.5962                 7.8986
 Frc consts  --      4.9098                 1.6122                11.0562
 IR Inten    --     54.2488                25.4602                 0.4157
  Atom  AN      X      Y      Z        X      Y      Z        X      Y      Z
     1   6    -0.03   0.03   0.00    -0.07  -0.01  -0.00    -0.03   0.04   0.00
     2   1     0.32  -0.32  -0.28     0.54  -0.03  -0.39     0.27  -0.18  -0.26
     3   1     0.32  -0.32   0.28     0.54  -0.03   0.39     0.27  -0.18   0.26
     4   6    -0.29  -0.04   0.00     0.05   0.03   0.00    -0.38  -0.14   0.00
     5   6     0.15  -0.22   0.00    -0.06  -0.05  -0.00     0.48   0.34   0.00
     6   6     0.14  -0.12  -0.00    -0.15   0.05   0.00    -0.10   0.09  -0.00
     7   1     0.24  -0.14   0.00     0.24   0.10  -0.00    -0.08   0.13   0.00
     8   6    -0.04   0.41   0.00     0.12  -0.02  -0.00    -0.01  -0.31   0.00
                     16                     17                     18
                     A'                     A"                     A'
 Frequencies --   2896.6320              2962.9915              3029.2010
 Red. masses --      1.0508                 1.1079                 1.0924
 Frc consts  --      5.1946                 5.7306                 5.9058
 IR Inten    --    247.4635               170.1303               267.6983
  Atom  AN      X      Y      Z        X      Y      Z        X      Y      Z
     1   6    -0.06   0.02   0.00    -0.00   0.00  -0.10     0.01   0.00  -0.00
     2   1     0.37  -0.11   0.59     0.39  -0.11   0.58    -0.04   0.01  -0.07
     3   1     0.37  -0.11  -0.59    -0.39   0.11   0.58    -0.04   0.01   0.07
     4   6    -0.00   0.00  -0.00    -0.00  -0.00  -0.00     0.00   0.00  -0.00
     5   6     0.00   0.00   0.00     0.00   0.00   0.00    -0.00  -0.00   0.00
     6   6    -0.00  -0.01  -0.00    -0.00   0.00  -0.00     0.01  -0.09  -0.00
     7   1    -0.02   0.10   0.00     0.00  -0.00   0.00    -0.12   0.98   0.00
     8   6    -0.00  -0.00  -0.00     0.00   0.00  -0.00    -0.00   0.00   0.00

 -------------------
 - Thermochemistry -
 -------------------
 Temperature   298.150 Kelvin.  Pressure   1.00000 Atm.
 Atom     1 has atomic number  6 and mass  12.00000
 Atom     2 has atomic number  1 and mass   1.00783
 Atom     3 has atomic number  1 and mass   1.00783
 Atom     4 has atomic number  6 and mass  12.00000
 Atom     5 has atomic number  6 and mass  12.00000
 Atom     6 has atomic number  6 and mass  12.00000
 Atom     7 has atomic number  1 and mass   1.00783
 Atom     8 has atomic number  6 and mass  12.00000
 Molecular mass:    63.02348 amu.
 Principal axes and moments of inertia in atomic units:
                           1         2         3
     Eigenvalues --   169.40485 203.23526 360.40699
           X            0.77798  -0.62829   0.00000
           Y            0.62829   0.77798   0.00000
           Z            0.00000   0.00000   1.00000
 This molecule is an asymmetric top.
 Rotational symmetry number  1.
 Rotational temperatures (Kelvin)      0.51128     0.42618     0.24032
 Rotational constants (GHZ):          10.65342     8.88006     5.00751
 Zero-point vibrational energy     134717.7 (Joules/Mol)
                                   32.19830 (Kcal/Mol)
 Warning -- explicit consideration of   4 degrees of freedom as
           vibrations may cause significant error
 Vibrational temperatures:    474.99   589.89   740.12   781.74   990.25
          (Kelvin)           1015.84  1253.06  1272.88  1537.77  1562.63
                             1646.51  1777.49  1871.93  1883.81  2217.66
                             4167.60  4263.08  4358.34
 
 Zero-point correction=                           0.051311 (Hartree/Particle)
 Thermal correction to Energy=                    0.055696
 Thermal correction to Enthalpy=                  0.056640
 Thermal correction to Gibbs Free Energy=         0.023520
 Sum of electronic and zero-point Energies=           -191.108909
 Sum of electronic and thermal Energies=              -191.104524
 Sum of electronic and thermal Enthalpies=            -191.103579
 Sum of electronic and thermal Free Energies=         -191.136700
 
                     E (Thermal)             CV                S
                      KCal/Mol        Cal/Mol-Kelvin    Cal/Mol-Kelvin
 Total                   34.950             15.513             69.709
 Electronic               0.000              0.000              2.755
 Translational            0.889              2.981             38.342
 Rotational               0.889              2.981             24.032
 Vibrational             33.172              9.551              4.580
 Vibration     1          0.713              1.615              1.259
 Vibration     2          0.774              1.449              0.927
 Vibration     3          0.869              1.218              0.623
 Vibration     4          0.898              1.154              0.558
                       Q            Log10(Q)             Ln(Q)
 Total Bot       0.151972D-10        -10.818236        -24.909909
 Total V=0       0.607087D+13         12.783251         29.434523
 Vib (Bot)       0.484495D-23        -23.314710        -53.684104
 Vib (Bot)    1  0.565927D+00         -0.247240         -0.569290
 Vib (Bot)    2  0.431524D+00         -0.364995         -0.840432
 Vib (Bot)    3  0.315389D+00         -0.501154         -1.153950
 Vib (Bot)    4  0.290677D+00         -0.536590         -1.235544
 Vib (V=0)       0.193543D+01          0.286777          0.660327
 Vib (V=0)    1  0.125516D+01          0.098701          0.227267
 Vib (V=0)    2  0.116046D+01          0.064632          0.148820
 Vib (V=0)    3  0.109116D+01          0.037888          0.087241
 Vib (V=0)    4  0.107835D+01          0.032761          0.075435
 Electronic      0.400000D+01          0.602060          1.386294
 Translational   0.196657D+08          7.293709         16.794385
 Rotational      0.398754D+05          4.600705         10.593516
 
                                                              b3lyp opt
                                                             IR Spectrum
 
     3  2  2                                                        1        11  1   1 11                                            
     0  9  8                                                        5        33  2   1 00      88      76     55   4   3             
     2  6  9                                                        4        00  3   4 86      87      08     41   1   3             
     9  3  7                                                        1        91  5   4 69      51      68     34   0   0             
 
     X  X  X                                                        X        XX  X   X XX      XX      XX     XX       X             
     X  X  X                                                                 XX  X      X               X                            
     X  X  X                                                                  X                         X                            
     X  X  X                                                                  X                                                      
     X  X  X                                                                                                                         
     X  X  X                                                                                                                         
     X  X  X                                                                                                                         
     X  X  X                                                                                                                         
     X  X  X                                                                                                                         
     X  X  X                                                                                                                         
     X  X  X                                                                                                                         
     X  X  X                                                                                                                         
     X  X  X                                                                                                                         
     X     X                                                                                                                         
     X     X                                                                                                                         
     X     X                                                                                                                         
     X     X                                                                                                                         
     X     X                                                                                                                         
     X                                                                                                                               
     X                                                                                                                               
 
 ***** Axes restored to original set *****
 -------------------------------------------------------------------
 Center     Atomic                   Forces (Hartrees/Bohr)
 Number     Number              X              Y              Z
 -------------------------------------------------------------------
      1        6           0.000158549    0.000067380    0.000000000
      2        1          -0.000019467    0.000019775   -0.000037348
      3        1          -0.000019467    0.000019775    0.000037348
      4        6           0.000105800   -0.000067035    0.000000000
      5        6          -0.000036308   -0.000017658    0.000000000
      6        6          -0.000111238    0.000000052   -0.000000000
      7        1           0.000003077   -0.000005977   -0.000000000
      8        6          -0.000080946   -0.000016311    0.000000000
 -------------------------------------------------------------------
 Cartesian Forces:  Max     0.000158549 RMS     0.000054223
 Z-matrix is all fixed cartesians, so copy forces.
 Force constants in Cartesian coordinates: 
                1             2             3             4             5 
      1  0.233639D+00
      2 -0.939049D-01  0.376556D+00
      3  0.000000D+00  0.000000D+00  0.483250D+00
      4 -0.622183D-01  0.365434D-01 -0.778621D-01  0.736011D-01
      5  0.362178D-01 -0.773326D-01  0.885002D-01 -0.383638D-01  0.886368D-01
      6 -0.724565D-01  0.821196D-01 -0.207157D+00  0.809564D-01 -0.943733D-01
      7 -0.622183D-01  0.365434D-01  0.778621D-01  0.499805D-02 -0.519728D-02
      8  0.362178D-01 -0.773326D-01 -0.885002D-01 -0.519728D-02  0.630976D-02
      9  0.724565D-01 -0.821196D-01 -0.207157D+00  0.831876D-02 -0.868766D-02
     10 -0.222592D-01 -0.108517D-01  0.000000D+00  0.752922D-03  0.771872D-02
     11  0.318917D-02 -0.119371D+00  0.000000D+00  0.475307D-03 -0.248481D-01
     12  0.000000D+00  0.000000D+00 -0.340391D-01  0.620955D-02  0.176634D-01
     13 -0.240977D-02  0.495187D-01  0.000000D+00  0.507128D-02 -0.869024D-02
     14  0.331413D-01 -0.225556D-01  0.000000D+00 -0.438516D-02 -0.909051D-03
     15  0.000000D+00  0.000000D+00 -0.102757D-01 -0.535601D-03  0.103965D-02
     16 -0.498825D-01 -0.761144D-02  0.000000D+00 -0.196994D-01  0.787164D-02
     17 -0.494040D-01 -0.498901D-01  0.000000D+00  0.127127D-01  0.130904D-02
     18  0.000000D+00  0.000000D+00 -0.603369D-01 -0.204267D-01 -0.315182D-02
     19 -0.677416D-02 -0.199651D-01  0.000000D+00  0.123313D-02 -0.241878D-03
     20  0.112675D-01  0.562967D-02  0.000000D+00 -0.768026D-03  0.138803D-03
     21  0.000000D+00  0.000000D+00  0.372999D-02  0.160539D-02 -0.765833D-04
     22 -0.278773D-01  0.972747D-02  0.000000D+00 -0.373879D-02  0.685016D-03
     23  0.232753D-01 -0.357033D-01  0.000000D+00 -0.101714D-02  0.669541D-02
     24  0.000000D+00  0.000000D+00  0.319860D-01  0.173430D-02 -0.913872D-03
                6             7             8             9            10 
      6  0.220898D+00
      7 -0.831876D-02  0.736011D-01
      8  0.868766D-02 -0.383638D-01  0.886368D-01
      9 -0.143863D-01 -0.809564D-01  0.943733D-01  0.220898D+00
     10  0.537002D-03  0.752925D-03  0.771872D-02 -0.537003D-03  0.501284D+00
     11 -0.456796D-03  0.475308D-03 -0.248481D-01  0.456795D-03 -0.824865D-01
     12 -0.144073D-02 -0.620955D-02 -0.176634D-01 -0.144073D-02  0.000000D+00
     13 -0.128545D-02  0.507128D-02 -0.869024D-02  0.128545D-02 -0.384372D+00
     14  0.252048D-02 -0.438516D-02 -0.909052D-03 -0.252048D-02  0.145852D+00
     15  0.411064D-02  0.535602D-03 -0.103965D-02  0.411064D-02  0.000000D+00
     16  0.531071D-02 -0.196994D-01  0.787164D-02 -0.531071D-02 -0.194884D-01
     17  0.375282D-02  0.127127D-01  0.130904D-02 -0.375282D-02 -0.514158D-01
     18  0.295715D-03  0.204267D-01  0.315182D-02  0.295715D-03  0.000000D+00
     19 -0.157984D-02  0.123313D-02 -0.241877D-03  0.157984D-02 -0.346649D-02
     20 -0.132067D-02 -0.768027D-03  0.138803D-03  0.132067D-02  0.305210D-04
     21  0.700242D-03 -0.160539D-02  0.765834D-04  0.700242D-03  0.000000D+00
     22 -0.316351D-02 -0.373879D-02  0.685016D-03  0.316351D-02 -0.732041D-01
     23 -0.929819D-03 -0.101714D-02  0.669541D-02  0.929820D-03 -0.165662D-01
     24 -0.302064D-02 -0.173430D-02  0.913872D-03 -0.302064D-02  0.000000D+00
               11            12            13            14            15 
     11  0.215017D+00
     12  0.000000D+00  0.480952D-01
     13  0.847755D-01  0.000000D+00  0.633995D+00
     14 -0.712106D-01  0.000000D+00  0.226503D-01  0.279893D+00
     15  0.000000D+00 -0.220441D-01  0.000000D+00  0.000000D+00  0.403341D-01
     16 -0.135931D-01  0.000000D+00 -0.131308D-02 -0.306752D-01  0.000000D+00
     17 -0.227530D-02  0.000000D+00  0.372995D-01 -0.308208D-01  0.000000D+00
     18  0.000000D+00  0.276689D-02  0.000000D+00  0.000000D+00  0.128149D-01
     19 -0.268410D-02  0.000000D+00 -0.309772D-02  0.174633D-02  0.000000D+00
     20 -0.734880D-03  0.000000D+00 -0.465947D-02 -0.681556D-02  0.000000D+00
     21  0.000000D+00  0.390580D-02  0.000000D+00  0.000000D+00  0.509249D-03
     22  0.984843D-02  0.000000D+00 -0.252945D+00 -0.163945D+00  0.000000D+00
     23  0.282717D-01  0.000000D+00 -0.172204D+00 -0.146673D+00  0.000000D+00
     24  0.000000D+00  0.419681D-02  0.000000D+00  0.000000D+00 -0.295597D-01
               16            17            18            19            20 
     16  0.268681D+00
     17  0.573556D-01  0.638068D+00
     18  0.000000D+00  0.000000D+00  0.127938D+00
     19 -0.941127D-01 -0.110634D+00  0.000000D+00  0.998681D-01
     20 -0.112501D+00 -0.252299D+00  0.000000D+00  0.112374D+00  0.265669D+00
     21  0.000000D+00  0.000000D+00 -0.350803D-01  0.000000D+00  0.000000D+00
     22 -0.644857D-01  0.913736D-01  0.000000D+00  0.511674D-02 -0.497505D-02
     23  0.912822D-01 -0.305401D+00  0.000000D+00  0.196468D-01 -0.117269D-01
     24  0.000000D+00  0.000000D+00 -0.486942D-01  0.000000D+00  0.000000D+00
               21            22            23            24 
     21  0.178114D-01
     22  0.000000D+00  0.420873D+00
     23  0.000000D+00  0.566002D-01  0.457841D+00
     24  0.772343D-02  0.000000D+00  0.000000D+00  0.403889D-01
 Leave Link  716 at Thu Jan 31 06:02:20 2019, MaxMem=    33554432 cpu:         0.1
 (Enter /home/proyectos/fulerenos/M3C-v2.0/M3C-deps_CCC/g09-AM64L-G09RevC.01/l103.exe)

 GradGradGradGradGradGradGradGradGradGradGradGradGradGradGradGradGradGrad
 Berny optimization.
 Search for a local minimum.
 Step number   1 out of a maximum of    2
 All quantities printed in internal units (Hartrees-Bohrs-Radians)
 Second derivative matrix not updated -- analytic derivatives used.
 ITU=  0
     Eigenvalues ---    0.01080   0.02840   0.03953   0.05080   0.05162
     Eigenvalues ---    0.08812   0.10664   0.11120   0.14965   0.17199
     Eigenvalues ---    0.17418   0.28962   0.49129   0.59398   0.68480
     Eigenvalues ---    0.73424   0.89960   1.09464
 Angle between quadratic step and forces=  32.32 degrees.
 ClnCor:  largest displacement from symmetrization is 2.92D-10 for atom     3.
 Linear search not attempted -- first point.
 ClnCor:  largest displacement from symmetrization is 4.44D-16 for atom     7.
 B after Tr=     0.000013   -0.000017    0.000000
         Rot=    1.000000   -0.000000    0.000000   -0.000004 Ang=  -0.00 deg.
 Variable       Old X    -DE/DX   Delta X   Delta X   Delta X     New X
                                 (Linear)    (Quad)   (Total)
    X1       -1.62592   0.00016   0.00000   0.00074   0.00074  -1.62518
    Y1        1.39532   0.00007   0.00000   0.00037   0.00034   1.39566
    Z1       -0.00005   0.00000   0.00000   0.00000  -0.00000  -0.00005
    X2       -2.37794  -0.00002   0.00000  -0.00001  -0.00001  -2.37796
    Y2        2.27575   0.00002   0.00000   0.00018   0.00014   2.27589
    Z2       -1.74204  -0.00004   0.00000   0.00002   0.00002  -1.74202
    X3       -2.37794  -0.00002   0.00000  -0.00001  -0.00001  -2.37796
    Y3        2.27575   0.00002   0.00000   0.00018   0.00014   2.27589
    Z3        1.74194   0.00004   0.00000  -0.00002  -0.00002   1.74193
    X4       -2.09413   0.00011   0.00000   0.00034   0.00037  -2.09376
    Y4       -1.43719  -0.00007   0.00000  -0.00020  -0.00023  -1.43742
    Z4       -0.00005   0.00000   0.00000   0.00000  -0.00000  -0.00005
    X5        0.29159  -0.00004   0.00000   0.00002   0.00005   0.29164
    Y5       -2.12889  -0.00002   0.00000  -0.00060  -0.00062  -2.12951
    Z5       -0.00005   0.00000   0.00000   0.00000   0.00000  -0.00005
    X6        1.38894  -0.00011   0.00000  -0.00060  -0.00060   1.38834
    Y6        1.62839   0.00000   0.00000   0.00021   0.00021   1.62860
    Z6       -0.00005  -0.00000   0.00000   0.00000   0.00000  -0.00005
    X7        2.34344   0.00000   0.00000  -0.00007  -0.00008   2.34335
    Y7        3.47390  -0.00001   0.00000  -0.00010  -0.00010   3.47380
    Z7       -0.00005  -0.00000   0.00000   0.00000   0.00000  -0.00005
    X8        2.44114  -0.00008   0.00000  -0.00046  -0.00044   2.44070
    Y8       -0.79509  -0.00002   0.00000   0.00012   0.00012  -0.79497
    Z8       -0.00005   0.00000   0.00000   0.00000   0.00000  -0.00005
         Item               Value     Threshold  Converged?
 Maximum Force            0.000159     0.000450     YES
 RMS     Force            0.000054     0.000300     YES
 Maximum Displacement     0.000745     0.001800     YES
 RMS     Displacement     0.000283     0.001200     YES
 Predicted change in Energy=-1.550683D-07
 Optimization completed.
    -- Stationary point found.
 GradGradGradGradGradGradGradGradGradGradGradGradGradGradGradGradGradGrad

 Leave Link  103 at Thu Jan 31 06:02:20 2019, MaxMem=    33554432 cpu:         0.1
 (Enter /home/proyectos/fulerenos/M3C-v2.0/M3C-deps_CCC/g09-AM64L-G09RevC.01/l9999.exe)

 Test job not archived.
 1\1\GINC-COPERNICIO\Freq\UB3LYP\6-311++G(3df,2p)\C5H3(2+,4)\ROOT\31-Ja
 n-2019\0\\#p b3lyp/6-311++G(3df,2p) freq IOp(2/17=3) IOp(2/18=3)\\b3ly
 p opt\\2,4\C,-0.860401002,0.738371001,-0.0000248263\H,-1.258352001,1.2
 04275001,-0.92184703\H,-1.258352001,1.204275001,0.9217973774\C,-1.1081
 63997,-0.760528002,-0.0000248263\C,0.154304999,-1.126561999,-0.0000248
 263\C,0.734996004,0.861707997,-0.0000248263\H,1.240094011,1.838309994,
 -0.0000248263\C,1.291794995,-0.420740997,-0.0000248263\\Version=EM64L-
 G09RevE.01\State=4-A"\HF=-191.1602199\S2=3.778026\S2-1=0.\S2A=3.750271
 \RMSD=2.336e-09\RMSF=5.422e-05\ZeroPoint=0.0513113\Thermal=0.0556962\D
 ipole=-0.0250829,0.2968733,0.\DipoleDeriv=-0.1221017,-0.0232309,0.,0.1
 695737,-0.0326642,0.,0.,0.,-0.2346038,0.2226384,-0.0331904,0.0525733,-
 0.0430731,0.2189636,-0.0555819,0.1934929,-0.1883431,0.3076325,0.222638
 4,-0.0331904,-0.0525733,-0.0430731,0.2189636,0.0555819,-0.1934929,0.18
 83431,0.3076325,0.4904481,0.1379747,0.,0.0602108,0.1268735,0.,0.,0.,0.
 4477768,0.4179706,-0.1469023,0.,0.0030774,0.7915546,0.,0.,0.,0.3452048
 ,-0.0155829,0.0223655,0.,-0.0435635,0.2478299,0.,0.,0.,0.2748572,0.274
 3154,0.1026382,0.,0.1822304,0.4826338,0.,0.,0.,0.1843246,0.5096738,-0.
 0264644,0.,-0.2853825,-0.0541548,0.,0.,0.,0.3671753\Polar=48.8599505,0
 .3118617,45.9927696,0.,0.,26.1689434\PG=CS [SG(C5H1),X(H2)]\NImag=0\\0
 .23363934,-0.09390488,0.37655563,0.,0.,0.48324972,-0.06221826,0.036543
 43,-0.07786211,0.07360107,0.03621782,-0.07733257,0.08850018,-0.0383638
 0,0.08863675,-0.07245653,0.08211958,-0.20715702,0.08095637,-0.09437325
 ,0.22089812,-0.06221826,0.03654343,0.07786211,0.00499805,-0.00519728,-
 0.00831876,0.07360107,0.03621782,-0.07733257,-0.08850018,-0.00519728,0
 .00630976,0.00868766,-0.03836380,0.08863675,0.07245653,-0.08211958,-0.
 20715702,0.00831876,-0.00868766,-0.01438634,-0.08095637,0.09437325,0.2
 2089812,-0.02225915,-0.01085168,0.,0.00075292,0.00771872,0.00053700,0.
 00075292,0.00771872,-0.00053700,0.50128444,0.00318917,-0.11937118,0.,0
 .00047531,-0.02484814,-0.00045680,0.00047531,-0.02484814,0.00045680,-0
 .08248654,0.21501656,0.,0.,-0.03403910,0.00620955,0.01766336,-0.001440
 73,-0.00620955,-0.01766336,-0.00144073,0.,0.,0.04809518,-0.00240977,0.
 04951875,0.,0.00507128,-0.00869024,-0.00128545,0.00507128,-0.00869024,
 0.00128545,-0.38437211,0.08477549,0.,0.63399499,0.03314129,-0.02255559
 ,0.,-0.00438516,-0.00090905,0.00252048,-0.00438516,-0.00090905,-0.0025
 2048,0.14585227,-0.07121063,0.,0.02265034,0.27989327,0.,0.,-0.01027570
 ,-0.00053560,0.00103965,0.00411064,0.00053560,-0.00103965,0.00411064,0
 .,0.,-0.02204412,0.,-0.00000001,0.04033409,-0.04988248,-0.00761144,0.,
 -0.01969940,0.00787164,0.00531071,-0.01969940,0.00787164,-0.00531071,-
 0.01948840,-0.01359307,0.,-0.00131308,-0.03067522,0.,0.26868114,-0.049
 40400,-0.04989009,0.,0.01271266,0.00130904,0.00375282,0.01271266,0.001
 30904,-0.00375282,-0.05141580,-0.00227530,0.,0.03729947,-0.03082077,0.
 ,0.05735555,0.63806800,0.,0.,-0.06033690,-0.02042667,-0.00315182,0.000
 29571,0.02042666,0.00315182,0.00029572,0.,0.,0.00276689,0.,0.00000001,
 0.01281492,0.,0.,0.12793820,-0.00677416,-0.01996509,0.,0.00123313,-0.0
 0024188,-0.00157984,0.00123313,-0.00024188,0.00157984,-0.00346649,-0.0
 0268410,0.,-0.00309772,0.00174633,0.,-0.09411271,-0.11063411,0.,0.0998
 6809,0.01126746,0.00562967,0.,-0.00076803,0.00013880,-0.00132067,-0.00
 076803,0.00013880,0.00132067,0.00003052,-0.00073488,0.,-0.00465947,-0.
 00681556,0.,-0.11250131,-0.25229882,0.,0.11237390,0.26566890,0.,0.,0.0
 0372999,0.00160539,-0.00007658,0.00070024,-0.00160539,0.00007658,0.000
 70024,0.,0.,0.00390580,0.,0.,0.00050925,0.,0.,-0.03508031,0.,0.,0.0178
 1136,-0.02787725,0.00972747,0.,-0.00373879,0.00068502,-0.00316351,-0.0
 0373879,0.00068502,0.00316351,-0.07320413,0.00984843,0.00000001,-0.252
 94486,-0.16394468,-0.00000001,-0.06448566,0.09137356,0.,0.00511674,-0.
 00497505,0.,0.42087276,0.02327532,-0.03570329,0.,-0.00101714,0.0066954
 1,-0.00092982,-0.00101714,0.00669541,0.00092982,-0.01656621,0.02827170
 ,0.,-0.17220411,-0.14667261,0.,0.09128220,-0.30540111,0.,0.01964684,-0
 .01172692,0.,0.05660023,0.45784142,0.,0.,0.03198603,0.00173430,-0.0009
 1387,-0.00302064,-0.00173430,0.00091387,-0.00302064,0.,0.,0.00419681,0
 .,0.,-0.02955972,0.,0.,-0.04869423,0.,0.,0.00772343,0.,0.,0.04038894\\
 -0.00015855,-0.00006738,0.,0.00001947,-0.00001977,0.00003735,0.0000194
 7,-0.00001977,-0.00003735,-0.00010580,0.00006704,0.,0.00003631,0.00001
 766,0.,0.00011124,-0.00000005,0.,-0.00000308,0.00000598,0.,0.00008095,
 0.00001631,0.\\\@


 THERE'S NOTHING WRONG WITH FOLLOWING A TRAIN OF THOUGHT...
 AS LONG AS IT ULTIMATELY PULLS INTO THE STATION.
 Job cpu time:       0 days  0 hours 50 minutes 47.6 seconds.
 File lengths (MBytes):  RWF=     64 Int=      0 D2E=      0 Chk=      5 Scr=      1
 Normal termination of Gaussian 09 at Thu Jan 31 06:02:20 2019.
