 Entering Gaussian System, Link 0=/home/proyectos/fulerenos/M3C-v1.9/M3C-deps_CCC/g09-AM64L-G09RevC.01/g09
 Initial command:
 /home/proyectos/fulerenos/M3C-v1.9/M3C-deps_CCC/g09-AM64L-G09RevC.01/l1.exe "/scratch/naguirre/gaussian/Gau-4640.inp" -scrdir="/scratch/naguirre/gaussian/"
 Entering Link 1 = /home/proyectos/fulerenos/M3C-v1.9/M3C-deps_CCC/g09-AM64L-G09RevC.01/l1.exe PID=      4647.
  
 Copyright (c) 1988,1990,1992,1993,1995,1998,2003,2009,2015,
            Gaussian, Inc.  All Rights Reserved.
  
 This is part of the Gaussian(R) 09 program.  It is based on
 the Gaussian(R) 03 system (copyright 2003, Gaussian, Inc.),
 the Gaussian(R) 98 system (copyright 1998, Gaussian, Inc.),
 the Gaussian(R) 94 system (copyright 1995, Gaussian, Inc.),
 the Gaussian 92(TM) system (copyright 1992, Gaussian, Inc.),
 the Gaussian 90(TM) system (copyright 1990, Gaussian, Inc.),
 the Gaussian 88(TM) system (copyright 1988, Gaussian, Inc.),
 the Gaussian 86(TM) system (copyright 1986, Carnegie Mellon
 University), and the Gaussian 82(TM) system (copyright 1983,
 Carnegie Mellon University). Gaussian is a federally registered
 trademark of Gaussian, Inc.
  
 This software contains proprietary and confidential information,
 including trade secrets, belonging to Gaussian, Inc.
  
 This software is provided under written license and may be
 used, copied, transmitted, or stored only in accord with that
 written license.
  
 The following legend is applicable only to US Government
 contracts under FAR:
  
                    RESTRICTED RIGHTS LEGEND
  
 Use, reproduction and disclosure by the US Government is
 subject to restrictions as set forth in subparagraphs (a)
 and (c) of the Commercial Computer Software - Restricted
 Rights clause in FAR 52.227-19.
  
 Gaussian, Inc.
 340 Quinnipiac St., Bldg. 40, Wallingford CT 06492
  
  
 ---------------------------------------------------------------
 Warning -- This program may not be used in any manner that
 competes with the business of Gaussian, Inc. or will provide
 assistance to any competitor of Gaussian, Inc.  The licensee
 of this program is prohibited from giving any competitor of
 Gaussian, Inc. access to this program.  By using this program,
 the user acknowledges that Gaussian, Inc. is engaged in the
 business of creating and licensing software in the field of
 computational chemistry and represents and warrants to the
 licensee that it is not a competitor of Gaussian, Inc. and that
 it will not use this program in any manner prohibited above.
 ---------------------------------------------------------------
  

 Cite this work as:
 Gaussian 09, Revision E.01,
 M. J. Frisch, G. W. Trucks, H. B. Schlegel, G. E. Scuseria, 
 M. A. Robb, J. R. Cheeseman, G. Scalmani, V. Barone, B. Mennucci, 
 G. A. Petersson, H. Nakatsuji, M. Caricato, X. Li, H. P. Hratchian, 
 A. F. Izmaylov, J. Bloino, G. Zheng, J. L. Sonnenberg, M. Hada, 
 M. Ehara, K. Toyota, R. Fukuda, J. Hasegawa, M. Ishida, T. Nakajima, 
 Y. Honda, O. Kitao, H. Nakai, T. Vreven, J. A. Montgomery, Jr., 
 J. E. Peralta, F. Ogliaro, M. Bearpark, J. J. Heyd, E. Brothers, 
 K. N. Kudin, V. N. Staroverov, T. Keith, R. Kobayashi, J. Normand, 
 K. Raghavachari, A. Rendell, J. C. Burant, S. S. Iyengar, J. Tomasi, 
 M. Cossi, N. Rega, J. M. Millam, M. Klene, J. E. Knox, J. B. Cross, 
 V. Bakken, C. Adamo, J. Jaramillo, R. Gomperts, R. E. Stratmann, 
 O. Yazyev, A. J. Austin, R. Cammi, C. Pomelli, J. W. Ochterski, 
 R. L. Martin, K. Morokuma, V. G. Zakrzewski, G. A. Voth, 
 P. Salvador, J. J. Dannenberg, S. Dapprich, A. D. Daniels, 
 O. Farkas, J. B. Foresman, J. V. Ortiz, J. Cioslowski, 
 and D. J. Fox, Gaussian, Inc., Wallingford CT, 2013.
 
 ******************************************
 Gaussian 09:  EM64L-G09RevE.01 30-Nov-2015
                19-Jun-2016 
 ******************************************
 %NProcShared=4
 Will use up to    4 processors via shared memory.
 ---------------------------------------------
 #p b3lyp/6-311++G(3df,2p) freq symmetry=Loose
 ---------------------------------------------
 1/10=4,30=1,38=1/1,3;
 2/12=2,17=4,18=3,40=1/2;
 3/5=4,6=6,7=1216,11=2,16=1,25=1,30=1,71=2,74=-5,140=1/1,2,3;
 4//1;
 5/5=2,38=5,98=1/2;
 8/6=4,10=90,11=11/1;
 11/6=1,8=1,9=11,15=111,16=1/1,2,10;
 10/6=1/2;
 6/7=2,8=2,9=2,10=2,18=1,28=1/1;
 7/8=1,10=1,25=1/1,2,3,16;
 1/10=4,30=1/3;
 99//99;
 Leave Link    1 at Sun Jun 19 13:51:06 2016, MaxMem=           0 cpu:         0.2
 (Enter /home/proyectos/fulerenos/M3C-v1.9/M3C-deps_CCC/g09-AM64L-G09RevC.01/l101.exe)
 ---------
 b3lyp opt
 ---------
 Symbolic Z-matrix:
 Charge =  3 Multiplicity = 1
 C                     2.38048  -0.64838   0. 
 H                     3.39327  -1.11228   0. 
 C                     1.19507  -0.14221   0. 
 C                     0.        0.55367   0. 
 H                     0.03795   1.65666   0. 
 C                    -1.25226  -0.16055   0. 
 H                    -1.33776  -1.27696   0. 
 C                    -2.6722    0.51957   0. 
 
 NAtoms=      8 NQM=        8 NQMF=       0 NMMI=      0 NMMIF=      0
                NMic=       0 NMicF=      0.
                    Isotopes and Nuclear Properties:
 (Nuclear quadrupole moments (NQMom) in fm**2, nuclear magnetic moments (NMagM)
  in nuclear magnetons)

  Atom         1           2           3           4           5           6           7           8
 IAtWgt=          12           1          12          12           1          12           1          12
 AtmWgt=  12.0000000   1.0078250  12.0000000  12.0000000   1.0078250  12.0000000   1.0078250  12.0000000
 NucSpn=           0           1           0           0           1           0           1           0
 AtZEff=   0.0000000   0.0000000   0.0000000   0.0000000   0.0000000   0.0000000   0.0000000   0.0000000
 NQMom=    0.0000000   0.0000000   0.0000000   0.0000000   0.0000000   0.0000000   0.0000000   0.0000000
 NMagM=    0.0000000   2.7928460   0.0000000   0.0000000   2.7928460   0.0000000   2.7928460   0.0000000
 AtZNuc=   6.0000000   1.0000000   6.0000000   6.0000000   1.0000000   6.0000000   1.0000000   6.0000000
 Leave Link  101 at Sun Jun 19 13:51:06 2016, MaxMem=    33554432 cpu:         0.5
 (Enter /home/proyectos/fulerenos/M3C-v1.9/M3C-deps_CCC/g09-AM64L-G09RevC.01/l103.exe)

 GradGradGradGradGradGradGradGradGradGradGradGradGradGradGradGradGradGrad
 Berny optimization.
 Initialization pass.
 Trust Radius=3.00D-01 FncErr=1.00D-07 GrdErr=1.00D-07
 Number of steps in this run=      2 maximum allowed number of steps=      2.
 GradGradGradGradGradGradGradGradGradGradGradGradGradGradGradGradGradGrad

 Leave Link  103 at Sun Jun 19 13:51:06 2016, MaxMem=    33554432 cpu:         0.2
 (Enter /home/proyectos/fulerenos/M3C-v1.9/M3C-deps_CCC/g09-AM64L-G09RevC.01/l202.exe)
                          Input orientation:                          
 ---------------------------------------------------------------------
 Center     Atomic      Atomic             Coordinates (Angstroms)
 Number     Number       Type             X           Y           Z
 ---------------------------------------------------------------------
      1          6           0        2.380475   -0.648383    0.000000
      2          1           0        3.393266   -1.112285    0.000000
      3          6           0        1.195069   -0.142213    0.000000
      4          6           0        0.000000    0.553673    0.000000
      5          1           0        0.037952    1.656656    0.000000
      6          6           0       -1.252257   -0.160548    0.000000
      7          1           0       -1.337757   -1.276956    0.000000
      8          6           0       -2.672197    0.519568    0.000000
 ---------------------------------------------------------------------
                    Distance matrix (angstroms):
                    1          2          3          4          5
     1  C    0.000000
     2  H    1.113980   0.000000
     3  C    1.288951   2.402730   0.000000
     4  C    2.666758   3.780168   1.382913   0.000000
     5  H    3.286429   4.350306   2.138890   1.103636   0.000000
     6  C    3.665341   4.742013   2.447395   1.441617   2.228647
     7  H    3.770988   4.733888   2.775401   2.267332   3.240163
     8  C    5.185904   6.281145   3.923481   2.672415   2.939026
                    6          7          8
     6  C    0.000000
     7  H    1.119677   0.000000
     8  C    1.574417   2.237907   0.000000
 Stoichiometry    C5H3(3+)
 Framework group  CS[SG(C5H3)]
 Deg. of freedom    13
 Full point group                 CS      NOp   2
 Largest Abelian subgroup         CS      NOp   2
 Largest concise Abelian subgroup C1      NOp   1
                         Standard orientation:                         
 ---------------------------------------------------------------------
 Center     Atomic      Atomic             Coordinates (Angstroms)
 Number     Number       Type             X           Y           Z
 ---------------------------------------------------------------------
      1          6           0        2.380475   -0.648383    0.000000
      2          1           0        3.393266   -1.112285    0.000000
      3          6           0        1.195069   -0.142213    0.000000
      4          6           0       -0.000000    0.553673    0.000000
      5          1           0        0.037952    1.656656    0.000000
      6          6           0       -1.252257   -0.160548    0.000000
      7          1           0       -1.337757   -1.276956    0.000000
      8          6           0       -2.672197    0.519568    0.000000
 ---------------------------------------------------------------------
 Rotational constants (GHZ):     45.5153180      2.4060650      2.2852599
 Leave Link  202 at Sun Jun 19 13:51:07 2016, MaxMem=    33554432 cpu:         0.6
 (Enter /home/proyectos/fulerenos/M3C-v1.9/M3C-deps_CCC/g09-AM64L-G09RevC.01/l301.exe)
 Standard basis: 6-311++G(3df,2p) (5D, 7F)
 Ernie: Thresh=  0.10000D-02 Tol=  0.10000D-05 Strict=F.
 There are   179 symmetry adapted cartesian basis functions of A'  symmetry.
 There are    76 symmetry adapted cartesian basis functions of A"  symmetry.
 There are   154 symmetry adapted basis functions of A'  symmetry.
 There are    71 symmetry adapted basis functions of A"  symmetry.
   225 basis functions,   326 primitive gaussians,   255 cartesian basis functions
    15 alpha electrons       15 beta electrons
       nuclear repulsion energy       111.7089646638 Hartrees.
 IExCor=  402 DFT=T Ex+Corr=B3LYP ExCW=0 ScaHFX=  0.200000
 ScaDFX=  0.800000  0.720000  1.000000  0.810000 ScalE2=  1.000000  1.000000
 IRadAn=      0 IRanWt=     -1 IRanGd=            0 ICorTp=0 IEmpDi=  4
 NAtoms=    8 NActive=    8 NUniq=    8 SFac= 1.00D+00 NAtFMM=   60 NAOKFM=F Big=F
 Integral buffers will be    131072 words long.
 Raffenetti 2 integral format.
 Two-electron integral symmetry is turned on.
 Leave Link  301 at Sun Jun 19 13:51:07 2016, MaxMem=    33554432 cpu:         0.3
 (Enter /home/proyectos/fulerenos/M3C-v1.9/M3C-deps_CCC/g09-AM64L-G09RevC.01/l302.exe)
 NPDir=0 NMtPBC=     1 NCelOv=     1 NCel=       1 NClECP=     1 NCelD=      1
         NCelK=      1 NCelE2=     1 NClLst=     1 CellRange=     0.0.
 One-electron integrals computed using PRISM.
 NBasis=   225 RedAO= T EigKep=  8.50D-06  NBF=   154    71
 NBsUse=   224 1.00D-06 EigRej=  9.32D-07 NBFU=   153    71
 Precomputing XC quadrature grid using
 IXCGrd= 4 IRadAn=           0 IRanWt=          -1 IRanGd=           0 AccXCQ= 0.00D+00.
 Generated NRdTot=       0 NPtTot=           0 NUsed=           0 NTot=          32
 NSgBfM=   255   255   255   255   255 MxSgAt=     8 MxSgA2=     8.
 Leave Link  302 at Sun Jun 19 13:51:07 2016, MaxMem=    33554432 cpu:         1.1
 (Enter /home/proyectos/fulerenos/M3C-v1.9/M3C-deps_CCC/g09-AM64L-G09RevC.01/l303.exe)
 DipDrv:  MaxL=1.
 Leave Link  303 at Sun Jun 19 13:51:07 2016, MaxMem=    33554432 cpu:         0.1
 (Enter /home/proyectos/fulerenos/M3C-v1.9/M3C-deps_CCC/g09-AM64L-G09RevC.01/l401.exe)
 ExpMin= 3.60D-02 ExpMax= 4.56D+03 ExpMxC= 6.82D+02 IAcc=3 IRadAn=         5 AccDes= 0.00D+00
 Harris functional with IExCor=  402 and IRadAn=       5 diagonalized for initial guess.
 HarFok:  IExCor=  402 AccDes= 0.00D+00 IRadAn=         5 IDoV= 1 UseB2=F ITyADJ=14
 ICtDFT=  3500011 ScaDFX=  1.000000  1.000000  1.000000  1.000000
 FoFCou: FMM=F IPFlag=           0 FMFlag=      100000 FMFlg1=           0
         NFxFlg=           0 DoJE=T BraDBF=F KetDBF=T FulRan=T
         wScrn=  0.000000 ICntrl=     500 IOpCl=  0 I1Cent=   200000004 NGrid=           0
         NMat0=    1 NMatS0=      1 NMatT0=    0 NMatD0=    1 NMtDS0=    0 NMtDT0=    0
 Petite list used in FoFCou.
 Harris En= -191.249822317778    
 JPrj=0 DoOrth=F DoCkMO=F.
 Initial guess orbital symmetries:
       Occupied  (A') (A') (A') (A') (A') (A') (A') (A') (A') (A')
                 (A') (A') (A") (A') (A")
       Virtual   (A') (A") (A') (A") (A') (A") (A') (A') (A') (A')
                 (A") (A') (A') (A') (A") (A') (A') (A") (A') (A')
                 (A") (A') (A') (A') (A') (A") (A') (A') (A') (A')
                 (A') (A') (A') (A") (A') (A") (A') (A") (A') (A')
                 (A') (A') (A") (A') (A") (A') (A') (A") (A') (A")
                 (A') (A') (A') (A") (A") (A") (A') (A') (A') (A')
                 (A') (A") (A') (A") (A') (A') (A") (A') (A') (A")
                 (A') (A') (A") (A') (A') (A") (A') (A') (A') (A")
                 (A') (A") (A') (A') (A') (A') (A') (A') (A") (A')
                 (A') (A") (A') (A') (A") (A') (A") (A') (A") (A')
                 (A') (A") (A') (A") (A') (A") (A') (A') (A") (A')
                 (A') (A') (A') (A") (A') (A') (A") (A") (A') (A")
                 (A') (A") (A') (A') (A") (A') (A") (A') (A") (A')
                 (A") (A") (A') (A") (A') (A') (A') (A") (A') (A')
                 (A") (A') (A") (A') (A') (A') (A") (A') (A') (A')
                 (A") (A') (A') (A') (A") (A') (A') (A') (A") (A')
                 (A") (A') (A") (A') (A') (A") (A') (A") (A') (A')
                 (A") (A') (A') (A') (A") (A') (A') (A') (A') (A")
                 (A') (A") (A") (A') (A") (A') (A") (A') (A") (A")
                 (A') (A") (A') (A') (A') (A") (A') (A") (A') (A')
                 (A') (A') (A') (A') (A') (A') (A') (A') (A')
 The electronic state of the initial guess is 1-A'.
 Leave Link  401 at Sun Jun 19 13:51:09 2016, MaxMem=    33554432 cpu:         5.8
 (Enter /home/proyectos/fulerenos/M3C-v1.9/M3C-deps_CCC/g09-AM64L-G09RevC.01/l502.exe)
 Closed shell SCF:
 Using DIIS extrapolation, IDIIS=  1040.
 Integral symmetry usage will be decided dynamically.
 IVT=      217056 IEndB=      217056 NGot=    33554432 MDV=    33419297
 LenX=    33419297 LenY=    33353831
 Requested convergence on RMS density matrix=1.00D-08 within 128 cycles.
 Requested convergence on MAX density matrix=1.00D-06.
 Requested convergence on             energy=1.00D-06.
 No special actions if energy rises.
 Fock matrices will be formed incrementally for  20 cycles.

 Cycle   1  Pass 1  IDiag  1:
 FoFJK:  IHMeth= 1 ICntrl=       0 DoSepK=F KAlg= 0 I1Cent=   0 FoldK=F
 IRaf= 960000000 NMat=   1 IRICut=       1 DoRegI=T DoRafI=F ISym2E= 1.
 FoFCou: FMM=F IPFlag=           0 FMFlag=      100000 FMFlg1=           0
         NFxFlg=           0 DoJE=F BraDBF=F KetDBF=F FulRan=T
         wScrn=  0.000000 ICntrl=       0 IOpCl=  0 I1Cent=           0 NGrid=           0
         NMat0=    1 NMatS0=      1 NMatT0=    0 NMatD0=    1 NMtDS0=    0 NMtDT0=    0
 Petite list used in FoFCou.
 E= -189.574265559458    
 DIIS: error= 8.49D-02 at cycle   1 NSaved=   1.
 NSaved= 1 IEnMin= 1 EnMin= -189.574265559458     IErMin= 1 ErrMin= 8.49D-02
 ErrMax= 8.49D-02  0.00D+00 EMaxC= 1.00D-01 BMatC= 3.24D-01 BMatP= 3.24D-01
 IDIUse=3 WtCom= 1.51D-01 WtEn= 8.49D-01
 Coeff-Com:  0.100D+01
 Coeff-En:   0.100D+01
 Coeff:      0.100D+01
 Gap=     0.020 Goal=   None    Shift=    0.000
 GapD=    0.020 DampG=0.250 DampE=0.500 DampFc=0.2500 IDamp=-1.
 Damping current iteration by 2.50D-01
 RMSDP=1.08D-02 MaxDP=5.91D-01              OVMax= 9.28D-01

 Cycle   2  Pass 1  IDiag  1:
 RMSU=  2.67D-03    CP:  9.72D-01
 E= -189.733817755474     Delta-E=       -0.159552196016 Rises=F Damp=T
 DIIS: error= 2.51D-02 at cycle   2 NSaved=   2.
 NSaved= 2 IEnMin= 2 EnMin= -189.733817755474     IErMin= 2 ErrMin= 2.51D-02
 ErrMax= 2.51D-02  0.00D+00 EMaxC= 1.00D-01 BMatC= 6.58D-02 BMatP= 3.24D-01
 IDIUse=3 WtCom= 7.49D-01 WtEn= 2.51D-01
 Coeff-Com:  0.242D+00 0.758D+00
 Coeff-En:   0.426D+00 0.574D+00
 Coeff:      0.289D+00 0.711D+00
 Gap=    -0.015 Goal=   None    Shift=    0.000
 RMSDP=8.22D-03 MaxDP=3.73D-01 DE=-1.60D-01 OVMax= 8.55D-01

 Cycle   3  Pass 1  IDiag  1:
 RMSU=  7.93D-03    CP:  1.11D+00  1.48D+00
 E= -189.723350566763     Delta-E=        0.010467188711 Rises=F Damp=F
 DIIS: error= 6.29D-02 at cycle   3 NSaved=   3.
 NSaved= 3 IEnMin= 2 EnMin= -189.733817755474     IErMin= 2 ErrMin= 2.51D-02
 ErrMax= 6.29D-02  0.00D+00 EMaxC= 1.00D-01 BMatC= 4.19D-01 BMatP= 6.58D-02
 IDIUse=2 WtCom= 0.00D+00 WtEn= 1.00D+00
 EnCoef did   100 forward-backward iterations
 Coeff-En:   0.467D+00 0.692D-02 0.526D+00
 Coeff:      0.467D+00 0.692D-02 0.526D+00
 Gap=     0.016 Goal=   None    Shift=    0.000
 RMSDP=3.70D-03 MaxDP=2.03D-01 DE= 1.05D-02 OVMax= 3.10D-01

 Cycle   4  Pass 1  IDiag  1:
 RMSU=  3.12D-03    CP:  1.12D+00  1.07D+00  7.94D-01
 E= -190.083653807804     Delta-E=       -0.360303241041 Rises=F Damp=F
 DIIS: error= 6.44D-02 at cycle   4 NSaved=   4.
 NSaved= 4 IEnMin= 4 EnMin= -190.083653807804     IErMin= 2 ErrMin= 2.51D-02
 ErrMax= 6.44D-02  0.00D+00 EMaxC= 1.00D-01 BMatC= 1.70D-01 BMatP= 6.58D-02
 IDIUse=2 WtCom= 0.00D+00 WtEn= 1.00D+00
 EnCoef did     4 forward-backward iterations
 Coeff-En:   0.367D+00 0.000D+00 0.320D+00 0.312D+00
 Coeff:      0.367D+00 0.000D+00 0.320D+00 0.312D+00
 Gap=     0.003 Goal=   None    Shift=    0.000
 RMSDP=5.06D-03 MaxDP=1.61D-01 DE=-3.60D-01 OVMax= 6.65D-01

 Cycle   5  Pass 1  IDiag  1:
 RMSU=  4.30D-03    CP:  1.21D+00  9.59D-01  7.71D-01  2.25D-01
 E= -190.137413417611     Delta-E=       -0.053759609807 Rises=F Damp=F
 DIIS: error= 5.47D-02 at cycle   5 NSaved=   5.
 NSaved= 5 IEnMin= 5 EnMin= -190.137413417611     IErMin= 2 ErrMin= 2.51D-02
 ErrMax= 5.47D-02  0.00D+00 EMaxC= 1.00D-01 BMatC= 1.40D-01 BMatP= 6.58D-02
 IDIUse=2 WtCom= 0.00D+00 WtEn= 1.00D+00
 Coeff-En:   0.000D+00 0.000D+00 0.000D+00 0.467D+00 0.533D+00
 Coeff:      0.000D+00 0.000D+00 0.000D+00 0.467D+00 0.533D+00
 Gap=     0.020 Goal=   None    Shift=    0.000
 RMSDP=2.22D-03 MaxDP=1.39D-01 DE=-5.38D-02 OVMax= 2.77D-01

 Cycle   6  Pass 1  IDiag  1:
 RMSU=  1.58D-03    CP:  1.17D+00  8.34D-01  6.25D-01  5.20D-01  9.93D-01
 E= -190.340028700516     Delta-E=       -0.202615282905 Rises=F Damp=F
 DIIS: error= 2.26D-02 at cycle   6 NSaved=   6.
 NSaved= 6 IEnMin= 6 EnMin= -190.340028700516     IErMin= 6 ErrMin= 2.26D-02
 ErrMax= 2.26D-02  0.00D+00 EMaxC= 1.00D-01 BMatC= 1.54D-02 BMatP= 6.58D-02
 IDIUse=3 WtCom= 7.74D-01 WtEn= 2.26D-01
 Coeff-Com:  0.750D-01 0.139D+00 0.629D-01 0.865D-01-0.580D-01 0.695D+00
 Coeff-En:   0.000D+00 0.000D+00 0.000D+00 0.136D+00 0.000D+00 0.864D+00
 Coeff:      0.581D-01 0.107D+00 0.487D-01 0.976D-01-0.449D-01 0.733D+00
 Gap=     0.012 Goal=   None    Shift=    0.000
 RMSDP=1.03D-03 MaxDP=2.83D-02 DE=-2.03D-01 OVMax= 2.25D-01

 Cycle   7  Pass 1  IDiag  1:
 RMSU=  9.57D-04    CP:  1.16D+00  9.11D-01  6.34D-01  4.48D-01  9.53D-01
                    CP:  1.06D+00
 E= -190.363384059481     Delta-E=       -0.023355358965 Rises=F Damp=F
 DIIS: error= 8.97D-03 at cycle   7 NSaved=   7.
 NSaved= 7 IEnMin= 7 EnMin= -190.363384059481     IErMin= 7 ErrMin= 8.97D-03
 ErrMax= 8.97D-03  0.00D+00 EMaxC= 1.00D-01 BMatC= 5.84D-03 BMatP= 1.54D-02
 IDIUse=3 WtCom= 9.10D-01 WtEn= 8.97D-02
 Coeff-Com:  0.192D-01-0.341D-02 0.925D-02 0.108D-01-0.919D-01 0.480D+00
 Coeff-Com:  0.576D+00
 Coeff-En:   0.000D+00 0.000D+00 0.000D+00 0.000D+00 0.000D+00 0.211D+00
 Coeff-En:   0.789D+00
 Coeff:      0.175D-01-0.310D-02 0.842D-02 0.987D-02-0.837D-01 0.456D+00
 Coeff:      0.595D+00
 Gap=     0.041 Goal=   None    Shift=    0.000
 RMSDP=6.69D-04 MaxDP=3.43D-02 DE=-2.34D-02 OVMax= 6.66D-02

 Cycle   8  Pass 1  IDiag  1:
 RMSU=  4.48D-04    CP:  1.16D+00  8.10D-01  6.06D-01  5.18D-01  9.71D-01
                    CP:  1.19D+00  8.36D-01
 E= -190.369307424786     Delta-E=       -0.005923365305 Rises=F Damp=F
 DIIS: error= 3.22D-03 at cycle   8 NSaved=   8.
 NSaved= 8 IEnMin= 8 EnMin= -190.369307424786     IErMin= 8 ErrMin= 3.22D-03
 ErrMax= 3.22D-03  0.00D+00 EMaxC= 1.00D-01 BMatC= 1.32D-03 BMatP= 5.84D-03
 IDIUse=3 WtCom= 9.68D-01 WtEn= 3.22D-02
 Coeff-Com:  0.616D-02-0.662D-02 0.351D-03 0.524D-02-0.171D-01 0.222D+00
 Coeff-Com:  0.339D+00 0.450D+00
 Coeff-En:   0.000D+00 0.000D+00 0.000D+00 0.000D+00 0.000D+00 0.000D+00
 Coeff-En:   0.666D-01 0.933D+00
 Coeff:      0.596D-02-0.641D-02 0.340D-03 0.507D-02-0.166D-01 0.215D+00
 Coeff:      0.330D+00 0.466D+00
 Gap=     0.046 Goal=   None    Shift=    0.000
 RMSDP=2.03D-04 MaxDP=6.45D-03 DE=-5.92D-03 OVMax= 2.39D-02

 Cycle   9  Pass 1  IDiag  1:
 RMSU=  1.70D-04    CP:  1.16D+00  8.15D-01  6.04D-01  5.14D-01  9.77D-01
                    CP:  1.22D+00  8.50D-01  7.93D-01
 E= -190.370703043929     Delta-E=       -0.001395619143 Rises=F Damp=F
 DIIS: error= 2.21D-03 at cycle   9 NSaved=   9.
 NSaved= 9 IEnMin= 9 EnMin= -190.370703043929     IErMin= 9 ErrMin= 2.21D-03
 ErrMax= 2.21D-03  0.00D+00 EMaxC= 1.00D-01 BMatC= 2.72D-04 BMatP= 1.32D-03
 IDIUse=3 WtCom= 9.78D-01 WtEn= 2.21D-02
 Coeff-Com:  0.175D-02-0.526D-02-0.162D-03 0.493D-02 0.295D-01 0.159D-01
 Coeff-Com:  0.260D-01 0.279D+00 0.648D+00
 Coeff-En:   0.000D+00 0.000D+00 0.000D+00 0.000D+00 0.000D+00 0.000D+00
 Coeff-En:   0.000D+00 0.124D-01 0.988D+00
 Coeff:      0.171D-02-0.514D-02-0.158D-03 0.482D-02 0.289D-01 0.156D-01
 Coeff:      0.255D-01 0.273D+00 0.656D+00
 Gap=     0.049 Goal=   None    Shift=    0.000
 RMSDP=8.38D-05 MaxDP=4.12D-03 DE=-1.40D-03 OVMax= 1.46D-02

 Cycle  10  Pass 1  IDiag  1:
 RMSU=  6.42D-05    CP:  1.16D+00  8.10D-01  6.06D-01  5.11D-01  9.81D-01
                    CP:  1.20D+00  8.27D-01  8.32D-01  9.26D-01
 E= -190.371017420199     Delta-E=       -0.000314376269 Rises=F Damp=F
 DIIS: error= 2.82D-04 at cycle  10 NSaved=  10.
 NSaved=10 IEnMin=10 EnMin= -190.371017420199     IErMin=10 ErrMin= 2.82D-04
 ErrMax= 2.82D-04  0.00D+00 EMaxC= 1.00D-01 BMatC= 8.41D-06 BMatP= 2.72D-04
 IDIUse=3 WtCom= 9.97D-01 WtEn= 2.82D-03
 Coeff-Com:  0.927D-03-0.856D-03 0.159D-02 0.117D-02 0.591D-02-0.627D-02
 Coeff-Com: -0.169D-01 0.236D-01 0.202D+00 0.789D+00
 Coeff-En:   0.000D+00 0.000D+00 0.000D+00 0.000D+00 0.000D+00 0.000D+00
 Coeff-En:   0.000D+00 0.000D+00 0.000D+00 0.100D+01
 Coeff:      0.924D-03-0.854D-03 0.158D-02 0.117D-02 0.590D-02-0.625D-02
 Coeff:     -0.169D-01 0.235D-01 0.202D+00 0.789D+00
 Gap=     0.050 Goal=   None    Shift=    0.000
 RMSDP=3.10D-05 MaxDP=1.83D-03 DE=-3.14D-04 OVMax= 1.77D-03

 Cycle  11  Pass 1  IDiag  1:
 RMSU=  2.32D-05    CP:  1.16D+00  8.12D-01  6.07D-01  5.07D-01  9.80D-01
                    CP:  1.20D+00  8.32D-01  8.25D-01  9.56D-01  9.15D-01
 E= -190.371027936132     Delta-E=       -0.000010515933 Rises=F Damp=F
 DIIS: error= 9.13D-05 at cycle  11 NSaved=  11.
 NSaved=11 IEnMin=11 EnMin= -190.371027936132     IErMin=11 ErrMin= 9.13D-05
 ErrMax= 9.13D-05  0.00D+00 EMaxC= 1.00D-01 BMatC= 9.48D-07 BMatP= 8.41D-06
 IDIUse=1 WtCom= 1.00D+00 WtEn= 0.00D+00
 Coeff-Com:  0.870D-04-0.698D-04-0.257D-04 0.110D-03-0.309D-04-0.649D-02
 Coeff-Com: -0.173D-02-0.588D-02-0.151D-02 0.194D+00 0.821D+00
 Coeff:      0.870D-04-0.698D-04-0.257D-04 0.110D-03-0.309D-04-0.649D-02
 Coeff:     -0.173D-02-0.588D-02-0.151D-02 0.194D+00 0.821D+00
 Gap=     0.050 Goal=   None    Shift=    0.000
 RMSDP=1.00D-05 MaxDP=6.45D-04 DE=-1.05D-05 OVMax= 9.05D-04

 Cycle  12  Pass 1  IDiag  1:
 RMSU=  5.52D-06    CP:  1.16D+00  8.12D-01  6.07D-01  5.07D-01  9.81D-01
                    CP:  1.20D+00  8.37D-01  8.27D-01  9.71D-01  9.81D-01
                    CP:  9.67D-01
 E= -190.371029207700     Delta-E=       -0.000001271569 Rises=F Damp=F
 DIIS: error= 1.07D-05 at cycle  12 NSaved=  12.
 NSaved=12 IEnMin=12 EnMin= -190.371029207700     IErMin=12 ErrMin= 1.07D-05
 ErrMax= 1.07D-05  0.00D+00 EMaxC= 1.00D-01 BMatC= 1.80D-08 BMatP= 9.48D-07
 IDIUse=1 WtCom= 1.00D+00 WtEn= 0.00D+00
 Coeff-Com: -0.518D-05-0.729D-05-0.552D-04 0.334D-04-0.132D-04-0.154D-02
 Coeff-Com:  0.629D-04-0.211D-02-0.897D-02 0.262D-01 0.145D+00 0.842D+00
 Coeff:     -0.518D-05-0.729D-05-0.552D-04 0.334D-04-0.132D-04-0.154D-02
 Coeff:      0.629D-04-0.211D-02-0.897D-02 0.262D-01 0.145D+00 0.842D+00
 Gap=     0.050 Goal=   None    Shift=    0.000
 RMSDP=1.85D-06 MaxDP=1.19D-04 DE=-1.27D-06 OVMax= 1.03D-04

 Cycle  13  Pass 1  IDiag  1:
 RMSU=  1.06D-06    CP:  1.16D+00  8.12D-01  6.07D-01  5.07D-01  9.81D-01
                    CP:  1.20D+00  8.37D-01  8.27D-01  9.72D-01  9.96D-01
                    CP:  1.00D+00  1.06D+00
 E= -190.371029228873     Delta-E=       -0.000000021173 Rises=F Damp=F
 DIIS: error= 2.95D-06 at cycle  13 NSaved=  13.
 NSaved=13 IEnMin=13 EnMin= -190.371029228873     IErMin=13 ErrMin= 2.95D-06
 ErrMax= 2.95D-06  0.00D+00 EMaxC= 1.00D-01 BMatC= 1.57D-09 BMatP= 1.80D-08
 IDIUse=1 WtCom= 1.00D+00 WtEn= 0.00D+00
 Coeff-Com: -0.296D-05 0.753D-05-0.441D-05-0.105D-05-0.361D-05-0.367D-05
 Coeff-Com:  0.319D-03-0.229D-03-0.268D-02-0.427D-02-0.217D-01 0.243D+00
 Coeff-Com:  0.785D+00
 Coeff:     -0.296D-05 0.753D-05-0.441D-05-0.105D-05-0.361D-05-0.367D-05
 Coeff:      0.319D-03-0.229D-03-0.268D-02-0.427D-02-0.217D-01 0.243D+00
 Coeff:      0.785D+00
 Gap=     0.050 Goal=   None    Shift=    0.000
 RMSDP=3.49D-07 MaxDP=1.15D-05 DE=-2.12D-08 OVMax= 1.76D-05

 Cycle  14  Pass 1  IDiag  1:
 RMSU=  1.82D-07    CP:  1.16D+00  8.12D-01  6.07D-01  5.07D-01  9.81D-01
                    CP:  1.20D+00  8.37D-01  8.27D-01  9.73D-01  9.96D-01
                    CP:  1.00D+00  1.08D+00  8.49D-01
 E= -190.371029230743     Delta-E=       -0.000000001870 Rises=F Damp=F
 DIIS: error= 1.69D-06 at cycle  14 NSaved=  14.
 NSaved=14 IEnMin=14 EnMin= -190.371029230743     IErMin=14 ErrMin= 1.69D-06
 ErrMax= 1.69D-06  0.00D+00 EMaxC= 1.00D-01 BMatC= 1.19D-10 BMatP= 1.57D-09
 IDIUse=1 WtCom= 1.00D+00 WtEn= 0.00D+00
 Coeff-Com: -0.865D-06 0.435D-05 0.105D-05-0.425D-05-0.106D-04 0.226D-04
 Coeff-Com:  0.112D-03 0.299D-04-0.994D-04-0.142D-02-0.598D-02 0.509D-02
 Coeff-Com:  0.884D-01 0.914D+00
 Coeff:     -0.865D-06 0.435D-05 0.105D-05-0.425D-05-0.106D-04 0.226D-04
 Coeff:      0.112D-03 0.299D-04-0.994D-04-0.142D-02-0.598D-02 0.509D-02
 Coeff:      0.884D-01 0.914D+00
 Gap=     0.050 Goal=   None    Shift=    0.000
 RMSDP=9.66D-08 MaxDP=3.70D-06 DE=-1.87D-09 OVMax= 9.23D-06

 Cycle  15  Pass 1  IDiag  1:
 RMSU=  4.55D-08    CP:  1.16D+00  8.12D-01  6.07D-01  5.07D-01  9.81D-01
                    CP:  1.20D+00  8.37D-01  8.27D-01  9.73D-01  9.97D-01
                    CP:  1.00D+00  1.08D+00  8.75D-01  1.01D+00
 E= -190.371029230925     Delta-E=       -0.000000000182 Rises=F Damp=F
 DIIS: error= 2.34D-07 at cycle  15 NSaved=  15.
 NSaved=15 IEnMin=15 EnMin= -190.371029230925     IErMin=15 ErrMin= 2.34D-07
 ErrMax= 2.34D-07  0.00D+00 EMaxC= 1.00D-01 BMatC= 3.34D-12 BMatP= 1.19D-10
 IDIUse=1 WtCom= 1.00D+00 WtEn= 0.00D+00
 Coeff-Com: -0.199D-06 0.346D-06-0.119D-06-0.242D-06-0.388D-06-0.166D-05
 Coeff-Com:  0.648D-05 0.371D-04 0.134D-03-0.188D-03-0.132D-03-0.957D-02
 Coeff-Com: -0.277D-01 0.169D+00 0.868D+00
 Coeff:     -0.199D-06 0.346D-06-0.119D-06-0.242D-06-0.388D-06-0.166D-05
 Coeff:      0.648D-05 0.371D-04 0.134D-03-0.188D-03-0.132D-03-0.957D-02
 Coeff:     -0.277D-01 0.169D+00 0.868D+00
 Gap=     0.050 Goal=   None    Shift=    0.000
 RMSDP=1.27D-08 MaxDP=5.67D-07 DE=-1.82D-10 OVMax= 8.53D-07

 Cycle  16  Pass 1  IDiag  1:
 RMSU=  8.25D-09    CP:  1.16D+00  8.12D-01  6.07D-01  5.07D-01  9.81D-01
                    CP:  1.20D+00  8.37D-01  8.27D-01  9.73D-01  9.97D-01
                    CP:  1.00D+00  1.08D+00  8.76D-01  1.03D+00  9.66D-01
 E= -190.371029230930     Delta-E=       -0.000000000005 Rises=F Damp=F
 DIIS: error= 9.18D-08 at cycle  16 NSaved=  16.
 NSaved=16 IEnMin=16 EnMin= -190.371029230930     IErMin=16 ErrMin= 9.18D-08
 ErrMax= 9.18D-08  0.00D+00 EMaxC= 1.00D-01 BMatC= 3.41D-13 BMatP= 3.34D-12
 IDIUse=1 WtCom= 1.00D+00 WtEn= 0.00D+00
 Coeff-Com:  0.374D-07-0.739D-07-0.259D-07 0.405D-07-0.597D-06 0.425D-06
 Coeff-Com:  0.618D-06 0.109D-04 0.317D-04-0.271D-05 0.663D-04-0.587D-03
 Coeff-Com: -0.516D-02 0.133D-01 0.887D-01 0.904D+00
 Coeff:      0.374D-07-0.739D-07-0.259D-07 0.405D-07-0.597D-06 0.425D-06
 Coeff:      0.618D-06 0.109D-04 0.317D-04-0.271D-05 0.663D-04-0.587D-03
 Coeff:     -0.516D-02 0.133D-01 0.887D-01 0.904D+00
 Gap=     0.050 Goal=   None    Shift=    0.000
 RMSDP=3.58D-09 MaxDP=2.01D-07 DE=-5.29D-12 OVMax= 4.86D-07

 SCF Done:  E(RB3LYP) =  -190.371029231     A.U. after   16 cycles
            NFock= 16  Conv=0.36D-08     -V/T= 2.0042
 KE= 1.895742649314D+02 PE=-6.434402651789D+02 EE= 1.517860063528D+02
 Leave Link  502 at Sun Jun 19 13:52:48 2016, MaxMem=    33554432 cpu:       390.3
 (Enter /home/proyectos/fulerenos/M3C-v1.9/M3C-deps_CCC/g09-AM64L-G09RevC.01/l801.exe)
 DoSCS=F DFT=T ScalE2(SS,OS)=  1.000000  1.000000
 Range of M.O.s used for correlation:     1   224
 NBasis=   225 NAE=    15 NBE=    15 NFC=     0 NFV=     0
 NROrb=    224 NOA=    15 NOB=    15 NVA=   209 NVB=   209

 **** Warning!!: The largest alpha MO coefficient is  0.10120178D+03


 **** Warning!!: The smallest alpha delta epsilon is  0.49967270D-01

 Leave Link  801 at Sun Jun 19 13:52:48 2016, MaxMem=    33554432 cpu:         0.2
 (Enter /home/proyectos/fulerenos/M3C-v1.9/M3C-deps_CCC/g09-AM64L-G09RevC.01/l1101.exe)
 Using compressed storage, NAtomX=     8.
 Will process      9 centers per pass.
 Leave Link 1101 at Sun Jun 19 13:52:48 2016, MaxMem=    33554432 cpu:         1.3
 (Enter /home/proyectos/fulerenos/M3C-v1.9/M3C-deps_CCC/g09-AM64L-G09RevC.01/l1102.exe)
 Symmetrizing basis deriv contribution to polar:
 IMax=3 JMax=2 DiffMx= 0.00D+00
 Leave Link 1102 at Sun Jun 19 13:52:48 2016, MaxMem=    33554432 cpu:         0.1
 (Enter /home/proyectos/fulerenos/M3C-v1.9/M3C-deps_CCC/g09-AM64L-G09RevC.01/l1110.exe)
 Forming Gx(P) for the SCF density, NAtomX=     8.
 Integral derivatives from FoFJK, PRISM(SPDF).
 Do as many integral derivatives as possible in FoFJK.
 G2DrvN: MDV=      33554264.
 G2DrvN: will do     9 centers at a time, making    1 passes.
 Calling FoFCou, ICntrl=  3107 FMM=F I1Cent=   0 AccDes= 0.00D+00.
 FoFJK:  IHMeth= 1 ICntrl=    3107 DoSepK=F KAlg= 0 I1Cent=   0 FoldK=F
 IRaf=         0 NMat=   1 IRICut=       1 DoRegI=T DoRafI=F ISym2E= 1.
 FoFCou: FMM=F IPFlag=           0 FMFlag=      100000 FMFlg1=           0
         NFxFlg=           0 DoJE=F BraDBF=F KetDBF=F FulRan=T
         wScrn=  0.000000 ICntrl=    3107 IOpCl=  0 I1Cent=           0 NGrid=           0
         NMat0=    1 NMatS0=      1 NMatT0=    0 NMatD0=    1 NMtDS0=    0 NMtDT0=    0
 Petite list used in FoFCou.
 End of G2Drv F.D. properties file   721 does not exist.
 End of G2Drv F.D. properties file   722 does not exist.
 End of G2Drv F.D. properties file   788 does not exist.
 Leave Link 1110 at Sun Jun 19 13:53:42 2016, MaxMem=    33554432 cpu:       214.4
 (Enter /home/proyectos/fulerenos/M3C-v1.9/M3C-deps_CCC/g09-AM64L-G09RevC.01/l1002.exe)
 Minotr:  Closed shell wavefunction.
          IDoAtm=11111111
          Direct CPHF calculation.
          Differentiating once with respect to electric field.
                with respect to dipole field.
          Differentiating once with respect to nuclear coordinates.
          Using symmetry in CPHF.
          Requested convergence is 1.0D-08 RMS, and 1.0D-07 maximum.
          Secondary convergence is 1.0D-12 RMS, and 1.0D-12 maximum.
          NewPWx=T KeepS1=F KeepF1=F KeepIn=T MapXYZ=F SortEE=F KeepMc=T.
          MDV=      33554124 using IRadAn=       2.
 Generate precomputed XC quadrature information.
          Solving linear equations simultaneously, MaxMat=       0.
 FoFJK:  IHMeth= 1 ICntrl=       0 DoSepK=F KAlg= 0 I1Cent=   0 FoldK=F
 IRaf= 960000000 NMat=  27 IRICut=      67 DoRegI=T DoRafI=T ISym2E= 2.
 FoFCou: FMM=F IPFlag=           0 FMFlag=      100000 FMFlg1=           0
         NFxFlg=           0 DoJE=F BraDBF=F KetDBF=F FulRan=T
         wScrn=  0.000000 ICntrl=       0 IOpCl=  0 I1Cent=           0 NGrid=           0
         NMat0=   27 NMatS0=     27 NMatT0=    0 NMatD0=   27 NMtDS0=    0 NMtDT0=    0
 Integrals replicated using symmetry in FoFCou.
          There are    27 degrees of freedom in the 1st order CPHF.  IDoFFX=6 NUNeed=     3.
     25 vectors produced by pass  0 Test12= 1.16D-14 3.70D-09 XBig12= 4.86D+02 2.10D+01.
 AX will form    25 AO Fock derivatives at one time.
     24 vectors produced by pass  1 Test12= 1.16D-14 3.70D-09 XBig12= 7.71D+01 2.40D+00.
     24 vectors produced by pass  2 Test12= 1.16D-14 3.70D-09 XBig12= 4.68D-01 1.61D-01.
     24 vectors produced by pass  3 Test12= 1.16D-14 3.70D-09 XBig12= 2.21D-03 1.16D-02.
     24 vectors produced by pass  4 Test12= 1.16D-14 3.70D-09 XBig12= 3.80D-06 6.21D-04.
     23 vectors produced by pass  5 Test12= 1.16D-14 3.70D-09 XBig12= 5.13D-09 1.65D-05.
      5 vectors produced by pass  6 Test12= 1.16D-14 3.70D-09 XBig12= 4.53D-12 3.65D-07.
      3 vectors produced by pass  7 Test12= 1.16D-14 3.70D-09 XBig12= 2.44D-14 2.87D-08.
      1 vectors produced by pass  8 Test12= 1.16D-14 3.70D-09 XBig12= 1.81D-15 8.79D-09.
 InvSVY:  IOpt=1 It=  1 EMax= 1.98D-15
 Solved reduced A of dimension   153 with    27 vectors.
 FullF1:  Do perturbations    1 to     3.
 Isotropic polarizability for W=    0.000000       54.62 Bohr**3.
 End of Minotr F.D. properties file   721 does not exist.
 End of Minotr F.D. properties file   722 does not exist.
 End of Minotr F.D. properties file   788 does not exist.
 Leave Link 1002 at Sun Jun 19 13:56:03 2016, MaxMem=    33554432 cpu:       564.2
 (Enter /home/proyectos/fulerenos/M3C-v1.9/M3C-deps_CCC/g09-AM64L-G09RevC.01/l601.exe)
 Copying SCF densities to generalized density rwf, IOpCl= 0 IROHF=0.

 **********************************************************************

            Population analysis using the SCF density.

 **********************************************************************

 Orbital symmetries:
       Occupied  (A') (A') (A') (A') (A') (A') (A') (A') (A') (A')
                 (A') (A') (A") (A') (A')
       Virtual   (A") (A') (A") (A") (A') (A") (A') (A') (A') (A')
                 (A') (A') (A") (A') (A') (A") (A') (A") (A') (A')
                 (A') (A") (A') (A") (A') (A') (A') (A") (A') (A')
                 (A') (A") (A') (A") (A') (A') (A') (A') (A") (A')
                 (A') (A') (A") (A") (A') (A') (A") (A') (A') (A')
                 (A") (A') (A") (A') (A") (A') (A') (A') (A') (A")
                 (A') (A') (A") (A') (A") (A') (A') (A') (A') (A")
                 (A') (A') (A") (A') (A') (A") (A') (A') (A') (A")
                 (A') (A') (A") (A') (A') (A') (A") (A') (A') (A")
                 (A') (A') (A") (A') (A') (A') (A") (A") (A') (A')
                 (A') (A') (A") (A") (A') (A") (A') (A') (A") (A')
                 (A') (A') (A') (A") (A') (A') (A") (A") (A") (A')
                 (A') (A") (A') (A') (A") (A") (A') (A") (A') (A')
                 (A") (A") (A') (A') (A") (A') (A") (A') (A') (A')
                 (A") (A') (A") (A") (A') (A') (A') (A') (A') (A")
                 (A') (A') (A') (A') (A") (A') (A') (A') (A") (A')
                 (A") (A') (A") (A') (A') (A") (A') (A") (A') (A')
                 (A") (A') (A') (A') (A") (A') (A') (A') (A') (A")
                 (A') (A") (A") (A') (A") (A') (A') (A") (A") (A")
                 (A') (A") (A') (A') (A') (A") (A') (A") (A') (A')
                 (A') (A') (A') (A') (A') (A') (A') (A') (A')
 The electronic state is 1-A'.
 Alpha  occ. eigenvalues --  -11.11134 -10.99442 -10.99145 -10.96284 -10.95974
 Alpha  occ. eigenvalues --   -1.54682  -1.48527  -1.40863  -1.26638  -1.22219
 Alpha  occ. eigenvalues --   -1.18400  -1.12858  -1.04788  -1.02088  -0.98612
 Alpha virt. eigenvalues --   -0.93615  -0.83812  -0.83562  -0.72533  -0.68079
 Alpha virt. eigenvalues --   -0.60068  -0.53810  -0.50401  -0.49934  -0.47978
 Alpha virt. eigenvalues --   -0.44348  -0.43440  -0.41091  -0.39579  -0.38014
 Alpha virt. eigenvalues --   -0.37661  -0.36531  -0.34840  -0.34228  -0.32366
 Alpha virt. eigenvalues --   -0.30361  -0.29586  -0.29020  -0.28859  -0.27016
 Alpha virt. eigenvalues --   -0.25147  -0.24772  -0.24672  -0.23630  -0.23548
 Alpha virt. eigenvalues --   -0.20848  -0.20656  -0.19966  -0.19244  -0.17687
 Alpha virt. eigenvalues --   -0.17013  -0.16614  -0.15157  -0.13391  -0.11242
 Alpha virt. eigenvalues --   -0.10744  -0.09181  -0.08496  -0.07882  -0.07225
 Alpha virt. eigenvalues --   -0.06471  -0.04825  -0.04326  -0.03189  -0.02303
 Alpha virt. eigenvalues --   -0.01700  -0.00615   0.00271   0.01569   0.02150
 Alpha virt. eigenvalues --    0.02825   0.03876   0.04443   0.06517   0.06865
 Alpha virt. eigenvalues --    0.09014   0.09902   0.12132   0.12884   0.16928
 Alpha virt. eigenvalues --    0.16970   0.17775   0.22119   0.22808   0.25419
 Alpha virt. eigenvalues --    0.27482   0.32118   0.33455   0.36313   0.42682
 Alpha virt. eigenvalues --    0.44571   0.46693   0.50211   0.54428   0.56028
 Alpha virt. eigenvalues --    0.59982   0.62944   0.63474   0.63887   0.66253
 Alpha virt. eigenvalues --    0.67811   0.71227   0.75316   0.76184   0.77651
 Alpha virt. eigenvalues --    0.79323   0.81726   0.83729   0.84498   0.86058
 Alpha virt. eigenvalues --    0.91334   0.91687   0.95201   0.97126   0.98011
 Alpha virt. eigenvalues --    1.01062   1.05844   1.06069   1.08036   1.14386
 Alpha virt. eigenvalues --    1.14899   1.21725   1.26838   1.30514   1.35129
 Alpha virt. eigenvalues --    1.40052   1.53329   1.59009   1.60844   1.80716
 Alpha virt. eigenvalues --    1.82974   1.85306   1.89915   1.94665   1.95885
 Alpha virt. eigenvalues --    1.98412   1.98458   2.00488   2.01799   2.03703
 Alpha virt. eigenvalues --    2.07653   2.08200   2.09295   2.09439   2.11355
 Alpha virt. eigenvalues --    2.12226   2.15641   2.17688   2.21588   2.22047
 Alpha virt. eigenvalues --    2.23372   2.26745   2.27718   2.29737   2.30596
 Alpha virt. eigenvalues --    2.32224   2.37721   2.39066   2.46296   2.46615
 Alpha virt. eigenvalues --    2.48210   2.49508   2.54143   2.61543   2.66650
 Alpha virt. eigenvalues --    2.68556   2.71170   2.88968   2.95182   3.04193
 Alpha virt. eigenvalues --    3.10474   3.14678   3.18059   3.22525   3.25015
 Alpha virt. eigenvalues --    3.30703   3.48815   3.54111   3.54119   3.59095
 Alpha virt. eigenvalues --    3.59272   3.73654   3.75559   3.77573   3.86775
 Alpha virt. eigenvalues --    3.87669   4.17701   4.42472   4.63367   4.85146
 Alpha virt. eigenvalues --    4.96474   5.08375   5.26130   5.43459   6.13624
 Alpha virt. eigenvalues --    6.15839   6.17047   6.19509   6.21899   6.30552
 Alpha virt. eigenvalues --    6.33586   6.35081   6.35740   6.46258   6.52954
 Alpha virt. eigenvalues --    6.57228   6.59455   6.60632   6.63811   6.67381
 Alpha virt. eigenvalues --    6.77630   6.81042   6.91417   7.09356   7.16642
 Alpha virt. eigenvalues --    7.25904   7.31388   7.49032   7.79098  22.91734
 Alpha virt. eigenvalues --   23.15433  23.80319  24.60809  25.46894
          Condensed to atoms (all electrons):
               1          2          3          4          5          6
     1  C    6.413593   0.310042  -1.083461  -0.058973   0.059005  -0.109843
     2  H    0.310042   0.228274  -0.034964   0.004152   0.000733  -0.000678
     3  C   -1.083461  -0.034964   7.734946  -0.826072  -0.171432  -0.113646
     4  C   -0.058973   0.004152  -0.826072   6.786811   0.516858  -0.397280
     5  H    0.059005   0.000733  -0.171432   0.516858   0.381707  -0.105063
     6  C   -0.109843  -0.000678  -0.113646  -0.397280  -0.105063   6.737702
     7  H   -0.016933   0.000508   0.036981  -0.138339  -0.001385   0.488920
     8  C    0.041499  -0.000272  -0.034798  -0.021368   0.031830  -0.690100
               7          8
     1  C   -0.016933   0.041499
     2  H    0.000508  -0.000272
     3  C    0.036981  -0.034798
     4  C   -0.138339  -0.021368
     5  H   -0.001385   0.031830
     6  C    0.488920  -0.690100
     7  H    0.395769  -0.069452
     8  C   -0.069452   6.088258
 Mulliken charges:
               1
     1  C    0.445071
     2  H    0.492205
     3  C    0.492446
     4  C    0.134212
     5  H    0.287747
     6  C    0.189986
     7  H    0.303931
     8  C    0.654402
 Sum of Mulliken charges =   3.00000
 Mulliken charges with hydrogens summed into heavy atoms:
               1
     1  C    0.937276
     3  C    0.492446
     4  C    0.421958
     6  C    0.493917
     8  C    0.654402
 APT charges:
               1
     1  C    0.908198
     2  H    0.496604
     3  C   -0.015702
     4  C   -0.325873
     5  H    0.279269
     6  C    0.125779
     7  H    0.239496
     8  C    1.292227
 Sum of APT charges =   3.00000
 APT charges with hydrogens summed into heavy atoms:
               1
     1  C    1.404803
     3  C   -0.015702
     4  C   -0.046603
     6  C    0.365275
     8  C    1.292227
 Electronic spatial extent (au):  <R**2>=            420.7328
 Charge=              3.0000 electrons
 Dipole moment (field-independent basis, Debye):
    X=             -0.0006    Y=             -1.1685    Z=             -0.0000  Tot=              1.1685
 Quadrupole moment (field-independent basis, Debye-Ang):
   XX=             43.8659   YY=            -12.4870   ZZ=            -20.9095
   XY=            -12.3258   XZ=              0.0000   YZ=             -0.0000
 Traceless Quadrupole moment (field-independent basis, Debye-Ang):
   XX=             40.3761   YY=            -15.9767   ZZ=            -24.3993
   XY=            -12.3258   XZ=              0.0000   YZ=             -0.0000
 Octapole moment (field-independent basis, Debye-Ang**2):
  XXX=             41.2923  YYY=              1.0646  ZZZ=              0.0000  XYY=              4.0000
  XXY=            -29.0119  XXZ=             -0.0000  XZZ=              0.6206  YZZ=             -0.5562
  YYZ=             -0.0000  XYZ=              0.0000
 Hexadecapole moment (field-independent basis, Debye-Ang**3):
 XXXX=             43.6727 YYYY=            -40.0661 ZZZZ=            -17.6730 XXXY=            -85.4952
 XXXZ=              0.0000 YYYX=             32.7979 YYYZ=             -0.0000 ZZZX=              0.0000
 ZZZY=             -0.0000 XXYY=            -42.4873 XXZZ=            -67.9563 YYZZ=            -13.0514
 XXYZ=             -0.0000 YYXZ=              0.0000 ZZXY=             10.9007
 N-N= 1.117089646638D+02 E-N=-6.434402655296D+02  KE= 1.895742649314D+02
 Symmetry A'   KE= 1.873099615768D+02
 Symmetry A"   KE= 2.264303354656D+00
  Exact polarizability: 104.148 -13.565  34.317  -0.000  -0.000  25.385
 Approx polarizability: 264.019 -37.157  55.298  -0.000  -0.000  37.741
 No NMR shielding tensors so no spin-rotation constants.
 Leave Link  601 at Sun Jun 19 13:56:04 2016, MaxMem=    33554432 cpu:         3.0
 (Enter /home/proyectos/fulerenos/M3C-v1.9/M3C-deps_CCC/g09-AM64L-G09RevC.01/l701.exe)
 Compute integral second derivatives.
 ... and contract with generalized density number  0.
 Leave Link  701 at Sun Jun 19 13:56:04 2016, MaxMem=    33554432 cpu:         1.6
 (Enter /home/proyectos/fulerenos/M3C-v1.9/M3C-deps_CCC/g09-AM64L-G09RevC.01/l702.exe)
 L702 exits ... SP integral derivatives will be done elsewhere.
 Leave Link  702 at Sun Jun 19 13:56:04 2016, MaxMem=    33554432 cpu:         0.1
 (Enter /home/proyectos/fulerenos/M3C-v1.9/M3C-deps_CCC/g09-AM64L-G09RevC.01/l703.exe)
 Compute integral second derivatives, UseDBF=F ICtDFT=           0.
 Integral derivatives from FoFJK, PRISM(SPDF).
 Calling FoFJK, ICntrl=    100127 FMM=F ISym2X=1 I1Cent= 0 IOpClX= 0 NMat=1 NMatS=1 NMatT=0.
 FoFJK:  IHMeth= 1 ICntrl=  100127 DoSepK=F KAlg= 0 I1Cent=   0 FoldK=F
 IRaf=         0 NMat=   1 IRICut=       1 DoRegI=T DoRafI=F ISym2E= 1.
 FoFCou: FMM=F IPFlag=           0 FMFlag=      100000 FMFlg1=         800
         NFxFlg=           0 DoJE=F BraDBF=F KetDBF=F FulRan=T
         wScrn=  0.000000 ICntrl=  100127 IOpCl=  0 I1Cent=           0 NGrid=           0
         NMat0=    1 NMatS0=      1 NMatT0=    0 NMatD0=    1 NMtDS0=    0 NMtDT0=    0
 Petite list used in FoFCou.
 Leave Link  703 at Sun Jun 19 13:58:04 2016, MaxMem=    33554432 cpu:       479.7
 (Enter /home/proyectos/fulerenos/M3C-v1.9/M3C-deps_CCC/g09-AM64L-G09RevC.01/l716.exe)
 Dipole        =-2.25171931D-04-4.59726824D-01-5.74617862D-33
 Polarizability= 1.04148317D+02-1.35650503D+01 3.43170693D+01
                -3.26015160D-04-2.13230928D-04 2.53850763D+01
 Full mass-weighted force constant matrix:
 Low frequencies ---   -8.8344   -4.1257   -0.0006    0.0004    0.0005    3.1813
 Low frequencies ---   97.3877  171.1448  313.1531
 Diagonal vibrational polarizability:
       56.8779613      14.4263812      13.0147143
 Harmonic frequencies (cm**-1), IR intensities (KM/Mole), Raman scattering
 activities (A**4/AMU), depolarization ratios for plane and unpolarized
 incident light, reduced masses (AMU), force constants (mDyne/A),
 and normal coordinates:
                      1                      2                      3
                     A"                     A'                     A'
 Frequencies --     97.3872               171.1445               313.1531
 Red. masses --      4.3194                 4.9283                 6.5221
 Frc consts  --      0.0241                 0.0850                 0.3768
 IR Inten    --      1.7626                 6.2797                13.6296
  Atom  AN      X      Y      Z        X      Y      Z        X      Y      Z
     1   6    -0.00  -0.00   0.22     0.18   0.27   0.00    -0.19  -0.06   0.00
     2   1    -0.00  -0.00   0.45     0.32   0.58   0.00    -0.25  -0.19   0.00
     3   6     0.00   0.00  -0.08    -0.03  -0.21  -0.00    -0.02   0.30  -0.00
     4   6     0.00   0.00  -0.21    -0.06  -0.26  -0.00    -0.18  -0.01  -0.00
     5   1     0.00   0.00  -0.09    -0.00  -0.27  -0.00    -0.49  -0.00   0.00
     6   6     0.00   0.00  -0.26    -0.14  -0.12  -0.00     0.06  -0.38   0.00
     7   1     0.00   0.00  -0.70    -0.35  -0.10  -0.00     0.13  -0.37  -0.00
     8   6    -0.00  -0.00   0.36     0.05   0.30   0.00     0.39   0.20   0.00
                      4                      5                      6
                     A"                     A'                     A"
 Frequencies --    337.2127               481.0236               672.7992
 Red. masses --      2.8966                 7.6844                 1.3324
 Frc consts  --      0.1941                 1.0476                 0.3553
 IR Inten    --     21.6603                68.8790                 7.4108
  Atom  AN      X      Y      Z        X      Y      Z        X      Y      Z
     1   6     0.00   0.00  -0.10     0.18  -0.19   0.00    -0.00  -0.00  -0.01
     2   1     0.00   0.00  -0.74     0.13  -0.29  -0.00     0.00   0.00   0.05
     3   6    -0.00  -0.00   0.37     0.41   0.38   0.00     0.00   0.00   0.01
     4   6    -0.00  -0.00  -0.10     0.01  -0.19  -0.00    -0.00  -0.00   0.01
     5   1    -0.00  -0.00  -0.53    -0.25  -0.20  -0.00    -0.00  -0.00   0.33
     6   6    -0.00  -0.00  -0.11    -0.19  -0.08   0.00    -0.00   0.00  -0.17
     7   1    -0.00  -0.00  -0.06    -0.43  -0.06  -0.00    -0.00   0.00   0.93
     8   6     0.00   0.00   0.05    -0.36   0.13   0.00     0.00  -0.00   0.04
                      7                      8                      9
                     A'                     A'                     A"
 Frequencies --    677.6731               732.6404               764.8807
 Red. masses --      1.2267                 4.6369                 1.5161
 Frc consts  --      0.3319                 1.4664                 0.5226
 IR Inten    --     70.1629               709.7172                43.7124
  Atom  AN      X      Y      Z        X      Y      Z        X      Y      Z
     1   6    -0.06  -0.12   0.00     0.09  -0.02  -0.00     0.00  -0.00   0.06
     2   1     0.41   0.90  -0.00     0.01  -0.25   0.00    -0.00   0.00  -0.43
     3   6     0.01   0.03  -0.00     0.05   0.06  -0.00     0.00   0.00   0.02
     4   6    -0.01   0.00  -0.00    -0.16  -0.09   0.00    -0.00  -0.00  -0.18
     5   1     0.01   0.00  -0.00    -0.16  -0.09  -0.00    -0.00  -0.00   0.87
     6   6    -0.00   0.02   0.00    -0.25   0.26   0.00    -0.00   0.00   0.09
     7   1    -0.01   0.02  -0.00    -0.71   0.26  -0.00    -0.00   0.00  -0.06
     8   6     0.02  -0.01  -0.00     0.33  -0.20  -0.00     0.00  -0.00  -0.02
                     10                     11                     12
                     A"                     A'                     A'
 Frequencies --    921.8298               986.4243              1136.2393
 Red. masses --      1.5936                 4.8106                 1.9803
 Frc consts  --      0.7979                 2.7579                 1.5063
 IR Inten    --     13.7660               211.4718               109.4975
  Atom  AN      X      Y      Z        X      Y      Z        X      Y      Z
     1   6    -0.00   0.00  -0.17     0.29  -0.13  -0.00     0.04  -0.02  -0.00
     2   1    -0.00   0.00   0.92     0.39  -0.07  -0.00     0.05  -0.06   0.00
     3   6    -0.00   0.00   0.13     0.04  -0.15   0.00    -0.01   0.02   0.00
     4   6     0.00  -0.00  -0.09    -0.22   0.36  -0.00    -0.19  -0.15  -0.00
     5   1     0.00  -0.00   0.29    -0.35   0.39   0.00    -0.17  -0.18  -0.00
     6   6    -0.00   0.00   0.03    -0.16  -0.12   0.00     0.10   0.13   0.00
     7   1    -0.00   0.00  -0.09     0.45  -0.15  -0.00     0.91   0.13  -0.00
     8   6     0.00  -0.00  -0.00     0.00   0.03  -0.00    -0.02   0.02  -0.00
                     13                     14                     15
                     A'                     A'                     A'
 Frequencies --   1217.6406              1388.2017              1903.9716
 Red. masses --      1.6167                 1.4787                 6.4482
 Frc consts  --      1.4122                 1.6789                13.7724
 IR Inten    --      8.7294                54.6345               276.3559
  Atom  AN      X      Y      Z        X      Y      Z        X      Y      Z
     1   6     0.04  -0.02  -0.00     0.05  -0.02  -0.00    -0.30   0.13  -0.00
     2   1     0.07  -0.01   0.00     0.06  -0.04   0.00    -0.65   0.27   0.00
     3   6    -0.03  -0.03   0.00    -0.02   0.04   0.00     0.52  -0.25   0.00
     4   6    -0.07   0.01  -0.00    -0.16   0.01   0.00    -0.21   0.08   0.00
     5   1    -0.71   0.02   0.00     0.91  -0.00  -0.00     0.03   0.10  -0.00
     6   6     0.21   0.02   0.00     0.10  -0.03   0.00     0.04   0.01   0.00
     7   1    -0.65   0.09  -0.00    -0.35   0.00  -0.00    -0.04   0.03  -0.00
     8   6    -0.05   0.01  -0.00    -0.02   0.00  -0.00     0.00   0.00  -0.00
                     16                     17                     18
                     A'                     A'                     A'
 Frequencies --   2831.1383              2964.8119              2990.8301
 Red. masses --      1.0871                 1.1652                 1.0960
 Frc consts  --      5.1338                 6.0343                 5.7764
 IR Inten    --    205.2391               604.8645               147.7470
  Atom  AN      X      Y      Z        X      Y      Z        X      Y      Z
     1   6    -0.00   0.00  -0.00    -0.10   0.05   0.00    -0.02   0.01   0.00
     2   1     0.02  -0.01   0.00     0.89  -0.41  -0.00     0.16  -0.07  -0.00
     3   6     0.00   0.00   0.00     0.03  -0.01  -0.00     0.00  -0.00  -0.00
     4   6     0.01   0.00   0.00    -0.00   0.02  -0.00    -0.00  -0.09  -0.00
     5   1     0.01   0.01  -0.00    -0.00  -0.18   0.00     0.02   0.98   0.00
     6   6    -0.01  -0.08  -0.00     0.00   0.00   0.00     0.00   0.00   0.00
     7   1     0.04   1.00   0.00    -0.00  -0.02  -0.00     0.01  -0.01  -0.00
     8   6     0.00  -0.00   0.00    -0.00   0.00  -0.00    -0.00   0.00  -0.00

 -------------------
 - Thermochemistry -
 -------------------
 Temperature   298.150 Kelvin.  Pressure   1.00000 Atm.
 Atom     1 has atomic number  6 and mass  12.00000
 Atom     2 has atomic number  1 and mass   1.00783
 Atom     3 has atomic number  6 and mass  12.00000
 Atom     4 has atomic number  6 and mass  12.00000
 Atom     5 has atomic number  1 and mass   1.00783
 Atom     6 has atomic number  6 and mass  12.00000
 Atom     7 has atomic number  1 and mass   1.00783
 Atom     8 has atomic number  6 and mass  12.00000
 Molecular mass:    63.02348 amu.
 Principal axes and moments of inertia in atomic units:
                           1         2         3
     Eigenvalues --    39.65129 750.07998 789.73127
           X            0.98210   0.18837   0.00000
           Y           -0.18837   0.98210   0.00000
           Z           -0.00000   0.00000   1.00000
 This molecule is an asymmetric top.
 Rotational symmetry number  1.
 Rotational temperatures (Kelvin)      2.18439     0.11547     0.10968
 Rotational constants (GHZ):          45.51532     2.40607     2.28526
 Zero-point vibrational energy     123149.6 (Joules/Mol)
                                   29.43346 (Kcal/Mol)
 Warning -- explicit consideration of   5 degrees of freedom as
           vibrations may cause significant error
 Vibrational temperatures:    140.12   246.24   450.56   485.17   692.08
          (Kelvin)            968.01   975.02  1054.10  1100.49  1326.31
                             1419.24  1634.79  1751.91  1997.31  2739.39
                             4073.37  4265.70  4303.13
 
 Zero-point correction=                           0.046905 (Hartree/Particle)
 Thermal correction to Energy=                    0.052673
 Thermal correction to Enthalpy=                  0.053617
 Thermal correction to Gibbs Free Energy=         0.018582
 Sum of electronic and zero-point Energies=           -190.324124
 Sum of electronic and thermal Energies=              -190.318356
 Sum of electronic and thermal Enthalpies=            -190.317412
 Sum of electronic and thermal Free Energies=         -190.352447
 
                     E (Thermal)             CV                S
                      KCal/Mol        Cal/Mol-Kelvin    Cal/Mol-Kelvin
 Total                   33.053             19.001             73.737
 Electronic               0.000              0.000              0.000
 Translational            0.889              2.981             38.342
 Rotational               0.889              2.981             24.666
 Vibrational             31.275             13.040             10.728
 Vibration     1          0.603              1.951              3.506
 Vibration     2          0.626              1.878              2.423
 Vibration     3          0.701              1.649              1.346
 Vibration     4          0.718              1.601              1.225
 Vibration     5          0.837              1.292              0.707
                       Q            Log10(Q)             Ln(Q)
 Total Bot       0.283616D-08         -8.547269        -19.680814
 Total V=0       0.106556D+14         13.027578         29.997108
 Vib (Bot)       0.262878D-20        -20.580246        -47.387768
 Vib (Bot)    1  0.210839D+01          0.323951          0.745924
 Vib (Bot)    2  0.117708D+01          0.070806          0.163036
 Vib (Bot)    3  0.602726D+00         -0.219880         -0.506292
 Vib (Bot)    4  0.551614D+00         -0.258365         -0.594907
 Vib (Bot)    5  0.347384D+00         -0.459191         -1.057325
 Vib (V=0)       0.987646D+01          0.994601          2.290154
 Vib (V=0)    1  0.266686D+01          0.426001          0.980903
 Vib (V=0)    2  0.177887D+01          0.250145          0.575980
 Vib (V=0)    3  0.128312D+01          0.108268          0.249296
 Vib (V=0)    4  0.124450D+01          0.094994          0.218733
 Vib (V=0)    5  0.110883D+01          0.044865          0.103306
 Electronic      0.100000D+01          0.000000          0.000000
 Translational   0.196657D+08          7.293709         16.794385
 Rotational      0.548616D+05          4.739269         10.912569
 
                                                              b3lyp opt
                                                             IR Spectrum
 
     2 2    2                                       1                     1      1  1                                                
     9 9    8                                       9                     3      2  1      9 9      77 66       4     33     1       
     9 6    3                                       0                     8      1  3      8 2      63 77       8     31     7  9    
     1 5    1                                       4                     8      8  6      6 2      53 83       1     73     1  7    
 
     X X    X                                       X                     X      X  X      X X      XX XX       X     XX     X  X    
     X X    X                                       X                     X         X      X         X X        X                    
     X X    X                                       X                               X      X         X                               
     X X    X                                       X                                      X         X                               
       X    X                                       X                                      X         X                               
       X    X                                       X                                      X         X                               
       X                                            X                                                X                               
       X                                            X                                                X                               
       X                                                                                             X                               
       X                                                                                             X                               
       X                                                                                             X                               
       X                                                                                             X                               
       X                                                                                             X                               
       X                                                                                             X                               
       X                                                                                             X                               
       X                                                                                             X                               
       X                                                                                             X                               
                                                                                                     X                               
                                                                                                     X                               
                                                                                                     X                               
 
 ***** Axes restored to original set *****
 -------------------------------------------------------------------
 Center     Atomic                   Forces (Hartrees/Bohr)
 Number     Number              X              Y              Z
 -------------------------------------------------------------------
      1        6           0.000016597   -0.000018968    0.000000000
      2        1          -0.000026032    0.000012797   -0.000000000
      3        6          -0.000020386    0.000004155   -0.000000000
      4        6           0.000118572    0.000072485    0.000000000
      5        1          -0.000020941   -0.000009890   -0.000000000
      6        6          -0.000061177   -0.000116571   -0.000000000
      7        1           0.000014195    0.000014957    0.000000000
      8        6          -0.000020828    0.000041035   -0.000000000
 -------------------------------------------------------------------
 Cartesian Forces:  Max     0.000118572 RMS     0.000041650
 Z-matrix is all fixed cartesians, so copy forces.
 Force constants in Cartesian coordinates: 
                1             2             3             4             5 
      1  0.866210D+00
      2 -0.370070D+00  0.209085D+00
      3  0.000000D+00  0.000000D+00  0.915767D-01
      4 -0.264487D+00  0.111343D+00  0.000000D+00  0.248632D+00
      5  0.115104D+00 -0.742666D-01  0.000000D+00 -0.107595D+00  0.641209D-01
      6  0.000000D+00  0.000000D+00 -0.409609D-01  0.000000D+00  0.000000D+00
      7 -0.598787D+00  0.255915D+00  0.000000D+00  0.138935D-01 -0.101640D-01
      8  0.256756D+00 -0.135595D+00  0.000000D+00 -0.488520D-02  0.437774D-02
      9  0.000000D+00  0.000000D+00 -0.681533D-01  0.000000D+00  0.000000D+00
     10  0.298534D-01 -0.112433D-01  0.000000D+00  0.572906D-02  0.427040D-03
     11  0.121115D-01 -0.576812D-02  0.000000D+00  0.220649D-02  0.532680D-02
     12  0.000000D+00  0.000000D+00  0.201697D-01  0.000000D+00  0.000000D+00
     13 -0.213902D-02  0.156810D-02  0.000000D+00  0.242854D-03 -0.103927D-02
     14 -0.953841D-03  0.555116D-03  0.000000D+00  0.109840D-02 -0.374618D-03
     15  0.000000D+00  0.000000D+00 -0.212775D-02  0.000000D+00  0.000000D+00
     16 -0.143341D-01  0.610099D-02  0.000000D+00  0.105327D-02  0.102344D-02
     17 -0.157810D-01  0.617976D-02  0.000000D+00 -0.317845D-02  0.105812D-02
     18 -0.197388D-05  0.000000D+00 -0.131304D-02  0.139283D-05  0.000000D+00
     19  0.307636D-03 -0.413548D-03  0.000000D+00 -0.203897D-03 -0.922059D-05
     20 -0.348523D-02  0.201326D-02  0.000000D+00 -0.987925D-03  0.534783D-03
     21  0.000000D+00  0.000000D+00  0.231428D-02  0.000000D+00  0.000000D+00
     22 -0.166244D-01  0.679877D-02  0.000000D+00 -0.485982D-02  0.225259D-02
     23  0.631755D-02 -0.220300D-02  0.000000D+00  0.199795D-02 -0.777148D-03
     24  0.000000D+00  0.000000D+00 -0.150572D-02  0.000000D+00  0.000000D+00
                6             7             8             9            10 
      6  0.211589D-01
      7  0.000000D+00  0.919261D+00
      8  0.000000D+00 -0.407161D+00  0.286877D+00
      9  0.225322D-01  0.000000D+00  0.000000D+00  0.797786D-01
     10  0.000000D+00 -0.318686D+00  0.146661D+00  0.000000D+00  0.541978D+00
     11  0.000000D+00  0.134532D+00 -0.152415D+00  0.000000D+00 -0.408249D-01
     12 -0.379135D-02  0.000000D+00  0.000000D+00 -0.497311D-01  0.000000D+00
     13  0.000000D+00 -0.235589D-02  0.300210D-01  0.000000D+00 -0.505654D-01
     14  0.000000D+00  0.591049D-02 -0.738718D-02  0.000000D+00 -0.795208D-02
     15  0.670826D-03  0.000000D+00  0.000000D+00  0.992380D-02  0.000000D+00
     16  0.000000D+00 -0.112394D-01 -0.225804D-01  0.000000D+00 -0.223849D+00
     17  0.000000D+00  0.176579D-01  0.474621D-02  0.000000D+00 -0.822989D-01
     18  0.569299D-03  0.000000D+00  0.000000D+00  0.593883D-02  0.000000D+00
     19  0.000000D+00  0.166969D-02 -0.329161D-03  0.000000D+00  0.182380D-02
     20  0.000000D+00  0.145833D-02  0.177518D-02  0.000000D+00  0.841557D-02
     21 -0.756421D-03  0.000000D+00  0.000000D+00 -0.246191D-02  0.000000D+00
     22  0.000000D+00 -0.375611D-02  0.151763D-02  0.000000D+00  0.137161D-01
     23  0.000000D+00  0.185186D-02 -0.237903D-02  0.000000D+00 -0.131846D-01
     24  0.577470D-03  0.000000D+00  0.000000D+00  0.217283D-02  0.000000D+00
               11            12            13            14            15 
     11  0.607377D+00
     12  0.000000D+00  0.954168D-01
     13 -0.336502D-02  0.000000D+00  0.614793D-01
     14 -0.306529D+00  0.000000D+00  0.464135D-02  0.313555D+00
     15  0.000000D+00 -0.328097D-01  0.000000D+00  0.000000D+00  0.148845D-01
     16 -0.756263D-01  0.000000D+00 -0.352154D-02  0.402141D-04  0.000000D+00
     17 -0.145525D+00  0.000000D+00 -0.279876D-01 -0.237136D-02  0.000000D+00
     18  0.000000D+00 -0.426101D-01  0.000000D+00  0.000000D+00  0.847925D-02
     19 -0.302302D-01  0.000000D+00 -0.376273D-02  0.442360D-03  0.000000D+00
     20 -0.430010D-02  0.000000D+00 -0.416890D-03  0.241066D-03  0.000000D+00
     21  0.000000D+00  0.584373D-02  0.000000D+00  0.000000D+00  0.271117D-02
     22  0.119660D-02  0.000000D+00  0.622501D-03 -0.322688D-02  0.000000D+00
     23  0.183400D-02  0.000000D+00 -0.342165D-02  0.231187D-02  0.000000D+00
     24  0.000000D+00  0.751202D-02  0.000000D+00  0.000000D+00 -0.173215D-02
               16            17            18            19            20 
     16  0.410950D+00
     17  0.726036D-01  0.429151D+00
     18  0.000000D+00  0.199090D-05  0.738196D-01
     19 -0.480381D-01  0.967727D-02  0.000000D+00  0.463974D-01
     20 -0.248797D-01 -0.269398D+00 -0.138396D-05  0.990811D-02  0.282271D+00
     21  0.000000D+00  0.000000D+00 -0.252744D-01  0.000000D+00  0.000000D+00
     22 -0.111020D+00  0.293072D-01  0.000000D+00  0.180624D-02  0.998770D-02
     23  0.433181D-01 -0.238406D-01  0.000000D+00  0.109544D-01 -0.131372D-01
     24  0.000000D+00  0.000000D+00 -0.196094D-01  0.000000D+00  0.000000D+00
               21            22            23            24 
     21  0.114933D-01
     22  0.000000D+00  0.120116D+00
     23  0.000000D+00 -0.478336D-01  0.381911D-01
     24  0.613017D-02  0.000000D+00  0.000000D+00  0.645476D-02
 Leave Link  716 at Sun Jun 19 13:58:06 2016, MaxMem=    33554432 cpu:         3.9
 (Enter /home/proyectos/fulerenos/M3C-v1.9/M3C-deps_CCC/g09-AM64L-G09RevC.01/l103.exe)

 GradGradGradGradGradGradGradGradGradGradGradGradGradGradGradGradGradGrad
 Berny optimization.
 Search for a local minimum.
 Step number   1 out of a maximum of    2
 All quantities printed in internal units (Hartrees-Bohrs-Radians)
 Second derivative matrix not updated -- analytic derivatives used.
 ITU=  0
     Eigenvalues ---    0.00187   0.00532   0.01405   0.02414   0.03943
     Eigenvalues ---    0.05374   0.05988   0.09018   0.10626   0.11832
     Eigenvalues ---    0.17922   0.19578   0.24097   0.46705   0.53564
     Eigenvalues ---    0.81633   0.89421   1.89368
 Angle between quadratic step and forces=  66.55 degrees.
 ClnCor:  largest displacement from symmetrization is 4.54D-08 for atom     8.
 Linear search not attempted -- first point.
 ClnCor:  largest displacement from symmetrization is 9.93D-16 for atom     2.
 B after Tr=     0.000042    0.000053   -0.000000
         Rot=    1.000000   -0.000000    0.000000    0.000008 Ang=   0.00 deg.
 Variable       Old X    -DE/DX   Delta X   Delta X   Delta X     New X
                                 (Linear)    (Quad)   (Total)
    X1        4.49845   0.00002   0.00000  -0.00020  -0.00018   4.49826
    Y1       -1.22527  -0.00002   0.00000  -0.00011  -0.00013  -1.22540
    Z1        0.00000   0.00000   0.00000  -0.00000   0.00000   0.00000
    X2        6.41234  -0.00003   0.00000  -0.00035  -0.00034   6.41200
    Y2       -2.10191   0.00001   0.00000  -0.00016  -0.00022  -2.10213
    Z2        0.00000  -0.00000   0.00000  -0.00000   0.00000   0.00000
    X3        2.25835  -0.00002   0.00000   0.00004   0.00008   2.25843
    Y3       -0.26874   0.00000   0.00000   0.00036   0.00037  -0.26837
    Z3        0.00000  -0.00000   0.00000   0.00000   0.00000   0.00000
    X4        0.00000   0.00012   0.00000   0.00005   0.00011   0.00011
    Y4        1.04629   0.00007   0.00000   0.00013   0.00019   1.04648
    Z4       -0.00000   0.00000   0.00000   0.00000   0.00000   0.00000
    X5        0.07172  -0.00002   0.00000  -0.00072  -0.00063   0.07109
    Y5        3.13063  -0.00001   0.00000   0.00011   0.00017   3.13079
    Z5       -0.00000  -0.00000   0.00000  -0.00000   0.00000   0.00000
    X6       -2.36642  -0.00006   0.00000   0.00007   0.00011  -2.36631
    Y6       -0.30339  -0.00012   0.00000  -0.00065  -0.00056  -0.30395
    Z6       -0.00000  -0.00000   0.00000   0.00000  -0.00000  -0.00000
    X7       -2.52799   0.00001   0.00000   0.00054   0.00054  -2.52746
    Y7       -2.41310   0.00001   0.00000  -0.00057  -0.00048  -2.41357
    Z7       -0.00000   0.00000   0.00000   0.00000  -0.00000  -0.00000
    X8       -5.04972  -0.00002   0.00000   0.00026   0.00032  -5.04940
    Y8        0.98184   0.00004   0.00000   0.00052   0.00066   0.98250
    Z8       -0.00000  -0.00000   0.00000   0.00000  -0.00000  -0.00000
         Item               Value     Threshold  Converged?
 Maximum Force            0.000119     0.000450     YES
 RMS     Force            0.000042     0.000300     YES
 Maximum Displacement     0.000660     0.001800     YES
 RMS     Displacement     0.000303     0.001200     YES
 Predicted change in Energy=-6.166969D-08
 Optimization completed.
    -- Stationary point found.
 GradGradGradGradGradGradGradGradGradGradGradGradGradGradGradGradGradGrad

 Leave Link  103 at Sun Jun 19 13:58:06 2016, MaxMem=    33554432 cpu:         0.9
 (Enter /home/proyectos/fulerenos/M3C-v1.9/M3C-deps_CCC/g09-AM64L-G09RevC.01/l9999.exe)
 1\1\GINC-BELVIS4\Freq\RB3LYP\6-311++G(3df,2p)\C5H3(3+)\ROOT\19-Jun-201
 6\0\\#p b3lyp/6-311++G(3df,2p) freq symmetry=Loose\\b3lyp opt\\3,1\C,2
 .380475,-0.648383,0.\H,3.393266,-1.112285,0.\C,1.195069,-0.142213,0.\C
 ,0.,0.553673,0.\H,0.037952,1.656656,0.\C,-1.252257,-0.160548,0.\H,-1.3
 37757,-1.276956,0.\C,-2.672197,0.519568,0.\\Version=EM64L-G09RevE.01\S
 tate=1-A'\HF=-190.3710292\RMSD=3.584e-09\RMSF=4.165e-05\ZeroPoint=0.04
 69052\Thermal=0.0526728\Dipole=-0.0002251,-0.4597268,0.\DipoleDeriv=1.
 4502649,-0.1612253,0.0000159,-0.3823789,0.5440114,-0.0000031,-0.000008
 2,-0.0000052,0.7303189,0.9338322,-0.2099365,-0.0000111,-0.276975,0.404
 6774,0.0000052,0.0000032,0.0000021,0.1513034,-0.4877919,0.3983777,-0.0
 00004,0.1665282,0.0835145,0.0000022,0.0000003,0.,0.3571716,-1.1901085,
 0.0759366,0.0000029,0.1127505,0.1988226,-0.0000025,0.0000183,0.000012,
 0.0136678,0.1108031,0.0453885,0.0000002,-0.0013946,0.4677475,-0.000001
 5,-0.0000022,-0.0000014,0.2592578,-0.4892992,0.321447,-0.0000006,1.127
 5566,0.0761835,-0.0000156,-0.0000396,-0.0000262,0.7904531,0.1074837,0.
 0203824,0.0000005,0.1511928,0.4866187,0.0000112,0.0000085,0.0000057,0.
 1243852,2.5648157,-0.4903703,-0.0000038,-0.8972797,0.7384244,0.0000042
 ,0.0000195,0.0000129,0.5734423\Polar=104.1483183,-13.5650465,34.317067
 8,-0.000326,-0.0002132,25.3850763\PG=CS [SG(C5H3)]\NImag=0\\0.86621009
 ,-0.37006961,0.20908468,-0.00000038,0.00000008,0.09157675,-0.26448654,
 0.11134348,0.00000027,0.24863155,0.11510418,-0.07426656,-0.00000013,-0
 .10759474,0.06412089,0.00000016,-0.00000003,-0.04096090,-0.00000011,0.
 00000005,0.02115886,-0.59878712,0.25591509,0.00000007,0.01389352,-0.01
 016402,-0.00000004,0.91926122,0.25675646,-0.13559514,-0.00000004,-0.00
 488520,0.00437774,0.00000002,-0.40716148,0.28687721,0.,0.,-0.06815329,
 0.,0.,0.02253221,0.00000002,0.,0.07977861,0.02985343,-0.01124329,-0.00
 000004,0.00572906,0.00042704,0.00000002,-0.31868592,0.14666114,-0.0000
 0003,0.54197838,0.01211151,-0.00576812,0.00000006,0.00220649,0.0053268
 0,-0.00000002,0.13453182,-0.15241499,0.,-0.04082488,0.60737684,0.00000
 090,-0.00000017,0.02016967,-0.00000063,0.00000029,-0.00379135,-0.00000
 023,0.00000013,-0.04973107,0.00000018,-0.00000014,0.09541682,-0.002139
 02,0.00156810,0.,0.00024285,-0.00103927,0.,-0.00235589,0.03002101,0.,-
 0.05056543,-0.00336502,0.00000001,0.06147925,-0.00095384,0.00055512,0.
 00000003,0.00109840,-0.00037462,-0.00000001,0.00591049,-0.00738718,0.,
 -0.00795208,-0.30652944,-0.00000009,0.00464135,0.31355455,-0.00000010,
 0.00000002,-0.00212775,0.00000007,-0.00000003,0.00067083,0.00000001,0.
 ,0.00992380,0.,0.00000001,-0.03280968,0.,0.,0.01488454,-0.01433411,0.0
 0610099,0.,0.00105327,0.00102344,0.,-0.01123939,-0.02258040,0.,-0.2238
 4944,-0.07562627,-0.00000004,-0.00352154,0.00004021,0.,0.41094985,-0.0
 1578101,0.00617976,0.00000036,-0.00317845,0.00105812,-0.00000015,0.017
 65791,0.00474621,0.00000001,-0.08229889,-0.14552500,-0.00000090,-0.027
 98763,-0.00237136,0.00000009,0.07260356,0.42915051,-0.00000197,0.00000
 037,-0.00131304,0.00000139,-0.00000064,0.00056930,0.00000056,-0.000000
 31,0.00593883,-0.00000047,0.00000031,-0.04261014,-0.00000002,0.0000002
 2,0.00847925,0.00000010,0.00000199,0.07381956,0.00030764,-0.00041355,-
 0.00000001,-0.00020390,-0.00000922,0.,0.00166969,-0.00032916,0.,0.0018
 2380,-0.03023024,0.00000003,-0.00376273,0.00044236,0.,-0.04803815,0.00
 967727,-0.00000006,0.04639740,-0.00348523,0.00201326,-0.00000027,-0.00
 098792,0.00053478,0.00000011,0.00145833,0.00177518,0.,0.00841557,-0.00
 430010,0.00000063,-0.00041689,0.00024107,-0.00000007,-0.02487966,-0.26
 939766,-0.00000138,0.00990811,0.28227069,0.00000043,-0.00000008,0.0023
 1428,-0.00000030,0.00000014,-0.00075642,-0.00000012,0.00000007,-0.0024
 6191,0.00000011,-0.00000007,0.00584373,0.,-0.00000005,0.00271117,-0.00
 000002,-0.00000043,-0.02527436,0.00000001,0.00000030,0.01149333,-0.016
 62436,0.00679877,0.00000009,-0.00485982,0.00225259,-0.00000004,-0.0037
 5611,0.00151763,0.,0.01371611,0.00119660,-0.00000021,0.00062250,-0.003
 22688,0.00000002,-0.11102049,0.02930724,0.00000047,0.00180624,0.009987
 70,-0.00000010,0.12011593,0.00631755,-0.00220300,-0.00000009,0.0019979
 5,-0.00077715,0.00000004,0.00185186,-0.00237903,0.,-0.01318462,0.00183
 400,0.00000025,-0.00342165,0.00231187,-0.00000002,0.04331812,-0.023840
 58,-0.00000056,0.01095443,-0.01313722,0.00000012,-0.04783364,0.0381911
 2,0.00000097,-0.00000018,-0.00150572,-0.00000069,0.00000032,0.00057747
 ,-0.00000027,0.00000015,0.00217283,0.00000023,-0.00000015,0.00751202,0
 .00000001,-0.00000011,-0.00173215,-0.00000005,-0.00000098,-0.01960938,
 0.00000003,0.00000068,0.00613017,-0.00000023,0.00000027,0.00645476\\-0
 .00001660,0.00001897,0.,0.00002603,-0.00001280,0.,0.00002039,-0.000004
 16,0.,-0.00011857,-0.00007248,0.,0.00002094,0.00000989,0.,0.00006118,0
 .00011657,0.,-0.00001419,-0.00001496,0.,0.00002083,-0.00004103,0.\\\@


 ALL PAPERS THAT YOU SAVE WILL NEVER BE NEEDED UNTIL
 SUCH TIME AS THEY ARE DISPOSED OF, WHEN THEY BECOME
 ESSENTIAL.

           -- JOHN CORCORAN IN
              PAUL DICKSON'S "THE OFFICIAL RULES"
 Job cpu time:       0 days  0 hours 27 minutes 49.8 seconds.
 File lengths (MBytes):  RWF=     40 Int=      0 D2E=      0 Chk=      4 Scr=      1
 Normal termination of Gaussian 09 at Sun Jun 19 13:58:06 2016.
