 Entering Gaussian System, Link 0=/home/proyectos/fulerenos/M3C-v2.0/M3C-deps_CCC/g09-AM64L-G09RevC.01/g09
 Initial command:
 /home/proyectos/fulerenos/M3C-v2.0/M3C-deps_CCC/g09-AM64L-G09RevC.01/l1.exe "/scratch/naguirre/gaussian/Gau-24181.inp" -scrdir="/scratch/naguirre/gaussian/"
 Entering Link 1 = /home/proyectos/fulerenos/M3C-v2.0/M3C-deps_CCC/g09-AM64L-G09RevC.01/l1.exe PID=     24185.
  
 Copyright (c) 1988,1990,1992,1993,1995,1998,2003,2009,2015,
            Gaussian, Inc.  All Rights Reserved.
  
 This is part of the Gaussian(R) 09 program.  It is based on
 the Gaussian(R) 03 system (copyright 2003, Gaussian, Inc.),
 the Gaussian(R) 98 system (copyright 1998, Gaussian, Inc.),
 the Gaussian(R) 94 system (copyright 1995, Gaussian, Inc.),
 the Gaussian 92(TM) system (copyright 1992, Gaussian, Inc.),
 the Gaussian 90(TM) system (copyright 1990, Gaussian, Inc.),
 the Gaussian 88(TM) system (copyright 1988, Gaussian, Inc.),
 the Gaussian 86(TM) system (copyright 1986, Carnegie Mellon
 University), and the Gaussian 82(TM) system (copyright 1983,
 Carnegie Mellon University). Gaussian is a federally registered
 trademark of Gaussian, Inc.
  
 This software contains proprietary and confidential information,
 including trade secrets, belonging to Gaussian, Inc.
  
 This software is provided under written license and may be
 used, copied, transmitted, or stored only in accord with that
 written license.
  
 The following legend is applicable only to US Government
 contracts under FAR:
  
                    RESTRICTED RIGHTS LEGEND
  
 Use, reproduction and disclosure by the US Government is
 subject to restrictions as set forth in subparagraphs (a)
 and (c) of the Commercial Computer Software - Restricted
 Rights clause in FAR 52.227-19.
  
 Gaussian, Inc.
 340 Quinnipiac St., Bldg. 40, Wallingford CT 06492
  
  
 ---------------------------------------------------------------
 Warning -- This program may not be used in any manner that
 competes with the business of Gaussian, Inc. or will provide
 assistance to any competitor of Gaussian, Inc.  The licensee
 of this program is prohibited from giving any competitor of
 Gaussian, Inc. access to this program.  By using this program,
 the user acknowledges that Gaussian, Inc. is engaged in the
 business of creating and licensing software in the field of
 computational chemistry and represents and warrants to the
 licensee that it is not a competitor of Gaussian, Inc. and that
 it will not use this program in any manner prohibited above.
 ---------------------------------------------------------------
  

 Cite this work as:
 Gaussian 09, Revision E.01,
 M. J. Frisch, G. W. Trucks, H. B. Schlegel, G. E. Scuseria, 
 M. A. Robb, J. R. Cheeseman, G. Scalmani, V. Barone, B. Mennucci, 
 G. A. Petersson, H. Nakatsuji, M. Caricato, X. Li, H. P. Hratchian, 
 A. F. Izmaylov, J. Bloino, G. Zheng, J. L. Sonnenberg, M. Hada, 
 M. Ehara, K. Toyota, R. Fukuda, J. Hasegawa, M. Ishida, T. Nakajima, 
 Y. Honda, O. Kitao, H. Nakai, T. Vreven, J. A. Montgomery, Jr., 
 J. E. Peralta, F. Ogliaro, M. Bearpark, J. J. Heyd, E. Brothers, 
 K. N. Kudin, V. N. Staroverov, T. Keith, R. Kobayashi, J. Normand, 
 K. Raghavachari, A. Rendell, J. C. Burant, S. S. Iyengar, J. Tomasi, 
 M. Cossi, N. Rega, J. M. Millam, M. Klene, J. E. Knox, J. B. Cross, 
 V. Bakken, C. Adamo, J. Jaramillo, R. Gomperts, R. E. Stratmann, 
 O. Yazyev, A. J. Austin, R. Cammi, C. Pomelli, J. W. Ochterski, 
 R. L. Martin, K. Morokuma, V. G. Zakrzewski, G. A. Voth, 
 P. Salvador, J. J. Dannenberg, S. Dapprich, A. D. Daniels, 
 O. Farkas, J. B. Foresman, J. V. Ortiz, J. Cioslowski, 
 and D. J. Fox, Gaussian, Inc., Wallingford CT, 2013.
 
 ******************************************
 Gaussian 09:  EM64L-G09RevE.01 30-Nov-2015
                19-Jul-2016 
 ******************************************
 %NProcShared=1
 Will use up to    1 processors via shared memory.
 ---------------------------------------------
 #p b3lyp/6-311++G(3df,2p) freq symmetry=Loose
 ---------------------------------------------
 1/10=4,30=1,38=1/1,3;
 2/12=2,17=4,18=3,40=1/2;
 3/5=4,6=6,7=1216,11=2,16=1,25=1,30=1,71=2,74=-5,140=1/1,2,3;
 4//1;
 5/5=2,38=5,98=1/2;
 8/6=4,10=90,11=11/1;
 11/6=1,8=1,9=11,15=111,16=1/1,2,10;
 10/6=1/2;
 6/7=2,8=2,9=2,10=2,18=1,28=1/1;
 7/8=1,10=1,25=1/1,2,3,16;
 1/10=4,30=1/3;
 99//99;
 Leave Link    1 at Tue Jul 19 15:03:55 2016, MaxMem=           0 cpu:         0.1
 (Enter /home/proyectos/fulerenos/M3C-v2.0/M3C-deps_CCC/g09-AM64L-G09RevC.01/l101.exe)
 ---------
 b3lyp opt
 ---------
 Symbolic Z-matrix:
 Charge =  3 Multiplicity = 1
 C                     0.76832  -0.00003   0.34503 
 C                    -0.40441  -0.87064   0.06167 
 C                    -1.52002   0.00002  -0.16616 
 C                    -0.4044    0.87063   0.06179 
 H                     1.12533  -0.00011   1.44903 
 H                    -2.47859  -0.00002   0.51053 
 H                    -2.16196   0.00009  -1.14379 
 C                     2.14638   0.00002  -0.43829 
 
 NAtoms=      8 NQM=        8 NQMF=       0 NMMI=      0 NMMIF=      0
                NMic=       0 NMicF=      0.
                    Isotopes and Nuclear Properties:
 (Nuclear quadrupole moments (NQMom) in fm**2, nuclear magnetic moments (NMagM)
  in nuclear magnetons)

  Atom         1           2           3           4           5           6           7           8
 IAtWgt=          12          12          12          12           1           1           1          12
 AtmWgt=  12.0000000  12.0000000  12.0000000  12.0000000   1.0078250   1.0078250   1.0078250  12.0000000
 NucSpn=           0           0           0           0           1           1           1           0
 AtZEff=   0.0000000   0.0000000   0.0000000   0.0000000   0.0000000   0.0000000   0.0000000   0.0000000
 NQMom=    0.0000000   0.0000000   0.0000000   0.0000000   0.0000000   0.0000000   0.0000000   0.0000000
 NMagM=    0.0000000   0.0000000   0.0000000   0.0000000   2.7928460   2.7928460   2.7928460   0.0000000
 AtZNuc=   6.0000000   6.0000000   6.0000000   6.0000000   1.0000000   1.0000000   1.0000000   6.0000000
 Leave Link  101 at Tue Jul 19 15:03:55 2016, MaxMem=    33554432 cpu:         0.2
 (Enter /home/proyectos/fulerenos/M3C-v2.0/M3C-deps_CCC/g09-AM64L-G09RevC.01/l103.exe)

 GradGradGradGradGradGradGradGradGradGradGradGradGradGradGradGradGradGrad
 Berny optimization.
 Initialization pass.
 Trust Radius=3.00D-01 FncErr=1.00D-07 GrdErr=1.00D-07
 Number of steps in this run=      2 maximum allowed number of steps=      2.
 GradGradGradGradGradGradGradGradGradGradGradGradGradGradGradGradGradGrad

 Leave Link  103 at Tue Jul 19 15:03:55 2016, MaxMem=    33554432 cpu:         0.1
 (Enter /home/proyectos/fulerenos/M3C-v2.0/M3C-deps_CCC/g09-AM64L-G09RevC.01/l202.exe)
                          Input orientation:                          
 ---------------------------------------------------------------------
 Center     Atomic      Atomic             Coordinates (Angstroms)
 Number     Number       Type             X           Y           Z
 ---------------------------------------------------------------------
      1          6           0        0.768324   -0.000028    0.345027
      2          6           0       -0.404410   -0.870638    0.061672
      3          6           0       -1.520018    0.000017   -0.166160
      4          6           0       -0.404402    0.870632    0.061791
      5          1           0        1.125327   -0.000105    1.449034
      6          1           0       -2.478590   -0.000024    0.510528
      7          1           0       -2.161963    0.000087   -1.143788
      8          6           0        2.146377    0.000019   -0.438293
 ---------------------------------------------------------------------
                    Distance matrix (angstroms):
                    1          2          3          4          5
     1  C    0.000000
     2  C    1.487803   0.000000
     3  C    2.344743   1.433363   0.000000
     4  C    1.487803   1.741270   1.433363   0.000000
     5  H    1.160294   2.241137   3.099468   2.241137   0.000000
     6  H    3.251129   2.293831   1.173357   2.293831   3.724112
     7  H    3.286815   2.302236   1.169551   2.302236   4.186765
     8  C    1.585125   2.741263   3.676480   2.741263   2.145821
                    6          7          8
     6  H    0.000000
     7  H    1.684344   0.000000
     8  C    4.721290   4.365721   0.000000
 Stoichiometry    C5H3(3+)
 Framework group  C1[X(C5H3)]
 Deg. of freedom    18
 Full point group                 C1      NOp   1
 Largest Abelian subgroup         C1      NOp   1
 Largest concise Abelian subgroup C1      NOp   1
                         Standard orientation:                         
 ---------------------------------------------------------------------
 Center     Atomic      Atomic             Coordinates (Angstroms)
 Number     Number       Type             X           Y           Z
 ---------------------------------------------------------------------
      1          6           0       -0.768324    0.000024    0.345027
      2          6           0        0.404406    0.870639    0.061672
      3          6           0        1.520018   -0.000011   -0.166160
      4          6           0        0.404406   -0.870631    0.061791
      5          1           0       -1.125327    0.000099    1.449034
      6          1           0        2.478590    0.000035    0.510528
      7          1           0        2.161963   -0.000078   -1.143788
      8          6           0       -2.146377   -0.000030   -0.438293
 ---------------------------------------------------------------------
 Rotational constants (GHZ):     19.4695814      4.4391306      4.0666746
 Leave Link  202 at Tue Jul 19 15:03:56 2016, MaxMem=    33554432 cpu:         0.0
 (Enter /home/proyectos/fulerenos/M3C-v2.0/M3C-deps_CCC/g09-AM64L-G09RevC.01/l301.exe)
 Standard basis: 6-311++G(3df,2p) (5D, 7F)
 Ernie: Thresh=  0.10000D-02 Tol=  0.10000D-05 Strict=F.
 There are   255 symmetry adapted cartesian basis functions of A   symmetry.
 There are   225 symmetry adapted basis functions of A   symmetry.
   225 basis functions,   326 primitive gaussians,   255 cartesian basis functions
    15 alpha electrons       15 beta electrons
       nuclear repulsion energy       125.3005023593 Hartrees.
 IExCor=  402 DFT=T Ex+Corr=B3LYP ExCW=0 ScaHFX=  0.200000
 ScaDFX=  0.800000  0.720000  1.000000  0.810000 ScalE2=  1.000000  1.000000
 IRadAn=      0 IRanWt=     -1 IRanGd=            0 ICorTp=0 IEmpDi=  4
 NAtoms=    8 NActive=    8 NUniq=    8 SFac= 1.00D+00 NAtFMM=   60 NAOKFM=F Big=F
 Integral buffers will be    131072 words long.
 Raffenetti 2 integral format.
 Two-electron integral symmetry is turned on.
 Leave Link  301 at Tue Jul 19 15:03:56 2016, MaxMem=    33554432 cpu:         0.3
 (Enter /home/proyectos/fulerenos/M3C-v2.0/M3C-deps_CCC/g09-AM64L-G09RevC.01/l302.exe)
 NPDir=0 NMtPBC=     1 NCelOv=     1 NCel=       1 NClECP=     1 NCelD=      1
         NCelK=      1 NCelE2=     1 NClLst=     1 CellRange=     0.0.
 One-electron integrals computed using PRISM.
 NBasis=   225 RedAO= T EigKep=  9.22D-06  NBF=   225
 NBsUse=   225 1.00D-06 EigRej= -1.00D+00 NBFU=   225
 Precomputing XC quadrature grid using
 IXCGrd= 4 IRadAn=           0 IRanWt=          -1 IRanGd=           0 AccXCQ= 0.00D+00.
 Generated NRdTot=       0 NPtTot=           0 NUsed=           0 NTot=          32
 NSgBfM=   255   255   255   255   255 MxSgAt=     8 MxSgA2=     8.
 Leave Link  302 at Tue Jul 19 15:03:57 2016, MaxMem=    33554432 cpu:         0.6
 (Enter /home/proyectos/fulerenos/M3C-v2.0/M3C-deps_CCC/g09-AM64L-G09RevC.01/l303.exe)
 DipDrv:  MaxL=1.
 Leave Link  303 at Tue Jul 19 15:03:57 2016, MaxMem=    33554432 cpu:         0.1
 (Enter /home/proyectos/fulerenos/M3C-v2.0/M3C-deps_CCC/g09-AM64L-G09RevC.01/l401.exe)
 ExpMin= 3.60D-02 ExpMax= 4.56D+03 ExpMxC= 6.82D+02 IAcc=3 IRadAn=         5 AccDes= 0.00D+00
 Harris functional with IExCor=  402 and IRadAn=       5 diagonalized for initial guess.
 HarFok:  IExCor=  402 AccDes= 0.00D+00 IRadAn=         5 IDoV= 1 UseB2=F ITyADJ=14
 ICtDFT=  3500011 ScaDFX=  1.000000  1.000000  1.000000  1.000000
 FoFCou: FMM=F IPFlag=           0 FMFlag=      100000 FMFlg1=           0
         NFxFlg=           0 DoJE=T BraDBF=F KetDBF=T FulRan=T
         wScrn=  0.000000 ICntrl=     500 IOpCl=  0 I1Cent=   200000004 NGrid=           0
         NMat0=    1 NMatS0=      1 NMatT0=    0 NMatD0=    1 NMtDS0=    0 NMtDT0=    0
 Petite list used in FoFCou.
 Harris En= -191.216204529692    
 JPrj=0 DoOrth=F DoCkMO=F.
 Leave Link  401 at Tue Jul 19 15:04:07 2016, MaxMem=    33554432 cpu:        10.6
 (Enter /home/proyectos/fulerenos/M3C-v2.0/M3C-deps_CCC/g09-AM64L-G09RevC.01/l502.exe)
 Closed shell SCF:
 Using DIIS extrapolation, IDIIS=  1040.
 Integral symmetry usage will be decided dynamically.
 IVT=      216989 IEndB=      216989 NGot=    33554432 MDV=    33419364
 LenX=    33419364 LenY=    33353898
 Requested convergence on RMS density matrix=1.00D-08 within 128 cycles.
 Requested convergence on MAX density matrix=1.00D-06.
 Requested convergence on             energy=1.00D-06.
 No special actions if energy rises.
 Fock matrices will be formed incrementally for  20 cycles.

 Cycle   1  Pass 1  IDiag  1:
 FoFJK:  IHMeth= 1 ICntrl=       0 DoSepK=F KAlg= 0 I1Cent=   0 FoldK=F
 IRaf= 990000000 NMat=   1 IRICut=       1 DoRegI=T DoRafI=F ISym2E= 0.
 FoFCou: FMM=F IPFlag=           0 FMFlag=      100000 FMFlg1=           0
         NFxFlg=           0 DoJE=F BraDBF=F KetDBF=F FulRan=T
         wScrn=  0.000000 ICntrl=       0 IOpCl=  0 I1Cent=           0 NGrid=           0
         NMat0=    1 NMatS0=      1 NMatT0=    0 NMatD0=    1 NMtDS0=    0 NMtDT0=    0
 Symmetry not used in FoFCou.
 E= -190.120958856119    
 DIIS: error= 2.01D-02 at cycle   1 NSaved=   1.
 NSaved= 1 IEnMin= 1 EnMin= -190.120958856119     IErMin= 1 ErrMin= 2.01D-02
 ErrMax= 2.01D-02  0.00D+00 EMaxC= 1.00D-01 BMatC= 1.11D-01 BMatP= 1.11D-01
 IDIUse=3 WtCom= 7.99D-01 WtEn= 2.01D-01
 Coeff-Com:  0.100D+01
 Coeff-En:   0.100D+01
 Coeff:      0.100D+01
 Gap=     0.179 Goal=   None    Shift=    0.000
 GapD=    0.179 DampG=1.000 DampE=0.500 DampFc=0.5000 IDamp=-1.
 Damping current iteration by 5.00D-01
 RMSDP=9.20D-03 MaxDP=4.73D-01              OVMax= 9.67D-01

 Cycle   2  Pass 1  IDiag  1:
 RMSU=  4.15D-03    CP:  8.56D-01
 E= -189.595095671012     Delta-E=        0.525863185107 Rises=F Damp=T
 DIIS: error= 3.30D-02 at cycle   2 NSaved=   2.
 NSaved= 2 IEnMin= 1 EnMin= -190.120958856119     IErMin= 1 ErrMin= 2.01D-02
 ErrMax= 3.30D-02  0.00D+00 EMaxC= 1.00D-01 BMatC= 2.08D-01 BMatP= 1.11D-01
 IDIUse=2 WtCom= 0.00D+00 WtEn= 1.00D+00
 Coeff-En:   0.868D+00 0.132D+00
 Coeff:      0.868D+00 0.132D+00
 Gap=    -0.072 Goal=   None    Shift=    0.000
 RMSDP=5.99D-03 MaxDP=2.62D-01 DE= 5.26D-01 OVMax= 9.95D-01

 Cycle   3  Pass 1  IDiag  1:
 RMSU=  4.79D-03    CP:  1.09D+00  5.98D-01
 E= -190.150430970568     Delta-E=       -0.555335299556 Rises=F Damp=F
 DIIS: error= 2.43D-02 at cycle   3 NSaved=   3.
 NSaved= 3 IEnMin= 3 EnMin= -190.150430970568     IErMin= 1 ErrMin= 2.01D-02
 ErrMax= 2.43D-02  0.00D+00 EMaxC= 1.00D-01 BMatC= 9.95D-02 BMatP= 1.11D-01
 IDIUse=3 WtCom= 7.57D-01 WtEn= 2.43D-01
 Coeff-Com:  0.473D+00 0.732D-01 0.454D+00
 Coeff-En:   0.446D+00 0.000D+00 0.554D+00
 Coeff:      0.466D+00 0.554D-01 0.478D+00
 Gap=     0.130 Goal=   None    Shift=    0.000
 RMSDP=2.22D-03 MaxDP=1.29D-01 DE=-5.55D-01 OVMax= 2.16D-01

 Cycle   4  Pass 1  IDiag  1:
 RMSU=  1.71D-03    CP:  1.09D+00  4.45D-01  7.36D-01
 E= -190.263661494007     Delta-E=       -0.113230523439 Rises=F Damp=F
 DIIS: error= 8.56D-03 at cycle   4 NSaved=   4.
 NSaved= 4 IEnMin= 4 EnMin= -190.263661494007     IErMin= 4 ErrMin= 8.56D-03
 ErrMax= 8.56D-03  0.00D+00 EMaxC= 1.00D-01 BMatC= 1.18D-02 BMatP= 9.95D-02
 IDIUse=3 WtCom= 9.14D-01 WtEn= 8.56D-02
 Coeff-Com:  0.100D+00 0.998D-02 0.263D+00 0.626D+00
 Coeff-En:   0.000D+00 0.000D+00 0.702D-01 0.930D+00
 Coeff:      0.915D-01 0.913D-02 0.247D+00 0.652D+00
 Gap=     0.122 Goal=   None    Shift=    0.000
 RMSDP=8.06D-04 MaxDP=5.02D-02 DE=-1.13D-01 OVMax= 5.08D-02

 Cycle   5  Pass 1  IDiag  1:
 RMSU=  7.15D-04    CP:  1.10D+00  4.49D-01  8.02D-01  1.04D+00
 E= -190.275124324349     Delta-E=       -0.011462830343 Rises=F Damp=F
 DIIS: error= 3.11D-03 at cycle   5 NSaved=   5.
 NSaved= 5 IEnMin= 5 EnMin= -190.275124324349     IErMin= 5 ErrMin= 3.11D-03
 ErrMax= 3.11D-03  0.00D+00 EMaxC= 1.00D-01 BMatC= 1.64D-03 BMatP= 1.18D-02
 IDIUse=3 WtCom= 9.69D-01 WtEn= 3.11D-02
 Coeff-Com: -0.276D-02-0.763D-02 0.836D-01 0.345D+00 0.581D+00
 Coeff-En:   0.000D+00 0.000D+00 0.000D+00 0.606D-01 0.939D+00
 Coeff:     -0.268D-02-0.739D-02 0.810D-01 0.337D+00 0.593D+00
 Gap=     0.122 Goal=   None    Shift=    0.000
 RMSDP=2.36D-04 MaxDP=1.00D-02 DE=-1.15D-02 OVMax= 1.44D-02

 Cycle   6  Pass 1  IDiag  1:
 RMSU=  1.85D-04    CP:  1.10D+00  4.60D-01  8.11D-01  1.06D+00  8.21D-01
 E= -190.276618177336     Delta-E=       -0.001493852987 Rises=F Damp=F
 DIIS: error= 8.11D-04 at cycle   6 NSaved=   6.
 NSaved= 6 IEnMin= 6 EnMin= -190.276618177336     IErMin= 6 ErrMin= 8.11D-04
 ErrMax= 8.11D-04  0.00D+00 EMaxC= 1.00D-01 BMatC= 1.43D-04 BMatP= 1.64D-03
 IDIUse=3 WtCom= 9.92D-01 WtEn= 8.11D-03
 Coeff-Com: -0.341D-03-0.857D-02 0.283D-01 0.114D+00 0.287D+00 0.580D+00
 Coeff-En:   0.000D+00 0.000D+00 0.000D+00 0.000D+00 0.000D+00 0.100D+01
 Coeff:     -0.338D-03-0.850D-02 0.281D-01 0.113D+00 0.284D+00 0.583D+00
 Gap=     0.122 Goal=   None    Shift=    0.000
 RMSDP=6.77D-05 MaxDP=2.85D-03 DE=-1.49D-03 OVMax= 3.82D-03

 Cycle   7  Pass 1  IDiag  1:
 RMSU=  4.55D-05    CP:  1.10D+00  4.63D-01  8.12D-01  1.06D+00  8.53D-01
                    CP:  7.74D-01
 E= -190.276755811675     Delta-E=       -0.000137634339 Rises=F Damp=F
 DIIS: error= 2.68D-04 at cycle   7 NSaved=   7.
 NSaved= 7 IEnMin= 7 EnMin= -190.276755811675     IErMin= 7 ErrMin= 2.68D-04
 ErrMax= 2.68D-04  0.00D+00 EMaxC= 1.00D-01 BMatC= 1.41D-05 BMatP= 1.43D-04
 IDIUse=3 WtCom= 9.97D-01 WtEn= 2.68D-03
 Coeff-Com:  0.261D-02-0.579D-02 0.540D-02 0.141D-01 0.525D-01 0.223D+00
 Coeff-Com:  0.708D+00
 Coeff-En:   0.000D+00 0.000D+00 0.000D+00 0.000D+00 0.000D+00 0.000D+00
 Coeff-En:   0.100D+01
 Coeff:      0.260D-02-0.578D-02 0.538D-02 0.140D-01 0.524D-01 0.223D+00
 Coeff:      0.709D+00
 Gap=     0.123 Goal=   None    Shift=    0.000
 RMSDP=2.08D-05 MaxDP=7.56D-04 DE=-1.38D-04 OVMax= 1.29D-03

 Cycle   8  Pass 1  IDiag  1:
 RMSU=  1.85D-05    CP:  1.10D+00  4.63D-01  8.11D-01  1.06D+00  8.49D-01
                    CP:  7.63D-01  8.81D-01
 E= -190.276773847135     Delta-E=       -0.000018035460 Rises=F Damp=F
 DIIS: error= 1.63D-04 at cycle   8 NSaved=   8.
 NSaved= 8 IEnMin= 8 EnMin= -190.276773847135     IErMin= 8 ErrMin= 1.63D-04
 ErrMax= 1.63D-04  0.00D+00 EMaxC= 1.00D-01 BMatC= 2.28D-06 BMatP= 1.41D-05
 IDIUse=3 WtCom= 9.98D-01 WtEn= 1.63D-03
 Coeff-Com:  0.226D-02-0.182D-02-0.190D-03-0.811D-02-0.246D-01-0.604D-01
 Coeff-Com: -0.313D-01 0.112D+01
 Coeff-En:   0.000D+00 0.000D+00 0.000D+00 0.000D+00 0.000D+00 0.000D+00
 Coeff-En:   0.000D+00 0.100D+01
 Coeff:      0.226D-02-0.182D-02-0.189D-03-0.810D-02-0.246D-01-0.603D-01
 Coeff:     -0.312D-01 0.112D+01
 Gap=     0.124 Goal=   None    Shift=    0.000
 RMSDP=1.15D-05 MaxDP=5.37D-04 DE=-1.80D-05 OVMax= 9.22D-04

 Cycle   9  Pass 1  IDiag  1:
 RMSU=  9.00D-06    CP:  1.10D+00  4.63D-01  8.12D-01  1.07D+00  8.50D-01
                    CP:  7.48D-01  8.99D-01  1.25D+00
 E= -190.276777407877     Delta-E=       -0.000003560742 Rises=F Damp=F
 DIIS: error= 4.78D-05 at cycle   9 NSaved=   9.
 NSaved= 9 IEnMin= 9 EnMin= -190.276777407877     IErMin= 9 ErrMin= 4.78D-05
 ErrMax= 4.78D-05  0.00D+00 EMaxC= 1.00D-01 BMatC= 2.37D-07 BMatP= 2.28D-06
 IDIUse=1 WtCom= 1.00D+00 WtEn= 0.00D+00
 Coeff-Com:  0.570D-03-0.285D-03-0.104D-03-0.125D-02-0.620D-02-0.337D-01
 Coeff-Com: -0.116D+00 0.312D+00 0.845D+00
 Coeff:      0.570D-03-0.285D-03-0.104D-03-0.125D-02-0.620D-02-0.337D-01
 Coeff:     -0.116D+00 0.312D+00 0.845D+00
 Gap=     0.124 Goal=   None    Shift=    0.000
 RMSDP=5.27D-06 MaxDP=1.79D-04 DE=-3.56D-06 OVMax= 2.06D-04

 Cycle  10  Pass 1  IDiag  1:
 RMSU=  2.90D-06    CP:  1.10D+00  4.62D-01  8.11D-01  1.07D+00  8.50D-01
                    CP:  7.38D-01  8.80D-01  1.43D+00  8.99D-01
 E= -190.276777716851     Delta-E=       -0.000000308974 Rises=F Damp=F
 DIIS: error= 1.54D-05 at cycle  10 NSaved=  10.
 NSaved=10 IEnMin=10 EnMin= -190.276777716851     IErMin=10 ErrMin= 1.54D-05
 ErrMax= 1.54D-05  0.00D+00 EMaxC= 1.00D-01 BMatC= 2.27D-08 BMatP= 2.37D-07
 IDIUse=1 WtCom= 1.00D+00 WtEn= 0.00D+00
 Coeff-Com:  0.376D-04 0.141D-05 0.820D-04 0.114D-02 0.223D-02-0.109D-02
 Coeff-Com: -0.315D-01-0.125D-01 0.309D+00 0.733D+00
 Coeff:      0.376D-04 0.141D-05 0.820D-04 0.114D-02 0.223D-02-0.109D-02
 Coeff:     -0.315D-01-0.125D-01 0.309D+00 0.733D+00
 Gap=     0.124 Goal=   None    Shift=    0.000
 RMSDP=1.28D-06 MaxDP=6.68D-05 DE=-3.09D-07 OVMax= 1.10D-04

 Cycle  11  Pass 1  IDiag  1:
 RMSU=  7.15D-07    CP:  1.10D+00  4.62D-01  8.11D-01  1.07D+00  8.50D-01
                    CP:  7.38D-01  8.80D-01  1.42D+00  9.71D-01  8.33D-01
 E= -190.276777747391     Delta-E=       -0.000000030539 Rises=F Damp=F
 DIIS: error= 1.18D-06 at cycle  11 NSaved=  11.
 NSaved=11 IEnMin=11 EnMin= -190.276777747391     IErMin=11 ErrMin= 1.18D-06
 ErrMax= 1.18D-06  0.00D+00 EMaxC= 1.00D-01 BMatC= 2.72D-10 BMatP= 2.27D-08
 IDIUse=1 WtCom= 1.00D+00 WtEn= 0.00D+00
 Coeff-Com: -0.300D-05-0.152D-05 0.105D-04 0.220D-03 0.602D-03 0.884D-03
 Coeff-Com:  0.303D-04-0.102D-01 0.246D-01 0.136D+00 0.848D+00
 Coeff:     -0.300D-05-0.152D-05 0.105D-04 0.220D-03 0.602D-03 0.884D-03
 Coeff:      0.303D-04-0.102D-01 0.246D-01 0.136D+00 0.848D+00
 Gap=     0.124 Goal=   None    Shift=    0.000
 RMSDP=1.50D-07 MaxDP=5.45D-06 DE=-3.05D-08 OVMax= 8.53D-06

 Cycle  12  Pass 1  IDiag  1:
 RMSU=  1.13D-07    CP:  1.10D+00  4.62D-01  8.11D-01  1.07D+00  8.50D-01
                    CP:  7.37D-01  8.80D-01  1.42D+00  9.69D-01  8.50D-01
                    CP:  9.92D-01
 E= -190.276777747718     Delta-E=       -0.000000000328 Rises=F Damp=F
 DIIS: error= 1.93D-07 at cycle  12 NSaved=  12.
 NSaved=12 IEnMin=12 EnMin= -190.276777747718     IErMin=12 ErrMin= 1.93D-07
 ErrMax= 1.93D-07  0.00D+00 EMaxC= 1.00D-01 BMatC= 6.84D-12 BMatP= 2.72D-10
 IDIUse=1 WtCom= 1.00D+00 WtEn= 0.00D+00
 Coeff-Com: -0.184D-05 0.475D-07 0.269D-05 0.134D-04 0.580D-04 0.254D-03
 Coeff-Com:  0.117D-02-0.171D-02-0.617D-02 0.377D-02 0.140D+00 0.863D+00
 Coeff:     -0.184D-05 0.475D-07 0.269D-05 0.134D-04 0.580D-04 0.254D-03
 Coeff:      0.117D-02-0.171D-02-0.617D-02 0.377D-02 0.140D+00 0.863D+00
 Gap=     0.124 Goal=   None    Shift=    0.000
 RMSDP=2.91D-08 MaxDP=7.07D-07 DE=-3.28D-10 OVMax= 1.97D-06

 Cycle  13  Pass 1  IDiag  1:
 RMSU=  1.84D-08    CP:  1.10D+00  4.62D-01  8.11D-01  1.07D+00  8.50D-01
                    CP:  7.37D-01  8.80D-01  1.42D+00  9.69D-01  8.55D-01
                    CP:  1.01D+00  1.01D+00
 E= -190.276777747722     Delta-E=       -0.000000000004 Rises=F Damp=F
 DIIS: error= 6.62D-08 at cycle  13 NSaved=  13.
 NSaved=13 IEnMin=13 EnMin= -190.276777747722     IErMin=13 ErrMin= 6.62D-08
 ErrMax= 6.62D-08  0.00D+00 EMaxC= 1.00D-01 BMatC= 5.07D-13 BMatP= 6.84D-12
 IDIUse=1 WtCom= 1.00D+00 WtEn= 0.00D+00
 Coeff-Com: -0.137D-06 0.161D-07 0.627D-06-0.614D-05-0.542D-05 0.184D-04
 Coeff-Com:  0.195D-03 0.296D-04-0.154D-02-0.235D-02-0.701D-02 0.111D+00
 Coeff-Com:  0.899D+00
 Coeff:     -0.137D-06 0.161D-07 0.627D-06-0.614D-05-0.542D-05 0.184D-04
 Coeff:      0.195D-03 0.296D-04-0.154D-02-0.235D-02-0.701D-02 0.111D+00
 Coeff:      0.899D+00
 Gap=     0.124 Goal=   None    Shift=    0.000
 RMSDP=8.15D-09 MaxDP=3.93D-07 DE=-3.81D-12 OVMax= 6.54D-07

 SCF Done:  E(RB3LYP) =  -190.276777748     A.U. after   13 cycles
            NFock= 13  Conv=0.82D-08     -V/T= 2.0041
 KE= 1.894938527487D+02 PE=-6.688314600946D+02 EE= 1.637603272388D+02
 Leave Link  502 at Tue Jul 19 15:11:32 2016, MaxMem=    33554432 cpu:       444.4
 (Enter /home/proyectos/fulerenos/M3C-v2.0/M3C-deps_CCC/g09-AM64L-G09RevC.01/l801.exe)
 DoSCS=F DFT=T ScalE2(SS,OS)=  1.000000  1.000000
 Range of M.O.s used for correlation:     1   225
 NBasis=   225 NAE=    15 NBE=    15 NFC=     0 NFV=     0
 NROrb=    225 NOA=    15 NOB=    15 NVA=   210 NVB=   210

 **** Warning!!: The largest alpha MO coefficient is  0.77939645D+02

 Leave Link  801 at Tue Jul 19 15:11:32 2016, MaxMem=    33554432 cpu:         0.1
 (Enter /home/proyectos/fulerenos/M3C-v2.0/M3C-deps_CCC/g09-AM64L-G09RevC.01/l1101.exe)
 Using compressed storage, NAtomX=     8.
 Will process      9 centers per pass.
 Leave Link 1101 at Tue Jul 19 15:11:33 2016, MaxMem=    33554432 cpu:         0.7
 (Enter /home/proyectos/fulerenos/M3C-v2.0/M3C-deps_CCC/g09-AM64L-G09RevC.01/l1102.exe)
 Symmetrizing basis deriv contribution to polar:
 IMax=3 JMax=2 DiffMx= 0.00D+00
 Leave Link 1102 at Tue Jul 19 15:11:33 2016, MaxMem=    33554432 cpu:         0.1
 (Enter /home/proyectos/fulerenos/M3C-v2.0/M3C-deps_CCC/g09-AM64L-G09RevC.01/l1110.exe)
 Forming Gx(P) for the SCF density, NAtomX=     8.
 Integral derivatives from FoFJK, PRISM(SPDF).
 Do as many integral derivatives as possible in FoFJK.
 G2DrvN: MDV=      33554264.
 G2DrvN: will do     9 centers at a time, making    1 passes.
 Calling FoFCou, ICntrl=  3107 FMM=F I1Cent=   0 AccDes= 0.00D+00.
 FoFJK:  IHMeth= 1 ICntrl=    3107 DoSepK=F KAlg= 0 I1Cent=   0 FoldK=F
 IRaf=         0 NMat=   1 IRICut=       1 DoRegI=T DoRafI=F ISym2E= 0.
 FoFCou: FMM=F IPFlag=           0 FMFlag=      100000 FMFlg1=           0
         NFxFlg=           0 DoJE=F BraDBF=F KetDBF=F FulRan=T
         wScrn=  0.000000 ICntrl=    3107 IOpCl=  0 I1Cent=           0 NGrid=           0
         NMat0=    1 NMatS0=      1 NMatT0=    0 NMatD0=    1 NMtDS0=    0 NMtDT0=    0
 Symmetry not used in FoFCou.
 End of G2Drv F.D. properties file   721 does not exist.
 End of G2Drv F.D. properties file   722 does not exist.
 End of G2Drv F.D. properties file   788 does not exist.
 Leave Link 1110 at Tue Jul 19 15:19:23 2016, MaxMem=    33554432 cpu:       469.3
 (Enter /home/proyectos/fulerenos/M3C-v2.0/M3C-deps_CCC/g09-AM64L-G09RevC.01/l1002.exe)
 Minotr:  Closed shell wavefunction.
          IDoAtm=11111111
          Direct CPHF calculation.
          Differentiating once with respect to electric field.
                with respect to dipole field.
          Differentiating once with respect to nuclear coordinates.
          Requested convergence is 1.0D-08 RMS, and 1.0D-07 maximum.
          Secondary convergence is 1.0D-12 RMS, and 1.0D-12 maximum.
          NewPWx=T KeepS1=F KeepF1=F KeepIn=T MapXYZ=F SortEE=F KeepMc=T.
          MDV=      33554123 using IRadAn=       2.
 Generate precomputed XC quadrature information.
          Solving linear equations simultaneously, MaxMat=       0.
 FoFJK:  IHMeth= 1 ICntrl=       0 DoSepK=F KAlg= 0 I1Cent=   0 FoldK=F
 IRaf= 990000000 NMat=  27 IRICut=      67 DoRegI=T DoRafI=T ISym2E= 2.
 FoFCou: FMM=F IPFlag=           0 FMFlag=      100000 FMFlg1=           0
         NFxFlg=           0 DoJE=F BraDBF=F KetDBF=F FulRan=T
         wScrn=  0.000000 ICntrl=       0 IOpCl=  0 I1Cent=           0 NGrid=           0
         NMat0=   27 NMatS0=     27 NMatT0=    0 NMatD0=   27 NMtDS0=    0 NMtDT0=    0
 Integrals replicated using symmetry in FoFCou.
          There are    27 degrees of freedom in the 1st order CPHF.  IDoFFX=6 NUNeed=     3.
     25 vectors produced by pass  0 Test12= 1.17D-14 3.70D-09 XBig12= 1.25D+02 7.29D+00.
 AX will form    25 AO Fock derivatives at one time.
     24 vectors produced by pass  1 Test12= 1.17D-14 3.70D-09 XBig12= 5.21D+01 3.09D+00.
     24 vectors produced by pass  2 Test12= 1.17D-14 3.70D-09 XBig12= 2.95D+00 5.06D-01.
     24 vectors produced by pass  3 Test12= 1.17D-14 3.70D-09 XBig12= 1.61D-02 3.86D-02.
     24 vectors produced by pass  4 Test12= 1.17D-14 3.70D-09 XBig12= 4.88D-05 1.41D-03.
     24 vectors produced by pass  5 Test12= 1.17D-14 3.70D-09 XBig12= 5.39D-08 4.59D-05.
      8 vectors produced by pass  6 Test12= 1.17D-14 3.70D-09 XBig12= 5.69D-11 1.84D-06.
      3 vectors produced by pass  7 Test12= 1.17D-14 3.70D-09 XBig12= 6.90D-14 5.54D-08.
      2 vectors produced by pass  8 Test12= 1.17D-14 3.70D-09 XBig12= 1.52D-15 9.74D-09.
 InvSVY:  IOpt=1 It=  1 EMax= 5.33D-15
 Solved reduced A of dimension   158 with    27 vectors.
 FullF1:  Do perturbations    1 to     3.
 Isotropic polarizability for W=    0.000000       45.06 Bohr**3.
 End of Minotr F.D. properties file   721 does not exist.
 End of Minotr F.D. properties file   722 does not exist.
 End of Minotr F.D. properties file   788 does not exist.
 Leave Link 1002 at Tue Jul 19 15:38:15 2016, MaxMem=    33554432 cpu:      1130.7
 (Enter /home/proyectos/fulerenos/M3C-v2.0/M3C-deps_CCC/g09-AM64L-G09RevC.01/l601.exe)
 Copying SCF densities to generalized density rwf, IOpCl= 0 IROHF=0.

 **********************************************************************

            Population analysis using the SCF density.

 **********************************************************************

 Orbital symmetries:
       Occupied  (A) (A) (A) (A) (A) (A) (A) (A) (A) (A) (A) (A)
                 (A) (A) (A)
       Virtual   (A) (A) (A) (A) (A) (A) (A) (A) (A) (A) (A) (A)
                 (A) (A) (A) (A) (A) (A) (A) (A) (A) (A) (A) (A)
                 (A) (A) (A) (A) (A) (A) (A) (A) (A) (A) (A) (A)
                 (A) (A) (A) (A) (A) (A) (A) (A) (A) (A) (A) (A)
                 (A) (A) (A) (A) (A) (A) (A) (A) (A) (A) (A) (A)
                 (A) (A) (A) (A) (A) (A) (A) (A) (A) (A) (A) (A)
                 (A) (A) (A) (A) (A) (A) (A) (A) (A) (A) (A) (A)
                 (A) (A) (A) (A) (A) (A) (A) (A) (A) (A) (A) (A)
                 (A) (A) (A) (A) (A) (A) (A) (A) (A) (A) (A) (A)
                 (A) (A) (A) (A) (A) (A) (A) (A) (A) (A) (A) (A)
                 (A) (A) (A) (A) (A) (A) (A) (A) (A) (A) (A) (A)
                 (A) (A) (A) (A) (A) (A) (A) (A) (A) (A) (A) (A)
                 (A) (A) (A) (A) (A) (A) (A) (A) (A) (A) (A) (A)
                 (A) (A) (A) (A) (A) (A) (A) (A) (A) (A) (A) (A)
                 (A) (A) (A) (A) (A) (A) (A) (A) (A) (A) (A) (A)
                 (A) (A) (A) (A) (A) (A) (A) (A) (A) (A) (A) (A)
                 (A) (A) (A) (A) (A) (A) (A) (A) (A) (A) (A) (A)
                 (A) (A) (A) (A) (A) (A)
 The electronic state is 1-A.
 Alpha  occ. eigenvalues --  -11.18073 -11.06381 -11.06374 -11.01135 -10.96857
 Alpha  occ. eigenvalues --   -1.71693  -1.51830  -1.38905  -1.31312  -1.25692
 Alpha  occ. eigenvalues --   -1.20050  -1.16973  -1.14083  -1.07278  -1.02671
 Alpha virt. eigenvalues --   -0.90292  -0.88861  -0.87079  -0.82595  -0.78045
 Alpha virt. eigenvalues --   -0.57344  -0.56303  -0.54746  -0.50220  -0.48926
 Alpha virt. eigenvalues --   -0.47934  -0.46983  -0.46862  -0.41653  -0.40281
 Alpha virt. eigenvalues --   -0.39158  -0.36549  -0.35981  -0.35861  -0.34309
 Alpha virt. eigenvalues --   -0.33572  -0.32935  -0.31612  -0.30184  -0.29615
 Alpha virt. eigenvalues --   -0.28977  -0.27980  -0.27313  -0.27291  -0.25505
 Alpha virt. eigenvalues --   -0.24263  -0.24125  -0.23184  -0.20955  -0.20795
 Alpha virt. eigenvalues --   -0.19475  -0.17187  -0.16739  -0.15632  -0.14408
 Alpha virt. eigenvalues --   -0.13305  -0.12614  -0.12023  -0.11793  -0.07936
 Alpha virt. eigenvalues --   -0.07180  -0.06656  -0.05282  -0.04886  -0.03763
 Alpha virt. eigenvalues --   -0.02891  -0.02366  -0.02349  -0.01993  -0.01419
 Alpha virt. eigenvalues --    0.00250   0.00982   0.03105   0.04767   0.05512
 Alpha virt. eigenvalues --    0.06033   0.06759   0.09805   0.10203   0.10714
 Alpha virt. eigenvalues --    0.12517   0.13781   0.15767   0.16851   0.19407
 Alpha virt. eigenvalues --    0.20213   0.25329   0.28455   0.33457   0.34239
 Alpha virt. eigenvalues --    0.38945   0.39312   0.44269   0.46203   0.50927
 Alpha virt. eigenvalues --    0.52969   0.56840   0.58285   0.59904   0.60446
 Alpha virt. eigenvalues --    0.61193   0.64296   0.67164   0.67343   0.68395
 Alpha virt. eigenvalues --    0.72738   0.73266   0.74432   0.76282   0.81156
 Alpha virt. eigenvalues --    0.83407   0.86828   0.87830   0.90126   0.92693
 Alpha virt. eigenvalues --    0.93033   0.96472   0.97533   1.01905   1.07868
 Alpha virt. eigenvalues --    1.12130   1.14231   1.19887   1.26015   1.31569
 Alpha virt. eigenvalues --    1.34174   1.37584   1.41981   1.43834   1.45871
 Alpha virt. eigenvalues --    1.48946   1.54479   1.58024   1.79252   1.89681
 Alpha virt. eigenvalues --    1.93026   1.97807   1.98160   2.01835   2.03190
 Alpha virt. eigenvalues --    2.03878   2.04634   2.07658   2.09833   2.10978
 Alpha virt. eigenvalues --    2.13760   2.14114   2.18290   2.21650   2.22894
 Alpha virt. eigenvalues --    2.27366   2.30018   2.31092   2.36579   2.38272
 Alpha virt. eigenvalues --    2.40768   2.41501   2.42057   2.50046   2.54257
 Alpha virt. eigenvalues --    2.57012   2.62987   2.64430   2.69736   2.71023
 Alpha virt. eigenvalues --    2.76610   2.81274   2.82210   2.84256   2.92012
 Alpha virt. eigenvalues --    2.92907   3.01831   3.09512   3.21805   3.27619
 Alpha virt. eigenvalues --    3.30426   3.36491   3.46146   3.49409   3.53489
 Alpha virt. eigenvalues --    3.53785   3.63091   3.74018   3.78219   3.80557
 Alpha virt. eigenvalues --    3.83261   3.91187   3.94960   3.98186   4.07925
 Alpha virt. eigenvalues --    4.32576   4.55269   4.65640   4.73796   4.78205
 Alpha virt. eigenvalues --    6.10059   6.10620   6.19147   6.23326   6.25268
 Alpha virt. eigenvalues --    6.28046   6.36732   6.42667   6.46638   6.48602
 Alpha virt. eigenvalues --    6.53410   6.58558   6.58841   6.63789   6.72790
 Alpha virt. eigenvalues --    6.92464   6.96183   6.96708   7.07590   7.23970
 Alpha virt. eigenvalues --    7.29929   7.42099   7.44063   7.54301   7.93781
 Alpha virt. eigenvalues --   22.90635  23.15458  23.83717  24.05220  24.22023
          Condensed to atoms (all electrons):
               1          2          3          4          5          6
     1  C    8.354875  -1.185469   0.288357  -1.185468   0.474623   0.013954
     2  C   -1.185469   6.906118  -0.499454   0.127964  -0.059667  -0.046669
     3  C    0.288357  -0.499454   6.307412  -0.499454   0.022204   0.396174
     4  C   -1.185468   0.127964  -0.499454   6.906116  -0.059667  -0.046669
     5  H    0.474623  -0.059667   0.022204  -0.059667   0.299541   0.001663
     6  H    0.013954  -0.046669   0.396174  -0.046669   0.001663   0.329384
     7  H   -0.014090  -0.035635   0.383833  -0.035635  -0.001281  -0.018989
     8  C   -0.986214   0.113849  -0.022895   0.113849  -0.045421  -0.004539
               7          8
     1  C   -0.014090  -0.986214
     2  C   -0.035635   0.113849
     3  C    0.383833  -0.022895
     4  C   -0.035635   0.113849
     5  H   -0.001281  -0.045421
     6  H   -0.018989  -0.004539
     7  H    0.336997   0.003879
     8  C    0.003879   6.173287
 Mulliken charges:
               1
     1  C    0.239432
     2  C    0.678963
     3  C   -0.376178
     4  C    0.678963
     5  H    0.368004
     6  H    0.375690
     7  H    0.380920
     8  C    0.654205
 Sum of Mulliken charges =   3.00000
 Mulliken charges with hydrogens summed into heavy atoms:
               1
     1  C    0.607436
     2  C    0.678963
     3  C    0.380432
     4  C    0.678963
     8  C    0.654205
 APT charges:
               1
     1  C   -0.330165
     2  C    0.456533
     3  C   -0.415255
     4  C    0.456523
     5  H    0.417352
     6  H    0.632630
     7  H    0.599134
     8  C    1.183246
 Sum of APT charges =   3.00000
 APT charges with hydrogens summed into heavy atoms:
               1
     1  C    0.087187
     2  C    0.456533
     3  C    0.816510
     4  C    0.456523
     8  C    1.183246
 Electronic spatial extent (au):  <R**2>=            274.2806
 Charge=              3.0000 electrons
 Dipole moment (field-independent basis, Debye):
    X=             -0.2489    Y=              0.0000    Z=              0.0460  Tot=              0.2531
 Quadrupole moment (field-independent basis, Debye-Ang):
   XX=             19.9940   YY=            -19.5877   ZZ=            -14.1956
   XY=             -0.0001   XZ=             -1.9635   YZ=              0.0004
 Traceless Quadrupole moment (field-independent basis, Debye-Ang):
   XX=             24.5905   YY=            -14.9913   ZZ=             -9.5991
   XY=             -0.0001   XZ=             -1.9635   YZ=              0.0004
 Octapole moment (field-independent basis, Debye-Ang**2):
  XXX=             13.8099  YYY=              0.0000  ZZZ=              2.9371  XYY=              0.0990
  XXY=             -0.0004  XXZ=             -6.0610  XZZ=              1.5738  YZZ=              0.0002
  YYZ=              0.0475  XYZ=              0.0001
 Hexadecapole moment (field-independent basis, Debye-Ang**3):
 XXXX=            -44.9621 YYYY=            -57.6971 ZZZZ=            -21.4003 XXXY=             -0.0003
 XXXZ=             -3.9639 YYYX=              0.0001 YYYZ=              0.0008 ZZZX=            -14.7698
 ZZZY=              0.0017 XXYY=            -48.2161 XXZZ=            -20.9579 YYZZ=            -15.3224
 XXYZ=              0.0019 YYXZ=              0.4251 ZZXY=             -0.0011
 N-N= 1.253005023593D+02 E-N=-6.688314611407D+02  KE= 1.894938527487D+02
  Exact polarizability:  67.190  -0.000  36.889  -0.807  -0.001  31.103
 Approx polarizability: 129.914  -0.000 100.976  -0.518  -0.003  54.719
 No NMR shielding tensors so no spin-rotation constants.
 Leave Link  601 at Tue Jul 19 15:38:16 2016, MaxMem=    33554432 cpu:         0.5
 (Enter /home/proyectos/fulerenos/M3C-v2.0/M3C-deps_CCC/g09-AM64L-G09RevC.01/l701.exe)
 Compute integral second derivatives.
 ... and contract with generalized density number  0.
 Leave Link  701 at Tue Jul 19 15:38:17 2016, MaxMem=    33554432 cpu:         1.4
 (Enter /home/proyectos/fulerenos/M3C-v2.0/M3C-deps_CCC/g09-AM64L-G09RevC.01/l702.exe)
 L702 exits ... SP integral derivatives will be done elsewhere.
 Leave Link  702 at Tue Jul 19 15:38:17 2016, MaxMem=    33554432 cpu:         0.1
 (Enter /home/proyectos/fulerenos/M3C-v2.0/M3C-deps_CCC/g09-AM64L-G09RevC.01/l703.exe)
 Compute integral second derivatives, UseDBF=F ICtDFT=           0.
 Integral derivatives from FoFJK, PRISM(SPDF).
 Calling FoFJK, ICntrl=    100127 FMM=F ISym2X=0 I1Cent= 0 IOpClX= 0 NMat=1 NMatS=1 NMatT=0.
 FoFJK:  IHMeth= 1 ICntrl=  100127 DoSepK=F KAlg= 0 I1Cent=   0 FoldK=F
 IRaf=         0 NMat=   1 IRICut=       1 DoRegI=T DoRafI=F ISym2E= 0.
 FoFCou: FMM=F IPFlag=           0 FMFlag=      100000 FMFlg1=         800
         NFxFlg=           0 DoJE=F BraDBF=F KetDBF=F FulRan=T
         wScrn=  0.000000 ICntrl=  100127 IOpCl=  0 I1Cent=           0 NGrid=           0
         NMat0=    1 NMatS0=      1 NMatT0=    0 NMatD0=    1 NMtDS0=    0 NMtDT0=    0
 Symmetry not used in FoFCou.
 Leave Link  703 at Tue Jul 19 16:00:39 2016, MaxMem=    33554432 cpu:      1341.5
 (Enter /home/proyectos/fulerenos/M3C-v2.0/M3C-deps_CCC/g09-AM64L-G09RevC.01/l716.exe)
 Dipole        =-9.79360384D-02 1.84939755D-07 1.80911549D-02
 Polarizability= 6.71903835D+01-1.35119206D-04 3.68888123D+01
                -8.07306565D-01-5.64634601D-04 3.11025884D+01
 Full mass-weighted force constant matrix:
 Low frequencies ---   -0.0001    0.0007    0.0008    2.7818    8.0165    8.2647
 Low frequencies ---  241.4339  245.1181  423.3219
 Diagonal vibrational polarizability:
       68.3986896       9.5809134      27.9022230
 Harmonic frequencies (cm**-1), IR intensities (KM/Mole), Raman scattering
 activities (A**4/AMU), depolarization ratios for plane and unpolarized
 incident light, reduced masses (AMU), force constants (mDyne/A),
 and normal coordinates:
                      1                      2                      3
                      A                      A                      A
 Frequencies --    241.4338               245.1180               423.3218
 Red. masses --      3.2682                 6.1322                 1.7568
 Frc consts  --      0.1122                 0.2171                 0.1855
 IR Inten    --     16.6720                 3.1827               106.6314
  Atom  AN      X      Y      Z        X      Y      Z        X      Y      Z
     1   6    -0.02   0.00   0.20    -0.00  -0.29   0.00     0.00   0.00   0.13
     2   6    -0.04  -0.01   0.12    -0.20  -0.15  -0.18    -0.05  -0.00  -0.08
     3   6    -0.10  -0.00  -0.17    -0.00   0.16  -0.00    -0.06  -0.00  -0.08
     4   6    -0.04   0.01   0.12     0.20  -0.15   0.18    -0.05   0.00  -0.08
     5   1    -0.21   0.00   0.13    -0.00  -0.25   0.00     0.01   0.00   0.13
     6   1     0.18  -0.00  -0.57     0.00   0.69  -0.00    -0.44   0.00   0.55
     7   1    -0.45  -0.00  -0.42    -0.00  -0.03  -0.00     0.54   0.00   0.36
     8   6     0.23  -0.00  -0.21     0.00   0.40  -0.00     0.15  -0.00   0.01
                      4                      5                      6
                      A                      A                      A
 Frequencies --    511.2847               598.0908               712.4205
 Red. masses --      5.3895                 6.0136                 2.9947
 Frc consts  --      0.8301                 1.2674                 0.8955
 IR Inten    --     49.3972               148.0067                24.8879
  Atom  AN      X      Y      Z        X      Y      Z        X      Y      Z
     1   6    -0.00   0.37  -0.00    -0.01  -0.00  -0.23    -0.03   0.00   0.19
     2   6    -0.03  -0.32   0.06    -0.12   0.14  -0.10    -0.05  -0.13  -0.16
     3   6    -0.00   0.21  -0.00    -0.14   0.00   0.24     0.06   0.00   0.20
     4   6     0.03  -0.32  -0.06    -0.12  -0.14  -0.10    -0.05   0.13  -0.16
     5   1     0.00   0.56  -0.00     0.03  -0.00  -0.15     0.59   0.00   0.37
     6   1    -0.00   0.19  -0.00     0.18  -0.00  -0.30     0.45  -0.00  -0.34
     7   1     0.00   0.50  -0.00    -0.62   0.00  -0.11    -0.14   0.00   0.01
     8   6     0.00  -0.04   0.00     0.42   0.00   0.24    -0.01  -0.00  -0.07
                      7                      8                      9
                      A                      A                      A
 Frequencies --    715.0304               739.5824               810.3786
 Red. masses --      1.1126                 2.0728                 1.8930
 Frc consts  --      0.3351                 0.6680                 0.7324
 IR Inten    --      1.0591               537.7597               311.1483
  Atom  AN      X      Y      Z        X      Y      Z        X      Y      Z
     1   6    -0.00   0.07  -0.00    -0.08  -0.00  -0.10    -0.04   0.00  -0.04
     2   6     0.03  -0.01   0.03    -0.00  -0.18   0.03    -0.05  -0.14   0.01
     3   6    -0.00   0.00   0.00    -0.04  -0.00  -0.03     0.16  -0.00  -0.03
     4   6    -0.03  -0.01  -0.03    -0.00   0.18   0.03    -0.05   0.14   0.01
     5   1    -0.00  -0.46   0.00    -0.38   0.00  -0.18    -0.18  -0.00  -0.04
     6   1     0.00   0.64  -0.00     0.35  -0.00  -0.42    -0.31   0.00   0.56
     7   1     0.00  -0.60   0.00     0.59   0.00   0.28    -0.54  -0.00  -0.43
     8   6     0.00  -0.02   0.00     0.08   0.00   0.08     0.06   0.00   0.04
                     10                     11                     12
                      A                      A                      A
 Frequencies --    857.5572               945.5453               981.4731
 Red. masses --      9.0059                 1.2847                 1.2203
 Frc consts  --      3.9021                 0.6767                 0.6926
 IR Inten    --      2.9853                80.5649                17.1868
  Atom  AN      X      Y      Z        X      Y      Z        X      Y      Z
     1   6    -0.00  -0.25   0.00    -0.00  -0.00  -0.00    -0.00  -0.10   0.00
     2   6     0.50  -0.07  -0.12     0.02   0.02   0.00     0.01   0.01   0.07
     3   6     0.00   0.36  -0.00    -0.00  -0.15   0.00     0.00   0.02  -0.00
     4   6    -0.50  -0.07   0.12    -0.02   0.02  -0.00    -0.01   0.01  -0.07
     5   1    -0.00  -0.17   0.00     0.00   0.10  -0.00    -0.00   0.86  -0.00
     6   1    -0.00   0.22  -0.00    -0.00   0.71  -0.00     0.00   0.29  -0.00
     7   1    -0.00   0.44  -0.00    -0.00   0.68  -0.00     0.00  -0.40   0.00
     8   6    -0.00  -0.02   0.00    -0.00   0.00  -0.00    -0.00   0.00   0.00
                     13                     14                     15
                      A                      A                      A
 Frequencies --   1000.4828              1141.4093              1291.4092
 Red. masses --      1.6473                 3.9097                 4.7932
 Frc consts  --      0.9715                 3.0010                 4.7098
 IR Inten    --      0.4923               364.2367                14.9020
  Atom  AN      X      Y      Z        X      Y      Z        X      Y      Z
     1   6     0.09  -0.00  -0.12     0.44   0.00   0.04     0.20   0.00  -0.02
     2   6    -0.03  -0.07   0.08    -0.04  -0.10  -0.04    -0.30   0.09   0.06
     3   6    -0.10  -0.00  -0.04    -0.19   0.00   0.08     0.32  -0.00  -0.06
     4   6    -0.03   0.07   0.08    -0.04   0.10  -0.04    -0.30  -0.09   0.06
     5   1     0.94   0.00   0.14    -0.70  -0.00  -0.34     0.01  -0.00  -0.06
     6   1    -0.19   0.00   0.04    -0.16   0.00   0.00     0.50  -0.00  -0.27
     7   1     0.01  -0.00   0.03    -0.31   0.00   0.08     0.57   0.00   0.06
     8   6     0.01  -0.00  -0.02    -0.08  -0.00  -0.02    -0.02  -0.00  -0.01
                     16                     17                     18
                      A                      A                      A
 Frequencies --   2267.8230              2401.7741              2470.2495
 Red. masses --      1.0767                 1.0731                 1.0895
 Frc consts  --      3.2626                 3.6473                 3.9170
 IR Inten    --    554.0092              1697.8412               528.6370
  Atom  AN      X      Y      Z        X      Y      Z        X      Y      Z
     1   6    -0.00  -0.00  -0.00     0.01  -0.00  -0.05     0.03  -0.00  -0.05
     2   6    -0.00   0.00   0.00     0.00  -0.00   0.00     0.00   0.00   0.00
     3   6    -0.02  -0.00  -0.08     0.05  -0.00  -0.02    -0.06   0.00   0.01
     4   6    -0.00  -0.00   0.00     0.00   0.00   0.00     0.00  -0.00   0.00
     5   1     0.03  -0.00  -0.04    -0.20   0.00   0.64    -0.21   0.00   0.71
     6   1     0.65   0.00   0.42    -0.32  -0.00  -0.30     0.34   0.00   0.29
     7   1    -0.38   0.00   0.50    -0.27   0.00   0.52     0.24  -0.00  -0.44
     8   6    -0.00   0.00  -0.00    -0.00  -0.00  -0.00    -0.01   0.00  -0.01

 -------------------
 - Thermochemistry -
 -------------------
 Temperature   298.150 Kelvin.  Pressure   1.00000 Atm.
 Atom     1 has atomic number  6 and mass  12.00000
 Atom     2 has atomic number  6 and mass  12.00000
 Atom     3 has atomic number  6 and mass  12.00000
 Atom     4 has atomic number  6 and mass  12.00000
 Atom     5 has atomic number  1 and mass   1.00783
 Atom     6 has atomic number  1 and mass   1.00783
 Atom     7 has atomic number  1 and mass   1.00783
 Atom     8 has atomic number  6 and mass  12.00000
 Molecular mass:    63.02348 amu.
 Principal axes and moments of inertia in atomic units:
                           1         2         3
     Eigenvalues --    92.69543 406.55285 443.78795
           X            0.99960   0.00000  -0.02820
           Y            0.00000   1.00000   0.00007
           Z            0.02820  -0.00007   0.99960
 This molecule is an asymmetric top.
 Rotational symmetry number  1.
 Rotational temperatures (Kelvin)      0.93439     0.21304     0.19517
 Rotational constants (GHZ):          19.46958     4.43913     4.06667
 Zero-point vibrational energy     109783.6 (Joules/Mol)
                                   26.23891 (Kcal/Mol)
 Warning -- explicit consideration of   5 degrees of freedom as
           vibrations may cause significant error
 Vibrational temperatures:    347.37   352.67   609.06   735.62   860.52
          (Kelvin)           1025.01  1028.77  1064.09  1165.95  1233.83
                             1360.43  1412.12  1439.47  1642.23  1858.05
                             3262.89  3455.61  3554.13
 
 Zero-point correction=                           0.041814 (Hartree/Particle)
 Thermal correction to Energy=                    0.046909
 Thermal correction to Enthalpy=                  0.047853
 Thermal correction to Gibbs Free Energy=         0.014693
 Sum of electronic and zero-point Energies=           -190.234963
 Sum of electronic and thermal Energies=              -190.229869
 Sum of electronic and thermal Enthalpies=            -190.228924
 Sum of electronic and thermal Free Energies=         -190.262085
 
                     E (Thermal)             CV                S
                      KCal/Mol        Cal/Mol-Kelvin    Cal/Mol-Kelvin
 Total                   29.436             18.368             69.792
 Electronic               0.000              0.000              0.000
 Translational            0.889              2.981             38.342
 Rotational               0.889              2.981             24.329
 Vibrational             27.658             12.407              7.122
 Vibration     1          0.658              1.777              1.792
 Vibration     2          0.660              1.771              1.765
 Vibration     3          0.785              1.420              0.881
 Vibration     4          0.866              1.225              0.631
 Vibration     5          0.956              1.036              0.453
                       Q            Log10(Q)             Ln(Q)
 Total Bot       0.174521D-06         -6.758153        -15.561222
 Total V=0       0.298592D+13         12.475079         28.724930
 Vib (Bot)       0.191698D-18        -18.717383        -43.098368
 Vib (Bot)    1  0.811620D+00         -0.090647         -0.208723
 Vib (Bot)    2  0.798062D+00         -0.097963         -0.225568
 Vib (Bot)    3  0.413734D+00         -0.383279         -0.882532
 Vib (Bot)    4  0.318218D+00         -0.497275         -1.145019
 Vib (Bot)    5  0.250151D+00         -0.601798         -1.385691
 Vib (V=0)       0.327980D+01          0.515848          1.187784
 Vib (V=0)    1  0.145327D+01          0.162347          0.373817
 Vib (V=0)    2  0.144176D+01          0.158892          0.365862
 Vib (V=0)    3  0.114898D+01          0.060313          0.138875
 Vib (V=0)    4  0.109267D+01          0.038491          0.088628
 Vib (V=0)    5  0.105908D+01          0.024931          0.057405
 Electronic      0.100000D+01          0.000000          0.000000
 Translational   0.196657D+08          7.293709         16.794385
 Rotational      0.462937D+05          4.665522         10.742761
 
                                                              b3lyp opt
                                                             IR Spectrum
 
      2  2      2                                                 1       1      1                                                   
      4  4      2                                                 2       1      09 9   8  8  777     5   5    4       22            
      7  0      6                                                 9       4      08 4   5  1  411     9   1    2       44            
      0  2      8                                                 1       1      01 6   8  0  052     8   1    3       51            
 
      X  X      X                                                 X       X      XX X   X  X  XXX     X   X    X       XX            
      X  X      X                                                         X                X  X       X                              
      X  X      X                                                         X                X  X                                      
      X  X      X                                                         X                X  X                                      
      X  X      X                                                                             X                                      
      X  X      X                                                                             X                                      
         X      X                                                                                                                    
         X                                                                                                                           
         X                                                                                                                           
         X                                                                                                                           
         X                                                                                                                           
         X                                                                                                                           
         X                                                                                                                           
         X                                                                                                                           
         X                                                                                                                           
         X                                                                                                                           
         X                                                                                                                           
         X                                                                                                                           
         X                                                                                                                           
         X                                                                                                                           
 
 ***** Axes restored to original set *****
 -------------------------------------------------------------------
 Center     Atomic                   Forces (Hartrees/Bohr)
 Number     Number              X              Y              Z
 -------------------------------------------------------------------
      1        6           0.000087282   -0.000000020    0.000004864
      2        6          -0.000069845    0.000051908   -0.000020472
      3        6           0.000023943    0.000000015    0.000015838
      4        6          -0.000069850   -0.000051885   -0.000020483
      5        1          -0.000017070   -0.000000004    0.000008647
      6        1           0.000046300   -0.000000003   -0.000049266
      7        1           0.000011239   -0.000000007    0.000059972
      8        6          -0.000012000   -0.000000005    0.000000900
 -------------------------------------------------------------------
 Cartesian Forces:  Max     0.000087282 RMS     0.000037223
 Z-matrix is all fixed cartesians, so copy forces.
 Force constants in Cartesian coordinates: 
                1             2             3             4             5 
      1  0.485068D+00
      2 -0.545323D-05  0.121278D+00
      3  0.635069D-01 -0.130850D-04  0.296935D+00
      4 -0.140491D+00 -0.537861D-01 -0.141945D-01  0.302469D+00
      5 -0.267423D-01 -0.263513D-01 -0.126905D-01 -0.317199D-01  0.184313D+00
      6 -0.118183D-01  0.109099D-02 -0.671740D-01  0.467328D-01 -0.523823D-02
      7 -0.947023D-01  0.618438D-05 -0.391980D-01 -0.170133D+00  0.501346D-01
      8  0.276773D-05 -0.277218D-01 -0.498724D-05  0.655662D-01 -0.388495D-01
      9 -0.386444D-01 -0.576579D-05  0.513514D-01 -0.229932D-01  0.142412D-01
     10 -0.140491D+00  0.537867D-01 -0.141866D-01  0.689265D-01 -0.112272D-01
     11  0.267455D-01 -0.263548D-01  0.126957D-01  0.112231D-01 -0.120088D+00
     12 -0.118144D-01 -0.108408D-02 -0.671726D-01  0.807222D-02 -0.231268D-02
     13 -0.406610D-01  0.196309D-05 -0.321933D-01 -0.813809D-02 -0.190995D-02
     14  0.356130D-05 -0.306634D-01  0.100377D-04 -0.289947D-02  0.306605D-03
     15 -0.512240D-01  0.101400D-04 -0.175629D+00 -0.925228D-02 -0.547544D-02
     16  0.910404D-02 -0.188096D-05  0.594274D-02 -0.186287D-01  0.153058D-01
     17  0.000000D+00 -0.237385D-02  0.000000D+00  0.125762D-01  0.338322D-03
     18 -0.462011D-02  0.000000D+00 -0.539277D-02 -0.939120D-02 -0.570238D-03
     19  0.722525D-02  0.000000D+00  0.128560D-02 -0.191335D-01  0.139909D-01
     20  0.000000D+00  0.408541D-02  0.000000D+00  0.793200D-02 -0.112179D-02
     21  0.110536D-01  0.000000D+00 -0.447566D-02  0.165930D-02  0.475861D-02
     22 -0.850520D-01  0.000000D+00  0.290372D-01 -0.148713D-01 -0.783187D-02
     23 -0.365087D-05 -0.118983D-01  0.207398D-05 -0.889212D-02  0.145263D-02
     24  0.435607D-01  0.100289D-05 -0.284430D-01 -0.633207D-03  0.728724D-02
                6             7             8             9            10 
      6  0.974029D-01
      7 -0.207807D-01  0.555064D+00
      8  0.123292D-01 -0.720344D-05  0.163994D+00
      9 -0.674130D-01  0.680935D-01 -0.653728D-05  0.258502D+00
     10  0.807052D-02 -0.170137D+00 -0.655613D-01 -0.230017D-01  0.302471D+00
     11  0.229213D-02 -0.501285D-01 -0.388444D-01 -0.142374D-01  0.317118D-01
     12  0.338379D-01 -0.207868D-01 -0.123255D-01 -0.674168D-01  0.467364D-01
     13 -0.161801D-01 -0.206100D-02  0.000000D+00  0.102590D-01 -0.813790D-02
     14 -0.196796D-01  0.000000D+00  0.653035D-03  0.000000D+00  0.290089D-02
     15 -0.199154D-03  0.138495D-01  0.000000D+00 -0.139510D-02 -0.925196D-02
     16 -0.861886D-03 -0.961952D-01 -0.440586D-05  0.751253D-01 -0.186279D-01
     17 -0.108566D-01 -0.660803D-05 -0.280994D-01  0.128037D-05 -0.125748D-01
     18  0.184733D-02  0.102589D+00  0.103779D-05 -0.523653D-01 -0.939333D-02
     19 -0.860168D-02 -0.313157D-01  0.469390D-05 -0.669856D-01 -0.191332D-01
     20  0.150357D-01  0.641323D-05 -0.281715D-01  0.681828D-05 -0.793194D-02
     21  0.217609D-02 -0.956032D-01  0.711119D-05 -0.123971D+00  0.165864D-02
     22  0.343933D-02  0.948023D-02  0.000000D+00 -0.185293D-02 -0.148711D-01
     23  0.502637D-02 -0.387344D-05 -0.296008D-02  0.000000D+00  0.889592D-02
     24 -0.478089D-03 -0.816279D-02  0.000000D+00  0.270814D-02 -0.631971D-03
               11            12            13            14            15 
     11  0.184310D+00
     12  0.524986D-02  0.974048D-01
     13  0.191205D-02 -0.161797D-01  0.488081D-01
     14  0.303154D-03  0.196798D-01 -0.350177D-05  0.272996D-01
     15  0.547560D-02 -0.195668D-03  0.498916D-01 -0.117206D-04  0.196226D+00
     16 -0.153064D-01 -0.864275D-03  0.183392D-03  0.000000D+00 -0.384542D-02
     17  0.336990D-03  0.108564D-01  0.000000D+00  0.419373D-02  0.000000D+00
     18  0.570447D-03  0.184904D-02 -0.158315D-02  0.000000D+00  0.127812D-02
     19 -0.139899D-01 -0.860384D-02 -0.501233D-03  0.000000D+00 -0.385159D-02
     20 -0.111885D-02 -0.150360D-01  0.000000D+00 -0.325473D-02  0.000000D+00
     21 -0.475938D-02  0.217321D-02 -0.148850D-02  0.000000D+00 -0.133815D-02
     22  0.783228D-02  0.344035D-02  0.105078D-01 -0.104242D-05  0.136841D-01
     23  0.145572D-02 -0.502774D-02  0.000000D+00  0.116198D-02  0.122947D-05
     24 -0.728689D-02 -0.479810D-03  0.747407D-02  0.131081D-05 -0.187474D-01
               16            17            18            19            20 
     16  0.132619D+00
     17  0.517740D-05  0.235500D-01
     18 -0.836701D-01 -0.339500D-05  0.791179D-01
     19 -0.196176D-02  0.000000D+00  0.358538D-02  0.693384D-01
     20  0.000000D+00  0.308531D-02  0.188178D-05 -0.569076D-05  0.246575D-01
     21  0.506508D-02  0.187272D-05 -0.248869D-01  0.809388D-01 -0.877054D-05
     22 -0.649260D-02  0.000000D+00  0.248398D-02 -0.451822D-02  0.000000D+00
     23  0.173205D-05 -0.103114D-02  0.000000D+00  0.000000D+00  0.183867D-02
     24  0.310855D-02  0.000000D+00 -0.144739D-02  0.223299D-02  0.000000D+00
               21            22            23            24 
     21  0.147828D+00
     22 -0.328374D-02  0.105817D+00
     23  0.000000D+00  0.165595D-05  0.998049D-02
     24  0.249433D-02 -0.469483D-01 -0.223063D-05  0.443933D-01
 Leave Link  716 at Tue Jul 19 16:00:40 2016, MaxMem=    33554432 cpu:         0.1
 (Enter /home/proyectos/fulerenos/M3C-v2.0/M3C-deps_CCC/g09-AM64L-G09RevC.01/l103.exe)

 GradGradGradGradGradGradGradGradGradGradGradGradGradGradGradGradGradGrad
 Berny optimization.
 Search for a local minimum.
 Step number   1 out of a maximum of    2
 All quantities printed in internal units (Hartrees-Bohrs-Radians)
 Second derivative matrix not updated -- analytic derivatives used.
 ITU=  0
     Eigenvalues ---    0.00726   0.01185   0.02669   0.03013   0.03072
     Eigenvalues ---    0.04440   0.06599   0.09643   0.12371   0.14372
     Eigenvalues ---    0.15921   0.22498   0.31258   0.33726   0.34138
     Eigenvalues ---    0.45765   0.66715   0.78886
 Angle between quadratic step and forces=  65.94 degrees.
 Linear search not attempted -- first point.
 B after Tr=     0.000121    0.000000   -0.000062
         Rot=    1.000000    0.000000    0.000011    0.000000 Ang=   0.00 deg.
 Variable       Old X    -DE/DX   Delta X   Delta X   Delta X     New X
                                 (Linear)    (Quad)   (Total)
    X1        1.45192   0.00009   0.00000   0.00020   0.00031   1.45223
    Y1       -0.00005  -0.00000   0.00000  -0.00000  -0.00000  -0.00005
    Z1        0.65201   0.00000   0.00000  -0.00005  -0.00008   0.65192
    X2       -0.76422  -0.00007   0.00000  -0.00001   0.00011  -0.76411
    Y2       -1.64527   0.00005   0.00000   0.00016   0.00016  -1.64510
    Z2        0.11654  -0.00002   0.00000  -0.00030  -0.00038   0.11616
    X3       -2.87242   0.00002   0.00000   0.00023   0.00035  -2.87206
    Y3        0.00003   0.00000   0.00000   0.00000   0.00000   0.00003
    Z3       -0.31400   0.00002   0.00000  -0.00000  -0.00013  -0.31413
    X4       -0.76421  -0.00007   0.00000  -0.00001   0.00011  -0.76410
    Y4        1.64526  -0.00005   0.00000  -0.00016  -0.00016   1.64509
    Z4        0.11677  -0.00002   0.00000  -0.00030  -0.00038   0.11639
    X5        2.12656  -0.00002   0.00000  -0.00070  -0.00064   2.12592
    Y5       -0.00020  -0.00000   0.00000  -0.00000  -0.00000  -0.00020
    Z5        2.73828   0.00001   0.00000   0.00022   0.00020   2.73848
    X6       -4.68386   0.00005   0.00000   0.00025   0.00035  -4.68351
    Y6       -0.00005  -0.00000   0.00000  -0.00000  -0.00000  -0.00005
    Z6        0.96476  -0.00005   0.00000  -0.00027  -0.00043   0.96433
    X7       -4.08552   0.00001   0.00000  -0.00114  -0.00097  -4.08649
    Y7        0.00016  -0.00000   0.00000  -0.00000  -0.00000   0.00016
    Z7       -2.16145   0.00006   0.00000   0.00110   0.00094  -2.16050
    X8        4.05606  -0.00001   0.00000   0.00024   0.00038   4.05644
    Y8        0.00004  -0.00000   0.00000  -0.00000  -0.00000   0.00004
    Z8       -0.82825   0.00000   0.00000   0.00023   0.00026  -0.82799
         Item               Value     Threshold  Converged?
 Maximum Force            0.000087     0.000450     YES
 RMS     Force            0.000037     0.000300     YES
 Maximum Displacement     0.000973     0.001800     YES
 RMS     Displacement     0.000377     0.001200     YES
 Predicted change in Energy=-7.023024D-08
 Optimization completed.
    -- Stationary point found.
 GradGradGradGradGradGradGradGradGradGradGradGradGradGradGradGradGradGrad

 Leave Link  103 at Tue Jul 19 16:00:40 2016, MaxMem=    33554432 cpu:         0.1
 (Enter /home/proyectos/fulerenos/M3C-v2.0/M3C-deps_CCC/g09-AM64L-G09RevC.01/l9999.exe)
 1\1\GINC-EINSTENIO\Freq\RB3LYP\6-311++G(3df,2p)\C5H3(3+)\ROOT\19-Jul-2
 016\0\\#p b3lyp/6-311++G(3df,2p) freq symmetry=Loose\\b3lyp opt\\3,1\C
 ,0.768324,-0.000028008,0.345026996\C,-0.40441,-0.870638259,0.061672003
 \C,-1.520018,0.000017441,-0.16616\C,-0.404402,0.870631741,0.061791003\
 H,1.125327001,-0.000105097,1.449034009\H,-2.478590001,-0.000024401,0.5
 10527992\H,-2.161963,0.000087202,-1.143788006\C,2.146377,0.000019194,-
 0.438293002\\Version=EM64L-G09RevE.01\State=1-A\HF=-190.2767777\RMSD=8
 .154e-09\RMSF=3.722e-05\ZeroPoint=0.0418144\Thermal=0.0469091\Dipole=0
 .097936,-0.0000006,0.0180912\DipoleDeriv=-1.4401184,-0.0000032,0.19109
 08,0.0000106,0.6892833,0.0000506,0.3405202,0.0000688,-0.2396601,0.7829
 276,0.0747244,0.0978638,0.0448816,0.2052443,-0.0446229,0.1572361,-0.06
 38293,0.3814283,-1.4683254,0.0000019,-0.1812407,0.0000219,0.5134209,0.
 0000592,-0.2883762,0.0000561,-0.2908603,0.7828942,-0.0747198,0.097878,
 -0.0448954,0.2052408,0.0445928,0.1572417,0.0638002,0.3814352,0.266895,
 -0.0000073,0.1527239,-0.0000144,0.2413218,-0.0000357,0.2140983,-0.0000
 341,0.7438404,1.1359603,0.0000152,-0.1520658,0.0000104,0.2853752,-0.00
 00133,-0.1913247,-0.0000153,0.4765548,0.9122876,-0.0000213,0.2961307,-
 0.0000272,0.2487999,-0.0000292,0.3675503,-0.0000263,0.6363157,2.027479
 2,0.0000102,-0.5023808,0.0000125,0.6113138,-0.0000015,-0.7569457,-0.00
 00202,0.910946\Polar=67.1903835,-0.0002743,36.8888123,0.8073066,0.0005
 609,31.1025884\PG=C01 [X(C5H3)]\NImag=0\\0.48506766,-0.00000545,0.1212
 7798,0.06350688,-0.00001308,0.29693545,-0.14049071,-0.05378610,-0.0141
 9450,0.30246887,-0.02674230,-0.02635132,-0.01269048,-0.03171992,0.1843
 1288,-0.01181832,0.00109099,-0.06717395,0.04673282,-0.00523823,0.09740
 289,-0.09470233,0.00000618,-0.03919801,-0.17013309,0.05013456,-0.02078
 071,0.55506410,0.00000277,-0.02772176,-0.00000499,0.06556623,-0.038849
 47,0.01232923,-0.00000720,0.16399355,-0.03864443,-0.00000577,0.0513514
 3,-0.02299315,0.01424121,-0.06741298,0.06809348,-0.00000654,0.25850174
 ,-0.14049089,0.05378669,-0.01418660,0.06892652,-0.01122722,0.00807052,
 -0.17013699,-0.06556130,-0.02300168,0.30247145,0.02674553,-0.02635478,
 0.01269566,0.01122313,-0.12008785,0.00229213,-0.05012847,-0.03884437,-
 0.01423744,0.03171179,0.18430999,-0.01181435,-0.00108408,-0.06717259,0
 .00807222,-0.00231268,0.03383786,-0.02078682,-0.01232554,-0.06741680,0
 .04673638,0.00524986,0.09740475,-0.04066104,0.00000196,-0.03219330,-0.
 00813809,-0.00190995,-0.01618007,-0.00206100,-0.00000061,0.01025901,-0
 .00813790,0.00191205,-0.01617967,0.04880809,0.00000356,-0.03066341,0.0
 0001004,-0.00289947,0.00030661,-0.01967959,-0.00000100,0.00065304,0.00
 000009,0.00290089,0.00030315,0.01967979,-0.00000350,0.02729963,-0.0512
 2397,0.00001014,-0.17562891,-0.00925228,-0.00547544,-0.00019915,0.0138
 4950,0.00000006,-0.00139510,-0.00925196,0.00547560,-0.00019567,0.04989
 160,-0.00001172,0.19622630,0.00910404,-0.00000188,0.00594274,-0.018628
 75,0.01530579,-0.00086189,-0.09619518,-0.00000441,0.07512534,-0.018627
 85,-0.01530644,-0.00086427,0.00018339,0.00000031,-0.00384542,0.1326187
 2,0.00000029,-0.00237385,0.00000016,0.01257625,0.00033832,-0.01085657,
 -0.00000661,-0.02809942,0.00000128,-0.01257484,0.00033699,0.01085642,0
 .00000012,0.00419373,0.00000022,0.00000518,0.02355005,-0.00462011,0.00
 000075,-0.00539277,-0.00939120,-0.00057024,0.00184733,0.10258855,0.000
 00104,-0.05236528,-0.00939333,0.00057045,0.00184904,-0.00158315,0.0000
 0020,0.00127812,-0.08367012,-0.00000340,0.07911786,0.00722525,-0.00000
 057,0.00128560,-0.01913346,0.01399092,-0.00860168,-0.03131574,0.000004
 69,-0.06698564,-0.01913323,-0.01398988,-0.00860384,-0.00050123,0.00000
 026,-0.00385159,-0.00196176,-0.00000024,0.00358538,0.06933839,-0.00000
 076,0.00408541,0.00000061,0.00793200,-0.00112179,0.01503567,0.00000641
 ,-0.02817149,0.00000682,-0.00793194,-0.00111885,-0.01503603,0.00000011
 ,-0.00325473,-0.00000010,-0.00000029,0.00308531,0.00000188,-0.00000569
 ,0.02465747,0.01105363,0.00000004,-0.00447566,0.00165930,0.00475861,0.
 00217609,-0.09560320,0.00000711,-0.12397114,0.00165864,-0.00475938,0.0
 0217321,-0.00148850,-0.00000012,-0.00133815,0.00506508,0.00000187,-0.0
 2488690,0.08093878,-0.00000877,0.14782822,-0.08505198,-0.00000084,0.02
 903718,-0.01487129,-0.00783187,0.00343933,0.00948023,-0.00000017,-0.00
 185293,-0.01487112,0.00783228,0.00344035,0.01050778,-0.00000104,0.0136
 8414,-0.00649260,-0.00000016,0.00248398,-0.00451822,0.00000015,-0.0032
 8374,0.10581721,-0.00000365,-0.01189828,0.00000207,-0.00889212,0.00145
 263,0.00502637,-0.00000387,-0.00296008,0.00000034,0.00889592,0.0014557
 2,-0.00502774,-0.00000017,0.00116198,0.00000123,0.00000173,-0.00103114
 ,-0.00000068,0.00000050,0.00183867,0.00000063,0.00000166,0.00998049,0.
 04356068,0.00000100,-0.02844300,-0.00063321,0.00728724,-0.00047809,-0.
 00816279,-0.00000037,0.00270814,-0.00063197,-0.00728689,-0.00047981,0.
 00747407,0.00000131,-0.01874743,0.00310855,0.,-0.00144739,0.00223299,-
 0.00000008,0.00249433,-0.04694831,-0.00000223,0.04439325\\-0.00008728,
 0.00000002,-0.00000486,0.00006985,-0.00005191,0.00002047,-0.00002394,-
 0.00000002,-0.00001584,0.00006985,0.00005188,0.00002048,0.00001707,0.,
 -0.00000865,-0.00004630,0.,0.00004927,-0.00001124,0.,-0.00005997,0.000
 01200,0.,-0.00000090\\\@


    THE DOUGHNUT CREED
 AS YOU RAMBLE ON THROUGH LIFE, BROTHER
 WHATEVER BE YOUR GOAL
 KEEP YOUR EYE UPON THE DOUGHNUT
 AND NOT UPON THE HOLE.
 Job cpu time:       0 days  0 hours 56 minutes 42.2 seconds.
 File lengths (MBytes):  RWF=     39 Int=      0 D2E=      0 Chk=      4 Scr=      1
 Normal termination of Gaussian 09 at Tue Jul 19 16:00:40 2016.
