 Entering Gaussian System, Link 0=/home/proyectos/fulerenos/M3C-v2.0/M3C-deps_CCC/g09-AM64L-G09RevC.01/g09
 Initial command:
 /home/proyectos/fulerenos/M3C-v2.0/M3C-deps_CCC/g09-AM64L-G09RevC.01/l1.exe "/scratch/naguirre/gaussian/Gau-29517.inp" -scrdir="/scratch/naguirre/gaussian/"
 Entering Link 1 = /home/proyectos/fulerenos/M3C-v2.0/M3C-deps_CCC/g09-AM64L-G09RevC.01/l1.exe PID=     29521.
  
 Copyright (c) 1988,1990,1992,1993,1995,1998,2003,2009,2015,
            Gaussian, Inc.  All Rights Reserved.
  
 This is part of the Gaussian(R) 09 program.  It is based on
 the Gaussian(R) 03 system (copyright 2003, Gaussian, Inc.),
 the Gaussian(R) 98 system (copyright 1998, Gaussian, Inc.),
 the Gaussian(R) 94 system (copyright 1995, Gaussian, Inc.),
 the Gaussian 92(TM) system (copyright 1992, Gaussian, Inc.),
 the Gaussian 90(TM) system (copyright 1990, Gaussian, Inc.),
 the Gaussian 88(TM) system (copyright 1988, Gaussian, Inc.),
 the Gaussian 86(TM) system (copyright 1986, Carnegie Mellon
 University), and the Gaussian 82(TM) system (copyright 1983,
 Carnegie Mellon University). Gaussian is a federally registered
 trademark of Gaussian, Inc.
  
 This software contains proprietary and confidential information,
 including trade secrets, belonging to Gaussian, Inc.
  
 This software is provided under written license and may be
 used, copied, transmitted, or stored only in accord with that
 written license.
  
 The following legend is applicable only to US Government
 contracts under FAR:
  
                    RESTRICTED RIGHTS LEGEND
  
 Use, reproduction and disclosure by the US Government is
 subject to restrictions as set forth in subparagraphs (a)
 and (c) of the Commercial Computer Software - Restricted
 Rights clause in FAR 52.227-19.
  
 Gaussian, Inc.
 340 Quinnipiac St., Bldg. 40, Wallingford CT 06492
  
  
 ---------------------------------------------------------------
 Warning -- This program may not be used in any manner that
 competes with the business of Gaussian, Inc. or will provide
 assistance to any competitor of Gaussian, Inc.  The licensee
 of this program is prohibited from giving any competitor of
 Gaussian, Inc. access to this program.  By using this program,
 the user acknowledges that Gaussian, Inc. is engaged in the
 business of creating and licensing software in the field of
 computational chemistry and represents and warrants to the
 licensee that it is not a competitor of Gaussian, Inc. and that
 it will not use this program in any manner prohibited above.
 ---------------------------------------------------------------
  

 Cite this work as:
 Gaussian 09, Revision E.01,
 M. J. Frisch, G. W. Trucks, H. B. Schlegel, G. E. Scuseria, 
 M. A. Robb, J. R. Cheeseman, G. Scalmani, V. Barone, B. Mennucci, 
 G. A. Petersson, H. Nakatsuji, M. Caricato, X. Li, H. P. Hratchian, 
 A. F. Izmaylov, J. Bloino, G. Zheng, J. L. Sonnenberg, M. Hada, 
 M. Ehara, K. Toyota, R. Fukuda, J. Hasegawa, M. Ishida, T. Nakajima, 
 Y. Honda, O. Kitao, H. Nakai, T. Vreven, J. A. Montgomery, Jr., 
 J. E. Peralta, F. Ogliaro, M. Bearpark, J. J. Heyd, E. Brothers, 
 K. N. Kudin, V. N. Staroverov, T. Keith, R. Kobayashi, J. Normand, 
 K. Raghavachari, A. Rendell, J. C. Burant, S. S. Iyengar, J. Tomasi, 
 M. Cossi, N. Rega, J. M. Millam, M. Klene, J. E. Knox, J. B. Cross, 
 V. Bakken, C. Adamo, J. Jaramillo, R. Gomperts, R. E. Stratmann, 
 O. Yazyev, A. J. Austin, R. Cammi, C. Pomelli, J. W. Ochterski, 
 R. L. Martin, K. Morokuma, V. G. Zakrzewski, G. A. Voth, 
 P. Salvador, J. J. Dannenberg, S. Dapprich, A. D. Daniels, 
 O. Farkas, J. B. Foresman, J. V. Ortiz, J. Cioslowski, 
 and D. J. Fox, Gaussian, Inc., Wallingford CT, 2013.
 
 ******************************************
 Gaussian 09:  EM64L-G09RevE.01 30-Nov-2015
                19-Jul-2016 
 ******************************************
 %NProcShared=1
 Will use up to    1 processors via shared memory.
 ---------------------------------------------
 #p b3lyp/6-311++G(3df,2p) freq symmetry=Loose
 ---------------------------------------------
 1/10=4,30=1,38=1/1,3;
 2/12=2,17=4,18=3,40=1/2;
 3/5=4,6=6,7=1216,11=2,16=1,25=1,30=1,71=2,74=-5,140=1/1,2,3;
 4//1;
 5/5=2,38=5,98=1/2;
 8/6=4,10=90,11=11/1;
 11/6=1,8=1,9=11,15=111,16=1/1,2,10;
 10/6=1/2;
 6/7=2,8=2,9=2,10=2,18=1,28=1/1;
 7/8=1,10=1,25=1/1,2,3,16;
 1/10=4,30=1/3;
 99//99;
 Leave Link    1 at Tue Jul 19 22:22:32 2016, MaxMem=           0 cpu:         0.1
 (Enter /home/proyectos/fulerenos/M3C-v2.0/M3C-deps_CCC/g09-AM64L-G09RevC.01/l101.exe)
 ---------
 b3lyp opt
 ---------
 Symbolic Z-matrix:
 Charge =  1 Multiplicity = 4
 C                    -1.34622  -0.09205  -0.00005 
 H                    -2.15217   0.63258   0.00002 
 H                    -1.58574  -1.15399  -0.00019 
 C                    -0.00002   0.35769   0.00004 
 C                     1.34623  -0.0919    0.00001 
 H                     1.58586  -1.15381  -0.00012 
 H                     2.15209   0.63282   0.00012 
 
 NAtoms=      7 NQM=        7 NQMF=       0 NMMI=      0 NMMIF=      0
                NMic=       0 NMicF=      0.
                    Isotopes and Nuclear Properties:
 (Nuclear quadrupole moments (NQMom) in fm**2, nuclear magnetic moments (NMagM)
  in nuclear magnetons)

  Atom         1           2           3           4           5           6           7
 IAtWgt=          12           1           1          12          12           1           1
 AtmWgt=  12.0000000   1.0078250   1.0078250  12.0000000  12.0000000   1.0078250   1.0078250
 NucSpn=           0           1           1           0           0           1           1
 AtZEff=   0.0000000   0.0000000   0.0000000   0.0000000   0.0000000   0.0000000   0.0000000
 NQMom=    0.0000000   0.0000000   0.0000000   0.0000000   0.0000000   0.0000000   0.0000000
 NMagM=    0.0000000   2.7928460   2.7928460   0.0000000   0.0000000   2.7928460   2.7928460
 AtZNuc=   6.0000000   1.0000000   1.0000000   6.0000000   6.0000000   1.0000000   1.0000000
 Leave Link  101 at Tue Jul 19 22:22:32 2016, MaxMem=    33554432 cpu:         0.3
 (Enter /home/proyectos/fulerenos/M3C-v2.0/M3C-deps_CCC/g09-AM64L-G09RevC.01/l103.exe)

 GradGradGradGradGradGradGradGradGradGradGradGradGradGradGradGradGradGrad
 Berny optimization.
 Initialization pass.
 Trust Radius=3.00D-01 FncErr=1.00D-07 GrdErr=1.00D-07
 Number of steps in this run=      2 maximum allowed number of steps=      2.
 GradGradGradGradGradGradGradGradGradGradGradGradGradGradGradGradGradGrad

 Leave Link  103 at Tue Jul 19 22:22:32 2016, MaxMem=    33554432 cpu:         0.1
 (Enter /home/proyectos/fulerenos/M3C-v2.0/M3C-deps_CCC/g09-AM64L-G09RevC.01/l202.exe)
                          Input orientation:                          
 ---------------------------------------------------------------------
 Center     Atomic      Atomic             Coordinates (Angstroms)
 Number     Number       Type             X           Y           Z
 ---------------------------------------------------------------------
      1          6           0       -1.346222   -0.092053   -0.000049
      2          1           0       -2.152170    0.632578    0.000024
      3          1           0       -1.585739   -1.153989   -0.000187
      4          6           0       -0.000023    0.357689    0.000037
      5          6           0        1.346227   -0.091902    0.000010
      6          1           0        1.585863   -1.153812   -0.000117
      7          1           0        2.152093    0.632819    0.000118
 ---------------------------------------------------------------------
                    Distance matrix (angstroms):
                    1          2          3          4          5
     1  C    0.000000
     2  H    1.083809   0.000000
     3  H    1.088613   1.874211   0.000000
     4  C    1.419338   2.169631   2.190814   0.000000
     5  C    2.692449   3.572625   3.118406   1.419338   0.000000
     6  H    3.118406   4.142955   3.171602   2.190814   1.088613
     7  H    3.572625   4.304263   4.142955   2.169631   1.083809
                    6          7
     6  H    0.000000
     7  H    1.874211   0.000000
 Stoichiometry    C3H4(1+,4)
 Framework group  CS[SG(C),X(C2H4)]
 Deg. of freedom     8
 Full point group                 CS      NOp   2
 Largest Abelian subgroup         CS      NOp   2
 Largest concise Abelian subgroup CS      NOp   2
                         Standard orientation:                         
 ---------------------------------------------------------------------
 Center     Atomic      Atomic             Coordinates (Angstroms)
 Number     Number       Type             X           Y           Z
 ---------------------------------------------------------------------
      1          6           0       -0.000030   -0.091978    1.346224
      2          1           0       -0.000047    0.632699    2.152131
      3          1           0       -0.000035   -1.153900    1.585801
      4          6           0       -0.000000    0.357689    0.000000
      5          6           0       -0.000030   -0.091978   -1.346224
      6          1           0       -0.000035   -1.153900   -1.585801
      7          1           0       -0.000047    0.632699   -2.152131
 ---------------------------------------------------------------------
 Rotational constants (GHZ):     97.1452430      8.7284197      8.0088327
 Leave Link  202 at Tue Jul 19 22:22:33 2016, MaxMem=    33554432 cpu:         0.0
 (Enter /home/proyectos/fulerenos/M3C-v2.0/M3C-deps_CCC/g09-AM64L-G09RevC.01/l301.exe)
 Standard basis: 6-311++G(3df,2p) (5D, 7F)
 Ernie: Thresh=  0.10000D-02 Tol=  0.10000D-05 Strict=F.
 There are    96 symmetry adapted cartesian basis functions of A'  symmetry.
 There are    79 symmetry adapted cartesian basis functions of A"  symmetry.
 There are    85 symmetry adapted basis functions of A'  symmetry.
 There are    72 symmetry adapted basis functions of A"  symmetry.
   157 basis functions,   222 primitive gaussians,   175 cartesian basis functions
    12 alpha electrons        9 beta electrons
       nuclear repulsion energy        56.3608988383 Hartrees.
 IExCor=  402 DFT=T Ex+Corr=B3LYP ExCW=0 ScaHFX=  0.200000
 ScaDFX=  0.800000  0.720000  1.000000  0.810000 ScalE2=  1.000000  1.000000
 IRadAn=      0 IRanWt=     -1 IRanGd=            0 ICorTp=0 IEmpDi=  4
 NAtoms=    7 NActive=    7 NUniq=    4 SFac= 3.06D+00 NAtFMM=   60 NAOKFM=F Big=F
 Integral buffers will be    131072 words long.
 Raffenetti 2 integral format.
 Two-electron integral symmetry is turned on.
 Leave Link  301 at Tue Jul 19 22:22:33 2016, MaxMem=    33554432 cpu:         0.2
 (Enter /home/proyectos/fulerenos/M3C-v2.0/M3C-deps_CCC/g09-AM64L-G09RevC.01/l302.exe)
 NPDir=0 NMtPBC=     1 NCelOv=     1 NCel=       1 NClECP=     1 NCelD=      1
         NCelK=      1 NCelE2=     1 NClLst=     1 CellRange=     0.0.
 One-electron integrals computed using PRISM.
 One-electron integral symmetry used in STVInt
 NBasis=   157 RedAO= T EigKep=  3.00D-05  NBF=    85    72
 NBsUse=   157 1.00D-06 EigRej= -1.00D+00 NBFU=    85    72
 Precomputing XC quadrature grid using
 IXCGrd= 4 IRadAn=           0 IRanWt=          -1 IRanGd=           0 AccXCQ= 0.00D+00.
 Generated NRdTot=       0 NPtTot=           0 NUsed=           0 NTot=          32
 NSgBfM=   175   175   175   175   175 MxSgAt=     7 MxSgA2=     7.
 Leave Link  302 at Tue Jul 19 22:22:33 2016, MaxMem=    33554432 cpu:         0.4
 (Enter /home/proyectos/fulerenos/M3C-v2.0/M3C-deps_CCC/g09-AM64L-G09RevC.01/l303.exe)
 DipDrv:  MaxL=1.
 Leave Link  303 at Tue Jul 19 22:22:33 2016, MaxMem=    33554432 cpu:         0.1
 (Enter /home/proyectos/fulerenos/M3C-v2.0/M3C-deps_CCC/g09-AM64L-G09RevC.01/l401.exe)
 ExpMin= 3.60D-02 ExpMax= 4.56D+03 ExpMxC= 6.82D+02 IAcc=3 IRadAn=         5 AccDes= 0.00D+00
 Harris functional with IExCor=  402 and IRadAn=       5 diagonalized for initial guess.
 HarFok:  IExCor=  402 AccDes= 0.00D+00 IRadAn=         5 IDoV= 1 UseB2=F ITyADJ=14
 ICtDFT=  3500011 ScaDFX=  1.000000  1.000000  1.000000  1.000000
 FoFCou: FMM=F IPFlag=           0 FMFlag=      100000 FMFlg1=           0
         NFxFlg=           0 DoJE=T BraDBF=F KetDBF=T FulRan=T
         wScrn=  0.000000 ICntrl=     500 IOpCl=  0 I1Cent=   200000004 NGrid=           0
         NMat0=    1 NMatS0=      1 NMatT0=    0 NMatD0=    1 NMtDS0=    0 NMtDT0=    0
 Petite list used in FoFCou.
 Harris En= -116.233201886159    
 JPrj=0 DoOrth=F DoCkMO=F.
 Initial guess orbital symmetries:
 Alpha Orbitals:
       Occupied  (A") (A') (A') (A') (A") (A') (A') (A") (A") (A')
                 (A") (A')
       Virtual   (A') (A') (A") (A') (A") (A') (A') (A') (A") (A")
                 (A') (A') (A') (A") (A") (A') (A") (A') (A") (A')
                 (A') (A') (A") (A") (A") (A') (A') (A") (A") (A")
                 (A') (A') (A') (A") (A') (A') (A') (A') (A") (A")
                 (A") (A') (A') (A") (A') (A") (A") (A') (A") (A')
                 (A") (A') (A") (A') (A") (A') (A") (A') (A') (A")
                 (A') (A") (A") (A') (A") (A') (A") (A') (A') (A')
                 (A") (A") (A') (A') (A") (A") (A') (A") (A') (A")
                 (A') (A') (A') (A") (A") (A') (A") (A') (A") (A')
                 (A') (A') (A') (A") (A") (A") (A') (A') (A") (A')
                 (A') (A') (A") (A") (A") (A') (A") (A') (A') (A")
                 (A") (A') (A") (A') (A") (A") (A') (A") (A') (A")
                 (A') (A') (A") (A') (A") (A') (A") (A') (A") (A')
                 (A") (A') (A') (A") (A') (A') (A") (A") (A') (A")
                 (A') (A") (A') (A") (A')
 Beta  Orbitals:
       Occupied  (A") (A') (A') (A') (A") (A') (A') (A") (A")
       Virtual   (A') (A") (A') (A') (A') (A") (A') (A") (A') (A')
                 (A') (A") (A") (A') (A') (A') (A") (A") (A') (A")
                 (A') (A") (A') (A') (A') (A") (A") (A") (A') (A')
                 (A") (A") (A") (A') (A') (A') (A") (A') (A') (A')
                 (A') (A") (A") (A") (A') (A') (A") (A') (A") (A")
                 (A') (A") (A') (A") (A') (A") (A') (A") (A') (A")
                 (A') (A') (A") (A') (A") (A") (A') (A") (A') (A")
                 (A') (A') (A') (A") (A") (A') (A') (A") (A") (A')
                 (A") (A') (A") (A') (A') (A') (A") (A") (A') (A")
                 (A') (A") (A') (A') (A') (A') (A") (A") (A") (A')
                 (A') (A") (A') (A') (A') (A") (A") (A") (A') (A")
                 (A') (A') (A") (A") (A') (A") (A') (A") (A") (A')
                 (A") (A') (A") (A') (A') (A") (A') (A") (A') (A")
                 (A') (A") (A') (A") (A') (A') (A") (A') (A') (A")
                 (A") (A') (A") (A') (A") (A') (A") (A')
 The electronic state of the initial guess is 4-A".
 Initial guess <Sx>= 0.0000 <Sy>= 0.0000 <Sz>= 1.5000 <S**2>= 3.7500 S= 1.5000
 Leave Link  401 at Tue Jul 19 22:22:37 2016, MaxMem=    33554432 cpu:         3.2
 (Enter /home/proyectos/fulerenos/M3C-v2.0/M3C-deps_CCC/g09-AM64L-G09RevC.01/l502.exe)
 UHF open shell SCF:
 Using DIIS extrapolation, IDIIS=  1040.
 Integral symmetry usage will be decided dynamically.
 IVT=      112959 IEndB=      112959 NGot=    33554432 MDV=    33488914
 LenX=    33488914 LenY=    33457848
 Requested convergence on RMS density matrix=1.00D-08 within 128 cycles.
 Requested convergence on MAX density matrix=1.00D-06.
 Requested convergence on             energy=1.00D-06.
 No special actions if energy rises.
 Fock matrices will be formed incrementally for  20 cycles.

 Cycle   1  Pass 1  IDiag  1:
 FoFJK:  IHMeth= 1 ICntrl=       0 DoSepK=F KAlg= 0 I1Cent=   0 FoldK=F
 IRaf= 990000000 NMat=   1 IRICut=       1 DoRegI=T DoRafI=F ISym2E= 1.
 FoFCou: FMM=F IPFlag=           0 FMFlag=      100000 FMFlg1=           0
         NFxFlg=           0 DoJE=F BraDBF=F KetDBF=F FulRan=T
         wScrn=  0.000000 ICntrl=       0 IOpCl=  1 I1Cent=           0 NGrid=           0
         NMat0=    1 NMatS0=      1 NMatT0=    0 NMatD0=    1 NMtDS0=    0 NMtDT0=    0
 Petite list used in FoFCou.
 E= -116.200274984717    
 DIIS: error= 1.88D-02 at cycle   1 NSaved=   1.
 NSaved= 1 IEnMin= 1 EnMin= -116.200274984717     IErMin= 1 ErrMin= 1.88D-02
 ErrMax= 1.88D-02  0.00D+00 EMaxC= 1.00D-01 BMatC= 1.59D-01 BMatP= 1.59D-01
 IDIUse=3 WtCom= 8.12D-01 WtEn= 1.88D-01
 Coeff-Com:  0.100D+01
 Coeff-En:   0.100D+01
 Coeff:      0.100D+01
 Gap=     0.178 Goal=   None    Shift=    0.000
 Gap=     0.155 Goal=   None    Shift=    0.000
 GapD=    0.155 DampG=1.000 DampE=0.500 DampFc=0.5000 IDamp=-1.
 Damping current iteration by 5.00D-01
 RMSDP=2.87D-03 MaxDP=1.43D-01              OVMax= 1.61D-01

 Cycle   2  Pass 1  IDiag  1:
 RMSU=  1.40D-03    CP:  1.02D+00
 E= -116.216404349853     Delta-E=       -0.016129365135 Rises=F Damp=T
 DIIS: error= 6.52D-03 at cycle   2 NSaved=   2.
 NSaved= 2 IEnMin= 2 EnMin= -116.216404349853     IErMin= 2 ErrMin= 6.52D-03
 ErrMax= 6.52D-03  0.00D+00 EMaxC= 1.00D-01 BMatC= 1.88D-02 BMatP= 1.59D-01
 IDIUse=3 WtCom= 9.35D-01 WtEn= 6.52D-02
 Coeff-Com: -0.548D-01 0.105D+01
 Coeff-En:   0.000D+00 0.100D+01
 Coeff:     -0.512D-01 0.105D+01
 Gap=     0.216 Goal=   None    Shift=    0.000
 Gap=     0.200 Goal=   None    Shift=    0.000
 RMSDP=1.00D-03 MaxDP=9.20D-02 DE=-1.61D-02 OVMax= 1.04D-01

 Cycle   3  Pass 1  IDiag  1:
 RMSU=  8.27D-04    CP:  1.04D+00  1.37D+00
 E= -116.234724809643     Delta-E=       -0.018320459790 Rises=F Damp=F
 DIIS: error= 5.29D-03 at cycle   3 NSaved=   3.
 NSaved= 3 IEnMin= 3 EnMin= -116.234724809643     IErMin= 3 ErrMin= 5.29D-03
 ErrMax= 5.29D-03  0.00D+00 EMaxC= 1.00D-01 BMatC= 4.90D-03 BMatP= 1.88D-02
 IDIUse=3 WtCom= 9.47D-01 WtEn= 5.29D-02
 Coeff-Com: -0.137D+00 0.332D+00 0.805D+00
 Coeff-En:   0.000D+00 0.000D+00 0.100D+01
 Coeff:     -0.130D+00 0.314D+00 0.816D+00
 Gap=     0.212 Goal=   None    Shift=    0.000
 Gap=     0.188 Goal=   None    Shift=    0.000
 RMSDP=3.10D-04 MaxDP=1.85D-02 DE=-1.83D-02 OVMax= 2.22D-02

 Cycle   4  Pass 1  IDiag  1:
 RMSU=  2.21D-04    CP:  1.04D+00  1.51D+00  8.98D-01
 E= -116.235920051516     Delta-E=       -0.001195241873 Rises=F Damp=F
 DIIS: error= 9.81D-04 at cycle   4 NSaved=   4.
 NSaved= 4 IEnMin= 4 EnMin= -116.235920051516     IErMin= 4 ErrMin= 9.81D-04
 ErrMax= 9.81D-04  0.00D+00 EMaxC= 1.00D-01 BMatC= 2.73D-04 BMatP= 4.90D-03
 IDIUse=3 WtCom= 9.90D-01 WtEn= 9.81D-03
 Coeff-Com: -0.421D-01 0.550D-01 0.276D+00 0.711D+00
 Coeff-En:   0.000D+00 0.000D+00 0.000D+00 0.100D+01
 Coeff:     -0.417D-01 0.544D-01 0.273D+00 0.714D+00
 Gap=     0.213 Goal=   None    Shift=    0.000
 Gap=     0.190 Goal=   None    Shift=    0.000
 RMSDP=7.38D-05 MaxDP=3.08D-03 DE=-1.20D-03 OVMax= 6.21D-03

 Cycle   5  Pass 1  IDiag  1:
 RMSU=  5.56D-05    CP:  1.04D+00  1.51D+00  9.45D-01  8.83D-01
 E= -116.236000588752     Delta-E=       -0.000080537237 Rises=F Damp=F
 DIIS: error= 3.06D-04 at cycle   5 NSaved=   5.
 NSaved= 5 IEnMin= 5 EnMin= -116.236000588752     IErMin= 5 ErrMin= 3.06D-04
 ErrMax= 3.06D-04  0.00D+00 EMaxC= 1.00D-01 BMatC= 1.61D-05 BMatP= 2.73D-04
 IDIUse=3 WtCom= 9.97D-01 WtEn= 3.06D-03
 Coeff-Com:  0.280D-02-0.148D-01-0.232D-01 0.157D+00 0.878D+00
 Coeff-En:   0.000D+00 0.000D+00 0.000D+00 0.000D+00 0.100D+01
 Coeff:      0.279D-02-0.147D-01-0.232D-01 0.157D+00 0.878D+00
 Gap=     0.213 Goal=   None    Shift=    0.000
 Gap=     0.189 Goal=   None    Shift=    0.000
 RMSDP=2.65D-05 MaxDP=1.79D-03 DE=-8.05D-05 OVMax= 1.29D-03

 Cycle   6  Pass 1  IDiag  1:
 RMSU=  1.38D-05    CP:  1.04D+00  1.52D+00  9.55D-01  9.47D-01  9.79D-01
 E= -116.236006662569     Delta-E=       -0.000006073817 Rises=F Damp=F
 DIIS: error= 5.65D-05 at cycle   6 NSaved=   6.
 NSaved= 6 IEnMin= 6 EnMin= -116.236006662569     IErMin= 6 ErrMin= 5.65D-05
 ErrMax= 5.65D-05  0.00D+00 EMaxC= 1.00D-01 BMatC= 7.80D-07 BMatP= 1.61D-05
 IDIUse=1 WtCom= 1.00D+00 WtEn= 0.00D+00
 Coeff-Com:  0.356D-02-0.665D-02-0.225D-01-0.265D-01 0.135D+00 0.917D+00
 Coeff:      0.356D-02-0.665D-02-0.225D-01-0.265D-01 0.135D+00 0.917D+00
 Gap=     0.213 Goal=   None    Shift=    0.000
 Gap=     0.189 Goal=   None    Shift=    0.000
 RMSDP=5.22D-06 MaxDP=1.82D-04 DE=-6.07D-06 OVMax= 4.77D-04

 Cycle   7  Pass 1  IDiag  1:
 RMSU=  3.48D-06    CP:  1.04D+00  1.52D+00  9.57D-01  9.56D-01  1.02D+00
                    CP:  1.07D+00
 E= -116.236007002920     Delta-E=       -0.000000340351 Rises=F Damp=F
 DIIS: error= 1.85D-05 at cycle   7 NSaved=   7.
 NSaved= 7 IEnMin= 7 EnMin= -116.236007002920     IErMin= 7 ErrMin= 1.85D-05
 ErrMax= 1.85D-05  0.00D+00 EMaxC= 1.00D-01 BMatC= 6.44D-08 BMatP= 7.80D-07
 IDIUse=1 WtCom= 1.00D+00 WtEn= 0.00D+00
 Coeff-Com:  0.328D-03 0.195D-03-0.862D-03-0.156D-01-0.381D-01 0.127D+00
 Coeff-Com:  0.927D+00
 Coeff:      0.328D-03 0.195D-03-0.862D-03-0.156D-01-0.381D-01 0.127D+00
 Coeff:      0.927D+00
 Gap=     0.213 Goal=   None    Shift=    0.000
 Gap=     0.189 Goal=   None    Shift=    0.000
 RMSDP=1.72D-06 MaxDP=1.12D-04 DE=-3.40D-07 OVMax= 9.75D-05

 Cycle   8  Pass 1  IDiag  1:
 RMSU=  1.34D-06    CP:  1.04D+00  1.52D+00  9.57D-01  9.57D-01  1.04D+00
                    CP:  1.12D+00  1.09D+00
 E= -116.236007030215     Delta-E=       -0.000000027295 Rises=F Damp=F
 DIIS: error= 4.46D-06 at cycle   8 NSaved=   8.
 NSaved= 8 IEnMin= 8 EnMin= -116.236007030215     IErMin= 8 ErrMin= 4.46D-06
 ErrMax= 4.46D-06  0.00D+00 EMaxC= 1.00D-01 BMatC= 4.33D-09 BMatP= 6.44D-08
 IDIUse=1 WtCom= 1.00D+00 WtEn= 0.00D+00
 Coeff-Com: -0.275D-03 0.588D-03 0.179D-02 0.553D-03-0.146D-01-0.686D-01
 Coeff-Com:  0.904D-01 0.990D+00
 Coeff:     -0.275D-03 0.588D-03 0.179D-02 0.553D-03-0.146D-01-0.686D-01
 Coeff:      0.904D-01 0.990D+00
 Gap=     0.213 Goal=   None    Shift=    0.000
 Gap=     0.189 Goal=   None    Shift=    0.000
 RMSDP=5.05D-07 MaxDP=2.23D-05 DE=-2.73D-08 OVMax= 1.92D-05

 Cycle   9  Pass 1  IDiag  1:
 RMSU=  2.72D-07    CP:  1.04D+00  1.52D+00  9.57D-01  9.57D-01  1.04D+00
                    CP:  1.13D+00  1.18D+00  1.03D+00
 E= -116.236007032087     Delta-E=       -0.000000001872 Rises=F Damp=F
 DIIS: error= 7.11D-07 at cycle   9 NSaved=   9.
 NSaved= 9 IEnMin= 9 EnMin= -116.236007032087     IErMin= 9 ErrMin= 7.11D-07
 ErrMax= 7.11D-07  0.00D+00 EMaxC= 1.00D-01 BMatC= 1.04D-10 BMatP= 4.33D-09
 IDIUse=1 WtCom= 1.00D+00 WtEn= 0.00D+00
 Coeff-Com: -0.148D-04 0.716D-05 0.736D-04 0.557D-03 0.427D-03-0.466D-02
 Coeff-Com: -0.345D-01 0.366D-01 0.100D+01
 Coeff:     -0.148D-04 0.716D-05 0.736D-04 0.557D-03 0.427D-03-0.466D-02
 Coeff:     -0.345D-01 0.366D-01 0.100D+01
 Gap=     0.213 Goal=   None    Shift=    0.000
 Gap=     0.189 Goal=   None    Shift=    0.000
 RMSDP=7.79D-08 MaxDP=3.72D-06 DE=-1.87D-09 OVMax= 3.11D-06

 Cycle  10  Pass 1  IDiag  1:
 RMSU=  3.66D-08    CP:  1.04D+00  1.52D+00  9.57D-01  9.57D-01  1.04D+00
                    CP:  1.13D+00  1.18D+00  1.06D+00  1.15D+00
 E= -116.236007032137     Delta-E=       -0.000000000049 Rises=F Damp=F
 DIIS: error= 1.19D-07 at cycle  10 NSaved=  10.
 NSaved=10 IEnMin=10 EnMin= -116.236007032137     IErMin=10 ErrMin= 1.19D-07
 ErrMax= 1.19D-07  0.00D+00 EMaxC= 1.00D-01 BMatC= 3.99D-12 BMatP= 1.04D-10
 IDIUse=1 WtCom= 1.00D+00 WtEn= 0.00D+00
 Coeff-Com:  0.118D-04-0.213D-04-0.741D-04-0.107D-03 0.495D-03 0.308D-02
 Coeff-Com:  0.979D-03-0.361D-01-0.177D+00 0.121D+01
 Coeff:      0.118D-04-0.213D-04-0.741D-04-0.107D-03 0.495D-03 0.308D-02
 Coeff:      0.979D-03-0.361D-01-0.177D+00 0.121D+01
 Gap=     0.213 Goal=   None    Shift=    0.000
 Gap=     0.189 Goal=   None    Shift=    0.000
 RMSDP=1.85D-08 MaxDP=7.18D-07 DE=-4.94D-11 OVMax= 9.67D-07

 Cycle  11  Pass 1  IDiag  1:
 RMSU=  8.41D-09    CP:  1.04D+00  1.52D+00  9.57D-01  9.57D-01  1.04D+00
                    CP:  1.13D+00  1.18D+00  1.07D+00  1.20D+00  1.27D+00
 E= -116.236007032139     Delta-E=       -0.000000000002 Rises=F Damp=F
 DIIS: error= 3.12D-08 at cycle  11 NSaved=  11.
 NSaved=11 IEnMin=11 EnMin= -116.236007032139     IErMin=11 ErrMin= 3.12D-08
 ErrMax= 3.12D-08  0.00D+00 EMaxC= 1.00D-01 BMatC= 2.11D-13 BMatP= 3.99D-12
 IDIUse=1 WtCom= 1.00D+00 WtEn= 0.00D+00
 Coeff-Com: -0.671D-06 0.191D-05-0.124D-05-0.147D-04-0.171D-04-0.273D-04
 Coeff-Com:  0.907D-03 0.785D-03-0.243D-01-0.545D-01 0.108D+01
 Coeff:     -0.671D-06 0.191D-05-0.124D-05-0.147D-04-0.171D-04-0.273D-04
 Coeff:      0.907D-03 0.785D-03-0.243D-01-0.545D-01 0.108D+01
 Gap=     0.213 Goal=   None    Shift=    0.000
 Gap=     0.189 Goal=   None    Shift=    0.000
 RMSDP=3.16D-09 MaxDP=2.44D-07 DE=-2.10D-12 OVMax= 1.64D-07

 SCF Done:  E(UB3LYP) =  -116.236007032     A.U. after   11 cycles
            NFock= 11  Conv=0.32D-08     -V/T= 2.0045
 <Sx>= 0.0000 <Sy>= 0.0000 <Sz>= 1.5000 <S**2>= 3.7551 S= 1.5013
 <L.S>= 0.000000000000E+00
 KE= 1.157129085419D+02 PE=-3.763072576825D+02 EE= 8.799744327015D+01
 Annihilation of the first spin contaminant:
 S**2 before annihilation     3.7551,   after     3.7500
 Leave Link  502 at Tue Jul 19 22:23:52 2016, MaxMem=    33554432 cpu:        75.5
 (Enter /home/proyectos/fulerenos/M3C-v2.0/M3C-deps_CCC/g09-AM64L-G09RevC.01/l801.exe)
 DoSCS=F DFT=T ScalE2(SS,OS)=  1.000000  1.000000
 Range of M.O.s used for correlation:     1   157
 NBasis=   157 NAE=    12 NBE=     9 NFC=     0 NFV=     0
 NROrb=    157 NOA=    12 NOB=     9 NVA=   145 NVB=   148

 **** Warning!!: The largest alpha MO coefficient is  0.68465068D+02


 **** Warning!!: The largest beta MO coefficient is  0.70448112D+02

 Leave Link  801 at Tue Jul 19 22:23:53 2016, MaxMem=    33554432 cpu:         0.1
 (Enter /home/proyectos/fulerenos/M3C-v2.0/M3C-deps_CCC/g09-AM64L-G09RevC.01/l1101.exe)
 Using compressed storage, NAtomX=     7.
 Will process      8 centers per pass.
 Leave Link 1101 at Tue Jul 19 22:23:53 2016, MaxMem=    33554432 cpu:         0.6
 (Enter /home/proyectos/fulerenos/M3C-v2.0/M3C-deps_CCC/g09-AM64L-G09RevC.01/l1102.exe)
 Symmetrizing basis deriv contribution to polar:
 IMax=3 JMax=2 DiffMx= 0.00D+00
 Leave Link 1102 at Tue Jul 19 22:23:53 2016, MaxMem=    33554432 cpu:         0.1
 (Enter /home/proyectos/fulerenos/M3C-v2.0/M3C-deps_CCC/g09-AM64L-G09RevC.01/l1110.exe)
 Forming Gx(P) for the SCF density, NAtomX=     7.
 Integral derivatives from FoFJK, PRISM(SPDF).
 Do as many integral derivatives as possible in FoFJK.
 G2DrvN: MDV=      33554272.
 G2DrvN: will do     8 centers at a time, making    1 passes.
 Calling FoFCou, ICntrl=  3107 FMM=F I1Cent=   0 AccDes= 0.00D+00.
 FoFJK:  IHMeth= 1 ICntrl=    3107 DoSepK=F KAlg= 0 I1Cent=   0 FoldK=F
 IRaf=         0 NMat=   1 IRICut=       1 DoRegI=T DoRafI=F ISym2E= 1.
 FoFCou: FMM=F IPFlag=           0 FMFlag=      100000 FMFlg1=           0
         NFxFlg=           0 DoJE=F BraDBF=F KetDBF=F FulRan=T
         wScrn=  0.000000 ICntrl=    3107 IOpCl=  1 I1Cent=           0 NGrid=           0
         NMat0=    1 NMatS0=      1 NMatT0=    0 NMatD0=    1 NMtDS0=    0 NMtDT0=    0
 Petite list used in FoFCou.
 End of G2Drv F.D. properties file   721 does not exist.
 End of G2Drv F.D. properties file   722 does not exist.
 End of G2Drv F.D. properties file   788 does not exist.
 Leave Link 1110 at Tue Jul 19 22:25:27 2016, MaxMem=    33554432 cpu:        93.1
 (Enter /home/proyectos/fulerenos/M3C-v2.0/M3C-deps_CCC/g09-AM64L-G09RevC.01/l1002.exe)
 Minotr:  UHF open shell wavefunction.
          IDoAtm=1111111
          Direct CPHF calculation.
          Differentiating once with respect to electric field.
                with respect to dipole field.
          Differentiating once with respect to nuclear coordinates.
          Using symmetry in CPHF.
          Requested convergence is 1.0D-08 RMS, and 1.0D-07 maximum.
          Secondary convergence is 1.0D-12 RMS, and 1.0D-12 maximum.
          NewPWx=T KeepS1=F KeepF1=F KeepIn=T MapXYZ=F SortEE=F KeepMc=T.
          MDV=      33554044 using IRadAn=       2.
 Generate precomputed XC quadrature information.
          Solving linear equations simultaneously, MaxMat=       0.
 FoFJK:  IHMeth= 1 ICntrl=       0 DoSepK=F KAlg= 0 I1Cent=   0 FoldK=F
 IRaf= 990000000 NMat=  15 IRICut=      37 DoRegI=T DoRafI=T ISym2E= 2.
 FoFCou: FMM=F IPFlag=           0 FMFlag=      100000 FMFlg1=           0
         NFxFlg=           0 DoJE=F BraDBF=F KetDBF=F FulRan=T
         wScrn=  0.000000 ICntrl=       0 IOpCl=  1 I1Cent=           0 NGrid=           0
         NMat0=   15 NMatS0=     15 NMatT0=    0 NMatD0=   15 NMtDS0=    0 NMtDT0=    0
 Integrals replicated using symmetry in FoFCou.
          There are    15 degrees of freedom in the 1st order CPHF.  IDoFFX=4 NUNeed=    15.
     15 vectors produced by pass  0 Test12= 2.05D-14 6.67D-09 XBig12= 1.14D+02 8.98D+00.
 AX will form    15 AO Fock derivatives at one time.
     15 vectors produced by pass  1 Test12= 2.05D-14 6.67D-09 XBig12= 9.88D+00 6.29D-01.
     15 vectors produced by pass  2 Test12= 2.05D-14 6.67D-09 XBig12= 4.40D-01 2.17D-01.
     15 vectors produced by pass  3 Test12= 2.05D-14 6.67D-09 XBig12= 5.76D-03 1.96D-02.
     15 vectors produced by pass  4 Test12= 2.05D-14 6.67D-09 XBig12= 6.46D-05 1.32D-03.
     15 vectors produced by pass  5 Test12= 2.05D-14 6.67D-09 XBig12= 4.83D-07 1.12D-04.
     15 vectors produced by pass  6 Test12= 2.05D-14 6.67D-09 XBig12= 2.58D-09 9.16D-06.
      5 vectors produced by pass  7 Test12= 2.05D-14 6.67D-09 XBig12= 9.57D-12 4.51D-07.
      3 vectors produced by pass  8 Test12= 2.05D-14 6.67D-09 XBig12= 4.56D-14 4.02D-08.
      1 vectors produced by pass  9 Test12= 2.05D-14 6.67D-09 XBig12= 1.40D-15 1.12D-08.
 InvSVY:  IOpt=1 It=  1 EMax= 5.33D-15
 Solved reduced A of dimension   114 with    15 vectors.
 FullF1:  Do perturbations    1 to    15.
 Isotropic polarizability for W=    0.000000       32.56 Bohr**3.
 End of Minotr F.D. properties file   721 does not exist.
 End of Minotr F.D. properties file   722 does not exist.
 End of Minotr F.D. properties file   788 does not exist.
 Leave Link 1002 at Tue Jul 19 22:33:09 2016, MaxMem=    33554432 cpu:       461.3
 (Enter /home/proyectos/fulerenos/M3C-v2.0/M3C-deps_CCC/g09-AM64L-G09RevC.01/l601.exe)
 Copying SCF densities to generalized density rwf, IOpCl= 1 IROHF=0.

 **********************************************************************

            Population analysis using the SCF density.

 **********************************************************************

 Orbital symmetries:
 Alpha Orbitals:
       Occupied  (A') (A") (A') (A') (A") (A') (A') (A") (A") (A')
                 (A') (A")
       Virtual   (A') (A') (A") (A') (A') (A') (A") (A') (A") (A")
                 (A') (A') (A') (A") (A') (A") (A") (A') (A") (A')
                 (A') (A') (A") (A") (A") (A') (A') (A") (A") (A")
                 (A') (A') (A') (A') (A') (A") (A") (A') (A') (A")
                 (A") (A') (A') (A") (A') (A") (A") (A') (A") (A')
                 (A") (A') (A") (A') (A") (A') (A") (A') (A') (A")
                 (A') (A") (A') (A") (A") (A') (A') (A") (A') (A')
                 (A") (A") (A') (A') (A") (A") (A") (A') (A') (A")
                 (A') (A') (A') (A") (A") (A') (A') (A") (A") (A')
                 (A') (A') (A') (A") (A") (A') (A") (A") (A') (A')
                 (A') (A") (A') (A") (A") (A') (A") (A') (A') (A")
                 (A") (A') (A") (A') (A") (A') (A") (A") (A') (A')
                 (A") (A') (A") (A') (A") (A') (A") (A') (A') (A")
                 (A') (A") (A') (A") (A') (A') (A") (A") (A') (A")
                 (A') (A") (A') (A") (A')
 Beta  Orbitals:
       Occupied  (A') (A") (A') (A') (A") (A') (A") (A') (A")
       Virtual   (A') (A') (A") (A') (A') (A") (A') (A') (A") (A')
                 (A') (A") (A") (A') (A') (A') (A") (A') (A") (A")
                 (A') (A") (A') (A') (A') (A") (A") (A") (A') (A')
                 (A") (A") (A") (A') (A') (A') (A') (A") (A') (A')
                 (A") (A') (A") (A") (A') (A') (A") (A') (A") (A")
                 (A') (A") (A') (A") (A') (A") (A') (A") (A') (A")
                 (A') (A') (A") (A') (A") (A") (A') (A") (A') (A")
                 (A') (A') (A") (A') (A") (A') (A') (A") (A") (A')
                 (A") (A') (A") (A') (A') (A') (A") (A") (A') (A')
                 (A") (A") (A') (A') (A') (A') (A") (A") (A') (A")
                 (A") (A') (A') (A') (A') (A") (A") (A") (A') (A")
                 (A') (A') (A") (A") (A') (A") (A') (A") (A") (A')
                 (A") (A') (A") (A') (A') (A") (A') (A") (A') (A")
                 (A') (A') (A") (A") (A') (A') (A") (A') (A') (A")
                 (A") (A') (A") (A') (A") (A') (A") (A')
 The electronic state is 4-A".
 Alpha  occ. eigenvalues --  -10.54533 -10.48314 -10.48311  -1.09439  -0.98439
 Alpha  occ. eigenvalues --   -0.81305  -0.73411  -0.72720  -0.68054  -0.63983
 Alpha  occ. eigenvalues --   -0.51730  -0.49419
 Alpha virt. eigenvalues --   -0.28130  -0.17057  -0.13436  -0.12581  -0.10782
 Alpha virt. eigenvalues --   -0.10106  -0.09810  -0.08630  -0.05871  -0.05380
 Alpha virt. eigenvalues --   -0.05233  -0.03339  -0.02645  -0.02393  -0.00322
 Alpha virt. eigenvalues --    0.00187   0.00375   0.01389   0.04057   0.04301
 Alpha virt. eigenvalues --    0.05109   0.07899   0.10253   0.10926   0.15007
 Alpha virt. eigenvalues --    0.15893   0.18851   0.19717   0.22578   0.22996
 Alpha virt. eigenvalues --    0.24638   0.24959   0.25235   0.29313   0.31269
 Alpha virt. eigenvalues --    0.32939   0.34686   0.34750   0.38101   0.40138
 Alpha virt. eigenvalues --    0.44964   0.44975   0.46467   0.49075   0.51808
 Alpha virt. eigenvalues --    0.52752   0.55407   0.55586   0.65884   0.68735
 Alpha virt. eigenvalues --    0.72865   0.73332   0.80437   0.81627   0.85272
 Alpha virt. eigenvalues --    0.90385   0.92452   0.96890   0.98586   0.98903
 Alpha virt. eigenvalues --    1.05549   1.09822   1.12934   1.13174   1.15848
 Alpha virt. eigenvalues --    1.20366   1.20868   1.21911   1.31341   1.38330
 Alpha virt. eigenvalues --    1.38657   1.48746   1.48911   1.54272   1.75489
 Alpha virt. eigenvalues --    1.79714   1.82581   1.83470   1.88471   2.06350
 Alpha virt. eigenvalues --    2.22074   2.33468   2.33669   2.39877   2.40827
 Alpha virt. eigenvalues --    2.41161   2.42307   2.47337   2.51211   2.55184
 Alpha virt. eigenvalues --    2.55376   2.57612   2.63450   2.70117   2.71292
 Alpha virt. eigenvalues --    2.78115   2.80310   2.82183   2.83109   2.94121
 Alpha virt. eigenvalues --    3.02238   3.09456   3.09671   3.15332   3.19942
 Alpha virt. eigenvalues --    3.32339   3.33784   3.61584   3.76858   3.78130
 Alpha virt. eigenvalues --    3.78938   3.92061   3.92650   3.94216   3.96154
 Alpha virt. eigenvalues --    4.04363   4.04509   4.11243   4.11395   4.41886
 Alpha virt. eigenvalues --    4.43814   4.70819   5.01357   5.18220   5.32169
 Alpha virt. eigenvalues --    5.32388   5.92174   6.64690   6.70568   6.74988
 Alpha virt. eigenvalues --    6.77646   6.77949   6.88153   6.97452   7.01207
 Alpha virt. eigenvalues --    7.11197   7.30712   7.32237   7.55216   7.59497
 Alpha virt. eigenvalues --    7.76599   7.87453  23.74006  24.43581  24.91854
  Beta  occ. eigenvalues --  -10.52273 -10.47167 -10.47165  -1.03180  -0.94231
  Beta  occ. eigenvalues --   -0.77543  -0.70481  -0.70294  -0.66510
  Beta virt. eigenvalues --   -0.47565  -0.34705  -0.34163  -0.18598  -0.16359
  Beta virt. eigenvalues --   -0.12926  -0.12229  -0.09688  -0.09490  -0.08648
  Beta virt. eigenvalues --   -0.07537  -0.05118  -0.04853  -0.03390  -0.02235
  Beta virt. eigenvalues --   -0.01306  -0.01166   0.00313   0.00596   0.00723
  Beta virt. eigenvalues --    0.02418   0.04215   0.05429   0.05863   0.09533
  Beta virt. eigenvalues --    0.11277   0.12317   0.15479   0.17761   0.19771
  Beta virt. eigenvalues --    0.21580   0.24282   0.24421   0.26496   0.27415
  Beta virt. eigenvalues --    0.27620   0.32192   0.33909   0.34702   0.36181
  Beta virt. eigenvalues --    0.38968   0.39028   0.41668   0.45893   0.46376
  Beta virt. eigenvalues --    0.48423   0.49953   0.52600   0.54363   0.56154
  Beta virt. eigenvalues --    0.57814   0.67227   0.70520   0.73995   0.74451
  Beta virt. eigenvalues --    0.81685   0.82936   0.86559   0.91178   0.93391
  Beta virt. eigenvalues --    0.98358   1.00152   1.00982   1.08225   1.11170
  Beta virt. eigenvalues --    1.14193   1.15635   1.19958   1.21479   1.23218
  Beta virt. eigenvalues --    1.27667   1.38452   1.42885   1.43091   1.50929
  Beta virt. eigenvalues --    1.52296   1.60745   1.77870   1.83318   1.85260
  Beta virt. eigenvalues --    1.88007   1.93032   2.09245   2.24607   2.35747
  Beta virt. eigenvalues --    2.39410   2.43366   2.44904   2.45695   2.49657
  Beta virt. eigenvalues --    2.49762   2.57047   2.60835   2.60920   2.63747
  Beta virt. eigenvalues --    2.69046   2.72509   2.75316   2.82317   2.83554
  Beta virt. eigenvalues --    2.85011   2.86526   2.99486   3.06804   3.11765
  Beta virt. eigenvalues --    3.14383   3.18633   3.23361   3.34212   3.35335
  Beta virt. eigenvalues --    3.63263   3.79384   3.81011   3.82355   3.93760
  Beta virt. eigenvalues --    3.94543   3.94925   3.96644   4.06194   4.06195
  Beta virt. eigenvalues --    4.13464   4.13952   4.45593   4.47241   4.72475
  Beta virt. eigenvalues --    5.03263   5.19726   5.33260   5.33413   5.93934
  Beta virt. eigenvalues --    6.73845   6.80417   6.80684   6.83321   6.84409
  Beta virt. eigenvalues --    6.93378   7.04382   7.07391   7.16837   7.35905
  Beta virt. eigenvalues --    7.37655   7.56401   7.60373   7.79768   7.90252
  Beta virt. eigenvalues --   23.75922  24.44982  24.94002
          Condensed to atoms (all electrons):
               1          2          3          4          5          6
     1  C    6.283107   0.478023   0.405934  -0.580176  -0.336068   0.017046
     2  H    0.478023   0.401976  -0.014561  -0.110808  -0.003699  -0.001182
     3  H    0.405934  -0.014561   0.404295  -0.038180   0.017046   0.003655
     4  C   -0.580176  -0.110808  -0.038180   6.874481  -0.580176  -0.038180
     5  C   -0.336068  -0.003699   0.017046  -0.580176   6.283107   0.405934
     6  H    0.017046  -0.001182   0.003655  -0.038180   0.405934   0.404295
     7  H   -0.003699   0.001000  -0.001182  -0.110808   0.478023  -0.014561
               7
     1  C   -0.003699
     2  H    0.001000
     3  H   -0.001182
     4  C   -0.110808
     5  C    0.478023
     6  H   -0.014561
     7  H    0.401976
          Atomic-Atomic Spin Densities.
               1          2          3          4          5          6
     1  C    0.805693   0.031467   0.006344  -0.173671   0.070764  -0.007969
     2  H    0.031467  -0.002904  -0.000484  -0.028394   0.002774  -0.000072
     3  H    0.006344  -0.000484   0.023746   0.011996  -0.007969   0.000916
     4  C   -0.173671  -0.028394   0.011996   1.835417  -0.173671   0.011996
     5  C    0.070764   0.002774  -0.007969  -0.173671   0.805693   0.006344
     6  H   -0.007969  -0.000072   0.000916   0.011996   0.006344   0.023746
     7  H    0.002774   0.000094  -0.000072  -0.028394   0.031467  -0.000484
               7
     1  C    0.002774
     2  H    0.000094
     3  H   -0.000072
     4  C   -0.028394
     5  C    0.031467
     6  H   -0.000484
     7  H   -0.002904
 Mulliken charges and spin densities:
               1          2
     1  C   -0.264166   0.735403
     2  H    0.249250   0.002480
     3  H    0.222992   0.034478
     4  C    0.583847   1.455280
     5  C   -0.264166   0.735403
     6  H    0.222992   0.034478
     7  H    0.249250   0.002480
 Sum of Mulliken charges =   1.00000   3.00000
 Mulliken charges and spin densities with hydrogens summed into heavy atoms:
               1          2
     1  C    0.208076   0.772360
     4  C    0.583847   1.455280
     5  C    0.208076   0.772360
 APT charges:
               1
     1  C   -0.152055
     2  H    0.162023
     3  H    0.146542
     4  C    0.686978
     5  C   -0.152055
     6  H    0.146542
     7  H    0.162023
 Sum of APT charges =   1.00000
 APT charges with hydrogens summed into heavy atoms:
               1
     1  C    0.156511
     4  C    0.686978
     5  C    0.156511
 Electronic spatial extent (au):  <R**2>=            170.7228
 Charge=              1.0000 electrons
 Dipole moment (field-independent basis, Debye):
    X=             -0.0001    Y=             -0.5270    Z=             -0.0000  Tot=              0.5270
 Quadrupole moment (field-independent basis, Debye-Ang):
   XX=            -17.0389   YY=            -14.1790   ZZ=             -4.4881
   XY=              0.0000   XZ=              0.0000   YZ=              0.0000
 Traceless Quadrupole moment (field-independent basis, Debye-Ang):
   XX=             -5.1369   YY=             -2.2770   ZZ=              7.4139
   XY=              0.0000   XZ=              0.0000   YZ=              0.0000
 Octapole moment (field-independent basis, Debye-Ang**2):
  XXX=              0.0012  YYY=             -4.0301  ZZZ=             -0.0000  XYY=              0.0003
  XXY=             -0.0343  XXZ=             -0.0000  XZZ=             -0.0002  YZZ=              0.7475
  YYZ=             -0.0000  XYZ=             -0.0000
 Hexadecapole moment (field-independent basis, Debye-Ang**3):
 XXXX=            -16.6520 YYYY=            -28.8663 ZZZZ=           -123.4847 XXXY=             -0.0001
 XXXZ=              0.0000 YYYX=             -0.0000 YYYZ=              0.0000 ZZZX=             -0.0000
 ZZZY=             -0.0000 XXYY=             -8.6901 XXZZ=            -33.0729 YYZZ=            -23.0884
 XXYZ=              0.0000 YYXZ=              0.0000 ZZXY=             -0.0002
 N-N= 5.636089883835D+01 E-N=-3.763072572972D+02  KE= 1.157129085419D+02
 Symmetry A'   KE= 7.450437870288D+01
 Symmetry A"   KE= 4.120852983902D+01
  Exact polarizability:  20.014   0.000  25.936   0.000   0.000  51.728
 Approx polarizability:  27.650   0.000  34.862  -0.000  -0.000  69.383
                          Isotropic Fermi Contact Couplings
        Atom                 a.u.       MegaHertz       Gauss      10(-4) cm-1
     1  C(13)              0.04153      15.56364       5.55349       5.19147
     2  H(1)               0.00358       5.34149       1.90598       1.78173
     3  H(1)               0.01908      28.42343      10.14219       9.48104
     4  C(13)              0.25579      95.85071      34.20191      31.97235
     5  C(13)              0.04153      15.56364       5.55349       5.19147
     6  H(1)               0.01908      28.42343      10.14219       9.48104
     7  H(1)               0.00358       5.34149       1.90598       1.78173
 --------------------------------------------------------
       Center         ----  Spin Dipole Couplings  ----
                      3XX-RR        3YY-RR        3ZZ-RR
 --------------------------------------------------------
     1   Atom        0.916283     -0.477804     -0.438479
     2   Atom       -0.022558     -0.029030      0.051588
     3   Atom       -0.021298      0.061345     -0.040047
     4   Atom        0.062114      0.827131     -0.889245
     5   Atom        0.916283     -0.477804     -0.438479
     6   Atom       -0.021298      0.061345     -0.040047
     7   Atom       -0.022558     -0.029030      0.051588
 --------------------------------------------------------
                        XY            XZ            YZ
 --------------------------------------------------------
     1   Atom        0.000002      0.000045     -0.051984
     2   Atom       -0.000002     -0.000002      0.065528
     3   Atom        0.000001      0.000001     -0.050262
     4   Atom        0.000013     -0.000000     -0.000000
     5   Atom        0.000002     -0.000045      0.051984
     6   Atom        0.000001     -0.000001      0.050262
     7   Atom       -0.000002      0.000002     -0.065528
 --------------------------------------------------------


 ---------------------------------------------------------------------------------
              Anisotropic Spin Dipole Couplings in Principal Axis System
 ---------------------------------------------------------------------------------

       Atom             a.u.   MegaHertz   Gauss  10(-4) cm-1        Axes

              Baa    -0.5137   -68.936   -24.598   -22.995 -0.0000  0.8227  0.5684
     1 C(13)  Bbb    -0.4026   -54.020   -19.276   -18.019 -0.0000 -0.5684  0.8227
              Bcc     0.9163   122.956    43.874    41.014  1.0000 -0.0000  0.0000
 
              Baa    -0.0657   -35.030   -12.500   -11.685  0.0000  0.8729 -0.4879
     2 H(1)   Bbb    -0.0226   -12.036    -4.295    -4.015  1.0000 -0.0000  0.0000
              Bcc     0.0882    47.066    16.794    15.700 -0.0000  0.4879  0.8729
 
              Baa    -0.0607   -32.408   -11.564   -10.810 -0.0000  0.3807  0.9247
     3 H(1)   Bbb    -0.0213   -11.364    -4.055    -3.791  1.0000  0.0000  0.0000
              Bcc     0.0820    43.771    15.619    14.601  0.0000  0.9247 -0.3807
 
              Baa    -0.8892  -119.328   -42.579   -39.804  0.0000  0.0000  1.0000
     4 C(13)  Bbb     0.0621     8.335     2.974     2.780  1.0000 -0.0000 -0.0000
              Bcc     0.8271   110.993    39.605    37.023  0.0000  1.0000 -0.0000
 
              Baa    -0.5137   -68.936   -24.598   -22.995 -0.0000  0.8227 -0.5684
     5 C(13)  Bbb    -0.4026   -54.020   -19.276   -18.019  0.0000  0.5684  0.8227
              Bcc     0.9163   122.956    43.874    41.014  1.0000 -0.0000 -0.0000
 
              Baa    -0.0607   -32.408   -11.564   -10.810  0.0000 -0.3807  0.9247
     6 H(1)   Bbb    -0.0213   -11.364    -4.055    -3.791  1.0000  0.0000 -0.0000
              Bcc     0.0820    43.771    15.619    14.601  0.0000  0.9247  0.3807
 
              Baa    -0.0657   -35.030   -12.500   -11.685  0.0000  0.8729  0.4879
     7 H(1)   Bbb    -0.0226   -12.036    -4.295    -4.015  1.0000 -0.0000 -0.0000
              Bcc     0.0882    47.066    16.794    15.700  0.0000 -0.4879  0.8729
 

 ---------------------------------------------------------------------------------

 No NMR shielding tensors so no spin-rotation constants.
 Leave Link  601 at Tue Jul 19 22:33:09 2016, MaxMem=    33554432 cpu:         0.6
 (Enter /home/proyectos/fulerenos/M3C-v2.0/M3C-deps_CCC/g09-AM64L-G09RevC.01/l701.exe)
 Compute integral second derivatives.
 ... and contract with generalized density number  0.
 Leave Link  701 at Tue Jul 19 22:33:10 2016, MaxMem=    33554432 cpu:         0.9
 (Enter /home/proyectos/fulerenos/M3C-v2.0/M3C-deps_CCC/g09-AM64L-G09RevC.01/l702.exe)
 L702 exits ... SP integral derivatives will be done elsewhere.
 Leave Link  702 at Tue Jul 19 22:33:10 2016, MaxMem=    33554432 cpu:         0.1
 (Enter /home/proyectos/fulerenos/M3C-v2.0/M3C-deps_CCC/g09-AM64L-G09RevC.01/l703.exe)
 Compute integral second derivatives, UseDBF=F ICtDFT=           0.
 Integral derivatives from FoFJK, PRISM(SPDF).
 Calling FoFJK, ICntrl=    100127 FMM=F ISym2X=1 I1Cent= 0 IOpClX= 1 NMat=1 NMatS=1 NMatT=0.
 FoFJK:  IHMeth= 1 ICntrl=  100127 DoSepK=F KAlg= 0 I1Cent=   0 FoldK=F
 IRaf=         0 NMat=   1 IRICut=       1 DoRegI=T DoRafI=F ISym2E= 1.
 FoFCou: FMM=F IPFlag=           0 FMFlag=      100000 FMFlg1=         800
         NFxFlg=           0 DoJE=F BraDBF=F KetDBF=F FulRan=T
         wScrn=  0.000000 ICntrl=  100127 IOpCl=  1 I1Cent=           0 NGrid=           0
         NMat0=    1 NMatS0=      1 NMatT0=    0 NMatD0=    1 NMtDS0=    0 NMtDT0=    0
 Petite list used in FoFCou.
 Leave Link  703 at Tue Jul 19 22:37:13 2016, MaxMem=    33554432 cpu:       242.2
 (Enter /home/proyectos/fulerenos/M3C-v2.0/M3C-deps_CCC/g09-AM64L-G09RevC.01/l716.exe)
 Dipole        =-5.08709447D-05-2.07348048D-01 3.54912497D-14
 Polarizability= 2.00141488D+01 6.48207628D-05 2.59360036D+01
                 3.30416384D-08 8.71908390D-09 5.17278420D+01
 Full mass-weighted force constant matrix:
 Low frequencies ---   -1.1582   -0.0005    0.0003    0.0005    5.6096   19.6947
 Low frequencies ---  311.7113  360.4410  435.8417
 Diagonal vibrational polarizability:
        3.0944775       1.1108538       3.6246324
 Harmonic frequencies (cm**-1), IR intensities (KM/Mole), Raman scattering
 activities (A**4/AMU), depolarization ratios for plane and unpolarized
 incident light, reduced masses (AMU), force constants (mDyne/A),
 and normal coordinates:
                      1                      2                      3
                     A'                     A"                     A'
 Frequencies --    311.7113               360.4409               435.8417
 Red. masses --      2.2168                 1.0312                 1.7188
 Frc consts  --      0.1269                 0.0789                 0.1924
 IR Inten    --      3.1291                 0.0000                 2.9601
  Atom  AN      X      Y      Z        X      Y      Z        X      Y      Z
     1   6    -0.00  -0.09  -0.11    -0.03   0.00  -0.00    -0.07   0.00  -0.00
     2   1     0.00  -0.38   0.15     0.56  -0.00   0.00    -0.67   0.00  -0.00
     3   1    -0.00  -0.18  -0.50    -0.43   0.00  -0.00     0.13   0.00  -0.00
     4   6     0.00   0.27   0.00    -0.00  -0.00   0.00     0.23  -0.00   0.00
     5   6    -0.00  -0.09   0.11     0.03  -0.00  -0.00    -0.07   0.00   0.00
     6   1    -0.00  -0.18   0.50     0.43  -0.00  -0.00     0.13   0.00   0.00
     7   1     0.00  -0.38  -0.15    -0.56   0.00   0.00    -0.67   0.00   0.00
                      4                      5                      6
                     A"                     A'                     A"
 Frequencies --    768.9850               832.5382               912.5936
 Red. masses --      1.2681                 1.4465                 1.2063
 Frc consts  --      0.4418                 0.5907                 0.5919
 IR Inten    --      0.0000                68.8999                 0.7044
  Atom  AN      X      Y      Z        X      Y      Z        X      Y      Z
     1   6    -0.11  -0.00  -0.00    -0.13   0.00  -0.00     0.00  -0.09  -0.01
     2   1     0.38  -0.00   0.00     0.45  -0.00   0.00     0.00   0.30  -0.36
     3   1     0.59  -0.00   0.00     0.53  -0.00   0.00    -0.00   0.03   0.52
     4   6     0.00  -0.00  -0.00     0.09  -0.00  -0.00     0.00   0.00  -0.00
     5   6     0.11   0.00  -0.00    -0.13   0.00   0.00    -0.00   0.09  -0.01
     6   1    -0.59   0.00   0.00     0.53  -0.00  -0.00     0.00  -0.03   0.52
     7   1    -0.38   0.00   0.00     0.45  -0.00  -0.00    -0.00  -0.30  -0.36
                      7                      8                      9
                     A'                     A'                     A"
 Frequencies --    933.8492              1097.1384              1417.6788
 Red. masses --      2.9729                 1.8655                 1.0816
 Frc consts  --      1.5275                 1.3230                 1.2807
 IR Inten    --      1.1290                 0.0057                19.2747
  Atom  AN      X      Y      Z        X      Y      Z        X      Y      Z
     1   6    -0.00  -0.01   0.29    -0.00  -0.13   0.04     0.00   0.02  -0.04
     2   1    -0.00  -0.30   0.56     0.00   0.24  -0.29    -0.00  -0.39   0.34
     3   1    -0.00  -0.09  -0.03    -0.00  -0.00   0.56    -0.00   0.12   0.46
     4   6     0.00   0.09   0.00     0.00   0.21   0.00    -0.00   0.00  -0.06
     5   6    -0.00  -0.01  -0.29    -0.00  -0.13  -0.04    -0.00  -0.02  -0.04
     6   1    -0.00  -0.09   0.03    -0.00  -0.00  -0.56     0.00  -0.12   0.46
     7   1    -0.00  -0.30  -0.56     0.00   0.24   0.29     0.00   0.39   0.34
                     10                     11                     12
                     A'                     A"                     A"
 Frequencies --   1440.2716              1484.9322              3080.8646
 Red. masses --      1.1417                10.0594                 1.0500
 Frc consts  --      1.3954                13.0688                 5.8717
 IR Inten    --      4.7891               242.5938               110.3414
  Atom  AN      X      Y      Z        X      Y      Z        X      Y      Z
     1   6     0.00   0.02  -0.07     0.00   0.11  -0.36    -0.00  -0.03   0.03
     2   1    -0.00  -0.40   0.31     0.00  -0.12  -0.16     0.00  -0.26  -0.27
     3   1    -0.00   0.14   0.47     0.00   0.21   0.08     0.00   0.58  -0.13
     4   6    -0.00  -0.01  -0.00     0.00  -0.00   0.73    -0.00  -0.00  -0.00
     5   6     0.00   0.02   0.07    -0.00  -0.11  -0.36     0.00   0.03   0.03
     6   1    -0.00   0.14  -0.47    -0.00  -0.21   0.08    -0.00  -0.58  -0.13
     7   1    -0.00  -0.40  -0.31    -0.00   0.12  -0.16    -0.00   0.26  -0.27
                     13                     14                     15
                     A'                     A"                     A'
 Frequencies --   3088.4994              3211.8317              3214.1750
 Red. masses --      1.0526                 1.1151                 1.1177
 Frc consts  --      5.9160                 6.7778                 6.8035
 IR Inten    --      8.8148                26.9120                46.9267
  Atom  AN      X      Y      Z        X      Y      Z        X      Y      Z
     1   6    -0.00  -0.03   0.03     0.00  -0.06  -0.03     0.00  -0.06  -0.03
     2   1     0.00  -0.25  -0.27    -0.00   0.40   0.45    -0.00   0.41   0.45
     3   1     0.00   0.59  -0.13     0.00   0.35  -0.08     0.00   0.34  -0.08
     4   6     0.00   0.00   0.00    -0.00  -0.00  -0.00    -0.00  -0.00   0.00
     5   6    -0.00  -0.03  -0.03    -0.00   0.06  -0.03     0.00  -0.06   0.03
     6   1     0.00   0.59   0.13    -0.00  -0.35  -0.08     0.00   0.34   0.08
     7   1     0.00  -0.25   0.27     0.00  -0.40   0.45    -0.00   0.41  -0.45

 -------------------
 - Thermochemistry -
 -------------------
 Temperature   298.150 Kelvin.  Pressure   1.00000 Atm.
 Atom     1 has atomic number  6 and mass  12.00000
 Atom     2 has atomic number  1 and mass   1.00783
 Atom     3 has atomic number  1 and mass   1.00783
 Atom     4 has atomic number  6 and mass  12.00000
 Atom     5 has atomic number  6 and mass  12.00000
 Atom     6 has atomic number  1 and mass   1.00783
 Atom     7 has atomic number  1 and mass   1.00783
 Molecular mass:    40.03130 amu.
 Principal axes and moments of inertia in atomic units:
                           1         2         3
     Eigenvalues --    18.57776 206.76609 225.34385
           X            0.00000   0.00002   1.00000
           Y            0.00000   1.00000  -0.00002
           Z            1.00000   0.00000   0.00000
 This molecule is an asymmetric top.
 Rotational symmetry number  1.
 Rotational temperatures (Kelvin)      4.66223     0.41890     0.38436
 Rotational constants (GHZ):          97.14524     8.72842     8.00883
 Zero-point vibrational energy     135126.3 (Joules/Mol)
                                   32.29596 (Kcal/Mol)
 Warning -- explicit consideration of   3 degrees of freedom as
           vibrations may cause significant error
 Vibrational temperatures:    448.48   518.59   627.08  1106.40  1197.84
          (Kelvin)           1313.02  1343.60  1578.54  2039.72  2072.23
                             2136.48  4432.67  4443.66  4621.10  4624.48
 
 Zero-point correction=                           0.051467 (Hartree/Particle)
 Thermal correction to Energy=                    0.055631
 Thermal correction to Enthalpy=                  0.056575
 Thermal correction to Gibbs Free Energy=         0.025586
 Sum of electronic and zero-point Energies=           -116.184540
 Sum of electronic and thermal Energies=              -116.180376
 Sum of electronic and thermal Enthalpies=            -116.179432
 Sum of electronic and thermal Free Energies=         -116.210421
 
                     E (Thermal)             CV                S
                      KCal/Mol        Cal/Mol-Kelvin    Cal/Mol-Kelvin
 Total                   34.909             13.353             65.223
 Electronic               0.000              0.000              2.755
 Translational            0.889              2.981             36.989
 Rotational               0.889              2.981             21.387
 Vibrational             33.132              7.391              4.092
 Vibration     1          0.700              1.651              1.353
 Vibration     2          0.735              1.554              1.120
 Vibration     3          0.796              1.392              0.840
                       Q            Log10(Q)             Ln(Q)
 Total Bot       0.170331D-11        -11.768705        -27.098445
 Total V=0       0.802359D+12         11.904368         27.410821
 Vib (Bot)       0.406139D-23        -23.391325        -53.860517
 Vib (Bot)    1  0.606025D+00         -0.217510         -0.500835
 Vib (Bot)    2  0.508369D+00         -0.293821         -0.676549
 Vib (Bot)    3  0.397947D+00         -0.400175         -0.921437
 Vib (V=0)       0.191315D+01          0.281748          0.648749
 Vib (V=0)    1  0.128566D+01          0.109127          0.251274
 Vib (V=0)    2  0.121305D+01          0.083878          0.193137
 Vib (V=0)    3  0.113903D+01          0.056536          0.130179
 Electronic      0.400000D+01          0.602060          1.386294
 Translational   0.995531D+07          6.998055         16.113617
 Rotational      0.105319D+05          4.022506          9.262161
 
                                                              b3lyp opt
                                                             IR Spectrum
 
     33   33                                                              111            1                                           
     22   00                                                              444            0     99   8 7            4  3 3            
     11   88                                                              841            9     31   3 6            3  6 1            
     42   81                                                              508            7     43   3 9            6  0 2            
 
     XX   XX                                                              XXX                  XX   X              X    X            
     XX    X                                                              X X                       X                                
     X     X                                                              X                         X                                
     X     X                                                              X                         X                                
           X                                                              X                         X                                
           X                                                              X                         X                                
           X                                                              X                                                          
           X                                                              X                                                          
           X                                                              X                                                          
                                                                          X                                                          
                                                                          X                                                          
                                                                          X                                                          
                                                                          X                                                          
                                                                          X                                                          
                                                                          X                                                          
                                                                          X                                                          
                                                                          X                                                          
                                                                          X                                                          
                                                                          X                                                          
                                                                          X                                                          
 
 ***** Axes restored to original set *****
 -------------------------------------------------------------------
 Center     Atomic                   Forces (Hartrees/Bohr)
 Number     Number              X              Y              Z
 -------------------------------------------------------------------
      1        6           0.000154672   -0.000211942    0.000001202
      2        1          -0.000065583    0.000061307    0.000000419
      3        1           0.000017548    0.000168091   -0.000000269
      4        6           0.000000002   -0.000034900   -0.000002703
      5        6          -0.000154649   -0.000211960    0.000001202
      6        1          -0.000017567    0.000168089   -0.000000269
      7        1           0.000065577    0.000061315    0.000000419
 -------------------------------------------------------------------
 Cartesian Forces:  Max     0.000211960 RMS     0.000100513
 Z-matrix is all fixed cartesians, so copy forces.
 Force constants in Cartesian coordinates: 
                1             2             3             4             5 
      1  0.586304D+00
      2 -0.198490D-01  0.588744D+00
      3  0.676522D-05  0.642870D-04  0.756251D-01
      4 -0.202141D+00  0.147986D+00  0.143536D-04  0.220333D+00
      5  0.146790D+00 -0.186461D+00 -0.180352D-04 -0.152370D+00  0.186605D+00
      6  0.145026D-04 -0.180025D-04 -0.197659D-01 -0.144923D-04  0.190932D-04
      7 -0.578528D-01 -0.547646D-01 -0.764308D-05  0.923777D-02  0.193897D-01
      8 -0.505304D-01 -0.316519D+00 -0.373621D-04 -0.648001D-02 -0.101894D-01
      9 -0.661532D-05 -0.372859D-04 -0.280192D-01  0.000000D+00 -0.174070D-05
     10 -0.295237D+00 -0.867487D-01 -0.153583D-04 -0.275918D-01 -0.974700D-02
     11 -0.658525D-01 -0.100914D+00 -0.930380D-05  0.123906D-01  0.112893D-01
     12 -0.129750D-04 -0.913628D-05 -0.393067D-01  0.119443D-05  0.104285D-05
     13 -0.348109D-01  0.128977D-01  0.171890D-05  0.684142D-03 -0.376552D-02
     14 -0.129035D-01  0.169265D-01  0.000000D+00 -0.209340D-02 -0.165578D-02
     15 -0.171893D-05  0.000000D+00  0.139254D-01  0.000000D+00  0.000000D+00
     16  0.305387D-02 -0.161471D-02  0.000000D+00 -0.857572D-04  0.513460D-04
     17 -0.141991D-02 -0.120864D-03  0.000000D+00  0.218726D-03 -0.137335D-03
     18  0.000000D+00  0.000000D+00 -0.230917D-02  0.000000D+00  0.000000D+00
     19  0.683486D-03  0.209366D-02  0.000000D+00 -0.436105D-03 -0.348277D-03
     20  0.376578D-02 -0.165512D-02  0.000000D+00  0.348167D-03  0.549408D-03
     21  0.000000D+00  0.000000D+00 -0.149481D-03  0.000000D+00  0.000000D+00
                6             7             8             9            10 
      6  0.965181D-02
      7  0.255385D-05  0.623635D-01
      8 -0.224781D-05  0.630850D-01  0.329695D+00
      9  0.679326D-02  0.908272D-05  0.411979D-04  0.123566D-01
     10 -0.211791D-05 -0.157218D-01 -0.704539D-02 -0.204692D-05  0.677121D+00
     11  0.176963D-05 -0.295043D-01 -0.298372D-02 -0.251153D-05  0.275432D-04
     12  0.763819D-03 -0.423367D-05 -0.195213D-05  0.118411D-01  0.000000D+00
     13  0.000000D+00  0.305353D-02  0.142026D-02  0.000000D+00 -0.295254D+00
     14  0.000000D+00  0.161506D-02 -0.120525D-03  0.000000D+00  0.867269D-01
     15 -0.149481D-03  0.000000D+00  0.000000D+00 -0.230917D-02  0.153595D-04
     16  0.000000D+00 -0.994483D-03 -0.230726D-03  0.000000D+00 -0.157259D-01
     17  0.000000D+00  0.230586D-03  0.255341D-03  0.000000D+00  0.704396D-02
     18  0.118163D-02  0.000000D+00  0.000000D+00 -0.184420D-02  0.204713D-05
     19  0.000000D+00 -0.857270D-04 -0.218721D-03  0.000000D+00 -0.275915D-01
     20  0.000000D+00 -0.513402D-04 -0.137365D-03  0.000000D+00  0.974265D-02
     21  0.152487D-02  0.000000D+00  0.000000D+00  0.118163D-02  0.211765D-05
               11            12            13            14            15 
     11  0.185196D+00
     12  0.200893D-04  0.534035D-01
     13  0.658308D-01  0.129760D-04  0.586299D+00
     14 -0.100897D+00 -0.913484D-05  0.198487D-01  0.588748D+00
     15 -0.930220D-05 -0.393066D-01 -0.677242D-05  0.642863D-04  0.756251D-01
     16  0.295029D-01  0.423388D-05 -0.578645D-01  0.547935D-01  0.764726D-05
     17 -0.297963D-02 -0.195162D-05  0.505593D-01 -0.316508D+00 -0.373612D-04
     18 -0.251130D-05  0.118411D-01  0.661950D-05 -0.372851D-04 -0.280192D-01
     19 -0.123949D-01 -0.119455D-05 -0.202108D+00 -0.147987D+00 -0.143516D-04
     20  0.112891D-01  0.104270D-05 -0.146791D+00 -0.186494D+00 -0.180369D-04
     21  0.176990D-05  0.763817D-03 -0.145006D-04 -0.180041D-04 -0.197659D-01
               16            17            18            19            20 
     16  0.623776D-01
     17 -0.631149D-01  0.329681D+00
     18 -0.908734D-05  0.411968D-04  0.123566D-01
     19  0.923922D-02  0.648219D-02  0.000000D+00  0.220298D+00
     20 -0.193875D-01 -0.101908D-01 -0.174062D-05  0.152373D+00  0.186639D+00
     21 -0.255360D-05 -0.224809D-05  0.679326D-02  0.144901D-04  0.190948D-04
               21 
     21  0.965181D-02
 Leave Link  716 at Tue Jul 19 22:37:13 2016, MaxMem=    33554432 cpu:         0.1
 (Enter /home/proyectos/fulerenos/M3C-v2.0/M3C-deps_CCC/g09-AM64L-G09RevC.01/l103.exe)

 GradGradGradGradGradGradGradGradGradGradGradGradGradGradGradGradGradGrad
 Berny optimization.
 Search for a local minimum.
 Step number   1 out of a maximum of    2
 All quantities printed in internal units (Hartrees-Bohrs-Radians)
 Second derivative matrix not updated -- analytic derivatives used.
 ITU=  0
     Eigenvalues ---    0.00525   0.00852   0.01950   0.05464   0.06572
     Eigenvalues ---    0.06622   0.10996   0.13140   0.16292   0.26846
     Eigenvalues ---    0.41355   0.75239   0.78191   0.85988   1.07356
 Angle between quadratic step and forces=  64.17 degrees.
 ClnCor:  largest displacement from symmetrization is 2.08D-11 for atom     7.
 Linear search not attempted -- first point.
 ClnCor:  largest displacement from symmetrization is 1.78D-15 for atom     3.
 B after Tr=     0.000000   -0.000162   -0.000009
         Rot=    1.000000    0.000003    0.000000    0.000000 Ang=   0.00 deg.
 Variable       Old X    -DE/DX   Delta X   Delta X   Delta X     New X
                                 (Linear)    (Quad)   (Total)
    X1       -2.54399   0.00015   0.00000   0.00018   0.00018  -2.54382
    Y1       -0.17395  -0.00021   0.00000  -0.00014  -0.00031  -0.17426
    Z1       -0.00009   0.00000   0.00000   0.00000  -0.00000  -0.00010
    X2       -4.06701  -0.00007   0.00000   0.00032   0.00032  -4.06669
    Y2        1.19540   0.00006   0.00000   0.00042   0.00026   1.19566
    Z2        0.00005   0.00000   0.00000   0.00004   0.00003   0.00007
    X3       -2.99661   0.00002   0.00000  -0.00061  -0.00061  -2.99723
    Y3       -2.18072   0.00017   0.00000   0.00053   0.00037  -2.18035
    Z3       -0.00035  -0.00000   0.00000   0.00001   0.00001  -0.00035
    X4       -0.00004   0.00000   0.00000   0.00000   0.00000  -0.00004
    Y4        0.67593  -0.00003   0.00000  -0.00049  -0.00065   0.67528
    Z4        0.00007  -0.00000   0.00000  -0.00005  -0.00006   0.00001
    X5        2.54400  -0.00015   0.00000  -0.00018  -0.00018   2.54382
    Y5       -0.17367  -0.00021   0.00000  -0.00014  -0.00031  -0.17398
    Z5       -0.00009   0.00000   0.00000   0.00000  -0.00000  -0.00010
    X6        2.99685  -0.00002   0.00000   0.00061   0.00061   2.99746
    Y6       -2.18039   0.00017   0.00000   0.00053   0.00037  -2.18002
    Z6       -0.00035  -0.00000   0.00000   0.00001   0.00001  -0.00035
    X7        4.06687   0.00007   0.00000  -0.00032  -0.00032   4.06655
    Y7        1.19585   0.00006   0.00000   0.00042   0.00026   1.19612
    Z7        0.00005   0.00000   0.00000   0.00004   0.00003   0.00007
         Item               Value     Threshold  Converged?
 Maximum Force            0.000212     0.000450     YES
 RMS     Force            0.000101     0.000300     YES
 Maximum Displacement     0.000654     0.001800     YES
 RMS     Displacement     0.000312     0.001200     YES
 Predicted change in Energy=-1.498732D-07
 Optimization completed.
    -- Stationary point found.
 GradGradGradGradGradGradGradGradGradGradGradGradGradGradGradGradGradGrad

 Leave Link  103 at Tue Jul 19 22:37:13 2016, MaxMem=    33554432 cpu:         0.0
 (Enter /home/proyectos/fulerenos/M3C-v2.0/M3C-deps_CCC/g09-AM64L-G09RevC.01/l9999.exe)
 1\1\GINC-EINSTENIO\Freq\UB3LYP\6-311++G(3df,2p)\C3H4(1+,4)\ROOT\19-Jul
 -2016\0\\#p b3lyp/6-311++G(3df,2p) freq symmetry=Loose\\b3lyp opt\\1,4
 \C,-1.346222364,-0.092052851,-0.000049053\H,-2.152169924,0.632578042,0
 .000023842\H,-1.58573943,-1.153989237,-0.000187076\C,-0.0000230372,0.3
 57689001,0.000036735\C,1.3462266281,-0.0919021459,-0.000049053\H,1.585
 8625727,-1.1538117121,-0.000187076\H,2.1520930632,0.6328189656,0.00002
 3842\\Version=EM64L-G09RevE.01\State=4-A"\HF=-116.236007\S2=3.75509\S2
 -1=0.\S2A=3.750011\RMSD=3.164e-09\RMSF=1.005e-04\ZeroPoint=0.0514669\T
 hermal=0.0556311\Dipole=0.0000116,-0.207348,-0.0000768\DipoleDeriv=-0.
 6300648,0.0042216,0.0000049,-0.2772093,0.1367492,0.000014,-0.0000434,0
 .0000138,0.0371511,0.2155608,-0.033578,-0.0000029,-0.0733757,0.1332704
 ,-0.0000014,-0.0000141,-0.0000025,0.1372391,0.1196933,0.0409858,0.0000
 046,0.0855428,0.1513294,-0.000002,0.0000136,-0.0000015,0.1686037,1.589
 6497,0.0000802,0.,0.0000801,0.1572734,-0.0000212,0.,-0.0000197,0.31401
 23,-0.6300954,-0.0043074,-0.0000049,0.2771235,0.1367798,0.000014,0.000
 0434,0.0000138,0.0371511,0.1197075,-0.0409894,-0.0000046,-0.0855463,0.
 1513153,-0.000002,-0.0000136,-0.0000015,0.1686037,0.2155489,0.0335872,
 0.0000029,0.0733849,0.1332824,-0.0000014,0.0000141,-0.0000025,0.137239
 1\Polar=51.7278419,0.0014436,25.9360036,0.,0.0008052,20.014149\PG=CS [
 SG(C1),X(C2H4)]\NImag=0\\0.58630386,-0.01984901,0.58874390,0.00000677,
 0.00006429,0.07562505,-0.20214087,0.14798563,0.00001435,0.22033257,0.1
 4678951,-0.18646096,-0.00001804,-0.15236972,0.18660470,0.00001450,-0.0
 0001800,-0.01976591,-0.00001449,0.00001909,0.00965181,-0.05785276,-0.0
 5476458,-0.00000764,0.00923777,0.01938965,0.00000255,0.06236345,-0.050
 53037,-0.31651930,-0.00003736,-0.00648001,-0.01018938,-0.00000225,0.06
 308496,0.32969495,-0.00000662,-0.00003729,-0.02801923,-0.00000074,-0.0
 0000174,0.00679326,0.00000908,0.00004120,0.01235662,-0.29523670,-0.086
 74866,-0.00001536,-0.02759175,-0.00974700,-0.00000212,-0.01572179,-0.0
 0704539,-0.00000205,0.67712136,-0.06585255,-0.10091411,-0.00000930,0.0
 1239059,0.01128935,0.00000177,-0.02950434,-0.00298372,-0.00000251,0.00
 002754,0.18519608,-0.00001298,-0.00000914,-0.03930665,0.00000119,0.000
 00104,0.00076382,-0.00000423,-0.00000195,0.01184110,0.,0.00002009,0.05
 340347,-0.03481090,0.01289767,0.00000172,0.00068414,-0.00376552,-0.000
 00048,0.00305353,0.00142026,0.00000044,-0.29525378,0.06583079,0.000012
 98,0.58629942,-0.01290346,0.01692646,0.00000025,-0.00209340,-0.0016557
 8,-0.00000033,0.00161506,-0.00012052,0.00000022,0.08672691,-0.10089703
 ,-0.00000913,0.01984873,0.58874834,-0.00000172,0.00000025,0.01392538,-
 0.00000035,-0.00000009,-0.00014948,0.00000019,0.00000025,-0.00230917,0
 .00001536,-0.00000930,-0.03930665,-0.00000677,0.00006429,0.07562505,0.
 00305387,-0.00161471,-0.00000019,-0.00008576,0.00005135,0.00000006,-0.
 00099448,-0.00023073,-0.00000011,-0.01572588,0.02950291,0.00000423,-0.
 05786455,0.05479354,0.00000765,0.06237758,-0.00141991,-0.00012086,0.00
 000025,0.00021873,-0.00013733,-0.00000018,0.00023059,0.00025534,0.0000
 0029,0.00704396,-0.00297963,-0.00000195,0.05055933,-0.31650751,-0.0000
 3736,-0.06311489,0.32968082,-0.00000044,0.00000022,-0.00230917,0.,-0.0
 0000017,0.00118163,0.00000011,0.00000029,-0.00184420,0.00000205,-0.000
 00251,0.01184110,0.00000662,-0.00003729,-0.02801923,-0.00000909,0.0000
 4120,0.01235662,0.00068349,0.00209366,0.00000035,-0.00043611,-0.000348
 28,-0.00000003,-0.00008573,-0.00021872,0.,-0.02759146,-0.01239495,-0.0
 0000119,-0.20210787,-0.14798739,-0.00001435,0.00923922,0.00648219,0.00
 000074,0.22029845,0.00376578,-0.00165512,-0.00000009,0.00034817,0.0005
 4941,-0.00000010,-0.00005134,-0.00013737,-0.00000017,0.00974265,0.0112
 8905,0.00000104,-0.14679126,-0.18649396,-0.00001804,-0.01938748,-0.010
 19083,-0.00000174,0.15237349,0.18663881,0.00000048,-0.00000033,-0.0001
 4948,0.00000003,-0.00000010,0.00152487,-0.00000006,-0.00000018,0.00118
 163,0.00000212,0.00000177,0.00076382,-0.00001450,-0.00001800,-0.019765
 91,-0.00000255,-0.00000225,0.00679326,0.00001449,0.00001909,0.00965181
 \\-0.00015467,0.00021194,-0.00000120,0.00006558,-0.00006131,-0.0000004
 2,-0.00001755,-0.00016809,0.00000027,0.,0.00003490,0.00000270,0.000154
 65,0.00021196,-0.00000120,0.00001757,-0.00016809,0.00000027,-0.0000655
 8,-0.00006131,-0.00000042\\\@


 I (ERNEST RUTHERFORD) CAME INTO THE ROOM, WHICH WAS HALF DARK, AND PRESENTLY
 SPOTTED LORD KELVIN IN THE AUDIENCE AND REALIZED I WAS IN TROUBLE AT
 THE LAST PART OF MY SPEECH DEALING THE AGE OF THE EARTH, WHERE MY VIEWS
 CONFLICTED WITH HIS.  TO MY RELIEF KELVIN FELL FAST ASLEEP, BUT AS I CAME
 TO THE IMPORTANT POINT, I SAW THE OLD BIRD SIT UP AND COCK A BALEFUL GLANCE
 AT ME! THEN A SUDDEN INSPIRATION CAME AND I SAID LORD KELVIN HAD LIMITED
 THE AGE OF THE EARTH PROVIDED NO NEW SOURCE WAS DISCOVERED. THAT
 PROPHETIC UTTERANCE REFERS TO WHAT WE ARE NOW CONSIDERING TONIGHT, RADIUM!
 BEHOLD!  THE OLD BOY BEAMED UPON ME.
 Job cpu time:       0 days  0 hours 14 minutes 40.3 seconds.
 File lengths (MBytes):  RWF=     25 Int=      0 D2E=      0 Chk=      3 Scr=      1
 Normal termination of Gaussian 09 at Tue Jul 19 22:37:14 2016.
