 Entering Gaussian System, Link 0=/home/proyectos/fulerenos/M3C-v2.0/M3C-deps_CCC/g09-AM64L-G09RevC.01/g09
 Initial command:
 /home/proyectos/fulerenos/M3C-v2.0/M3C-deps_CCC/g09-AM64L-G09RevC.01/l1.exe "/scratch/naguirre/gaussian/Gau-8747.inp" -scrdir="/scratch/naguirre/gaussian/"
 Entering Link 1 = /home/proyectos/fulerenos/M3C-v2.0/M3C-deps_CCC/g09-AM64L-G09RevC.01/l1.exe PID=      8751.
  
 Copyright (c) 1988,1990,1992,1993,1995,1998,2003,2009,2015,
            Gaussian, Inc.  All Rights Reserved.
  
 This is part of the Gaussian(R) 09 program.  It is based on
 the Gaussian(R) 03 system (copyright 2003, Gaussian, Inc.),
 the Gaussian(R) 98 system (copyright 1998, Gaussian, Inc.),
 the Gaussian(R) 94 system (copyright 1995, Gaussian, Inc.),
 the Gaussian 92(TM) system (copyright 1992, Gaussian, Inc.),
 the Gaussian 90(TM) system (copyright 1990, Gaussian, Inc.),
 the Gaussian 88(TM) system (copyright 1988, Gaussian, Inc.),
 the Gaussian 86(TM) system (copyright 1986, Carnegie Mellon
 University), and the Gaussian 82(TM) system (copyright 1983,
 Carnegie Mellon University). Gaussian is a federally registered
 trademark of Gaussian, Inc.
  
 This software contains proprietary and confidential information,
 including trade secrets, belonging to Gaussian, Inc.
  
 This software is provided under written license and may be
 used, copied, transmitted, or stored only in accord with that
 written license.
  
 The following legend is applicable only to US Government
 contracts under FAR:
  
                    RESTRICTED RIGHTS LEGEND
  
 Use, reproduction and disclosure by the US Government is
 subject to restrictions as set forth in subparagraphs (a)
 and (c) of the Commercial Computer Software - Restricted
 Rights clause in FAR 52.227-19.
  
 Gaussian, Inc.
 340 Quinnipiac St., Bldg. 40, Wallingford CT 06492
  
  
 ---------------------------------------------------------------
 Warning -- This program may not be used in any manner that
 competes with the business of Gaussian, Inc. or will provide
 assistance to any competitor of Gaussian, Inc.  The licensee
 of this program is prohibited from giving any competitor of
 Gaussian, Inc. access to this program.  By using this program,
 the user acknowledges that Gaussian, Inc. is engaged in the
 business of creating and licensing software in the field of
 computational chemistry and represents and warrants to the
 licensee that it is not a competitor of Gaussian, Inc. and that
 it will not use this program in any manner prohibited above.
 ---------------------------------------------------------------
  

 Cite this work as:
 Gaussian 09, Revision E.01,
 M. J. Frisch, G. W. Trucks, H. B. Schlegel, G. E. Scuseria, 
 M. A. Robb, J. R. Cheeseman, G. Scalmani, V. Barone, B. Mennucci, 
 G. A. Petersson, H. Nakatsuji, M. Caricato, X. Li, H. P. Hratchian, 
 A. F. Izmaylov, J. Bloino, G. Zheng, J. L. Sonnenberg, M. Hada, 
 M. Ehara, K. Toyota, R. Fukuda, J. Hasegawa, M. Ishida, T. Nakajima, 
 Y. Honda, O. Kitao, H. Nakai, T. Vreven, J. A. Montgomery, Jr., 
 J. E. Peralta, F. Ogliaro, M. Bearpark, J. J. Heyd, E. Brothers, 
 K. N. Kudin, V. N. Staroverov, T. Keith, R. Kobayashi, J. Normand, 
 K. Raghavachari, A. Rendell, J. C. Burant, S. S. Iyengar, J. Tomasi, 
 M. Cossi, N. Rega, J. M. Millam, M. Klene, J. E. Knox, J. B. Cross, 
 V. Bakken, C. Adamo, J. Jaramillo, R. Gomperts, R. E. Stratmann, 
 O. Yazyev, A. J. Austin, R. Cammi, C. Pomelli, J. W. Ochterski, 
 R. L. Martin, K. Morokuma, V. G. Zakrzewski, G. A. Voth, 
 P. Salvador, J. J. Dannenberg, S. Dapprich, A. D. Daniels, 
 O. Farkas, J. B. Foresman, J. V. Ortiz, J. Cioslowski, 
 and D. J. Fox, Gaussian, Inc., Wallingford CT, 2013.
 
 ******************************************
 Gaussian 09:  EM64L-G09RevE.01 30-Nov-2015
                19-Jul-2016 
 ******************************************
 %NProcShared=1
 Will use up to    1 processors via shared memory.
 ---------------------------------------------
 #p b3lyp/6-311++G(3df,2p) freq symmetry=Loose
 ---------------------------------------------
 1/10=4,30=1,38=1/1,3;
 2/12=2,17=4,18=3,40=1/2;
 3/5=4,6=6,7=1216,11=2,16=1,25=1,30=1,71=2,74=-5,140=1/1,2,3;
 4//1;
 5/5=2,38=5,98=1/2;
 8/6=4,10=90,11=11/1;
 11/6=1,8=1,9=11,15=111,16=1/1,2,10;
 10/6=1/2;
 6/7=2,8=2,9=2,10=2,18=1,28=1/1;
 7/8=1,10=1,25=1/1,2,3,16;
 1/10=4,30=1/3;
 99//99;
 Leave Link    1 at Tue Jul 19 18:12:49 2016, MaxMem=           0 cpu:         0.1
 (Enter /home/proyectos/fulerenos/M3C-v2.0/M3C-deps_CCC/g09-AM64L-G09RevC.01/l101.exe)
 ---------
 b3lyp opt
 ---------
 Symbolic Z-matrix:
 Charge =  0 Multiplicity = 1
 C                     0.        0.78716   0.66469 
 H                     0.        1.54825   1.42949 
 C                     0.       -0.78716   0.66469 
 H                     0.       -1.54825   1.42949 
 C                     0.        0.78716  -0.66472 
 C                     0.       -0.78716  -0.66472 
 H                     0.       -1.54825  -1.42952 
 H                     0.        1.54825  -1.42952 
 
 NAtoms=      8 NQM=        8 NQMF=       0 NMMI=      0 NMMIF=      0
                NMic=       0 NMicF=      0.
                    Isotopes and Nuclear Properties:
 (Nuclear quadrupole moments (NQMom) in fm**2, nuclear magnetic moments (NMagM)
  in nuclear magnetons)

  Atom         1           2           3           4           5           6           7           8
 IAtWgt=          12           1          12           1          12          12           1           1
 AtmWgt=  12.0000000   1.0078250  12.0000000   1.0078250  12.0000000  12.0000000   1.0078250   1.0078250
 NucSpn=           0           1           0           1           0           0           1           1
 AtZEff=   0.0000000   0.0000000   0.0000000   0.0000000   0.0000000   0.0000000   0.0000000   0.0000000
 NQMom=    0.0000000   0.0000000   0.0000000   0.0000000   0.0000000   0.0000000   0.0000000   0.0000000
 NMagM=    0.0000000   2.7928460   0.0000000   2.7928460   0.0000000   0.0000000   2.7928460   2.7928460
 AtZNuc=   6.0000000   1.0000000   6.0000000   1.0000000   6.0000000   6.0000000   1.0000000   1.0000000
 Leave Link  101 at Tue Jul 19 18:12:50 2016, MaxMem=    33554432 cpu:         0.3
 (Enter /home/proyectos/fulerenos/M3C-v2.0/M3C-deps_CCC/g09-AM64L-G09RevC.01/l103.exe)

 GradGradGradGradGradGradGradGradGradGradGradGradGradGradGradGradGradGrad
 Berny optimization.
 Initialization pass.
 Trust Radius=3.00D-01 FncErr=1.00D-07 GrdErr=1.00D-07
 Number of steps in this run=      2 maximum allowed number of steps=      2.
 GradGradGradGradGradGradGradGradGradGradGradGradGradGradGradGradGradGrad

 Leave Link  103 at Tue Jul 19 18:12:50 2016, MaxMem=    33554432 cpu:         0.1
 (Enter /home/proyectos/fulerenos/M3C-v2.0/M3C-deps_CCC/g09-AM64L-G09RevC.01/l202.exe)
                          Input orientation:                          
 ---------------------------------------------------------------------
 Center     Atomic      Atomic             Coordinates (Angstroms)
 Number     Number       Type             X           Y           Z
 ---------------------------------------------------------------------
      1          6           0        0.000000    0.787162    0.664691
      2          1           0        0.000000    1.548248    1.429490
      3          6           0        0.000000   -0.787162    0.664691
      4          1           0        0.000000   -1.548248    1.429490
      5          6           0        0.000000    0.787162   -0.664725
      6          6           0        0.000000   -0.787162   -0.664725
      7          1           0        0.000000   -1.548248   -1.429523
      8          1           0        0.000000    1.548248   -1.429523
 ---------------------------------------------------------------------
                    Distance matrix (angstroms):
                    1          2          3          4          5
     1  C    0.000000
     2  H    1.078966   0.000000
     3  C    1.574324   2.457449   0.000000
     4  H    2.457449   3.096495   1.078966   0.000000
     5  C    1.329416   2.228225   2.060544   3.136857   0.000000
     6  C    2.060544   3.136857   1.329416   2.228225   1.574324
     7  H    3.136857   4.214527   2.228225   2.859013   2.457449
     8  H    2.228225   2.859013   3.136857   4.214527   1.078966
                    6          7          8
     6  C    0.000000
     7  H    1.078966   0.000000
     8  H    2.457449   3.096495   0.000000
 Stoichiometry    C4H4
 Framework group  D2H[SG(C4H4)]
 Deg. of freedom     4
 Full point group                 D2H     NOp   8
 Largest Abelian subgroup         D2H     NOp   8
 Largest concise Abelian subgroup D2      NOp   4
                         Standard orientation:                         
 ---------------------------------------------------------------------
 Center     Atomic      Atomic             Coordinates (Angstroms)
 Number     Number       Type             X           Y           Z
 ---------------------------------------------------------------------
      1          6           0        0.000000    0.664708    0.787162
      2          1           0        0.000000    1.429507    1.548248
      3          6           0        0.000000    0.664708   -0.787162
      4          1           0        0.000000    1.429507   -1.548248
      5          6           0       -0.000000   -0.664708    0.787162
      6          6           0       -0.000000   -0.664708   -0.787162
      7          1           0       -0.000000   -1.429507   -1.548248
      8          1           0       -0.000000   -1.429507    1.548248
 ---------------------------------------------------------------------
 Rotational constants (GHZ):     17.1628621     12.8251653      7.3401475
 Leave Link  202 at Tue Jul 19 18:12:50 2016, MaxMem=    33554432 cpu:         0.0
 (Enter /home/proyectos/fulerenos/M3C-v2.0/M3C-deps_CCC/g09-AM64L-G09RevC.01/l301.exe)
 Standard basis: 6-311++G(3df,2p) (5D, 7F)
 Ernie: Thresh=  0.10000D-02 Tol=  0.10000D-05 Strict=F.
 There are    39 symmetry adapted cartesian basis functions of AG  symmetry.
 There are    16 symmetry adapted cartesian basis functions of B1G symmetry.
 There are    16 symmetry adapted cartesian basis functions of B2G symmetry.
 There are    39 symmetry adapted cartesian basis functions of B3G symmetry.
 There are    16 symmetry adapted cartesian basis functions of AU  symmetry.
 There are    39 symmetry adapted cartesian basis functions of B1U symmetry.
 There are    39 symmetry adapted cartesian basis functions of B2U symmetry.
 There are    16 symmetry adapted cartesian basis functions of B3U symmetry.
 There are    34 symmetry adapted basis functions of AG  symmetry.
 There are    15 symmetry adapted basis functions of B1G symmetry.
 There are    15 symmetry adapted basis functions of B2G symmetry.
 There are    34 symmetry adapted basis functions of B3G symmetry.
 There are    15 symmetry adapted basis functions of AU  symmetry.
 There are    34 symmetry adapted basis functions of B1U symmetry.
 There are    34 symmetry adapted basis functions of B2U symmetry.
 There are    15 symmetry adapted basis functions of B3U symmetry.
   196 basis functions,   280 primitive gaussians,   220 cartesian basis functions
    14 alpha electrons       14 beta electrons
       nuclear repulsion energy        99.0021018894 Hartrees.
 IExCor=  402 DFT=T Ex+Corr=B3LYP ExCW=0 ScaHFX=  0.200000
 ScaDFX=  0.800000  0.720000  1.000000  0.810000 ScalE2=  1.000000  1.000000
 IRadAn=      0 IRanWt=     -1 IRanGd=            0 ICorTp=0 IEmpDi=  4
 NAtoms=    8 NActive=    8 NUniq=    2 SFac= 4.00D+00 NAtFMM=   60 NAOKFM=F Big=F
 Integral buffers will be    131072 words long.
 Raffenetti 2 integral format.
 Two-electron integral symmetry is turned on.
 Leave Link  301 at Tue Jul 19 18:12:50 2016, MaxMem=    33554432 cpu:         0.3
 (Enter /home/proyectos/fulerenos/M3C-v2.0/M3C-deps_CCC/g09-AM64L-G09RevC.01/l302.exe)
 NPDir=0 NMtPBC=     1 NCelOv=     1 NCel=       1 NClECP=     1 NCelD=      1
         NCelK=      1 NCelE2=     1 NClLst=     1 CellRange=     0.0.
 One-electron integrals computed using PRISM.
 One-electron integral symmetry used in STVInt
 NBasis=   196 RedAO= T EigKep=  1.73D-06  NBF=    34    15    15    34    15    34    34    15
 NBsUse=   196 1.00D-06 EigRej= -1.00D+00 NBFU=    34    15    15    34    15    34    34    15
 Precomputing XC quadrature grid using
 IXCGrd= 4 IRadAn=           0 IRanWt=          -1 IRanGd=           0 AccXCQ= 0.00D+00.
 Generated NRdTot=       0 NPtTot=           0 NUsed=           0 NTot=          32
 NSgBfM=   220   220   220   220   220 MxSgAt=     8 MxSgA2=     8.
 Leave Link  302 at Tue Jul 19 18:12:51 2016, MaxMem=    33554432 cpu:         0.5
 (Enter /home/proyectos/fulerenos/M3C-v2.0/M3C-deps_CCC/g09-AM64L-G09RevC.01/l303.exe)
 DipDrv:  MaxL=1.
 Leave Link  303 at Tue Jul 19 18:12:51 2016, MaxMem=    33554432 cpu:         0.1
 (Enter /home/proyectos/fulerenos/M3C-v2.0/M3C-deps_CCC/g09-AM64L-G09RevC.01/l401.exe)
 ExpMin= 3.60D-02 ExpMax= 4.56D+03 ExpMxC= 6.82D+02 IAcc=3 IRadAn=         5 AccDes= 0.00D+00
 Harris functional with IExCor=  402 and IRadAn=       5 diagonalized for initial guess.
 HarFok:  IExCor=  402 AccDes= 0.00D+00 IRadAn=         5 IDoV= 1 UseB2=F ITyADJ=14
 ICtDFT=  3500011 ScaDFX=  1.000000  1.000000  1.000000  1.000000
 FoFCou: FMM=F IPFlag=           0 FMFlag=      100000 FMFlg1=           0
         NFxFlg=           0 DoJE=T BraDBF=F KetDBF=T FulRan=T
         wScrn=  0.000000 ICntrl=     500 IOpCl=  0 I1Cent=   200000004 NGrid=           0
         NMat0=    1 NMatS0=      1 NMatT0=    0 NMatD0=    1 NMtDS0=    0 NMtDT0=    0
 Petite list used in FoFCou.
 Harris En= -154.767639589288    
 JPrj=0 DoOrth=F DoCkMO=F.
 Initial guess orbital symmetries:
       Occupied  (AG) (B1U) (B2U) (B3G) (AG) (B1U) (B2U) (AG) (B3G)
                 (B1U) (AG) (B3U) (B2U) (B2G)
       Virtual   (B1G) (AU) (B1U) (AG) (B2U) (B1U) (B3G) (AG) (B3U)
                 (AG) (B2G) (B2U) (B3G) (B1G) (B1U) (AG) (B2U)
                 (B1U) (B3G) (AU) (B1U) (B2U) (AG) (B3G) (B2U)
                 (B3G) (B3G) (B1U) (B2U) (B3U) (AG) (AG) (B3U)
                 (B1U) (AG) (B2G) (B2U) (B3G) (B1G) (B1U) (B1G)
                 (AU) (B3U) (B2G) (B2U) (B3G) (B1U) (B2U) (AG)
                 (B3G) (B2U) (B1U) (B2G) (B1G) (B3G) (AU) (AG)
                 (AG) (B3G) (AU) (B2U) (B1U) (B3U) (B1U) (AG) (AG)
                 (B3G) (AG) (B2U) (B3G) (B1U) (B2G) (B2U) (B3U)
                 (B1G) (B1U) (AU) (B2U) (B3U) (B3G) (B2G) (B3G)
                 (B1G) (B1U) (AG) (B2U) (B3G) (AG) (B2U) (B2G)
                 (B1U) (AG) (B1G) (AU) (B1U) (B2U) (B3G) (AU) (B1U)
                 (B3U) (AG) (B3G) (B2U) (B3U) (AG) (B1U) (B2U)
                 (B1G) (B2G) (B3U) (B3G) (AG) (AU) (B1G) (B1U)
                 (B3U) (B2G) (AG) (B2U) (B1U) (B2G) (AG) (B3G)
                 (B2U) (B1G) (B3G) (B2U) (B1U) (AG) (B3G) (AU)
                 (B2U) (B2G) (AG) (B1U) (AU) (B3G) (B1U) (B2U)
                 (B3U) (B3G) (B2U) (B1G) (AG) (B2G) (AU) (B1U)
                 (B1G) (B3G) (B1U) (AU) (B2U) (B3G) (AG) (B3G)
                 (B1U) (B2U) (B3U) (B3G) (B1G) (B3U) (B2U) (B2G)
                 (AG) (B3G) (B2G) (B1G) (AG) (B2U) (AU) (B1U) (AU)
                 (B1U) (B2U) (AG) (B1U) (B3G) (B3G) (AG) (B1U)
                 (B2U) (B3G)
 The electronic state of the initial guess is 1-AG.
 Leave Link  401 at Tue Jul 19 18:12:53 2016, MaxMem=    33554432 cpu:         1.6
 (Enter /home/proyectos/fulerenos/M3C-v2.0/M3C-deps_CCC/g09-AM64L-G09RevC.01/l502.exe)
 Closed shell SCF:
 Using DIIS extrapolation, IDIIS=  1040.
 Integral symmetry usage will be decided dynamically.
 IVT=      167698 IEndB=      167698 NGot=    33554432 MDV=    33451995
 LenX=    33451995 LenY=    33403154
 Requested convergence on RMS density matrix=1.00D-08 within 128 cycles.
 Requested convergence on MAX density matrix=1.00D-06.
 Requested convergence on             energy=1.00D-06.
 No special actions if energy rises.
 Fock matrices will be formed incrementally for  20 cycles.

 Cycle   1  Pass 1  IDiag  1:
 FoFJK:  IHMeth= 1 ICntrl=       0 DoSepK=F KAlg= 0 I1Cent=   0 FoldK=F
 IRaf= 990000000 NMat=   1 IRICut=       1 DoRegI=T DoRafI=F ISym2E= 1.
 FoFCou: FMM=F IPFlag=           0 FMFlag=      100000 FMFlg1=           0
         NFxFlg=           0 DoJE=F BraDBF=F KetDBF=F FulRan=T
         wScrn=  0.000000 ICntrl=       0 IOpCl=  0 I1Cent=           0 NGrid=           0
         NMat0=    1 NMatS0=      1 NMatT0=    0 NMatD0=    1 NMtDS0=    0 NMtDT0=    0
 Petite list used in FoFCou.
 E= -154.608057389444    
 DIIS: error= 3.31D-02 at cycle   1 NSaved=   1.
 NSaved= 1 IEnMin= 1 EnMin= -154.608057389444     IErMin= 1 ErrMin= 3.31D-02
 ErrMax= 3.31D-02  0.00D+00 EMaxC= 1.00D-01 BMatC= 1.24D-01 BMatP= 1.24D-01
 IDIUse=3 WtCom= 6.69D-01 WtEn= 3.31D-01
 Coeff-Com:  0.100D+01
 Coeff-En:   0.100D+01
 Coeff:      0.100D+01
 Gap=     0.095 Goal=   None    Shift=    0.000
 GapD=    0.095 DampG=0.500 DampE=0.500 DampFc=0.2500 IDamp=-1.
 Damping current iteration by 2.50D-01
 RMSDP=3.99D-03 MaxDP=9.16D-02              OVMax= 2.37D-01

 Cycle   2  Pass 1  IDiag  1:
 RMSU=  8.50D-04    CP:  9.55D-01
 E= -154.652394345835     Delta-E=       -0.044336956392 Rises=F Damp=T
 DIIS: error= 1.69D-02 at cycle   2 NSaved=   2.
 NSaved= 2 IEnMin= 2 EnMin= -154.652394345835     IErMin= 2 ErrMin= 1.69D-02
 ErrMax= 1.69D-02  0.00D+00 EMaxC= 1.00D-01 BMatC= 3.12D-02 BMatP= 1.24D-01
 IDIUse=3 WtCom= 8.31D-01 WtEn= 1.69D-01
 Coeff-Com: -0.864D+00 0.186D+01
 Coeff-En:   0.000D+00 0.100D+01
 Coeff:     -0.718D+00 0.172D+01
 Gap=     0.137 Goal=   None    Shift=    0.000
 RMSDP=1.02D-03 MaxDP=2.59D-02 DE=-4.43D-02 OVMax= 1.37D-01

 Cycle   3  Pass 1  IDiag  1:
 RMSU=  5.97D-04    CP:  9.17D-01  1.82D+00
 E= -154.731481989071     Delta-E=       -0.079087643236 Rises=F Damp=F
 DIIS: error= 2.83D-03 at cycle   3 NSaved=   3.
 NSaved= 3 IEnMin= 3 EnMin= -154.731481989071     IErMin= 3 ErrMin= 2.83D-03
 ErrMax= 2.83D-03  0.00D+00 EMaxC= 1.00D-01 BMatC= 5.92D-04 BMatP= 3.12D-02
 IDIUse=3 WtCom= 9.72D-01 WtEn= 2.83D-02
 Coeff-Com: -0.186D+00 0.382D+00 0.804D+00
 Coeff-En:   0.000D+00 0.000D+00 0.100D+01
 Coeff:     -0.180D+00 0.371D+00 0.809D+00
 Gap=     0.131 Goal=   None    Shift=    0.000
 RMSDP=2.74D-04 MaxDP=1.10D-02 DE=-7.91D-02 OVMax= 6.01D-03

 Cycle   4  Pass 1  IDiag  1:
 RMSU=  2.10D-04    CP:  9.12D-01  1.74D+00  7.46D-01
 E= -154.731959117089     Delta-E=       -0.000477128018 Rises=F Damp=F
 DIIS: error= 5.56D-04 at cycle   4 NSaved=   4.
 NSaved= 4 IEnMin= 4 EnMin= -154.731959117089     IErMin= 4 ErrMin= 5.56D-04
 ErrMax= 5.56D-04  0.00D+00 EMaxC= 1.00D-01 BMatC= 2.97D-05 BMatP= 5.92D-04
 IDIUse=3 WtCom= 9.94D-01 WtEn= 5.56D-03
 Coeff-Com: -0.256D-01 0.374D-01 0.170D+00 0.818D+00
 Coeff-En:   0.000D+00 0.000D+00 0.000D+00 0.100D+01
 Coeff:     -0.254D-01 0.372D-01 0.169D+00 0.819D+00
 Gap=     0.130 Goal=   None    Shift=    0.000
 RMSDP=4.68D-05 MaxDP=1.61D-03 DE=-4.77D-04 OVMax= 1.32D-03

 Cycle   5  Pass 1  IDiag  1:
 RMSU=  3.14D-05    CP:  9.10D-01  1.76D+00  7.55D-01  1.04D+00
 E= -154.731987568368     Delta-E=       -0.000028451280 Rises=F Damp=F
 DIIS: error= 5.13D-05 at cycle   5 NSaved=   5.
 NSaved= 5 IEnMin= 5 EnMin= -154.731987568368     IErMin= 5 ErrMin= 5.13D-05
 ErrMax= 5.13D-05  0.00D+00 EMaxC= 1.00D-01 BMatC= 2.13D-07 BMatP= 2.97D-05
 IDIUse=1 WtCom= 1.00D+00 WtEn= 0.00D+00
 Coeff-Com: -0.128D-02 0.528D-03 0.122D-01 0.122D+00 0.866D+00
 Coeff:     -0.128D-02 0.528D-03 0.122D-01 0.122D+00 0.866D+00
 Gap=     0.131 Goal=   None    Shift=    0.000
 RMSDP=4.81D-06 MaxDP=1.07D-04 DE=-2.85D-05 OVMax= 1.49D-04

 Cycle   6  Pass 1  IDiag  1:
 RMSU=  3.57D-06    CP:  9.11D-01  1.76D+00  7.55D-01  1.05D+00  9.67D-01
 E= -154.731987773497     Delta-E=       -0.000000205129 Rises=F Damp=F
 DIIS: error= 7.79D-06 at cycle   6 NSaved=   6.
 NSaved= 6 IEnMin= 6 EnMin= -154.731987773497     IErMin= 6 ErrMin= 7.79D-06
 ErrMax= 7.79D-06  0.00D+00 EMaxC= 1.00D-01 BMatC= 4.74D-09 BMatP= 2.13D-07
 IDIUse=1 WtCom= 1.00D+00 WtEn= 0.00D+00
 Coeff-Com:  0.904D-04-0.351D-03-0.620D-03 0.955D-02 0.143D+00 0.848D+00
 Coeff:      0.904D-04-0.351D-03-0.620D-03 0.955D-02 0.143D+00 0.848D+00
 Gap=     0.131 Goal=   None    Shift=    0.000
 RMSDP=1.39D-06 MaxDP=3.19D-05 DE=-2.05D-07 OVMax= 3.00D-05

 Cycle   7  Pass 1  IDiag  1:
 RMSU=  5.87D-07    CP:  9.11D-01  1.76D+00  7.54D-01  1.05D+00  9.82D-01
                    CP:  1.13D+00
 E= -154.731987777544     Delta-E=       -0.000000004047 Rises=F Damp=F
 DIIS: error= 1.67D-06 at cycle   7 NSaved=   7.
 NSaved= 7 IEnMin= 7 EnMin= -154.731987777544     IErMin= 7 ErrMin= 1.67D-06
 ErrMax= 1.67D-06  0.00D+00 EMaxC= 1.00D-01 BMatC= 2.27D-10 BMatP= 4.74D-09
 IDIUse=1 WtCom= 1.00D+00 WtEn= 0.00D+00
 Coeff-Com: -0.373D-04 0.537D-04-0.415D-03-0.129D-02-0.217D-02 0.127D+00
 Coeff-Com:  0.877D+00
 Coeff:     -0.373D-04 0.537D-04-0.415D-03-0.129D-02-0.217D-02 0.127D+00
 Coeff:      0.877D+00
 Gap=     0.131 Goal=   None    Shift=    0.000
 RMSDP=1.57D-07 MaxDP=3.71D-06 DE=-4.05D-09 OVMax= 3.89D-06

 Cycle   8  Pass 1  IDiag  1:
 RMSU=  6.25D-08    CP:  9.11D-01  1.76D+00  7.54D-01  1.05D+00  9.83D-01
                    CP:  1.15D+00  9.77D-01
 E= -154.731987777794     Delta-E=       -0.000000000251 Rises=F Damp=F
 DIIS: error= 2.62D-07 at cycle   8 NSaved=   8.
 NSaved= 8 IEnMin= 8 EnMin= -154.731987777794     IErMin= 8 ErrMin= 2.62D-07
 ErrMax= 2.62D-07  0.00D+00 EMaxC= 1.00D-01 BMatC= 3.39D-12 BMatP= 2.27D-10
 IDIUse=1 WtCom= 1.00D+00 WtEn= 0.00D+00
 Coeff-Com: -0.109D-04 0.144D-04-0.272D-04-0.123D-03-0.102D-02-0.337D-02
 Coeff-Com:  0.222D-01 0.982D+00
 Coeff:     -0.109D-04 0.144D-04-0.272D-04-0.123D-03-0.102D-02-0.337D-02
 Coeff:      0.222D-01 0.982D+00
 Gap=     0.131 Goal=   None    Shift=    0.000
 RMSDP=3.67D-08 MaxDP=8.86D-07 DE=-2.51D-10 OVMax= 5.41D-07

 Cycle   9  Pass 1  IDiag  1:
 RMSU=  6.27D-09    CP:  9.11D-01  1.76D+00  7.54D-01  1.05D+00  9.84D-01
                    CP:  1.16D+00  9.99D-01  1.06D+00
 E= -154.731987777797     Delta-E=       -0.000000000003 Rises=F Damp=F
 DIIS: error= 1.34D-08 at cycle   9 NSaved=   9.
 NSaved= 9 IEnMin= 9 EnMin= -154.731987777797     IErMin= 9 ErrMin= 1.34D-08
 ErrMax= 1.34D-08  0.00D+00 EMaxC= 1.00D-01 BMatC= 1.00D-14 BMatP= 3.39D-12
 IDIUse=1 WtCom= 1.00D+00 WtEn= 0.00D+00
 Coeff-Com: -0.293D-06 0.577D-06 0.153D-05 0.130D-06-0.439D-04-0.105D-02
 Coeff-Com: -0.701D-02-0.963D-03 0.101D+01
 Coeff:     -0.293D-06 0.577D-06 0.153D-05 0.130D-06-0.439D-04-0.105D-02
 Coeff:     -0.701D-02-0.963D-03 0.101D+01
 Gap=     0.131 Goal=   None    Shift=    0.000
 RMSDP=5.45D-09 MaxDP=1.38D-07 DE=-2.79D-12 OVMax= 7.93D-08

 SCF Done:  E(RB3LYP) =  -154.731987778     A.U. after    9 cycles
            NFock=  9  Conv=0.55D-08     -V/T= 2.0048
 KE= 1.539920883328D+02 PE=-5.567594667007D+02 EE= 1.490332887007D+02
 Leave Link  502 at Tue Jul 19 18:13:39 2016, MaxMem=    33554432 cpu:        43.4
 (Enter /home/proyectos/fulerenos/M3C-v2.0/M3C-deps_CCC/g09-AM64L-G09RevC.01/l801.exe)
 DoSCS=F DFT=T ScalE2(SS,OS)=  1.000000  1.000000
 Range of M.O.s used for correlation:     1   196
 NBasis=   196 NAE=    14 NBE=    14 NFC=     0 NFV=     0
 NROrb=    196 NOA=    14 NOB=    14 NVA=   182 NVB=   182

 **** Warning!!: The largest alpha MO coefficient is  0.13471700D+03

 Leave Link  801 at Tue Jul 19 18:13:39 2016, MaxMem=    33554432 cpu:         0.1
 (Enter /home/proyectos/fulerenos/M3C-v2.0/M3C-deps_CCC/g09-AM64L-G09RevC.01/l1101.exe)
 Using compressed storage, NAtomX=     8.
 Will process      9 centers per pass.
 Leave Link 1101 at Tue Jul 19 18:13:41 2016, MaxMem=    33554432 cpu:         0.6
 (Enter /home/proyectos/fulerenos/M3C-v2.0/M3C-deps_CCC/g09-AM64L-G09RevC.01/l1102.exe)
 Symmetrizing basis deriv contribution to polar:
 IMax=3 JMax=2 DiffMx= 0.00D+00
 Leave Link 1102 at Tue Jul 19 18:13:41 2016, MaxMem=    33554432 cpu:         0.1
 (Enter /home/proyectos/fulerenos/M3C-v2.0/M3C-deps_CCC/g09-AM64L-G09RevC.01/l1110.exe)
 Forming Gx(P) for the SCF density, NAtomX=     8.
 Integral derivatives from FoFJK, PRISM(SPDF).
 Do as many integral derivatives as possible in FoFJK.
 G2DrvN: MDV=      33554264.
 G2DrvN: will do     9 centers at a time, making    1 passes.
 Calling FoFCou, ICntrl=  3107 FMM=F I1Cent=   0 AccDes= 0.00D+00.
 FoFJK:  IHMeth= 1 ICntrl=    3107 DoSepK=F KAlg= 0 I1Cent=   0 FoldK=F
 IRaf=         0 NMat=   1 IRICut=       1 DoRegI=T DoRafI=F ISym2E= 1.
 FoFCou: FMM=F IPFlag=           0 FMFlag=      100000 FMFlg1=           0
         NFxFlg=           0 DoJE=F BraDBF=F KetDBF=F FulRan=T
         wScrn=  0.000000 ICntrl=    3107 IOpCl=  0 I1Cent=           0 NGrid=           0
         NMat0=    1 NMatS0=      1 NMatT0=    0 NMatD0=    1 NMtDS0=    0 NMtDT0=    0
 Petite list used in FoFCou.
 End of G2Drv F.D. properties file   721 does not exist.
 End of G2Drv F.D. properties file   722 does not exist.
 End of G2Drv F.D. properties file   788 does not exist.
 Leave Link 1110 at Tue Jul 19 18:14:30 2016, MaxMem=    33554432 cpu:        48.9
 (Enter /home/proyectos/fulerenos/M3C-v2.0/M3C-deps_CCC/g09-AM64L-G09RevC.01/l1002.exe)
 Minotr:  Closed shell wavefunction.
          IDoAtm=11111111
          Direct CPHF calculation.
          Differentiating once with respect to electric field.
                with respect to dipole field.
          Differentiating once with respect to nuclear coordinates.
          Using symmetry in CPHF.
          Requested convergence is 1.0D-08 RMS, and 1.0D-07 maximum.
          Secondary convergence is 1.0D-12 RMS, and 1.0D-12 maximum.
          NewPWx=T KeepS1=F KeepF1=F KeepIn=T MapXYZ=F SortEE=F KeepMc=T.
          MDV=      33554152 using IRadAn=       2.
 Generate precomputed XC quadrature information.
          Solving linear equations simultaneously, MaxMat=       0.
 FoFJK:  IHMeth= 1 ICntrl=       0 DoSepK=F KAlg= 0 I1Cent=   0 FoldK=F
 IRaf= 990000000 NMat=   9 IRICut=      22 DoRegI=T DoRafI=T ISym2E= 2.
 FoFCou: FMM=F IPFlag=           0 FMFlag=      100000 FMFlg1=           0
         NFxFlg=           0 DoJE=F BraDBF=F KetDBF=F FulRan=T
         wScrn=  0.000000 ICntrl=       0 IOpCl=  0 I1Cent=           0 NGrid=           0
         NMat0=    9 NMatS0=      9 NMatT0=    0 NMatD0=    9 NMtDS0=    0 NMtDT0=    0
 Integrals replicated using symmetry in FoFCou.
          There are     9 degrees of freedom in the 1st order CPHF.  IDoFFX=4 NUNeed=     9.
      9 vectors produced by pass  0 Test12= 2.83D-14 1.11D-08 XBig12= 6.65D+01 5.11D+00.
 AX will form     9 AO Fock derivatives at one time.
      9 vectors produced by pass  1 Test12= 2.83D-14 1.11D-08 XBig12= 3.41D+01 2.22D+00.
      9 vectors produced by pass  2 Test12= 2.83D-14 1.11D-08 XBig12= 1.50D+00 3.69D-01.
      9 vectors produced by pass  3 Test12= 2.83D-14 1.11D-08 XBig12= 1.34D-02 2.48D-02.
      9 vectors produced by pass  4 Test12= 2.83D-14 1.11D-08 XBig12= 1.29D-04 2.92D-03.
      9 vectors produced by pass  5 Test12= 2.83D-14 1.11D-08 XBig12= 9.39D-07 1.57D-04.
      9 vectors produced by pass  6 Test12= 2.83D-14 1.11D-08 XBig12= 5.19D-09 1.27D-05.
      5 vectors produced by pass  7 Test12= 2.83D-14 1.11D-08 XBig12= 1.84D-11 1.32D-06.
      2 vectors produced by pass  8 Test12= 2.83D-14 1.11D-08 XBig12= 6.51D-14 7.73D-08.
      2 vectors produced by pass  9 Test12= 2.83D-14 1.11D-08 XBig12= 1.17D-14 3.07D-08.
 InvSVY:  IOpt=1 It=  1 EMax= 8.88D-16
 Solved reduced A of dimension    72 with     9 vectors.
 FullF1:  Do perturbations    1 to     9.
 Isotropic polarizability for W=    0.000000       44.53 Bohr**3.
 End of Minotr F.D. properties file   721 does not exist.
 End of Minotr F.D. properties file   722 does not exist.
 End of Minotr F.D. properties file   788 does not exist.
 Leave Link 1002 at Tue Jul 19 18:23:00 2016, MaxMem=    33554432 cpu:       503.9
 (Enter /home/proyectos/fulerenos/M3C-v2.0/M3C-deps_CCC/g09-AM64L-G09RevC.01/l601.exe)
 Copying SCF densities to generalized density rwf, IOpCl= 0 IROHF=0.

 **********************************************************************

            Population analysis using the SCF density.

 **********************************************************************

 Orbital symmetries:
       Occupied  (AG) (B1U) (B2U) (B3G) (AG) (B1U) (B2U) (AG) (B3G)
                 (B1U) (AG) (B3U) (B2U) (B2G)
       Virtual   (B1G) (AG) (B1U) (B2U) (B3G) (B3U) (AU) (AG) (AG)
                 (B1U) (B2G) (B2U) (B1G) (B3G) (B1U) (AG) (B2U)
                 (B1U) (AU) (B2U) (B3G) (B1U) (AG) (B3G) (B3G)
                 (B2U) (B1U) (B3G) (AG) (B2U) (B3U) (AG) (B3U)
                 (B1U) (AG) (B2U) (B2G) (B1G) (B3G) (B1U) (B1G)
                 (B2G) (AU) (B3U) (B2U) (B1U) (B3G) (B2U) (AG)
                 (B3G) (B1U) (B2G) (B1G) (AU) (B2U) (B3G) (AG)
                 (AG) (AU) (B3G) (B2U) (B1U) (B3U) (B1U) (B3G)
                 (AG) (AG) (B2U) (AG) (B3G) (B1U) (B2G) (B2U) (B1G)
                 (B1U) (B3U) (AU) (B2U) (B3G) (B3U) (B3G) (B2G)
                 (B1G) (B1U) (B2U) (AG) (B3G) (AG) (B2U) (B2G)
                 (B1U) (AG) (B1G) (AU) (B1U) (B2U) (B3G) (AU) (B1U)
                 (AG) (B3U) (B2U) (B3G) (B3U) (AG) (B1U) (B2U)
                 (B1G) (B3U) (B2G) (B3G) (AG) (AU) (B1G) (B1U)
                 (B3U) (B2G) (B2U) (B1U) (B2G) (AG) (AG) (B3G)
                 (B1G) (B2U) (B3G) (B2U) (B1U) (AG) (B3G) (AU)
                 (B2U) (B2G) (AG) (B1U) (B3G) (AU) (B1U) (B2U)
                 (B3U) (B3G) (B2U) (B1G) (AG) (B2G) (AU) (B1U)
                 (B1G) (B3G) (B1U) (AU) (B2U) (B3G) (AG) (B1U)
                 (B3G) (B2U) (B3G) (B3U) (B1G) (B3U) (B2U) (B2G)
                 (AG) (B3G) (B2G) (B1G) (AG) (B2U) (AU) (B1U) (AU)
                 (B1U) (B2U) (AG) (B1U) (B3G) (B3G) (AG) (B1U)
                 (B2U) (B3G)
 The electronic state is 1-AG.
 Alpha  occ. eigenvalues --  -10.18577 -10.18565 -10.18500 -10.18483  -0.87285
 Alpha  occ. eigenvalues --   -0.67409  -0.61030  -0.52163  -0.51619  -0.40187
 Alpha  occ. eigenvalues --   -0.39523  -0.36122  -0.32211  -0.20000
 Alpha virt. eigenvalues --   -0.06949   0.00098   0.01063   0.01421   0.03358
 Alpha virt. eigenvalues --    0.05943   0.06422   0.07404   0.07481   0.07766
 Alpha virt. eigenvalues --    0.09455   0.09908   0.11046   0.12069   0.12551
 Alpha virt. eigenvalues --    0.12923   0.13209   0.15323   0.15964   0.16568
 Alpha virt. eigenvalues --    0.16684   0.17317   0.21344   0.21775   0.26173
 Alpha virt. eigenvalues --    0.28165   0.30232   0.32325   0.32939   0.33202
 Alpha virt. eigenvalues --    0.34041   0.36133   0.36680   0.42108   0.43497
 Alpha virt. eigenvalues --    0.44683   0.44778   0.47960   0.48405   0.50955
 Alpha virt. eigenvalues --    0.52288   0.52832   0.53516   0.55648   0.60491
 Alpha virt. eigenvalues --    0.61162   0.61399   0.62654   0.65816   0.66681
 Alpha virt. eigenvalues --    0.70512   0.71235   0.72202   0.72825   0.73517
 Alpha virt. eigenvalues --    0.80624   0.80771   0.86867   0.87610   0.87956
 Alpha virt. eigenvalues --    0.90970   0.91383   1.00913   1.03926   1.05511
 Alpha virt. eigenvalues --    1.07123   1.07834   1.10915   1.13199   1.13340
 Alpha virt. eigenvalues --    1.18393   1.19253   1.20476   1.21699   1.25451
 Alpha virt. eigenvalues --    1.27948   1.28451   1.31567   1.37017   1.37071
 Alpha virt. eigenvalues --    1.45263   1.50414   1.52269   1.53204   1.56519
 Alpha virt. eigenvalues --    1.58316   1.59708   1.70268   1.77600   1.81073
 Alpha virt. eigenvalues --    1.84702   1.89823   2.03446   2.06738   2.18294
 Alpha virt. eigenvalues --    2.22615   2.23054   2.23695   2.39663   2.45806
 Alpha virt. eigenvalues --    2.46203   2.55524   2.57609   2.64476   2.66154
 Alpha virt. eigenvalues --    2.70981   2.74484   2.79445   2.79833   2.80918
 Alpha virt. eigenvalues --    2.82260   2.84606   2.98219   3.01609   3.03520
 Alpha virt. eigenvalues --    3.04419   3.08880   3.13691   3.15111   3.15925
 Alpha virt. eigenvalues --    3.18054   3.22656   3.24751   3.29984   3.30509
 Alpha virt. eigenvalues --    3.46523   3.49821   3.51253   3.58843   3.70505
 Alpha virt. eigenvalues --    3.79661   3.81934   3.83990   3.90000   3.93924
 Alpha virt. eigenvalues --    4.02648   4.03667   4.07816   4.18184   4.18339
 Alpha virt. eigenvalues --    4.24207   4.29895   4.36070   4.39558   4.41730
 Alpha virt. eigenvalues --    4.50085   4.53910   4.55442   4.86248   4.89711
 Alpha virt. eigenvalues --    4.93171   4.99906   5.15631   5.15807   5.77833
 Alpha virt. eigenvalues --    5.79743   6.15633   6.91161   6.94415   7.04737
 Alpha virt. eigenvalues --    7.09867   7.17807   7.19432   7.21331   7.28477
 Alpha virt. eigenvalues --    7.35706   7.42790   7.46833   7.48408   7.55793
 Alpha virt. eigenvalues --    7.63689   7.68980   7.95858   7.99014   8.09643
 Alpha virt. eigenvalues --    8.58943   8.64828   9.00602  23.84863  24.25377
 Alpha virt. eigenvalues --   25.83666  25.84394
          Condensed to atoms (all electrons):
               1          2          3          4          5          6
     1  C    5.701096   0.378872   0.431945  -0.056327   0.068543  -0.306597
     2  H    0.378872   0.484126  -0.056327   0.007829  -0.043771   0.029046
     3  C    0.431945  -0.056327   5.701096   0.378872  -0.306597   0.068543
     4  H   -0.056327   0.007829   0.378872   0.484126   0.029046  -0.043771
     5  C    0.068543  -0.043771  -0.306597   0.029046   5.701096   0.431945
     6  C   -0.306597   0.029046   0.068543  -0.043771   0.431945   5.701096
     7  H    0.029046  -0.001908  -0.043771  -0.000672  -0.056327   0.378872
     8  H   -0.043771  -0.000672   0.029046  -0.001908   0.378872  -0.056327
               7          8
     1  C    0.029046  -0.043771
     2  H   -0.001908  -0.000672
     3  C   -0.043771   0.029046
     4  H   -0.000672  -0.001908
     5  C   -0.056327   0.378872
     6  C    0.378872  -0.056327
     7  H    0.484126   0.007829
     8  H    0.007829   0.484126
 Mulliken charges:
               1
     1  C   -0.202806
     2  H    0.202806
     3  C   -0.202806
     4  H    0.202806
     5  C   -0.202806
     6  C   -0.202806
     7  H    0.202806
     8  H    0.202806
 Sum of Mulliken charges =  -0.00000
 Mulliken charges with hydrogens summed into heavy atoms:
               1
     1  C   -0.000000
     3  C   -0.000000
     5  C   -0.000000
     6  C   -0.000000
 APT charges:
               1
     1  C   -0.055868
     2  H    0.055868
     3  C   -0.055868
     4  H    0.055868
     5  C   -0.055868
     6  C   -0.055868
     7  H    0.055868
     8  H    0.055868
 Sum of APT charges =   0.00000
 APT charges with hydrogens summed into heavy atoms:
               1
     1  C    0.000000
     3  C    0.000000
     5  C    0.000000
     6  C    0.000000
 Electronic spatial extent (au):  <R**2>=            207.1032
 Charge=              0.0000 electrons
 Dipole moment (field-independent basis, Debye):
    X=             -0.0000    Y=              0.0000    Z=              0.0000  Tot=              0.0000
 Quadrupole moment (field-independent basis, Debye-Ang):
   XX=            -27.1629   YY=            -21.0572   ZZ=            -22.6632
   XY=              0.0000   XZ=             -0.0000   YZ=             -0.0000
 Traceless Quadrupole moment (field-independent basis, Debye-Ang):
   XX=             -3.5351   YY=              2.5706   ZZ=              0.9646
   XY=              0.0000   XZ=             -0.0000   YZ=             -0.0000
 Octapole moment (field-independent basis, Debye-Ang**2):
  XXX=              0.0000  YYY=              0.0000  ZZZ=              0.0000  XYY=              0.0000
  XXY=             -0.0000  XXZ=             -0.0000  XZZ=              0.0000  YZZ=             -0.0000
  YYZ=              0.0000  XYZ=             -0.0000
 Hexadecapole moment (field-independent basis, Debye-Ang**3):
 XXXX=            -34.6524 YYYY=           -110.9378 ZZZZ=           -143.4762 XXXY=             -0.0000
 XXXZ=              0.0000 YYYX=             -0.0000 YYYZ=             -0.0000 ZZZX=              0.0000
 ZZZY=              0.0000 XXYY=            -26.2415 XXZZ=            -35.8569 YYZZ=            -33.5427
 XXYZ=             -0.0000 YYXZ=              0.0000 ZZXY=             -0.0000
 N-N= 9.900210188942D+01 E-N=-5.567594659271D+02  KE= 1.539920883328D+02
 Symmetry AG   KE= 3.974708575749D+01
 Symmetry B1G  KE= 1.545815852728D-18
 Symmetry B2G  KE= 2.463643495421D+00
 Symmetry B3G  KE= 3.445164992062D+01
 Symmetry AU   KE= 6.558616910881D-20
 Symmetry B1U  KE= 3.802515764858D+01
 Symmetry B2U  KE= 3.736038075216D+01
 Symmetry B3U  KE= 1.944170758530D+00
  Exact polarizability:  33.858   0.000  52.422  -0.000   0.000  47.320
 Approx polarizability:  48.451   0.000  93.586  -0.000  -0.000  61.214
 No NMR shielding tensors so no spin-rotation constants.
 Leave Link  601 at Tue Jul 19 18:23:00 2016, MaxMem=    33554432 cpu:         0.4
 (Enter /home/proyectos/fulerenos/M3C-v2.0/M3C-deps_CCC/g09-AM64L-G09RevC.01/l701.exe)
 Compute integral second derivatives.
 ... and contract with generalized density number  0.
 Leave Link  701 at Tue Jul 19 18:23:01 2016, MaxMem=    33554432 cpu:         0.7
 (Enter /home/proyectos/fulerenos/M3C-v2.0/M3C-deps_CCC/g09-AM64L-G09RevC.01/l702.exe)
 L702 exits ... SP integral derivatives will be done elsewhere.
 Leave Link  702 at Tue Jul 19 18:23:01 2016, MaxMem=    33554432 cpu:         0.1
 (Enter /home/proyectos/fulerenos/M3C-v2.0/M3C-deps_CCC/g09-AM64L-G09RevC.01/l703.exe)
 Compute integral second derivatives, UseDBF=F ICtDFT=           0.
 Integral derivatives from FoFJK, PRISM(SPDF).
 Calling FoFJK, ICntrl=    100127 FMM=F ISym2X=1 I1Cent= 0 IOpClX= 0 NMat=1 NMatS=1 NMatT=0.
 FoFJK:  IHMeth= 1 ICntrl=  100127 DoSepK=F KAlg= 0 I1Cent=   0 FoldK=F
 IRaf=         0 NMat=   1 IRICut=       1 DoRegI=T DoRafI=F ISym2E= 1.
 FoFCou: FMM=F IPFlag=           0 FMFlag=      100000 FMFlg1=         800
         NFxFlg=           0 DoJE=F BraDBF=F KetDBF=F FulRan=T
         wScrn=  0.000000 ICntrl=  100127 IOpCl=  0 I1Cent=           0 NGrid=           0
         NMat0=    1 NMatS0=      1 NMatT0=    0 NMatD0=    1 NMtDS0=    0 NMtDT0=    0
 Petite list used in FoFCou.
 Leave Link  703 at Tue Jul 19 18:25:09 2016, MaxMem=    33554432 cpu:       127.7
 (Enter /home/proyectos/fulerenos/M3C-v2.0/M3C-deps_CCC/g09-AM64L-G09RevC.01/l716.exe)
 Dipole        =-2.33169368D-17-6.61293936D-14 5.42860028D-15
 Polarizability= 3.38575161D+01 1.24350727D-09 5.24221391D+01
                -2.68721429D-10 1.20541435D-08 4.73202509D+01
 Full mass-weighted force constant matrix:
 Low frequencies ---   -8.7601   -0.0012    0.0003    0.0005    2.8962   20.7358
 Low frequencies ---  534.3410  589.2284  603.2309
 Diagonal vibrational polarizability:
       10.7727458       1.2050183       0.1214231
 Harmonic frequencies (cm**-1), IR intensities (KM/Mole), Raman scattering
 activities (A**4/AMU), depolarization ratios for plane and unpolarized
 incident light, reduced masses (AMU), force constants (mDyne/A),
 and normal coordinates:
                      1                      2                      3
                     AU                     B3U                    B2G
 Frequencies --    534.3410               589.2284               603.2306
 Red. masses --      2.5195                 1.0848                 1.2998
 Frc consts  --      0.4238                 0.2219                 0.2787
 IR Inten    --      0.0000               138.9826                 0.0000
  Atom  AN      X      Y      Z        X      Y      Z        X      Y      Z
     1   6     0.19  -0.00  -0.00    -0.04   0.00  -0.00    -0.08  -0.00  -0.00
     2   1     0.46   0.00  -0.00     0.50  -0.00   0.00     0.49   0.00  -0.00
     3   6    -0.19  -0.00   0.00    -0.04  -0.00  -0.00     0.08  -0.00   0.00
     4   1    -0.46   0.00   0.00     0.50   0.00   0.00    -0.49   0.00   0.00
     5   6    -0.19   0.00  -0.00    -0.04   0.00   0.00    -0.08  -0.00   0.00
     6   6     0.19   0.00   0.00    -0.04  -0.00   0.00     0.08  -0.00  -0.00
     7   1     0.46  -0.00   0.00     0.50   0.00  -0.00    -0.49   0.00  -0.00
     8   1    -0.46  -0.00  -0.00     0.50  -0.00  -0.00     0.49   0.00   0.00
                      4                      5                      6
                     B2U                    B3G                    AU
 Frequencies --    700.5928               848.9363               882.6356
 Red. masses --      2.6168                 5.9245                 1.4735
 Frc consts  --      0.7567                 2.5157                 0.6763
 IR Inten    --      9.4494                 0.0000                 0.0000
  Atom  AN      X      Y      Z        X      Y      Z        X      Y      Z
     1   6    -0.00   0.02   0.19     0.00   0.24   0.24    -0.10  -0.00   0.00
     2   1     0.00  -0.20   0.42    -0.00   0.10   0.36     0.49  -0.00   0.00
     3   6     0.00   0.02  -0.19     0.00  -0.24   0.24     0.10  -0.00  -0.00
     4   1    -0.00  -0.20  -0.42    -0.00  -0.10   0.36    -0.49  -0.00  -0.00
     5   6    -0.00   0.02  -0.19     0.00   0.24  -0.24     0.10   0.00   0.00
     6   6     0.00   0.02   0.19     0.00  -0.24  -0.24    -0.10   0.00  -0.00
     7   1    -0.00  -0.20   0.42    -0.00  -0.10  -0.36     0.49   0.00  -0.00
     8   1     0.00  -0.20  -0.42    -0.00   0.10  -0.36    -0.49   0.00   0.00
                      7                      8                      9
                     B1G                    AG                     B1U
 Frequencies --    897.0126               953.9842              1062.4426
 Red. masses --      1.3551                 1.8409                 1.0934
 Frc consts  --      0.6424                 0.9871                 0.7272
 IR Inten    --      0.0000                 0.0000                 0.0834
  Atom  AN      X      Y      Z        X      Y      Z        X      Y      Z
     1   6    -0.09   0.00  -0.00     0.00  -0.01   0.14     0.00   0.04   0.03
     2   1     0.49   0.00   0.00    -0.00  -0.26   0.40    -0.00   0.38  -0.32
     3   6    -0.09  -0.00  -0.00    -0.00  -0.01  -0.14     0.00  -0.04   0.03
     4   1     0.49  -0.00   0.00     0.00  -0.26  -0.40    -0.00  -0.38  -0.32
     5   6     0.09  -0.00  -0.00    -0.00   0.01   0.14    -0.00  -0.04   0.03
     6   6     0.09   0.00  -0.00     0.00   0.01  -0.14    -0.00   0.04   0.03
     7   1    -0.49   0.00   0.00    -0.00   0.26  -0.40     0.00   0.38  -0.32
     8   1    -0.49  -0.00   0.00     0.00   0.26   0.40     0.00  -0.38  -0.32
                     10                     11                     12
                     AG                     B3G                    B2U
 Frequencies --   1112.7285              1194.7470              1266.0249
 Red. masses --      1.7559                 1.3572                 1.4400
 Frc consts  --      1.2809                 1.1414                 1.3598
 IR Inten    --      0.0000                 0.0000                39.1908
  Atom  AN      X      Y      Z        X      Y      Z        X      Y      Z
     1   6     0.00   0.02   0.13    -0.00  -0.05   0.08    -0.00  -0.03   0.09
     2   1    -0.00   0.42  -0.25     0.00   0.36  -0.34     0.00   0.38  -0.31
     3   6    -0.00   0.02  -0.13    -0.00   0.05   0.08     0.00  -0.03  -0.09
     4   1     0.00   0.42   0.25     0.00  -0.36  -0.34    -0.00   0.38   0.31
     5   6    -0.00  -0.02   0.13    -0.00  -0.05  -0.08    -0.00  -0.03  -0.09
     6   6     0.00  -0.02  -0.13    -0.00   0.05  -0.08     0.00  -0.03   0.09
     7   1    -0.00  -0.42   0.25     0.00  -0.36   0.34    -0.00   0.38  -0.31
     8   1     0.00  -0.42  -0.25     0.00   0.36   0.34     0.00   0.38   0.31
                     13                     14                     15
                     AG                     B1U                    B3G
 Frequencies --   1621.4659              1628.2859              3192.9694
 Red. masses --      6.8904                 5.4365                 1.0800
 Frc consts  --     10.6736                 8.4925                 6.4876
 IR Inten    --      0.0000                 7.8595                 0.0000
  Atom  AN      X      Y      Z        X      Y      Z        X      Y      Z
     1   6     0.00   0.36  -0.04     0.00   0.32  -0.03     0.00  -0.03  -0.03
     2   1     0.00   0.10   0.33    -0.00   0.01   0.39    -0.00   0.36   0.35
     3   6    -0.00   0.36   0.04     0.00  -0.32  -0.03     0.00   0.03  -0.03
     4   1    -0.00   0.10  -0.33    -0.00  -0.01   0.39    -0.00  -0.36   0.35
     5   6    -0.00  -0.36  -0.04    -0.00  -0.32  -0.03     0.00  -0.03   0.03
     6   6     0.00  -0.36   0.04    -0.00   0.32  -0.03     0.00   0.03   0.03
     7   1     0.00  -0.10  -0.33     0.00   0.01   0.39    -0.00  -0.36  -0.35
     8   1    -0.00  -0.10   0.33     0.00  -0.01   0.39    -0.00   0.36  -0.35
                     16                     17                     18
                     B2U                    B1U                    AG
 Frequencies --   3208.3220              3229.6578              3239.5283
 Red. masses --      1.0860                 1.1125                 1.1194
 Frc consts  --      6.5865                 6.8370                 6.9218
 IR Inten    --     11.0610                15.3725                 0.0000
  Atom  AN      X      Y      Z        X      Y      Z        X      Y      Z
     1   6    -0.00  -0.03  -0.03     0.00  -0.04  -0.03     0.00  -0.04  -0.03
     2   1     0.00   0.35   0.35    -0.00   0.36   0.35     0.00   0.35   0.35
     3   6     0.00  -0.03   0.03     0.00   0.04  -0.03    -0.00  -0.04   0.03
     4   1    -0.00   0.35  -0.35    -0.00  -0.36   0.35    -0.00   0.35  -0.35
     5   6    -0.00  -0.03   0.03    -0.00   0.04  -0.03    -0.00   0.04  -0.03
     6   6     0.00  -0.03  -0.03    -0.00  -0.04  -0.03     0.00   0.04   0.03
     7   1    -0.00   0.35   0.35     0.00   0.36   0.35     0.00  -0.35  -0.35
     8   1     0.00   0.35  -0.35     0.00  -0.36   0.35    -0.00  -0.35   0.35

 -------------------
 - Thermochemistry -
 -------------------
 Temperature   298.150 Kelvin.  Pressure   1.00000 Atm.
 Atom     1 has atomic number  6 and mass  12.00000
 Atom     2 has atomic number  1 and mass   1.00783
 Atom     3 has atomic number  6 and mass  12.00000
 Atom     4 has atomic number  1 and mass   1.00783
 Atom     5 has atomic number  6 and mass  12.00000
 Atom     6 has atomic number  6 and mass  12.00000
 Atom     7 has atomic number  1 and mass   1.00783
 Atom     8 has atomic number  1 and mass   1.00783
 Molecular mass:    52.03130 amu.
 Principal axes and moments of inertia in atomic units:
                           1         2         3
     Eigenvalues --   105.15386 140.71875 245.87261
           X            0.00000  -0.00000   1.00000
           Y            0.00000   1.00000   0.00000
           Z            1.00000  -0.00000  -0.00000
 This molecule is an asymmetric top.
 Rotational symmetry number  4.
 Rotational temperatures (Kelvin)      0.82369     0.61551     0.35227
 Rotational constants (GHZ):          17.16286    12.82517     7.34015
 Zero-point vibrational energy     160097.0 (Joules/Mol)
                                   38.26411 (Kcal/Mol)
 Warning -- explicit consideration of   3 degrees of freedom as
           vibrations may cause significant error
 Vibrational temperatures:    768.80   847.77   867.91  1008.00  1221.43
          (Kelvin)           1269.91  1290.60  1372.57  1528.62  1600.97
                             1718.97  1821.53  2332.92  2342.74  4593.97
                             4616.05  4646.75  4660.95
 
 Zero-point correction=                           0.060978 (Hartree/Particle)
 Thermal correction to Energy=                    0.064757
 Thermal correction to Enthalpy=                  0.065701
 Thermal correction to Gibbs Free Energy=         0.036994
 Sum of electronic and zero-point Energies=           -154.671010
 Sum of electronic and thermal Energies=              -154.667231
 Sum of electronic and thermal Enthalpies=            -154.666287
 Sum of electronic and thermal Free Energies=         -154.694994
 
                     E (Thermal)             CV                S
                      KCal/Mol        Cal/Mol-Kelvin    Cal/Mol-Kelvin
 Total                   40.636             13.129             60.419
 Electronic               0.000              0.000              0.000
 Translational            0.889              2.981             37.771
 Rotational               0.889              2.981             20.058
 Vibrational             38.858              7.167              2.590
 Vibration     1          0.889              1.174              0.578
 Vibration     2          0.947              1.055              0.469
 Vibration     3          0.962              1.025              0.444
                       Q            Log10(Q)             Ln(Q)
 Total Bot       0.963543D-17        -17.016129        -39.181084
 Total V=0       0.107553D+12         11.031624         25.401254
 Vib (Bot)       0.121001D-27        -27.917211        -64.281754
 Vib (Bot)    1  0.298090D+00         -0.525653         -1.210361
 Vib (Bot)    2  0.256219D+00         -0.591389         -1.361723
 Vib (Bot)    3  0.246711D+00         -0.607812         -1.399539
 Vib (V=0)       0.135065D+01          0.130542          0.300584
 Vib (V=0)    1  0.108211D+01          0.034273          0.078917
 Vib (V=0)    2  0.106183D+01          0.026053          0.059990
 Vib (V=0)    3  0.105755D+01          0.024302          0.055958
 Electronic      0.100000D+01          0.000000          0.000000
 Translational   0.147520D+08          7.168852         16.506892
 Rotational      0.539797D+04          3.732230          8.593777
 
                                                              b3lyp opt
                                                             IR Spectrum
 
    3333                                                            11             1  1  1 1                                         
    2221                                                            66             2  1  1 0   9 888     7  65  5                    
    4309                                                            22             6  9  1 6   5 984     0  08  3                    
    0083                                                            81             6  5  3 2   4 739     1  39  4                    
 
     XX                                                             X              X       X             X   X                       
     XX                                                                            X                         X                       
                                                                                   X                         X                       
                                                                                   X                         X                       
                                                                                   X                         X                       
                                                                                   X                         X                       
                                                                                                             X                       
                                                                                                             X                       
                                                                                                             X                       
                                                                                                             X                       
                                                                                                             X                       
                                                                                                             X                       
                                                                                                             X                       
                                                                                                             X                       
                                                                                                             X                       
                                                                                                             X                       
                                                                                                             X                       
                                                                                                             X                       
                                                                                                             X                       
                                                                                                             X                       
 
 ***** Axes restored to original set *****
 -------------------------------------------------------------------
 Center     Atomic                   Forces (Hartrees/Bohr)
 Number     Number              X              Y              Z
 -------------------------------------------------------------------
      1        6          -0.000000000   -0.000109086   -0.000108100
      2        1           0.000000000    0.000010688   -0.000044189
      3        6           0.000000000    0.000109086   -0.000108100
      4        1           0.000000000   -0.000010688   -0.000044189
      5        6           0.000000000   -0.000109086    0.000108100
      6        6          -0.000000000    0.000109086    0.000108100
      7        1          -0.000000000   -0.000010688    0.000044189
      8        1          -0.000000000    0.000010688    0.000044189
 -------------------------------------------------------------------
 Cartesian Forces:  Max     0.000109086 RMS     0.000065386
 Z-matrix is all fixed cartesians, so copy forces.
 Force constants in Cartesian coordinates: 
                1             2             3             4             5 
      1  0.904267D-01
      2  0.000000D+00  0.471749D+00
      3  0.000000D+00  0.170813D+00  0.845883D+00
      4 -0.277882D-01  0.000000D+00  0.000000D+00  0.170115D-01
      5  0.000000D+00 -0.203862D+00 -0.146468D+00  0.000000D+00  0.200478D+00
      6  0.000000D+00 -0.141700D+00 -0.203978D+00  0.000000D+00  0.159981D+00
      7 -0.332462D-01  0.000000D+00  0.000000D+00 -0.205826D-02  0.000000D+00
      8  0.000000D+00 -0.149960D+00  0.199198D-01  0.000000D+00  0.363808D-02
      9  0.000000D+00 -0.199198D-01 -0.411699D-01  0.000000D+00 -0.101710D-01
     10 -0.205826D-02  0.000000D+00  0.000000D+00  0.159372D-03  0.000000D+00
     11  0.000000D+00  0.363808D-02  0.101710D-01  0.000000D+00 -0.145064D-02
     12  0.000000D+00 -0.477487D-02  0.571318D-02  0.000000D+00 -0.283432D-03
     13 -0.641378D-01  0.000000D+00  0.000000D+00  0.113882D-01  0.000000D+00
     14  0.000000D+00 -0.238600D-01 -0.986422D-02  0.000000D+00  0.390529D-02
     15  0.000000D+00  0.986422D-02 -0.555403D+00  0.000000D+00  0.366611D-02
     16  0.191731D-01  0.000000D+00  0.000000D+00  0.624251D-02  0.000000D+00
     17  0.000000D+00 -0.974694D-01 -0.356854D-01  0.000000D+00 -0.414077D-02
     18  0.000000D+00 -0.356854D-01 -0.418088D-01  0.000000D+00 -0.522081D-02
     19  0.624251D-02  0.000000D+00  0.000000D+00  0.705610D-03  0.000000D+00
     20  0.000000D+00 -0.414077D-02 -0.522081D-02  0.000000D+00  0.488479D-03
     21  0.000000D+00 -0.431661D-03 -0.635655D-02  0.000000D+00 -0.128900D-02
     22  0.113882D-01  0.000000D+00  0.000000D+00 -0.566076D-02  0.000000D+00
     23  0.000000D+00  0.390529D-02 -0.366611D-02  0.000000D+00  0.943534D-03
     24  0.000000D+00  0.218342D-01 -0.288027D-02  0.000000D+00 -0.215378D-03
                6             7             8             9            10 
      6  0.205775D+00
      7  0.000000D+00  0.904267D-01
      8  0.477487D-02  0.000000D+00  0.471749D+00
      9  0.571318D-02  0.000000D+00 -0.170813D+00  0.845883D+00
     10  0.000000D+00 -0.277882D-01  0.000000D+00  0.000000D+00  0.170115D-01
     11  0.283432D-03  0.000000D+00 -0.203862D+00  0.146468D+00  0.000000D+00
     12 -0.516872D-04  0.000000D+00  0.141700D+00 -0.203978D+00  0.000000D+00
     13  0.000000D+00  0.191731D-01  0.000000D+00  0.000000D+00  0.624251D-02
     14 -0.218342D-01  0.000000D+00 -0.974694D-01  0.356854D-01  0.000000D+00
     15 -0.288027D-02  0.000000D+00  0.356854D-01 -0.418088D-01  0.000000D+00
     16  0.000000D+00 -0.641378D-01  0.000000D+00  0.000000D+00  0.113882D-01
     17 -0.431661D-03  0.000000D+00 -0.238600D-01  0.986422D-02  0.000000D+00
     18 -0.635655D-02  0.000000D+00 -0.986422D-02 -0.555403D+00  0.000000D+00
     19  0.000000D+00  0.113882D-01  0.000000D+00  0.000000D+00 -0.566076D-02
     20 -0.128900D-02  0.000000D+00  0.390529D-02  0.366611D-02  0.000000D+00
     21  0.150849D-02  0.000000D+00 -0.218342D-01 -0.288027D-02  0.000000D+00
     22  0.000000D+00  0.624251D-02  0.000000D+00  0.000000D+00  0.705610D-03
     23  0.215378D-03  0.000000D+00 -0.414077D-02  0.522081D-02  0.000000D+00
     24  0.269940D-03  0.000000D+00  0.431661D-03 -0.635655D-02  0.000000D+00
               11            12            13            14            15 
     11  0.200478D+00
     12 -0.159981D+00  0.205775D+00
     13  0.000000D+00  0.000000D+00  0.904267D-01
     14 -0.414077D-02  0.431661D-03  0.000000D+00  0.471749D+00
     15  0.522081D-02 -0.635655D-02  0.000000D+00 -0.170813D+00  0.845883D+00
     16  0.000000D+00  0.000000D+00 -0.332462D-01  0.000000D+00  0.000000D+00
     17  0.390529D-02  0.218342D-01  0.000000D+00 -0.149960D+00 -0.199198D-01
     18 -0.366611D-02 -0.288027D-02  0.000000D+00  0.199198D-01 -0.411699D-01
     19  0.000000D+00  0.000000D+00 -0.205826D-02  0.000000D+00  0.000000D+00
     20  0.943534D-03 -0.215378D-03  0.000000D+00  0.363808D-02 -0.101710D-01
     21  0.215378D-03  0.269940D-03  0.000000D+00  0.477487D-02  0.571318D-02
     22  0.000000D+00  0.000000D+00 -0.277882D-01  0.000000D+00  0.000000D+00
     23  0.488479D-03  0.128900D-02  0.000000D+00 -0.203862D+00  0.146468D+00
     24  0.128900D-02  0.150849D-02  0.000000D+00  0.141700D+00 -0.203978D+00
               16            17            18            19            20 
     16  0.904267D-01
     17  0.000000D+00  0.471749D+00
     18  0.000000D+00  0.170813D+00  0.845883D+00
     19 -0.277882D-01  0.000000D+00  0.000000D+00  0.170115D-01
     20  0.000000D+00 -0.203862D+00 -0.146468D+00  0.000000D+00  0.200478D+00
     21  0.000000D+00 -0.141700D+00 -0.203978D+00  0.000000D+00  0.159981D+00
     22 -0.205826D-02  0.000000D+00  0.000000D+00  0.159372D-03  0.000000D+00
     23  0.000000D+00  0.363808D-02  0.101710D-01  0.000000D+00 -0.145064D-02
     24  0.000000D+00 -0.477487D-02  0.571318D-02  0.000000D+00 -0.283432D-03
               21            22            23            24 
     21  0.205775D+00
     22  0.000000D+00  0.170115D-01
     23  0.283432D-03  0.000000D+00  0.200478D+00
     24 -0.516872D-04  0.000000D+00 -0.159981D+00  0.205775D+00
 Leave Link  716 at Tue Jul 19 18:25:10 2016, MaxMem=    33554432 cpu:         0.1
 (Enter /home/proyectos/fulerenos/M3C-v2.0/M3C-deps_CCC/g09-AM64L-G09RevC.01/l103.exe)

 GradGradGradGradGradGradGradGradGradGradGradGradGradGradGradGradGradGrad
 Berny optimization.
 Search for a local minimum.
 Step number   1 out of a maximum of    2
 All quantities printed in internal units (Hartrees-Bohrs-Radians)
 Second derivative matrix not updated -- analytic derivatives used.
 ITU=  0
     Eigenvalues ---    0.01817   0.02077   0.03842   0.04035   0.04230
     Eigenvalues ---    0.05270   0.10404   0.13522   0.19093   0.20693
     Eigenvalues ---    0.21203   0.27777   0.41414   0.73351   0.78611
     Eigenvalues ---    0.85765   1.48162   1.52278
 Angle between quadratic step and forces=  60.13 degrees.
 ClnCor:  largest displacement from symmetrization is 4.77D-13 for atom     7.
 Linear search not attempted -- first point.
 ClnCor:  largest displacement from symmetrization is 2.47D-32 for atom     2.
 B after Tr=     0.000000    0.000000   -0.000000
         Rot=    1.000000    0.000000    0.000000    0.000000 Ang=   0.00 deg.
 Variable       Old X    -DE/DX   Delta X   Delta X   Delta X     New X
                                 (Linear)    (Quad)   (Total)
    X1        0.00000  -0.00000   0.00000  -0.00000   0.00000   0.00000
    Y1        1.48752  -0.00011   0.00000  -0.00021  -0.00021   1.48731
    Z1        1.25608  -0.00011   0.00000  -0.00012  -0.00012   1.25597
    X2        0.00000   0.00000   0.00000   0.00000   0.00000   0.00000
    Y2        2.92576   0.00001   0.00000   0.00042   0.00042   2.92618
    Z2        2.70134  -0.00004   0.00000  -0.00082  -0.00082   2.70052
    X3       -0.00000   0.00000   0.00000   0.00000   0.00000  -0.00000
    Y3       -1.48752   0.00011   0.00000   0.00021   0.00021  -1.48731
    Z3        1.25608  -0.00011   0.00000  -0.00012  -0.00012   1.25597
    X4       -0.00000   0.00000   0.00000  -0.00000  -0.00000  -0.00000
    Y4       -2.92576  -0.00001   0.00000  -0.00042  -0.00042  -2.92618
    Z4        2.70134  -0.00004   0.00000  -0.00082  -0.00082   2.70052
    X5        0.00000   0.00000   0.00000  -0.00000   0.00000   0.00000
    Y5        1.48752  -0.00011   0.00000  -0.00021  -0.00021   1.48731
    Z5       -1.25615   0.00011   0.00000   0.00012   0.00012  -1.25603
    X6        0.00000  -0.00000   0.00000  -0.00000   0.00000   0.00000
    Y6       -1.48752   0.00011   0.00000   0.00021   0.00021  -1.48731
    Z6       -1.25615   0.00011   0.00000   0.00012   0.00012  -1.25603
    X7        0.00000  -0.00000   0.00000  -0.00000  -0.00000   0.00000
    Y7       -2.92576  -0.00001   0.00000  -0.00042  -0.00042  -2.92618
    Z7       -2.70141   0.00004   0.00000   0.00082   0.00082  -2.70058
    X8        0.00000  -0.00000   0.00000  -0.00000  -0.00000   0.00000
    Y8        2.92576   0.00001   0.00000   0.00042   0.00042   2.92618
    Z8       -2.70141   0.00004   0.00000   0.00082   0.00082  -2.70058
         Item               Value     Threshold  Converged?
 Maximum Force            0.000109     0.000450     YES
 RMS     Force            0.000065     0.000300     YES
 Maximum Displacement     0.000823     0.001800     YES
 RMS     Displacement     0.000389     0.001200     YES
 Predicted change in Energy=-1.518335D-07
 Optimization completed.
    -- Stationary point found.
 GradGradGradGradGradGradGradGradGradGradGradGradGradGradGradGradGradGrad

 Leave Link  103 at Tue Jul 19 18:25:10 2016, MaxMem=    33554432 cpu:         0.0
 (Enter /home/proyectos/fulerenos/M3C-v2.0/M3C-deps_CCC/g09-AM64L-G09RevC.01/l9999.exe)
 1\1\GINC-CALIFORNIO\Freq\RB3LYP\6-311++G(3df,2p)\C4H4\ROOT\19-Jul-2016
 \0\\#p b3lyp/6-311++G(3df,2p) freq symmetry=Loose\\b3lyp opt\\0,1\C,0.
 ,0.787162,0.664691423\H,0.,1.5482475,1.429489923\C,0.,-0.787162,0.6646
 91423\H,0.,-1.5482475,1.429489923\C,0.,0.787162,-0.664724577\C,0.,-0.7
 87162,-0.664724577\H,0.,-1.5482475,-1.429523077\H,0.,1.5482475,-1.4295
 23077\\Version=EM64L-G09RevE.01\State=1-AG\HF=-154.7319878\RMSD=5.450e
 -09\RMSF=6.539e-05\ZeroPoint=0.0609777\Thermal=0.0647568\Dipole=0.,0.,
 0.\DipoleDeriv=-0.1820352,0.,0.,0.,0.0537148,0.0860255,0.,-0.0936499,-
 0.0392845,0.1820353,0.,0.,0.,-0.0537148,-0.1146092,0.,-0.0464933,0.039
 2845,-0.1820353,0.,0.,0.,0.0537148,-0.0860255,0.,0.0936499,-0.0392845,
 0.1820353,0.,0.,0.,-0.0537148,0.1146092,0.,0.0464933,0.0392845,-0.1820
 353,0.,0.,0.,0.0537148,-0.0860255,0.,0.0936499,-0.0392845,-0.1820352,0
 .,0.,0.,0.0537148,0.0860255,0.,-0.0936499,-0.0392845,0.1820353,0.,0.,0
 .,-0.0537148,-0.1146092,0.,-0.0464933,0.0392845,0.1820353,0.,0.,0.,-0.
 0537148,0.1146092,0.,0.0464933,0.0392845\Polar=33.8575161,0.,47.320250
 9,0.,0.,52.4221391\PG=D02H [SG(C4H4)]\NImag=0\\0.09042670,0.,0.4717488
 4,0.,0.17081322,0.84588279,-0.02778819,0.,0.,0.01701154,0.,-0.20386238
 ,-0.14646754,0.,0.20047839,0.,-0.14169988,-0.20397790,0.,0.15998107,0.
 20577479,-0.03324619,0.,0.,-0.00205826,0.,0.,0.09042670,0.,-0.14995966
 ,0.01991984,0.,0.00363808,0.00477487,0.,0.47174884,0.,-0.01991984,-0.0
 4116989,0.,-0.01017102,0.00571318,0.,-0.17081322,0.84588279,-0.0020582
 6,0.,0.,0.00015937,0.,0.,-0.02778819,0.,0.,0.01701154,0.,0.00363808,0.
 01017102,0.,-0.00145064,0.00028343,0.,-0.20386238,0.14646754,0.,0.2004
 7839,0.,-0.00477487,0.00571318,0.,-0.00028343,-0.00005169,0.,0.1416998
 8,-0.20397790,0.,-0.15998107,0.20577479,-0.06413783,0.,0.,0.01138819,0
 .,0.,0.01917308,0.,0.,0.00624251,0.,0.,0.09042670,0.,-0.02386002,-0.00
 986422,0.,0.00390529,-0.02183421,0.,-0.09746938,0.03568541,0.,-0.00414
 077,0.00043166,0.,0.47174884,0.,0.00986422,-0.55540253,0.,0.00366611,-
 0.00288027,0.,0.03568541,-0.04180884,0.,0.00522081,-0.00635655,0.,-0.1
 7081322,0.84588279,0.01917308,0.,0.,0.00624251,0.,0.,-0.06413783,0.,0.
 ,0.01138819,0.,0.,-0.03324619,0.,0.,0.09042670,0.,-0.09746938,-0.03568
 541,0.,-0.00414077,-0.00043166,0.,-0.02386002,0.00986422,0.,0.00390529
 ,0.02183421,0.,-0.14995966,-0.01991984,0.,0.47174884,0.,-0.03568541,-0
 .04180884,0.,-0.00522081,-0.00635655,0.,-0.00986422,-0.55540253,0.,-0.
 00366611,-0.00288027,0.,0.01991984,-0.04116989,0.,0.17081322,0.8458827
 9,0.00624251,0.,0.,0.00070561,0.,0.,0.01138819,0.,0.,-0.00566076,0.,0.
 ,-0.00205826,0.,0.,-0.02778819,0.,0.,0.01701154,0.,-0.00414077,-0.0052
 2081,0.,0.00048848,-0.00128900,0.,0.00390529,0.00366611,0.,0.00094353,
 -0.00021538,0.,0.00363808,-0.01017102,0.,-0.20386238,-0.14646754,0.,0.
 20047839,0.,-0.00043166,-0.00635655,0.,-0.00128900,0.00150849,0.,-0.02
 183421,-0.00288027,0.,0.00021538,0.00026994,0.,0.00477487,0.00571318,0
 .,-0.14169988,-0.20397790,0.,0.15998107,0.20577479,0.01138819,0.,0.,-0
 .00566076,0.,0.,0.00624251,0.,0.,0.00070561,0.,0.,-0.02778819,0.,0.,-0
 .00205826,0.,0.,0.00015937,0.,0.,0.01701154,0.,0.00390529,-0.00366611,
 0.,0.00094353,0.00021538,0.,-0.00414077,0.00522081,0.,0.00048848,0.001
 28900,0.,-0.20386238,0.14646754,0.,0.00363808,0.01017102,0.,-0.0014506
 4,0.00028343,0.,0.20047839,0.,0.02183421,-0.00288027,0.,-0.00021538,0.
 00026994,0.,0.00043166,-0.00635655,0.,0.00128900,0.00150849,0.,0.14169
 988,-0.20397790,0.,-0.00477487,0.00571318,0.,-0.00028343,-0.00005169,0
 .,-0.15998107,0.20577479\\0.,0.00010909,0.00010810,0.,-0.00001069,0.00
 004419,0.,-0.00010909,0.00010810,0.,0.00001069,0.00004419,0.,0.0001090
 9,-0.00010810,0.,-0.00010909,-0.00010810,0.,0.00001069,-0.00004419,0.,
 -0.00001069,-0.00004419\\\@


 ROSE IS A RED
 TY COBB IS BLUE
 'CAUSE PETE JUST HIT
 NO. 4592.
 Job cpu time:       0 days  0 hours 12 minutes 10.0 seconds.
 File lengths (MBytes):  RWF=     22 Int=      0 D2E=      0 Chk=      3 Scr=      1
 Normal termination of Gaussian 09 at Tue Jul 19 18:25:10 2016.
