 Entering Gaussian System, Link 0=/home/proyectos/fulerenos/M3C-v1.9/M3C-deps_CCC/g09-AM64L-G09RevC.01/g09
 Initial command:
 /home/proyectos/fulerenos/M3C-v1.9/M3C-deps_CCC/g09-AM64L-G09RevC.01/l1.exe "/scratch/naguirre/gaussian/Gau-3547.inp" -scrdir="/scratch/naguirre/gaussian/"
 Entering Link 1 = /home/proyectos/fulerenos/M3C-v1.9/M3C-deps_CCC/g09-AM64L-G09RevC.01/l1.exe PID=      3553.
  
 Copyright (c) 1988,1990,1992,1993,1995,1998,2003,2009,2015,
            Gaussian, Inc.  All Rights Reserved.
  
 This is part of the Gaussian(R) 09 program.  It is based on
 the Gaussian(R) 03 system (copyright 2003, Gaussian, Inc.),
 the Gaussian(R) 98 system (copyright 1998, Gaussian, Inc.),
 the Gaussian(R) 94 system (copyright 1995, Gaussian, Inc.),
 the Gaussian 92(TM) system (copyright 1992, Gaussian, Inc.),
 the Gaussian 90(TM) system (copyright 1990, Gaussian, Inc.),
 the Gaussian 88(TM) system (copyright 1988, Gaussian, Inc.),
 the Gaussian 86(TM) system (copyright 1986, Carnegie Mellon
 University), and the Gaussian 82(TM) system (copyright 1983,
 Carnegie Mellon University). Gaussian is a federally registered
 trademark of Gaussian, Inc.
  
 This software contains proprietary and confidential information,
 including trade secrets, belonging to Gaussian, Inc.
  
 This software is provided under written license and may be
 used, copied, transmitted, or stored only in accord with that
 written license.
  
 The following legend is applicable only to US Government
 contracts under FAR:
  
                    RESTRICTED RIGHTS LEGEND
  
 Use, reproduction and disclosure by the US Government is
 subject to restrictions as set forth in subparagraphs (a)
 and (c) of the Commercial Computer Software - Restricted
 Rights clause in FAR 52.227-19.
  
 Gaussian, Inc.
 340 Quinnipiac St., Bldg. 40, Wallingford CT 06492
  
  
 ---------------------------------------------------------------
 Warning -- This program may not be used in any manner that
 competes with the business of Gaussian, Inc. or will provide
 assistance to any competitor of Gaussian, Inc.  The licensee
 of this program is prohibited from giving any competitor of
 Gaussian, Inc. access to this program.  By using this program,
 the user acknowledges that Gaussian, Inc. is engaged in the
 business of creating and licensing software in the field of
 computational chemistry and represents and warrants to the
 licensee that it is not a competitor of Gaussian, Inc. and that
 it will not use this program in any manner prohibited above.
 ---------------------------------------------------------------
  

 Cite this work as:
 Gaussian 09, Revision E.01,
 M. J. Frisch, G. W. Trucks, H. B. Schlegel, G. E. Scuseria, 
 M. A. Robb, J. R. Cheeseman, G. Scalmani, V. Barone, B. Mennucci, 
 G. A. Petersson, H. Nakatsuji, M. Caricato, X. Li, H. P. Hratchian, 
 A. F. Izmaylov, J. Bloino, G. Zheng, J. L. Sonnenberg, M. Hada, 
 M. Ehara, K. Toyota, R. Fukuda, J. Hasegawa, M. Ishida, T. Nakajima, 
 Y. Honda, O. Kitao, H. Nakai, T. Vreven, J. A. Montgomery, Jr., 
 J. E. Peralta, F. Ogliaro, M. Bearpark, J. J. Heyd, E. Brothers, 
 K. N. Kudin, V. N. Staroverov, T. Keith, R. Kobayashi, J. Normand, 
 K. Raghavachari, A. Rendell, J. C. Burant, S. S. Iyengar, J. Tomasi, 
 M. Cossi, N. Rega, J. M. Millam, M. Klene, J. E. Knox, J. B. Cross, 
 V. Bakken, C. Adamo, J. Jaramillo, R. Gomperts, R. E. Stratmann, 
 O. Yazyev, A. J. Austin, R. Cammi, C. Pomelli, J. W. Ochterski, 
 R. L. Martin, K. Morokuma, V. G. Zakrzewski, G. A. Voth, 
 P. Salvador, J. J. Dannenberg, S. Dapprich, A. D. Daniels, 
 O. Farkas, J. B. Foresman, J. V. Ortiz, J. Cioslowski, 
 and D. J. Fox, Gaussian, Inc., Wallingford CT, 2013.
 
 ******************************************
 Gaussian 09:  EM64L-G09RevE.01 30-Nov-2015
                22-Jun-2016 
 ******************************************
 %NProcShared=4
 Will use up to    4 processors via shared memory.
 ---------------------------------------------
 #p b3lyp/6-311++G(3df,2p) freq symmetry=Loose
 ---------------------------------------------
 1/10=4,30=1,38=1/1,3;
 2/12=2,17=4,18=3,40=1/2;
 3/5=4,6=6,7=1216,11=2,16=1,25=1,30=1,71=2,74=-5,140=1/1,2,3;
 4//1;
 5/5=2,38=5,98=1/2;
 8/6=4,10=90,11=11/1;
 11/6=1,8=1,9=11,15=111,16=1/1,2,10;
 10/6=1/2;
 6/7=2,8=2,9=2,10=2,18=1,28=1/1;
 7/8=1,10=1,25=1/1,2,3,16;
 1/10=4,30=1/3;
 99//99;
 Leave Link    1 at Wed Jun 22 00:45:19 2016, MaxMem=           0 cpu:         0.2
 (Enter /home/proyectos/fulerenos/M3C-v1.9/M3C-deps_CCC/g09-AM64L-G09RevC.01/l101.exe)
 ---------
 b3lyp opt
 ---------
 Symbolic Z-matrix:
 Charge =  3 Multiplicity = 4
 C                    -0.57394  -0.45033  -0.00079 
 C                     2.02058   0.18696   0.00012 
 H                    -0.70801  -1.59134  -0.00031 
 C                     0.74048  -0.04845  -0.00195 
 H                     3.12443   0.39328   0.00056 
 C                    -1.73294   0.27756  -0.00079 
 H                    -2.19994   1.4016    0.00173 
 H                    -2.94166  -0.00501  -0.00136 
 
 NAtoms=      8 NQM=        8 NQMF=       0 NMMI=      0 NMMIF=      0
                NMic=       0 NMicF=      0.
                    Isotopes and Nuclear Properties:
 (Nuclear quadrupole moments (NQMom) in fm**2, nuclear magnetic moments (NMagM)
  in nuclear magnetons)

  Atom         1           2           3           4           5           6           7           8
 IAtWgt=          12          12           1          12           1          12           1           1
 AtmWgt=  12.0000000  12.0000000   1.0078250  12.0000000   1.0078250  12.0000000   1.0078250   1.0078250
 NucSpn=           0           0           1           0           1           0           1           1
 AtZEff=   0.0000000   0.0000000   0.0000000   0.0000000   0.0000000   0.0000000   0.0000000   0.0000000
 NQMom=    0.0000000   0.0000000   0.0000000   0.0000000   0.0000000   0.0000000   0.0000000   0.0000000
 NMagM=    0.0000000   0.0000000   2.7928460   0.0000000   2.7928460   0.0000000   2.7928460   2.7928460
 AtZNuc=   6.0000000   6.0000000   1.0000000   6.0000000   1.0000000   6.0000000   1.0000000   1.0000000
 Leave Link  101 at Wed Jun 22 00:45:19 2016, MaxMem=    33554432 cpu:         0.3
 (Enter /home/proyectos/fulerenos/M3C-v1.9/M3C-deps_CCC/g09-AM64L-G09RevC.01/l103.exe)

 GradGradGradGradGradGradGradGradGradGradGradGradGradGradGradGradGradGrad
 Berny optimization.
 Initialization pass.
 Trust Radius=3.00D-01 FncErr=1.00D-07 GrdErr=1.00D-07
 Number of steps in this run=      2 maximum allowed number of steps=      2.
 GradGradGradGradGradGradGradGradGradGradGradGradGradGradGradGradGradGrad

 Leave Link  103 at Wed Jun 22 00:45:19 2016, MaxMem=    33554432 cpu:         0.1
 (Enter /home/proyectos/fulerenos/M3C-v1.9/M3C-deps_CCC/g09-AM64L-G09RevC.01/l202.exe)
                          Input orientation:                          
 ---------------------------------------------------------------------
 Center     Atomic      Atomic             Coordinates (Angstroms)
 Number     Number       Type             X           Y           Z
 ---------------------------------------------------------------------
      1          6           0       -0.573942   -0.450334   -0.000785
      2          6           0        2.020576    0.186955    0.000118
      3          1           0       -0.708012   -1.591342   -0.000312
      4          6           0        0.740480   -0.048451   -0.001954
      5          1           0        3.124428    0.393275    0.000563
      6          6           0       -1.732938    0.277562   -0.000789
      7          1           0       -2.199941    1.401604    0.001725
      8          1           0       -2.941661   -0.005010   -0.001360
 ---------------------------------------------------------------------
                    Distance matrix (angstroms):
                    1          2          3          4          5
     1  C    0.000000
     2  C    2.671640   0.000000
     3  H    1.148858   3.256921   0.000000
     4  C    1.374488   1.301563   2.116281   0.000000
     5  H    3.793365   1.122968   4.315820   2.424528   0.000000
     6  C    1.368614   3.754608   2.131496   2.494811   4.858744
     7  H    2.464458   4.391826   3.344186   3.278528   5.419007
     8  H    2.409234   4.965949   2.739642   3.682397   6.079150
                    6          7          8
     6  C    0.000000
     7  H    1.217197   0.000000
     8  H    1.241313   1.590195   0.000000
 Stoichiometry    C4H4(3+,4)
 Framework group  C1[X(C4H4)]
 Deg. of freedom    18
 Full point group                 C1      NOp   1
 Largest Abelian subgroup         C1      NOp   1
 Largest concise Abelian subgroup C1      NOp   1
                         Standard orientation:                         
 ---------------------------------------------------------------------
 Center     Atomic      Atomic             Coordinates (Angstroms)
 Number     Number       Type             X           Y           Z
 ---------------------------------------------------------------------
      1          6           0        0.573957    0.450056    0.000290
      2          6           0       -2.020589   -0.187120    0.000529
      3          1           0        0.708077    1.591058    0.001582
      4          6           0       -0.740482    0.048231   -0.001272
      5          1           0       -3.124450   -0.393393    0.000738
      6          6           0        1.732921   -0.277890   -0.000136
      7          1           0        2.199875   -1.401954    0.001620
      8          1           0        2.941657    0.004629   -0.000408
 ---------------------------------------------------------------------
 Rotational constants (GHZ):     59.5397786      4.2337586      3.9526923
 Leave Link  202 at Wed Jun 22 00:45:19 2016, MaxMem=    33554432 cpu:         0.0
 (Enter /home/proyectos/fulerenos/M3C-v1.9/M3C-deps_CCC/g09-AM64L-G09RevC.01/l301.exe)
 Standard basis: 6-311++G(3df,2p) (5D, 7F)
 Ernie: Thresh=  0.10000D-02 Tol=  0.10000D-05 Strict=F.
 There are   220 symmetry adapted cartesian basis functions of A   symmetry.
 There are   196 symmetry adapted basis functions of A   symmetry.
   196 basis functions,   280 primitive gaussians,   220 cartesian basis functions
    14 alpha electrons       11 beta electrons
       nuclear repulsion energy        86.5693216207 Hartrees.
 IExCor=  402 DFT=T Ex+Corr=B3LYP ExCW=0 ScaHFX=  0.200000
 ScaDFX=  0.800000  0.720000  1.000000  0.810000 ScalE2=  1.000000  1.000000
 IRadAn=      0 IRanWt=     -1 IRanGd=            0 ICorTp=0 IEmpDi=  4
 NAtoms=    8 NActive=    8 NUniq=    8 SFac= 1.00D+00 NAtFMM=   60 NAOKFM=F Big=F
 Integral buffers will be    131072 words long.
 Raffenetti 2 integral format.
 Two-electron integral symmetry is turned on.
 Leave Link  301 at Wed Jun 22 00:45:20 2016, MaxMem=    33554432 cpu:         0.3
 (Enter /home/proyectos/fulerenos/M3C-v1.9/M3C-deps_CCC/g09-AM64L-G09RevC.01/l302.exe)
 NPDir=0 NMtPBC=     1 NCelOv=     1 NCel=       1 NClECP=     1 NCelD=      1
         NCelK=      1 NCelE2=     1 NClLst=     1 CellRange=     0.0.
 One-electron integrals computed using PRISM.
 NBasis=   196 RedAO= T EigKep=  1.48D-06  NBF=   196
 NBsUse=   196 1.00D-06 EigRej= -1.00D+00 NBFU=   196
 Precomputing XC quadrature grid using
 IXCGrd= 4 IRadAn=           0 IRanWt=          -1 IRanGd=           0 AccXCQ= 0.00D+00.
 Generated NRdTot=       0 NPtTot=           0 NUsed=           0 NTot=          32
 NSgBfM=   220   220   220   220   220 MxSgAt=     8 MxSgA2=     8.
 Leave Link  302 at Wed Jun 22 00:45:20 2016, MaxMem=    33554432 cpu:         1.6
 (Enter /home/proyectos/fulerenos/M3C-v1.9/M3C-deps_CCC/g09-AM64L-G09RevC.01/l303.exe)
 DipDrv:  MaxL=1.
 Leave Link  303 at Wed Jun 22 00:45:20 2016, MaxMem=    33554432 cpu:         0.2
 (Enter /home/proyectos/fulerenos/M3C-v1.9/M3C-deps_CCC/g09-AM64L-G09RevC.01/l401.exe)
 ExpMin= 3.60D-02 ExpMax= 4.56D+03 ExpMxC= 6.82D+02 IAcc=3 IRadAn=         5 AccDes= 0.00D+00
 Harris functional with IExCor=  402 and IRadAn=       5 diagonalized for initial guess.
 HarFok:  IExCor=  402 AccDes= 0.00D+00 IRadAn=         5 IDoV= 1 UseB2=F ITyADJ=14
 ICtDFT=  3500011 ScaDFX=  1.000000  1.000000  1.000000  1.000000
 FoFCou: FMM=F IPFlag=           0 FMFlag=      100000 FMFlg1=           0
         NFxFlg=           0 DoJE=T BraDBF=F KetDBF=T FulRan=T
         wScrn=  0.000000 ICntrl=     500 IOpCl=  0 I1Cent=   200000004 NGrid=           0
         NMat0=    1 NMatS0=      1 NMatT0=    0 NMatD0=    1 NMtDS0=    0 NMtDT0=    0
 Petite list used in FoFCou.
 Harris En= -153.717902062451    
 JPrj=0 DoOrth=F DoCkMO=F.
 Initial guess <Sx>= 0.0000 <Sy>= 0.0000 <Sz>= 1.5000 <S**2>= 3.7500 S= 1.5000
 Leave Link  401 at Wed Jun 22 00:45:24 2016, MaxMem=    33554432 cpu:        12.4
 (Enter /home/proyectos/fulerenos/M3C-v1.9/M3C-deps_CCC/g09-AM64L-G09RevC.01/l502.exe)
 UHF open shell SCF:
 Using DIIS extrapolation, IDIIS=  1040.
 Integral symmetry usage will be decided dynamically.
 IVT=      166662 IEndB=      166662 NGot=    33554432 MDV=    33453031
 LenX=    33453031 LenY=    33404190
 Requested convergence on RMS density matrix=1.00D-08 within 128 cycles.
 Requested convergence on MAX density matrix=1.00D-06.
 Requested convergence on             energy=1.00D-06.
 No special actions if energy rises.
 Fock matrices will be formed incrementally for  20 cycles.

 Cycle   1  Pass 1  IDiag  1:
 FoFJK:  IHMeth= 1 ICntrl=       0 DoSepK=F KAlg= 0 I1Cent=   0 FoldK=F
 IRaf= 970000000 NMat=   1 IRICut=       1 DoRegI=T DoRafI=F ISym2E= 0.
 FoFCou: FMM=F IPFlag=           0 FMFlag=      100000 FMFlg1=           0
         NFxFlg=           0 DoJE=F BraDBF=F KetDBF=F FulRan=T
         wScrn=  0.000000 ICntrl=       0 IOpCl=  1 I1Cent=           0 NGrid=           0
         NMat0=    1 NMatS0=      1 NMatT0=    0 NMatD0=    1 NMtDS0=    0 NMtDT0=    0
 Symmetry not used in FoFCou.
 E= -152.860224691802    
 DIIS: error= 2.00D-02 at cycle   1 NSaved=   1.
 NSaved= 1 IEnMin= 1 EnMin= -152.860224691802     IErMin= 1 ErrMin= 2.00D-02
 ErrMax= 2.00D-02  0.00D+00 EMaxC= 1.00D-01 BMatC= 1.70D-01 BMatP= 1.70D-01
 IDIUse=3 WtCom= 8.00D-01 WtEn= 2.00D-01
 Coeff-Com:  0.100D+01
 Coeff-En:   0.100D+01
 Coeff:      0.100D+01
 Gap=     0.206 Goal=   None    Shift=    0.000
 Gap=     0.078 Goal=   None    Shift=    0.000
 GapD=    0.078 DampG=0.500 DampE=0.500 DampFc=0.2500 IDamp=-1.
 Damping current iteration by 2.50D-01
 RMSDP=7.27D-03 MaxDP=5.00D-01              OVMax= 1.86D-01

 Cycle   2  Pass 1  IDiag  1:
 RMSU=  1.40D-03    CP:  1.05D+00
 E= -152.877669685062     Delta-E=       -0.017444993260 Rises=F Damp=T
 DIIS: error= 1.18D-02 at cycle   2 NSaved=   2.
 NSaved= 2 IEnMin= 2 EnMin= -152.877669685062     IErMin= 2 ErrMin= 1.18D-02
 ErrMax= 1.18D-02  0.00D+00 EMaxC= 1.00D-01 BMatC= 6.43D-02 BMatP= 1.70D-01
 IDIUse=3 WtCom= 8.82D-01 WtEn= 1.18D-01
 Coeff-Com: -0.934D+00 0.193D+01
 Coeff-En:   0.000D+00 0.100D+01
 Coeff:     -0.824D+00 0.182D+01
 Gap=     0.198 Goal=   None    Shift=    0.000
 Gap=     0.114 Goal=   None    Shift=    0.000
 RMSDP=4.13D-03 MaxDP=3.17D-01 DE=-1.74D-02 OVMax= 1.43D-01

 Cycle   3  Pass 1  IDiag  1:
 RMSU=  2.22D-03    CP:  1.12D+00  3.00D+00
 E= -152.914303270320     Delta-E=       -0.036633585258 Rises=F Damp=F
 DIIS: error= 8.58D-03 at cycle   3 NSaved=   3.
 NSaved= 3 IEnMin= 3 EnMin= -152.914303270320     IErMin= 3 ErrMin= 8.58D-03
 ErrMax= 8.58D-03  0.00D+00 EMaxC= 1.00D-01 BMatC= 1.66D-02 BMatP= 6.43D-02
 IDIUse=3 WtCom= 9.14D-01 WtEn= 8.58D-02
 Coeff-Com: -0.579D+00 0.890D+00 0.689D+00
 Coeff-En:   0.000D+00 0.000D+00 0.100D+01
 Coeff:     -0.530D+00 0.814D+00 0.716D+00
 Gap=     0.207 Goal=   None    Shift=    0.000
 Gap=     0.097 Goal=   None    Shift=    0.000
 RMSDP=1.19D-03 MaxDP=8.65D-02 DE=-3.66D-02 OVMax= 5.47D-02

 Cycle   4  Pass 1  IDiag  1:
 RMSU=  1.04D-03    CP:  1.14D+00  3.00D+00  8.11D-01
 E= -152.917640130527     Delta-E=       -0.003336860207 Rises=F Damp=F
 DIIS: error= 4.68D-03 at cycle   4 NSaved=   4.
 NSaved= 4 IEnMin= 4 EnMin= -152.917640130527     IErMin= 4 ErrMin= 4.68D-03
 ErrMax= 4.68D-03  0.00D+00 EMaxC= 1.00D-01 BMatC= 6.12D-03 BMatP= 1.66D-02
 IDIUse=3 WtCom= 9.53D-01 WtEn= 4.68D-02
 Coeff-Com: -0.187D+00 0.254D+00 0.421D+00 0.512D+00
 Coeff-En:   0.000D+00 0.000D+00 0.254D+00 0.746D+00
 Coeff:     -0.178D+00 0.243D+00 0.413D+00 0.522D+00
 Gap=     0.209 Goal=   None    Shift=    0.000
 Gap=     0.112 Goal=   None    Shift=    0.000
 RMSDP=6.27D-04 MaxDP=6.17D-02 DE=-3.34D-03 OVMax= 3.14D-02

 Cycle   5  Pass 1  IDiag  1:
 RMSU=  3.14D-04    CP:  1.13D+00  3.00D+00  9.41D-01  5.97D-01
 E= -152.919276540609     Delta-E=       -0.001636410082 Rises=F Damp=F
 DIIS: error= 1.44D-03 at cycle   5 NSaved=   5.
 NSaved= 5 IEnMin= 5 EnMin= -152.919276540609     IErMin= 5 ErrMin= 1.44D-03
 ErrMax= 1.44D-03  0.00D+00 EMaxC= 1.00D-01 BMatC= 8.02D-04 BMatP= 6.12D-03
 IDIUse=3 WtCom= 9.86D-01 WtEn= 1.44D-02
 Coeff-Com: -0.296D-01 0.285D-01 0.161D+00 0.306D+00 0.534D+00
 Coeff-En:   0.000D+00 0.000D+00 0.000D+00 0.652D-02 0.993D+00
 Coeff:     -0.292D-01 0.280D-01 0.159D+00 0.302D+00 0.540D+00
 Gap=     0.210 Goal=   None    Shift=    0.000
 Gap=     0.112 Goal=   None    Shift=    0.000
 RMSDP=1.48D-04 MaxDP=1.21D-02 DE=-1.64D-03 OVMax= 8.00D-03

 Cycle   6  Pass 1  IDiag  1:
 RMSU=  1.26D-04    CP:  1.13D+00  3.00D+00  9.26D-01  6.19D-01  9.52D-01
 E= -152.919513095139     Delta-E=       -0.000236554530 Rises=F Damp=F
 DIIS: error= 4.97D-04 at cycle   6 NSaved=   6.
 NSaved= 6 IEnMin= 6 EnMin= -152.919513095139     IErMin= 6 ErrMin= 4.97D-04
 ErrMax= 4.97D-04  0.00D+00 EMaxC= 1.00D-01 BMatC= 5.10D-05 BMatP= 8.02D-04
 IDIUse=3 WtCom= 9.95D-01 WtEn= 4.97D-03
 Coeff-Com:  0.362D-01-0.522D-01-0.551D-01-0.734D-01 0.886D-01 0.106D+01
 Coeff-En:   0.000D+00 0.000D+00 0.000D+00 0.000D+00 0.000D+00 0.100D+01
 Coeff:      0.360D-01-0.519D-01-0.548D-01-0.730D-01 0.881D-01 0.106D+01
 Gap=     0.210 Goal=   None    Shift=    0.000
 Gap=     0.114 Goal=   None    Shift=    0.000
 RMSDP=1.39D-04 MaxDP=1.60D-02 DE=-2.37D-04 OVMax= 6.89D-03

 Cycle   7  Pass 1  IDiag  1:
 RMSU=  7.21D-05    CP:  1.13D+00  3.00D+00  9.54D-01  5.83D-01  1.19D+00
                    CP:  1.37D+00
 E= -152.919559277001     Delta-E=       -0.000046181862 Rises=F Damp=F
 DIIS: error= 2.11D-04 at cycle   7 NSaved=   7.
 NSaved= 7 IEnMin= 7 EnMin= -152.919559277001     IErMin= 7 ErrMin= 2.11D-04
 ErrMax= 2.11D-04  0.00D+00 EMaxC= 1.00D-01 BMatC= 1.34D-05 BMatP= 5.10D-05
 IDIUse=3 WtCom= 9.98D-01 WtEn= 2.11D-03
 Coeff-Com:  0.226D-01-0.293D-01-0.444D-01-0.784D-01-0.486D-01 0.406D+00
 Coeff-Com:  0.772D+00
 Coeff-En:   0.000D+00 0.000D+00 0.000D+00 0.000D+00 0.000D+00 0.000D+00
 Coeff-En:   0.100D+01
 Coeff:      0.226D-01-0.293D-01-0.443D-01-0.782D-01-0.485D-01 0.405D+00
 Coeff:      0.773D+00
 Gap=     0.211 Goal=   None    Shift=    0.000
 Gap=     0.114 Goal=   None    Shift=    0.000
 RMSDP=4.91D-05 MaxDP=4.01D-03 DE=-4.62D-05 OVMax= 3.62D-03

 Cycle   8  Pass 1  IDiag  1:
 RMSU=  2.55D-05    CP:  1.13D+00  3.00D+00  9.60D-01  5.73D-01  1.27D+00
                    CP:  1.57D+00  1.14D+00
 E= -152.919564545680     Delta-E=       -0.000005268679 Rises=F Damp=F
 DIIS: error= 2.43D-04 at cycle   8 NSaved=   8.
 NSaved= 8 IEnMin= 8 EnMin= -152.919564545680     IErMin= 7 ErrMin= 2.11D-04
 ErrMax= 2.43D-04  0.00D+00 EMaxC= 1.00D-01 BMatC= 9.83D-06 BMatP= 1.34D-05
 IDIUse=3 WtCom= 9.98D-01 WtEn= 2.11D-03
 Coeff-Com:  0.640D-02-0.741D-02-0.115D-01-0.290D-01-0.559D-01-0.401D-01
 Coeff-Com:  0.589D+00 0.549D+00
 Coeff-En:   0.000D+00 0.000D+00 0.000D+00 0.000D+00 0.000D+00 0.000D+00
 Coeff-En:   0.000D+00 0.100D+01
 Coeff:      0.638D-02-0.740D-02-0.115D-01-0.290D-01-0.558D-01-0.400D-01
 Coeff:      0.587D+00 0.550D+00
 Gap=     0.211 Goal=   None    Shift=    0.000
 Gap=     0.115 Goal=   None    Shift=    0.000
 RMSDP=3.46D-05 MaxDP=3.66D-03 DE=-5.27D-06 OVMax= 1.90D-03

 Cycle   9  Pass 1  IDiag  1:
 RMSU=  1.57D-05    CP:  1.13D+00  3.00D+00  9.65D-01  5.69D-01  1.33D+00
                    CP:  1.67D+00  1.37D+00  9.92D-01
 E= -152.919568365950     Delta-E=       -0.000003820270 Rises=F Damp=F
 DIIS: error= 3.37D-05 at cycle   9 NSaved=   9.
 NSaved= 9 IEnMin= 9 EnMin= -152.919568365950     IErMin= 9 ErrMin= 3.37D-05
 ErrMax= 3.37D-05  0.00D+00 EMaxC= 1.00D-01 BMatC= 3.78D-07 BMatP= 9.83D-06
 IDIUse=1 WtCom= 1.00D+00 WtEn= 0.00D+00
 Coeff-Com: -0.586D-04 0.409D-03 0.388D-02 0.338D-02-0.714D-02-0.693D-01
 Coeff-Com:  0.564D-01 0.175D+00 0.838D+00
 Coeff:     -0.586D-04 0.409D-03 0.388D-02 0.338D-02-0.714D-02-0.693D-01
 Coeff:      0.564D-01 0.175D+00 0.838D+00
 Gap=     0.211 Goal=   None    Shift=    0.000
 Gap=     0.115 Goal=   None    Shift=    0.000
 RMSDP=6.49D-06 MaxDP=4.70D-04 DE=-3.82D-06 OVMax= 3.56D-04

 Cycle  10  Pass 1  IDiag  1:
 RMSU=  3.82D-06    CP:  1.13D+00  3.00D+00  9.66D-01  5.67D-01  1.33D+00
                    CP:  1.68D+00  1.40D+00  9.98D-01  9.54D-01
 E= -152.919568525604     Delta-E=       -0.000000159653 Rises=F Damp=F
 DIIS: error= 6.55D-06 at cycle  10 NSaved=  10.
 NSaved=10 IEnMin=10 EnMin= -152.919568525604     IErMin=10 ErrMin= 6.55D-06
 ErrMax= 6.55D-06  0.00D+00 EMaxC= 1.00D-01 BMatC= 1.98D-08 BMatP= 3.78D-07
 IDIUse=1 WtCom= 1.00D+00 WtEn= 0.00D+00
 Coeff-Com: -0.383D-03 0.465D-03 0.194D-02 0.321D-02 0.401D-02-0.926D-02
 Coeff-Com: -0.435D-01-0.197D-01 0.146D+00 0.918D+00
 Coeff:     -0.383D-03 0.465D-03 0.194D-02 0.321D-02 0.401D-02-0.926D-02
 Coeff:     -0.435D-01-0.197D-01 0.146D+00 0.918D+00
 Gap=     0.211 Goal=   None    Shift=    0.000
 Gap=     0.115 Goal=   None    Shift=    0.000
 RMSDP=1.87D-06 MaxDP=9.93D-05 DE=-1.60D-07 OVMax= 8.07D-05

 Cycle  11  Pass 1  IDiag  1:
 RMSU=  1.44D-06    CP:  1.13D+00  3.00D+00  9.66D-01  5.66D-01  1.33D+00
                    CP:  1.68D+00  1.40D+00  1.01D+00  9.97D-01  1.15D+00
 E= -152.919568535426     Delta-E=       -0.000000009822 Rises=F Damp=F
 DIIS: error= 1.84D-06 at cycle  11 NSaved=  11.
 NSaved=11 IEnMin=11 EnMin= -152.919568535426     IErMin=11 ErrMin= 1.84D-06
 ErrMax= 1.84D-06  0.00D+00 EMaxC= 1.00D-01 BMatC= 1.71D-09 BMatP= 1.98D-08
 IDIUse=1 WtCom= 1.00D+00 WtEn= 0.00D+00
 Coeff-Com:  0.250D-04-0.485D-04-0.235D-03-0.396D-03 0.102D-03 0.494D-02
 Coeff-Com: -0.106D-02-0.173D-01-0.596D-01-0.183D-01 0.109D+01
 Coeff:      0.250D-04-0.485D-04-0.235D-03-0.396D-03 0.102D-03 0.494D-02
 Coeff:     -0.106D-02-0.173D-01-0.596D-01-0.183D-01 0.109D+01
 Gap=     0.211 Goal=   None    Shift=    0.000
 Gap=     0.115 Goal=   None    Shift=    0.000
 RMSDP=7.55D-07 MaxDP=4.83D-05 DE=-9.82D-09 OVMax= 2.60D-05

 Cycle  12  Pass 1  IDiag  1:
 RMSU=  3.08D-07    CP:  1.13D+00  3.00D+00  9.66D-01  5.66D-01  1.33D+00
                    CP:  1.68D+00  1.40D+00  9.98D-01  1.01D+00  1.23D+00
                    CP:  1.26D+00
 E= -152.919568536653     Delta-E=       -0.000000001228 Rises=F Damp=F
 DIIS: error= 7.55D-07 at cycle  12 NSaved=  12.
 NSaved=12 IEnMin=12 EnMin= -152.919568536653     IErMin=12 ErrMin= 7.55D-07
 ErrMax= 7.55D-07  0.00D+00 EMaxC= 1.00D-01 BMatC= 1.22D-10 BMatP= 1.71D-09
 IDIUse=1 WtCom= 1.00D+00 WtEn= 0.00D+00
 Coeff-Com:  0.510D-04-0.651D-04-0.148D-03-0.214D-03-0.407D-03 0.540D-03
 Coeff-Com:  0.424D-02 0.180D-02-0.740D-02-0.823D-01-0.851D-01 0.117D+01
 Coeff:      0.510D-04-0.651D-04-0.148D-03-0.214D-03-0.407D-03 0.540D-03
 Coeff:      0.424D-02 0.180D-02-0.740D-02-0.823D-01-0.851D-01 0.117D+01
 Gap=     0.211 Goal=   None    Shift=    0.000
 Gap=     0.115 Goal=   None    Shift=    0.000
 RMSDP=2.47D-07 MaxDP=1.89D-05 DE=-1.23D-09 OVMax= 1.16D-05

 Cycle  13  Pass 1  IDiag  1:
 RMSU=  6.19D-08    CP:  1.13D+00  3.00D+00  9.66D-01  5.66D-01  1.33D+00
                    CP:  1.68D+00  1.40D+00  9.95D-01  1.01D+00  1.26D+00
                    CP:  1.34D+00  1.24D+00
 E= -152.919568536776     Delta-E=       -0.000000000122 Rises=F Damp=F
 DIIS: error= 1.79D-07 at cycle  13 NSaved=  13.
 NSaved=13 IEnMin=13 EnMin= -152.919568536776     IErMin=13 ErrMin= 1.79D-07
 ErrMax= 1.79D-07  0.00D+00 EMaxC= 1.00D-01 BMatC= 8.15D-12 BMatP= 1.22D-10
 IDIUse=1 WtCom= 1.00D+00 WtEn= 0.00D+00
 Coeff-Com: -0.135D-06 0.550D-06 0.317D-04 0.551D-04 0.186D-04-0.309D-03
 Coeff-Com: -0.522D-03 0.935D-03 0.474D-02 0.823D-02-0.638D-01-0.899D-01
 Coeff-Com:  0.114D+01
 Coeff:     -0.135D-06 0.550D-06 0.317D-04 0.551D-04 0.186D-04-0.309D-03
 Coeff:     -0.522D-03 0.935D-03 0.474D-02 0.823D-02-0.638D-01-0.899D-01
 Coeff:      0.114D+01
 Gap=     0.211 Goal=   None    Shift=    0.000
 Gap=     0.115 Goal=   None    Shift=    0.000
 RMSDP=3.40D-08 MaxDP=2.38D-06 DE=-1.22D-10 OVMax= 3.94D-06

 Cycle  14  Pass 1  IDiag  1:
 RMSU=  1.79D-08    CP:  1.13D+00  3.00D+00  9.66D-01  5.66D-01  1.33D+00
                    CP:  1.68D+00  1.40D+00  9.95D-01  1.01D+00  1.26D+00
                    CP:  1.35D+00  1.29D+00  1.15D+00
 E= -152.919568536787     Delta-E=       -0.000000000012 Rises=F Damp=F
 DIIS: error= 5.13D-08 at cycle  14 NSaved=  14.
 NSaved=14 IEnMin=14 EnMin= -152.919568536787     IErMin=14 ErrMin= 5.13D-08
 ErrMax= 5.13D-08  0.00D+00 EMaxC= 1.00D-01 BMatC= 7.83D-13 BMatP= 8.15D-12
 IDIUse=1 WtCom= 1.00D+00 WtEn= 0.00D+00
 Coeff-Com: -0.432D-05 0.559D-05 0.124D-04 0.137D-04 0.247D-04 0.123D-04
 Coeff-Com: -0.376D-03-0.307D-03 0.583D-03 0.606D-02 0.139D-01-0.983D-01
 Coeff-Com: -0.117D+00 0.120D+01
 Coeff:     -0.432D-05 0.559D-05 0.124D-04 0.137D-04 0.247D-04 0.123D-04
 Coeff:     -0.376D-03-0.307D-03 0.583D-03 0.606D-02 0.139D-01-0.983D-01
 Coeff:     -0.117D+00 0.120D+01
 Gap=     0.211 Goal=   None    Shift=    0.000
 Gap=     0.115 Goal=   None    Shift=    0.000
 RMSDP=2.10D-08 MaxDP=1.81D-06 DE=-1.15D-11 OVMax= 1.42D-06

 Cycle  15  Pass 1  IDiag  1:
 RMSU=  4.91D-09    CP:  1.13D+00  3.00D+00  9.66D-01  5.66D-01  1.33D+00
                    CP:  1.68D+00  1.40D+00  9.96D-01  1.01D+00  1.26D+00
                    CP:  1.34D+00  1.28D+00  1.22D+00  1.33D+00
 E= -152.919568536788     Delta-E=       -0.000000000001 Rises=F Damp=F
 DIIS: error= 1.48D-08 at cycle  15 NSaved=  15.
 NSaved=15 IEnMin=15 EnMin= -152.919568536788     IErMin=15 ErrMin= 1.48D-08
 ErrMax= 1.48D-08  0.00D+00 EMaxC= 1.00D-01 BMatC= 6.40D-14 BMatP= 7.83D-13
 IDIUse=1 WtCom= 1.00D+00 WtEn= 0.00D+00
 Coeff-Com:  0.461D-06-0.646D-06-0.164D-05-0.205D-05-0.486D-05 0.187D-04
 Coeff-Com:  0.206D-04-0.177D-04-0.201D-03-0.718D-03 0.253D-02 0.787D-02
 Coeff-Com: -0.597D-01-0.402D-01 0.109D+01
 Coeff:      0.461D-06-0.646D-06-0.164D-05-0.205D-05-0.486D-05 0.187D-04
 Coeff:      0.206D-04-0.177D-04-0.201D-03-0.718D-03 0.253D-02 0.787D-02
 Coeff:     -0.597D-01-0.402D-01 0.109D+01
 Gap=     0.211 Goal=   None    Shift=    0.000
 Gap=     0.115 Goal=   None    Shift=    0.000
 RMSDP=3.94D-09 MaxDP=3.46D-07 DE=-1.02D-12 OVMax= 3.62D-07

 SCF Done:  E(UB3LYP) =  -152.919568537     A.U. after   15 cycles
            NFock= 15  Conv=0.39D-08     -V/T= 2.0043
 <Sx>= 0.0000 <Sy>= 0.0000 <Sz>= 1.5000 <S**2>= 3.7852 S= 1.5088
 <L.S>= 0.000000000000E+00
 KE= 1.522644017040D+02 PE=-5.086243323461D+02 EE= 1.168710404846D+02
 Annihilation of the first spin contaminant:
 S**2 before annihilation     3.7852,   after     3.7502
 Leave Link  502 at Wed Jun 22 00:47:29 2016, MaxMem=    33554432 cpu:       476.1
 (Enter /home/proyectos/fulerenos/M3C-v1.9/M3C-deps_CCC/g09-AM64L-G09RevC.01/l801.exe)
 DoSCS=F DFT=T ScalE2(SS,OS)=  1.000000  1.000000
 Range of M.O.s used for correlation:     1   196
 NBasis=   196 NAE=    14 NBE=    11 NFC=     0 NFV=     0
 NROrb=    196 NOA=    14 NOB=    11 NVA=   182 NVB=   185

 **** Warning!!: The largest alpha MO coefficient is  0.20768106D+03


 **** Warning!!: The largest beta MO coefficient is  0.21374491D+03

 Leave Link  801 at Wed Jun 22 00:47:29 2016, MaxMem=    33554432 cpu:         0.1
 (Enter /home/proyectos/fulerenos/M3C-v1.9/M3C-deps_CCC/g09-AM64L-G09RevC.01/l1101.exe)
 Using compressed storage, NAtomX=     8.
 Will process      9 centers per pass.
 Leave Link 1101 at Wed Jun 22 00:47:30 2016, MaxMem=    33554432 cpu:         1.9
 (Enter /home/proyectos/fulerenos/M3C-v1.9/M3C-deps_CCC/g09-AM64L-G09RevC.01/l1102.exe)
 Symmetrizing basis deriv contribution to polar:
 IMax=3 JMax=2 DiffMx= 0.00D+00
 Leave Link 1102 at Wed Jun 22 00:47:30 2016, MaxMem=    33554432 cpu:         0.2
 (Enter /home/proyectos/fulerenos/M3C-v1.9/M3C-deps_CCC/g09-AM64L-G09RevC.01/l1110.exe)
 Forming Gx(P) for the SCF density, NAtomX=     8.
 Integral derivatives from FoFJK, PRISM(SPDF).
 Do as many integral derivatives as possible in FoFJK.
 G2DrvN: MDV=      33554264.
 G2DrvN: will do     9 centers at a time, making    1 passes.
 Calling FoFCou, ICntrl=  3107 FMM=F I1Cent=   0 AccDes= 0.00D+00.
 FoFJK:  IHMeth= 1 ICntrl=    3107 DoSepK=F KAlg= 0 I1Cent=   0 FoldK=F
 IRaf=         0 NMat=   1 IRICut=       1 DoRegI=T DoRafI=F ISym2E= 0.
 FoFCou: FMM=F IPFlag=           0 FMFlag=      100000 FMFlg1=           0
         NFxFlg=           0 DoJE=F BraDBF=F KetDBF=F FulRan=T
         wScrn=  0.000000 ICntrl=    3107 IOpCl=  1 I1Cent=           0 NGrid=           0
         NMat0=    1 NMatS0=      1 NMatT0=    0 NMatD0=    1 NMtDS0=    0 NMtDT0=    0
 Symmetry not used in FoFCou.
 End of G2Drv F.D. properties file   721 does not exist.
 End of G2Drv F.D. properties file   722 does not exist.
 End of G2Drv F.D. properties file   788 does not exist.
 Leave Link 1110 at Wed Jun 22 00:49:15 2016, MaxMem=    33554432 cpu:       411.2
 (Enter /home/proyectos/fulerenos/M3C-v1.9/M3C-deps_CCC/g09-AM64L-G09RevC.01/l1002.exe)
 Minotr:  UHF open shell wavefunction.
          IDoAtm=11111111
          Direct CPHF calculation.
          Differentiating once with respect to electric field.
                with respect to dipole field.
          Differentiating once with respect to nuclear coordinates.
          Requested convergence is 1.0D-08 RMS, and 1.0D-07 maximum.
          Secondary convergence is 1.0D-12 RMS, and 1.0D-12 maximum.
          NewPWx=T KeepS1=F KeepF1=F KeepIn=T MapXYZ=F SortEE=F KeepMc=T.
          MDV=      33553956 using IRadAn=       2.
 Generate precomputed XC quadrature information.
          Solving linear equations simultaneously, MaxMat=       0.
 FoFJK:  IHMeth= 1 ICntrl=       0 DoSepK=F KAlg= 0 I1Cent=   0 FoldK=F
 IRaf= 970000000 NMat=  27 IRICut=      67 DoRegI=T DoRafI=T ISym2E= 2.
 FoFCou: FMM=F IPFlag=           0 FMFlag=      100000 FMFlg1=           0
         NFxFlg=           0 DoJE=F BraDBF=F KetDBF=F FulRan=T
         wScrn=  0.000000 ICntrl=       0 IOpCl=  1 I1Cent=           0 NGrid=           0
         NMat0=   27 NMatS0=     27 NMatT0=    0 NMatD0=   27 NMtDS0=    0 NMtDT0=    0
 Integrals replicated using symmetry in FoFCou.
          There are    27 degrees of freedom in the 1st order CPHF.  IDoFFX=6 NUNeed=     3.
     27 vectors produced by pass  0 Test12= 1.70D-14 3.70D-09 XBig12= 3.11D+02 1.23D+01.
 AX will form    27 AO Fock derivatives at one time.
     24 vectors produced by pass  1 Test12= 1.70D-14 3.70D-09 XBig12= 5.23D+01 2.13D+00.
     24 vectors produced by pass  2 Test12= 1.70D-14 3.70D-09 XBig12= 1.46D+00 2.38D-01.
     24 vectors produced by pass  3 Test12= 1.70D-14 3.70D-09 XBig12= 1.17D-02 2.16D-02.
     24 vectors produced by pass  4 Test12= 1.70D-14 3.70D-09 XBig12= 8.66D-05 1.58D-03.
     24 vectors produced by pass  5 Test12= 1.70D-14 3.70D-09 XBig12= 3.45D-07 7.68D-05.
     20 vectors produced by pass  6 Test12= 1.70D-14 3.70D-09 XBig12= 1.51D-09 4.68D-06.
      5 vectors produced by pass  7 Test12= 1.70D-14 3.70D-09 XBig12= 4.87D-12 2.75D-07.
      5 vectors produced by pass  8 Test12= 1.70D-14 3.70D-09 XBig12= 3.06D-13 1.37D-07.
      4 vectors produced by pass  9 Test12= 1.70D-14 3.70D-09 XBig12= 7.96D-15 1.91D-08.
      2 vectors produced by pass 10 Test12= 1.70D-14 3.70D-09 XBig12= 4.13D-16 4.02D-09.
      1 vectors produced by pass 11 Test12= 1.70D-14 3.70D-09 XBig12= 3.24D-15 1.19D-08.
 InvSVY:  IOpt=1 It=  1 EMax= 3.55D-15
 Solved reduced A of dimension   184 with    27 vectors.
 FullF1:  Do perturbations    1 to     3.
 Isotropic polarizability for W=    0.000000       42.32 Bohr**3.
 End of Minotr F.D. properties file   721 does not exist.
 End of Minotr F.D. properties file   722 does not exist.
 End of Minotr F.D. properties file   788 does not exist.
 Leave Link 1002 at Wed Jun 22 00:54:23 2016, MaxMem=    33554432 cpu:      1187.1
 (Enter /home/proyectos/fulerenos/M3C-v1.9/M3C-deps_CCC/g09-AM64L-G09RevC.01/l601.exe)
 Copying SCF densities to generalized density rwf, IOpCl= 1 IROHF=0.

 **********************************************************************

            Population analysis using the SCF density.

 **********************************************************************

 Orbital symmetries:
 Alpha Orbitals:
       Occupied  (A) (A) (A) (A) (A) (A) (A) (A) (A) (A) (A) (A)
                 (A) (A)
       Virtual   (A) (A) (A) (A) (A) (A) (A) (A) (A) (A) (A) (A)
                 (A) (A) (A) (A) (A) (A) (A) (A) (A) (A) (A) (A)
                 (A) (A) (A) (A) (A) (A) (A) (A) (A) (A) (A) (A)
                 (A) (A) (A) (A) (A) (A) (A) (A) (A) (A) (A) (A)
                 (A) (A) (A) (A) (A) (A) (A) (A) (A) (A) (A) (A)
                 (A) (A) (A) (A) (A) (A) (A) (A) (A) (A) (A) (A)
                 (A) (A) (A) (A) (A) (A) (A) (A) (A) (A) (A) (A)
                 (A) (A) (A) (A) (A) (A) (A) (A) (A) (A) (A) (A)
                 (A) (A) (A) (A) (A) (A) (A) (A) (A) (A) (A) (A)
                 (A) (A) (A) (A) (A) (A) (A) (A) (A) (A) (A) (A)
                 (A) (A) (A) (A) (A) (A) (A) (A) (A) (A) (A) (A)
                 (A) (A) (A) (A) (A) (A) (A) (A) (A) (A) (A) (A)
                 (A) (A) (A) (A) (A) (A) (A) (A) (A) (A) (A) (A)
                 (A) (A) (A) (A) (A) (A) (A) (A) (A) (A) (A) (A)
                 (A) (A) (A) (A) (A) (A) (A) (A) (A) (A) (A) (A)
                 (A) (A)
 Beta  Orbitals:
       Occupied  (A) (A) (A) (A) (A) (A) (A) (A) (A) (A) (A)
       Virtual   (A) (A) (A) (A) (A) (A) (A) (A) (A) (A) (A) (A)
                 (A) (A) (A) (A) (A) (A) (A) (A) (A) (A) (A) (A)
                 (A) (A) (A) (A) (A) (A) (A) (A) (A) (A) (A) (A)
                 (A) (A) (A) (A) (A) (A) (A) (A) (A) (A) (A) (A)
                 (A) (A) (A) (A) (A) (A) (A) (A) (A) (A) (A) (A)
                 (A) (A) (A) (A) (A) (A) (A) (A) (A) (A) (A) (A)
                 (A) (A) (A) (A) (A) (A) (A) (A) (A) (A) (A) (A)
                 (A) (A) (A) (A) (A) (A) (A) (A) (A) (A) (A) (A)
                 (A) (A) (A) (A) (A) (A) (A) (A) (A) (A) (A) (A)
                 (A) (A) (A) (A) (A) (A) (A) (A) (A) (A) (A) (A)
                 (A) (A) (A) (A) (A) (A) (A) (A) (A) (A) (A) (A)
                 (A) (A) (A) (A) (A) (A) (A) (A) (A) (A) (A) (A)
                 (A) (A) (A) (A) (A) (A) (A) (A) (A) (A) (A) (A)
                 (A) (A) (A) (A) (A) (A) (A) (A) (A) (A) (A) (A)
                 (A) (A) (A) (A) (A) (A) (A) (A) (A) (A) (A) (A)
                 (A) (A) (A) (A) (A)
 The electronic state is 4-A.
 Alpha  occ. eigenvalues --  -11.04573 -11.03932 -11.02857 -10.98676  -1.59305
 Alpha  occ. eigenvalues --   -1.53414  -1.41134  -1.28728  -1.22942  -1.21834
 Alpha  occ. eigenvalues --   -1.10682  -1.10574  -1.06171  -1.02463
 Alpha virt. eigenvalues --   -0.81408  -0.75583  -0.64864  -0.62261  -0.59678
 Alpha virt. eigenvalues --   -0.55308  -0.51067  -0.46909  -0.44204  -0.43244
 Alpha virt. eigenvalues --   -0.42043  -0.40251  -0.39524  -0.38280  -0.36962
 Alpha virt. eigenvalues --   -0.36512  -0.34028  -0.31326  -0.30466  -0.29629
 Alpha virt. eigenvalues --   -0.28138  -0.27236  -0.25313  -0.24554  -0.23789
 Alpha virt. eigenvalues --   -0.23403  -0.21966  -0.21777  -0.19860  -0.19173
 Alpha virt. eigenvalues --   -0.18451  -0.17778  -0.16684  -0.14398  -0.13329
 Alpha virt. eigenvalues --   -0.13235  -0.09940  -0.09655  -0.09230  -0.08626
 Alpha virt. eigenvalues --   -0.06470  -0.05139  -0.03561  -0.03337  -0.02845
 Alpha virt. eigenvalues --   -0.02472  -0.00186   0.01033   0.01749   0.03207
 Alpha virt. eigenvalues --    0.05188   0.06335   0.08964   0.11833   0.12034
 Alpha virt. eigenvalues --    0.13559   0.18101   0.18558   0.22571   0.23615
 Alpha virt. eigenvalues --    0.27394   0.30005   0.31774   0.34536   0.35273
 Alpha virt. eigenvalues --    0.40661   0.42788   0.45993   0.52071   0.53463
 Alpha virt. eigenvalues --    0.53566   0.58904   0.59642   0.61538   0.64063
 Alpha virt. eigenvalues --    0.67255   0.67865   0.67951   0.72450   0.74237
 Alpha virt. eigenvalues --    0.77686   0.77959   0.78171   0.82458   0.82558
 Alpha virt. eigenvalues --    0.92959   0.95527   0.96272   1.00083   1.00163
 Alpha virt. eigenvalues --    1.01977   1.07554   1.16529   1.20514   1.24656
 Alpha virt. eigenvalues --    1.29514   1.58363   1.58453   1.65099   1.74812
 Alpha virt. eigenvalues --    1.82858   1.83748   1.88971   1.89048   1.91852
 Alpha virt. eigenvalues --    1.93626   1.95285   1.97573   1.99242   2.05154
 Alpha virt. eigenvalues --    2.06673   2.07099   2.07905   2.12889   2.14473
 Alpha virt. eigenvalues --    2.16108   2.17508   2.18364   2.22240   2.23488
 Alpha virt. eigenvalues --    2.30160   2.35242   2.36904   2.39039   2.44000
 Alpha virt. eigenvalues --    2.48318   2.51683   2.53465   2.64536   2.66963
 Alpha virt. eigenvalues --    2.68489   2.82600   2.90332   2.99362   3.01564
 Alpha virt. eigenvalues --    3.03676   3.13351   3.19373   3.25872   3.31554
 Alpha virt. eigenvalues --    3.35062   3.41606   3.50947   3.53095   3.57052
 Alpha virt. eigenvalues --    3.65554   3.72362   3.76702   3.88197   3.97918
 Alpha virt. eigenvalues --    4.14418   4.23134   4.69326   4.82007   4.85734
 Alpha virt. eigenvalues --    5.00977   5.18032   5.56474   6.11662   6.12839
 Alpha virt. eigenvalues --    6.16233   6.24421   6.24616   6.26609   6.32115
 Alpha virt. eigenvalues --    6.44500   6.46995   6.48626   6.56444   6.67833
 Alpha virt. eigenvalues --    6.70519   6.88431   6.88828   6.92755   7.11598
 Alpha virt. eigenvalues --    7.29571   7.44447   7.71277  23.03729  23.96461
 Alpha virt. eigenvalues --   24.84861  25.29885
  Beta  occ. eigenvalues --  -11.03075 -11.02103 -11.01860 -10.98685  -1.55861
  Beta  occ. eigenvalues --   -1.47728  -1.36675  -1.25088  -1.21238  -1.17814
  Beta  occ. eigenvalues --   -1.06493
  Beta virt. eigenvalues --   -0.95021  -0.91672  -0.90635  -0.75489  -0.68365
  Beta virt. eigenvalues --   -0.61261  -0.57001  -0.55922  -0.52634  -0.49767
  Beta virt. eigenvalues --   -0.45756  -0.43288  -0.42199  -0.41429  -0.38769
  Beta virt. eigenvalues --   -0.38583  -0.37256  -0.35712  -0.35462  -0.32540
  Beta virt. eigenvalues --   -0.30773  -0.29197  -0.27970  -0.26794  -0.26426
  Beta virt. eigenvalues --   -0.24258  -0.23953  -0.22871  -0.22485  -0.21682
  Beta virt. eigenvalues --   -0.21141  -0.18600  -0.18378  -0.17899  -0.17278
  Beta virt. eigenvalues --   -0.16024  -0.13868  -0.12539  -0.12133  -0.09322
  Beta virt. eigenvalues --   -0.08999  -0.07937  -0.07395  -0.05353  -0.04053
  Beta virt. eigenvalues --   -0.02792  -0.01848  -0.01803  -0.01767   0.01024
  Beta virt. eigenvalues --    0.02185   0.03540   0.04831   0.06710   0.07437
  Beta virt. eigenvalues --    0.10180   0.12758   0.13083   0.14427   0.19386
  Beta virt. eigenvalues --    0.19467   0.23389   0.24503   0.28684   0.30882
  Beta virt. eigenvalues --    0.33327   0.36376   0.36484   0.42166   0.44743
  Beta virt. eigenvalues --    0.47568   0.54089   0.54607   0.54945   0.59962
  Beta virt. eigenvalues --    0.61385   0.62013   0.65780   0.68651   0.69339
  Beta virt. eigenvalues --    0.70596   0.75507   0.75936   0.79424   0.82453
  Beta virt. eigenvalues --    0.82924   0.83791   0.86404   0.94217   0.99163
  Beta virt. eigenvalues --    1.00553   1.02222   1.04012   1.05772   1.10032
  Beta virt. eigenvalues --    1.19335   1.22994   1.27082   1.31783   1.60398
  Beta virt. eigenvalues --    1.61575   1.67922   1.77746   1.86063   1.87220
  Beta virt. eigenvalues --    1.93325   1.93738   1.94805   1.97209   1.97898
  Beta virt. eigenvalues --    2.01385   2.03612   2.09424   2.10488   2.11122
  Beta virt. eigenvalues --    2.12122   2.17298   2.19086   2.19869   2.20379
  Beta virt. eigenvalues --    2.22505   2.26167   2.27749   2.33861   2.38537
  Beta virt. eigenvalues --    2.39961   2.41809   2.47601   2.49939   2.53693
  Beta virt. eigenvalues --    2.57158   2.67783   2.69854   2.72750   2.85370
  Beta virt. eigenvalues --    2.93063   3.02892   3.04944   3.06640   3.15215
  Beta virt. eigenvalues --    3.21513   3.29786   3.36097   3.40027   3.43882
  Beta virt. eigenvalues --    3.53281   3.55158   3.60109   3.67527   3.73290
  Beta virt. eigenvalues --    3.78802   3.92697   4.00192   4.17540   4.26891
  Beta virt. eigenvalues --    4.73378   4.83790   4.88628   5.03297   5.19735
  Beta virt. eigenvalues --    5.58718   6.18013   6.19463   6.24733   6.30161
  Beta virt. eigenvalues --    6.31135   6.33651   6.35230   6.46188   6.50050
  Beta virt. eigenvalues --    6.53050   6.59022   6.69800   6.74305   6.89425
  Beta virt. eigenvalues --    6.91548   6.95323   7.14206   7.31803   7.45841
  Beta virt. eigenvalues --    7.73077  23.05101  23.98279  24.85414  25.31463
          Condensed to atoms (all electrons):
               1          2          3          4          5          6
     1  C    9.079224  -2.795489   0.356301  -0.498648  -0.003461  -0.528504
     2  C   -2.795489  10.362363   0.138438  -2.231082   0.268518  -0.286865
     3  H    0.356301   0.138438   0.379853  -0.051936   0.000568  -0.145611
     4  C   -0.498648  -2.231082  -0.051936   8.649349   0.013893  -0.182164
     5  H   -0.003461   0.268518   0.000568   0.013893   0.211523  -0.002588
     6  C   -0.528504  -0.286865  -0.145611  -0.182164  -0.002588   6.536742
     7  H    0.021809  -0.034708   0.002498  -0.057380  -0.000164   0.330324
     8  H   -0.109809   0.007253  -0.004027   0.059254   0.000032   0.308530
               7          8
     1  C    0.021809  -0.109809
     2  C   -0.034708   0.007253
     3  H    0.002498  -0.004027
     4  C   -0.057380   0.059254
     5  H   -0.000164   0.000032
     6  C    0.330324   0.308530
     7  H    0.321634  -0.000994
     8  H   -0.000994   0.311335
          Atomic-Atomic Spin Densities.
               1          2          3          4          5          6
     1  C    1.743034  -0.879619   0.103532  -0.928424  -0.012904   0.032751
     2  C   -0.879619   1.170338  -0.043032   0.524862   0.016659  -0.014196
     3  H    0.103532  -0.043032   0.056709  -0.029918  -0.000370  -0.001293
     4  C   -0.928424   0.524862  -0.029918   1.151760  -0.009992  -0.047972
     5  H   -0.012904   0.016659  -0.000370  -0.009992  -0.016971   0.000010
     6  C    0.032751  -0.014196  -0.001293  -0.047972   0.000010   0.923983
     7  H    0.069378  -0.029844   0.001368  -0.055551  -0.000219   0.083307
     8  H   -0.070256   0.017194  -0.002322   0.052960   0.000098   0.083406
               7          8
     1  C    0.069378  -0.070256
     2  C   -0.029844   0.017194
     3  H    0.001368  -0.002322
     4  C   -0.055551   0.052960
     5  H   -0.000219   0.000098
     6  C    0.083307   0.083406
     7  H    0.150487  -0.032164
     8  H   -0.032164   0.165765
 Mulliken charges and spin densities:
               1          2
     1  C    0.478576   0.057491
     2  C    0.571572   0.762362
     3  H    0.323917   0.084673
     4  C    0.298713   0.657726
     5  H    0.511680  -0.023690
     6  C   -0.029864   1.059995
     7  H    0.416981   0.186762
     8  H    0.428426   0.214680
 Sum of Mulliken charges =   3.00000   3.00000
 Mulliken charges and spin densities with hydrogens summed into heavy atoms:
               1          2
     1  C    0.802493   0.142164
     2  C    1.083252   0.738673
     4  C    0.298713   0.657726
     6  C    0.815542   1.461438
 APT charges:
               1
     1  C   -0.154366
     2  C    0.786478
     3  H    0.387890
     4  C    0.049295
     5  H    0.511931
     6  C    0.250973
     7  H    0.546336
     8  H    0.621464
 Sum of APT charges =   3.00000
 APT charges with hydrogens summed into heavy atoms:
               1
     1  C    0.233524
     2  C    1.298410
     4  C    0.049295
     6  C    1.418772
 Electronic spatial extent (au):  <R**2>=            264.7689
 Charge=              3.0000 electrons
 Dipole moment (field-independent basis, Debye):
    X=              2.5112    Y=             -1.3996    Z=              0.0043  Tot=              2.8749
 Quadrupole moment (field-independent basis, Debye-Ang):
   XX=             46.4031   YY=             -8.5099   ZZ=            -18.9245
   XY=             -1.7962   XZ=             -0.0001   YZ=             -0.0009
 Traceless Quadrupole moment (field-independent basis, Debye-Ang):
   XX=             40.0802   YY=            -14.8328   ZZ=            -25.2474
   XY=             -1.7962   XZ=             -0.0001   YZ=             -0.0009
 Octapole moment (field-independent basis, Debye-Ang**2):
  XXX=              6.8720  YYY=              0.0223  ZZZ=              0.0031  XYY=             12.0497
  XXY=            -23.3625  XXZ=              0.0287  XZZ=             -0.0336  YZZ=             -0.2777
  YYZ=              0.0173  XYZ=             -0.0062
 Hexadecapole moment (field-independent basis, Debye-Ang**3):
 XXXX=            212.9161 YYYY=             -9.6312 ZZZZ=            -16.5935 XXXY=             -4.0663
 XXXZ=             -0.0497 YYYX=            -10.0764 YYYZ=              0.0012 ZZZX=             -0.0022
 ZZZY=             -0.0000 XXYY=            -20.5700 XXZZ=            -47.3322 YYZZ=             -8.6065
 XXYZ=             -0.0313 YYXZ=              0.0242 ZZXY=             -0.1903
 N-N= 8.656932162070D+01 E-N=-5.086243322878D+02  KE= 1.522644017040D+02
  Exact polarizability:  80.312   0.248  28.045  -0.004   0.000  18.617
 Approx polarizability: 138.518   2.068  43.280  -0.021   0.004  25.621
                          Isotropic Fermi Contact Couplings
        Atom                 a.u.       MegaHertz       Gauss      10(-4) cm-1
     1  C(13)             -0.05284     -19.80258      -7.06605      -6.60543
     2  C(13)              0.04890      18.32614       6.53922       6.11294
     3  H(1)               0.05588      83.25221      29.70646      27.76995
     4  C(13)              0.05146      19.28456       6.88121       6.43264
     5  H(1)              -0.01745     -26.00716      -9.28000      -8.67506
     6  C(13)              0.02335       8.74992       3.12219       2.91866
     7  H(1)               0.09449     140.79222      50.23816      46.96323
     8  H(1)               0.10482     156.17316      55.72647      52.09376
 --------------------------------------------------------
       Center         ----  Spin Dipole Couplings  ----
                      3XX-RR        3YY-RR        3ZZ-RR
 --------------------------------------------------------
     1   Atom       -0.015263      0.049575     -0.034312
     2   Atom       -0.560087      0.414880      0.145207
     3   Atom       -0.010068      0.045382     -0.035314
     4   Atom       -0.260597      0.505464     -0.244866
     5   Atom        0.082620     -0.036185     -0.046435
     6   Atom       -0.499350      0.201591      0.297759
     7   Atom        0.006450      0.062489     -0.068939
     8   Atom        0.156863     -0.088192     -0.068671
 --------------------------------------------------------
                        XY            XZ            YZ
 --------------------------------------------------------
     1   Atom       -0.002975      0.000142     -0.000624
     2   Atom       -0.168463      0.001062      0.000294
     3   Atom       -0.004412      0.000029      0.000179
     4   Atom       -0.192989      0.000425      0.000683
     5   Atom        0.021514     -0.000055     -0.000008
     6   Atom        0.535333      0.000359      0.000946
     7   Atom       -0.113301      0.000246     -0.000273
     8   Atom       -0.003816     -0.000057      0.000022
 --------------------------------------------------------


 ---------------------------------------------------------------------------------
              Anisotropic Spin Dipole Couplings in Principal Axis System
 ---------------------------------------------------------------------------------

       Atom             a.u.   MegaHertz   Gauss  10(-4) cm-1        Axes

              Baa    -0.0343    -4.605    -1.643    -1.536 -0.0063  0.0072  1.0000
     1 C(13)  Bbb    -0.0154    -2.066    -0.737    -0.689  0.9989  0.0458  0.0060
              Bcc     0.0497     6.671     2.381     2.225 -0.0458  0.9989 -0.0075
 
              Baa    -0.5884   -78.955   -28.173   -26.336  0.9862  0.1656 -0.0015
     2 C(13)  Bbb     0.1452    19.486     6.953     6.500  0.0015 -0.0001  1.0000
              Bcc     0.4432    59.469    21.220    19.837 -0.1656  0.9862  0.0004
 
              Baa    -0.0353   -18.842    -6.723    -6.285 -0.0015 -0.0023  1.0000
     3 H(1)   Bbb    -0.0104    -5.558    -1.983    -1.854  0.9969  0.0788  0.0017
              Bcc     0.0457    24.400     8.707     8.139 -0.0788  0.9969  0.0022
 
              Baa    -0.3065   -41.126   -14.675   -13.718  0.9729  0.2312 -0.0093
     4 C(13)  Bbb    -0.2449   -32.858   -11.725   -10.960  0.0092  0.0015  1.0000
              Bcc     0.5513    73.984    26.399    24.678 -0.2312  0.9729  0.0007
 
              Baa    -0.0464   -24.775    -8.840    -8.264  0.0005 -0.0002  1.0000
     5 H(1)   Bbb    -0.0400   -21.321    -7.608    -7.112 -0.1729  0.9849  0.0002
              Bcc     0.0864    46.097    16.448    15.376  0.9849  0.1729 -0.0004
 
              Baa    -0.7887  -105.840   -37.766   -35.305  0.8797 -0.4755  0.0001
     6 C(13)  Bbb     0.2978    39.956    14.257    13.328 -0.0026 -0.0045  1.0000
              Bcc     0.4910    65.885    23.509    21.977  0.4755  0.8797  0.0052
 
              Baa    -0.0822   -43.882   -15.658   -14.637  0.7874  0.6164 -0.0019
     7 H(1)   Bbb    -0.0689   -36.783   -13.125   -12.269  0.0005  0.0025  1.0000
              Bcc     0.1512    80.665    28.783    26.907 -0.6164  0.7874 -0.0017
 
              Baa    -0.0883   -47.087   -16.802   -15.707  0.0156  0.9999 -0.0011
     8 H(1)   Bbb    -0.0687   -36.640   -13.074   -12.222  0.0003  0.0011  1.0000
              Bcc     0.1569    83.727    29.876    27.928  0.9999 -0.0156 -0.0003
 

 ---------------------------------------------------------------------------------

 No NMR shielding tensors so no spin-rotation constants.
 Leave Link  601 at Wed Jun 22 00:54:23 2016, MaxMem=    33554432 cpu:         2.0
 (Enter /home/proyectos/fulerenos/M3C-v1.9/M3C-deps_CCC/g09-AM64L-G09RevC.01/l701.exe)
 Compute integral second derivatives.
 ... and contract with generalized density number  0.
 Leave Link  701 at Wed Jun 22 00:54:24 2016, MaxMem=    33554432 cpu:         1.9
 (Enter /home/proyectos/fulerenos/M3C-v1.9/M3C-deps_CCC/g09-AM64L-G09RevC.01/l702.exe)
 L702 exits ... SP integral derivatives will be done elsewhere.
 Leave Link  702 at Wed Jun 22 00:54:24 2016, MaxMem=    33554432 cpu:         0.1
 (Enter /home/proyectos/fulerenos/M3C-v1.9/M3C-deps_CCC/g09-AM64L-G09RevC.01/l703.exe)
 Compute integral second derivatives, UseDBF=F ICtDFT=           0.
 Integral derivatives from FoFJK, PRISM(SPDF).
 Calling FoFJK, ICntrl=    100127 FMM=F ISym2X=0 I1Cent= 0 IOpClX= 1 NMat=1 NMatS=1 NMatT=0.
 FoFJK:  IHMeth= 1 ICntrl=  100127 DoSepK=F KAlg= 0 I1Cent=   0 FoldK=F
 IRaf=         0 NMat=   1 IRICut=       1 DoRegI=T DoRafI=F ISym2E= 0.
 FoFCou: FMM=F IPFlag=           0 FMFlag=      100000 FMFlg1=         800
         NFxFlg=           0 DoJE=F BraDBF=F KetDBF=F FulRan=T
         wScrn=  0.000000 ICntrl=  100127 IOpCl=  1 I1Cent=           0 NGrid=           0
         NMat0=    1 NMatS0=      1 NMatT0=    0 NMatD0=    1 NMtDS0=    0 NMtDT0=    0
 Symmetry not used in FoFCou.
 Leave Link  703 at Wed Jun 22 00:58:06 2016, MaxMem=    33554432 cpu:       888.7
 (Enter /home/proyectos/fulerenos/M3C-v1.9/M3C-deps_CCC/g09-AM64L-G09RevC.01/l716.exe)
 Dipole        = 9.87972189D-01-5.50634358D-01 1.69780453D-03
 Polarizability= 8.03118796D+01 2.48068944D-01 2.80454533D+01
                -3.96359234D-03 4.00635732D-04 1.86171824D+01
 Full mass-weighted force constant matrix:
 Low frequencies ---  -17.0877   -4.2338   -0.0007    0.0002    0.0004    3.2947
 Low frequencies ---  224.0667  272.6395  404.7033
 Diagonal vibrational polarizability:
       25.2648641      40.5075407      31.8881199
 Harmonic frequencies (cm**-1), IR intensities (KM/Mole), Raman scattering
 activities (A**4/AMU), depolarization ratios for plane and unpolarized
 incident light, reduced masses (AMU), force constants (mDyne/A),
 and normal coordinates:
                      1                      2                      3
                      A                      A                      A
 Frequencies --    224.0658               272.6378               404.7031
 Red. masses --      2.6938                 1.9976                 1.3266
 Frc consts  --      0.0797                 0.0875                 0.1280
 IR Inten    --     40.6080                47.7823                 3.6672
  Atom  AN      X      Y      Z        X      Y      Z        X      Y      Z
     1   6     0.03   0.17  -0.00     0.00   0.00   0.02    -0.00  -0.00  -0.08
     2   6     0.10  -0.19   0.00    -0.00  -0.00  -0.13    -0.00  -0.00  -0.04
     3   1     0.22   0.15  -0.00     0.00   0.00  -0.28     0.00   0.00  -0.38
     4   6     0.02   0.22  -0.00     0.00  -0.00   0.26    -0.00   0.00   0.15
     5   1     0.16  -0.54   0.00    -0.00  -0.00  -0.49     0.00  -0.00  -0.14
     6   6    -0.14  -0.11   0.00     0.00  -0.00  -0.06     0.00  -0.00  -0.00
     7   1    -0.45  -0.23   0.00    -0.00   0.00   0.36     0.00  -0.00  -0.56
     8   1    -0.05  -0.45   0.00    -0.00  -0.00  -0.67     0.00  -0.00   0.70
                      4                      5                      6
                      A                      A                      A
 Frequencies --    471.8063               591.3098               606.3163
 Red. masses --      2.0152                 2.3160                 1.2872
 Frc consts  --      0.2643                 0.4771                 0.2788
 IR Inten    --     33.6637                98.6242               171.3640
  Atom  AN      X      Y      Z        X      Y      Z        X      Y      Z
     1   6     0.02  -0.13  -0.00     0.01  -0.12  -0.00     0.00   0.00  -0.03
     2   6    -0.05  -0.04   0.00    -0.10  -0.02   0.00     0.00   0.00   0.00
     3   1     0.20  -0.15  -0.00     0.04  -0.11   0.00    -0.00   0.00   0.35
     4   6    -0.09   0.23  -0.00    -0.10   0.09   0.00     0.00  -0.00   0.04
     5   1     0.01  -0.36   0.00    -0.07  -0.23  -0.00     0.00   0.00  -0.07
     6   6     0.06  -0.08   0.00     0.22   0.16  -0.00    -0.00  -0.00  -0.15
     7   1     0.61   0.19   0.00    -0.48  -0.30   0.01     0.00   0.00   0.69
     8   1    -0.03   0.56  -0.00     0.22  -0.66   0.01    -0.00   0.00   0.60
                      7                      8                      9
                      A                      A                      A
 Frequencies --    705.8346               734.0380               748.9342
 Red. masses --      1.3692                 1.4226                 1.7861
 Frc consts  --      0.4019                 0.4516                 0.5903
 IR Inten    --     17.6773                 9.3721                20.3567
  Atom  AN      X      Y      Z        X      Y      Z        X      Y      Z
     1   6     0.01  -0.00  -0.00    -0.00  -0.00   0.13     0.00   0.00  -0.19
     2   6     0.01  -0.16   0.00     0.00  -0.00  -0.13    -0.00   0.00  -0.11
     3   1     0.08  -0.01   0.00     0.00   0.00  -0.44    -0.00  -0.00   0.72
     4   6    -0.03   0.08  -0.00     0.00   0.00   0.01     0.00  -0.00   0.12
     5   1    -0.20   0.96  -0.00     0.00   0.00   0.87    -0.00  -0.00   0.61
     6   6     0.02   0.00   0.00     0.00   0.00  -0.07    -0.00  -0.00   0.09
     7   1     0.00  -0.01  -0.00     0.00   0.00   0.12    -0.00  -0.00  -0.08
     8   1     0.01  -0.00  -0.00     0.00  -0.00   0.09    -0.00   0.00  -0.16
                     10                     11                     12
                      A                      A                      A
 Frequencies --    900.0189              1036.4905              1128.2679
 Red. masses --      3.6479                 1.1651                 1.2047
 Frc consts  --      1.7410                 0.7375                 0.9035
 IR Inten    --     21.8811               123.1303                57.1968
  Atom  AN      X      Y      Z        X      Y      Z        X      Y      Z
     1   6     0.15   0.30   0.00     0.07  -0.01   0.00    -0.07  -0.03  -0.00
     2   6    -0.26  -0.03   0.00    -0.06  -0.00   0.00     0.04   0.01  -0.00
     3   1     0.29   0.21   0.00     0.75  -0.06  -0.00     0.61  -0.12   0.00
     4   6    -0.10  -0.12  -0.00     0.00  -0.05  -0.00     0.01  -0.02   0.00
     5   1    -0.29  -0.07   0.00    -0.07  -0.03   0.00     0.05   0.01  -0.00
     6   6     0.14  -0.13  -0.00    -0.03   0.04  -0.00    -0.07   0.08   0.00
     7   1     0.57   0.09  -0.00    -0.42  -0.12  -0.00     0.48   0.24   0.00
     8   1     0.29  -0.35   0.00    -0.15   0.44   0.00    -0.12  -0.55  -0.00
                     13                     14                     15
                      A                      A                      A
 Frequencies --   1360.7278              1539.4757              1823.3877
 Red. masses --      3.6315                 1.0382                 6.4065
 Frc consts  --      3.9617                 1.4497                12.5497
 IR Inten    --    484.5724               737.9787               171.5844
  Atom  AN      X      Y      Z        X      Y      Z        X      Y      Z
     1   6     0.35  -0.13   0.00    -0.02  -0.02   0.00    -0.26  -0.01  -0.00
     2   6    -0.15  -0.03   0.00     0.01   0.00  -0.00    -0.31  -0.06   0.00
     3   1    -0.50  -0.01  -0.00     0.11  -0.07   0.00     0.09  -0.04  -0.00
     4   6     0.09   0.04  -0.00    -0.01  -0.00   0.00     0.55   0.12  -0.00
     5   1    -0.24  -0.05   0.00     0.02   0.00  -0.00    -0.66  -0.11   0.00
     6   6    -0.22   0.11   0.00    -0.03  -0.03   0.00     0.05  -0.03  -0.00
     7   1     0.05   0.54  -0.00    -0.27   0.56  -0.00     0.03  -0.15   0.00
     8   1    -0.24  -0.32   0.00     0.77   0.03  -0.00     0.16   0.05  -0.00
                     16                     17                     18
                      A                      A                      A
 Frequencies --   2288.0424              2512.3968              2877.2695
 Red. masses --      1.1972                 1.0789                 1.1638
 Frc consts  --      3.6927                 4.0125                 5.6767
 IR Inten    --   1013.1476               537.1435               632.8386
  Atom  AN      X      Y      Z        X      Y      Z        X      Y      Z
     1   6    -0.04  -0.00  -0.00    -0.01  -0.08  -0.00    -0.00   0.00  -0.00
     2   6     0.00   0.00  -0.00    -0.00  -0.00   0.00    -0.11  -0.02   0.00
     3   1     0.02   0.22  -0.00     0.12   0.97   0.00    -0.00  -0.03  -0.00
     4   6     0.00   0.00   0.00    -0.00  -0.00  -0.00     0.03   0.01  -0.00
     5   1    -0.02  -0.00  -0.00     0.03   0.01  -0.00     0.97   0.18  -0.00
     6   6     0.11  -0.07   0.00    -0.02   0.01  -0.00     0.00  -0.00   0.00
     7   1    -0.33   0.69  -0.00     0.08  -0.11   0.00    -0.01   0.01  -0.00
     8   1    -0.58  -0.09   0.00     0.14   0.00  -0.00    -0.01  -0.00   0.00

 -------------------
 - Thermochemistry -
 -------------------
 Temperature   298.150 Kelvin.  Pressure   1.00000 Atm.
 Atom     1 has atomic number  6 and mass  12.00000
 Atom     2 has atomic number  6 and mass  12.00000
 Atom     3 has atomic number  1 and mass   1.00783
 Atom     4 has atomic number  6 and mass  12.00000
 Atom     5 has atomic number  1 and mass   1.00783
 Atom     6 has atomic number  6 and mass  12.00000
 Atom     7 has atomic number  1 and mass   1.00783
 Atom     8 has atomic number  1 and mass   1.00783
 Molecular mass:    52.03130 amu.
 Principal axes and moments of inertia in atomic units:
                           1         2         3
     Eigenvalues --    30.31152 426.27399 456.58530
           X            0.99998  -0.00649   0.00001
           Y            0.00649   0.99998  -0.00001
           Z           -0.00001   0.00001   1.00000
 This molecule is an asymmetric top.
 Rotational symmetry number  1.
 Rotational temperatures (Kelvin)      2.85746     0.20319     0.18970
 Rotational constants (GHZ):          59.53978     4.23376     3.95269
 Zero-point vibrational energy     120976.7 (Joules/Mol)
                                   28.91412 (Kcal/Mol)
 Warning -- explicit consideration of   6 degrees of freedom as
           vibrations may cause significant error
 Vibrational temperatures:    322.38   392.26   582.28   678.82   850.76
          (Kelvin)            872.35  1015.54  1056.12  1077.55  1294.92
                             1491.28  1623.32  1957.78  2214.96  2623.44
                             3291.98  3614.77  4139.74
 
 Zero-point correction=                           0.046078 (Hartree/Particle)
 Thermal correction to Energy=                    0.051189
 Thermal correction to Enthalpy=                  0.052133
 Thermal correction to Gibbs Free Energy=         0.018381
 Sum of electronic and zero-point Energies=           -152.873491
 Sum of electronic and thermal Energies=              -152.868380
 Sum of electronic and thermal Enthalpies=            -152.867436
 Sum of electronic and thermal Free Energies=         -152.901188
 
                     E (Thermal)             CV                S
                      KCal/Mol        Cal/Mol-Kelvin    Cal/Mol-Kelvin
 Total                   32.121             17.964             71.037
 Electronic               0.000              0.000              2.755
 Translational            0.889              2.981             37.771
 Rotational               0.889              2.981             23.294
 Vibrational             30.344             12.002              7.218
 Vibration     1          0.649              1.804              1.926
 Vibration     2          0.676              1.724              1.579
 Vibration     3          0.770              1.460              0.946
 Vibration     4          0.829              1.313              0.733
 Vibration     5          0.949              1.050              0.465
 Vibration     6          0.965              1.018              0.439
                       Q            Log10(Q)             Ln(Q)
 Total Bot       0.351113D-08         -8.454553        -19.467327
 Total V=0       0.549061D+13         12.739621         29.334061
 Vib (Bot)       0.216411D-20        -20.664721        -47.582278
 Vib (Bot)    1  0.881277D+00         -0.054888         -0.126383
 Vib (Bot)    2  0.707901D+00         -0.150027         -0.345451
 Vib (Bot)    3  0.438891D+00         -0.357643         -0.823503
 Vib (Bot)    4  0.356963D+00         -0.447377         -1.030123
 Vib (Bot)    5  0.254778D+00         -0.593838         -1.367363
 Vib (Bot)    6  0.244672D+00         -0.611415         -1.407835
 Vib (V=0)       0.338418D+01          0.529453          1.219111
 Vib (V=0)    1  0.151324D+01          0.179907          0.414251
 Vib (V=0)    2  0.136667D+01          0.135665          0.312380
 Vib (V=0)    3  0.116530D+01          0.066438          0.152980
 Vib (V=0)    4  0.111435D+01          0.047021          0.108269
 Vib (V=0)    5  0.106117D+01          0.025785          0.059372
 Vib (V=0)    6  0.105665D+01          0.023933          0.055108
 Electronic      0.400000D+01          0.602060          1.386294
 Translational   0.147520D+08          7.168852         16.506892
 Rotational      0.274951D+05          4.439256         10.221764
 
                                                              b3lyp opt
                                                             IR Spectrum
 
      2               2         2                   1            1      1          1   1                                             
      8               5         2                   8            5      3          1   0     9     777   65     4  4    2  2         
      7               1         8                   2            3      6          2   3     0     430   09     7  0    7  2         
      7               2         8                   3            9      1          8   6     0     946   61     2  5    3  4         
 
      X               X         X                   X            X      X          X   X     X     XXX   XX     X  X    X  X         
      X               X         X                   X            X      X              X                 XX                          
      X               X         X                   X            X      X                                X                           
      X               X         X                                X      X                                                            
      X               X         X                                X      X                                                            
      X               X         X                                X      X                                                            
      X               X         X                                X      X                                                            
      X               X         X                                X      X                                                            
      X               X         X                                X      X                                                            
      X               X         X                                X      X                                                            
      X               X         X                                X                                                                   
      X                         X                                X                                                                   
                                X                                X                                                                   
                                X                                X                                                                   
                                X                                X                                                                   
                                X                                                                                                    
                                X                                                                                                    
                                X                                                                                                    
                                X                                                                                                    
                                X                                                                                                    
 
 ***** Axes restored to original set *****
 -------------------------------------------------------------------
 Center     Atomic                   Forces (Hartrees/Bohr)
 Number     Number              X              Y              Z
 -------------------------------------------------------------------
      1        6           0.000042219    0.000132968   -0.000107629
      2        6           0.000008936    0.000023795   -0.000102986
      3        1           0.000013368   -0.000073733   -0.000001159
      4        6          -0.000046594   -0.000081081    0.000159984
      5        1           0.000005368    0.000007102    0.000021391
      6        6          -0.000009875   -0.000014805    0.000062689
      7        1          -0.000003227   -0.000028297   -0.000035072
      8        1          -0.000010195    0.000034051    0.000002781
 -------------------------------------------------------------------
 Cartesian Forces:  Max     0.000159984 RMS     0.000061357
 Z-matrix is all fixed cartesians, so copy forces.
 Force constants in Cartesian coordinates: 
                1             2             3             4             5 
      1  0.661012D+00
      2 -0.462407D-01  0.382495D+00
      3 -0.279452D-03 -0.103695D-03  0.103427D+00
      4  0.140700D-02 -0.168904D-01 -0.832371D-04  0.939884D+00
      5 -0.371714D-02  0.180011D-02  0.170406D-04  0.167724D+00  0.867251D-01
      6  0.943404D-04  0.237534D-04  0.229478D-02  0.904067D-03  0.141669D-03
      7 -0.439571D-01 -0.157608D-01  0.180961D-04 -0.211970D-02  0.749376D-03
      8 -0.204938D-01 -0.188606D+00  0.718361D-04 -0.204805D-02  0.733803D-03
      9  0.100216D-03  0.867310D-04 -0.294364D-01 -0.430901D-04 -0.121875D-04
     10 -0.344744D+00 -0.581475D-01  0.256705D-03 -0.625260D+00 -0.109083D+00
     11 -0.763073D-01 -0.711120D-01  0.695274D-04 -0.110494D+00 -0.592966D-01
     12  0.783322D-04  0.223049D-04 -0.443734D-01 -0.762242D-03 -0.149074D-03
     13  0.323578D-02 -0.105909D-02  0.000000D+00 -0.288844D+00 -0.500541D-01
     14 -0.281309D-03  0.271001D-02  0.000000D+00 -0.505881D-01 -0.339924D-01
     15 -0.281343D-04  0.000000D+00  0.319381D-02 -0.353179D-04 -0.444266D-05
     16 -0.283639D+00  0.167964D+00  0.379510D-04 -0.220833D-01 -0.447866D-02
     17  0.159827D+00 -0.129611D+00 -0.732503D-05  0.104815D-01  0.260708D-02
     18  0.124052D-03 -0.516922D-04 -0.416270D-01  0.145754D-04  0.807629D-05
     19  0.970668D-02 -0.293268D-02  0.488764D-04 -0.442310D-03 -0.431707D-03
     20 -0.155991D-01 -0.445357D-02 -0.278649D-04  0.246409D-02  0.969719D-03
     21  0.115789D-04  0.339631D-04  0.528446D-02 -0.578468D-04 -0.104085D-04
     22 -0.302060D-02 -0.269332D-01  0.000000D+00 -0.254232D-02 -0.709455D-03
     23  0.281194D-02  0.677695D-02 -0.199205D-04 -0.648798D-03  0.453161D-03
     24 -0.100934D-03 -0.114900D-04  0.123641D-02  0.630919D-04  0.932620D-05
                6             7             8             9            10 
      6  0.578299D-01
      7 -0.524633D-05  0.453023D-01
      8  0.000000D+00  0.210715D-01  0.221408D+00
      9  0.219551D-03 -0.346694D-04 -0.992096D-04  0.112175D-01
     10 -0.799689D-03 -0.221984D-02 -0.140024D-01  0.112935D-04  0.968867D+00
     11 -0.165967D-03 -0.237096D-01 -0.110263D-01  0.188794D-04  0.191988D+00
     12 -0.351149D-01  0.224129D-04  0.253020D-04  0.890358D-02  0.584876D-03
     13 -0.142143D-03  0.129484D-03 -0.194861D-02 -0.628799D-05  0.181996D-01
     14 -0.249449D-04  0.336668D-03 -0.238671D-03  0.000000D+00  0.323273D-02
     15 -0.272454D-01  0.000000D+00 -0.235332D-05 -0.242966D-05 -0.609633D-04
     16 -0.237251D-04 -0.245200D-02  0.372318D-02  0.677019D-04 -0.125337D-01
     17  0.751840D-05  0.137781D-01 -0.181229D-01 -0.380351D-04 -0.114094D-01
     18  0.160034D-02 -0.540210D-05  0.154619D-04  0.766838D-02  0.124965D-04
     19 -0.147445D-04  0.793961D-04  0.692370D-02 -0.504183D-04  0.193525D-03
     20  0.120427D-04  0.266064D-02 -0.242443D-02  0.164451D-04 -0.467998D-02
     21 -0.668170D-03  0.000000D+00 -0.101651D-04  0.207364D-02  0.628235D-05
     22 -0.128602D-04  0.523744D-02  0.677449D-02 -0.447456D-04 -0.250352D-02
     23  0.620826D-05  0.874143D-03 -0.172374D-02  0.283585D-04  0.210129D-02
     24  0.108387D-02  0.572369D-05  0.000000D+00 -0.643814D-03 -0.110023D-04
               11            12            13            14            15 
     11  0.132532D+00
     12  0.101932D-03  0.555355D-01
     13  0.193023D-02  0.306629D-04  0.271549D+00
     14  0.762843D-02  0.556790D-05  0.484662D-01  0.235923D-01
     15 -0.927938D-05  0.836851D-02  0.115597D-03  0.203182D-04  0.159267D-01
     16  0.123005D-01 -0.337990D-04 -0.145231D-02 -0.711033D-03  0.676094D-05
     17  0.124979D-02  0.411085D-04  0.119766D-02 -0.836514D-04 -0.297968D-05
     18 -0.188338D-04  0.395373D-02  0.000000D+00 -0.278787D-05 -0.142524D-03
     19  0.225517D-02  0.389103D-04 -0.861263D-03 -0.137714D-03  0.279305D-05
     20  0.132540D-02 -0.233687D-04  0.182122D-02  0.399841D-03  0.000000D+00
     21 -0.591710D-05 -0.608093D-03 -0.400028D-05  0.000000D+00  0.496247D-03
     22  0.203745D-02  0.408466D-04 -0.195599D-02 -0.317405D-03  0.000000D+00
     23 -0.130105D-02 -0.237722D-04 -0.353566D-03 -0.158602D-04 -0.225398D-05
     24  0.965964D-05  0.333506D-02  0.565589D-05  0.197102D-05 -0.594899D-03
               16            17            18            19            20 
     16  0.527848D+00
     17 -0.268699D+00  0.253656D+00
     18 -0.298674D-03  0.199580D-03  0.596075D-01
     19 -0.743123D-01  0.502204D-01  0.790721D-04  0.477843D-01
     20  0.950822D-01 -0.967291D-01 -0.177301D-03 -0.448212D-01  0.119661D+00
     21  0.308132D-03 -0.233485D-03 -0.165543D-01 -0.130417D-03  0.249398D-03
     22 -0.131375D+00  0.446040D-01  0.739184D-04  0.178520D-01 -0.369280D-01
     23 -0.518117D-02 -0.129663D-01  0.274972D-04 -0.110760D-01 -0.187490D-01
     24 -0.643475D-04  0.336184D-04 -0.145062D-01  0.259276D-04 -0.502164D-04
               21            22            23            24 
     21  0.728261D-02
     22 -0.133342D-03  0.118308D+00
     23 -0.238410D-04  0.114721D-01  0.275259D-01
     24  0.269364D-02  0.758842D-04  0.772386D-05  0.739589D-02
 Leave Link  716 at Wed Jun 22 00:58:06 2016, MaxMem=    33554432 cpu:         0.1
 (Enter /home/proyectos/fulerenos/M3C-v1.9/M3C-deps_CCC/g09-AM64L-G09RevC.01/l103.exe)

 GradGradGradGradGradGradGradGradGradGradGradGradGradGradGradGradGradGrad
 Berny optimization.
 Search for a local minimum.
 Step number   1 out of a maximum of    2
 All quantities printed in internal units (Hartrees-Bohrs-Radians)
 Second derivative matrix not updated -- analytic derivatives used.
 ITU=  0
     Eigenvalues ---    0.00488   0.00501   0.01313   0.02127   0.04122
     Eigenvalues ---    0.04273   0.05504   0.06759   0.08569   0.11490
     Eigenvalues ---    0.12539   0.14900   0.15594   0.26156   0.41222
     Eigenvalues ---    0.67929   1.06761   1.73800
 Angle between quadratic step and forces=  62.87 degrees.
 Linear search not attempted -- first point.
 B after Tr=    -0.000025   -0.000204    0.000410
         Rot=    1.000000    0.000003    0.000003   -0.000003 Ang=   0.00 deg.
 Variable       Old X    -DE/DX   Delta X   Delta X   Delta X     New X
                                 (Linear)    (Quad)   (Total)
    X1       -1.08459   0.00004   0.00000  -0.00003  -0.00005  -1.08464
    Y1       -0.85101   0.00013   0.00000  -0.00036  -0.00057  -0.85158
    Z1       -0.00148  -0.00011   0.00000  -0.00025   0.00016  -0.00133
    X2        3.81834   0.00001   0.00000  -0.00022  -0.00024   3.81809
    Y2        0.35329   0.00002   0.00000   0.00040   0.00022   0.35352
    Z2        0.00022  -0.00010   0.00000  -0.00076  -0.00033  -0.00010
    X3       -1.33795   0.00001   0.00000  -0.00005  -0.00006  -1.33801
    Y3       -3.00720  -0.00007   0.00000  -0.00072  -0.00093  -3.00813
    Z3       -0.00059  -0.00000   0.00000  -0.00270  -0.00228  -0.00287
    X4        1.39930  -0.00005   0.00000   0.00001  -0.00001   1.39929
    Y4       -0.09156  -0.00008   0.00000  -0.00100  -0.00120  -0.09276
    Z4       -0.00369   0.00016   0.00000   0.00268   0.00309  -0.00060
    X5        5.90431   0.00001   0.00000  -0.00042  -0.00044   5.90387
    Y5        0.74318   0.00001   0.00000   0.00159   0.00142   0.74460
    Z5        0.00106   0.00002   0.00000  -0.00117  -0.00073   0.00033
    X6       -3.27478  -0.00001   0.00000   0.00010   0.00007  -3.27471
    Y6        0.52452  -0.00001   0.00000  -0.00018  -0.00040   0.52412
    Z6       -0.00149   0.00006   0.00000   0.00057   0.00096  -0.00053
    X7       -4.15729  -0.00000   0.00000   0.00103   0.00099  -4.15630
    Y7        2.64865  -0.00003   0.00000   0.00013  -0.00009   2.64855
    Z7        0.00326  -0.00004   0.00000  -0.00273  -0.00236   0.00090
    X8       -5.55893  -0.00001   0.00000  -0.00023  -0.00025  -5.55919
    Y8       -0.00947   0.00003   0.00000   0.00179   0.00156  -0.00791
    Z8       -0.00257   0.00000   0.00000   0.00111   0.00149  -0.00108
         Item               Value     Threshold  Converged?
 Maximum Force            0.000160     0.000450     YES
 RMS     Force            0.000061     0.000300     YES
 Maximum Displacement     0.003094     0.001800     NO 
 RMS     Displacement     0.001169     0.001200     YES
 Predicted change in Energy=-4.024534D-07
 GradGradGradGradGradGradGradGradGradGradGradGradGradGradGradGradGradGrad

 Leave Link  103 at Wed Jun 22 00:58:06 2016, MaxMem=    33554432 cpu:         0.1
 (Enter /home/proyectos/fulerenos/M3C-v1.9/M3C-deps_CCC/g09-AM64L-G09RevC.01/l9999.exe)
 1\1\GINC-BLADI10\Freq\UB3LYP\6-311++G(3df,2p)\C4H4(3+,4)\ROOT\22-Jun-2
 016\0\\#p b3lyp/6-311++G(3df,2p) freq symmetry=Loose\\b3lyp opt\\3,4\C
 ,-0.573942,-0.450334,-0.000785\C,2.020576,0.186955,0.000118\H,-0.70801
 2,-1.591342,-0.000312\C,0.74048,-0.048451,-0.001954\H,3.124428,0.39327
 5,0.000563\C,-1.732938,0.277562,-0.000789\H,-2.199941,1.401604,0.00172
 5\H,-2.941661,-0.00501,-0.00136\\Version=EM64L-G09RevE.01\State=4-A\HF
 =-152.9195685\S2=3.785232\S2-1=0.\S2A=3.750228\RMSD=3.937e-09\RMSF=6.1
 36e-05\ZeroPoint=0.0460776\Thermal=0.0511887\Dipole=-0.9879963,0.55059
 ,0.0020073\DipoleDeriv=-0.4811398,0.0200536,0.0005232,0.3616166,-0.297
 6116,-0.0000929,-0.0000182,0.000286,0.3156526,1.0678506,0.0320704,-0.0
 002807,0.0849965,0.6272448,-0.0001744,0.0010717,-0.0000512,0.6643393,0
 .1466007,0.0598921,-0.0000212,0.0927345,0.773787,-0.0000904,0.0017734,
 -0.0003259,0.2432819,-0.6763386,-0.1169367,0.0000107,-0.1776482,0.4423
 084,0.0000393,-0.0032052,0.0000159,0.3819154,1.0280151,0.1065817,0.000
 2262,0.1465351,0.2563287,0.0000442,0.0007726,0.0000933,0.2514502,0.376
 7897,-0.0221483,-0.0006348,-0.3570049,-0.053283,-0.0008128,-0.0004374,
 -0.0012199,0.4294108,0.4686468,-0.2734598,-0.0004479,-0.2735049,0.8152
 676,0.0008999,0.0015049,0.0008368,0.3550929,1.0695755,0.1939469,0.0006
 246,0.1222753,0.4359581,0.000187,-0.0014617,0.000365,0.3588569\Polar=8
 0.3118568,0.2503389,28.0454708,0.0091773,0.0063013,18.6171877\PG=C01 [
 X(C4H4)]\NImag=0\\0.66101151,-0.04624067,0.38249511,-0.00027945,-0.000
 10370,0.10342733,0.00140700,-0.01689044,-0.00008324,0.93988430,-0.0037
 1714,0.00180011,0.00001704,0.16772438,0.08672512,0.00009434,0.00002375
 ,0.00229478,0.00090407,0.00014167,0.05782989,-0.04395710,-0.01576083,0
 .00001810,-0.00211970,0.00074938,-0.00000525,0.04530231,-0.02049379,-0
 .18860563,0.00007184,-0.00204805,0.00073380,-0.00000028,0.02107151,0.2
 2140790,0.00010022,0.00008673,-0.02943639,-0.00004309,-0.00001219,0.00
 021955,-0.00003467,-0.00009921,0.01121749,-0.34474391,-0.05814752,0.00
 025671,-0.62525971,-0.10908275,-0.00079969,-0.00221984,-0.01400243,0.0
 0001129,0.96886748,-0.07630725,-0.07111203,0.00006953,-0.11049450,-0.0
 5929659,-0.00016597,-0.02370962,-0.01102629,0.00001888,0.19198805,0.13
 253235,0.00007833,0.00002230,-0.04437342,-0.00076224,-0.00014907,-0.03
 511487,0.00002241,0.00002530,0.00890358,0.00058488,0.00010193,0.055535
 51,0.00323578,-0.00105909,0.00000055,-0.28884395,-0.05005405,-0.000142
 14,0.00012948,-0.00194861,-0.00000629,0.01819963,0.00193023,0.00003066
 ,0.27154862,-0.00028131,0.00271001,0.00000040,-0.05058815,-0.03399240,
 -0.00002494,0.00033667,-0.00023867,-0.00000098,0.00323273,0.00762843,0
 .00000557,0.04846621,0.02359230,-0.00002813,0.00000013,0.00319381,-0.0
 0003532,-0.00000444,-0.02724538,-0.00000053,-0.00000235,-0.00000243,-0
 .00006096,-0.00000928,0.00836851,0.00011560,0.00002032,0.01592667,-0.2
 8363936,0.16796443,0.00003795,-0.02208331,-0.00447866,-0.00002373,-0.0
 0245200,0.00372318,0.00006770,-0.01253366,0.01230047,-0.00003380,-0.00
 145231,-0.00071103,0.00000676,0.52784843,0.15982730,-0.12961095,-0.000
 00733,0.01048146,0.00260708,0.00000752,0.01377810,-0.01812294,-0.00003
 804,-0.01140940,0.00124979,0.00004111,0.00119766,-0.00008365,-0.000002
 98,-0.26869948,0.25365617,0.00012405,-0.00005169,-0.04162698,0.0000145
 8,0.00000808,0.00160034,-0.00000540,0.00001546,0.00766838,0.00001250,-
 0.00001883,0.00395373,-0.00000004,-0.00000279,-0.00014252,-0.00029867,
 0.00019958,0.05960754,0.00970668,-0.00293268,0.00004888,-0.00044231,-0
 .00043171,-0.00001474,0.00007940,0.00692370,-0.00005042,0.00019353,0.0
 0225517,0.00003891,-0.00086126,-0.00013771,0.00000279,-0.07431232,0.05
 022037,0.00007907,0.04778430,-0.01559908,-0.00445357,-0.00002786,0.002
 46409,0.00096972,0.00001204,0.00266064,-0.00242443,0.00001645,-0.00467
 998,0.00132540,-0.00002337,0.00182122,0.00039984,0.00000087,0.09508225
 ,-0.09672914,-0.00017730,-0.04482116,0.11966115,0.00001158,0.00003396,
 0.00528446,-0.00005785,-0.00001041,-0.00066817,-0.00000039,-0.00001017
 ,0.00207364,0.00000628,-0.00000592,-0.00060809,-0.00000400,0.00000046,
 0.00049625,0.00030813,-0.00023349,-0.01655434,-0.00013042,0.00024940,0
 .00728261,-0.00302060,-0.02693321,0.00000051,-0.00254232,-0.00070945,-
 0.00001286,0.00523744,0.00677449,-0.00004475,-0.00250352,0.00203745,0.
 00004085,-0.00195599,-0.00031741,-0.00000021,-0.13137548,0.04460399,0.
 00007392,0.01785199,-0.03692798,-0.00013334,0.11830850,0.00281194,0.00
 677695,-0.00001992,-0.00064880,0.00045316,0.00000621,0.00087414,-0.001
 72374,0.00002836,0.00210129,-0.00130105,-0.00002377,-0.00035357,-0.000
 01586,-0.00000225,-0.00518117,-0.01296634,0.00002750,-0.01107598,-0.01
 874896,-0.00002384,0.01147213,0.02752585,-0.00010093,-0.00001149,0.001
 23641,0.00006309,0.00000933,0.00108387,0.00000572,-0.00000059,-0.00064
 381,-0.00001100,0.00000966,0.00333506,0.00000566,0.00000197,-0.0005949
 0,-0.00006435,0.00003362,-0.01450616,0.00002593,-0.00005022,0.00269364
 ,0.00007588,0.00000772,0.00739589\\-0.00004222,-0.00013297,0.00010763,
 -0.00000894,-0.00002380,0.00010299,-0.00001337,0.00007373,0.00000116,0
 .00004659,0.00008108,-0.00015998,-0.00000537,-0.00000710,-0.00002139,0
 .00000987,0.00001481,-0.00006269,0.00000323,0.00002830,0.00003507,0.00
 001019,-0.00003405,-0.00000278\\\@


 A MAN BEGINS CUTTING HIS WISDOM TEETH THE 1ST
 TIME HE BITES OFF MORE THAN HE CAN CHEW.
 Job cpu time:       0 days  0 hours 49 minutes 45.9 seconds.
 File lengths (MBytes):  RWF=     49 Int=      0 D2E=      0 Chk=      4 Scr=      1
 Normal termination of Gaussian 09 at Wed Jun 22 00:58:06 2016.
