 Entering Gaussian System, Link 0=/home/proyectos/fulerenos/M3C-v1.9/M3C-deps_CCC/g09-AM64L-G09RevC.01/g09
 Initial command:
 /home/proyectos/fulerenos/M3C-v1.9/M3C-deps_CCC/g09-AM64L-G09RevC.01/l1.exe "/scratch/naguirre/gaussian/Gau-1566.inp" -scrdir="/scratch/naguirre/gaussian/"
 Entering Link 1 = /home/proyectos/fulerenos/M3C-v1.9/M3C-deps_CCC/g09-AM64L-G09RevC.01/l1.exe PID=      1572.
  
 Copyright (c) 1988,1990,1992,1993,1995,1998,2003,2009,2015,
            Gaussian, Inc.  All Rights Reserved.
  
 This is part of the Gaussian(R) 09 program.  It is based on
 the Gaussian(R) 03 system (copyright 2003, Gaussian, Inc.),
 the Gaussian(R) 98 system (copyright 1998, Gaussian, Inc.),
 the Gaussian(R) 94 system (copyright 1995, Gaussian, Inc.),
 the Gaussian 92(TM) system (copyright 1992, Gaussian, Inc.),
 the Gaussian 90(TM) system (copyright 1990, Gaussian, Inc.),
 the Gaussian 88(TM) system (copyright 1988, Gaussian, Inc.),
 the Gaussian 86(TM) system (copyright 1986, Carnegie Mellon
 University), and the Gaussian 82(TM) system (copyright 1983,
 Carnegie Mellon University). Gaussian is a federally registered
 trademark of Gaussian, Inc.
  
 This software contains proprietary and confidential information,
 including trade secrets, belonging to Gaussian, Inc.
  
 This software is provided under written license and may be
 used, copied, transmitted, or stored only in accord with that
 written license.
  
 The following legend is applicable only to US Government
 contracts under FAR:
  
                    RESTRICTED RIGHTS LEGEND
  
 Use, reproduction and disclosure by the US Government is
 subject to restrictions as set forth in subparagraphs (a)
 and (c) of the Commercial Computer Software - Restricted
 Rights clause in FAR 52.227-19.
  
 Gaussian, Inc.
 340 Quinnipiac St., Bldg. 40, Wallingford CT 06492
  
  
 ---------------------------------------------------------------
 Warning -- This program may not be used in any manner that
 competes with the business of Gaussian, Inc. or will provide
 assistance to any competitor of Gaussian, Inc.  The licensee
 of this program is prohibited from giving any competitor of
 Gaussian, Inc. access to this program.  By using this program,
 the user acknowledges that Gaussian, Inc. is engaged in the
 business of creating and licensing software in the field of
 computational chemistry and represents and warrants to the
 licensee that it is not a competitor of Gaussian, Inc. and that
 it will not use this program in any manner prohibited above.
 ---------------------------------------------------------------
  

 Cite this work as:
 Gaussian 09, Revision E.01,
 M. J. Frisch, G. W. Trucks, H. B. Schlegel, G. E. Scuseria, 
 M. A. Robb, J. R. Cheeseman, G. Scalmani, V. Barone, B. Mennucci, 
 G. A. Petersson, H. Nakatsuji, M. Caricato, X. Li, H. P. Hratchian, 
 A. F. Izmaylov, J. Bloino, G. Zheng, J. L. Sonnenberg, M. Hada, 
 M. Ehara, K. Toyota, R. Fukuda, J. Hasegawa, M. Ishida, T. Nakajima, 
 Y. Honda, O. Kitao, H. Nakai, T. Vreven, J. A. Montgomery, Jr., 
 J. E. Peralta, F. Ogliaro, M. Bearpark, J. J. Heyd, E. Brothers, 
 K. N. Kudin, V. N. Staroverov, T. Keith, R. Kobayashi, J. Normand, 
 K. Raghavachari, A. Rendell, J. C. Burant, S. S. Iyengar, J. Tomasi, 
 M. Cossi, N. Rega, J. M. Millam, M. Klene, J. E. Knox, J. B. Cross, 
 V. Bakken, C. Adamo, J. Jaramillo, R. Gomperts, R. E. Stratmann, 
 O. Yazyev, A. J. Austin, R. Cammi, C. Pomelli, J. W. Ochterski, 
 R. L. Martin, K. Morokuma, V. G. Zakrzewski, G. A. Voth, 
 P. Salvador, J. J. Dannenberg, S. Dapprich, A. D. Daniels, 
 O. Farkas, J. B. Foresman, J. V. Ortiz, J. Cioslowski, 
 and D. J. Fox, Gaussian, Inc., Wallingford CT, 2013.
 
 ******************************************
 Gaussian 09:  EM64L-G09RevE.01 30-Nov-2015
                22-Jun-2016 
 ******************************************
 %NProcShared=4
 Will use up to    4 processors via shared memory.
 ---------------------------------------------
 #p b3lyp/6-311++G(3df,2p) freq symmetry=Loose
 ---------------------------------------------
 1/10=4,30=1,38=1/1,3;
 2/12=2,17=4,18=3,40=1/2;
 3/5=4,6=6,7=1216,11=2,16=1,25=1,30=1,71=2,74=-5,140=1/1,2,3;
 4//1;
 5/5=2,38=5,98=1/2;
 8/6=4,10=90,11=11/1;
 11/6=1,8=1,9=11,15=111,16=1/1,2,10;
 10/6=1/2;
 6/7=2,8=2,9=2,10=2,18=1,28=1/1;
 7/8=1,10=1,25=1/1,2,3,16;
 1/10=4,30=1/3;
 99//99;
 Leave Link    1 at Wed Jun 22 00:07:27 2016, MaxMem=           0 cpu:         0.2
 (Enter /home/proyectos/fulerenos/M3C-v1.9/M3C-deps_CCC/g09-AM64L-G09RevC.01/l101.exe)
 ---------
 b3lyp opt
 ---------
 Symbolic Z-matrix:
 Charge =  3 Multiplicity = 2
 C                    -0.55949   0.40568  -0.00028 
 C                     2.02217  -0.17913   0.00122 
 C                     0.74751   0.04895   0.00054 
 H                     3.1291   -0.38547   0.00128 
 H                    -0.75202   1.54764  -0.00156 
 C                    -1.82148  -0.29397  -0.0007 
 H                    -2.35292  -0.52507  -0.97153 
 H                    -2.35463  -0.52437   0.96927 
 
 NAtoms=      8 NQM=        8 NQMF=       0 NMMI=      0 NMMIF=      0
                NMic=       0 NMicF=      0.
                    Isotopes and Nuclear Properties:
 (Nuclear quadrupole moments (NQMom) in fm**2, nuclear magnetic moments (NMagM)
  in nuclear magnetons)

  Atom         1           2           3           4           5           6           7           8
 IAtWgt=          12          12          12           1           1          12           1           1
 AtmWgt=  12.0000000  12.0000000  12.0000000   1.0078250   1.0078250  12.0000000   1.0078250   1.0078250
 NucSpn=           0           0           0           1           1           0           1           1
 AtZEff=   0.0000000   0.0000000   0.0000000   0.0000000   0.0000000   0.0000000   0.0000000   0.0000000
 NQMom=    0.0000000   0.0000000   0.0000000   0.0000000   0.0000000   0.0000000   0.0000000   0.0000000
 NMagM=    0.0000000   0.0000000   0.0000000   2.7928460   2.7928460   0.0000000   2.7928460   2.7928460
 AtZNuc=   6.0000000   6.0000000   6.0000000   1.0000000   1.0000000   6.0000000   1.0000000   1.0000000
 Leave Link  101 at Wed Jun 22 00:07:27 2016, MaxMem=    33554432 cpu:         0.3
 (Enter /home/proyectos/fulerenos/M3C-v1.9/M3C-deps_CCC/g09-AM64L-G09RevC.01/l103.exe)

 GradGradGradGradGradGradGradGradGradGradGradGradGradGradGradGradGradGrad
 Berny optimization.
 Initialization pass.
 Trust Radius=3.00D-01 FncErr=1.00D-07 GrdErr=1.00D-07
 Number of steps in this run=      2 maximum allowed number of steps=      2.
 GradGradGradGradGradGradGradGradGradGradGradGradGradGradGradGradGradGrad

 Leave Link  103 at Wed Jun 22 00:07:27 2016, MaxMem=    33554432 cpu:         0.1
 (Enter /home/proyectos/fulerenos/M3C-v1.9/M3C-deps_CCC/g09-AM64L-G09RevC.01/l202.exe)
                          Input orientation:                          
 ---------------------------------------------------------------------
 Center     Atomic      Atomic             Coordinates (Angstroms)
 Number     Number       Type             X           Y           Z
 ---------------------------------------------------------------------
      1          6           0       -0.559492    0.405679   -0.000284
      2          6           0        2.022166   -0.179131    0.001215
      3          6           0        0.747510    0.048948    0.000540
      4          1           0        3.129096   -0.385474    0.001283
      5          1           0       -0.752022    1.547637   -0.001557
      6          6           0       -1.821480   -0.293965   -0.000703
      7          1           0       -2.352918   -0.525068   -0.971526
      8          1           0       -2.354630   -0.524368    0.969271
 ---------------------------------------------------------------------
                    Distance matrix (angstroms):
                    1          2          3          4          5
     1  C    0.000000
     2  C    2.647067   0.000000
     3  C    1.354811   1.294901   0.000000
     4  H    3.772480   1.125998   2.420883   0.000000
     5  H    1.158075   3.267699   2.120064   4.335897   0.000000
     6  C    1.442954   3.845362   2.591776   4.951422   2.129610
     7  H    2.241869   4.495248   3.299555   5.569409   2.792815
     8  H    2.242219   4.495850   3.300061   5.570237   2.793576
                    6          7          8
     6  C    0.000000
     7  H    1.130634   0.000000
     8  H    1.130568   1.940798   0.000000
 Stoichiometry    C4H4(3+,2)
 Framework group  C1[X(C4H4)]
 Deg. of freedom    18
 Full point group                 C1      NOp   1
 Largest Abelian subgroup         C1      NOp   1
 Largest concise Abelian subgroup C1      NOp   1
                         Standard orientation:                         
 ---------------------------------------------------------------------
 Center     Atomic      Atomic             Coordinates (Angstroms)
 Number     Number       Type             X           Y           Z
 ---------------------------------------------------------------------
      1          6           0        0.559572    0.405586   -0.000149
      2          6           0       -2.022112   -0.179111   -0.000029
      3          6           0       -0.747445    0.048912   -0.000119
      4          1           0       -3.129051   -0.385405    0.000573
      5          1           0        0.752153    1.547536    0.000388
      6          6           0        1.821530   -0.294113    0.000031
      7          1           0        2.353443   -0.524695    0.970717
      8          1           0        2.354184   -0.525083   -0.970080
 ---------------------------------------------------------------------
 Rotational constants (GHZ):     59.8640349      4.1173037      3.9671460
 Leave Link  202 at Wed Jun 22 00:07:27 2016, MaxMem=    33554432 cpu:         0.0
 (Enter /home/proyectos/fulerenos/M3C-v1.9/M3C-deps_CCC/g09-AM64L-G09RevC.01/l301.exe)
 Standard basis: 6-311++G(3df,2p) (5D, 7F)
 Ernie: Thresh=  0.10000D-02 Tol=  0.10000D-05 Strict=F.
 There are   220 symmetry adapted cartesian basis functions of A   symmetry.
 There are   196 symmetry adapted basis functions of A   symmetry.
   196 basis functions,   280 primitive gaussians,   220 cartesian basis functions
    13 alpha electrons       12 beta electrons
       nuclear repulsion energy        86.5422013788 Hartrees.
 IExCor=  402 DFT=T Ex+Corr=B3LYP ExCW=0 ScaHFX=  0.200000
 ScaDFX=  0.800000  0.720000  1.000000  0.810000 ScalE2=  1.000000  1.000000
 IRadAn=      0 IRanWt=     -1 IRanGd=            0 ICorTp=0 IEmpDi=  4
 NAtoms=    8 NActive=    8 NUniq=    8 SFac= 1.00D+00 NAtFMM=   60 NAOKFM=F Big=F
 Integral buffers will be    131072 words long.
 Raffenetti 2 integral format.
 Two-electron integral symmetry is turned on.
 Leave Link  301 at Wed Jun 22 00:07:27 2016, MaxMem=    33554432 cpu:         0.3
 (Enter /home/proyectos/fulerenos/M3C-v1.9/M3C-deps_CCC/g09-AM64L-G09RevC.01/l302.exe)
 NPDir=0 NMtPBC=     1 NCelOv=     1 NCel=       1 NClECP=     1 NCelD=      1
         NCelK=      1 NCelE2=     1 NClLst=     1 CellRange=     0.0.
 One-electron integrals computed using PRISM.
 NBasis=   196 RedAO= T EigKep=  1.22D-06  NBF=   196
 NBsUse=   196 1.00D-06 EigRej= -1.00D+00 NBFU=   196
 Precomputing XC quadrature grid using
 IXCGrd= 4 IRadAn=           0 IRanWt=          -1 IRanGd=           0 AccXCQ= 0.00D+00.
 Generated NRdTot=       0 NPtTot=           0 NUsed=           0 NTot=          32
 NSgBfM=   220   220   220   220   220 MxSgAt=     8 MxSgA2=     8.
 Leave Link  302 at Wed Jun 22 00:07:28 2016, MaxMem=    33554432 cpu:         1.2
 (Enter /home/proyectos/fulerenos/M3C-v1.9/M3C-deps_CCC/g09-AM64L-G09RevC.01/l303.exe)
 DipDrv:  MaxL=1.
 Leave Link  303 at Wed Jun 22 00:07:28 2016, MaxMem=    33554432 cpu:         0.1
 (Enter /home/proyectos/fulerenos/M3C-v1.9/M3C-deps_CCC/g09-AM64L-G09RevC.01/l401.exe)
 ExpMin= 3.60D-02 ExpMax= 4.56D+03 ExpMxC= 6.82D+02 IAcc=3 IRadAn=         5 AccDes= 0.00D+00
 Harris functional with IExCor=  402 and IRadAn=       5 diagonalized for initial guess.
 HarFok:  IExCor=  402 AccDes= 0.00D+00 IRadAn=         5 IDoV= 1 UseB2=F ITyADJ=14
 ICtDFT=  3500011 ScaDFX=  1.000000  1.000000  1.000000  1.000000
 FoFCou: FMM=F IPFlag=           0 FMFlag=      100000 FMFlg1=           0
         NFxFlg=           0 DoJE=T BraDBF=F KetDBF=T FulRan=T
         wScrn=  0.000000 ICntrl=     500 IOpCl=  0 I1Cent=   200000004 NGrid=           0
         NMat0=    1 NMatS0=      1 NMatT0=    0 NMatD0=    1 NMtDS0=    0 NMtDT0=    0
 Petite list used in FoFCou.
 Harris En= -153.838437687921    
 JPrj=0 DoOrth=F DoCkMO=F.
 Initial guess <Sx>= 0.0000 <Sy>= 0.0000 <Sz>= 0.5000 <S**2>= 0.7500 S= 0.5000
 Leave Link  401 at Wed Jun 22 00:07:30 2016, MaxMem=    33554432 cpu:        10.2
 (Enter /home/proyectos/fulerenos/M3C-v1.9/M3C-deps_CCC/g09-AM64L-G09RevC.01/l502.exe)
 UHF open shell SCF:
 Using DIIS extrapolation, IDIIS=  1040.
 Integral symmetry usage will be decided dynamically.
 IVT=      166662 IEndB=      166662 NGot=    33554432 MDV=    33453031
 LenX=    33453031 LenY=    33404190
 Requested convergence on RMS density matrix=1.00D-08 within 128 cycles.
 Requested convergence on MAX density matrix=1.00D-06.
 Requested convergence on             energy=1.00D-06.
 No special actions if energy rises.
 Fock matrices will be formed incrementally for  20 cycles.

 Cycle   1  Pass 1  IDiag  1:
 FoFJK:  IHMeth= 1 ICntrl=       0 DoSepK=F KAlg= 0 I1Cent=   0 FoldK=F
 IRaf= 970000000 NMat=   1 IRICut=       1 DoRegI=T DoRafI=F ISym2E= 0.
 FoFCou: FMM=F IPFlag=           0 FMFlag=      100000 FMFlg1=           0
         NFxFlg=           0 DoJE=F BraDBF=F KetDBF=F FulRan=T
         wScrn=  0.000000 ICntrl=       0 IOpCl=  1 I1Cent=           0 NGrid=           0
         NMat0=    1 NMatS0=      1 NMatT0=    0 NMatD0=    1 NMtDS0=    0 NMtDT0=    0
 Symmetry not used in FoFCou.
 E= -152.951687659778    
 DIIS: error= 1.80D-02 at cycle   1 NSaved=   1.
 NSaved= 1 IEnMin= 1 EnMin= -152.951687659778     IErMin= 1 ErrMin= 1.80D-02
 ErrMax= 1.80D-02  0.00D+00 EMaxC= 1.00D-01 BMatC= 1.49D-01 BMatP= 1.49D-01
 IDIUse=3 WtCom= 8.20D-01 WtEn= 1.80D-01
 Coeff-Com:  0.100D+01
 Coeff-En:   0.100D+01
 Coeff:      0.100D+01
 Gap=     0.180 Goal=   None    Shift=    0.000
 Gap=     0.130 Goal=   None    Shift=    0.000
 GapD=    0.130 DampG=1.000 DampE=0.500 DampFc=0.5000 IDamp=-1.
 Damping current iteration by 5.00D-01
 RMSDP=2.32D-02 MaxDP=2.85D+00              OVMax= 1.18D-01

 Cycle   2  Pass 1  IDiag  1:
 RMSU=  5.92D-03    CP:  1.28D+00
 E= -152.979171889022     Delta-E=       -0.027484229243 Rises=F Damp=T
 DIIS: error= 4.81D-03 at cycle   2 NSaved=   2.
 NSaved= 2 IEnMin= 2 EnMin= -152.979171889022     IErMin= 2 ErrMin= 4.81D-03
 ErrMax= 4.81D-03  0.00D+00 EMaxC= 1.00D-01 BMatC= 2.30D-02 BMatP= 1.49D-01
 IDIUse=3 WtCom= 9.52D-01 WtEn= 4.81D-02
 Coeff-Com: -0.277D+00 0.128D+01
 Coeff-En:   0.000D+00 0.100D+01
 Coeff:     -0.264D+00 0.126D+01
 Gap=     0.197 Goal=   None    Shift=    0.000
 Gap=     0.131 Goal=   None    Shift=    0.000
 RMSDP=1.20D-02 MaxDP=1.51D+00 DE=-2.75D-02 OVMax= 5.75D-02

 Cycle   3  Pass 1  IDiag  1:
 RMSU=  1.80D-03    CP:  1.57D+00  1.95D+00
 E= -153.002387087929     Delta-E=       -0.023215198907 Rises=F Damp=F
 DIIS: error= 4.26D-03 at cycle   3 NSaved=   3.
 NSaved= 3 IEnMin= 3 EnMin= -153.002387087929     IErMin= 3 ErrMin= 4.26D-03
 ErrMax= 4.26D-03  0.00D+00 EMaxC= 1.00D-01 BMatC= 7.17D-03 BMatP= 2.30D-02
 IDIUse=3 WtCom= 9.57D-01 WtEn= 4.26D-02
 Coeff-Com: -0.171D+00 0.503D+00 0.668D+00
 Coeff-En:   0.000D+00 0.000D+00 0.100D+01
 Coeff:     -0.164D+00 0.482D+00 0.682D+00
 Gap=     0.185 Goal=   None    Shift=    0.000
 Gap=     0.139 Goal=   None    Shift=    0.000
 RMSDP=1.39D-03 MaxDP=1.55D-01 DE=-2.32D-02 OVMax= 6.02D-02

 Cycle   4  Pass 1  IDiag  1:
 RMSU=  6.83D-04    CP:  1.59D+00  2.07D+00  8.63D-01
 E= -153.002261004915     Delta-E=        0.000126083014 Rises=F Damp=F
 DIIS: error= 4.98D-03 at cycle   4 NSaved=   4.
 NSaved= 4 IEnMin= 3 EnMin= -153.002387087929     IErMin= 3 ErrMin= 4.26D-03
 ErrMax= 4.98D-03  0.00D+00 EMaxC= 1.00D-01 BMatC= 6.99D-03 BMatP= 7.17D-03
 IDIUse=3 WtCom= 9.50D-01 WtEn= 4.98D-02
 Coeff-Com: -0.707D-01 0.141D+00 0.504D+00 0.425D+00
 Coeff-En:   0.000D+00 0.000D+00 0.512D+00 0.488D+00
 Coeff:     -0.672D-01 0.134D+00 0.505D+00 0.428D+00
 Gap=     0.192 Goal=   None    Shift=    0.000
 Gap=     0.136 Goal=   None    Shift=    0.000
 RMSDP=4.86D-04 MaxDP=4.47D-02 DE= 1.26D-04 OVMax= 3.64D-02

 Cycle   5  Pass 1  IDiag  1:
 RMSU=  2.83D-04    CP:  1.58D+00  2.06D+00  8.73D-01  5.21D-01
 E= -153.004377362670     Delta-E=       -0.002116357755 Rises=F Damp=F
 DIIS: error= 1.01D-03 at cycle   5 NSaved=   5.
 NSaved= 5 IEnMin= 5 EnMin= -153.004377362670     IErMin= 5 ErrMin= 1.01D-03
 ErrMax= 1.01D-03  0.00D+00 EMaxC= 1.00D-01 BMatC= 3.40D-04 BMatP= 6.99D-03
 IDIUse=3 WtCom= 9.90D-01 WtEn= 1.01D-02
 Coeff-Com: -0.314D-01 0.588D-01 0.267D+00 0.270D+00 0.435D+00
 Coeff-En:   0.000D+00 0.000D+00 0.000D+00 0.000D+00 0.100D+01
 Coeff:     -0.311D-01 0.582D-01 0.265D+00 0.267D+00 0.441D+00
 Gap=     0.192 Goal=   None    Shift=    0.000
 Gap=     0.136 Goal=   None    Shift=    0.000
 RMSDP=1.61D-04 MaxDP=1.01D-02 DE=-2.12D-03 OVMax= 6.67D-03

 Cycle   6  Pass 1  IDiag  1:
 RMSU=  1.10D-04    CP:  1.58D+00  2.06D+00  8.62D-01  5.33D-01  6.19D-01
 E= -153.004475516044     Delta-E=       -0.000098153374 Rises=F Damp=F
 DIIS: error= 2.16D-04 at cycle   6 NSaved=   6.
 NSaved= 6 IEnMin= 6 EnMin= -153.004475516044     IErMin= 6 ErrMin= 2.16D-04
 ErrMax= 2.16D-04  0.00D+00 EMaxC= 1.00D-01 BMatC= 1.92D-05 BMatP= 3.40D-04
 IDIUse=3 WtCom= 9.98D-01 WtEn= 2.16D-03
 Coeff-Com:  0.276D-03-0.369D-02 0.253D-02 0.268D-01 0.172D+00 0.802D+00
 Coeff-En:   0.000D+00 0.000D+00 0.000D+00 0.000D+00 0.000D+00 0.100D+01
 Coeff:      0.275D-03-0.369D-02 0.253D-02 0.267D-01 0.172D+00 0.802D+00
 Gap=     0.192 Goal=   None    Shift=    0.000
 Gap=     0.137 Goal=   None    Shift=    0.000
 RMSDP=5.44D-05 MaxDP=3.63D-03 DE=-9.82D-05 OVMax= 3.92D-03

 Cycle   7  Pass 1  IDiag  1:
 RMSU=  3.88D-05    CP:  1.58D+00  2.06D+00  8.61D-01  5.59D-01  7.00D-01
                    CP:  9.39D-01
 E= -153.004490654626     Delta-E=       -0.000015138582 Rises=F Damp=F
 DIIS: error= 1.59D-04 at cycle   7 NSaved=   7.
 NSaved= 7 IEnMin= 7 EnMin= -153.004490654626     IErMin= 7 ErrMin= 1.59D-04
 ErrMax= 1.59D-04  0.00D+00 EMaxC= 1.00D-01 BMatC= 3.80D-06 BMatP= 1.92D-05
 IDIUse=3 WtCom= 9.98D-01 WtEn= 1.59D-03
 Coeff-Com:  0.385D-02-0.730D-02-0.321D-01-0.385D-01-0.564D-01 0.673D-01
 Coeff-Com:  0.106D+01
 Coeff-En:   0.000D+00 0.000D+00 0.000D+00 0.000D+00 0.000D+00 0.000D+00
 Coeff-En:   0.100D+01
 Coeff:      0.385D-02-0.729D-02-0.321D-01-0.385D-01-0.563D-01 0.672D-01
 Coeff:      0.106D+01
 Gap=     0.192 Goal=   None    Shift=    0.000
 Gap=     0.137 Goal=   None    Shift=    0.000
 RMSDP=4.09D-05 MaxDP=3.27D-03 DE=-1.51D-05 OVMax= 3.40D-03

 Cycle   8  Pass 1  IDiag  1:
 RMSU=  2.10D-05    CP:  1.58D+00  2.07D+00  8.54D-01  5.58D-01  7.63D-01
                    CP:  1.11D+00  1.07D+00
 E= -153.004498340222     Delta-E=       -0.000007685596 Rises=F Damp=F
 DIIS: error= 1.04D-04 at cycle   8 NSaved=   8.
 NSaved= 8 IEnMin= 8 EnMin= -153.004498340222     IErMin= 8 ErrMin= 1.04D-04
 ErrMax= 1.04D-04  0.00D+00 EMaxC= 1.00D-01 BMatC= 1.32D-06 BMatP= 3.80D-06
 IDIUse=3 WtCom= 9.99D-01 WtEn= 1.04D-03
 Coeff-Com:  0.606D-03 0.147D-03-0.217D-02-0.136D-01-0.649D-01-0.263D+00
 Coeff-Com:  0.105D+00 0.124D+01
 Coeff-En:   0.000D+00 0.000D+00 0.000D+00 0.000D+00 0.000D+00 0.000D+00
 Coeff-En:   0.000D+00 0.100D+01
 Coeff:      0.606D-03 0.147D-03-0.217D-02-0.136D-01-0.648D-01-0.263D+00
 Coeff:      0.105D+00 0.124D+01
 Gap=     0.192 Goal=   None    Shift=    0.000
 Gap=     0.137 Goal=   None    Shift=    0.000
 RMSDP=2.44D-05 MaxDP=1.99D-03 DE=-7.69D-06 OVMax= 3.43D-03

 Cycle   9  Pass 1  IDiag  1:
 RMSU=  9.20D-06    CP:  1.58D+00  2.07D+00  8.54D-01  5.50D-01  7.81D-01
                    CP:  1.19D+00  1.32D+00  1.41D+00
 E= -153.004502480061     Delta-E=       -0.000004139839 Rises=F Damp=F
 DIIS: error= 6.46D-05 at cycle   9 NSaved=   9.
 NSaved= 9 IEnMin= 9 EnMin= -153.004502480061     IErMin= 9 ErrMin= 6.46D-05
 ErrMax= 6.46D-05  0.00D+00 EMaxC= 1.00D-01 BMatC= 4.34D-07 BMatP= 1.32D-06
 IDIUse=1 WtCom= 1.00D+00 WtEn= 0.00D+00
 Coeff-Com: -0.122D-02 0.286D-02 0.112D-01 0.939D-02-0.831D-02-0.121D+00
 Coeff-Com: -0.301D+00 0.434D+00 0.973D+00
 Coeff:     -0.122D-02 0.286D-02 0.112D-01 0.939D-02-0.831D-02-0.121D+00
 Coeff:     -0.301D+00 0.434D+00 0.973D+00
 Gap=     0.192 Goal=   None    Shift=    0.000
 Gap=     0.137 Goal=   None    Shift=    0.000
 RMSDP=1.05D-05 MaxDP=9.66D-04 DE=-4.14D-06 OVMax= 2.09D-03

 Cycle  10  Pass 1  IDiag  1:
 RMSU=  5.74D-06    CP:  1.58D+00  2.07D+00  8.54D-01  5.50D-01  7.89D-01
                    CP:  1.19D+00  1.37D+00  1.66D+00  1.33D+00
 E= -153.004503515295     Delta-E=       -0.000001035234 Rises=F Damp=F
 DIIS: error= 2.35D-05 at cycle  10 NSaved=  10.
 NSaved=10 IEnMin=10 EnMin= -153.004503515295     IErMin=10 ErrMin= 2.35D-05
 ErrMax= 2.35D-05  0.00D+00 EMaxC= 1.00D-01 BMatC= 9.81D-08 BMatP= 4.34D-07
 IDIUse=1 WtCom= 1.00D+00 WtEn= 0.00D+00
 Coeff-Com: -0.618D-03 0.107D-02 0.492D-02 0.719D-02 0.142D-01 0.274D-01
 Coeff-Com: -0.156D+00-0.176D+00 0.407D+00 0.870D+00
 Coeff:     -0.618D-03 0.107D-02 0.492D-02 0.719D-02 0.142D-01 0.274D-01
 Coeff:     -0.156D+00-0.176D+00 0.407D+00 0.870D+00
 Gap=     0.192 Goal=   None    Shift=    0.000
 Gap=     0.137 Goal=   None    Shift=    0.000
 RMSDP=5.99D-06 MaxDP=4.45D-04 DE=-1.04D-06 OVMax= 8.13D-04

 Cycle  11  Pass 1  IDiag  1:
 RMSU=  3.41D-06    CP:  1.58D+00  2.07D+00  8.54D-01  5.48D-01  7.83D-01
                    CP:  1.21D+00  1.36D+00  1.69D+00  1.54D+00  1.27D+00
 E= -153.004503665251     Delta-E=       -0.000000149956 Rises=F Damp=F
 DIIS: error= 3.88D-06 at cycle  11 NSaved=  11.
 NSaved=11 IEnMin=11 EnMin= -153.004503665251     IErMin=11 ErrMin= 3.88D-06
 ErrMax= 3.88D-06  0.00D+00 EMaxC= 1.00D-01 BMatC= 4.37D-09 BMatP= 9.81D-08
 IDIUse=1 WtCom= 1.00D+00 WtEn= 0.00D+00
 Coeff-Com:  0.593D-04-0.161D-03-0.987D-03-0.975D-03 0.186D-02 0.137D-01
 Coeff-Com:  0.260D-01-0.523D-01-0.964D-01 0.197D-01 0.109D+01
 Coeff:      0.593D-04-0.161D-03-0.987D-03-0.975D-03 0.186D-02 0.137D-01
 Coeff:      0.260D-01-0.523D-01-0.964D-01 0.197D-01 0.109D+01
 Gap=     0.192 Goal=   None    Shift=    0.000
 Gap=     0.137 Goal=   None    Shift=    0.000
 RMSDP=2.19D-06 MaxDP=1.84D-04 DE=-1.50D-07 OVMax= 1.73D-04

 Cycle  12  Pass 1  IDiag  1:
 RMSU=  8.06D-07    CP:  1.58D+00  2.07D+00  8.55D-01  5.47D-01  7.81D-01
                    CP:  1.20D+00  1.35D+00  1.66D+00  1.58D+00  1.43D+00
                    CP:  1.25D+00
 E= -153.004503671507     Delta-E=       -0.000000006257 Rises=F Damp=F
 DIIS: error= 7.89D-07 at cycle  12 NSaved=  12.
 NSaved=12 IEnMin=12 EnMin= -153.004503671507     IErMin=12 ErrMin= 7.89D-07
 ErrMax= 7.89D-07  0.00D+00 EMaxC= 1.00D-01 BMatC= 1.99D-10 BMatP= 4.37D-09
 IDIUse=1 WtCom= 1.00D+00 WtEn= 0.00D+00
 Coeff-Com:  0.456D-04-0.840D-04-0.326D-03-0.403D-03-0.775D-03-0.218D-02
 Coeff-Com:  0.978D-02 0.110D-01-0.240D-01-0.606D-01 0.801D-02 0.106D+01
 Coeff:      0.456D-04-0.840D-04-0.326D-03-0.403D-03-0.775D-03-0.218D-02
 Coeff:      0.978D-02 0.110D-01-0.240D-01-0.606D-01 0.801D-02 0.106D+01
 Gap=     0.192 Goal=   None    Shift=    0.000
 Gap=     0.137 Goal=   None    Shift=    0.000
 RMSDP=6.65D-07 MaxDP=7.41D-05 DE=-6.26D-09 OVMax= 2.24D-05

 Cycle  13  Pass 1  IDiag  1:
 RMSU=  1.62D-07    CP:  1.58D+00  2.07D+00  8.55D-01  5.47D-01  7.81D-01
                    CP:  1.20D+00  1.34D+00  1.65D+00  1.59D+00  1.45D+00
                    CP:  1.33D+00  1.21D+00
 E= -153.004503671670     Delta-E=       -0.000000000163 Rises=F Damp=F
 DIIS: error= 1.60D-07 at cycle  13 NSaved=  13.
 NSaved=13 IEnMin=13 EnMin= -153.004503671670     IErMin=13 ErrMin= 1.60D-07
 ErrMax= 1.60D-07  0.00D+00 EMaxC= 1.00D-01 BMatC= 1.23D-11 BMatP= 1.99D-10
 IDIUse=1 WtCom= 1.00D+00 WtEn= 0.00D+00
 Coeff-Com:  0.651D-06 0.178D-06 0.228D-04 0.417D-04-0.144D-03-0.724D-03
 Coeff-Com: -0.914D-03 0.310D-02 0.353D-02-0.272D-02-0.495D-01 0.299D-01
 Coeff-Com:  0.102D+01
 Coeff:      0.651D-06 0.178D-06 0.228D-04 0.417D-04-0.144D-03-0.724D-03
 Coeff:     -0.914D-03 0.310D-02 0.353D-02-0.272D-02-0.495D-01 0.299D-01
 Coeff:      0.102D+01
 Gap=     0.192 Goal=   None    Shift=    0.000
 Gap=     0.137 Goal=   None    Shift=    0.000
 RMSDP=7.41D-08 MaxDP=6.76D-06 DE=-1.63D-10 OVMax= 2.07D-06

 Cycle  14  Pass 1  IDiag  1:
 RMSU=  1.97D-08    CP:  1.58D+00  2.07D+00  8.55D-01  5.47D-01  7.81D-01
                    CP:  1.20D+00  1.34D+00  1.65D+00  1.58D+00  1.45D+00
                    CP:  1.33D+00  1.27D+00  1.09D+00
 E= -153.004503671677     Delta-E=       -0.000000000007 Rises=F Damp=F
 DIIS: error= 5.66D-08 at cycle  14 NSaved=  14.
 NSaved=14 IEnMin=14 EnMin= -153.004503671677     IErMin=14 ErrMin= 5.66D-08
 ErrMax= 5.66D-08  0.00D+00 EMaxC= 1.00D-01 BMatC= 6.56D-13 BMatP= 1.23D-11
 IDIUse=1 WtCom= 1.00D+00 WtEn= 0.00D+00
 Coeff-Com: -0.341D-05 0.650D-05 0.192D-04 0.225D-04 0.591D-04 0.247D-03
 Coeff-Com: -0.574D-03-0.959D-03 0.120D-02 0.419D-02 0.473D-02-0.745D-01
 Coeff-Com: -0.922D-01 0.116D+01
 Coeff:     -0.341D-05 0.650D-05 0.192D-04 0.225D-04 0.591D-04 0.247D-03
 Coeff:     -0.574D-03-0.959D-03 0.120D-02 0.419D-02 0.473D-02-0.745D-01
 Coeff:     -0.922D-01 0.116D+01
 Gap=     0.192 Goal=   None    Shift=    0.000
 Gap=     0.137 Goal=   None    Shift=    0.000
 RMSDP=1.13D-08 MaxDP=7.87D-07 DE=-6.71D-12 OVMax= 9.24D-07

 Cycle  15  Pass 1  IDiag  1:
 RMSU=  4.33D-09    CP:  1.58D+00  2.07D+00  8.55D-01  5.47D-01  7.81D-01
                    CP:  1.20D+00  1.34D+00  1.65D+00  1.58D+00  1.45D+00
                    CP:  1.33D+00  1.27D+00  1.13D+00  1.17D+00
 E= -153.004503671677     Delta-E=        0.000000000000 Rises=F Damp=F
 DIIS: error= 1.17D-08 at cycle  15 NSaved=  15.
 NSaved=15 IEnMin=14 EnMin= -153.004503671677     IErMin=15 ErrMin= 1.17D-08
 ErrMax= 1.17D-08  0.00D+00 EMaxC= 1.00D-01 BMatC= 4.04D-14 BMatP= 6.56D-13
 IDIUse=1 WtCom= 1.00D+00 WtEn= 0.00D+00
 Coeff-Com:  0.765D-06-0.157D-05-0.494D-05-0.679D-05-0.592D-05-0.197D-04
 Coeff-Com:  0.185D-03 0.448D-04-0.435D-03-0.799D-03 0.120D-02 0.158D-01
 Coeff-Com: -0.271D-01-0.265D+00 0.128D+01
 Coeff:      0.765D-06-0.157D-05-0.494D-05-0.679D-05-0.592D-05-0.197D-04
 Coeff:      0.185D-03 0.448D-04-0.435D-03-0.799D-03 0.120D-02 0.158D-01
 Coeff:     -0.271D-01-0.265D+00 0.128D+01
 Gap=     0.192 Goal=   None    Shift=    0.000
 Gap=     0.137 Goal=   None    Shift=    0.000
 RMSDP=6.23D-09 MaxDP=4.94D-07 DE= 2.27D-13 OVMax= 2.05D-07

 SCF Done:  E(UB3LYP) =  -153.004503672     A.U. after   15 cycles
            NFock= 15  Conv=0.62D-08     -V/T= 2.0044
 <Sx>= 0.0000 <Sy>= 0.0000 <Sz>= 0.5000 <S**2>= 0.7585 S= 0.5042
 <L.S>= 0.000000000000E+00
 KE= 1.523386643900D+02 PE=-5.083090309675D+02 EE= 1.164236615270D+02
 Annihilation of the first spin contaminant:
 S**2 before annihilation     0.7585,   after     0.7500
 Leave Link  502 at Wed Jun 22 00:09:30 2016, MaxMem=    33554432 cpu:       475.9
 (Enter /home/proyectos/fulerenos/M3C-v1.9/M3C-deps_CCC/g09-AM64L-G09RevC.01/l801.exe)
 DoSCS=F DFT=T ScalE2(SS,OS)=  1.000000  1.000000
 Range of M.O.s used for correlation:     1   196
 NBasis=   196 NAE=    13 NBE=    12 NFC=     0 NFV=     0
 NROrb=    196 NOA=    13 NOB=    12 NVA=   183 NVB=   184

 **** Warning!!: The largest alpha MO coefficient is  0.20538722D+03


 **** Warning!!: The largest beta MO coefficient is  0.21033116D+03

 Leave Link  801 at Wed Jun 22 00:09:30 2016, MaxMem=    33554432 cpu:         0.1
 (Enter /home/proyectos/fulerenos/M3C-v1.9/M3C-deps_CCC/g09-AM64L-G09RevC.01/l1101.exe)
 Using compressed storage, NAtomX=     8.
 Will process      9 centers per pass.
 Leave Link 1101 at Wed Jun 22 00:09:31 2016, MaxMem=    33554432 cpu:         2.2
 (Enter /home/proyectos/fulerenos/M3C-v1.9/M3C-deps_CCC/g09-AM64L-G09RevC.01/l1102.exe)
 Symmetrizing basis deriv contribution to polar:
 IMax=3 JMax=2 DiffMx= 0.00D+00
 Leave Link 1102 at Wed Jun 22 00:09:31 2016, MaxMem=    33554432 cpu:         0.4
 (Enter /home/proyectos/fulerenos/M3C-v1.9/M3C-deps_CCC/g09-AM64L-G09RevC.01/l1110.exe)
 Forming Gx(P) for the SCF density, NAtomX=     8.
 Integral derivatives from FoFJK, PRISM(SPDF).
 Do as many integral derivatives as possible in FoFJK.
 G2DrvN: MDV=      33554264.
 G2DrvN: will do     9 centers at a time, making    1 passes.
 Calling FoFCou, ICntrl=  3107 FMM=F I1Cent=   0 AccDes= 0.00D+00.
 FoFJK:  IHMeth= 1 ICntrl=    3107 DoSepK=F KAlg= 0 I1Cent=   0 FoldK=F
 IRaf=         0 NMat=   1 IRICut=       1 DoRegI=T DoRafI=F ISym2E= 0.
 FoFCou: FMM=F IPFlag=           0 FMFlag=      100000 FMFlg1=           0
         NFxFlg=           0 DoJE=F BraDBF=F KetDBF=F FulRan=T
         wScrn=  0.000000 ICntrl=    3107 IOpCl=  1 I1Cent=           0 NGrid=           0
         NMat0=    1 NMatS0=      1 NMatT0=    0 NMatD0=    1 NMtDS0=    0 NMtDT0=    0
 Symmetry not used in FoFCou.
 End of G2Drv F.D. properties file   721 does not exist.
 End of G2Drv F.D. properties file   722 does not exist.
 End of G2Drv F.D. properties file   788 does not exist.
 Leave Link 1110 at Wed Jun 22 00:11:12 2016, MaxMem=    33554432 cpu:       402.9
 (Enter /home/proyectos/fulerenos/M3C-v1.9/M3C-deps_CCC/g09-AM64L-G09RevC.01/l1002.exe)
 Minotr:  UHF open shell wavefunction.
          IDoAtm=11111111
          Direct CPHF calculation.
          Differentiating once with respect to electric field.
                with respect to dipole field.
          Differentiating once with respect to nuclear coordinates.
          Requested convergence is 1.0D-08 RMS, and 1.0D-07 maximum.
          Secondary convergence is 1.0D-12 RMS, and 1.0D-12 maximum.
          NewPWx=T KeepS1=F KeepF1=F KeepIn=T MapXYZ=F SortEE=F KeepMc=T.
          MDV=      33553956 using IRadAn=       2.
 Generate precomputed XC quadrature information.
          Solving linear equations simultaneously, MaxMat=       0.
 FoFJK:  IHMeth= 1 ICntrl=       0 DoSepK=F KAlg= 0 I1Cent=   0 FoldK=F
 IRaf= 970000000 NMat=  27 IRICut=      67 DoRegI=T DoRafI=T ISym2E= 2.
 FoFCou: FMM=F IPFlag=           0 FMFlag=      100000 FMFlg1=           0
         NFxFlg=           0 DoJE=F BraDBF=F KetDBF=F FulRan=T
         wScrn=  0.000000 ICntrl=       0 IOpCl=  1 I1Cent=           0 NGrid=           0
         NMat0=   27 NMatS0=     27 NMatT0=    0 NMatD0=   27 NMtDS0=    0 NMtDT0=    0
 Integrals replicated using symmetry in FoFCou.
          There are    27 degrees of freedom in the 1st order CPHF.  IDoFFX=6 NUNeed=     3.
     26 vectors produced by pass  0 Test12= 1.70D-14 3.70D-09 XBig12= 2.47D+02 9.87D+00.
 AX will form    26 AO Fock derivatives at one time.
     24 vectors produced by pass  1 Test12= 1.70D-14 3.70D-09 XBig12= 4.37D+01 1.75D+00.
     24 vectors produced by pass  2 Test12= 1.70D-14 3.70D-09 XBig12= 5.60D-01 1.76D-01.
     24 vectors produced by pass  3 Test12= 1.70D-14 3.70D-09 XBig12= 9.42D-03 2.20D-02.
     24 vectors produced by pass  4 Test12= 1.70D-14 3.70D-09 XBig12= 9.79D-05 1.80D-03.
     24 vectors produced by pass  5 Test12= 1.70D-14 3.70D-09 XBig12= 2.90D-07 8.26D-05.
     19 vectors produced by pass  6 Test12= 1.70D-14 3.70D-09 XBig12= 9.89D-10 4.37D-06.
      5 vectors produced by pass  7 Test12= 1.70D-14 3.70D-09 XBig12= 3.51D-12 2.66D-07.
      4 vectors produced by pass  8 Test12= 1.70D-14 3.70D-09 XBig12= 8.09D-13 1.89D-07.
      3 vectors produced by pass  9 Test12= 1.70D-14 3.70D-09 XBig12= 5.33D-14 3.57D-08.
      3 vectors produced by pass 10 Test12= 1.70D-14 3.70D-09 XBig12= 1.83D-15 8.04D-09.
      2 vectors produced by pass 11 Test12= 1.70D-14 3.70D-09 XBig12= 6.64D-16 4.57D-09.
 InvSVY:  IOpt=1 It=  1 EMax= 7.11D-15
 Solved reduced A of dimension   182 with    27 vectors.
 FullF1:  Do perturbations    1 to     3.
 Isotropic polarizability for W=    0.000000       36.81 Bohr**3.
 End of Minotr F.D. properties file   721 does not exist.
 End of Minotr F.D. properties file   722 does not exist.
 End of Minotr F.D. properties file   788 does not exist.
 Leave Link 1002 at Wed Jun 22 00:16:10 2016, MaxMem=    33554432 cpu:      1191.2
 (Enter /home/proyectos/fulerenos/M3C-v1.9/M3C-deps_CCC/g09-AM64L-G09RevC.01/l601.exe)
 Copying SCF densities to generalized density rwf, IOpCl= 1 IROHF=0.

 **********************************************************************

            Population analysis using the SCF density.

 **********************************************************************

 Orbital symmetries:
 Alpha Orbitals:
       Occupied  (A) (A) (A) (A) (A) (A) (A) (A) (A) (A) (A) (A)
                 (A)
       Virtual   (A) (A) (A) (A) (A) (A) (A) (A) (A) (A) (A) (A)
                 (A) (A) (A) (A) (A) (A) (A) (A) (A) (A) (A) (A)
                 (A) (A) (A) (A) (A) (A) (A) (A) (A) (A) (A) (A)
                 (A) (A) (A) (A) (A) (A) (A) (A) (A) (A) (A) (A)
                 (A) (A) (A) (A) (A) (A) (A) (A) (A) (A) (A) (A)
                 (A) (A) (A) (A) (A) (A) (A) (A) (A) (A) (A) (A)
                 (A) (A) (A) (A) (A) (A) (A) (A) (A) (A) (A) (A)
                 (A) (A) (A) (A) (A) (A) (A) (A) (A) (A) (A) (A)
                 (A) (A) (A) (A) (A) (A) (A) (A) (A) (A) (A) (A)
                 (A) (A) (A) (A) (A) (A) (A) (A) (A) (A) (A) (A)
                 (A) (A) (A) (A) (A) (A) (A) (A) (A) (A) (A) (A)
                 (A) (A) (A) (A) (A) (A) (A) (A) (A) (A) (A) (A)
                 (A) (A) (A) (A) (A) (A) (A) (A) (A) (A) (A) (A)
                 (A) (A) (A) (A) (A) (A) (A) (A) (A) (A) (A) (A)
                 (A) (A) (A) (A) (A) (A) (A) (A) (A) (A) (A) (A)
                 (A) (A) (A)
 Beta  Orbitals:
       Occupied  (A) (A) (A) (A) (A) (A) (A) (A) (A) (A) (A) (A)
       Virtual   (A) (A) (A) (A) (A) (A) (A) (A) (A) (A) (A) (A)
                 (A) (A) (A) (A) (A) (A) (A) (A) (A) (A) (A) (A)
                 (A) (A) (A) (A) (A) (A) (A) (A) (A) (A) (A) (A)
                 (A) (A) (A) (A) (A) (A) (A) (A) (A) (A) (A) (A)
                 (A) (A) (A) (A) (A) (A) (A) (A) (A) (A) (A) (A)
                 (A) (A) (A) (A) (A) (A) (A) (A) (A) (A) (A) (A)
                 (A) (A) (A) (A) (A) (A) (A) (A) (A) (A) (A) (A)
                 (A) (A) (A) (A) (A) (A) (A) (A) (A) (A) (A) (A)
                 (A) (A) (A) (A) (A) (A) (A) (A) (A) (A) (A) (A)
                 (A) (A) (A) (A) (A) (A) (A) (A) (A) (A) (A) (A)
                 (A) (A) (A) (A) (A) (A) (A) (A) (A) (A) (A) (A)
                 (A) (A) (A) (A) (A) (A) (A) (A) (A) (A) (A) (A)
                 (A) (A) (A) (A) (A) (A) (A) (A) (A) (A) (A) (A)
                 (A) (A) (A) (A) (A) (A) (A) (A) (A) (A) (A) (A)
                 (A) (A) (A) (A) (A) (A) (A) (A) (A) (A) (A) (A)
                 (A) (A) (A) (A)
 The electronic state is 2-A.
 Alpha  occ. eigenvalues --  -11.06508 -11.04230 -11.03935 -11.02546  -1.60221
 Alpha  occ. eigenvalues --   -1.53195  -1.41396  -1.26130  -1.23397  -1.20369
 Alpha  occ. eigenvalues --   -1.17516  -1.08063  -1.07341
 Alpha virt. eigenvalues --   -0.88093  -0.86077  -0.76547  -0.67312  -0.57588
 Alpha virt. eigenvalues --   -0.53031  -0.52209  -0.49481  -0.46510  -0.44327
 Alpha virt. eigenvalues --   -0.42615  -0.41861  -0.41258  -0.39968  -0.39409
 Alpha virt. eigenvalues --   -0.37229  -0.35784  -0.35315  -0.33428  -0.30871
 Alpha virt. eigenvalues --   -0.30606  -0.30108  -0.26771  -0.26282  -0.25065
 Alpha virt. eigenvalues --   -0.24412  -0.23958  -0.22554  -0.21677  -0.21318
 Alpha virt. eigenvalues --   -0.19828  -0.18327  -0.17683  -0.15961  -0.14853
 Alpha virt. eigenvalues --   -0.13584  -0.11862  -0.09991  -0.09066  -0.08988
 Alpha virt. eigenvalues --   -0.07818  -0.06843  -0.06309  -0.04119  -0.03195
 Alpha virt. eigenvalues --   -0.02818  -0.02414  -0.02172   0.00626   0.01149
 Alpha virt. eigenvalues --    0.04182   0.04630   0.06555   0.08465   0.10049
 Alpha virt. eigenvalues --    0.10804   0.14510   0.14979   0.18470   0.19724
 Alpha virt. eigenvalues --    0.22002   0.27344   0.27887   0.28275   0.35048
 Alpha virt. eigenvalues --    0.38416   0.38628   0.45624   0.50211   0.51457
 Alpha virt. eigenvalues --    0.55137   0.58424   0.60105   0.60659   0.62288
 Alpha virt. eigenvalues --    0.62301   0.64153   0.64711   0.71033   0.73496
 Alpha virt. eigenvalues --    0.74056   0.76075   0.76848   0.84293   0.84652
 Alpha virt. eigenvalues --    0.91239   0.91771   0.93679   0.98212   1.00685
 Alpha virt. eigenvalues --    1.01810   1.05269   1.06335   1.11888   1.24491
 Alpha virt. eigenvalues --    1.32605   1.33153   1.40067   1.49185   1.60921
 Alpha virt. eigenvalues --    1.71819   1.79569   1.86101   1.87004   1.89464
 Alpha virt. eigenvalues --    1.89870   1.92450   1.95994   2.00279   2.03122
 Alpha virt. eigenvalues --    2.04283   2.05252   2.08688   2.10986   2.11193
 Alpha virt. eigenvalues --    2.15300   2.17058   2.21900   2.23742   2.24433
 Alpha virt. eigenvalues --    2.27323   2.28041   2.35352   2.36130   2.37113
 Alpha virt. eigenvalues --    2.37187   2.45991   2.49069   2.52079   2.62977
 Alpha virt. eigenvalues --    2.68096   2.68464   2.74246   2.96859   2.99135
 Alpha virt. eigenvalues --    3.04419   3.10216   3.19530   3.20166   3.35616
 Alpha virt. eigenvalues --    3.36619   3.44567   3.50263   3.50835   3.53446
 Alpha virt. eigenvalues --    3.57824   3.64251   3.71901   3.80715   3.82985
 Alpha virt. eigenvalues --    4.14420   4.23264   4.42752   4.64935   4.74603
 Alpha virt. eigenvalues --    4.88413   4.92902   5.15468   5.42524   6.11889
 Alpha virt. eigenvalues --    6.12469   6.23359   6.24886   6.25087   6.33161
 Alpha virt. eigenvalues --    6.38431   6.47413   6.47722   6.48774   6.54551
 Alpha virt. eigenvalues --    6.70251   6.74894   6.80091   6.92301   7.02155
 Alpha virt. eigenvalues --    7.12566   7.17146   7.37605   7.71917  23.05402
 Alpha virt. eigenvalues --   23.72511  24.75055  25.34221
  Beta  occ. eigenvalues --  -11.05524 -11.04167 -11.04048 -11.01813  -1.58747
  Beta  occ. eigenvalues --   -1.50533  -1.40633  -1.25265  -1.22607  -1.19166
  Beta  occ. eigenvalues --   -1.17608  -1.07080
  Beta virt. eigenvalues --   -0.93418  -0.87675  -0.85815  -0.70116  -0.66399
  Beta virt. eigenvalues --   -0.55974  -0.52589  -0.51851  -0.48938  -0.46473
  Beta virt. eigenvalues --   -0.44075  -0.41966  -0.41741  -0.40760  -0.39960
  Beta virt. eigenvalues --   -0.39057  -0.37116  -0.35270  -0.35204  -0.33236
  Beta virt. eigenvalues --   -0.30544  -0.29706  -0.29499  -0.26425  -0.25850
  Beta virt. eigenvalues --   -0.24943  -0.24046  -0.23966  -0.22366  -0.21345
  Beta virt. eigenvalues --   -0.20989  -0.19697  -0.18200  -0.17641  -0.15902
  Beta virt. eigenvalues --   -0.14658  -0.13257  -0.11834  -0.09805  -0.09029
  Beta virt. eigenvalues --   -0.08748  -0.06869  -0.06497  -0.05902  -0.03739
  Beta virt. eigenvalues --   -0.02849  -0.02510  -0.02026  -0.01313   0.01024
  Beta virt. eigenvalues --    0.01864   0.04337   0.04698   0.06935   0.08963
  Beta virt. eigenvalues --    0.10106   0.11029   0.14768   0.15007   0.19268
  Beta virt. eigenvalues --    0.20385   0.22028   0.27789   0.28524   0.28528
  Beta virt. eigenvalues --    0.35552   0.38644   0.39090   0.45782   0.50305
  Beta virt. eigenvalues --    0.52096   0.55295   0.58683   0.60101   0.60968
  Beta virt. eigenvalues --    0.62259   0.62805   0.64173   0.64982   0.71691
  Beta virt. eigenvalues --    0.74815   0.76221   0.76717   0.79723   0.84767
  Beta virt. eigenvalues --    0.85170   0.91914   0.92888   0.94309   1.01083
  Beta virt. eigenvalues --    1.01098   1.01876   1.06546   1.08346   1.13624
  Beta virt. eigenvalues --    1.25038   1.32895   1.33841   1.40617   1.49722
  Beta virt. eigenvalues --    1.61246   1.73636   1.81190   1.88356   1.89956
  Beta virt. eigenvalues --    1.91535   1.92200   1.93681   1.97222   2.01344
  Beta virt. eigenvalues --    2.03237   2.06534   2.07628   2.09520   2.11468
  Beta virt. eigenvalues --    2.13452   2.15895   2.18348   2.22283   2.26490
  Beta virt. eigenvalues --    2.27264   2.28546   2.28582   2.36125   2.36527
  Beta virt. eigenvalues --    2.37636   2.37700   2.46348   2.49933   2.52842
  Beta virt. eigenvalues --    2.63127   2.68524   2.69629   2.75218   2.98224
  Beta virt. eigenvalues --    3.00715   3.04918   3.11543   3.19763   3.20433
  Beta virt. eigenvalues --    3.36186   3.37822   3.44588   3.50266   3.51466
  Beta virt. eigenvalues --    3.53675   3.58182   3.64402   3.72765   3.81574
  Beta virt. eigenvalues --    3.82974   4.15671   4.23292   4.43269   4.64942
  Beta virt. eigenvalues --    4.75141   4.88804   4.94978   5.16371   5.43492
  Beta virt. eigenvalues --    6.16342   6.17071   6.23439   6.28079   6.29420
  Beta virt. eigenvalues --    6.33811   6.38833   6.48079   6.48667   6.52088
  Beta virt. eigenvalues --    6.54374   6.72411   6.76343   6.80299   6.92672
  Beta virt. eigenvalues --    7.02416   7.12617   7.17766   7.38373   7.73173
  Beta virt. eigenvalues --   23.06013  23.72762  24.75212  25.35339
          Condensed to atoms (all electrons):
               1          2          3          4          5          6
     1  C   14.521125  -6.293981  -2.319005  -0.009083   0.434371  -0.330421
     2  C   -6.293981  13.512334  -2.098667   0.270439   0.057928  -0.092665
     3  C   -2.319005  -2.098667  10.117919   0.016464  -0.111683  -0.139236
     4  H   -0.009083   0.270439   0.016464   0.206905   0.000140  -0.000800
     5  H    0.434371   0.057928  -0.111683   0.000140   0.364397  -0.082328
     6  C   -0.330421  -0.092665  -0.139236  -0.000800  -0.082328   5.755566
     7  H   -0.050400   0.003755  -0.007834  -0.000004  -0.000237   0.389482
     8  H   -0.050611   0.003789  -0.007658  -0.000005  -0.000241   0.389460
               7          8
     1  C   -0.050400  -0.050611
     2  C    0.003755   0.003789
     3  C   -0.007834  -0.007658
     4  H   -0.000004  -0.000005
     5  H   -0.000237  -0.000241
     6  C    0.389482   0.389460
     7  H    0.306027  -0.016127
     8  H   -0.016127   0.306043
          Atomic-Atomic Spin Densities.
               1          2          3          4          5          6
     1  C    5.220671  -3.114864  -1.909374  -0.020653   0.043252  -0.265379
     2  C   -3.114864   3.435242   0.089961   0.027478  -0.031871   0.120833
     3  C   -1.909374   0.089961   2.168623  -0.012060  -0.000124   0.139156
     4  H   -0.020653   0.027478  -0.012060  -0.011352  -0.000249   0.000705
     5  H    0.043252  -0.031871  -0.000124  -0.000249   0.022309  -0.000635
     6  C   -0.265379   0.120833   0.139156   0.000705  -0.000635   0.037841
     7  H   -0.042944   0.012277   0.026699   0.000049  -0.000661   0.003010
     8  H   -0.042818   0.012232   0.026626   0.000049  -0.000659   0.003004
               7          8
     1  C   -0.042944  -0.042818
     2  C    0.012277   0.012232
     3  C    0.026699   0.026626
     4  H    0.000049   0.000049
     5  H   -0.000661  -0.000659
     6  C    0.003010   0.003004
     7  H   -0.000456   0.000751
     8  H    0.000751  -0.000460
 Mulliken charges and spin densities:
               1          2
     1  C    0.098005  -0.132108
     2  C    0.637069   0.551288
     3  C    0.549699   0.529507
     4  H    0.515944  -0.016033
     5  H    0.337652   0.031362
     6  C    0.110943   0.038536
     7  H    0.375339  -0.001275
     8  H    0.375350  -0.001276
 Sum of Mulliken charges =   3.00000   1.00000
 Mulliken charges and spin densities with hydrogens summed into heavy atoms:
               1          2
     1  C    0.435657  -0.100747
     2  C    1.153013   0.535255
     3  C    0.549699   0.529507
     6  C    0.861631   0.035985
 APT charges:
               1
     1  C    0.418586
     2  C    0.860749
     3  C   -0.256957
     4  H    0.502065
     5  H    0.406055
     6  C    0.253280
     7  H    0.408038
     8  H    0.408185
 Sum of APT charges =   3.00000
 APT charges with hydrogens summed into heavy atoms:
               1
     1  C    0.824641
     2  C    1.362814
     3  C   -0.256957
     6  C    1.069503
 Electronic spatial extent (au):  <R**2>=            268.5312
 Charge=              3.0000 electrons
 Dipole moment (field-independent basis, Debye):
    X=              0.5022    Y=             -0.2801    Z=              0.0014  Tot=              0.5750
 Quadrupole moment (field-independent basis, Debye-Ang):
   XX=             38.9639   YY=            -11.1871   ZZ=            -15.2693
   XY=              0.6326   XZ=             -0.0013   YZ=              0.0008
 Traceless Quadrupole moment (field-independent basis, Debye-Ang):
   XX=             34.7947   YY=            -15.3563   ZZ=            -19.4385
   XY=              0.6326   XZ=             -0.0013   YZ=              0.0008
 Octapole moment (field-independent basis, Debye-Ang**2):
  XXX=            -27.9378  YYY=              6.1089  ZZZ=              0.0045  XYY=              5.4880
  XXY=            -18.7218  XXZ=              0.0095  XZZ=              8.3584  YZZ=             -2.0509
  YYZ=              0.0018  XYZ=              0.0032
 Hexadecapole moment (field-independent basis, Debye-Ang**3):
 XXXX=            105.0100 YYYY=            -14.6698 ZZZZ=            -16.4095 XXXY=              5.1066
 XXXZ=             -0.0471 YYYX=              4.6541 YYYZ=              0.0046 ZZZX=              0.0071
 ZZZY=             -0.0010 XXYY=            -35.3282 XXZZ=            -26.9501 YYZZ=             -7.1839
 XXYZ=              0.0011 YYXZ=             -0.0010 ZZXY=             -4.7228
 N-N= 8.654220137884D+01 E-N=-5.083090308553D+02  KE= 1.523386643900D+02
  Exact polarizability:  66.456   1.651  23.477   0.001   0.000  20.510
 Approx polarizability: 121.528   7.963  36.245   0.003   0.000  28.207
                          Isotropic Fermi Contact Couplings
        Atom                 a.u.       MegaHertz       Gauss      10(-4) cm-1
     1  C(13)             -0.02506     -28.17285     -10.05277      -9.39745
     2  C(13)              0.02699      30.33869      10.82560      10.11990
     3  C(13)              0.00340       3.82030       1.36318       1.27432
     4  H(1)              -0.01178     -52.64245     -18.78413     -17.55963
     5  H(1)               0.02076      92.80460      33.11499      30.95628
     6  C(13)              0.01700      19.11367       6.82023       6.37564
     7  H(1)              -0.00153      -6.85931      -2.44757      -2.28802
     8  H(1)              -0.00153      -6.84823      -2.44362      -2.28433
 --------------------------------------------------------
       Center         ----  Spin Dipole Couplings  ----
                      3XX-RR        3YY-RR        3ZZ-RR
 --------------------------------------------------------
     1   Atom        0.040883      0.055712     -0.096596
     2   Atom       -0.363910      0.711460     -0.347551
     3   Atom       -0.250814      0.596338     -0.345524
     4   Atom        0.052909     -0.013424     -0.039485
     5   Atom        0.005196      0.004613     -0.009809
     6   Atom        0.068096     -0.036199     -0.031897
     7   Atom        0.003241     -0.003118     -0.000123
     8   Atom        0.003238     -0.003116     -0.000122
 --------------------------------------------------------
                        XY            XZ            YZ
 --------------------------------------------------------
     1   Atom        0.004262      0.000003      0.000037
     2   Atom       -0.184804     -0.000009      0.000275
     3   Atom       -0.170572     -0.000064      0.000241
     4   Atom        0.012333     -0.000047     -0.000002
     5   Atom        0.007351      0.000003      0.000007
     6   Atom        0.000912      0.000017     -0.000008
     7   Atom       -0.000811      0.001860     -0.001409
     8   Atom       -0.000812     -0.001859      0.001412
 --------------------------------------------------------


 ---------------------------------------------------------------------------------
              Anisotropic Spin Dipole Couplings in Principal Axis System
 ---------------------------------------------------------------------------------

       Atom             a.u.   MegaHertz   Gauss  10(-4) cm-1        Axes

              Baa    -0.0966   -12.962    -4.625    -4.324 -0.0000 -0.0002  1.0000
     1 C(13)  Bbb     0.0397     5.333     1.903     1.779  0.9662 -0.2579 -0.0001
              Bcc     0.0569     7.629     2.722     2.545  0.2579  0.9662  0.0002
 
              Baa    -0.3948   -52.976   -18.903   -17.671  0.9863  0.1648 -0.0008
     2 C(13)  Bbb    -0.3476   -46.638   -16.642   -15.557  0.0008 -0.0001  1.0000
              Bcc     0.7423    99.614    35.545    33.228 -0.1648  0.9863  0.0003
 
              Baa    -0.3455   -46.366   -16.545   -15.466  0.0003 -0.0002  1.0000
     3 C(13)  Bbb    -0.2839   -38.092   -13.592   -12.706  0.9817  0.1902 -0.0003
              Bcc     0.6294    84.459    30.137    28.172 -0.1902  0.9817  0.0003
 
              Baa    -0.0395   -21.067    -7.517    -7.027  0.0005 -0.0002  1.0000
     4 H(1)   Bbb    -0.0156    -8.346    -2.978    -2.784 -0.1771  0.9842  0.0003
              Bcc     0.0551    29.414    10.496     9.811  0.9842  0.1771 -0.0005
 
              Baa    -0.0098    -5.234    -1.867    -1.746  0.0001 -0.0006  1.0000
     5 H(1)   Bbb    -0.0025    -1.309    -0.467    -0.436 -0.6930  0.7210  0.0005
              Bcc     0.0123     6.542     2.334     2.182  0.7210  0.6930  0.0003
 
              Baa    -0.0362    -4.859    -1.734    -1.621 -0.0087  1.0000  0.0019
     6 C(13)  Bbb    -0.0319    -4.280    -1.527    -1.428 -0.0002 -0.0019  1.0000
              Bcc     0.0681     9.139     3.261     3.048  1.0000  0.0087  0.0002
 
              Baa    -0.0037    -1.962    -0.700    -0.654  0.0115  0.9316  0.3632
     7 H(1)   Bbb    -0.0006    -0.334    -0.119    -0.112 -0.4642 -0.3167  0.8272
              Bcc     0.0043     2.296     0.819     0.766  0.8857 -0.1781  0.4288
 
              Baa    -0.0037    -1.962    -0.700    -0.654  0.0117  0.9315 -0.3637
     8 H(1)   Bbb    -0.0006    -0.333    -0.119    -0.111  0.4646  0.3170  0.8268
              Bcc     0.0043     2.295     0.819     0.766  0.8855 -0.1786 -0.4290
 

 ---------------------------------------------------------------------------------

 No NMR shielding tensors so no spin-rotation constants.
 Leave Link  601 at Wed Jun 22 00:16:11 2016, MaxMem=    33554432 cpu:         2.5
 (Enter /home/proyectos/fulerenos/M3C-v1.9/M3C-deps_CCC/g09-AM64L-G09RevC.01/l701.exe)
 Compute integral second derivatives.
 ... and contract with generalized density number  0.
 Leave Link  701 at Wed Jun 22 00:16:12 2016, MaxMem=    33554432 cpu:         1.8
 (Enter /home/proyectos/fulerenos/M3C-v1.9/M3C-deps_CCC/g09-AM64L-G09RevC.01/l702.exe)
 L702 exits ... SP integral derivatives will be done elsewhere.
 Leave Link  702 at Wed Jun 22 00:16:12 2016, MaxMem=    33554432 cpu:         0.1
 (Enter /home/proyectos/fulerenos/M3C-v1.9/M3C-deps_CCC/g09-AM64L-G09RevC.01/l703.exe)
 Compute integral second derivatives, UseDBF=F ICtDFT=           0.
 Integral derivatives from FoFJK, PRISM(SPDF).
 Calling FoFJK, ICntrl=    100127 FMM=F ISym2X=0 I1Cent= 0 IOpClX= 1 NMat=1 NMatS=1 NMatT=0.
 FoFJK:  IHMeth= 1 ICntrl=  100127 DoSepK=F KAlg= 0 I1Cent=   0 FoldK=F
 IRaf=         0 NMat=   1 IRICut=       1 DoRegI=T DoRafI=F ISym2E= 0.
 FoFCou: FMM=F IPFlag=           0 FMFlag=      100000 FMFlg1=         800
         NFxFlg=           0 DoJE=F BraDBF=F KetDBF=F FulRan=T
         wScrn=  0.000000 ICntrl=  100127 IOpCl=  1 I1Cent=           0 NGrid=           0
         NMat0=    1 NMatS0=      1 NMatT0=    0 NMatD0=    1 NMtDS0=    0 NMtDT0=    0
 Symmetry not used in FoFCou.
 Leave Link  703 at Wed Jun 22 00:19:17 2016, MaxMem=    33554432 cpu:       741.9
 (Enter /home/proyectos/fulerenos/M3C-v1.9/M3C-deps_CCC/g09-AM64L-G09RevC.01/l716.exe)
 Dipole        = 1.97580322D-01-1.10189214D-01 5.38194792D-04
 Polarizability= 6.64558459D+01 1.65109303D+00 2.34769127D+01
                 7.04251353D-04 2.37493133D-04 2.05103380D+01
 Full mass-weighted force constant matrix:
 Low frequencies ---  -27.2694  -15.5736    0.0005    0.0005    0.0006   11.3131
 Low frequencies ---  217.3531  254.8949  467.9527
 Diagonal vibrational polarizability:
       14.1944616      19.1234738      23.7559075
 Harmonic frequencies (cm**-1), IR intensities (KM/Mole), Raman scattering
 activities (A**4/AMU), depolarization ratios for plane and unpolarized
 incident light, reduced masses (AMU), force constants (mDyne/A),
 and normal coordinates:
                      1                      2                      3
                      A                      A                      A
 Frequencies --    217.3441               254.8822               467.9527
 Red. masses --      3.2838                 2.3048                 3.5173
 Frc consts  --      0.0914                 0.0882                 0.4538
 IR Inten    --     24.3731                47.7370                 4.7449
  Atom  AN      X      Y      Z        X      Y      Z        X      Y      Z
     1   6     0.03   0.21  -0.00    -0.00  -0.00   0.02     0.02  -0.25  -0.00
     2   6     0.11  -0.20  -0.00    -0.00   0.00  -0.15    -0.09  -0.06  -0.00
     3   6     0.02   0.24   0.00     0.00  -0.00   0.30    -0.15   0.33   0.00
     4   1     0.18  -0.57  -0.00    -0.00   0.00  -0.57    -0.01  -0.54  -0.00
     5   1     0.21   0.18  -0.00    -0.00   0.00  -0.35     0.36  -0.28  -0.00
     6   6    -0.16  -0.16  -0.00     0.00   0.00  -0.07     0.15   0.01  -0.00
     7   1    -0.24  -0.35   0.00     0.28   0.35  -0.14     0.26   0.26   0.00
     8   1    -0.24  -0.35  -0.00    -0.28  -0.35  -0.14     0.27   0.27  -0.00
                      4                      5                      6
                      A                      A                      A
 Frequencies --    479.2223               679.1124               702.7645
 Red. masses --      1.4742                 1.0772                 1.3485
 Frc consts  --      0.1995                 0.2927                 0.3924
 IR Inten    --      0.6898                30.8232                22.4028
  Atom  AN      X      Y      Z        X      Y      Z        X      Y      Z
     1   6    -0.00   0.00  -0.14     0.00  -0.00  -0.04     0.01  -0.00   0.00
     2   6     0.00   0.00  -0.01    -0.00  -0.00   0.01     0.02  -0.16  -0.00
     3   6     0.00  -0.00   0.15    -0.00   0.00   0.02    -0.02   0.08   0.00
     4   1    -0.00   0.00  -0.14    -0.00   0.00  -0.06    -0.19   0.96   0.00
     5   1    -0.00   0.00  -0.09    -0.00  -0.00   0.65     0.10  -0.02  -0.00
     6   6    -0.00  -0.00  -0.00     0.00   0.00  -0.06     0.00   0.00   0.00
     7   1    -0.50  -0.43   0.17    -0.25   0.43   0.18     0.02   0.03   0.00
     8   1     0.50   0.43   0.17     0.25  -0.43   0.18     0.02   0.03  -0.00
                      7                      8                      9
                      A                      A                      A
 Frequencies --    786.3599               836.1400               958.8133
 Red. masses --      4.0064                 1.3433                 1.7195
 Frc consts  --      1.4596                 0.5533                 0.9313
 IR Inten    --     14.2562                17.4848                 3.6486
  Atom  AN      X      Y      Z        X      Y      Z        X      Y      Z
     1   6     0.02   0.24  -0.00     0.00  -0.00  -0.00     0.00   0.00   0.21
     2   6    -0.22  -0.04   0.00    -0.00   0.00  -0.16    -0.00  -0.00  -0.00
     3   6    -0.13  -0.02   0.00     0.00  -0.00   0.08    -0.00  -0.00  -0.05
     4   1    -0.25  -0.02   0.00     0.00  -0.00   0.98    -0.00  -0.00   0.04
     5   1    -0.48   0.25  -0.00     0.00  -0.00   0.03     0.01   0.00  -0.63
     6   6     0.36  -0.13   0.00    -0.00   0.00  -0.00    -0.00  -0.00  -0.13
     7   1     0.20  -0.38   0.01    -0.01   0.03   0.01    -0.47   0.16   0.15
     8   1     0.20  -0.38  -0.01     0.01  -0.03   0.01     0.47  -0.16   0.15
                     10                     11                     12
                      A                      A                      A
 Frequencies --    972.9850              1149.7606              1259.2184
 Red. masses --      1.4007                 1.6583                 1.2265
 Frc consts  --      0.7813                 1.2916                 1.1458
 IR Inten    --     12.6669                13.2797                71.7971
  Atom  AN      X      Y      Z        X      Y      Z        X      Y      Z
     1   6     0.08   0.09  -0.00     0.11  -0.07  -0.00     0.07  -0.00  -0.00
     2   6    -0.10  -0.01   0.00    -0.06  -0.01   0.00    -0.02  -0.01   0.00
     3   6    -0.03  -0.09   0.00    -0.01   0.00  -0.00    -0.01   0.01   0.00
     4   1    -0.11  -0.04  -0.00    -0.08  -0.02   0.00    -0.03  -0.00  -0.00
     5   1     0.94  -0.05   0.00     0.15  -0.06  -0.00    -0.22   0.05   0.00
     6   6    -0.03  -0.01   0.00     0.01   0.19   0.00    -0.12   0.02   0.00
     7   1     0.09   0.14  -0.02    -0.28  -0.61  -0.03     0.55  -0.14  -0.38
     8   1     0.09   0.15   0.02    -0.28  -0.61   0.03     0.55  -0.14   0.38
                     13                     14                     15
                      A                      A                      A
 Frequencies --   1337.7597              1798.9008              2465.9947
 Red. masses --      2.3549                 6.0384                 1.0733
 Frc consts  --      2.4830                11.5130                 3.8454
 IR Inten    --     98.1452               793.7550               580.9710
  Atom  AN      X      Y      Z        X      Y      Z        X      Y      Z
     1   6     0.30  -0.02   0.00    -0.20  -0.03   0.00    -0.02  -0.07  -0.00
     2   6    -0.14  -0.03   0.00    -0.31  -0.06   0.00    -0.00  -0.00   0.00
     3   6     0.02   0.02  -0.00     0.55   0.11  -0.00    -0.00  -0.00  -0.00
     4   1    -0.19  -0.04   0.00    -0.70  -0.12   0.00     0.02   0.00  -0.00
     5   1    -0.56   0.13  -0.00     0.07  -0.07  -0.00     0.15   0.98   0.00
     6   6    -0.08  -0.04  -0.00     0.00  -0.00  -0.00     0.01  -0.01   0.00
     7   1    -0.26   0.38   0.20     0.03  -0.02  -0.13    -0.01   0.00  -0.03
     8   1    -0.26   0.38  -0.20     0.03  -0.02   0.12    -0.01   0.00   0.03
                     16                     17                     18
                      A                      A                      A
 Frequencies --   2690.1643              2782.9030              2856.9426
 Red. masses --      1.0455                 1.1214                 1.1726
 Frc consts  --      4.4579                 5.1168                 5.6392
 IR Inten    --    773.6888               380.4574               495.8315
  Atom  AN      X      Y      Z        X      Y      Z        X      Y      Z
     1   6    -0.01  -0.00  -0.00     0.00   0.00   0.00    -0.00   0.00   0.00
     2   6    -0.01  -0.00   0.00     0.00   0.00  -0.00    -0.11  -0.02   0.00
     3   6     0.01   0.00  -0.00    -0.00  -0.00  -0.00     0.04   0.01  -0.00
     4   1     0.02   0.00  -0.00    -0.00  -0.00   0.00     0.97   0.18  -0.00
     5   1     0.01   0.05   0.00    -0.00  -0.00  -0.01    -0.00  -0.03  -0.00
     6   6    -0.05   0.02  -0.00     0.00  -0.00  -0.10     0.00  -0.00  -0.00
     7   1     0.32  -0.14   0.61     0.33  -0.14   0.60    -0.01   0.00  -0.02
     8   1     0.32  -0.14  -0.61    -0.33   0.14   0.60    -0.01   0.00   0.02

 -------------------
 - Thermochemistry -
 -------------------
 Temperature   298.150 Kelvin.  Pressure   1.00000 Atm.
 Atom     1 has atomic number  6 and mass  12.00000
 Atom     2 has atomic number  6 and mass  12.00000
 Atom     3 has atomic number  6 and mass  12.00000
 Atom     4 has atomic number  1 and mass   1.00783
 Atom     5 has atomic number  1 and mass   1.00783
 Atom     6 has atomic number  6 and mass  12.00000
 Atom     7 has atomic number  1 and mass   1.00783
 Atom     8 has atomic number  1 and mass   1.00783
 Molecular mass:    52.03130 amu.
 Principal axes and moments of inertia in atomic units:
                           1         2         3
     Eigenvalues --    30.14734 438.33085 454.92181
           X            1.00000  -0.00083  -0.00001
           Y            0.00083   1.00000   0.00009
           Z            0.00001  -0.00009   1.00000
 This molecule is an asymmetric top.
 Rotational symmetry number  1.
 Rotational temperatures (Kelvin)      2.87302     0.19760     0.19039
 Rotational constants (GHZ):          59.86403     4.11730     3.96715
 Zero-point vibrational energy     135759.5 (Joules/Mol)
                                   32.44731 (Kcal/Mol)
 Warning -- explicit consideration of   4 degrees of freedom as
           vibrations may cause significant error
 Vibrational temperatures:    312.71   366.72   673.28   689.49   977.09
          (Kelvin)           1011.12  1131.40  1203.02  1379.52  1399.91
                             1654.25  1811.73  1924.74  2588.21  3548.01
                             3870.54  4003.97  4110.50
 
 Zero-point correction=                           0.051708 (Hartree/Particle)
 Thermal correction to Energy=                    0.056556
 Thermal correction to Enthalpy=                  0.057500
 Thermal correction to Gibbs Free Energy=         0.024739
 Sum of electronic and zero-point Energies=           -152.952796
 Sum of electronic and thermal Energies=              -152.947948
 Sum of electronic and thermal Enthalpies=            -152.947004
 Sum of electronic and thermal Free Energies=         -152.979765
 
                     E (Thermal)             CV                S
                      KCal/Mol        Cal/Mol-Kelvin    Cal/Mol-Kelvin
 Total                   35.489             16.510             68.951
 Electronic               0.000              0.000              1.377
 Translational            0.889              2.981             37.771
 Rotational               0.889              2.981             23.312
 Vibrational             33.712             10.548              6.491
 Vibration     1          0.646              1.815              1.981
 Vibration     2          0.665              1.755              1.697
 Vibration     3          0.825              1.321              0.743
 Vibration     4          0.836              1.296              0.712
                       Q            Log10(Q)             Ln(Q)
 Total Bot       0.417665D-11        -11.379172        -26.201511
 Total V=0       0.254004D+13         12.404840         28.563200
 Vib (Bot)       0.510042D-23        -23.292394        -53.632720
 Vib (Bot)    1  0.911103D+00         -0.040433         -0.093100
 Vib (Bot)    2  0.763947D+00         -0.116937         -0.269256
 Vib (Bot)    3  0.361072D+00         -0.442406         -1.018677
 Vib (Bot)    4  0.349229D+00         -0.456890         -1.052029
 Vib (V=0)       0.310183D+01          0.491618          1.131992
 Vib (V=0)    1  0.153928D+01          0.187318          0.431316
 Vib (V=0)    2  0.141303D+01          0.150150          0.345733
 Vib (V=0)    3  0.111674D+01          0.047954          0.110417
 Vib (V=0)    4  0.110989D+01          0.045278          0.104257
 Electronic      0.200000D+01          0.301030          0.693147
 Translational   0.147520D+08          7.168852         16.506892
 Rotational      0.277549D+05          4.443340         10.231169
 
                                                              b3lyp opt
                                                             IR Spectrum
 
     2   2   2         2                             1                   1   1   1                                                   
     8   7   6         4                             7                   3   2   1       99    8  7  76        44        2 2         
     5   8   9         6                             9                   3   5   5       75    3  8  07        76        5 1         
     7   3   0         6                             9                   8   9   0       39    6  6  39        98        5 7         
 
     X   X   X         X                             X                   X   X   X       XX    X  X  XX        XX        X X         
     X   X   X         X                             X                   X   X                                                       
     X   X   X         X                             X                                                                               
     X   X   X         X                             X                                                                               
     X   X   X         X                             X                                                                               
     X   X   X         X                             X                                                                               
     X   X   X         X                             X                                                                               
     X   X   X         X                             X                                                                               
     X   X   X         X                             X                                                                               
     X   X   X         X                             X                                                                               
     X       X         X                             X                                                                               
     X       X         X                             X                                                                               
             X         X                             X                                                                               
             X         X                             X                                                                               
             X         X                             X                                                                               
             X                                       X                                                                               
             X                                       X                                                                               
             X                                       X                                                                               
             X                                       X                                                                               
                                                     X                                                                               
 
 ***** Axes restored to original set *****
 -------------------------------------------------------------------
 Center     Atomic                   Forces (Hartrees/Bohr)
 Number     Number              X              Y              Z
 -------------------------------------------------------------------
      1        6          -0.000020443   -0.000000236   -0.000023157
      2        6           0.000066092   -0.000020768   -0.000032480
      3        6          -0.000051888    0.000023650    0.000021767
      4        1          -0.000009678    0.000005118    0.000019675
      5        1           0.000000619    0.000011834    0.000017149
      6        6           0.000040480   -0.000089703   -0.000036465
      7        1          -0.000012426    0.000030098    0.000019247
      8        1          -0.000012756    0.000040007    0.000014264
 -------------------------------------------------------------------
 Cartesian Forces:  Max     0.000089703 RMS     0.000032843
 Z-matrix is all fixed cartesians, so copy forces.
 Force constants in Cartesian coordinates: 
                1             2             3             4             5 
      1  0.623844D+00
      2 -0.240155D-01  0.304750D+00
      3  0.268808D-03 -0.132031D-03  0.150331D+00
      4 -0.518444D-01  0.683116D-02 -0.480111D-04  0.964120D+00
      5  0.134062D-01  0.540765D-02  0.535707D-05 -0.168610D+00  0.852793D-01
      6 -0.183932D-04 -0.961874D-05 -0.471200D-03  0.352394D-03 -0.435604D-04
      7 -0.321302D+00  0.669019D-01 -0.138070D-03 -0.633656D+00  0.108460D+00
      8  0.642256D-01 -0.654874D-01  0.249588D-04  0.104048D+00 -0.573549D-01
      9 -0.179188D-03  0.373468D-04 -0.496692D-01 -0.302816D-03  0.457828D-04
     10 -0.403961D-02  0.665936D-04  0.000000D+00 -0.285135D+00  0.488943D-01
     11  0.136493D-02  0.194695D-02  0.000000D+00  0.498808D-01 -0.335990D-01
     12 -0.662767D-05  0.162353D-05  0.353430D-02 -0.122300D-04 -0.767437D-05
     13 -0.493554D-01  0.138814D-01 -0.276598D-04 -0.286190D-02 -0.698542D-03
     14  0.248787D-01 -0.184788D+00  0.158858D-03  0.239632D-02  0.212565D-03
     15 -0.273416D-04  0.162303D-03 -0.372199D-01  0.000000D+00 -0.360469D-05
     16 -0.155492D+00 -0.394484D-01 -0.120062D-04  0.158375D-01 -0.284926D-02
     17 -0.436113D-01 -0.814076D-01 -0.206094D-04  0.852550D-02 -0.944811D-03
     18  0.276410D-04 -0.370909D-04 -0.825256D-01  0.207481D-04  0.000000D+00
     19 -0.208901D-01 -0.121162D-01 -0.148326D-01 -0.322235D-02  0.699511D-03
     20 -0.181248D-01  0.977906D-02 -0.810067D-02 -0.153961D-02  0.500798D-03
     21 -0.458713D-02  0.448873D-04  0.799403D-02 -0.448439D-02  0.697407D-03
     22 -0.209215D-01 -0.121010D-01  0.147892D-01 -0.323736D-02  0.698275D-03
     23 -0.181239D-01  0.979928D-02  0.806322D-02 -0.153259D-02  0.498399D-03
     24  0.452223D-02 -0.674196D-04  0.802668D-02  0.447409D-02 -0.693514D-03
                6             7             8             9            10 
      6  0.735409D-01
      7 -0.295391D-03  0.983207D+00
      8  0.484036D-04 -0.179865D+00  0.120911D+00
      9 -0.415506D-01  0.518291D-03 -0.119055D-03  0.569413D-01
     10 -0.394277D-04  0.234189D-01 -0.319903D-02  0.139206D-04  0.266733D+00
     11  0.000000D+00 -0.420556D-02  0.817882D-02  0.164596D-05 -0.473134D-01
     12 -0.357160D-01 -0.813815D-05  0.755438D-05  0.134927D-01  0.270644D-04
     13  0.000000D+00 -0.185630D-02  0.237323D-01 -0.264847D-04 -0.832859D-04
     14  0.176692D-05  0.125599D-01 -0.849833D-02  0.244669D-04  0.212837D-02
     15  0.850314D-03 -0.279129D-04  0.300304D-04  0.828387D-02 -0.111641D-05
     16  0.425241D-05 -0.671800D-01 -0.296447D-02 -0.371370D-04  0.127912D-02
     17  0.526395D-05 -0.529082D-02  0.533039D-02  0.734019D-05  0.418201D-03
     18  0.318955D-02 -0.792319D-04  0.219858D-04  0.158241D-01  0.000000D+00
     19 -0.148817D-03  0.866891D-02 -0.298812D-02 -0.536486D-03 -0.108459D-02
     20  0.801896D-03  0.725884D-03 -0.153767D-02  0.264861D-02 -0.498415D-03
     21  0.757784D-04  0.893403D-02 -0.114449D-02 -0.165895D-02 -0.171715D-02
     22  0.145881D-03  0.869946D-02 -0.298975D-02  0.549899D-03 -0.108835D-02
     23 -0.803237D-03  0.714133D-03 -0.154146D-02 -0.264614D-02 -0.496564D-03
     24  0.813329D-04 -0.890358D-02  0.113061D-02 -0.166320D-02  0.171542D-02
               11            12            13            14            15 
     11  0.232090D-01
     12  0.000000D+00  0.198904D-01
     13 -0.293465D-03  0.000000D+00  0.420367D-01
     14 -0.137053D-03  0.000000D+00 -0.271264D-01  0.213299D+00
     15  0.000000D+00 -0.182381D-03  0.450973D-04 -0.205827D-03  0.153512D-01
     16  0.135669D-03  0.129007D-05  0.143372D-01 -0.106462D-01  0.276186D-05
     17  0.832194D-04  0.000000D+00 -0.149272D-01 -0.208712D-01  0.166581D-04
     18 -0.297531D-05 -0.149228D-02  0.119351D-04  0.288147D-04  0.152193D-01
     19  0.214879D-03  0.606565D-04 -0.110823D-02 -0.209071D-02  0.293807D-02
     20  0.159021D-03 -0.374679D-03  0.271558D-02  0.388657D-03 -0.294389D-02
     21  0.332152D-03  0.236536D-03 -0.649192D-04 -0.173028D-02 -0.114486D-02
     22  0.216221D-03 -0.620593D-04 -0.110879D-02 -0.209994D-02 -0.292977D-02
     23  0.159056D-03  0.374430D-03  0.271638D-02  0.394184D-03  0.294336D-02
     24 -0.331232D-03  0.236768D-03  0.624848D-04  0.172210D-02 -0.115757D-02
               16            17            18            19            20 
     16  0.345882D+00
     17  0.764120D-01  0.211602D+00
     18 -0.257488D-03  0.861100D-04  0.451545D+00
     19 -0.771788D-01 -0.107658D-01 -0.882721D-01  0.838699D-01
     20 -0.103080D-01 -0.569201D-01 -0.355388D-01  0.281674D-01  0.341827D-01
     21 -0.791375D-01 -0.338487D-01 -0.200960D+00  0.909066D-01  0.395890D-01
     22 -0.774849D-01 -0.107606D-01  0.885476D-01  0.109453D-01 -0.113797D-02
     23 -0.103313D-01 -0.568723D-01  0.354421D-01 -0.112093D-02  0.134475D-01
     24  0.794358D-01  0.337547D-01 -0.200800D+00  0.988472D-02  0.391847D-02
               21            22            23            24 
     21  0.206257D+00
     22 -0.984956D-02  0.841961D-01
     23 -0.394003D-02  0.281747D-01  0.341153D-01
     24 -0.107987D-01 -0.911912D-01 -0.394337D-01  0.206074D+00
 Leave Link  716 at Wed Jun 22 00:19:17 2016, MaxMem=    33554432 cpu:         0.1
 (Enter /home/proyectos/fulerenos/M3C-v1.9/M3C-deps_CCC/g09-AM64L-G09RevC.01/l103.exe)

 GradGradGradGradGradGradGradGradGradGradGradGradGradGradGradGradGradGrad
 Berny optimization.
 Search for a local minimum.
 Step number   1 out of a maximum of    2
 All quantities printed in internal units (Hartrees-Bohrs-Radians)
 Second derivative matrix not updated -- analytic derivatives used.
 ITU=  0
     Eigenvalues ---    0.00593   0.00595   0.01697   0.02552   0.02831
     Eigenvalues ---    0.04471   0.06985   0.10560   0.13023   0.15217
     Eigenvalues ---    0.18381   0.19577   0.29779   0.42879   0.55000
     Eigenvalues ---    0.61315   0.83023   1.72937
 Angle between quadratic step and forces=  67.03 degrees.
 Linear search not attempted -- first point.
 B after Tr=     0.000069   -0.000114   -0.000183
         Rot=    1.000000    0.000005   -0.000002   -0.000008 Ang=   0.00 deg.
 Variable       Old X    -DE/DX   Delta X   Delta X   Delta X     New X
                                 (Linear)    (Quad)   (Total)
    X1       -1.05729  -0.00002   0.00000   0.00003   0.00009  -1.05720
    Y1        0.76662  -0.00000   0.00000  -0.00045  -0.00058   0.76604
    Z1       -0.00054  -0.00002   0.00000  -0.00036  -0.00055  -0.00108
    X2        3.82134   0.00007   0.00000   0.00023   0.00031   3.82165
    Y2       -0.33851  -0.00002   0.00000   0.00007   0.00002  -0.33849
    Z2        0.00230  -0.00003   0.00000  -0.00013  -0.00033   0.00197
    X3        1.41259  -0.00005   0.00000   0.00013   0.00020   1.41279
    Y3        0.09250   0.00002   0.00000  -0.00003  -0.00012   0.09238
    Z3        0.00102   0.00002   0.00000  -0.00031  -0.00051   0.00052
    X4        5.91313  -0.00001   0.00000   0.00027   0.00035   5.91349
    Y4       -0.72844   0.00001   0.00000   0.00044   0.00043  -0.72801
    Z4        0.00242   0.00002   0.00000   0.00102   0.00081   0.00324
    X5       -1.42112   0.00000   0.00000  -0.00025  -0.00023  -1.42134
    Y5        2.92461   0.00001   0.00000  -0.00042  -0.00056   2.92405
    Z5       -0.00294   0.00002   0.00000   0.00084   0.00063  -0.00231
    X6       -3.44210   0.00004   0.00000  -0.00001   0.00007  -3.44203
    Y6       -0.55551  -0.00009   0.00000  -0.00026  -0.00043  -0.55595
    Z6       -0.00133  -0.00004   0.00000  -0.00019  -0.00035  -0.00168
    X7       -4.44637  -0.00001   0.00000  -0.00114  -0.00106  -4.44743
    Y7       -0.99223   0.00003   0.00000   0.00061   0.00040  -0.99183
    Z7       -1.83592   0.00002   0.00000   0.00030   0.00015  -1.83577
    X8       -4.44961  -0.00001   0.00000   0.00019   0.00028  -4.44933
    Y8       -0.99091   0.00004   0.00000   0.00101   0.00084  -0.99007
    Z8        1.83166   0.00001   0.00000   0.00028   0.00013   1.83179
         Item               Value     Threshold  Converged?
 Maximum Force            0.000090     0.000450     YES
 RMS     Force            0.000033     0.000300     YES
 Maximum Displacement     0.001064     0.001800     YES
 RMS     Displacement     0.000471     0.001200     YES
 Predicted change in Energy=-7.541601D-08
 Optimization completed.
    -- Stationary point found.
 GradGradGradGradGradGradGradGradGradGradGradGradGradGradGradGradGradGrad

 Leave Link  103 at Wed Jun 22 00:19:18 2016, MaxMem=    33554432 cpu:         0.1
 (Enter /home/proyectos/fulerenos/M3C-v1.9/M3C-deps_CCC/g09-AM64L-G09RevC.01/l9999.exe)
 1\1\GINC-BLADI10\Freq\UB3LYP\6-311++G(3df,2p)\C4H4(3+,2)\ROOT\22-Jun-2
 016\0\\#p b3lyp/6-311++G(3df,2p) freq symmetry=Loose\\b3lyp opt\\3,2\C
 ,-0.559492,0.405679,-0.000284\C,2.022166,-0.179131,0.001215\C,0.74751,
 0.048948,0.00054\H,3.129096,-0.385474,0.001283\H,-0.752022,1.547637,-0
 .001557\C,-1.82148,-0.293965,-0.000703\H,-2.352918,-0.525068,-0.971526
 \H,-2.35463,-0.524368,0.969271\\Version=EM64L-G09RevE.01\State=2-A\HF=
 -153.0045037\S2=0.758467\S2-1=0.\S2A=0.750035\RMSD=6.233e-09\RMSF=3.28
 4e-05\ZeroPoint=0.0517081\Thermal=0.056556\Dipole=-0.1975849,-0.110180
 8,-0.0005753\DipoleDeriv=0.9972332,-0.0524858,0.0003892,-0.0682867,-0.
 2198724,0.0005925,0.0004051,0.0006701,0.4783957,1.2038217,-0.0448738,0
 .0005497,-0.0893675,0.6501413,-0.0000284,0.0003798,0.000014,0.7282826,
 -1.4657965,0.1757994,-0.0009638,0.3943698,0.4216084,0.0000785,-0.00077
 32,-0.0000831,0.2733172,0.995294,-0.1155387,0.0001649,-0.1392307,0.266
 2085,-0.000031,0.0001538,-0.0000203,0.2446933,0.209457,-0.0856892,0.00
 00463,-0.1414773,0.7633029,-0.0005071,-0.000007,-0.0005668,0.2454053,0
 .021252,-0.0822014,-0.0000791,-0.2891089,0.641609,-0.0004931,-0.000310
 9,-0.0003882,0.096979,0.5187976,0.102447,0.1432397,0.1666927,0.2385465
 ,0.0503341,0.421458,0.1021866,0.4667694,0.5199411,0.1025424,-0.143347,
 0.1664085,0.2384557,-0.0499455,-0.4213055,-0.1018124,0.4661575\Polar=6
 6.4556879,-1.6529752,23.4770563,0.0246147,-0.0027274,20.5103523\PG=C01
  [X(C4H4)]\NImag=0\\0.62384439,-0.02401548,0.30475032,0.00026881,-0.00
 013203,0.15033092,-0.05184443,0.00683116,-0.00004801,0.96412011,0.0134
 0622,0.00540765,0.00000536,-0.16861000,0.08527928,-0.00001839,-0.00000
 962,-0.00047120,0.00035239,-0.00004356,0.07354087,-0.32130158,0.066901
 92,-0.00013807,-0.63365609,0.10845952,-0.00029539,0.98320669,0.0642256
 4,-0.06548745,0.00002496,0.10404845,-0.05735487,0.00004840,-0.17986499
 ,0.12091057,-0.00017919,0.00003735,-0.04966920,-0.00030282,0.00004578,
 -0.04155063,0.00051829,-0.00011906,0.05694128,-0.00403961,0.00006659,0
 .00000033,-0.28513545,0.04889428,-0.00003943,0.02341889,-0.00319903,0.
 00001392,0.26673328,0.00136493,0.00194695,0.00000092,0.04988075,-0.033
 59901,-0.00000091,-0.00420556,0.00817882,0.00000165,-0.04731343,0.0232
 0901,-0.00000663,0.00000162,0.00353430,-0.00001223,-0.00000767,-0.0357
 1602,-0.00000814,0.00000755,0.01349267,0.00002706,-0.00000056,0.019890
 40,-0.04935543,0.01388140,-0.00002766,-0.00286190,-0.00069854,-0.00000
 050,-0.00185630,0.02373226,-0.00002648,-0.00008329,-0.00029347,0.00000
 004,0.04203672,0.02487871,-0.18478815,0.00015886,0.00239632,0.00021256
 ,0.00000177,0.01255991,-0.00849833,0.00002447,0.00212837,-0.00013705,0
 .00000010,-0.02712641,0.21329930,-0.00002734,0.00016230,-0.03721992,0.
 00000022,-0.00000360,0.00085031,-0.00002791,0.00003003,0.00828387,-0.0
 0000112,0.00000097,-0.00018238,0.00004510,-0.00020583,0.01535120,-0.15
 549167,-0.03944842,-0.00001201,0.01583747,-0.00284926,0.00000425,-0.06
 717999,-0.00296447,-0.00003714,0.00127912,0.00013567,0.00000129,0.0143
 3721,-0.01064624,0.00000276,0.34588154,-0.04361131,-0.08140765,-0.0000
 2061,0.00852550,-0.00094481,0.00000526,-0.00529082,0.00533039,0.000007
 34,0.00041820,0.00008322,-0.00000079,-0.01492720,-0.02087116,0.0000166
 6,0.07641204,0.21160235,0.00002764,-0.00003709,-0.08252562,0.00002075,
 -0.00000019,0.00318955,-0.00007923,0.00002199,0.01582414,0.00000096,-0
 .00000298,-0.00149228,0.00001194,0.00002881,0.01521935,-0.00025749,0.0
 0008611,0.45154504,-0.02089012,-0.01211623,-0.01483262,-0.00322235,0.0
 0069951,-0.00014882,0.00866891,-0.00298812,-0.00053649,-0.00108459,0.0
 0021488,0.00006066,-0.00110823,-0.00209071,0.00293807,-0.07717880,-0.0
 1076583,-0.08827212,0.08386986,-0.01812485,0.00977906,-0.00810067,-0.0
 0153961,0.00050080,0.00080190,0.00072588,-0.00153767,0.00264861,-0.000
 49841,0.00015902,-0.00037468,0.00271558,0.00038866,-0.00294389,-0.0103
 0805,-0.05692006,-0.03553877,0.02816743,0.03418266,-0.00458713,0.00004
 489,0.00799403,-0.00448439,0.00069741,0.00007578,0.00893403,-0.0011444
 9,-0.00165895,-0.00171715,0.00033215,0.00023654,-0.00006492,-0.0017302
 8,-0.00114486,-0.07913750,-0.03384868,-0.20096043,0.09090661,0.0395890
 4,0.20625658,-0.02092153,-0.01210095,0.01478924,-0.00323736,0.00069827
 ,0.00014588,0.00869946,-0.00298975,0.00054990,-0.00108835,0.00021622,-
 0.00006206,-0.00110879,-0.00209994,-0.00292977,-0.07748487,-0.01076059
 ,0.08854756,0.01094533,-0.00113797,-0.00984956,0.08419612,-0.01812387,
 0.00979928,0.00806322,-0.00153259,0.00049840,-0.00080324,0.00071413,-0
 .00154146,-0.00264614,-0.00049656,0.00015906,0.00037443,0.00271638,0.0
 0039418,0.00294336,-0.01033127,-0.05687228,0.03544212,-0.00112093,0.01
 344754,-0.00394003,0.02817471,0.03411527,0.00452223,-0.00006742,0.0080
 2668,0.00447409,-0.00069351,0.00008133,-0.00890358,0.00113061,-0.00166
 320,0.00171542,-0.00033123,0.00023677,0.00006248,0.00172210,-0.0011575
 7,0.07943582,0.03375471,-0.20079975,0.00988472,0.00391847,-0.01079869,
 -0.09119119,-0.03943373,0.20607442\\0.00002044,0.00000024,0.00002316,-
 0.00006609,0.00002077,0.00003248,0.00005189,-0.00002365,-0.00002177,0.
 00000968,-0.00000512,-0.00001967,-0.00000062,-0.00001183,-0.00001715,-
 0.00004048,0.00008970,0.00003647,0.00001243,-0.00003010,-0.00001925,0.
 00001276,-0.00004001,-0.00001426\\\@


 SIGN SEEN IN A RESTAURANT-
 WE RESERVE THE RIGHT TO SERVE REFUSE TO ANYONE.
 Job cpu time:       0 days  0 hours 47 minutes 13.1 seconds.
 File lengths (MBytes):  RWF=     49 Int=      0 D2E=      0 Chk=      4 Scr=      1
 Normal termination of Gaussian 09 at Wed Jun 22 00:19:18 2016.
