 Entering Gaussian System, Link 0=/home/proyectos/fulerenos/M3C-v1.9/M3C-deps_CCC/g09-AM64L-G09RevC.01/g09
 Initial command:
 /home/proyectos/fulerenos/M3C-v1.9/M3C-deps_CCC/g09-AM64L-G09RevC.01/l1.exe "/scratch/naguirre/gaussian/Gau-28781.inp" -scrdir="/scratch/naguirre/gaussian/"
 Entering Link 1 = /home/proyectos/fulerenos/M3C-v1.9/M3C-deps_CCC/g09-AM64L-G09RevC.01/l1.exe PID=     28787.
  
 Copyright (c) 1988,1990,1992,1993,1995,1998,2003,2009,2015,
            Gaussian, Inc.  All Rights Reserved.
  
 This is part of the Gaussian(R) 09 program.  It is based on
 the Gaussian(R) 03 system (copyright 2003, Gaussian, Inc.),
 the Gaussian(R) 98 system (copyright 1998, Gaussian, Inc.),
 the Gaussian(R) 94 system (copyright 1995, Gaussian, Inc.),
 the Gaussian 92(TM) system (copyright 1992, Gaussian, Inc.),
 the Gaussian 90(TM) system (copyright 1990, Gaussian, Inc.),
 the Gaussian 88(TM) system (copyright 1988, Gaussian, Inc.),
 the Gaussian 86(TM) system (copyright 1986, Carnegie Mellon
 University), and the Gaussian 82(TM) system (copyright 1983,
 Carnegie Mellon University). Gaussian is a federally registered
 trademark of Gaussian, Inc.
  
 This software contains proprietary and confidential information,
 including trade secrets, belonging to Gaussian, Inc.
  
 This software is provided under written license and may be
 used, copied, transmitted, or stored only in accord with that
 written license.
  
 The following legend is applicable only to US Government
 contracts under FAR:
  
                    RESTRICTED RIGHTS LEGEND
  
 Use, reproduction and disclosure by the US Government is
 subject to restrictions as set forth in subparagraphs (a)
 and (c) of the Commercial Computer Software - Restricted
 Rights clause in FAR 52.227-19.
  
 Gaussian, Inc.
 340 Quinnipiac St., Bldg. 40, Wallingford CT 06492
  
  
 ---------------------------------------------------------------
 Warning -- This program may not be used in any manner that
 competes with the business of Gaussian, Inc. or will provide
 assistance to any competitor of Gaussian, Inc.  The licensee
 of this program is prohibited from giving any competitor of
 Gaussian, Inc. access to this program.  By using this program,
 the user acknowledges that Gaussian, Inc. is engaged in the
 business of creating and licensing software in the field of
 computational chemistry and represents and warrants to the
 licensee that it is not a competitor of Gaussian, Inc. and that
 it will not use this program in any manner prohibited above.
 ---------------------------------------------------------------
  

 Cite this work as:
 Gaussian 09, Revision E.01,
 M. J. Frisch, G. W. Trucks, H. B. Schlegel, G. E. Scuseria, 
 M. A. Robb, J. R. Cheeseman, G. Scalmani, V. Barone, B. Mennucci, 
 G. A. Petersson, H. Nakatsuji, M. Caricato, X. Li, H. P. Hratchian, 
 A. F. Izmaylov, J. Bloino, G. Zheng, J. L. Sonnenberg, M. Hada, 
 M. Ehara, K. Toyota, R. Fukuda, J. Hasegawa, M. Ishida, T. Nakajima, 
 Y. Honda, O. Kitao, H. Nakai, T. Vreven, J. A. Montgomery, Jr., 
 J. E. Peralta, F. Ogliaro, M. Bearpark, J. J. Heyd, E. Brothers, 
 K. N. Kudin, V. N. Staroverov, T. Keith, R. Kobayashi, J. Normand, 
 K. Raghavachari, A. Rendell, J. C. Burant, S. S. Iyengar, J. Tomasi, 
 M. Cossi, N. Rega, J. M. Millam, M. Klene, J. E. Knox, J. B. Cross, 
 V. Bakken, C. Adamo, J. Jaramillo, R. Gomperts, R. E. Stratmann, 
 O. Yazyev, A. J. Austin, R. Cammi, C. Pomelli, J. W. Ochterski, 
 R. L. Martin, K. Morokuma, V. G. Zakrzewski, G. A. Voth, 
 P. Salvador, J. J. Dannenberg, S. Dapprich, A. D. Daniels, 
 O. Farkas, J. B. Foresman, J. V. Ortiz, J. Cioslowski, 
 and D. J. Fox, Gaussian, Inc., Wallingford CT, 2013.
 
 ******************************************
 Gaussian 09:  EM64L-G09RevE.01 30-Nov-2015
                21-Jun-2016 
 ******************************************
 %NProcShared=4
 Will use up to    4 processors via shared memory.
 ---------------------------------------------
 #p b3lyp/6-311++G(3df,2p) freq symmetry=Loose
 ---------------------------------------------
 1/10=4,30=1,38=1/1,3;
 2/12=2,17=4,18=3,40=1/2;
 3/5=4,6=6,7=1216,11=2,16=1,25=1,30=1,71=2,74=-5,140=1/1,2,3;
 4//1;
 5/5=2,38=5,98=1/2;
 8/6=4,10=90,11=11/1;
 11/6=1,8=1,9=11,15=111,16=1/1,2,10;
 10/6=1/2;
 6/7=2,8=2,9=2,10=2,18=1,28=1/1;
 7/8=1,10=1,25=1/1,2,3,16;
 1/10=4,30=1/3;
 99//99;
 Leave Link    1 at Tue Jun 21 23:08:32 2016, MaxMem=           0 cpu:         0.2
 (Enter /home/proyectos/fulerenos/M3C-v1.9/M3C-deps_CCC/g09-AM64L-G09RevC.01/l101.exe)
 ---------
 b3lyp opt
 ---------
 Symbolic Z-matrix:
 Charge =  2 Multiplicity = 1
 C                     1.68731  -0.15615   0.00115 
 H                     2.20362   0.86006  -0.02714 
 H                     2.02575  -0.68441  -0.92354 
 H                     2.03606  -0.64742   0.94113 
 C                     0.36455   0.12168   0.00054 
 C                    -1.95987  -0.53056  -0.0002 
 C                    -0.91808   0.40081   0.00003 
 H                    -1.30887   1.45706   0.00037 
 
 NAtoms=      8 NQM=        8 NQMF=       0 NMMI=      0 NMMIF=      0
                NMic=       0 NMicF=      0.
                    Isotopes and Nuclear Properties:
 (Nuclear quadrupole moments (NQMom) in fm**2, nuclear magnetic moments (NMagM)
  in nuclear magnetons)

  Atom         1           2           3           4           5           6           7           8
 IAtWgt=          12           1           1           1          12          12          12           1
 AtmWgt=  12.0000000   1.0078250   1.0078250   1.0078250  12.0000000  12.0000000  12.0000000   1.0078250
 NucSpn=           0           1           1           1           0           0           0           1
 AtZEff=   0.0000000   0.0000000   0.0000000   0.0000000   0.0000000   0.0000000   0.0000000   0.0000000
 NQMom=    0.0000000   0.0000000   0.0000000   0.0000000   0.0000000   0.0000000   0.0000000   0.0000000
 NMagM=    0.0000000   2.7928460   2.7928460   2.7928460   0.0000000   0.0000000   0.0000000   2.7928460
 AtZNuc=   6.0000000   1.0000000   1.0000000   1.0000000   6.0000000   6.0000000   6.0000000   1.0000000
 Leave Link  101 at Tue Jun 21 23:08:32 2016, MaxMem=    33554432 cpu:         0.6
 (Enter /home/proyectos/fulerenos/M3C-v1.9/M3C-deps_CCC/g09-AM64L-G09RevC.01/l103.exe)

 GradGradGradGradGradGradGradGradGradGradGradGradGradGradGradGradGradGrad
 Berny optimization.
 Initialization pass.
 Trust Radius=3.00D-01 FncErr=1.00D-07 GrdErr=1.00D-07
 Number of steps in this run=      2 maximum allowed number of steps=      2.
 GradGradGradGradGradGradGradGradGradGradGradGradGradGradGradGradGradGrad

 Leave Link  103 at Tue Jun 21 23:08:32 2016, MaxMem=    33554432 cpu:         0.1
 (Enter /home/proyectos/fulerenos/M3C-v1.9/M3C-deps_CCC/g09-AM64L-G09RevC.01/l202.exe)
                          Input orientation:                          
 ---------------------------------------------------------------------
 Center     Atomic      Atomic             Coordinates (Angstroms)
 Number     Number       Type             X           Y           Z
 ---------------------------------------------------------------------
      1          6           0        1.687311   -0.156147    0.001151
      2          1           0        2.203619    0.860058   -0.027136
      3          1           0        2.025745   -0.684406   -0.923540
      4          1           0        2.036058   -0.647421    0.941127
      5          6           0        0.364552    0.121684    0.000541
      6          6           0       -1.959871   -0.530561   -0.000196
      7          6           0       -0.918084    0.400808    0.000034
      8          1           0       -1.308866    1.457064    0.000374
 ---------------------------------------------------------------------
                    Distance matrix (angstroms):
                    1          2          3          4          5
     1  C    0.000000
     2  H    1.140196   0.000000
     3  H    1.117429   1.794589   0.000000
     4  H    1.116481   1.799473   1.865062   0.000000
     5  C    1.351622   1.981951   2.064769   2.066436   0.000000
     6  C    3.666350   4.389669   4.094065   4.106969   2.414201
     7  C    2.664260   3.155420   3.270597   3.272827   1.312656
     8  H    3.402870   3.562966   4.069292   4.062313   2.140927
                    6          7          8
     6  C    0.000000
     7  C    1.397415   0.000000
     8  H    2.091521   1.126227   0.000000
 Stoichiometry    C4H4(2+)
 Framework group  C1[X(C4H4)]
 Deg. of freedom    18
 Full point group                 C1      NOp   1
 Largest Abelian subgroup         C1      NOp   1
 Largest concise Abelian subgroup C1      NOp   1
                         Standard orientation:                         
 ---------------------------------------------------------------------
 Center     Atomic      Atomic             Coordinates (Angstroms)
 Number     Number       Type             X           Y           Z
 ---------------------------------------------------------------------
      1          6           0        1.687311   -0.156147    0.001151
      2          1           0        2.203619    0.860058   -0.027136
      3          1           0        2.025745   -0.684406   -0.923540
      4          1           0        2.036058   -0.647421    0.941127
      5          6           0        0.364552    0.121684    0.000541
      6          6           0       -1.959871   -0.530561   -0.000196
      7          6           0       -0.918084    0.400808    0.000034
      8          1           0       -1.308866    1.457064    0.000374
 ---------------------------------------------------------------------
 Rotational constants (GHZ):     45.0411078      4.6682428      4.3577181
 Leave Link  202 at Tue Jun 21 23:08:32 2016, MaxMem=    33554432 cpu:         0.0
 (Enter /home/proyectos/fulerenos/M3C-v1.9/M3C-deps_CCC/g09-AM64L-G09RevC.01/l301.exe)
 Standard basis: 6-311++G(3df,2p) (5D, 7F)
 Ernie: Thresh=  0.10000D-02 Tol=  0.10000D-05 Strict=F.
 There are   220 symmetry adapted cartesian basis functions of A   symmetry.
 There are   196 symmetry adapted basis functions of A   symmetry.
   196 basis functions,   280 primitive gaussians,   220 cartesian basis functions
    13 alpha electrons       13 beta electrons
       nuclear repulsion energy        88.8772342041 Hartrees.
 IExCor=  402 DFT=T Ex+Corr=B3LYP ExCW=0 ScaHFX=  0.200000
 ScaDFX=  0.800000  0.720000  1.000000  0.810000 ScalE2=  1.000000  1.000000
 IRadAn=      0 IRanWt=     -1 IRanGd=            0 ICorTp=0 IEmpDi=  4
 NAtoms=    8 NActive=    8 NUniq=    8 SFac= 1.00D+00 NAtFMM=   60 NAOKFM=F Big=F
 Integral buffers will be    131072 words long.
 Raffenetti 2 integral format.
 Two-electron integral symmetry is turned on.
 Leave Link  301 at Tue Jun 21 23:08:32 2016, MaxMem=    33554432 cpu:         0.3
 (Enter /home/proyectos/fulerenos/M3C-v1.9/M3C-deps_CCC/g09-AM64L-G09RevC.01/l302.exe)
 NPDir=0 NMtPBC=     1 NCelOv=     1 NCel=       1 NClECP=     1 NCelD=      1
         NCelK=      1 NCelE2=     1 NClLst=     1 CellRange=     0.0.
 One-electron integrals computed using PRISM.
 NBasis=   196 RedAO= T EigKep=  2.89D-06  NBF=   196
 NBsUse=   196 1.00D-06 EigRej= -1.00D+00 NBFU=   196
 Precomputing XC quadrature grid using
 IXCGrd= 4 IRadAn=           0 IRanWt=          -1 IRanGd=           0 AccXCQ= 0.00D+00.
 Generated NRdTot=       0 NPtTot=           0 NUsed=           0 NTot=          32
 NSgBfM=   220   220   220   220   220 MxSgAt=     8 MxSgA2=     8.
 Leave Link  302 at Tue Jun 21 23:08:32 2016, MaxMem=    33554432 cpu:         1.5
 (Enter /home/proyectos/fulerenos/M3C-v1.9/M3C-deps_CCC/g09-AM64L-G09RevC.01/l303.exe)
 DipDrv:  MaxL=1.
 Leave Link  303 at Tue Jun 21 23:08:33 2016, MaxMem=    33554432 cpu:         0.2
 (Enter /home/proyectos/fulerenos/M3C-v1.9/M3C-deps_CCC/g09-AM64L-G09RevC.01/l401.exe)
 ExpMin= 3.60D-02 ExpMax= 4.56D+03 ExpMxC= 6.82D+02 IAcc=3 IRadAn=         5 AccDes= 0.00D+00
 Harris functional with IExCor=  402 and IRadAn=       5 diagonalized for initial guess.
 HarFok:  IExCor=  402 AccDes= 0.00D+00 IRadAn=         5 IDoV= 1 UseB2=F ITyADJ=14
 ICtDFT=  3500011 ScaDFX=  1.000000  1.000000  1.000000  1.000000
 FoFCou: FMM=F IPFlag=           0 FMFlag=      100000 FMFlg1=           0
         NFxFlg=           0 DoJE=T BraDBF=F KetDBF=T FulRan=T
         wScrn=  0.000000 ICntrl=     500 IOpCl=  0 I1Cent=   200000004 NGrid=           0
         NMat0=    1 NMatS0=      1 NMatT0=    0 NMatD0=    1 NMtDS0=    0 NMtDT0=    0
 Petite list used in FoFCou.
 Harris En= -154.169359316209    
 JPrj=0 DoOrth=F DoCkMO=F.
 Leave Link  401 at Tue Jun 21 23:08:35 2016, MaxMem=    33554432 cpu:        10.7
 (Enter /home/proyectos/fulerenos/M3C-v1.9/M3C-deps_CCC/g09-AM64L-G09RevC.01/l502.exe)
 Closed shell SCF:
 Using DIIS extrapolation, IDIIS=  1040.
 Integral symmetry usage will be decided dynamically.
 IVT=      166662 IEndB=      166662 NGot=    33554432 MDV=    33453031
 LenX=    33453031 LenY=    33404190
 Requested convergence on RMS density matrix=1.00D-08 within 128 cycles.
 Requested convergence on MAX density matrix=1.00D-06.
 Requested convergence on             energy=1.00D-06.
 No special actions if energy rises.
 Fock matrices will be formed incrementally for  20 cycles.

 Cycle   1  Pass 1  IDiag  1:
 FoFJK:  IHMeth= 1 ICntrl=       0 DoSepK=F KAlg= 0 I1Cent=   0 FoldK=F
 IRaf= 980000000 NMat=   1 IRICut=       1 DoRegI=T DoRafI=F ISym2E= 0.
 FoFCou: FMM=F IPFlag=           0 FMFlag=      100000 FMFlg1=           0
         NFxFlg=           0 DoJE=F BraDBF=F KetDBF=F FulRan=T
         wScrn=  0.000000 ICntrl=       0 IOpCl=  0 I1Cent=           0 NGrid=           0
         NMat0=    1 NMatS0=      1 NMatT0=    0 NMatD0=    1 NMtDS0=    0 NMtDT0=    0
 Symmetry not used in FoFCou.
 E= -153.664941043484    
 DIIS: error= 2.34D-02 at cycle   1 NSaved=   1.
 NSaved= 1 IEnMin= 1 EnMin= -153.664941043484     IErMin= 1 ErrMin= 2.34D-02
 ErrMax= 2.34D-02  0.00D+00 EMaxC= 1.00D-01 BMatC= 1.08D-01 BMatP= 1.08D-01
 IDIUse=3 WtCom= 7.66D-01 WtEn= 2.34D-01
 Coeff-Com:  0.100D+01
 Coeff-En:   0.100D+01
 Coeff:      0.100D+01
 Gap=     0.203 Goal=   None    Shift=    0.000
 GapD=    0.203 DampG=1.000 DampE=0.500 DampFc=0.5000 IDamp=-1.
 Damping current iteration by 5.00D-01
 RMSDP=8.77D-03 MaxDP=6.05D-01              OVMax= 3.79D-01

 Cycle   2  Pass 1  IDiag  1:
 RMSU=  3.44D-03    CP:  1.14D+00
 E= -153.658025740967     Delta-E=        0.006915302517 Rises=F Damp=T
 DIIS: error= 2.05D-02 at cycle   2 NSaved=   2.
 NSaved= 2 IEnMin= 1 EnMin= -153.664941043484     IErMin= 2 ErrMin= 2.05D-02
 ErrMax= 2.05D-02  0.00D+00 EMaxC= 1.00D-01 BMatC= 2.37D-02 BMatP= 1.08D-01
 IDIUse=3 WtCom= 7.95D-01 WtEn= 2.05D-01
 Coeff-Com:  0.260D+00 0.740D+00
 Coeff-En:   0.526D+00 0.474D+00
 Coeff:      0.315D+00 0.685D+00
 Gap=     0.242 Goal=   None    Shift=    0.000
 RMSDP=3.42D-03 MaxDP=1.72D-01 DE= 6.92D-03 OVMax= 2.75D-01

 Cycle   3  Pass 1  IDiag  1:
 RMSU=  2.47D-03    CP:  1.26D+00  1.13D+00
 E= -153.756681293785     Delta-E=       -0.098655552817 Rises=F Damp=F
 DIIS: error= 1.50D-02 at cycle   3 NSaved=   3.
 NSaved= 3 IEnMin= 3 EnMin= -153.756681293785     IErMin= 3 ErrMin= 1.50D-02
 ErrMax= 1.50D-02  0.00D+00 EMaxC= 1.00D-01 BMatC= 8.98D-03 BMatP= 2.37D-02
 IDIUse=3 WtCom= 8.50D-01 WtEn= 1.50D-01
 Coeff-Com:  0.721D-01 0.361D+00 0.566D+00
 Coeff-En:   0.000D+00 0.000D+00 0.100D+01
 Coeff:      0.613D-01 0.307D+00 0.632D+00
 Gap=     0.204 Goal=   None    Shift=    0.000
 RMSDP=1.91D-03 MaxDP=6.50D-02 DE=-9.87D-02 OVMax= 1.23D-01

 Cycle   4  Pass 1  IDiag  1:
 RMSU=  1.62D-03    CP:  1.25D+00  1.24D+00  6.37D-01
 E= -153.759762366824     Delta-E=       -0.003081073039 Rises=F Damp=F
 DIIS: error= 1.10D-02 at cycle   4 NSaved=   4.
 NSaved= 4 IEnMin= 4 EnMin= -153.759762366824     IErMin= 4 ErrMin= 1.10D-02
 ErrMax= 1.10D-02  0.00D+00 EMaxC= 1.00D-01 BMatC= 9.26D-03 BMatP= 8.98D-03
 IDIUse=3 WtCom= 8.90D-01 WtEn= 1.10D-01
 Coeff-Com: -0.272D-02 0.154D+00 0.464D+00 0.385D+00
 Coeff-En:   0.000D+00 0.000D+00 0.451D+00 0.549D+00
 Coeff:     -0.243D-02 0.137D+00 0.463D+00 0.403D+00
 Gap=     0.172 Goal=   None    Shift=    0.000
 RMSDP=9.81D-04 MaxDP=3.74D-02 DE=-3.08D-03 OVMax= 6.52D-02

 Cycle   5  Pass 1  IDiag  1:
 RMSU=  6.85D-04    CP:  1.24D+00  1.15D+00  7.63D-01  6.82D-01
 E= -153.770226309821     Delta-E=       -0.010463942997 Rises=F Damp=F
 DIIS: error= 3.20D-03 at cycle   5 NSaved=   5.
 NSaved= 5 IEnMin= 5 EnMin= -153.770226309821     IErMin= 5 ErrMin= 3.20D-03
 ErrMax= 3.20D-03  0.00D+00 EMaxC= 1.00D-01 BMatC= 6.98D-04 BMatP= 8.98D-03
 IDIUse=3 WtCom= 9.68D-01 WtEn= 3.20D-02
 Coeff-Com: -0.173D-01 0.411D-01 0.225D+00 0.255D+00 0.496D+00
 Coeff-En:   0.000D+00 0.000D+00 0.000D+00 0.374D-01 0.963D+00
 Coeff:     -0.168D-01 0.398D-01 0.218D+00 0.248D+00 0.511D+00
 Gap=     0.177 Goal=   None    Shift=    0.000
 RMSDP=4.06D-04 MaxDP=1.72D-02 DE=-1.05D-02 OVMax= 1.46D-02

 Cycle   6  Pass 1  IDiag  1:
 RMSU=  2.03D-04    CP:  1.24D+00  1.18D+00  7.38D-01  7.99D-01  6.43D-01
 E= -153.770926143302     Delta-E=       -0.000699833481 Rises=F Damp=F
 DIIS: error= 1.01D-03 at cycle   6 NSaved=   6.
 NSaved= 6 IEnMin= 6 EnMin= -153.770926143302     IErMin= 6 ErrMin= 1.01D-03
 ErrMax= 1.01D-03  0.00D+00 EMaxC= 1.00D-01 BMatC= 9.96D-05 BMatP= 6.98D-04
 IDIUse=3 WtCom= 9.90D-01 WtEn= 1.01D-02
 Coeff-Com: -0.830D-02 0.542D-02 0.502D-01 0.574D-01 0.309D+00 0.586D+00
 Coeff-En:   0.000D+00 0.000D+00 0.000D+00 0.000D+00 0.159D+00 0.841D+00
 Coeff:     -0.821D-02 0.537D-02 0.497D-01 0.569D-01 0.308D+00 0.589D+00
 Gap=     0.176 Goal=   None    Shift=    0.000
 RMSDP=9.03D-05 MaxDP=3.20D-03 DE=-7.00D-04 OVMax= 5.03D-03

 Cycle   7  Pass 1  IDiag  1:
 RMSU=  3.77D-05    CP:  1.24D+00  1.18D+00  7.50D-01  7.88D-01  7.25D-01
                    CP:  7.71D-01
 E= -153.771037720551     Delta-E=       -0.000111577248 Rises=F Damp=F
 DIIS: error= 1.71D-04 at cycle   7 NSaved=   7.
 NSaved= 7 IEnMin= 7 EnMin= -153.771037720551     IErMin= 7 ErrMin= 1.71D-04
 ErrMax= 1.71D-04  0.00D+00 EMaxC= 1.00D-01 BMatC= 2.85D-06 BMatP= 9.96D-05
 IDIUse=3 WtCom= 9.98D-01 WtEn= 1.71D-03
 Coeff-Com: -0.195D-02 0.761D-03 0.734D-04-0.316D-02 0.884D-01 0.226D+00
 Coeff-Com:  0.690D+00
 Coeff-En:   0.000D+00 0.000D+00 0.000D+00 0.000D+00 0.000D+00 0.000D+00
 Coeff-En:   0.100D+01
 Coeff:     -0.195D-02 0.759D-03 0.733D-04-0.315D-02 0.883D-01 0.225D+00
 Coeff:      0.691D+00
 Gap=     0.175 Goal=   None    Shift=    0.000
 RMSDP=2.15D-05 MaxDP=8.24D-04 DE=-1.12D-04 OVMax= 5.99D-04

 Cycle   8  Pass 1  IDiag  1:
 RMSU=  9.95D-06    CP:  1.24D+00  1.18D+00  7.49D-01  7.84D-01  7.42D-01
                    CP:  7.84D-01  7.01D-01
 E= -153.771040921433     Delta-E=       -0.000003200882 Rises=F Damp=F
 DIIS: error= 2.16D-05 at cycle   8 NSaved=   8.
 NSaved= 8 IEnMin= 8 EnMin= -153.771040921433     IErMin= 8 ErrMin= 2.16D-05
 ErrMax= 2.16D-05  0.00D+00 EMaxC= 1.00D-01 BMatC= 7.27D-08 BMatP= 2.85D-06
 IDIUse=1 WtCom= 1.00D+00 WtEn= 0.00D+00
 Coeff-Com: -0.250D-03 0.221D-03-0.291D-02-0.281D-02-0.660D-03 0.576D-02
 Coeff-Com:  0.103D+00 0.897D+00
 Coeff:     -0.250D-03 0.221D-03-0.291D-02-0.281D-02-0.660D-03 0.576D-02
 Coeff:      0.103D+00 0.897D+00
 Gap=     0.176 Goal=   None    Shift=    0.000
 RMSDP=7.77D-06 MaxDP=4.18D-04 DE=-3.20D-06 OVMax= 3.21D-04

 Cycle   9  Pass 1  IDiag  1:
 RMSU=  4.11D-06    CP:  1.24D+00  1.18D+00  7.47D-01  7.87D-01  7.42D-01
                    CP:  7.91D-01  7.19D-01  9.46D-01
 E= -153.771041050420     Delta-E=       -0.000000128987 Rises=F Damp=F
 DIIS: error= 6.65D-06 at cycle   9 NSaved=   9.
 NSaved= 9 IEnMin= 9 EnMin= -153.771041050420     IErMin= 9 ErrMin= 6.65D-06
 ErrMax= 6.65D-06  0.00D+00 EMaxC= 1.00D-01 BMatC= 5.65D-09 BMatP= 7.27D-08
 IDIUse=1 WtCom= 1.00D+00 WtEn= 0.00D+00
 Coeff-Com: -0.298D-04 0.674D-04-0.965D-03-0.789D-03-0.465D-02-0.751D-02
 Coeff-Com: -0.651D-03 0.279D+00 0.736D+00
 Coeff:     -0.298D-04 0.674D-04-0.965D-03-0.789D-03-0.465D-02-0.751D-02
 Coeff:     -0.651D-03 0.279D+00 0.736D+00
 Gap=     0.176 Goal=   None    Shift=    0.000
 RMSDP=1.99D-06 MaxDP=8.77D-05 DE=-1.29D-07 OVMax= 7.41D-05

 Cycle  10  Pass 1  IDiag  1:
 RMSU=  9.36D-07    CP:  1.24D+00  1.18D+00  7.47D-01  7.87D-01  7.42D-01
                    CP:  7.92D-01  7.23D-01  1.01D+00  7.80D-01
 E= -153.771041059583     Delta-E=       -0.000000009163 Rises=F Damp=F
 DIIS: error= 1.51D-06 at cycle  10 NSaved=  10.
 NSaved=10 IEnMin=10 EnMin= -153.771041059583     IErMin=10 ErrMin= 1.51D-06
 ErrMax= 1.51D-06  0.00D+00 EMaxC= 1.00D-01 BMatC= 3.75D-10 BMatP= 5.65D-09
 IDIUse=1 WtCom= 1.00D+00 WtEn= 0.00D+00
 Coeff-Com:  0.229D-04-0.185D-04-0.443D-04 0.185D-04-0.163D-02-0.299D-02
 Coeff-Com: -0.107D-01-0.167D-01 0.165D+00 0.867D+00
 Coeff:      0.229D-04-0.185D-04-0.443D-04 0.185D-04-0.163D-02-0.299D-02
 Coeff:     -0.107D-01-0.167D-01 0.165D+00 0.867D+00
 Gap=     0.176 Goal=   None    Shift=    0.000
 RMSDP=5.75D-07 MaxDP=2.73D-05 DE=-9.16D-09 OVMax= 2.94D-05

 Cycle  11  Pass 1  IDiag  1:
 RMSU=  2.44D-07    CP:  1.24D+00  1.18D+00  7.47D-01  7.87D-01  7.42D-01
                    CP:  7.93D-01  7.22D-01  1.02D+00  8.27D-01  1.05D+00
 E= -153.771041060383     Delta-E=       -0.000000000801 Rises=F Damp=F
 DIIS: error= 4.04D-07 at cycle  11 NSaved=  11.
 NSaved=11 IEnMin=11 EnMin= -153.771041060383     IErMin=11 ErrMin= 4.04D-07
 ErrMax= 4.04D-07  0.00D+00 EMaxC= 1.00D-01 BMatC= 2.12D-11 BMatP= 3.75D-10
 IDIUse=1 WtCom= 1.00D+00 WtEn= 0.00D+00
 Coeff-Com:  0.768D-05-0.122D-04 0.611D-04 0.647D-04 0.352D-04 0.146D-03
 Coeff-Com: -0.108D-02-0.183D-01-0.243D-01 0.974D-01 0.946D+00
 Coeff:      0.768D-05-0.122D-04 0.611D-04 0.647D-04 0.352D-04 0.146D-03
 Coeff:     -0.108D-02-0.183D-01-0.243D-01 0.974D-01 0.946D+00
 Gap=     0.176 Goal=   None    Shift=    0.000
 RMSDP=9.63D-08 MaxDP=3.58D-06 DE=-8.01D-10 OVMax= 5.91D-06

 Cycle  12  Pass 1  IDiag  1:
 RMSU=  3.36D-08    CP:  1.24D+00  1.18D+00  7.47D-01  7.87D-01  7.42D-01
                    CP:  7.93D-01  7.22D-01  1.02D+00  8.28D-01  1.10D+00
                    CP:  1.09D+00
 E= -153.771041060415     Delta-E=       -0.000000000031 Rises=F Damp=F
 DIIS: error= 9.40D-08 at cycle  12 NSaved=  12.
 NSaved=12 IEnMin=12 EnMin= -153.771041060415     IErMin=12 ErrMin= 9.40D-08
 ErrMax= 9.40D-08  0.00D+00 EMaxC= 1.00D-01 BMatC= 1.36D-12 BMatP= 2.12D-11
 IDIUse=1 WtCom= 1.00D+00 WtEn= 0.00D+00
 Coeff-Com:  0.114D-05-0.256D-05 0.108D-04 0.129D-04 0.504D-04 0.116D-03
 Coeff-Com:  0.272D-03-0.111D-02-0.704D-02-0.196D-01 0.120D+00 0.908D+00
 Coeff:      0.114D-05-0.256D-05 0.108D-04 0.129D-04 0.504D-04 0.116D-03
 Coeff:      0.272D-03-0.111D-02-0.704D-02-0.196D-01 0.120D+00 0.908D+00
 Gap=     0.176 Goal=   None    Shift=    0.000
 RMSDP=1.55D-08 MaxDP=5.09D-07 DE=-3.14D-11 OVMax= 4.72D-07

 Cycle  13  Pass 1  IDiag  1:
 RMSU=  4.75D-09    CP:  1.24D+00  1.18D+00  7.47D-01  7.87D-01  7.42D-01
                    CP:  7.93D-01  7.22D-01  1.02D+00  8.28D-01  1.10D+00
                    CP:  1.11D+00  1.01D+00
 E= -153.771041060418     Delta-E=       -0.000000000003 Rises=F Damp=F
 DIIS: error= 1.58D-08 at cycle  13 NSaved=  13.
 NSaved=13 IEnMin=13 EnMin= -153.771041060418     IErMin=13 ErrMin= 1.58D-08
 ErrMax= 1.58D-08  0.00D+00 EMaxC= 1.00D-01 BMatC= 4.16D-14 BMatP= 1.36D-12
 IDIUse=1 WtCom= 1.00D+00 WtEn= 0.00D+00
 Coeff-Com:  0.101D-06-0.357D-06 0.479D-07 0.146D-05 0.612D-05 0.131D-04
 Coeff-Com:  0.838D-04 0.437D-03-0.359D-03-0.714D-02-0.876D-02 0.172D+00
 Coeff-Com:  0.844D+00
 Coeff:      0.101D-06-0.357D-06 0.479D-07 0.146D-05 0.612D-05 0.131D-04
 Coeff:      0.838D-04 0.437D-03-0.359D-03-0.714D-02-0.876D-02 0.172D+00
 Coeff:      0.844D+00
 Gap=     0.176 Goal=   None    Shift=    0.000
 RMSDP=3.30D-09 MaxDP=1.31D-07 DE=-3.13D-12 OVMax= 1.12D-07

 SCF Done:  E(RB3LYP) =  -153.771041060     A.U. after   13 cycles
            NFock= 13  Conv=0.33D-08     -V/T= 2.0045
 KE= 1.530782509052D+02 PE=-5.206028360654D+02 EE= 1.248763098957D+02
 Leave Link  502 at Tue Jun 21 23:09:57 2016, MaxMem=    33554432 cpu:       314.2
 (Enter /home/proyectos/fulerenos/M3C-v1.9/M3C-deps_CCC/g09-AM64L-G09RevC.01/l801.exe)
 DoSCS=F DFT=T ScalE2(SS,OS)=  1.000000  1.000000
 Range of M.O.s used for correlation:     1   196
 NBasis=   196 NAE=    13 NBE=    13 NFC=     0 NFV=     0
 NROrb=    196 NOA=    13 NOB=    13 NVA=   183 NVB=   183

 **** Warning!!: The largest alpha MO coefficient is  0.17219478D+03

 Leave Link  801 at Tue Jun 21 23:09:57 2016, MaxMem=    33554432 cpu:         0.1
 (Enter /home/proyectos/fulerenos/M3C-v1.9/M3C-deps_CCC/g09-AM64L-G09RevC.01/l1101.exe)
 Using compressed storage, NAtomX=     8.
 Will process      9 centers per pass.
 Leave Link 1101 at Tue Jun 21 23:09:58 2016, MaxMem=    33554432 cpu:         1.9
 (Enter /home/proyectos/fulerenos/M3C-v1.9/M3C-deps_CCC/g09-AM64L-G09RevC.01/l1102.exe)
 Symmetrizing basis deriv contribution to polar:
 IMax=3 JMax=2 DiffMx= 0.00D+00
 Leave Link 1102 at Tue Jun 21 23:09:58 2016, MaxMem=    33554432 cpu:         0.4
 (Enter /home/proyectos/fulerenos/M3C-v1.9/M3C-deps_CCC/g09-AM64L-G09RevC.01/l1110.exe)
 Forming Gx(P) for the SCF density, NAtomX=     8.
 Integral derivatives from FoFJK, PRISM(SPDF).
 Do as many integral derivatives as possible in FoFJK.
 G2DrvN: MDV=      33554264.
 G2DrvN: will do     9 centers at a time, making    1 passes.
 Calling FoFCou, ICntrl=  3107 FMM=F I1Cent=   0 AccDes= 0.00D+00.
 FoFJK:  IHMeth= 1 ICntrl=    3107 DoSepK=F KAlg= 0 I1Cent=   0 FoldK=F
 IRaf=         0 NMat=   1 IRICut=       1 DoRegI=T DoRafI=F ISym2E= 0.
 FoFCou: FMM=F IPFlag=           0 FMFlag=      100000 FMFlg1=           0
         NFxFlg=           0 DoJE=F BraDBF=F KetDBF=F FulRan=T
         wScrn=  0.000000 ICntrl=    3107 IOpCl=  0 I1Cent=           0 NGrid=           0
         NMat0=    1 NMatS0=      1 NMatT0=    0 NMatD0=    1 NMtDS0=    0 NMtDT0=    0
 Symmetry not used in FoFCou.
 End of G2Drv F.D. properties file   721 does not exist.
 End of G2Drv F.D. properties file   722 does not exist.
 End of G2Drv F.D. properties file   788 does not exist.
 Leave Link 1110 at Tue Jun 21 23:11:08 2016, MaxMem=    33554432 cpu:       278.3
 (Enter /home/proyectos/fulerenos/M3C-v1.9/M3C-deps_CCC/g09-AM64L-G09RevC.01/l1002.exe)
 Minotr:  Closed shell wavefunction.
          IDoAtm=11111111
          Direct CPHF calculation.
          Differentiating once with respect to electric field.
                with respect to dipole field.
          Differentiating once with respect to nuclear coordinates.
          Requested convergence is 1.0D-08 RMS, and 1.0D-07 maximum.
          Secondary convergence is 1.0D-12 RMS, and 1.0D-12 maximum.
          NewPWx=T KeepS1=F KeepF1=F KeepIn=T MapXYZ=F SortEE=F KeepMc=T.
          MDV=      33554152 using IRadAn=       2.
 Generate precomputed XC quadrature information.
          Solving linear equations simultaneously, MaxMat=       0.
 FoFJK:  IHMeth= 1 ICntrl=       0 DoSepK=F KAlg= 0 I1Cent=   0 FoldK=F
 IRaf= 980000000 NMat=  27 IRICut=      67 DoRegI=T DoRafI=T ISym2E= 2.
 FoFCou: FMM=F IPFlag=           0 FMFlag=      100000 FMFlg1=           0
         NFxFlg=           0 DoJE=F BraDBF=F KetDBF=F FulRan=T
         wScrn=  0.000000 ICntrl=       0 IOpCl=  0 I1Cent=           0 NGrid=           0
         NMat0=   27 NMatS0=     27 NMatT0=    0 NMatD0=   27 NMtDS0=    0 NMtDT0=    0
 Integrals replicated using symmetry in FoFCou.
          There are    27 degrees of freedom in the 1st order CPHF.  IDoFFX=6 NUNeed=     3.
     26 vectors produced by pass  0 Test12= 8.81D-15 3.70D-09 XBig12= 1.72D+02 9.75D+00.
 AX will form    26 AO Fock derivatives at one time.
     24 vectors produced by pass  1 Test12= 8.81D-15 3.70D-09 XBig12= 3.45D+01 1.64D+00.
     24 vectors produced by pass  2 Test12= 8.81D-15 3.70D-09 XBig12= 2.23D-01 8.82D-02.
     24 vectors produced by pass  3 Test12= 8.81D-15 3.70D-09 XBig12= 9.53D-04 6.35D-03.
     24 vectors produced by pass  4 Test12= 8.81D-15 3.70D-09 XBig12= 1.88D-06 2.85D-04.
     20 vectors produced by pass  5 Test12= 8.81D-15 3.70D-09 XBig12= 2.89D-09 1.45D-05.
      5 vectors produced by pass  6 Test12= 8.81D-15 3.70D-09 XBig12= 2.55D-12 2.77D-07.
      3 vectors produced by pass  7 Test12= 8.81D-15 3.70D-09 XBig12= 4.20D-13 1.50D-07.
      1 vectors produced by pass  8 Test12= 8.81D-15 3.70D-09 XBig12= 7.09D-15 2.07D-08.
 InvSVY:  IOpt=1 It=  1 EMax= 7.11D-15
 Solved reduced A of dimension   151 with    27 vectors.
 FullF1:  Do perturbations    1 to     3.
 Isotropic polarizability for W=    0.000000       43.32 Bohr**3.
 End of Minotr F.D. properties file   721 does not exist.
 End of Minotr F.D. properties file   722 does not exist.
 End of Minotr F.D. properties file   788 does not exist.
 Leave Link 1002 at Tue Jun 21 23:13:50 2016, MaxMem=    33554432 cpu:       646.2
 (Enter /home/proyectos/fulerenos/M3C-v1.9/M3C-deps_CCC/g09-AM64L-G09RevC.01/l601.exe)
 Copying SCF densities to generalized density rwf, IOpCl= 0 IROHF=0.

 **********************************************************************

            Population analysis using the SCF density.

 **********************************************************************

 Orbital symmetries:
       Occupied  (A) (A) (A) (A) (A) (A) (A) (A) (A) (A) (A) (A)
                 (A)
       Virtual   (A) (A) (A) (A) (A) (A) (A) (A) (A) (A) (A) (A)
                 (A) (A) (A) (A) (A) (A) (A) (A) (A) (A) (A) (A)
                 (A) (A) (A) (A) (A) (A) (A) (A) (A) (A) (A) (A)
                 (A) (A) (A) (A) (A) (A) (A) (A) (A) (A) (A) (A)
                 (A) (A) (A) (A) (A) (A) (A) (A) (A) (A) (A) (A)
                 (A) (A) (A) (A) (A) (A) (A) (A) (A) (A) (A) (A)
                 (A) (A) (A) (A) (A) (A) (A) (A) (A) (A) (A) (A)
                 (A) (A) (A) (A) (A) (A) (A) (A) (A) (A) (A) (A)
                 (A) (A) (A) (A) (A) (A) (A) (A) (A) (A) (A) (A)
                 (A) (A) (A) (A) (A) (A) (A) (A) (A) (A) (A) (A)
                 (A) (A) (A) (A) (A) (A) (A) (A) (A) (A) (A) (A)
                 (A) (A) (A) (A) (A) (A) (A) (A) (A) (A) (A) (A)
                 (A) (A) (A) (A) (A) (A) (A) (A) (A) (A) (A) (A)
                 (A) (A) (A) (A) (A) (A) (A) (A) (A) (A) (A) (A)
                 (A) (A) (A) (A) (A) (A) (A) (A) (A) (A) (A) (A)
                 (A) (A) (A)
 The electronic state is 1-A.
 Alpha  occ. eigenvalues --  -10.84240 -10.84176 -10.72110 -10.68130  -1.37331
 Alpha  occ. eigenvalues --   -1.28546  -1.15932  -1.01257  -0.97728  -0.93588
 Alpha  occ. eigenvalues --   -0.90998  -0.83132  -0.81067
 Alpha virt. eigenvalues --   -0.63513  -0.63053  -0.60976  -0.45172  -0.36329
 Alpha virt. eigenvalues --   -0.31436  -0.30614  -0.28188  -0.27119  -0.26608
 Alpha virt. eigenvalues --   -0.26423  -0.24412  -0.23380  -0.21906  -0.20166
 Alpha virt. eigenvalues --   -0.18861  -0.17691  -0.16881  -0.15592  -0.14120
 Alpha virt. eigenvalues --   -0.13990  -0.13176  -0.12968  -0.12191  -0.11056
 Alpha virt. eigenvalues --   -0.09943  -0.08386  -0.07209  -0.07121  -0.05128
 Alpha virt. eigenvalues --   -0.04081  -0.04032  -0.02173   0.01051   0.01483
 Alpha virt. eigenvalues --    0.02337   0.02818   0.05317   0.05394   0.07406
 Alpha virt. eigenvalues --    0.09267   0.09867   0.12426   0.13315   0.14822
 Alpha virt. eigenvalues --    0.15120   0.16162   0.17425   0.18796   0.18976
 Alpha virt. eigenvalues --    0.20205   0.20778   0.22235   0.26547   0.31059
 Alpha virt. eigenvalues --    0.34163   0.34425   0.35701   0.36157   0.39316
 Alpha virt. eigenvalues --    0.39513   0.39996   0.41024   0.45971   0.51781
 Alpha virt. eigenvalues --    0.56357   0.58886   0.64893   0.69423   0.72798
 Alpha virt. eigenvalues --    0.74034   0.74820   0.78869   0.79409   0.80731
 Alpha virt. eigenvalues --    0.82804   0.86105   0.87275   0.90632   0.90864
 Alpha virt. eigenvalues --    0.94472   0.96664   0.99753   1.03335   1.05556
 Alpha virt. eigenvalues --    1.07937   1.10768   1.12882   1.15245   1.16639
 Alpha virt. eigenvalues --    1.28001   1.35299   1.37341   1.43141   1.48448
 Alpha virt. eigenvalues --    1.55228   1.57400   1.62037   1.66165   1.76129
 Alpha virt. eigenvalues --    1.85343   1.98748   2.13318   2.15493   2.16299
 Alpha virt. eigenvalues --    2.16512   2.19411   2.21448   2.22288   2.24084
 Alpha virt. eigenvalues --    2.26886   2.30123   2.30599   2.34829   2.36217
 Alpha virt. eigenvalues --    2.38566   2.40789   2.41863   2.44252   2.54367
 Alpha virt. eigenvalues --    2.55985   2.57400   2.59507   2.62153   2.69705
 Alpha virt. eigenvalues --    2.75657   2.77520   2.78493   2.80956   2.83378
 Alpha virt. eigenvalues --    2.97657   2.98582   3.06924   3.17277   3.30535
 Alpha virt. eigenvalues --    3.32678   3.37056   3.45561   3.56864   3.60112
 Alpha virt. eigenvalues --    3.65654   3.71415   3.77923   3.79439   3.81409
 Alpha virt. eigenvalues --    3.84697   3.90884   3.95142   4.02529   4.11218
 Alpha virt. eigenvalues --    4.18531   4.25937   4.59596   4.89735   4.96087
 Alpha virt. eigenvalues --    5.07529   5.15257   5.33098   5.80979   6.40682
 Alpha virt. eigenvalues --    6.40819   6.41942   6.42795   6.53773   6.60477
 Alpha virt. eigenvalues --    6.68983   6.72604   6.73205   6.75340   6.83055
 Alpha virt. eigenvalues --    6.90498   6.98985   7.09092   7.22281   7.41787
 Alpha virt. eigenvalues --    7.55135   7.58468   7.64571   7.97645  23.29979
 Alpha virt. eigenvalues --   24.22627  25.04544  25.41666
          Condensed to atoms (all electrons):
               1          2          3          4          5          6
     1  C    8.708866   0.188139   0.394717   0.397894  -0.804255  -0.141149
     2  H    0.188139   0.369565  -0.003167  -0.003457   0.051623  -0.004277
     3  H    0.394717  -0.003167   0.371330  -0.008989  -0.048792   0.002802
     4  H    0.397894  -0.003457  -0.008989   0.371364  -0.050485   0.002623
     5  C   -0.804255   0.051623  -0.048792  -0.050485   7.615086  -0.396803
     6  C   -0.141149  -0.004277   0.002802   0.002623  -0.396803   7.454398
     7  C   -2.641392   0.091146  -0.003910  -0.004345  -0.998679  -1.040301
     8  H    0.068305   0.001734  -0.000362  -0.000401   0.016923  -0.093197
               7          8
     1  C   -2.641392   0.068305
     2  H    0.091146   0.001734
     3  H   -0.003910  -0.000362
     4  H   -0.004345  -0.000401
     5  C   -0.998679   0.016923
     6  C   -1.040301  -0.093197
     7  C   10.115943   0.317166
     8  H    0.317166   0.415226
 Mulliken charges:
               1
     1  C   -0.171125
     2  H    0.308694
     3  H    0.296371
     4  H    0.295796
     5  C    0.615382
     6  C    0.215904
     7  C    0.164372
     8  H    0.274606
 Sum of Mulliken charges =   2.00000
 Mulliken charges with hydrogens summed into heavy atoms:
               1
     1  C    0.729736
     5  C    0.615382
     6  C    0.215904
     7  C    0.438978
 APT charges:
               1
     1  C   -0.753216
     2  H    0.379299
     3  H    0.332505
     4  H    0.331086
     5  C    1.247163
     6  C    0.868064
     7  C   -0.786929
     8  H    0.382029
 Sum of APT charges =   2.00000
 APT charges with hydrogens summed into heavy atoms:
               1
     1  C    0.289674
     5  C    1.247163
     6  C    0.868064
     7  C   -0.404900
 Electronic spatial extent (au):  <R**2>=            265.6040
 Charge=              2.0000 electrons
 Dipole moment (field-independent basis, Debye):
    X=              1.5063    Y=              1.1627    Z=             -0.0154  Tot=              1.9029
 Quadrupole moment (field-independent basis, Debye-Ang):
   XX=              7.0925   YY=            -13.7413   ZZ=            -18.3156
   XY=             -2.6404   XZ=             -0.0341   YZ=             -0.0001
 Traceless Quadrupole moment (field-independent basis, Debye-Ang):
   XX=             15.4140   YY=             -5.4199   ZZ=             -9.9941
   XY=             -2.6404   XZ=             -0.0341   YZ=             -0.0001
 Octapole moment (field-independent basis, Debye-Ang**2):
  XXX=             20.4710  YYY=              7.3180  ZZZ=              0.0785  XYY=              1.1747
  XXY=              3.2293  XXZ=             -0.0618  XZZ=              6.1201  YZZ=             -1.8998
  YYZ=             -0.1132  XYZ=             -0.0240
 Hexadecapole moment (field-independent basis, Debye-Ang**3):
 XXXX=           -173.1915 YYYY=            -31.0916 ZZZZ=            -21.6287 XXXY=            -11.8165
 XXXZ=             -0.1244 YYYX=             -9.8267 YYYZ=              0.0473 ZZZX=              0.1834
 ZZZY=              0.0049 XXYY=            -36.1005 XXZZ=            -39.0496 YYZZ=             -9.6921
 XXYZ=             -0.0921 YYXZ=             -0.2533 ZZXY=             -5.0608
 N-N= 8.887723420408D+01 E-N=-5.206028356699D+02  KE= 1.530782509052D+02
  Exact polarizability:  73.495   1.223  30.762  -0.029   0.007  25.704
 Approx polarizability: 156.590   9.415  52.040  -0.055   0.034  38.091
 No NMR shielding tensors so no spin-rotation constants.
 Leave Link  601 at Tue Jun 21 23:13:51 2016, MaxMem=    33554432 cpu:         1.4
 (Enter /home/proyectos/fulerenos/M3C-v1.9/M3C-deps_CCC/g09-AM64L-G09RevC.01/l701.exe)
 Compute integral second derivatives.
 ... and contract with generalized density number  0.
 Leave Link  701 at Tue Jun 21 23:13:51 2016, MaxMem=    33554432 cpu:         2.7
 (Enter /home/proyectos/fulerenos/M3C-v1.9/M3C-deps_CCC/g09-AM64L-G09RevC.01/l702.exe)
 L702 exits ... SP integral derivatives will be done elsewhere.
 Leave Link  702 at Tue Jun 21 23:13:51 2016, MaxMem=    33554432 cpu:         0.2
 (Enter /home/proyectos/fulerenos/M3C-v1.9/M3C-deps_CCC/g09-AM64L-G09RevC.01/l703.exe)
 Compute integral second derivatives, UseDBF=F ICtDFT=           0.
 Integral derivatives from FoFJK, PRISM(SPDF).
 Calling FoFJK, ICntrl=    100127 FMM=F ISym2X=0 I1Cent= 0 IOpClX= 0 NMat=1 NMatS=1 NMatT=0.
 FoFJK:  IHMeth= 1 ICntrl=  100127 DoSepK=F KAlg= 0 I1Cent=   0 FoldK=F
 IRaf=         0 NMat=   1 IRICut=       1 DoRegI=T DoRafI=F ISym2E= 0.
 FoFCou: FMM=F IPFlag=           0 FMFlag=      100000 FMFlg1=         800
         NFxFlg=           0 DoJE=F BraDBF=F KetDBF=F FulRan=T
         wScrn=  0.000000 ICntrl=  100127 IOpCl=  0 I1Cent=           0 NGrid=           0
         NMat0=    1 NMatS0=      1 NMatT0=    0 NMatD0=    1 NMtDS0=    0 NMtDT0=    0
 Symmetry not used in FoFCou.
 Leave Link  703 at Tue Jun 21 23:17:25 2016, MaxMem=    33554432 cpu:       854.2
 (Enter /home/proyectos/fulerenos/M3C-v1.9/M3C-deps_CCC/g09-AM64L-G09RevC.01/l716.exe)
 Dipole        = 5.92627734D-01 4.57435362D-01-6.05891147D-03
 Polarizability= 7.34947098D+01 1.22257008D+00 3.07623640D+01
                -2.85952228D-02 7.08352032D-03 2.57038234D+01
 Full mass-weighted force constant matrix:
 Low frequencies ---   -9.6384   -0.0006   -0.0003    0.0003    7.4359   14.1435
 Low frequencies ---   46.2968  207.0472  362.8806
 Diagonal vibrational polarizability:
       21.9530256       8.8156399      42.8186029
 Harmonic frequencies (cm**-1), IR intensities (KM/Mole), Raman scattering
 activities (A**4/AMU), depolarization ratios for plane and unpolarized
 incident light, reduced masses (AMU), force constants (mDyne/A),
 and normal coordinates:
                      1                      2                      3
                      A                      A                      A
 Frequencies --     45.1530               207.0433               362.8781
 Red. masses --      1.2282                 3.8653                 1.8033
 Frc consts  --      0.0015                 0.0976                 0.1399
 IR Inten    --      2.7543                 2.6622                14.5374
  Atom  AN      X      Y      Z        X      Y      Z        X      Y      Z
     1   6     0.00  -0.00   0.01    -0.13  -0.15   0.00    -0.00  -0.00  -0.07
     2   1    -0.00   0.02   0.69     0.31  -0.38   0.01    -0.04   0.02  -0.08
     3   1     0.17   0.41  -0.15    -0.35  -0.28  -0.01    -0.36   0.10  -0.26
     4   1    -0.16  -0.40  -0.13    -0.34  -0.30   0.00     0.39  -0.08  -0.26
     5   6    -0.00  -0.00  -0.05    -0.05   0.22  -0.00    -0.00  -0.00   0.25
     6   6    -0.00   0.00   0.11     0.30  -0.20   0.00     0.01  -0.00  -0.04
     7   6     0.00  -0.00  -0.08    -0.06   0.20  -0.00     0.00   0.01  -0.04
     8   1     0.00   0.00  -0.27    -0.29   0.10  -0.00     0.00   0.01  -0.70
                      4                      5                      6
                      A                      A                      A
 Frequencies --    411.1822               533.6473               748.0778
 Red. masses --      1.9221                 1.7415                 1.6347
 Frc consts  --      0.1915                 0.2922                 0.5390
 IR Inten    --     21.7575                 1.3130                 3.8656
  Atom  AN      X      Y      Z        X      Y      Z        X      Y      Z
     1   6     0.07   0.05  -0.00    -0.00   0.00   0.06    -0.02   0.16  -0.00
     2   1     0.72  -0.34   0.01    -0.01   0.00  -0.19     0.44  -0.15   0.00
     3   1    -0.28  -0.21  -0.00    -0.26   0.16  -0.16    -0.28  -0.14   0.05
     4   1    -0.23  -0.23  -0.02     0.27  -0.16  -0.15    -0.27  -0.15  -0.05
     5   6     0.07   0.17   0.01    -0.00  -0.00   0.07    -0.07  -0.15   0.00
     6   6    -0.15   0.01   0.00     0.00   0.00   0.07     0.05  -0.02  -0.00
     7   6    -0.00  -0.15  -0.01     0.00   0.00  -0.23    -0.01   0.03   0.00
     8   1    -0.13  -0.18  -0.02     0.01   0.00   0.81     0.67   0.28  -0.01
                      7                      8                      9
                      A                      A                      A
 Frequencies --    896.1712               905.7429               942.9564
 Red. masses --      1.8176                 2.7744                 1.8322
 Frc consts  --      0.8601                 1.3410                 0.9598
 IR Inten    --     59.4130                15.3588                20.5244
  Atom  AN      X      Y      Z        X      Y      Z        X      Y      Z
     1   6    -0.00  -0.00   0.19    -0.18   0.10   0.00    -0.15  -0.06  -0.01
     2   1    -0.02  -0.01  -0.38    -0.13   0.05  -0.01    -0.34   0.08   0.02
     3   1    -0.45   0.33  -0.21    -0.38  -0.07   0.01    -0.12   0.15  -0.10
     4   1     0.46  -0.31  -0.19    -0.35  -0.09  -0.02    -0.15   0.18   0.11
     5   6     0.00   0.01  -0.18    -0.01  -0.08  -0.00     0.05   0.15   0.00
     6   6    -0.00  -0.00  -0.01     0.18   0.19  -0.00    -0.01  -0.02   0.00
     7   6     0.00  -0.00   0.09     0.14  -0.16   0.00     0.09  -0.12  -0.00
     8   1     0.04   0.01  -0.28    -0.60  -0.42  -0.01     0.82   0.13   0.01
                     10                     11                     12
                      A                      A                      A
 Frequencies --   1146.9698              1156.5637              1280.3942
 Red. masses --      1.0432                 1.1132                 1.2196
 Frc consts  --      0.8085                 0.8773                 1.1780
 IR Inten    --     62.8405               158.0782               151.5682
  Atom  AN      X      Y      Z        X      Y      Z        X      Y      Z
     1   6     0.02   0.01  -0.01    -0.06  -0.04  -0.00    -0.09   0.03  -0.00
     2   1    -0.10   0.08   0.60     0.50  -0.31   0.14     0.12  -0.08   0.01
     3   1    -0.48  -0.42   0.07     0.10   0.40  -0.19     0.51  -0.25   0.37
     4   1     0.39   0.23  -0.02     0.29   0.55   0.18     0.52  -0.26  -0.37
     5   6     0.01   0.00  -0.05    -0.03  -0.02  -0.01    -0.04   0.05  -0.00
     6   6    -0.01  -0.01  -0.00     0.03   0.03  -0.00     0.04   0.03   0.00
     7   6     0.00   0.00   0.00    -0.01  -0.02   0.00    -0.02  -0.06   0.00
     8   1     0.00   0.01   0.09    -0.03  -0.03   0.02     0.14   0.00  -0.00
                     13                     14                     15
                      A                      A                      A
 Frequencies --   1376.3682              1830.8776              2647.6937
 Red. masses --      6.5130                11.2222                 1.0673
 Frc consts  --      7.2694                22.1640                 4.4082
 IR Inten    --    172.7322              1256.1202               474.4373
  Atom  AN      X      Y      Z        X      Y      Z        X      Y      Z
     1   6    -0.30   0.10  -0.00    -0.27   0.06  -0.00    -0.03  -0.06   0.00
     2   1     0.24  -0.20   0.02     0.02   0.06   0.00     0.48   0.86  -0.02
     3   1     0.16   0.00   0.24    -0.06  -0.03   0.02    -0.01  -0.03  -0.00
     4   1     0.17   0.01  -0.24    -0.06  -0.03  -0.02    -0.01  -0.03   0.01
     5   6     0.17  -0.10  -0.00     0.74  -0.16   0.00    -0.01  -0.00   0.00
     6   6    -0.28  -0.23  -0.00     0.06   0.05   0.00    -0.00  -0.00  -0.00
     7   6     0.40   0.26   0.00    -0.52   0.03  -0.00     0.00   0.01  -0.00
     8   1    -0.47  -0.09   0.00    -0.04   0.24   0.00     0.05  -0.13   0.00
                     16                     17                     18
                      A                      A                      A
 Frequencies --   2761.8917              2812.4513              2859.5249
 Red. masses --      1.0827                 1.0512                 1.0998
 Frc consts  --      4.8661                 4.8988                 5.2984
 IR Inten    --    684.8542               348.9048               238.3430
  Atom  AN      X      Y      Z        X      Y      Z        X      Y      Z
     1   6     0.00  -0.02  -0.00     0.03  -0.05  -0.01    -0.00   0.00  -0.09
     2   1     0.06   0.11  -0.00     0.00  -0.04  -0.00    -0.00  -0.00  -0.04
     3   1    -0.06   0.08   0.15    -0.23   0.34   0.62    -0.20   0.32   0.52
     4   1    -0.05   0.07  -0.14    -0.20   0.27  -0.53     0.25  -0.35   0.63
     5   6    -0.00  -0.00  -0.00     0.01  -0.00  -0.00    -0.00   0.00  -0.00
     6   6    -0.00  -0.00  -0.00     0.00   0.00  -0.00    -0.00  -0.00  -0.00
     7   6     0.03  -0.07  -0.00    -0.02   0.02  -0.00     0.00  -0.00  -0.00
     8   1    -0.32   0.90   0.00     0.08  -0.22   0.00    -0.00   0.01   0.01

 -------------------
 - Thermochemistry -
 -------------------
 Temperature   298.150 Kelvin.  Pressure   1.00000 Atm.
 Atom     1 has atomic number  6 and mass  12.00000
 Atom     2 has atomic number  1 and mass   1.00783
 Atom     3 has atomic number  1 and mass   1.00783
 Atom     4 has atomic number  1 and mass   1.00783
 Atom     5 has atomic number  6 and mass  12.00000
 Atom     6 has atomic number  6 and mass  12.00000
 Atom     7 has atomic number  6 and mass  12.00000
 Atom     8 has atomic number  1 and mass   1.00783
 Molecular mass:    52.03130 amu.
 Principal axes and moments of inertia in atomic units:
                           1         2         3
     Eigenvalues --    40.06876 386.59969 414.14822
           X            0.99964  -0.02683  -0.00015
           Y            0.02683   0.99964   0.00003
           Z            0.00015  -0.00003   1.00000
 This molecule is an asymmetric top.
 Rotational symmetry number  1.
 Rotational temperatures (Kelvin)      2.16163     0.22404     0.20914
 Rotational constants (GHZ):          45.04111     4.66824     4.35772
 Zero-point vibrational energy     137125.5 (Joules/Mol)
                                   32.77377 (Kcal/Mol)
 Warning -- explicit consideration of   5 degrees of freedom as
           vibrations may cause significant error
 Vibrational temperatures:     64.97   297.89   522.10   591.60   767.80
          (Kelvin)           1076.32  1289.39  1303.16  1356.70  1650.23
                             1664.04  1842.20  1980.28  2634.22  3809.44
                             3973.74  4046.49  4114.21
 
 Zero-point correction=                           0.052228 (Hartree/Particle)
 Thermal correction to Energy=                    0.057613
 Thermal correction to Enthalpy=                  0.058557
 Thermal correction to Gibbs Free Energy=         0.024513
 Sum of electronic and zero-point Energies=           -153.718813
 Sum of electronic and thermal Energies=              -153.713429
 Sum of electronic and thermal Enthalpies=            -153.712484
 Sum of electronic and thermal Free Energies=         -153.746528
 
                     E (Thermal)             CV                S
                      KCal/Mol        Cal/Mol-Kelvin    Cal/Mol-Kelvin
 Total                   36.152             16.897             71.651
 Electronic               0.000              0.000              0.000
 Translational            0.889              2.981             37.771
 Rotational               0.889              2.981             23.377
 Vibrational             34.375             10.936             10.503
 Vibration     1          0.595              1.979              5.019
 Vibration     2          0.641              1.830              2.070
 Vibration     3          0.737              1.549              1.110
 Vibration     4          0.775              1.446              0.922
 Vibration     5          0.889              1.176              0.579
                       Q            Log10(Q)             Ln(Q)
 Total Bot       0.530617D-11        -11.275219        -25.962152
 Total V=0       0.559879D+13         12.748094         29.353572
 Vib (Bot)       0.125450D-22        -22.901529        -52.732720
 Vib (Bot)    1  0.458033D+01          0.660896          1.521770
 Vib (Bot)    2  0.960428D+00         -0.017535         -0.040376
 Vib (Bot)    3  0.504132D+00         -0.297456         -0.684917
 Vib (Bot)    4  0.429896D+00         -0.366637         -0.844212
 Vib (Bot)    5  0.298671D+00         -0.524807         -1.208412
 Vib (V=0)       0.132368D+02          1.121784          2.583003
 Vib (V=0)    1  0.510754D+01          0.708212          1.630717
 Vib (V=0)    2  0.158278D+01          0.199422          0.459185
 Vib (V=0)    3  0.121003D+01          0.082798          0.190649
 Vib (V=0)    4  0.115940D+01          0.064234          0.147904
 Vib (V=0)    5  0.108241D+01          0.034393          0.079192
 Electronic      0.100000D+01          0.000000          0.000000
 Translational   0.147520D+08          7.168852         16.506892
 Rotational      0.286720D+05          4.457458         10.263676
 
                                                              b3lyp opt
                                                             IR Spectrum
 
     2  2 2    2                                   1                   1    1    11                                                  
     8  8 7    6                                   8                   3    2    11        998     7         5    4 3      2         
     6  1 6    4                                   3                   7    8    54        409     4         3    1 6      0      4  
     0  2 2    8                                   1                   6    0    77        366     8         4    1 3      7      5  
 
     X  X X    X                                   X                   X    X    XX        XXX     X         X    X X      X      X  
     X  X X    X                                   X                   X    X    X                                                   
     X  X X    X                                   X                   X         X                                                   
     X  X X    X                                   X                                                                                 
        X X    X                                   X                                                                                 
        X X    X                                   X                                                                                 
          X    X                                   X                                                                                 
          X    X                                   X                                                                                 
          X                                        X                                                                                 
          X                                        X                                                                                 
          X                                        X                                                                                 
                                                   X                                                                                 
                                                   X                                                                                 
                                                   X                                                                                 
                                                   X                                                                                 
                                                   X                                                                                 
                                                   X                                                                                 
                                                   X                                                                                 
                                                   X                                                                                 
                                                   X                                                                                 
 
 ***** Axes restored to original set *****
 -------------------------------------------------------------------
 Center     Atomic                   Forces (Hartrees/Bohr)
 Number     Number              X              Y              Z
 -------------------------------------------------------------------
      1        6           0.000177065    0.000036589   -0.000133778
      2        1           0.000038494    0.000054581    0.000009132
      3        1           0.000054537   -0.000060173   -0.000046546
      4        1           0.000048345   -0.000083871    0.000119170
      5        6          -0.000337162    0.000028537    0.000076654
      6        6           0.000305903    0.000269791   -0.000001489
      7        6          -0.000303974   -0.000176468   -0.000017567
      8        1           0.000016791   -0.000068986   -0.000005576
 -------------------------------------------------------------------
 Cartesian Forces:  Max     0.000337162 RMS     0.000144788
 Z-matrix is all fixed cartesians, so copy forces.
 Force constants in Cartesian coordinates: 
                1             2             3             4             5 
      1  0.552409D+00
      2 -0.752937D-01  0.358651D+00
      3  0.196393D-02 -0.592605D-03  0.429755D+00
      4 -0.677005D-01 -0.880197D-01  0.231303D-02  0.800827D-01
      5 -0.730471D-01 -0.168205D+00  0.484273D-02  0.958875D-01  0.197333D+00
      6  0.179219D-02  0.472128D-02 -0.813581D-02 -0.261849D-02 -0.499120D-02
      7 -0.497058D-01  0.368793D-01  0.545860D-01  0.514256D-02 -0.687157D-02
      8  0.347929D-01 -0.727528D-01 -0.908366D-01  0.522049D-02 -0.130531D-01
      9  0.485856D-01 -0.856031D-01 -0.184053D+00  0.104798D-02 -0.297479D-02
     10 -0.514174D-01  0.355390D-01 -0.578940D-01  0.527042D-02 -0.647448D-02
     11  0.336101D-01 -0.669482D-01  0.864443D-01  0.545298D-02 -0.120169D-01
     12 -0.519229D-01  0.814930D-01 -0.191020D+00 -0.129664D-02  0.319133D-02
     13 -0.359582D+00  0.831546D-01 -0.114097D-02 -0.245901D-01 -0.157119D-01
     14  0.704833D-01 -0.838171D-01  0.261652D-03 -0.256206D-01  0.130556D-02
     15 -0.493383D-03 -0.167318D-03 -0.731537D-01  0.661645D-03 -0.118078D-03
     16  0.153483D-01 -0.730016D-03  0.279280D-04 -0.129744D-02 -0.362131D-02
     17  0.140154D-01 -0.554727D-02  0.218345D-03 -0.116645D-02 -0.243082D-02
     18  0.313629D-04  0.224799D-03  0.284705D-02 -0.580370D-05 -0.683263D-04
     19 -0.405010D-01  0.130025D-01  0.263851D-03  0.464357D-02  0.953976D-02
     20  0.341501D-02  0.415226D-01 -0.455576D-03  0.811552D-02 -0.554758D-02
     21  0.142520D-03  0.594468D-03  0.328828D-01 -0.132194D-03 -0.648534D-04
     22  0.114952D-02 -0.453201D-02 -0.119761D-03 -0.155120D-02  0.299154D-03
     23 -0.797610D-02 -0.290350D-02  0.117813D-03  0.130259D-03  0.261441D-02
     24 -0.993419D-04 -0.670526D-03 -0.912303D-02  0.304800D-04  0.183189D-03
                6             7             8             9            10 
      6  0.217749D-01
      7 -0.714630D-02  0.606632D-01
      8 -0.158544D-01 -0.397614D-01  0.869810D-01
      9 -0.379298D-02 -0.632303D-01  0.997112D-01  0.203163D+00
     10  0.749428D-02  0.514771D-02 -0.451524D-02  0.595704D-02  0.625817D-01
     11  0.161157D-01 -0.482975D-02  0.480635D-02 -0.966646D-02 -0.383624D-01
     12 -0.460157D-02 -0.595710D-02  0.895337D-02 -0.148218D-01  0.666771D-01
     13  0.643412D-03 -0.215170D-01  0.690589D-02  0.142363D-01 -0.220168D-01
     14 -0.183555D-03  0.176679D-01 -0.819210D-02 -0.229884D-03  0.165647D-01
     15 -0.626911D-02  0.253520D-01 -0.106356D-02  0.121194D-02 -0.258647D-01
     16  0.100399D-03 -0.827037D-03  0.228864D-02  0.313901D-02 -0.815826D-03
     17  0.107021D-04 -0.334562D-03  0.314560D-02  0.281081D-02 -0.388424D-03
     18 -0.110411D-02  0.523895D-03  0.482283D-03 -0.561078D-03 -0.538721D-03
     19 -0.287952D-03  0.674581D-03 -0.441367D-02 -0.107053D-01  0.895288D-03
     20  0.269273D-03 -0.353038D-02 -0.689035D-03 -0.277829D-02 -0.311760D-02
     21 -0.140124D-02 -0.299364D-02 -0.308314D-03 -0.381771D-02  0.298942D-02
     22  0.224641D-04  0.421704D-03 -0.517573D-03  0.969623D-03  0.354918D-03
     23 -0.878165D-04  0.780499D-03 -0.245917D-03 -0.126954D-02  0.754443D-03
     24  0.352990D-02 -0.113456D-02 -0.108401D-02  0.267094D-02  0.117960D-02
               11            12            13            14            15 
     11  0.798845D-01
     12 -0.950063D-01  0.210611D+00
     13  0.652299D-02 -0.141558D-01  0.985338D+00
     14 -0.805901D-02  0.219710D-03 -0.183538D+00  0.208623D+00
     15  0.137509D-02  0.169937D-02  0.651775D-03 -0.915610D-04  0.125016D+00
     16  0.213692D-02 -0.321990D-02 -0.414376D-01 -0.101659D-01 -0.648190D-04
     17  0.298975D-02 -0.298116D-02 -0.190706D-01  0.357776D-02 -0.692189D-04
     18 -0.595600D-03 -0.538815D-03 -0.155464D-04 -0.507767D-04  0.393916D-02
     19 -0.398256D-02  0.107774D-01 -0.503177D+00  0.875587D-01 -0.271818D-03
     20 -0.441968D-03  0.288025D-02  0.105300D+00 -0.112697D+00  0.140771D-03
     21 -0.105436D-03 -0.395142D-02 -0.254569D-03 -0.575673D-04 -0.581641D-01
     22 -0.548345D-03 -0.902075D-03 -0.130179D-01  0.270503D-01  0.292912D-04
     23 -0.214454D-03  0.124987D-02  0.164376D-01 -0.741330D-03 -0.612771D-05
     24  0.143880D-02  0.262359D-02  0.354099D-04  0.131983D-03  0.572051D-02
               16            17            18            19            20 
     16  0.224580D+00
     17  0.176226D+00  0.168109D+00
     18  0.574565D-04  0.444902D-04  0.479257D-02
     19 -0.205152D+00 -0.168278D+00 -0.522935D-04  0.795883D+00
     20 -0.160829D+00 -0.152215D+00 -0.329406D-04 -0.576338D-02  0.453900D+00
     21 -0.259852D-04 -0.198325D-04 -0.144215D-01  0.250346D-03  0.221125D-04
     22  0.960098D-02 -0.100334D-02  0.000000D+00 -0.532662D-01  0.564100D-01
     23 -0.530529D-02 -0.176287D-01 -0.392771D-05  0.723368D-01 -0.223832D+00
     24 -0.140815D-04 -0.141397D-04  0.504670D-02  0.257877D-04 -0.456041D-04
               21            22            23            24 
     21  0.665774D-01
     22  0.241051D-04  0.563083D-01
     23 -0.605775D-04 -0.771583D-01  0.242951D+00
     24 -0.177043D-01 -0.232985D-04  0.603021D-04  0.723572D-02
 Leave Link  716 at Tue Jun 21 23:17:25 2016, MaxMem=    33554432 cpu:         0.1
 (Enter /home/proyectos/fulerenos/M3C-v1.9/M3C-deps_CCC/g09-AM64L-G09RevC.01/l103.exe)

 GradGradGradGradGradGradGradGradGradGradGradGradGradGradGradGradGradGrad
 Berny optimization.
 Search for a local minimum.
 Step number   1 out of a maximum of    2
 All quantities printed in internal units (Hartrees-Bohrs-Radians)
 Second derivative matrix not updated -- analytic derivatives used.
 ITU=  0
     Eigenvalues ---    0.00017   0.00628   0.01147   0.02398   0.03471
     Eigenvalues ---    0.04633   0.05578   0.06601   0.07734   0.18383
     Eigenvalues ---    0.20293   0.22959   0.38325   0.50313   0.61107
     Eigenvalues ---    0.66828   0.87017   1.53605
 Angle between quadratic step and forces=  87.92 degrees.
 Linear search not attempted -- first point.
 B after Tr=    -0.000059    0.000071    0.002808
         Rot=    0.999999    0.001092   -0.000757    0.000015 Ang=   0.15 deg.
 Variable       Old X    -DE/DX   Delta X   Delta X   Delta X     New X
                                 (Linear)    (Quad)   (Total)
    X1        3.18856   0.00018   0.00000   0.00025   0.00018   3.18874
    Y1       -0.29508   0.00004   0.00000  -0.00000  -0.00003  -0.29510
    Z1        0.00218  -0.00013   0.00000  -0.00258  -0.00395  -0.00178
    X2        4.16424   0.00004   0.00000   0.00033   0.00028   4.16452
    Y2        1.62527   0.00005   0.00000   0.00109   0.00098   1.62626
    Z2       -0.05128   0.00001   0.00000   0.02907   0.02202  -0.02926
    X3        3.82810   0.00005   0.00000   0.00796   0.00521   3.83331
    Y3       -1.29334  -0.00006   0.00000   0.01551   0.01163  -1.28171
    Z3       -1.74524  -0.00005   0.00000  -0.00799  -0.00820  -1.75344
    X4        3.84759   0.00005   0.00000  -0.00697  -0.00438   3.84321
    Y4       -1.22345  -0.00008   0.00000  -0.01664  -0.01281  -1.23626
    Z4        1.77847   0.00012   0.00000  -0.00707  -0.00738   1.77109
    X5        0.68890  -0.00034   0.00000  -0.00043  -0.00048   0.68842
    Y5        0.22995   0.00003   0.00000  -0.00026  -0.00022   0.22973
    Z5        0.00102   0.00008   0.00000  -0.00376  -0.00249  -0.00147
    X6       -3.70362   0.00031   0.00000   0.00026   0.00020  -3.70342
    Y6       -1.00261   0.00027   0.00000   0.00065   0.00087  -1.00175
    Z6       -0.00037  -0.00000   0.00000   0.01656   0.02717   0.02680
    X7       -1.73493  -0.00030   0.00000  -0.00041  -0.00046  -1.73539
    Y7        0.75742  -0.00018   0.00000  -0.00019  -0.00008   0.75733
    Z7        0.00006  -0.00002   0.00000  -0.00523  -0.00144  -0.00138
    X8       -2.47340   0.00002   0.00000  -0.00053  -0.00055  -2.47395
    Y8        2.75345  -0.00007   0.00000  -0.00042  -0.00034   2.75311
    Z8        0.00071  -0.00001   0.00000  -0.02626  -0.02572  -0.02501
         Item               Value     Threshold  Converged?
 Maximum Force            0.000337     0.000450     YES
 RMS     Force            0.000145     0.000300     YES
 Maximum Displacement     0.027168     0.001800     NO 
 RMS     Displacement     0.009956     0.001200     NO 
 Predicted change in Energy=-6.000615D-07
 GradGradGradGradGradGradGradGradGradGradGradGradGradGradGradGradGradGrad

 Leave Link  103 at Tue Jun 21 23:17:25 2016, MaxMem=    33554432 cpu:         0.1
 (Enter /home/proyectos/fulerenos/M3C-v1.9/M3C-deps_CCC/g09-AM64L-G09RevC.01/l9999.exe)
 1\1\GINC-BLADI10\Freq\RB3LYP\6-311++G(3df,2p)\C4H4(2+)\ROOT\21-Jun-201
 6\0\\#p b3lyp/6-311++G(3df,2p) freq symmetry=Loose\\b3lyp opt\\2,1\C,1
 .687311,-0.156147,0.001151\H,2.203619,0.860058,-0.027136\H,2.025745,-0
 .684406,-0.92354\H,2.036058,-0.647421,0.941127\C,0.364552,0.121684,0.0
 00541\C,-1.959871,-0.530561,-0.000196\C,-0.918084,0.400808,0.000034\H,
 -1.308866,1.457064,0.000374\\Version=EM64L-G09RevE.01\State=1-A\HF=-15
 3.7710411\RMSD=3.302e-09\RMSF=1.448e-04\ZeroPoint=0.0522283\Thermal=0.
 0576125\Dipole=0.5926277,0.4574354,-0.0060589\DipoleDeriv=-1.6437194,0
 .0423633,0.004043,0.0670062,-0.2603961,-0.004544,0.0128153,-0.0038092,
 -0.355533,0.47547,0.0940972,-0.0031506,0.4443777,0.3590168,-0.0013257,
 -0.0151199,-0.0013123,0.303411,0.3527802,-0.0486852,-0.0881925,-0.1511
 968,0.2846493,0.0595434,-0.3479123,0.0987917,0.3600843,0.3542654,-0.04
 55229,0.090167,-0.1396721,0.2765586,-0.0551185,0.3504687,-0.0937325,0.
 3624342,2.8288824,-0.1054686,-0.0035584,-0.5000487,0.4283845,0.0017405
 ,0.0002081,-0.0003973,0.4842213,1.4992871,0.5911845,0.0004137,1.055857
 1,0.7493924,0.0003693,0.000336,0.0004568,0.3555111,-2.1517195,-0.40191
 97,0.0004602,-0.543844,-0.4781495,-0.0009347,-0.000752,0.0011978,0.269
 0816,0.2847539,-0.1260488,-0.0001823,-0.2324792,0.640544,0.0002697,-0.
 0000439,-0.0011949,0.2207895\Polar=73.4947096,1.222573,30.7623641,-0.0
 285952,0.0070835,25.7038234\PG=C01 [X(C4H4)]\NImag=0\\0.55240875,-0.07
 529366,0.35865116,0.00196393,-0.00059261,0.42975522,-0.06770047,-0.088
 01966,0.00231303,0.08008271,-0.07304707,-0.16820478,0.00484273,0.09588
 746,0.19733322,0.00179219,0.00472128,-0.00813581,-0.00261849,-0.004991
 20,0.02177492,-0.04970577,0.03687929,0.05458600,0.00514256,-0.00687157
 ,-0.00714630,0.06066324,0.03479290,-0.07275283,-0.09083663,0.00522049,
 -0.01305309,-0.01585436,-0.03976144,0.08698102,0.04858560,-0.08560307,
 -0.18405250,0.00104798,-0.00297479,-0.00379298,-0.06323027,0.09971121,
 0.20316320,-0.05141745,0.03553897,-0.05789401,0.00527042,-0.00647448,0
 .00749428,0.00514771,-0.00451524,0.00595704,0.06258174,0.03361015,-0.0
 6694824,0.08644427,0.00545298,-0.01201692,0.01611568,-0.00482975,0.004
 80635,-0.00966646,-0.03836239,0.07988449,-0.05192288,0.08149297,-0.191
 02010,-0.00129664,0.00319133,-0.00460157,-0.00595710,0.00895337,-0.014
 82180,0.06667705,-0.09500634,0.21061075,-0.35958187,0.08315463,-0.0011
 4097,-0.02459014,-0.01571194,0.00064341,-0.02151698,0.00690589,0.01423
 633,-0.02201680,0.00652299,-0.01415585,0.98533842,0.07048334,-0.083817
 14,0.00026165,-0.02562060,0.00130556,-0.00018356,0.01766791,-0.0081921
 0,-0.00022988,0.01656473,-0.00805901,0.00021971,-0.18353844,0.20862308
 ,-0.00049338,-0.00016732,-0.07315366,0.00066164,-0.00011808,-0.0062691
 1,0.02535197,-0.00106356,0.00121194,-0.02586466,0.00137509,0.00169937,
 0.00065177,-0.00009156,0.12501589,0.01534834,-0.00073002,0.00002793,-0
 .00129744,-0.00362131,0.00010040,-0.00082704,0.00228864,0.00313901,-0.
 00081583,0.00213692,-0.00321990,-0.04143757,-0.01016595,-0.00006482,0.
 22458023,0.01401543,-0.00554727,0.00021834,-0.00116645,-0.00243082,0.0
 0001070,-0.00033456,0.00314560,0.00281081,-0.00038842,0.00298975,-0.00
 298116,-0.01907060,0.00357776,-0.00006922,0.17622605,0.16810860,0.0000
 3136,0.00022480,0.00284705,-0.00000580,-0.00006833,-0.00110411,0.00052
 389,0.00048228,-0.00056108,-0.00053872,-0.00059560,-0.00053882,-0.0000
 1555,-0.00005078,0.00393916,0.00005746,0.00004449,0.00479257,-0.040501
 05,0.01300246,0.00026385,0.00464357,0.00953976,-0.00028795,0.00067458,
 -0.00441367,-0.01070532,0.00089529,-0.00398256,0.01077740,-0.50317712,
 0.08755867,-0.00027182,-0.20515169,-0.16827810,-0.00005229,0.79588264,
 0.00341501,0.04152259,-0.00045558,0.00811552,-0.00554758,0.00026927,-0
 .00353038,-0.00068903,-0.00277829,-0.00311760,-0.00044197,0.00288025,0
 .10529983,-0.11269682,0.00014077,-0.16082905,-0.15221494,-0.00003294,-
 0.00576338,0.45389968,0.00014252,0.00059447,0.03288285,-0.00013219,-0.
 00006485,-0.00140124,-0.00299364,-0.00030831,-0.00381771,0.00298942,-0
 .00010544,-0.00395142,-0.00025457,-0.00005757,-0.05816409,-0.00002599,
 -0.00001983,-0.01442147,0.00025035,0.00002211,0.06657739,0.00114952,-0
 .00453201,-0.00011976,-0.00155120,0.00029915,0.00002246,0.00042170,-0.
 00051757,0.00096962,0.00035492,-0.00054834,-0.00090208,-0.01301795,0.0
 2705034,0.00002929,0.00960098,-0.00100334,-0.00000035,-0.05326622,0.05
 641005,0.00002411,0.05630826,-0.00797610,-0.00290350,0.00011781,0.0001
 3026,0.00261441,-0.00008782,0.00078050,-0.00024592,-0.00126954,0.00075
 444,-0.00021445,0.00124987,0.01643763,-0.00074133,-0.00000613,-0.00530
 529,-0.01762868,-0.00000393,0.07233682,-0.22383193,-0.00006058,-0.0771
 5827,0.24295140,-0.00009934,-0.00067053,-0.00912303,0.00003048,0.00018
 319,0.00352990,-0.00113456,-0.00108401,0.00267094,0.00117960,0.0014388
 0,0.00262359,0.00003541,0.00013198,0.00572051,-0.00001408,-0.00001414,
 0.00504670,0.00002579,-0.00004560,-0.01770432,-0.00002330,0.00006030,0
 .00723572\\-0.00017707,-0.00003659,0.00013378,-0.00003849,-0.00005458,
 -0.00000913,-0.00005454,0.00006017,0.00004655,-0.00004835,0.00008387,-
 0.00011917,0.00033716,-0.00002854,-0.00007665,-0.00030590,-0.00026979,
 0.00000149,0.00030397,0.00017647,0.00001757,-0.00001679,0.00006899,0.0
 0000558\\\@


 IT TAKES GREATER CHARACTER TO CARRY OFF GOOD FORTUNE THAN BAD.
                     FRENCH PROVERB.
 Job cpu time:       0 days  0 hours 35 minutes 14.9 seconds.
 File lengths (MBytes):  RWF=     31 Int=      0 D2E=      0 Chk=      3 Scr=      1
 Normal termination of Gaussian 09 at Tue Jun 21 23:17:26 2016.
