 Entering Gaussian System, Link 0=/home/proyectos/fulerenos/M3C-v1.9/M3C-deps_CCC/g09-AM64L-G09RevC.01/g09
 Initial command:
 /home/proyectos/fulerenos/M3C-v1.9/M3C-deps_CCC/g09-AM64L-G09RevC.01/l1.exe "/scratch/naguirre/gaussian/Gau-6104.inp" -scrdir="/scratch/naguirre/gaussian/"
 Entering Link 1 = /home/proyectos/fulerenos/M3C-v1.9/M3C-deps_CCC/g09-AM64L-G09RevC.01/l1.exe PID=      6184.
  
 Copyright (c) 1988,1990,1992,1993,1995,1998,2003,2009,2015,
            Gaussian, Inc.  All Rights Reserved.
  
 This is part of the Gaussian(R) 09 program.  It is based on
 the Gaussian(R) 03 system (copyright 2003, Gaussian, Inc.),
 the Gaussian(R) 98 system (copyright 1998, Gaussian, Inc.),
 the Gaussian(R) 94 system (copyright 1995, Gaussian, Inc.),
 the Gaussian 92(TM) system (copyright 1992, Gaussian, Inc.),
 the Gaussian 90(TM) system (copyright 1990, Gaussian, Inc.),
 the Gaussian 88(TM) system (copyright 1988, Gaussian, Inc.),
 the Gaussian 86(TM) system (copyright 1986, Carnegie Mellon
 University), and the Gaussian 82(TM) system (copyright 1983,
 Carnegie Mellon University). Gaussian is a federally registered
 trademark of Gaussian, Inc.
  
 This software contains proprietary and confidential information,
 including trade secrets, belonging to Gaussian, Inc.
  
 This software is provided under written license and may be
 used, copied, transmitted, or stored only in accord with that
 written license.
  
 The following legend is applicable only to US Government
 contracts under FAR:
  
                    RESTRICTED RIGHTS LEGEND
  
 Use, reproduction and disclosure by the US Government is
 subject to restrictions as set forth in subparagraphs (a)
 and (c) of the Commercial Computer Software - Restricted
 Rights clause in FAR 52.227-19.
  
 Gaussian, Inc.
 340 Quinnipiac St., Bldg. 40, Wallingford CT 06492
  
  
 ---------------------------------------------------------------
 Warning -- This program may not be used in any manner that
 competes with the business of Gaussian, Inc. or will provide
 assistance to any competitor of Gaussian, Inc.  The licensee
 of this program is prohibited from giving any competitor of
 Gaussian, Inc. access to this program.  By using this program,
 the user acknowledges that Gaussian, Inc. is engaged in the
 business of creating and licensing software in the field of
 computational chemistry and represents and warrants to the
 licensee that it is not a competitor of Gaussian, Inc. and that
 it will not use this program in any manner prohibited above.
 ---------------------------------------------------------------
  

 Cite this work as:
 Gaussian 09, Revision E.01,
 M. J. Frisch, G. W. Trucks, H. B. Schlegel, G. E. Scuseria, 
 M. A. Robb, J. R. Cheeseman, G. Scalmani, V. Barone, B. Mennucci, 
 G. A. Petersson, H. Nakatsuji, M. Caricato, X. Li, H. P. Hratchian, 
 A. F. Izmaylov, J. Bloino, G. Zheng, J. L. Sonnenberg, M. Hada, 
 M. Ehara, K. Toyota, R. Fukuda, J. Hasegawa, M. Ishida, T. Nakajima, 
 Y. Honda, O. Kitao, H. Nakai, T. Vreven, J. A. Montgomery, Jr., 
 J. E. Peralta, F. Ogliaro, M. Bearpark, J. J. Heyd, E. Brothers, 
 K. N. Kudin, V. N. Staroverov, T. Keith, R. Kobayashi, J. Normand, 
 K. Raghavachari, A. Rendell, J. C. Burant, S. S. Iyengar, J. Tomasi, 
 M. Cossi, N. Rega, J. M. Millam, M. Klene, J. E. Knox, J. B. Cross, 
 V. Bakken, C. Adamo, J. Jaramillo, R. Gomperts, R. E. Stratmann, 
 O. Yazyev, A. J. Austin, R. Cammi, C. Pomelli, J. W. Ochterski, 
 R. L. Martin, K. Morokuma, V. G. Zakrzewski, G. A. Voth, 
 P. Salvador, J. J. Dannenberg, S. Dapprich, A. D. Daniels, 
 O. Farkas, J. B. Foresman, J. V. Ortiz, J. Cioslowski, 
 and D. J. Fox, Gaussian, Inc., Wallingford CT, 2013.
 
 ******************************************
 Gaussian 09:  EM64L-G09RevE.01 30-Nov-2015
                20-Jun-2016 
 ******************************************
 %NProcShared=4
 Will use up to    4 processors via shared memory.
 ---------------------------------------------
 #p b3lyp/6-311++G(3df,2p) freq symmetry=Loose
 ---------------------------------------------
 1/10=4,30=1,38=1/1,3;
 2/12=2,17=4,18=3,40=1/2;
 3/5=4,6=6,7=1216,11=2,16=1,25=1,30=1,71=2,74=-5,140=1/1,2,3;
 4//1;
 5/5=2,38=5,98=1/2;
 8/6=4,10=90,11=11/1;
 11/6=1,8=1,9=11,15=111,16=1/1,2,10;
 10/6=1/2;
 6/7=2,8=2,9=2,10=2,18=1,28=1/1;
 7/8=1,10=1,25=1/1,2,3,16;
 1/10=4,30=1/3;
 99//99;
 Leave Link    1 at Mon Jun 20 03:26:26 2016, MaxMem=           0 cpu:         0.3
 (Enter /home/proyectos/fulerenos/M3C-v1.9/M3C-deps_CCC/g09-AM64L-G09RevC.01/l101.exe)
 ---------
 b3lyp opt
 ---------
 Symbolic Z-matrix:
 Charge =  0 Multiplicity = 3
 C                     1.00517  -0.5497    0.00057 
 H                     1.15114  -1.20938  -0.86977 
 H                     1.15061  -1.20833   0.87166 
 C                     1.96036   0.56331  -0.00002 
 H                     3.03718   0.63608  -0.00322 
 C                    -0.42215  -0.15572   0.00009 
 C                    -1.76188  -0.60732  -0.0008 
 C                    -1.38718   0.74971   0.00025 
 H                    -1.70485   1.77994   0.0008 
 
 NAtoms=      9 NQM=        9 NQMF=       0 NMMI=      0 NMMIF=      0
                NMic=       0 NMicF=      0.
                    Isotopes and Nuclear Properties:
 (Nuclear quadrupole moments (NQMom) in fm**2, nuclear magnetic moments (NMagM)
  in nuclear magnetons)

  Atom         1           2           3           4           5           6           7           8           9
 IAtWgt=          12           1           1          12           1          12          12          12           1
 AtmWgt=  12.0000000   1.0078250   1.0078250  12.0000000   1.0078250  12.0000000  12.0000000  12.0000000   1.0078250
 NucSpn=           0           1           1           0           1           0           0           0           1
 AtZEff=   0.0000000   0.0000000   0.0000000   0.0000000   0.0000000   0.0000000   0.0000000   0.0000000   0.0000000
 NQMom=    0.0000000   0.0000000   0.0000000   0.0000000   0.0000000   0.0000000   0.0000000   0.0000000   0.0000000
 NMagM=    0.0000000   2.7928460   2.7928460   0.0000000   2.7928460   0.0000000   0.0000000   0.0000000   2.7928460
 AtZNuc=   6.0000000   1.0000000   1.0000000   6.0000000   1.0000000   6.0000000   6.0000000   6.0000000   1.0000000
 Leave Link  101 at Mon Jun 20 03:26:26 2016, MaxMem=    33554432 cpu:         0.2
 (Enter /home/proyectos/fulerenos/M3C-v1.9/M3C-deps_CCC/g09-AM64L-G09RevC.01/l103.exe)

 GradGradGradGradGradGradGradGradGradGradGradGradGradGradGradGradGradGrad
 Berny optimization.
 Initialization pass.
 Trust Radius=3.00D-01 FncErr=1.00D-07 GrdErr=1.00D-07
 Number of steps in this run=      2 maximum allowed number of steps=      2.
 GradGradGradGradGradGradGradGradGradGradGradGradGradGradGradGradGradGrad

 Leave Link  103 at Mon Jun 20 03:26:26 2016, MaxMem=    33554432 cpu:         0.1
 (Enter /home/proyectos/fulerenos/M3C-v1.9/M3C-deps_CCC/g09-AM64L-G09RevC.01/l202.exe)
                          Input orientation:                          
 ---------------------------------------------------------------------
 Center     Atomic      Atomic             Coordinates (Angstroms)
 Number     Number       Type             X           Y           Z
 ---------------------------------------------------------------------
      1          6           0        1.005171   -0.549704    0.000573
      2          1           0        1.151137   -1.209377   -0.869769
      3          1           0        1.150608   -1.208325    0.871660
      4          6           0        1.960362    0.563310   -0.000021
      5          1           0        3.037177    0.636082   -0.003218
      6          6           0       -0.422145   -0.155718    0.000092
      7          6           0       -1.761882   -0.607317   -0.000804
      8          6           0       -1.387183    0.749708    0.000248
      9          1           0       -1.704854    1.779939    0.000796
 ---------------------------------------------------------------------
                    Distance matrix (angstroms):
                    1          2          3          4          5
     1  C    0.000000
     2  H    1.101803   0.000000
     3  H    1.101692   1.741429   0.000000
     4  C    1.466694   2.133946   2.134062   0.000000
     5  H    2.352690   2.777369   2.779639   1.079276   0.000000
     6  C    1.480694   2.083764   2.083546   2.488642   3.548784
     7  C    2.767653   3.098912   3.099194   3.901983   4.957521
     8  C    2.722468   3.322350   3.321692   3.352731   4.425820
     9  H    3.573720   4.224994   4.223954   3.861864   4.878041
                    6          7          8          9
     6  C    0.000000
     7  C    1.413803   0.000000
     8  C    1.323289   1.407806   0.000000
     9  H    2.322092   2.387938   1.078096   0.000000
 Stoichiometry    C5H4(3)
 Framework group  C1[X(C5H4)]
 Deg. of freedom    21
 Full point group                 C1      NOp   1
 Largest Abelian subgroup         C1      NOp   1
 Largest concise Abelian subgroup C1      NOp   1
                         Standard orientation:                         
 ---------------------------------------------------------------------
 Center     Atomic      Atomic             Coordinates (Angstroms)
 Number     Number       Type             X           Y           Z
 ---------------------------------------------------------------------
      1          6           0        1.005171   -0.549704    0.000573
      2          1           0        1.151137   -1.209377   -0.869769
      3          1           0        1.150608   -1.208325    0.871660
      4          6           0        1.960362    0.563310   -0.000021
      5          1           0        3.037177    0.636082   -0.003218
      6          6           0       -0.422145   -0.155718    0.000092
      7          6           0       -1.761882   -0.607317   -0.000804
      8          6           0       -1.387183    0.749708    0.000248
      9          1           0       -1.704854    1.779939    0.000796
 ---------------------------------------------------------------------
 Rotational constants (GHZ):     18.8327502      3.6868275      3.1418161
 Leave Link  202 at Mon Jun 20 03:26:26 2016, MaxMem=    33554432 cpu:         0.0
 (Enter /home/proyectos/fulerenos/M3C-v1.9/M3C-deps_CCC/g09-AM64L-G09RevC.01/l301.exe)
 Standard basis: 6-311++G(3df,2p) (5D, 7F)
 Ernie: Thresh=  0.10000D-02 Tol=  0.10000D-05 Strict=F.
 There are   265 symmetry adapted cartesian basis functions of A   symmetry.
 There are   235 symmetry adapted basis functions of A   symmetry.
   235 basis functions,   338 primitive gaussians,   265 cartesian basis functions
    18 alpha electrons       16 beta electrons
       nuclear repulsion energy       130.0450555175 Hartrees.
 IExCor=  402 DFT=T Ex+Corr=B3LYP ExCW=0 ScaHFX=  0.200000
 ScaDFX=  0.800000  0.720000  1.000000  0.810000 ScalE2=  1.000000  1.000000
 IRadAn=      0 IRanWt=     -1 IRanGd=            0 ICorTp=0 IEmpDi=  4
 NAtoms=    9 NActive=    9 NUniq=    9 SFac= 1.00D+00 NAtFMM=   60 NAOKFM=F Big=F
 Integral buffers will be    131072 words long.
 Raffenetti 2 integral format.
 Two-electron integral symmetry is turned on.
 Leave Link  301 at Mon Jun 20 03:26:26 2016, MaxMem=    33554432 cpu:         0.2
 (Enter /home/proyectos/fulerenos/M3C-v1.9/M3C-deps_CCC/g09-AM64L-G09RevC.01/l302.exe)
 NPDir=0 NMtPBC=     1 NCelOv=     1 NCel=       1 NClECP=     1 NCelD=      1
         NCelK=      1 NCelE2=     1 NClLst=     1 CellRange=     0.0.
 One-electron integrals computed using PRISM.
 NBasis=   235 RedAO= T EigKep=  6.37D-06  NBF=   235
 NBsUse=   235 1.00D-06 EigRej= -1.00D+00 NBFU=   235
 Precomputing XC quadrature grid using
 IXCGrd= 4 IRadAn=           0 IRanWt=          -1 IRanGd=           0 AccXCQ= 0.00D+00.
 Generated NRdTot=       0 NPtTot=           0 NUsed=           0 NTot=          32
 NSgBfM=   265   265   265   265   265 MxSgAt=     9 MxSgA2=     9.
 Leave Link  302 at Mon Jun 20 03:26:27 2016, MaxMem=    33554432 cpu:         1.4
 (Enter /home/proyectos/fulerenos/M3C-v1.9/M3C-deps_CCC/g09-AM64L-G09RevC.01/l303.exe)
 DipDrv:  MaxL=1.
 Leave Link  303 at Mon Jun 20 03:26:27 2016, MaxMem=    33554432 cpu:         0.1
 (Enter /home/proyectos/fulerenos/M3C-v1.9/M3C-deps_CCC/g09-AM64L-G09RevC.01/l401.exe)
 ExpMin= 3.60D-02 ExpMax= 4.56D+03 ExpMxC= 6.82D+02 IAcc=3 IRadAn=         5 AccDes= 0.00D+00
 Harris functional with IExCor=  402 and IRadAn=       5 diagonalized for initial guess.
 HarFok:  IExCor=  402 AccDes= 0.00D+00 IRadAn=         5 IDoV= 1 UseB2=F ITyADJ=14
 ICtDFT=  3500011 ScaDFX=  1.000000  1.000000  1.000000  1.000000
 FoFCou: FMM=F IPFlag=           0 FMFlag=      100000 FMFlg1=           0
         NFxFlg=           0 DoJE=T BraDBF=F KetDBF=T FulRan=T
         wScrn=  0.000000 ICntrl=     500 IOpCl=  0 I1Cent=   200000004 NGrid=           0
         NMat0=    1 NMatS0=      1 NMatT0=    0 NMatD0=    1 NMtDS0=    0 NMtDT0=    0
 Petite list used in FoFCou.
 Harris En= -192.668768818422    
 JPrj=0 DoOrth=F DoCkMO=F.
 Initial guess <Sx>= 0.0000 <Sy>= 0.0000 <Sz>= 1.0000 <S**2>= 2.0000 S= 1.0000
 Leave Link  401 at Mon Jun 20 03:26:29 2016, MaxMem=    33554432 cpu:        11.4
 (Enter /home/proyectos/fulerenos/M3C-v1.9/M3C-deps_CCC/g09-AM64L-G09RevC.01/l502.exe)
 UHF open shell SCF:
 Using DIIS extrapolation, IDIIS=  1040.
 Integral symmetry usage will be decided dynamically.
 IVT=      232727 IEndB=      232727 NGot=    33554432 MDV=    33408836
 LenX=    33408836 LenY=    33338170
 Requested convergence on RMS density matrix=1.00D-08 within 128 cycles.
 Requested convergence on MAX density matrix=1.00D-06.
 Requested convergence on             energy=1.00D-06.
 No special actions if energy rises.
 Fock matrices will be formed incrementally for  20 cycles.

 Cycle   1  Pass 1  IDiag  1:
 FoFJK:  IHMeth= 1 ICntrl=       0 DoSepK=F KAlg= 0 I1Cent=   0 FoldK=F
 IRaf= 980000000 NMat=   1 IRICut=       1 DoRegI=T DoRafI=F ISym2E= 0.
 FoFCou: FMM=F IPFlag=           0 FMFlag=      100000 FMFlg1=           0
         NFxFlg=           0 DoJE=F BraDBF=F KetDBF=F FulRan=T
         wScrn=  0.000000 ICntrl=       0 IOpCl=  1 I1Cent=           0 NGrid=           0
         NMat0=    1 NMatS0=      1 NMatT0=    0 NMatD0=    1 NMtDS0=    0 NMtDT0=    0
 Symmetry not used in FoFCou.
 E= -192.598952212008    
 DIIS: error= 2.16D-02 at cycle   1 NSaved=   1.
 NSaved= 1 IEnMin= 1 EnMin= -192.598952212008     IErMin= 1 ErrMin= 2.16D-02
 ErrMax= 2.16D-02  0.00D+00 EMaxC= 1.00D-01 BMatC= 4.25D-01 BMatP= 4.25D-01
 IDIUse=3 WtCom= 7.84D-01 WtEn= 2.16D-01
 Coeff-Com:  0.100D+01
 Coeff-En:   0.100D+01
 Coeff:      0.100D+01
 Gap=     0.277 Goal=   None    Shift=    0.000
 Gap=     0.073 Goal=   None    Shift=    0.000
 GapD=    0.073 DampG=0.500 DampE=0.500 DampFc=0.2500 IDamp=-1.
 Damping current iteration by 2.50D-01
 RMSDP=7.98D-03 MaxDP=4.33D-01              OVMax= 2.03D-01

 Cycle   2  Pass 1  IDiag  1:
 RMSU=  1.87D-03    CP:  9.54D-01
 E= -192.635730949549     Delta-E=       -0.036778737541 Rises=F Damp=T
 DIIS: error= 1.13D-02 at cycle   2 NSaved=   2.
 NSaved= 2 IEnMin= 2 EnMin= -192.635730949549     IErMin= 2 ErrMin= 1.13D-02
 ErrMax= 1.13D-02  0.00D+00 EMaxC= 1.00D-01 BMatC= 1.34D-01 BMatP= 4.25D-01
 IDIUse=3 WtCom= 8.87D-01 WtEn= 1.13D-01
 Coeff-Com: -0.111D+01 0.211D+01
 Coeff-En:   0.000D+00 0.100D+01
 Coeff:     -0.987D+00 0.199D+01
 Gap=     0.229 Goal=   None    Shift=    0.000
 Gap=     0.135 Goal=   None    Shift=    0.000
 RMSDP=2.86D-03 MaxDP=2.09D-01 DE=-3.68D-02 OVMax= 1.22D-01

 Cycle   3  Pass 1  IDiag  1:
 RMSU=  2.04D-03    CP:  8.64D-01  1.78D+00
 E= -192.703744085338     Delta-E=       -0.068013135789 Rises=F Damp=F
 DIIS: error= 2.75D-03 at cycle   3 NSaved=   3.
 NSaved= 3 IEnMin= 3 EnMin= -192.703744085338     IErMin= 3 ErrMin= 2.75D-03
 ErrMax= 2.75D-03  0.00D+00 EMaxC= 1.00D-01 BMatC= 4.98D-03 BMatP= 1.34D-01
 IDIUse=3 WtCom= 9.72D-01 WtEn= 2.75D-02
 Coeff-Com: -0.323D+00 0.571D+00 0.752D+00
 Coeff-En:   0.000D+00 0.000D+00 0.100D+01
 Coeff:     -0.314D+00 0.555D+00 0.759D+00
 Gap=     0.206 Goal=   None    Shift=    0.000
 Gap=     0.122 Goal=   None    Shift=    0.000
 RMSDP=4.83D-04 MaxDP=3.76D-02 DE=-6.80D-02 OVMax= 2.49D-02

 Cycle   4  Pass 1  IDiag  1:
 RMSU=  4.25D-04    CP:  8.61D-01  1.90D+00  1.04D+00
 E= -192.704209268040     Delta-E=       -0.000465182701 Rises=F Damp=F
 DIIS: error= 2.49D-03 at cycle   4 NSaved=   4.
 NSaved= 4 IEnMin= 4 EnMin= -192.704209268040     IErMin= 4 ErrMin= 2.49D-03
 ErrMax= 2.49D-03  0.00D+00 EMaxC= 1.00D-01 BMatC= 3.65D-03 BMatP= 4.98D-03
 IDIUse=3 WtCom= 9.75D-01 WtEn= 2.49D-02
 Coeff-Com: -0.727D-01 0.105D+00 0.467D+00 0.501D+00
 Coeff-En:   0.000D+00 0.000D+00 0.404D+00 0.596D+00
 Coeff:     -0.709D-01 0.102D+00 0.465D+00 0.503D+00
 Gap=     0.203 Goal=   None    Shift=    0.000
 Gap=     0.130 Goal=   None    Shift=    0.000
 RMSDP=2.20D-04 MaxDP=1.75D-02 DE=-4.65D-04 OVMax= 1.25D-02

 Cycle   5  Pass 1  IDiag  1:
 RMSU=  1.36D-04    CP:  8.58D-01  1.85D+00  1.04D+00  6.54D-01
 E= -192.705124598531     Delta-E=       -0.000915330491 Rises=F Damp=F
 DIIS: error= 3.71D-04 at cycle   5 NSaved=   5.
 NSaved= 5 IEnMin= 5 EnMin= -192.705124598531     IErMin= 5 ErrMin= 3.71D-04
 ErrMax= 3.71D-04  0.00D+00 EMaxC= 1.00D-01 BMatC= 8.32D-05 BMatP= 3.65D-03
 IDIUse=3 WtCom= 9.96D-01 WtEn= 3.71D-03
 Coeff-Com:  0.642D-02-0.190D-01 0.808D-01 0.169D+00 0.763D+00
 Coeff-En:   0.000D+00 0.000D+00 0.000D+00 0.000D+00 0.100D+01
 Coeff:      0.640D-02-0.190D-01 0.805D-01 0.168D+00 0.764D+00
 Gap=     0.202 Goal=   None    Shift=    0.000
 Gap=     0.132 Goal=   None    Shift=    0.000
 RMSDP=5.51D-05 MaxDP=3.88D-03 DE=-9.15D-04 OVMax= 2.16D-03

 Cycle   6  Pass 1  IDiag  1:
 RMSU=  3.91D-05    CP:  8.58D-01  1.85D+00  1.05D+00  7.15D-01  1.02D+00
 E= -192.705147609782     Delta-E=       -0.000023011252 Rises=F Damp=F
 DIIS: error= 1.01D-04 at cycle   6 NSaved=   6.
 NSaved= 6 IEnMin= 6 EnMin= -192.705147609782     IErMin= 6 ErrMin= 1.01D-04
 ErrMax= 1.01D-04  0.00D+00 EMaxC= 1.00D-01 BMatC= 8.35D-06 BMatP= 8.32D-05
 IDIUse=3 WtCom= 9.99D-01 WtEn= 1.01D-03
 Coeff-Com:  0.872D-02-0.155D-01-0.168D-01 0.788D-02 0.234D+00 0.781D+00
 Coeff-En:   0.000D+00 0.000D+00 0.000D+00 0.000D+00 0.000D+00 0.100D+01
 Coeff:      0.871D-02-0.155D-01-0.168D-01 0.787D-02 0.234D+00 0.782D+00
 Gap=     0.202 Goal=   None    Shift=    0.000
 Gap=     0.131 Goal=   None    Shift=    0.000
 RMSDP=2.22D-05 MaxDP=1.51D-03 DE=-2.30D-05 OVMax= 9.27D-04

 Cycle   7  Pass 1  IDiag  1:
 RMSU=  1.72D-05    CP:  8.58D-01  1.85D+00  1.05D+00  7.41D-01  1.05D+00
                    CP:  1.02D+00
 E= -192.705149606585     Delta-E=       -0.000001996802 Rises=F Damp=F
 DIIS: error= 8.62D-05 at cycle   7 NSaved=   7.
 NSaved= 7 IEnMin= 7 EnMin= -192.705149606585     IErMin= 7 ErrMin= 8.62D-05
 ErrMax= 8.62D-05  0.00D+00 EMaxC= 1.00D-01 BMatC= 4.43D-06 BMatP= 8.35D-06
 IDIUse=1 WtCom= 1.00D+00 WtEn= 0.00D+00
 Coeff-Com:  0.411D-02-0.615D-02-0.217D-01-0.218D-01 0.117D-01 0.467D+00
 Coeff-Com:  0.567D+00
 Coeff:      0.411D-02-0.615D-02-0.217D-01-0.218D-01 0.117D-01 0.467D+00
 Coeff:      0.567D+00
 Gap=     0.202 Goal=   None    Shift=    0.000
 Gap=     0.131 Goal=   None    Shift=    0.000
 RMSDP=7.43D-06 MaxDP=3.44D-04 DE=-2.00D-06 OVMax= 5.01D-04

 Cycle   8  Pass 1  IDiag  1:
 RMSU=  5.48D-06    CP:  8.58D-01  1.85D+00  1.05D+00  7.39D-01  1.06D+00
                    CP:  1.06D+00  7.66D-01
 E= -192.705150740930     Delta-E=       -0.000001134346 Rises=F Damp=F
 DIIS: error= 2.32D-05 at cycle   8 NSaved=   8.
 NSaved= 8 IEnMin= 8 EnMin= -192.705150740930     IErMin= 8 ErrMin= 2.32D-05
 ErrMax= 2.32D-05  0.00D+00 EMaxC= 1.00D-01 BMatC= 4.52D-07 BMatP= 4.43D-06
 IDIUse=1 WtCom= 1.00D+00 WtEn= 0.00D+00
 Coeff-Com:  0.642D-03-0.438D-03-0.959D-02-0.144D-01-0.337D-01 0.129D+00
 Coeff-Com:  0.282D+00 0.647D+00
 Coeff:      0.642D-03-0.438D-03-0.959D-02-0.144D-01-0.337D-01 0.129D+00
 Coeff:      0.282D+00 0.647D+00
 Gap=     0.202 Goal=   None    Shift=    0.000
 Gap=     0.131 Goal=   None    Shift=    0.000
 RMSDP=2.40D-06 MaxDP=1.19D-04 DE=-1.13D-06 OVMax= 1.37D-04

 Cycle   9  Pass 1  IDiag  1:
 RMSU=  2.08D-06    CP:  8.58D-01  1.85D+00  1.05D+00  7.39D-01  1.06D+00
                    CP:  1.08D+00  8.09D-01  9.30D-01
 E= -192.705150849039     Delta-E=       -0.000000108108 Rises=F Damp=F
 DIIS: error= 1.01D-05 at cycle   9 NSaved=   9.
 NSaved= 9 IEnMin= 9 EnMin= -192.705150849039     IErMin= 9 ErrMin= 1.01D-05
 ErrMax= 1.01D-05  0.00D+00 EMaxC= 1.00D-01 BMatC= 4.94D-08 BMatP= 4.52D-07
 IDIUse=1 WtCom= 1.00D+00 WtEn= 0.00D+00
 Coeff-Com: -0.291D-03 0.612D-03-0.591D-03-0.264D-02-0.143D-01-0.146D-01
 Coeff-Com:  0.293D-01 0.269D+00 0.734D+00
 Coeff:     -0.291D-03 0.612D-03-0.591D-03-0.264D-02-0.143D-01-0.146D-01
 Coeff:      0.293D-01 0.269D+00 0.734D+00
 Gap=     0.202 Goal=   None    Shift=    0.000
 Gap=     0.131 Goal=   None    Shift=    0.000
 RMSDP=1.27D-06 MaxDP=7.82D-05 DE=-1.08D-07 OVMax= 5.19D-05

 Cycle  10  Pass 1  IDiag  1:
 RMSU=  9.17D-07    CP:  8.58D-01  1.85D+00  1.05D+00  7.39D-01  1.06D+00
                    CP:  1.08D+00  8.27D-01  1.04D+00  9.12D-01
 E= -192.705150863508     Delta-E=       -0.000000014470 Rises=F Damp=F
 DIIS: error= 2.70D-06 at cycle  10 NSaved=  10.
 NSaved=10 IEnMin=10 EnMin= -192.705150863508     IErMin=10 ErrMin= 2.70D-06
 ErrMax= 2.70D-06  0.00D+00 EMaxC= 1.00D-01 BMatC= 3.72D-09 BMatP= 4.94D-08
 IDIUse=1 WtCom= 1.00D+00 WtEn= 0.00D+00
 Coeff-Com: -0.182D-03 0.268D-03 0.990D-03 0.102D-02 0.788D-03-0.197D-01
 Coeff-Com: -0.265D-01-0.221D-01 0.204D+00 0.862D+00
 Coeff:     -0.182D-03 0.268D-03 0.990D-03 0.102D-02 0.788D-03-0.197D-01
 Coeff:     -0.265D-01-0.221D-01 0.204D+00 0.862D+00
 Gap=     0.202 Goal=   None    Shift=    0.000
 Gap=     0.131 Goal=   None    Shift=    0.000
 RMSDP=3.48D-07 MaxDP=2.08D-05 DE=-1.45D-08 OVMax= 2.04D-05

 Cycle  11  Pass 1  IDiag  1:
 RMSU=  2.12D-07    CP:  8.58D-01  1.85D+00  1.05D+00  7.38D-01  1.06D+00
                    CP:  1.08D+00  8.28D-01  1.06D+00  9.99D-01  9.63D-01
 E= -192.705150864875     Delta-E=       -0.000000001367 Rises=F Damp=F
 DIIS: error= 7.12D-07 at cycle  11 NSaved=  11.
 NSaved=11 IEnMin=11 EnMin= -192.705150864875     IErMin=11 ErrMin= 7.12D-07
 ErrMax= 7.12D-07  0.00D+00 EMaxC= 1.00D-01 BMatC= 3.44D-10 BMatP= 3.72D-09
 IDIUse=1 WtCom= 1.00D+00 WtEn= 0.00D+00
 Coeff-Com: -0.233D-04 0.195D-04 0.336D-03 0.531D-03 0.117D-02-0.488D-02
 Coeff-Com: -0.966D-02-0.243D-01 0.125D-01 0.245D+00 0.779D+00
 Coeff:     -0.233D-04 0.195D-04 0.336D-03 0.531D-03 0.117D-02-0.488D-02
 Coeff:     -0.966D-02-0.243D-01 0.125D-01 0.245D+00 0.779D+00
 Gap=     0.202 Goal=   None    Shift=    0.000
 Gap=     0.131 Goal=   None    Shift=    0.000
 RMSDP=8.71D-08 MaxDP=3.81D-06 DE=-1.37D-09 OVMax= 5.77D-06

 Cycle  12  Pass 1  IDiag  1:
 RMSU=  6.56D-08    CP:  8.58D-01  1.85D+00  1.05D+00  7.38D-01  1.06D+00
                    CP:  1.08D+00  8.27D-01  1.06D+00  1.01D+00  9.69D-01
                    CP:  1.15D+00
 E= -192.705150864995     Delta-E=       -0.000000000120 Rises=F Damp=F
 DIIS: error= 3.83D-07 at cycle  12 NSaved=  12.
 NSaved=12 IEnMin=12 EnMin= -192.705150864995     IErMin=12 ErrMin= 3.83D-07
 ErrMax= 3.83D-07  0.00D+00 EMaxC= 1.00D-01 BMatC= 8.44D-11 BMatP= 3.44D-10
 IDIUse=1 WtCom= 1.00D+00 WtEn= 0.00D+00
 Coeff-Com:  0.209D-04-0.344D-04-0.607D-04 0.853D-05 0.200D-03 0.163D-02
 Coeff-Com:  0.121D-02-0.385D-02-0.323D-01-0.730D-01 0.310D+00 0.796D+00
 Coeff:      0.209D-04-0.344D-04-0.607D-04 0.853D-05 0.200D-03 0.163D-02
 Coeff:      0.121D-02-0.385D-02-0.323D-01-0.730D-01 0.310D+00 0.796D+00
 Gap=     0.202 Goal=   None    Shift=    0.000
 Gap=     0.131 Goal=   None    Shift=    0.000
 RMSDP=5.31D-08 MaxDP=2.14D-06 DE=-1.20D-10 OVMax= 3.80D-06

 Cycle  13  Pass 1  IDiag  1:
 RMSU=  3.53D-08    CP:  8.58D-01  1.85D+00  1.05D+00  7.38D-01  1.06D+00
                    CP:  1.08D+00  8.27D-01  1.06D+00  1.01D+00  9.78D-01
                    CP:  1.25D+00  1.05D+00
 E= -192.705150865034     Delta-E=       -0.000000000039 Rises=F Damp=F
 DIIS: error= 1.18D-07 at cycle  13 NSaved=  13.
 NSaved=13 IEnMin=13 EnMin= -192.705150865034     IErMin=13 ErrMin= 1.18D-07
 ErrMax= 1.18D-07  0.00D+00 EMaxC= 1.00D-01 BMatC= 5.97D-12 BMatP= 8.44D-11
 IDIUse=1 WtCom= 1.00D+00 WtEn= 0.00D+00
 Coeff-Com:  0.390D-05-0.421D-05-0.494D-04-0.784D-04-0.124D-03 0.673D-03
 Coeff-Com:  0.134D-02 0.353D-02-0.235D-02-0.382D-01-0.116D+00 0.520D-01
 Coeff-Com:  0.110D+01
 Coeff:      0.390D-05-0.421D-05-0.494D-04-0.784D-04-0.124D-03 0.673D-03
 Coeff:      0.134D-02 0.353D-02-0.235D-02-0.382D-01-0.116D+00 0.520D-01
 Coeff:      0.110D+01
 Gap=     0.202 Goal=   None    Shift=    0.000
 Gap=     0.131 Goal=   None    Shift=    0.000
 RMSDP=2.08D-08 MaxDP=1.31D-06 DE=-3.85D-11 OVMax= 2.16D-06

 Cycle  14  Pass 1  IDiag  1:
 RMSU=  1.17D-08    CP:  8.58D-01  1.85D+00  1.05D+00  7.38D-01  1.06D+00
                    CP:  1.08D+00  8.27D-01  1.06D+00  1.01D+00  9.76D-01
                    CP:  1.30D+00  1.22D+00  1.11D+00
 E= -192.705150865038     Delta-E=       -0.000000000004 Rises=F Damp=F
 DIIS: error= 3.13D-08 at cycle  14 NSaved=  14.
 NSaved=14 IEnMin=14 EnMin= -192.705150865038     IErMin=14 ErrMin= 3.13D-08
 ErrMax= 3.13D-08  0.00D+00 EMaxC= 1.00D-01 BMatC= 3.11D-13 BMatP= 5.97D-12
 IDIUse=1 WtCom= 1.00D+00 WtEn= 0.00D+00
 Coeff-Com: -0.155D-05 0.236D-05 0.704D-05 0.319D-05-0.426D-05-0.135D-03
 Coeff-Com: -0.161D-03-0.683D-04 0.235D-02 0.783D-02-0.106D-01-0.689D-01
 Coeff-Com: -0.878D-01 0.116D+01
 Coeff:     -0.155D-05 0.236D-05 0.704D-05 0.319D-05-0.426D-05-0.135D-03
 Coeff:     -0.161D-03-0.683D-04 0.235D-02 0.783D-02-0.106D-01-0.689D-01
 Coeff:     -0.878D-01 0.116D+01
 Gap=     0.202 Goal=   None    Shift=    0.000
 Gap=     0.131 Goal=   None    Shift=    0.000
 RMSDP=5.53D-09 MaxDP=3.93D-07 DE=-3.98D-12 OVMax= 6.33D-07

 SCF Done:  E(UB3LYP) =  -192.705150865     A.U. after   14 cycles
            NFock= 14  Conv=0.55D-08     -V/T= 2.0046
 <Sx>= 0.0000 <Sy>= 0.0000 <Sz>= 1.0000 <S**2>= 2.0062 S= 1.0021
 <L.S>= 0.000000000000E+00
 KE= 1.918205879019D+02 PE=-7.064448739210D+02 EE= 1.918740796365D+02
 Annihilation of the first spin contaminant:
 S**2 before annihilation     2.0062,   after     2.0000
 Leave Link  502 at Mon Jun 20 03:29:16 2016, MaxMem=    33554432 cpu:       637.0
 (Enter /home/proyectos/fulerenos/M3C-v1.9/M3C-deps_CCC/g09-AM64L-G09RevC.01/l801.exe)
 DoSCS=F DFT=T ScalE2(SS,OS)=  1.000000  1.000000
 Range of M.O.s used for correlation:     1   235
 NBasis=   235 NAE=    18 NBE=    16 NFC=     0 NFV=     0
 NROrb=    235 NOA=    18 NOB=    16 NVA=   217 NVB=   219

 **** Warning!!: The largest alpha MO coefficient is  0.10399401D+03


 **** Warning!!: The largest beta MO coefficient is  0.10970476D+03

 Leave Link  801 at Mon Jun 20 03:29:16 2016, MaxMem=    33554432 cpu:         0.1
 (Enter /home/proyectos/fulerenos/M3C-v1.9/M3C-deps_CCC/g09-AM64L-G09RevC.01/l1101.exe)
 Using compressed storage, NAtomX=     9.
 Will process     10 centers per pass.
 Leave Link 1101 at Mon Jun 20 03:29:17 2016, MaxMem=    33554432 cpu:         1.6
 (Enter /home/proyectos/fulerenos/M3C-v1.9/M3C-deps_CCC/g09-AM64L-G09RevC.01/l1102.exe)
 Symmetrizing basis deriv contribution to polar:
 IMax=3 JMax=2 DiffMx= 0.00D+00
 Leave Link 1102 at Mon Jun 20 03:29:17 2016, MaxMem=    33554432 cpu:         0.2
 (Enter /home/proyectos/fulerenos/M3C-v1.9/M3C-deps_CCC/g09-AM64L-G09RevC.01/l1110.exe)
 Forming Gx(P) for the SCF density, NAtomX=     9.
 Integral derivatives from FoFJK, PRISM(SPDF).
 Do as many integral derivatives as possible in FoFJK.
 G2DrvN: MDV=      33554256.
 G2DrvN: will do    10 centers at a time, making    1 passes.
 Calling FoFCou, ICntrl=  3107 FMM=F I1Cent=   0 AccDes= 0.00D+00.
 FoFJK:  IHMeth= 1 ICntrl=    3107 DoSepK=F KAlg= 0 I1Cent=   0 FoldK=F
 IRaf=         0 NMat=   1 IRICut=       1 DoRegI=T DoRafI=F ISym2E= 0.
 FoFCou: FMM=F IPFlag=           0 FMFlag=      100000 FMFlg1=           0
         NFxFlg=           0 DoJE=F BraDBF=F KetDBF=F FulRan=T
         wScrn=  0.000000 ICntrl=    3107 IOpCl=  1 I1Cent=           0 NGrid=           0
         NMat0=    1 NMatS0=      1 NMatT0=    0 NMatD0=    1 NMtDS0=    0 NMtDT0=    0
 Symmetry not used in FoFCou.
 End of G2Drv F.D. properties file   721 does not exist.
 End of G2Drv F.D. properties file   722 does not exist.
 End of G2Drv F.D. properties file   788 does not exist.
 Leave Link 1110 at Mon Jun 20 03:31:29 2016, MaxMem=    33554432 cpu:       508.4
 (Enter /home/proyectos/fulerenos/M3C-v1.9/M3C-deps_CCC/g09-AM64L-G09RevC.01/l1002.exe)
 Minotr:  UHF open shell wavefunction.
          IDoAtm=111111111
          Direct CPHF calculation.
          Differentiating once with respect to electric field.
                with respect to dipole field.
          Differentiating once with respect to nuclear coordinates.
          Requested convergence is 1.0D-08 RMS, and 1.0D-07 maximum.
          Secondary convergence is 1.0D-12 RMS, and 1.0D-12 maximum.
          NewPWx=T KeepS1=F KeepF1=F KeepIn=T MapXYZ=F SortEE=F KeepMc=T.
          MDV=      33553868 using IRadAn=       2.
 Generate precomputed XC quadrature information.
          Solving linear equations simultaneously, MaxMat=       0.
 FoFJK:  IHMeth= 1 ICntrl=       0 DoSepK=F KAlg= 0 I1Cent=   0 FoldK=F
 IRaf= 980000000 NMat=  30 IRICut=      75 DoRegI=T DoRafI=T ISym2E= 2.
 FoFCou: FMM=F IPFlag=           0 FMFlag=      100000 FMFlg1=           0
         NFxFlg=           0 DoJE=F BraDBF=F KetDBF=F FulRan=T
         wScrn=  0.000000 ICntrl=       0 IOpCl=  1 I1Cent=           0 NGrid=           0
         NMat0=   30 NMatS0=     30 NMatT0=    0 NMatD0=   30 NMtDS0=    0 NMtDT0=    0
 Integrals replicated using symmetry in FoFCou.
          There are    30 degrees of freedom in the 1st order CPHF.  IDoFFX=6 NUNeed=     3.
     27 vectors produced by pass  0 Test12= 2.47D-14 3.33D-09 XBig12= 1.06D+02 2.85D+00.
 AX will form    27 AO Fock derivatives at one time.
     27 vectors produced by pass  1 Test12= 2.47D-14 3.33D-09 XBig12= 2.33D+01 1.02D+00.
     27 vectors produced by pass  2 Test12= 2.47D-14 3.33D-09 XBig12= 6.09D-01 1.33D-01.
     27 vectors produced by pass  3 Test12= 2.47D-14 3.33D-09 XBig12= 4.03D-03 9.86D-03.
     27 vectors produced by pass  4 Test12= 2.47D-14 3.33D-09 XBig12= 3.92D-05 1.10D-03.
     27 vectors produced by pass  5 Test12= 2.47D-14 3.33D-09 XBig12= 3.84D-07 7.80D-05.
     27 vectors produced by pass  6 Test12= 2.47D-14 3.33D-09 XBig12= 2.24D-09 5.38D-06.
      6 vectors produced by pass  7 Test12= 2.47D-14 3.33D-09 XBig12= 1.11D-11 3.82D-07.
      3 vectors produced by pass  8 Test12= 2.47D-14 3.33D-09 XBig12= 1.65D-13 7.08D-08.
      3 vectors produced by pass  9 Test12= 2.47D-14 3.33D-09 XBig12= 1.59D-14 1.88D-08.
      2 vectors produced by pass 10 Test12= 2.47D-14 3.33D-09 XBig12= 1.60D-15 1.27D-08.
 InvSVY:  IOpt=1 It=  1 EMax= 7.11D-15
 Solved reduced A of dimension   203 with    30 vectors.
 FullF1:  Do perturbations    1 to     3.
 Isotropic polarizability for W=    0.000000       55.84 Bohr**3.
 End of Minotr F.D. properties file   721 does not exist.
 End of Minotr F.D. properties file   722 does not exist.
 End of Minotr F.D. properties file   788 does not exist.
 Leave Link 1002 at Mon Jun 20 03:39:13 2016, MaxMem=    33554432 cpu:      1857.5
 (Enter /home/proyectos/fulerenos/M3C-v1.9/M3C-deps_CCC/g09-AM64L-G09RevC.01/l601.exe)
 Copying SCF densities to generalized density rwf, IOpCl= 1 IROHF=0.

 **********************************************************************

            Population analysis using the SCF density.

 **********************************************************************

 Orbital symmetries:
 Alpha Orbitals:
       Occupied  (A) (A) (A) (A) (A) (A) (A) (A) (A) (A) (A) (A)
                 (A) (A) (A) (A) (A) (A)
       Virtual   (A) (A) (A) (A) (A) (A) (A) (A) (A) (A) (A) (A)
                 (A) (A) (A) (A) (A) (A) (A) (A) (A) (A) (A) (A)
                 (A) (A) (A) (A) (A) (A) (A) (A) (A) (A) (A) (A)
                 (A) (A) (A) (A) (A) (A) (A) (A) (A) (A) (A) (A)
                 (A) (A) (A) (A) (A) (A) (A) (A) (A) (A) (A) (A)
                 (A) (A) (A) (A) (A) (A) (A) (A) (A) (A) (A) (A)
                 (A) (A) (A) (A) (A) (A) (A) (A) (A) (A) (A) (A)
                 (A) (A) (A) (A) (A) (A) (A) (A) (A) (A) (A) (A)
                 (A) (A) (A) (A) (A) (A) (A) (A) (A) (A) (A) (A)
                 (A) (A) (A) (A) (A) (A) (A) (A) (A) (A) (A) (A)
                 (A) (A) (A) (A) (A) (A) (A) (A) (A) (A) (A) (A)
                 (A) (A) (A) (A) (A) (A) (A) (A) (A) (A) (A) (A)
                 (A) (A) (A) (A) (A) (A) (A) (A) (A) (A) (A) (A)
                 (A) (A) (A) (A) (A) (A) (A) (A) (A) (A) (A) (A)
                 (A) (A) (A) (A) (A) (A) (A) (A) (A) (A) (A) (A)
                 (A) (A) (A) (A) (A) (A) (A) (A) (A) (A) (A) (A)
                 (A) (A) (A) (A) (A) (A) (A) (A) (A) (A) (A) (A)
                 (A) (A) (A) (A) (A) (A) (A) (A) (A) (A) (A) (A)
                 (A)
 Beta  Orbitals:
       Occupied  (A) (A) (A) (A) (A) (A) (A) (A) (A) (A) (A) (A)
                 (A) (A) (A) (A)
       Virtual   (A) (A) (A) (A) (A) (A) (A) (A) (A) (A) (A) (A)
                 (A) (A) (A) (A) (A) (A) (A) (A) (A) (A) (A) (A)
                 (A) (A) (A) (A) (A) (A) (A) (A) (A) (A) (A) (A)
                 (A) (A) (A) (A) (A) (A) (A) (A) (A) (A) (A) (A)
                 (A) (A) (A) (A) (A) (A) (A) (A) (A) (A) (A) (A)
                 (A) (A) (A) (A) (A) (A) (A) (A) (A) (A) (A) (A)
                 (A) (A) (A) (A) (A) (A) (A) (A) (A) (A) (A) (A)
                 (A) (A) (A) (A) (A) (A) (A) (A) (A) (A) (A) (A)
                 (A) (A) (A) (A) (A) (A) (A) (A) (A) (A) (A) (A)
                 (A) (A) (A) (A) (A) (A) (A) (A) (A) (A) (A) (A)
                 (A) (A) (A) (A) (A) (A) (A) (A) (A) (A) (A) (A)
                 (A) (A) (A) (A) (A) (A) (A) (A) (A) (A) (A) (A)
                 (A) (A) (A) (A) (A) (A) (A) (A) (A) (A) (A) (A)
                 (A) (A) (A) (A) (A) (A) (A) (A) (A) (A) (A) (A)
                 (A) (A) (A) (A) (A) (A) (A) (A) (A) (A) (A) (A)
                 (A) (A) (A) (A) (A) (A) (A) (A) (A) (A) (A) (A)
                 (A) (A) (A) (A) (A) (A) (A) (A) (A) (A) (A) (A)
                 (A) (A) (A) (A) (A) (A) (A) (A) (A) (A) (A) (A)
                 (A) (A) (A)
 The electronic state is 3-A.
 Alpha  occ. eigenvalues --  -10.23394 -10.22692 -10.22612 -10.22255 -10.18803
 Alpha  occ. eigenvalues --   -0.93080  -0.81514  -0.65559  -0.58808  -0.53590
 Alpha  occ. eigenvalues --   -0.48166  -0.47740  -0.43848  -0.37279  -0.33233
 Alpha  occ. eigenvalues --   -0.28035  -0.23920  -0.23509
 Alpha virt. eigenvalues --   -0.03299  -0.01995  -0.01151   0.00640   0.01308
 Alpha virt. eigenvalues --    0.02462   0.04878   0.05810   0.06975   0.07191
 Alpha virt. eigenvalues --    0.08543   0.08751   0.09612   0.10228   0.11084
 Alpha virt. eigenvalues --    0.11613   0.12233   0.13324   0.13633   0.13986
 Alpha virt. eigenvalues --    0.14774   0.14816   0.16995   0.17780   0.19877
 Alpha virt. eigenvalues --    0.20011   0.20820   0.22557   0.23071   0.24068
 Alpha virt. eigenvalues --    0.27406   0.28435   0.29686   0.30739   0.32939
 Alpha virt. eigenvalues --    0.34747   0.37001   0.37082   0.39485   0.40839
 Alpha virt. eigenvalues --    0.41932   0.42050   0.42707   0.45160   0.45851
 Alpha virt. eigenvalues --    0.46612   0.48391   0.50289   0.51549   0.53036
 Alpha virt. eigenvalues --    0.53952   0.55000   0.56641   0.56893   0.58514
 Alpha virt. eigenvalues --    0.58604   0.59234   0.62836   0.63431   0.64421
 Alpha virt. eigenvalues --    0.65249   0.66753   0.68749   0.69363   0.72533
 Alpha virt. eigenvalues --    0.76084   0.77880   0.78876   0.80727   0.83169
 Alpha virt. eigenvalues --    0.84922   0.86302   0.88450   0.95887   1.00200
 Alpha virt. eigenvalues --    1.03038   1.03305   1.06541   1.06986   1.08303
 Alpha virt. eigenvalues --    1.11158   1.13721   1.14170   1.18081   1.21556
 Alpha virt. eigenvalues --    1.26371   1.27308   1.28544   1.30236   1.32297
 Alpha virt. eigenvalues --    1.34261   1.38466   1.40962   1.41797   1.42318
 Alpha virt. eigenvalues --    1.44394   1.47880   1.53087   1.53575   1.56125
 Alpha virt. eigenvalues --    1.59114   1.63590   1.65916   1.70866   1.73210
 Alpha virt. eigenvalues --    1.80142   1.82072   1.82347   1.93215   1.96010
 Alpha virt. eigenvalues --    1.99072   2.01646   2.02917   2.12170   2.12881
 Alpha virt. eigenvalues --    2.23487   2.24955   2.32460   2.39722   2.49140
 Alpha virt. eigenvalues --    2.49554   2.58434   2.61720   2.65348   2.67941
 Alpha virt. eigenvalues --    2.68655   2.73929   2.77576   2.80647   2.80953
 Alpha virt. eigenvalues --    2.83254   2.83386   2.86406   2.86669   2.91236
 Alpha virt. eigenvalues --    2.91711   2.95386   2.97622   3.00911   3.02632
 Alpha virt. eigenvalues --    3.06783   3.09482   3.13054   3.14820   3.19406
 Alpha virt. eigenvalues --    3.20409   3.24720   3.30081   3.32451   3.35500
 Alpha virt. eigenvalues --    3.36592   3.41712   3.44821   3.56959   3.58124
 Alpha virt. eigenvalues --    3.61556   3.63831   3.65071   3.75295   3.79091
 Alpha virt. eigenvalues --    3.88743   3.94189   4.01523   4.07366   4.10426
 Alpha virt. eigenvalues --    4.18083   4.22302   4.26229   4.27647   4.30500
 Alpha virt. eigenvalues --    4.31618   4.42430   4.47911   4.51120   4.51238
 Alpha virt. eigenvalues --    4.63584   4.69755   4.71460   4.73102   5.02777
 Alpha virt. eigenvalues --    5.09822   5.29737   5.65033   5.73576   5.84743
 Alpha virt. eigenvalues --    6.10570   6.44089   6.94088   6.98211   7.03252
 Alpha virt. eigenvalues --    7.03688   7.08763   7.09321   7.12011   7.21997
 Alpha virt. eigenvalues --    7.22997   7.30622   7.34588   7.41191   7.42096
 Alpha virt. eigenvalues --    7.51971   7.55050   7.59936   7.65012   7.70537
 Alpha virt. eigenvalues --    7.95963   8.12430   8.15003   8.25927   8.28428
 Alpha virt. eigenvalues --    8.45144   8.76741  23.97471  24.24748  24.75970
 Alpha virt. eigenvalues --   25.26507  25.82333
  Beta  occ. eigenvalues --  -10.23305 -10.22747 -10.22256 -10.19768 -10.18806
  Beta  occ. eigenvalues --   -0.93017  -0.79596  -0.60950  -0.58320  -0.52422
  Beta  occ. eigenvalues --   -0.46880  -0.46310  -0.43056  -0.36902  -0.32925
  Beta  occ. eigenvalues --   -0.23451
  Beta virt. eigenvalues --   -0.10311  -0.07322  -0.03049  -0.01859  -0.00912
  Beta virt. eigenvalues --    0.00700   0.01489   0.02694   0.05411   0.05820
  Beta virt. eigenvalues --    0.07187   0.07280   0.08864   0.09990   0.10060
  Beta virt. eigenvalues --    0.10246   0.11470   0.11822   0.12699   0.13312
  Beta virt. eigenvalues --    0.13681   0.14412   0.14975   0.15241   0.17144
  Beta virt. eigenvalues --    0.18397   0.19975   0.21110   0.21120   0.22780
  Beta virt. eigenvalues --    0.23270   0.24205   0.28154   0.29148   0.30008
  Beta virt. eigenvalues --    0.32104   0.34842   0.35288   0.37272   0.37928
  Beta virt. eigenvalues --    0.40726   0.41277   0.42629   0.42751   0.43953
  Beta virt. eigenvalues --    0.46095   0.47049   0.47880   0.49531   0.51698
  Beta virt. eigenvalues --    0.52058   0.54067   0.54544   0.55416   0.57091
  Beta virt. eigenvalues --    0.57826   0.59207   0.59779   0.59997   0.63142
  Beta virt. eigenvalues --    0.64314   0.66056   0.66608   0.67343   0.69364
  Beta virt. eigenvalues --    0.70300   0.73293   0.76671   0.78216   0.79113
  Beta virt. eigenvalues --    0.81012   0.83591   0.85163   0.86638   0.88740
  Beta virt. eigenvalues --    0.96819   1.00541   1.03725   1.03807   1.07358
  Beta virt. eigenvalues --    1.07472   1.09330   1.11655   1.14128   1.15309
  Beta virt. eigenvalues --    1.19345   1.21794   1.27960   1.28021   1.29036
  Beta virt. eigenvalues --    1.30590   1.32774   1.34719   1.39025   1.41030
  Beta virt. eigenvalues --    1.43080   1.44302   1.46568   1.48576   1.54134
  Beta virt. eigenvalues --    1.54410   1.59502   1.59535   1.69929   1.71709
  Beta virt. eigenvalues --    1.72488   1.74040   1.81509   1.84059   1.84250
  Beta virt. eigenvalues --    1.93551   1.96452   2.00265   2.03185   2.03389
  Beta virt. eigenvalues --    2.12885   2.14573   2.24287   2.26173   2.34165
  Beta virt. eigenvalues --    2.40916   2.49324   2.51037   2.59066   2.63089
  Beta virt. eigenvalues --    2.67375   2.69319   2.70338   2.75819   2.81983
  Beta virt. eigenvalues --    2.82488   2.82800   2.83874   2.85055   2.88340
  Beta virt. eigenvalues --    2.90764   2.92308   2.94308   2.99319   3.00216
  Beta virt. eigenvalues --    3.03161   3.05471   3.07871   3.11901   3.15066
  Beta virt. eigenvalues --    3.17025   3.21399   3.22162   3.25823   3.30413
  Beta virt. eigenvalues --    3.33162   3.36207   3.39189   3.41917   3.46402
  Beta virt. eigenvalues --    3.57092   3.58653   3.62588   3.64266   3.65209
  Beta virt. eigenvalues --    3.76083   3.80163   3.89220   3.94619   4.01914
  Beta virt. eigenvalues --    4.09032   4.11300   4.18733   4.23605   4.26363
  Beta virt. eigenvalues --    4.29496   4.31724   4.32574   4.43032   4.48283
  Beta virt. eigenvalues --    4.51807   4.51914   4.64932   4.70407   4.72074
  Beta virt. eigenvalues --    4.73485   5.03885   5.10040   5.31059   5.66463
  Beta virt. eigenvalues --    5.74515   5.85504   6.10700   6.44265   7.02941
  Beta virt. eigenvalues --    7.04434   7.06478   7.08566   7.11202   7.12383
  Beta virt. eigenvalues --    7.12470   7.22797   7.23611   7.30837   7.34687
  Beta virt. eigenvalues --    7.41327   7.44067   7.53675   7.55156   7.65157
  Beta virt. eigenvalues --    7.69136   7.71155   7.96217   8.12478   8.15482
  Beta virt. eigenvalues --    8.26073   8.28841   8.45307   8.76824  23.97960
  Beta virt. eigenvalues --   24.26533  24.76913  25.26533  25.82383
          Condensed to atoms (all electrons):
               1          2          3          4          5          6
     1  C    5.594339   0.472622   0.473295  -0.143106  -0.082649   0.050926
     2  H    0.472622   0.549163  -0.042589  -0.025717  -0.001571  -0.098008
     3  H    0.473295  -0.042589   0.549106  -0.025740  -0.001413  -0.098418
     4  C   -0.143106  -0.025717  -0.025740   6.620932   0.358518  -0.140941
     5  H   -0.082649  -0.001571  -0.001413   0.358518   0.456763   0.037584
     6  C    0.050926  -0.098008  -0.098418  -0.140941   0.037584   7.661476
     7  C   -0.197981   0.008883   0.008230  -0.100587   0.001001  -1.349435
     8  C   -0.113107  -0.010129  -0.010022  -0.043025   0.005291  -0.187178
     9  H    0.014871  -0.002640  -0.002643  -0.007534  -0.000677  -0.033058
               7          8          9
     1  C   -0.197981  -0.113107   0.014871
     2  H    0.008883  -0.010129  -0.002640
     3  H    0.008230  -0.010022  -0.002643
     4  C   -0.100587  -0.043025  -0.007534
     5  H    0.001001   0.005291  -0.000677
     6  C   -1.349435  -0.187178  -0.033058
     7  C    9.461648  -1.103860  -0.053492
     8  C   -1.103860   6.831532   0.331512
     9  H   -0.053492   0.331512   0.500617
          Atomic-Atomic Spin Densities.
               1          2          3          4          5          6
     1  C    0.039662   0.031793   0.032670  -0.122458   0.001753   0.000214
     2  H    0.031793   0.095235  -0.017513  -0.010271  -0.003409  -0.021046
     3  H    0.032670  -0.017513   0.095284  -0.010288  -0.003244  -0.021570
     4  C   -0.122458  -0.010271  -0.010288   2.478565  -0.056351  -0.165986
     5  H    0.001753  -0.003409  -0.003244  -0.056351   0.030283   0.025689
     6  C    0.000214  -0.021046  -0.021570  -0.165986   0.025689   0.206079
     7  C   -0.022018  -0.001077  -0.001537  -0.026967   0.002478  -0.010248
     8  C   -0.062409  -0.009273  -0.009358  -0.067002   0.005633  -0.007668
     9  H   -0.003662  -0.000299  -0.000301  -0.004759   0.000403  -0.003606
               7          8          9
     1  C   -0.022018  -0.062409  -0.003662
     2  H   -0.001077  -0.009273  -0.000299
     3  H   -0.001537  -0.009358  -0.000301
     4  C   -0.026967  -0.067002  -0.004759
     5  H    0.002478   0.005633   0.000403
     6  C   -0.010248  -0.007668  -0.003606
     7  C   -0.008261   0.041595   0.003412
     8  C    0.041595   0.083953   0.006342
     9  H    0.003412   0.006342  -0.000123
 Mulliken charges and spin densities:
               1          2
     1  C   -0.069209  -0.104455
     2  H    0.149987   0.064141
     3  H    0.150193   0.064141
     4  C   -0.492799   2.014483
     5  H    0.227153   0.003235
     6  C    0.157052   0.001859
     7  C   -0.674407  -0.022623
     8  C    0.298985  -0.018187
     9  H    0.253044  -0.002593
 Sum of Mulliken charges =  -0.00000   2.00000
 Mulliken charges and spin densities with hydrogens summed into heavy atoms:
               1          2
     1  C    0.230970   0.023827
     4  C   -0.265646   2.017718
     6  C    0.157052   0.001859
     7  C   -0.674407  -0.022623
     8  C    0.552030  -0.020780
 APT charges:
               1
     1  C    0.067625
     2  H    0.008981
     3  H    0.009037
     4  C   -0.103691
     5  H    0.069179
     6  C    0.126550
     7  C   -0.204289
     8  C   -0.073155
     9  H    0.099762
 Sum of APT charges =   0.00000
 APT charges with hydrogens summed into heavy atoms:
               1
     1  C    0.085643
     4  C   -0.034511
     6  C    0.126550
     7  C   -0.204289
     8  C    0.026607
 Electronic spatial extent (au):  <R**2>=            401.1443
 Charge=             -0.0000 electrons
 Dipole moment (field-independent basis, Debye):
    X=              3.0964    Y=              1.4785    Z=              0.0010  Tot=              3.4313
 Quadrupole moment (field-independent basis, Debye-Ang):
   XX=            -34.0515   YY=            -30.5386   ZZ=            -30.1853
   XY=             -7.8784   XZ=             -0.0146   YZ=             -0.0038
 Traceless Quadrupole moment (field-independent basis, Debye-Ang):
   XX=             -2.4598   YY=              1.0532   ZZ=              1.4065
   XY=             -7.8784   XZ=             -0.0146   YZ=             -0.0038
 Octapole moment (field-independent basis, Debye-Ang**2):
  XXX=             32.8624  YYY=              6.8293  ZZZ=              0.0068  XYY=              2.7241
  XXY=             13.7534  XXZ=             -0.0153  XZZ=              0.9166  YZZ=             -1.2820
  YYZ=              0.0054  XYZ=             -0.0014
 Hexadecapole moment (field-independent basis, Debye-Ang**3):
 XXXX=           -456.9097 YYYY=           -117.8271 ZZZZ=            -42.5632 XXXY=            -34.2812
 XXXZ=             -0.1498 YYYX=            -30.0985 YYYZ=             -0.0034 ZZZX=             -0.0128
 ZZZY=             -0.0086 XXYY=            -99.2103 XXZZ=            -85.8108 YYZZ=            -26.6568
 XXYZ=             -0.0308 YYXZ=             -0.0202 ZZXY=             -7.1669
 N-N= 1.300450555175D+02 E-N=-7.064448740660D+02  KE= 1.918205879019D+02
  Exact polarizability:  69.279   1.428  56.060   0.001   0.004  42.181
 Approx polarizability:  88.310  -2.469  82.669   0.000   0.007  62.373
                          Isotropic Fermi Contact Couplings
        Atom                 a.u.       MegaHertz       Gauss      10(-4) cm-1
     1  C(13)             -0.02097     -11.78498      -4.20517      -3.93104
     2  H(1)               0.03059      68.35879      24.39212      22.80204
     3  H(1)               0.03061      68.40099      24.40717      22.81611
     4  C(13)              0.38730     217.70102      77.68113      72.61724
     5  H(1)              -0.00077      -1.71979      -0.61366      -0.57366
     6  C(13)              0.04801      26.98569       9.62916       9.00146
     7  C(13)             -0.00107      -0.59879      -0.21366      -0.19973
     8  C(13)             -0.00120      -0.67309      -0.24017      -0.22452
     9  H(1)              -0.00028      -0.61858      -0.22072      -0.20633
 --------------------------------------------------------
       Center         ----  Spin Dipole Couplings  ----
                      3XX-RR        3YY-RR        3ZZ-RR
 --------------------------------------------------------
     1   Atom       -0.006723      0.051892     -0.045169
     2   Atom       -0.010946      0.018521     -0.007575
     3   Atom       -0.010955      0.018505     -0.007550
     4   Atom       -0.802769      0.103990      0.698779
     5   Atom        0.137852     -0.080947     -0.056905
     6   Atom        0.050707     -0.025748     -0.024959
     7   Atom        0.011795     -0.003032     -0.008763
     8   Atom        0.013393     -0.006342     -0.007051
     9   Atom        0.009043     -0.003820     -0.005224
 --------------------------------------------------------
                        XY            XZ            YZ
 --------------------------------------------------------
     1   Atom        0.064230      0.000059      0.000052
     2   Atom        0.017128      0.003906      0.017027
     3   Atom        0.017153     -0.003946     -0.017054
     4   Atom       -0.628738      0.003378      0.000761
     5   Atom        0.022709     -0.000551     -0.000127
     6   Atom        0.017344     -0.000046     -0.000001
     7   Atom        0.007211      0.000033      0.000014
     8   Atom       -0.001447     -0.000003     -0.000011
     9   Atom       -0.004285     -0.000003      0.000002
 --------------------------------------------------------


 ---------------------------------------------------------------------------------
              Anisotropic Spin Dipole Couplings in Principal Axis System
 ---------------------------------------------------------------------------------

       Atom             a.u.   MegaHertz   Gauss  10(-4) cm-1        Axes

              Baa    -0.0480    -6.443    -2.299    -2.149  0.8411 -0.5408 -0.0077
     1 C(13)  Bbb    -0.0452    -6.061    -2.163    -2.022  0.0062 -0.0046  1.0000
              Bcc     0.0932    12.505     4.462     4.171  0.5408  0.8412  0.0005
 
              Baa    -0.0206   -11.016    -3.931    -3.675  0.7270 -0.5152  0.4539
     2 H(1)   Bbb    -0.0129    -6.879    -2.454    -2.294 -0.5842 -0.1168  0.8031
              Bcc     0.0335    17.895     6.385     5.969  0.3608  0.8490  0.3859
 
              Baa    -0.0207   -11.021    -3.932    -3.676  0.7280 -0.5156 -0.4518
     3 H(1)   Bbb    -0.0129    -6.893    -2.459    -2.299  0.5827  0.1182  0.8040
              Bcc     0.0336    17.913     6.392     5.975  0.3611  0.8486 -0.3866
 
              Baa    -1.1245  -150.904   -53.846   -50.336  0.8902  0.4556 -0.0018
     4 C(13)  Bbb     0.4258    57.133    20.387    19.058 -0.4556  0.8902  0.0032
              Bcc     0.6988    93.771    33.460    31.279  0.0031 -0.0020  1.0000
 
              Baa    -0.0833   -44.434   -15.855   -14.822 -0.1021  0.9948  0.0027
     5 H(1)   Bbb    -0.0569   -30.362   -10.834   -10.128  0.0031 -0.0024  1.0000
              Bcc     0.1402    74.797    26.689    24.949  0.9948  0.1022 -0.0028
 
              Baa    -0.0295    -3.958    -1.412    -1.320 -0.2114  0.9774 -0.0018
     6 C(13)  Bbb    -0.0250    -3.349    -1.195    -1.117  0.0002  0.0019  1.0000
              Bcc     0.0545     7.308     2.608     2.438  0.9774  0.2114 -0.0006
 
              Baa    -0.0088    -1.176    -0.420    -0.392 -0.0013 -0.0008  1.0000
     7 C(13)  Bbb    -0.0060    -0.800    -0.285    -0.267 -0.3763  0.9265  0.0003
              Bcc     0.0147     1.976     0.705     0.659  0.9265  0.3763  0.0015
 
              Baa    -0.0071    -0.946    -0.338    -0.316  0.0015  0.0193  0.9998
     8 C(13)  Bbb    -0.0064    -0.865    -0.309    -0.289  0.0727  0.9972 -0.0193
              Bcc     0.0135     1.811     0.646     0.604  0.9974 -0.0727 -0.0001
 
              Baa    -0.0052    -2.787    -0.994    -0.930 -0.0012 -0.0049  1.0000
     9 H(1)   Bbb    -0.0051    -2.730    -0.974    -0.911  0.2897  0.9571  0.0050
              Bcc     0.0103     5.517     1.969     1.840  0.9571 -0.2897 -0.0002
 

 ---------------------------------------------------------------------------------

 No NMR shielding tensors so no spin-rotation constants.
 Leave Link  601 at Mon Jun 20 03:39:13 2016, MaxMem=    33554432 cpu:         1.7
 (Enter /home/proyectos/fulerenos/M3C-v1.9/M3C-deps_CCC/g09-AM64L-G09RevC.01/l701.exe)
 Compute integral second derivatives.
 ... and contract with generalized density number  0.
 Leave Link  701 at Mon Jun 20 03:39:14 2016, MaxMem=    33554432 cpu:         1.6
 (Enter /home/proyectos/fulerenos/M3C-v1.9/M3C-deps_CCC/g09-AM64L-G09RevC.01/l702.exe)
 L702 exits ... SP integral derivatives will be done elsewhere.
 Leave Link  702 at Mon Jun 20 03:39:14 2016, MaxMem=    33554432 cpu:         0.1
 (Enter /home/proyectos/fulerenos/M3C-v1.9/M3C-deps_CCC/g09-AM64L-G09RevC.01/l703.exe)
 Compute integral second derivatives, UseDBF=F ICtDFT=           0.
 Integral derivatives from FoFJK, PRISM(SPDF).
 Calling FoFJK, ICntrl=    100127 FMM=F ISym2X=0 I1Cent= 0 IOpClX= 1 NMat=1 NMatS=1 NMatT=0.
 FoFJK:  IHMeth= 1 ICntrl=  100127 DoSepK=F KAlg= 0 I1Cent=   0 FoldK=F
 IRaf=         0 NMat=   1 IRICut=       1 DoRegI=T DoRafI=F ISym2E= 0.
 FoFCou: FMM=F IPFlag=           0 FMFlag=      100000 FMFlg1=         800
         NFxFlg=           0 DoJE=F BraDBF=F KetDBF=F FulRan=T
         wScrn=  0.000000 ICntrl=  100127 IOpCl=  1 I1Cent=           0 NGrid=           0
         NMat0=    1 NMatS0=      1 NMatT0=    0 NMatD0=    1 NMtDS0=    0 NMtDT0=    0
 Symmetry not used in FoFCou.
 Leave Link  703 at Mon Jun 20 03:42:22 2016, MaxMem=    33554432 cpu:       754.8
 (Enter /home/proyectos/fulerenos/M3C-v1.9/M3C-deps_CCC/g09-AM64L-G09RevC.01/l716.exe)
 Dipole        = 1.21823461D+00 5.81680483D-01 4.12293920D-04
 Polarizability= 6.92794346D+01 1.42760543D+00 5.60596215D+01
                 6.24563905D-04 4.01242541D-03 4.21812550D+01
 Full mass-weighted force constant matrix:
 Low frequencies ---  -15.7476   -3.3354   -0.0004    0.0007    0.0007    4.1873
 Low frequencies ---   73.9269  120.2724  203.4393
 Diagonal vibrational polarizability:
        7.4088836       1.3653136     180.5902726
 Harmonic frequencies (cm**-1), IR intensities (KM/Mole), Raman scattering
 activities (A**4/AMU), depolarization ratios for plane and unpolarized
 incident light, reduced masses (AMU), force constants (mDyne/A),
 and normal coordinates:
                      1                      2                      3
                      A                      A                      A
 Frequencies --     73.8019               120.2557               203.4389
 Red. masses --      2.6436                 1.1812                 3.7973
 Frc consts  --      0.0085                 0.0101                 0.0926
 IR Inten    --     20.2060                43.1783                 9.1611
  Atom  AN      X      Y      Z        X      Y      Z        X      Y      Z
     1   6    -0.00  -0.00  -0.17    -0.00   0.00  -0.00    -0.04   0.13  -0.00
     2   1    -0.03   0.27  -0.38    -0.04  -0.12   0.08    -0.17   0.09   0.01
     3   1     0.03  -0.27  -0.38     0.04   0.12   0.08    -0.17   0.09  -0.01
     4   6    -0.00   0.00   0.15    -0.00   0.00  -0.12     0.28  -0.15   0.00
     5   1     0.00   0.00   0.52     0.00  -0.00   0.97     0.31  -0.54  -0.00
     6   6     0.00   0.00  -0.05     0.00  -0.00   0.00    -0.02   0.21  -0.00
     7   6    -0.00  -0.00   0.27     0.00   0.00  -0.02     0.09  -0.12   0.00
     8   6     0.00   0.00  -0.15     0.00  -0.00   0.04    -0.26  -0.03   0.00
     9   1     0.00   0.00  -0.37     0.00  -0.00   0.07    -0.52  -0.11   0.00
                      4                      5                      6
                      A                      A                      A
 Frequencies --    359.6619               474.0319               702.6841
 Red. masses --      2.7039                 4.9955                 2.1989
 Frc consts  --      0.2061                 0.6614                 0.6397
 IR Inten    --      0.3710                 7.3192                 1.1503
  Atom  AN      X      Y      Z        X      Y      Z        X      Y      Z
     1   6    -0.00  -0.00  -0.01    -0.06  -0.19   0.00     0.19  -0.15  -0.00
     2   1    -0.36   0.32  -0.32    -0.24  -0.21  -0.02     0.13  -0.15  -0.01
     3   1     0.36  -0.32  -0.32    -0.24  -0.21   0.02     0.13  -0.14   0.01
     4   6    -0.00  -0.00  -0.06    -0.29  -0.09  -0.00     0.10  -0.02  -0.00
     5   1     0.00  -0.00   0.03    -0.34   0.45   0.00     0.03   0.82   0.00
     6   6     0.00   0.00   0.36     0.14   0.26  -0.00    -0.01   0.04   0.00
     7   6     0.00  -0.00  -0.13     0.36  -0.05   0.00    -0.12   0.08  -0.00
     8   6    -0.00   0.00  -0.06    -0.05   0.07   0.00    -0.14   0.01  -0.00
     9   1    -0.00   0.00  -0.43    -0.34  -0.01   0.00    -0.38  -0.06  -0.00
                      7                      8                      9
                      A                      A                      A
 Frequencies --    835.6033               875.7458               930.4793
 Red. masses --      1.5824                 1.3089                 1.6031
 Frc consts  --      0.6510                 0.5914                 0.8178
 IR Inten    --      0.4612                10.5755                 9.8621
  Atom  AN      X      Y      Z        X      Y      Z        X      Y      Z
     1   6     0.00  -0.00   0.18    -0.08   0.06   0.00    -0.00   0.00  -0.11
     2   1    -0.14   0.47  -0.22    -0.23   0.00   0.01    -0.05  -0.28   0.11
     3   1     0.14  -0.47  -0.22    -0.23  -0.00  -0.02     0.05   0.28   0.11
     4   6    -0.00   0.00  -0.07     0.08  -0.06  -0.00    -0.00   0.00   0.04
     5   1     0.00  -0.01   0.04     0.01   0.69   0.00    -0.00  -0.00  -0.03
     6   6     0.00   0.00  -0.08    -0.03   0.02  -0.00     0.00  -0.00   0.12
     7   6    -0.00   0.00   0.03     0.00  -0.08   0.00     0.00   0.00   0.02
     8   6    -0.00   0.00  -0.08     0.01  -0.01  -0.00     0.00   0.00  -0.16
     9   1    -0.01  -0.00   0.61     0.59   0.17   0.01    -0.00  -0.00   0.87
                     10                     11                     12
                      A                      A                      A
 Frequencies --    963.7142              1091.9082              1129.4040
 Red. masses --      1.6062                 5.0506                 3.7296
 Frc consts  --      0.8789                 3.5479                 2.8029
 IR Inten    --      2.4144                 1.2291                17.5649
  Atom  AN      X      Y      Z        X      Y      Z        X      Y      Z
     1   6     0.10  -0.09  -0.00    -0.20  -0.31   0.00     0.04   0.03   0.00
     2   1     0.21  -0.03  -0.02    -0.39  -0.28  -0.02     0.52   0.15  -0.01
     3   1     0.21  -0.03   0.02    -0.39  -0.28   0.02     0.52   0.15   0.01
     4   6    -0.04   0.05   0.00     0.23   0.37  -0.00     0.00  -0.10   0.00
     5   1     0.01  -0.38  -0.00     0.33  -0.16  -0.00    -0.03   0.17   0.00
     6   6    -0.02   0.10   0.00    -0.10  -0.07  -0.00    -0.27  -0.14  -0.00
     7   6    -0.02  -0.07  -0.00     0.10  -0.04   0.00     0.15  -0.16  -0.00
     8   6    -0.13   0.02  -0.00     0.02   0.10   0.00     0.02   0.31   0.00
     9   1     0.78   0.31   0.00    -0.16   0.05  -0.00    -0.29   0.23  -0.00
                     13                     14                     15
                      A                      A                      A
 Frequencies --   1179.8590              1286.5021              1340.7717
 Red. masses --      1.0933                 3.0463                 2.6284
 Frc consts  --      0.8967                 2.9706                 2.7839
 IR Inten    --      0.0003                17.2612                28.0441
  Atom  AN      X      Y      Z        X      Y      Z        X      Y      Z
     1   6    -0.00  -0.00   0.01    -0.20  -0.02   0.00     0.19   0.09  -0.00
     2   1    -0.68  -0.19   0.03     0.58   0.08   0.06    -0.59  -0.21   0.07
     3   1     0.68   0.19   0.03     0.58   0.08  -0.06    -0.59  -0.21  -0.07
     4   6    -0.00   0.00   0.04     0.05  -0.01  -0.00    -0.04  -0.00   0.00
     5   1    -0.00  -0.00  -0.04     0.04   0.20   0.00    -0.04  -0.12  -0.00
     6   6     0.00   0.00  -0.07     0.02  -0.11  -0.00    -0.07  -0.19  -0.00
     7   6    -0.00   0.00   0.00     0.18   0.23   0.00     0.15   0.13   0.00
     8   6     0.00  -0.00   0.02    -0.17  -0.13  -0.00    -0.14   0.01  -0.00
     9   1     0.00  -0.00  -0.05     0.28   0.00   0.00     0.17   0.11   0.00
                     16                     17                     18
                      A                      A                      A
 Frequencies --   1407.4336              1765.8101              2929.6862
 Red. masses --      1.0828                 7.8954                 1.0563
 Frc consts  --      1.2638                14.5047                 5.3419
 IR Inten    --     14.8972                12.6931                 6.0730
  Atom  AN      X      Y      Z        X      Y      Z        X      Y      Z
     1   6     0.02  -0.07   0.00    -0.12   0.03   0.00     0.02  -0.06  -0.00
     2   1    -0.15   0.53  -0.44    -0.07   0.10  -0.06    -0.10   0.42   0.59
     3   1    -0.15   0.53   0.44    -0.07   0.10   0.06    -0.09   0.39  -0.55
     4   6     0.00  -0.01  -0.00     0.00  -0.00  -0.00    -0.00  -0.00  -0.00
     5   1     0.00   0.02   0.00    -0.00   0.04   0.00    -0.00  -0.00   0.00
     6   6    -0.01  -0.02   0.00     0.55  -0.29   0.00     0.00  -0.00  -0.00
     7   6     0.02   0.02   0.00    -0.14  -0.14  -0.00     0.00   0.00   0.00
     8   6    -0.01  -0.02  -0.00    -0.26   0.34   0.00    -0.00   0.00  -0.00
     9   1     0.02  -0.01  -0.00    -0.17   0.56   0.00    -0.00   0.01  -0.00
                     19                     20                     21
                      A                      A                      A
 Frequencies --   2944.1515              3221.4214              3230.7981
 Red. masses --      1.0957                 1.0915                 1.1133
 Frc consts  --      5.5959                 6.6740                 6.8467
 IR Inten    --      1.7331                 2.3277                 0.0811
  Atom  AN      X      Y      Z        X      Y      Z        X      Y      Z
     1   6    -0.00   0.00  -0.09     0.00   0.01   0.00     0.00   0.00  -0.00
     2   1    -0.10   0.42   0.53     0.00   0.00   0.00     0.00  -0.00  -0.00
     3   1     0.11  -0.44   0.57     0.00   0.00  -0.00     0.00  -0.00   0.00
     4   6     0.00   0.00  -0.00    -0.09  -0.01   0.00    -0.00  -0.00   0.00
     5   1     0.00   0.00   0.00     0.99   0.08  -0.00     0.03   0.00  -0.00
     6   6    -0.00   0.00  -0.00     0.00  -0.00   0.00    -0.01   0.01  -0.00
     7   6    -0.00  -0.00   0.00    -0.00  -0.00  -0.00     0.00   0.00   0.00
     8   6     0.00  -0.00  -0.00    -0.00   0.00   0.00     0.03  -0.09  -0.00
     9   1     0.00  -0.00  -0.00     0.01  -0.03  -0.00    -0.30   0.95   0.00

 -------------------
 - Thermochemistry -
 -------------------
 Temperature   298.150 Kelvin.  Pressure   1.00000 Atm.
 Atom     1 has atomic number  6 and mass  12.00000
 Atom     2 has atomic number  1 and mass   1.00783
 Atom     3 has atomic number  1 and mass   1.00783
 Atom     4 has atomic number  6 and mass  12.00000
 Atom     5 has atomic number  1 and mass   1.00783
 Atom     6 has atomic number  6 and mass  12.00000
 Atom     7 has atomic number  6 and mass  12.00000
 Atom     8 has atomic number  6 and mass  12.00000
 Atom     9 has atomic number  1 and mass   1.00783
 Molecular mass:    64.03130 amu.
 Principal axes and moments of inertia in atomic units:
                           1         2         3
     Eigenvalues --    95.82993 489.51061 574.42611
           X            0.99939  -0.03499  -0.00007
           Y            0.03499   0.99939  -0.00007
           Z            0.00007   0.00007   1.00000
 This molecule is an asymmetric top.
 Rotational symmetry number  1.
 Rotational temperatures (Kelvin)      0.90383     0.17694     0.15078
 Rotational constants (GHZ):          18.83275     3.68683     3.14182
 Zero-point vibrational energy     161897.6 (Joules/Mol)
                                   38.69445 (Kcal/Mol)
 Warning -- explicit consideration of   5 degrees of freedom as
           vibrations may cause significant error
 Vibrational temperatures:    106.18   173.02   292.70   517.47   682.03
          (Kelvin)           1011.00  1202.25  1260.00  1338.75  1386.57
                             1571.01  1624.96  1697.55  1850.99  1929.07
                             2024.98  2540.60  4215.16  4235.97  4634.90
                             4648.39
 
 Zero-point correction=                           0.061664 (Hartree/Particle)
 Thermal correction to Energy=                    0.067555
 Thermal correction to Enthalpy=                  0.068499
 Thermal correction to Gibbs Free Energy=         0.031639
 Sum of electronic and zero-point Energies=           -192.643487
 Sum of electronic and thermal Energies=              -192.637596
 Sum of electronic and thermal Enthalpies=            -192.636652
 Sum of electronic and thermal Free Energies=         -192.673512
 
                     E (Thermal)             CV                S
                      KCal/Mol        Cal/Mol-Kelvin    Cal/Mol-Kelvin
 Total                   42.391             18.567             77.579
 Electronic               0.000              0.000              2.183
 Translational            0.889              2.981             38.389
 Rotational               0.889              2.981             24.803
 Vibrational             40.614             12.605             12.204
 Vibration     1          0.599              1.966              4.049
 Vibration     2          0.609              1.932              3.096
 Vibration     3          0.639              1.835              2.102
 Vibration     4          0.734              1.555              1.124
 Vibration     5          0.831              1.308              0.726
                       Q            Log10(Q)             Ln(Q)
 Total Bot       0.280005D-14        -14.552834        -33.509138
 Total V=0       0.646193D+14         13.810362         31.799534
 Vib (Bot)       0.788689D-27        -27.103094        -62.407180
 Vib (Bot)    1  0.279307D+01          0.446081          1.027141
 Vib (Bot)    2  0.169926D+01          0.230259          0.530192
 Vib (Bot)    3  0.978826D+00         -0.009295         -0.021402
 Vib (Bot)    4  0.509734D+00         -0.292656         -0.673866
 Vib (Bot)    5  0.354618D+00         -0.450239         -1.036714
 Vib (V=0)       0.182013D+02          1.260102          2.901492
 Vib (V=0)    1  0.333747D+01          0.523417          1.205213
 Vib (V=0)    2  0.227129D+01          0.356273          0.820349
 Vib (V=0)    3  0.159914D+01          0.203885          0.469463
 Vib (V=0)    4  0.121402D+01          0.084227          0.193940
 Vib (V=0)    5  0.111299D+01          0.046490          0.107048
 Electronic      0.300000D+01          0.477121          1.098612
 Translational   0.201393D+08          7.304044         16.818182
 Rotational      0.587618D+05          4.769095         10.981247
 
                                                              b3lyp opt
                                                             IR Spectrum
 
     33         22                                             1             1  1 1   1 1 1                                          
     22         99                                             7             4  3 2   1 1 0    99 8 8    7        4   3      2  1    
     32         43                                             6             0  4 8   8 2 9    63 7 3    0        7   6      0  2 7  
     11         40                                             6             7  1 7   0 9 2    40 6 6    3        4   0      3  0 4  
 
     XX         XX                                             X             X  X X     X X    XX X X    X        X   X      X  X X  
                 X                                             X             X  X X     X       X X               X          X  X X  
                 X                                             X             X  X X     X       X X               X          X  X X  
                                                               X             X  X X     X       X X                          X  X X  
                                                               X             X  X X     X       X X                             X X  
                                                               X             X  X X     X                                       X X  
                                                                             X  X X     X                                       X X  
                                                                                X X     X                                       X X  
                                                                                X                                               X X  
                                                                                X                                               X    
                                                                                X                                               X    
                                                                                X                                               X    
                                                                                X                                               X    
                                                                                                                                X    
                                                                                                                                X    
                                                                                                                                X    
                                                                                                                                X    
                                                                                                                                X    
                                                                                                                                X    
                                                                                                                                X    
 
 ***** Axes restored to original set *****
 -------------------------------------------------------------------
 Center     Atomic                   Forces (Hartrees/Bohr)
 Number     Number              X              Y              Z
 -------------------------------------------------------------------
      1        6          -0.000021635    0.000035490   -0.000063359
      2        1          -0.000007155    0.000007581    0.000009007
      3        1           0.000005300   -0.000033250    0.000048008
      4        6           0.000018771   -0.000001041    0.000001483
      5        1          -0.000011692   -0.000000969    0.000002505
      6        6           0.000050830   -0.000032699    0.000001738
      7        6          -0.000003115    0.000027221    0.000001458
      8        6          -0.000043642    0.000028609    0.000001586
      9        1           0.000012338   -0.000030942   -0.000002426
 -------------------------------------------------------------------
 Cartesian Forces:  Max     0.000063359 RMS     0.000025905
 Z-matrix is all fixed cartesians, so copy forces.
 Force constants in Cartesian coordinates: 
                1             2             3             4             5 
      1  0.453760D+00
      2  0.891811D-02  0.460210D+00
      3 -0.979367D-04 -0.516595D-04  0.462950D+00
      4 -0.464496D-01  0.176628D-01  0.262263D-01  0.545455D-01
      5  0.214441D-01 -0.117425D+00 -0.114850D+00 -0.201662D-01  0.135977D+00
      6  0.311208D-01 -0.107267D+00 -0.188180D+00 -0.309220D-01  0.123762D+00
      7 -0.463886D-01  0.176153D-01 -0.262025D-01  0.169305D-02 -0.293943D-02
      8  0.213935D-01 -0.117208D+00  0.114886D+00 -0.293873D-02  0.946510D-02
      9 -0.311049D-01  0.107284D+00 -0.188573D+00 -0.491408D-02  0.136062D-01
     10 -0.134071D+00 -0.101278D+00  0.105076D-03  0.518652D-03 -0.668444D-02
     11 -0.721091D-01 -0.163027D+00 -0.453635D-04 -0.158315D-01 -0.224669D-01
     12  0.183006D-03  0.625468D-04 -0.395747D-01 -0.149363D-01 -0.166514D-01
     13  0.803031D-03  0.108595D-01  0.189449D-04 -0.762964D-04 -0.288630D-03
     14 -0.219150D-01  0.815990D-02  0.773441D-04  0.117579D-02  0.128893D-02
     15 -0.505596D-04 -0.213692D-04  0.134347D-02  0.113760D-02  0.104605D-02
     16 -0.207620D+00  0.324157D-01 -0.270743D-04 -0.773390D-02  0.962357D-02
     17  0.362136D-01 -0.816113D-01 -0.218256D-04  0.206474D-01 -0.836740D-02
     18 -0.307285D-04 -0.490248D-05 -0.710422D-01  0.275937D-01 -0.804806D-02
     19 -0.992363D-02 -0.234958D-02 -0.701868D-05  0.524715D-03  0.184212D-04
     20  0.125868D-01  0.841950D-02  0.218766D-04  0.226172D-03  0.159779D-02
     21 -0.122439D-05 -0.122803D-04  0.526671D-02 -0.107097D-02  0.338589D-03
     22 -0.127918D-01  0.141897D-01 -0.188699D-04 -0.248030D-02 -0.120551D-02
     23 -0.760707D-02 -0.115291D-03 -0.175045D-04 -0.446018D-03 -0.453508D-04
     24 -0.211127D-04  0.231146D-05  0.184194D-01 -0.282270D-02  0.915301D-03
     25  0.268178D-02  0.196682D-02  0.312256D-05 -0.541834D-03  0.198127D-03
     26  0.107520D-02  0.259641D-02  0.000000D+00 -0.329672D-03 -0.240618D-04
     27  0.262947D-05  0.791152D-05 -0.610221D-03 -0.291533D-03 -0.118912D-03
                6             7             8             9            10 
      6  0.208899D+00
      7  0.493124D-02  0.544991D-01
      8 -0.136515D-01 -0.200871D-01  0.135741D+00
      9 -0.234543D-01  0.308877D-01 -0.123792D+00  0.209323D+00
     10 -0.559873D-02  0.502151D-03 -0.671621D-02  0.562164D-02  0.525915D+00
     11 -0.291765D-02 -0.158122D-01 -0.224276D-01  0.294912D-02  0.145319D+00
     12  0.343831D-02  0.149428D-01  0.166472D-01  0.344434D-02 -0.126108D-02
     13  0.105481D-03 -0.861548D-04 -0.291280D-03 -0.108335D-03 -0.360158D+00
     14 -0.661947D-03  0.115693D-02  0.126543D-02  0.663611D-03 -0.876216D-02
     15  0.389723D-04 -0.112690D-02 -0.102736D-02  0.308178D-04  0.111869D-02
     16  0.666851D-03 -0.770739D-02  0.962384D-02 -0.687614D-03 -0.349738D-01
     17 -0.120049D-03  0.206166D-01 -0.835809D-02  0.145812D-03 -0.247164D-01
     18 -0.905741D-03 -0.276236D-01  0.807698D-02 -0.939465D-03  0.205209D-04
     19  0.585650D-03  0.516271D-03  0.168945D-04 -0.583829D-03 -0.222348D-03
     20  0.125037D-04  0.238613D-03  0.159092D-02 -0.156650D-04  0.787015D-03
     21  0.587605D-03  0.107803D-02 -0.335649D-03  0.593337D-03 -0.599491D-05
     22 -0.872072D-03 -0.248941D-02 -0.119783D-02  0.871592D-03  0.238600D-02
     23  0.777570D-03 -0.458847D-03 -0.437430D-04 -0.776692D-03  0.160431D-02
     24 -0.266511D-03  0.282570D-02 -0.923586D-03 -0.265830D-03 -0.240706D-05
     25 -0.172324D-04 -0.539014D-03  0.196896D-03  0.177975D-04  0.103044D-03
     26  0.656122D-04 -0.329869D-03 -0.249992D-04 -0.649750D-04  0.447067D-03
     27 -0.157227D-03  0.287597D-03  0.119089D-03 -0.159008D-03  0.228734D-05
               11            12            13            14            15 
     11  0.230281D+00
     12 -0.284363D-04  0.340256D-01
     13 -0.386098D-01  0.103988D-02  0.361410D+00
     14 -0.320307D-01 -0.450052D-04  0.303493D-01  0.247172D-01
     15  0.454160D-04 -0.249403D-02 -0.105906D-02 -0.383619D-04  0.586216D-03
     16 -0.658836D-02  0.227907D-04 -0.234773D-02 -0.150784D-02 -0.130481D-04
     17  0.102641D-01  0.181313D-04 -0.258224D-02 -0.462963D-02 -0.330432D-05
     18 -0.983095D-05  0.592812D-03  0.352689D-05  0.660287D-05  0.453648D-03
     19  0.189515D-02  0.531419D-05  0.328471D-03  0.732228D-04 -0.603051D-05
     20 -0.222039D-02 -0.364050D-05  0.180127D-03  0.695863D-03  0.107405D-05
     21  0.617871D-05  0.131611D-02  0.000000D+00 -0.250851D-05 -0.390804D-04
     22  0.183726D-02  0.312693D-05  0.211472D-03 -0.505617D-03  0.000000D+00
     23  0.198146D-02  0.000000D+00  0.290751D-03  0.365560D-03 -0.262177D-05
     24  0.286862D-05 -0.121298D-03  0.000000D+00 -0.114879D-05  0.408911D-04
     25 -0.100627D-03  0.000000D+00 -0.847453D-04 -0.645626D-04  0.000000D+00
     26 -0.353656D-03  0.000000D+00  0.922978D-04  0.167358D-03  0.000000D+00
     27 -0.230564D-05 -0.627129D-03  0.000000D+00  0.141311D-05  0.390957D-04
               16            17            18            19            20 
     16  0.844835D+00
     17 -0.219849D+00  0.448729D+00
     18  0.158818D-03  0.960363D-04  0.127109D+00
     19 -0.281481D+00 -0.110807D+00 -0.195028D-03  0.334281D+00
     20 -0.963382D-01 -0.648743D-01 -0.846635D-04  0.179839D+00  0.367241D+00
     21 -0.181539D-03 -0.771819D-04 -0.128689D-01  0.264766D-03  0.314135D-03
     22 -0.302653D+00  0.271714D+00  0.760431D-04 -0.555115D-01 -0.972131D-01
     23  0.278749D+00 -0.285190D+00 -0.169052D-04 -0.773326D-01 -0.307077D+00
     24  0.721664D-04 -0.237807D-04 -0.577161D-01 -0.718468D-04 -0.236940D-03
     25 -0.319420D-03  0.876231D-02 -0.325098D-05  0.114875D-01 -0.305992D-03
     26 -0.612857D-02 -0.596226D-02 -0.152559D-04  0.864652D-02 -0.537329D-02
     27 -0.113513D-04 -0.138374D-04  0.153172D-01  0.802242D-05 -0.868041D-05
               21            22            23            24            25 
     21  0.805313D-02
     22 -0.839347D-04  0.444841D+00
     23 -0.227007D-03 -0.279145D+00  0.915321D+00
     24 -0.107470D-01 -0.236215D-04  0.412584D-03  0.948035D-01
     25  0.183906D-05 -0.715123D-01  0.843456D-01  0.439528D-04  0.587250D-01
     26 -0.427587D-05  0.915256D-01 -0.325197D+00 -0.147609D-03 -0.949986D-01
     27  0.783806D-02  0.484056D-04 -0.150217D-03 -0.441471D-01 -0.467131D-04
               26            27 
     26  0.334171D+00
     27  0.165539D-03  0.225063D-01
 Leave Link  716 at Mon Jun 20 03:42:22 2016, MaxMem=    33554432 cpu:         0.2
 (Enter /home/proyectos/fulerenos/M3C-v1.9/M3C-deps_CCC/g09-AM64L-G09RevC.01/l103.exe)

 GradGradGradGradGradGradGradGradGradGradGradGradGradGradGradGradGradGrad
 Berny optimization.
 Search for a local minimum.
 Step number   1 out of a maximum of    2
 All quantities printed in internal units (Hartrees-Bohrs-Radians)
 Second derivative matrix not updated -- analytic derivatives used.
 ITU=  0
     Eigenvalues ---    0.00059   0.00116   0.00578   0.02023   0.02842
     Eigenvalues ---    0.05042   0.07837   0.08014   0.08528   0.09645
     Eigenvalues ---    0.14065   0.19768   0.23365   0.32582   0.43237
     Eigenvalues ---    0.61265   0.66545   0.76860   0.81605   0.90336
     Eigenvalues ---    1.64099
 Angle between quadratic step and forces=  86.78 degrees.
 Linear search not attempted -- first point.
 B after Tr=     0.000006    0.000011    0.000115
         Rot=    1.000000    0.000095   -0.000097   -0.000001 Ang=   0.02 deg.
 Variable       Old X    -DE/DX   Delta X   Delta X   Delta X     New X
                                 (Linear)    (Quad)   (Total)
    X1        1.89950  -0.00002   0.00000  -0.00002  -0.00001   1.89949
    Y1       -1.03879   0.00004   0.00000   0.00009   0.00010  -1.03869
    Z1        0.00108  -0.00006   0.00000  -0.00101  -0.00107   0.00001
    X2        2.17533  -0.00001   0.00000  -0.00076  -0.00107   2.17426
    Y2       -2.28539   0.00001   0.00000   0.00053   0.00023  -2.28516
    Z2       -1.64363   0.00001   0.00000  -0.00144  -0.00131  -1.64494
    X3        2.17433   0.00001   0.00000   0.00063   0.00096   2.17529
    Y3       -2.28340  -0.00003   0.00000  -0.00050  -0.00017  -2.28357
    Z3        1.64720   0.00005   0.00000  -0.00133  -0.00120   1.64600
    X4        3.70455   0.00002   0.00000   0.00009   0.00010   3.70464
    Y4        1.06450  -0.00000   0.00000  -0.00000   0.00001   1.06451
    Z4       -0.00004   0.00000   0.00000  -0.00073  -0.00153  -0.00157
    X5        5.73943  -0.00001   0.00000   0.00008   0.00008   5.73952
    Y5        1.20202  -0.00000   0.00000  -0.00010  -0.00008   1.20194
    Z5       -0.00608   0.00000   0.00000   0.00486   0.00364  -0.00244
    X6       -0.79774   0.00005   0.00000   0.00004   0.00005  -0.79769
    Y6       -0.29426  -0.00003   0.00000  -0.00000   0.00001  -0.29426
    Z6        0.00017   0.00000   0.00000   0.00001   0.00033   0.00051
    X7       -3.32947  -0.00000   0.00000  -0.00001   0.00000  -3.32947
    Y7       -1.14766   0.00003   0.00000   0.00003   0.00003  -1.14763
    Z7       -0.00152   0.00000   0.00000   0.00220   0.00317   0.00165
    X8       -2.62140  -0.00004   0.00000  -0.00007  -0.00007  -2.62147
    Y8        1.41674   0.00003   0.00000  -0.00004  -0.00003   1.41671
    Z8        0.00047   0.00000   0.00000  -0.00051  -0.00016   0.00031
    X9       -3.22171   0.00001   0.00000  -0.00004  -0.00003  -3.22174
    Y9        3.36360  -0.00003   0.00000  -0.00012  -0.00011   3.36349
    Z9        0.00150  -0.00000   0.00000  -0.00197  -0.00187  -0.00037
         Item               Value     Threshold  Converged?
 Maximum Force            0.000063     0.000450     YES
 RMS     Force            0.000026     0.000300     YES
 Maximum Displacement     0.003638     0.001800     NO 
 RMS     Displacement     0.001151     0.001200     YES
 Predicted change in Energy=-2.393104D-08
 GradGradGradGradGradGradGradGradGradGradGradGradGradGradGradGradGradGrad

 Leave Link  103 at Mon Jun 20 03:42:22 2016, MaxMem=    33554432 cpu:         0.1
 (Enter /home/proyectos/fulerenos/M3C-v1.9/M3C-deps_CCC/g09-AM64L-G09RevC.01/l9999.exe)
 1\1\GINC-BELVIS17\Freq\UB3LYP\6-311++G(3df,2p)\C5H4(3)\ROOT\20-Jun-201
 6\0\\#p b3lyp/6-311++G(3df,2p) freq symmetry=Loose\\b3lyp opt\\0,3\C,1
 .005171,-0.549704,0.000573\H,1.151137,-1.209377,-0.869769\H,1.150608,-
 1.208325,0.87166\C,1.960362,0.56331,-0.000021\H,3.037177,0.636082,-0.0
 03218\C,-0.422145,-0.155718,0.000092\C,-1.761882,-0.607317,-0.000804\C
 ,-1.387183,0.749708,0.000248\H,-1.704854,1.779939,0.000796\\Version=EM
 64L-G09RevE.01\State=3-A\HF=-192.7051509\S2=2.006227\S2-1=0.\S2A=2.000
 016\RMSD=5.529e-09\RMSF=2.591e-05\ZeroPoint=0.0616635\Thermal=0.067555
 \Dipole=1.2182346,0.5816806,0.0004123\DipoleDeriv=-0.0272767,0.132071,
 -0.0001036,0.1487507,0.0942936,-0.0001761,-0.0007513,-0.0001485,0.1358
 593,-0.0126294,-0.0272797,-0.0065844,-0.0460517,0.0177687,-0.0666948,0
 .0237923,-0.0833451,0.0218037,-0.0124901,-0.0272472,0.0066141,-0.04629
 5,0.0179222,0.0667014,-0.02328,0.0834273,0.0216778,0.0042346,0.056899,
 -0.0006184,0.0599138,-0.0743779,0.0004954,-0.0006878,0.000114,-0.24092
 85,-0.0448653,-0.0315748,0.0003912,0.0170227,0.0908212,-0.0002918,0.00
 07283,0.0000003,0.1615816,0.3344841,-0.2883806,0.0001533,-0.4455695,-0
 .1288745,-0.0003139,-0.000059,-0.0002683,0.1740408,-0.1238388,0.388605
 2,0.0004488,0.4083213,0.0112418,0.0005189,0.0005016,0.0004458,-0.50026
 91,-0.2679624,-0.2301057,-0.0003435,-0.1378588,-0.0442276,-0.000173,-0
 .0002393,-0.0001863,0.092726,0.1503439,0.0270129,0.0000425,0.0417667,0
 .0154325,-0.000066,-0.0000048,-0.0000392,0.1335084\Polar=69.2794343,1.
 4276068,56.0596218,0.0006246,0.0040124,42.181255\PG=C01 [X(C5H4)]\NIma
 g=0\\0.45375983,0.00891811,0.46021042,-0.00009794,-0.00005166,0.462949
 98,-0.04644957,0.01766285,0.02622629,0.05454549,0.02144410,-0.11742498
 ,-0.11484992,-0.02016621,0.13597689,0.03112078,-0.10726668,-0.18817989
 ,-0.03092197,0.12376215,0.20889875,-0.04638856,0.01761528,-0.02620254,
 0.00169305,-0.00293943,0.00493124,0.05449906,0.02139350,-0.11720780,0.
 11488639,-0.00293873,0.00946510,-0.01365151,-0.02008709,0.13574083,-0.
 03110485,0.10728412,-0.18857255,-0.00491408,0.01360624,-0.02345427,0.0
 3088768,-0.12379156,0.20932262,-0.13407130,-0.10127842,0.00010508,0.00
 051865,-0.00668444,-0.00559873,0.00050215,-0.00671621,0.00562164,0.525
 91547,-0.07210913,-0.16302684,-0.00004536,-0.01583154,-0.02246691,-0.0
 0291765,-0.01581217,-0.02242763,0.00294912,0.14531925,0.23028053,0.000
 18301,0.00006255,-0.03957474,-0.01493632,-0.01665143,0.00343831,0.0149
 4278,0.01664721,0.00344434,-0.00126108,-0.00002844,0.03402563,0.000803
 03,0.01085953,0.00001894,-0.00007630,-0.00028863,0.00010548,-0.0000861
 5,-0.00029128,-0.00010833,-0.36015784,-0.03860981,0.00103988,0.3614098
 0,-0.02191503,0.00815990,0.00007734,0.00117579,0.00128893,-0.00066195,
 0.00115693,0.00126543,0.00066361,-0.00876216,-0.03203065,-0.00004501,0
 .03034927,0.02471724,-0.00005056,-0.00002137,0.00134347,0.00113760,0.0
 0104605,0.00003897,-0.00112690,-0.00102736,0.00003082,0.00111869,0.000
 04542,-0.00249403,-0.00105906,-0.00003836,0.00058622,-0.20761981,0.032
 41568,-0.00002707,-0.00773390,0.00962357,0.00066685,-0.00770739,0.0096
 2384,-0.00068761,-0.03497383,-0.00658836,0.00002279,-0.00234773,-0.001
 50784,-0.00001305,0.84483538,0.03621356,-0.08161132,-0.00002183,0.0206
 4736,-0.00836740,-0.00012005,0.02061658,-0.00835809,0.00014581,-0.0247
 1641,0.01026407,0.00001813,-0.00258224,-0.00462963,-0.00000330,-0.2198
 4880,0.44872891,-0.00003073,-0.00000490,-0.07104221,0.02759368,-0.0080
 4806,-0.00090574,-0.02762358,0.00807698,-0.00093947,0.00002052,-0.0000
 0983,0.00059281,0.00000353,0.00000660,0.00045365,0.00015882,0.00009604
 ,0.12710872,-0.00992363,-0.00234958,-0.00000702,0.00052471,0.00001842,
 0.00058565,0.00051627,0.00001689,-0.00058383,-0.00022235,0.00189515,0.
 00000531,0.00032847,0.00007322,-0.00000603,-0.28148057,-0.11080664,-0.
 00019503,0.33428111,0.01258676,0.00841950,0.00002188,0.00022617,0.0015
 9779,0.00001250,0.00023861,0.00159092,-0.00001567,0.00078702,-0.002220
 39,-0.00000364,0.00018013,0.00069586,0.00000107,-0.09633820,-0.0648742
 7,-0.00008466,0.17983858,0.36724079,-0.00000122,-0.00001228,0.00526671
 ,-0.00107097,0.00033859,0.00058761,0.00107803,-0.00033565,0.00059334,-
 0.00000599,0.00000618,0.00131611,-0.00000096,-0.00000251,-0.00003908,-
 0.00018154,-0.00007718,-0.01286889,0.00026477,0.00031414,0.00805313,-0
 .01279177,0.01418973,-0.00001887,-0.00248030,-0.00120551,-0.00087207,-
 0.00248941,-0.00119783,0.00087159,0.00238600,0.00183726,0.00000313,0.0
 0021147,-0.00050562,-0.00000067,-0.30265273,0.27171429,0.00007604,-0.0
 5551150,-0.09721307,-0.00008393,0.44484050,-0.00760707,-0.00011529,-0.
 00001750,-0.00044602,-0.00004535,0.00077757,-0.00045885,-0.00004374,-0
 .00077669,0.00160431,0.00198146,0.00000079,0.00029075,0.00036556,-0.00
 000262,0.27874868,-0.28519001,-0.00001691,-0.07733255,-0.30707690,-0.0
 0022701,-0.27914485,0.91532085,-0.00002111,0.00000231,0.01841945,-0.00
 282270,0.00091530,-0.00026651,0.00282570,-0.00092359,-0.00026583,-0.00
 000241,0.00000287,-0.00012130,-0.00000013,-0.00000115,0.00004089,0.000
 07217,-0.00002378,-0.05771609,-0.00007185,-0.00023694,-0.01074699,-0.0
 0002362,0.00041258,0.09480349,0.00268178,0.00196682,0.00000312,-0.0005
 4183,0.00019813,-0.00001723,-0.00053901,0.00019690,0.00001780,0.000103
 04,-0.00010063,0.00000051,-0.00008475,-0.00006456,-0.00000002,-0.00031
 942,0.00876231,-0.00000325,0.01148748,-0.00030599,0.00000184,-0.071512
 26,0.08434560,0.00004395,0.05872496,0.00107520,0.00259641,0.00000066,-
 0.00032967,-0.00002406,0.00006561,-0.00032987,-0.00002500,-0.00006497,
 0.00044707,-0.00035366,-0.00000017,0.00009230,0.00016736,0.00000047,-0
 .00612857,-0.00596226,-0.00001526,0.00864652,-0.00537329,-0.00000428,0
 .09152560,-0.32519657,-0.00014761,-0.09499857,0.33417107,0.00000263,0.
 00000791,-0.00061022,-0.00029153,-0.00011891,-0.00015723,0.00028760,0.
 00011909,-0.00015901,0.00000229,-0.00000231,-0.00062713,0.00000066,0.0
 0000141,0.00003910,-0.00001135,-0.00001384,0.01531721,0.00000802,-0.00
 000868,0.00783806,0.00004841,-0.00015022,-0.04414712,-0.00004671,0.000
 16554,0.02250634\\0.00002164,-0.00003549,0.00006336,0.00000716,-0.0000
 0758,-0.00000901,-0.00000530,0.00003325,-0.00004801,-0.00001877,0.0000
 0104,-0.00000148,0.00001169,0.00000097,-0.00000251,-0.00005083,0.00003
 270,-0.00000174,0.00000311,-0.00002722,-0.00000146,0.00004364,-0.00002
 861,-0.00000159,-0.00001234,0.00003094,0.00000243\\\@


 THERE IS AN OLD, OLD RECIPE IN MAINE FOR STEWING COOT. PLACE THE
 BIRD IN A KETTLE OF WATER WITH A RED BUILDING BRICK FREE OF MORTAR AND
 BLEMISHES. PARBOIL THE COOT AND BRICK TOGETHER FOR THREE HOURS.
 POUR OFF THE WATER, REFILL THE KETTLE, AND AGAIN PARBOIL FOR THREE HOURS.
 ONCE AGAIN POUR OFF THE WATER, FOR THE LAST TIME ADD FRESH WATER,
 AND LET THE COOT AND BRICK SIMMER TOGETHER OVERNIGHT. IN THE MORNING,
 THROW AWAY THE COOT AND EAT THE BRICK.
 Job cpu time:       0 days  1 hours  2 minutes 58.1 seconds.
 File lengths (MBytes):  RWF=     80 Int=      0 D2E=      0 Chk=      5 Scr=      1
 Normal termination of Gaussian 09 at Mon Jun 20 03:42:23 2016.
