 Entering Gaussian System, Link 0=/home/proyectos/fulerenos/M3C-v1.9/M3C-deps_CCC/g09-AM64L-G09RevC.01/g09
 Initial command:
 /home/proyectos/fulerenos/M3C-v1.9/M3C-deps_CCC/g09-AM64L-G09RevC.01/l1.exe "/scratch/naguirre/gaussian/Gau-4168.inp" -scrdir="/scratch/naguirre/gaussian/"
 Entering Link 1 = /home/proyectos/fulerenos/M3C-v1.9/M3C-deps_CCC/g09-AM64L-G09RevC.01/l1.exe PID=      4174.
  
 Copyright (c) 1988,1990,1992,1993,1995,1998,2003,2009,2015,
            Gaussian, Inc.  All Rights Reserved.
  
 This is part of the Gaussian(R) 09 program.  It is based on
 the Gaussian(R) 03 system (copyright 2003, Gaussian, Inc.),
 the Gaussian(R) 98 system (copyright 1998, Gaussian, Inc.),
 the Gaussian(R) 94 system (copyright 1995, Gaussian, Inc.),
 the Gaussian 92(TM) system (copyright 1992, Gaussian, Inc.),
 the Gaussian 90(TM) system (copyright 1990, Gaussian, Inc.),
 the Gaussian 88(TM) system (copyright 1988, Gaussian, Inc.),
 the Gaussian 86(TM) system (copyright 1986, Carnegie Mellon
 University), and the Gaussian 82(TM) system (copyright 1983,
 Carnegie Mellon University). Gaussian is a federally registered
 trademark of Gaussian, Inc.
  
 This software contains proprietary and confidential information,
 including trade secrets, belonging to Gaussian, Inc.
  
 This software is provided under written license and may be
 used, copied, transmitted, or stored only in accord with that
 written license.
  
 The following legend is applicable only to US Government
 contracts under FAR:
  
                    RESTRICTED RIGHTS LEGEND
  
 Use, reproduction and disclosure by the US Government is
 subject to restrictions as set forth in subparagraphs (a)
 and (c) of the Commercial Computer Software - Restricted
 Rights clause in FAR 52.227-19.
  
 Gaussian, Inc.
 340 Quinnipiac St., Bldg. 40, Wallingford CT 06492
  
  
 ---------------------------------------------------------------
 Warning -- This program may not be used in any manner that
 competes with the business of Gaussian, Inc. or will provide
 assistance to any competitor of Gaussian, Inc.  The licensee
 of this program is prohibited from giving any competitor of
 Gaussian, Inc. access to this program.  By using this program,
 the user acknowledges that Gaussian, Inc. is engaged in the
 business of creating and licensing software in the field of
 computational chemistry and represents and warrants to the
 licensee that it is not a competitor of Gaussian, Inc. and that
 it will not use this program in any manner prohibited above.
 ---------------------------------------------------------------
  

 Cite this work as:
 Gaussian 09, Revision E.01,
 M. J. Frisch, G. W. Trucks, H. B. Schlegel, G. E. Scuseria, 
 M. A. Robb, J. R. Cheeseman, G. Scalmani, V. Barone, B. Mennucci, 
 G. A. Petersson, H. Nakatsuji, M. Caricato, X. Li, H. P. Hratchian, 
 A. F. Izmaylov, J. Bloino, G. Zheng, J. L. Sonnenberg, M. Hada, 
 M. Ehara, K. Toyota, R. Fukuda, J. Hasegawa, M. Ishida, T. Nakajima, 
 Y. Honda, O. Kitao, H. Nakai, T. Vreven, J. A. Montgomery, Jr., 
 J. E. Peralta, F. Ogliaro, M. Bearpark, J. J. Heyd, E. Brothers, 
 K. N. Kudin, V. N. Staroverov, T. Keith, R. Kobayashi, J. Normand, 
 K. Raghavachari, A. Rendell, J. C. Burant, S. S. Iyengar, J. Tomasi, 
 M. Cossi, N. Rega, J. M. Millam, M. Klene, J. E. Knox, J. B. Cross, 
 V. Bakken, C. Adamo, J. Jaramillo, R. Gomperts, R. E. Stratmann, 
 O. Yazyev, A. J. Austin, R. Cammi, C. Pomelli, J. W. Ochterski, 
 R. L. Martin, K. Morokuma, V. G. Zakrzewski, G. A. Voth, 
 P. Salvador, J. J. Dannenberg, S. Dapprich, A. D. Daniels, 
 O. Farkas, J. B. Foresman, J. V. Ortiz, J. Cioslowski, 
 and D. J. Fox, Gaussian, Inc., Wallingford CT, 2013.
 
 ******************************************
 Gaussian 09:  EM64L-G09RevE.01 30-Nov-2015
                22-Jun-2016 
 ******************************************
 %NProcShared=4
 Will use up to    4 processors via shared memory.
 ---------------------------------------------
 #p b3lyp/6-311++G(3df,2p) freq symmetry=Loose
 ---------------------------------------------
 1/10=4,30=1,38=1/1,3;
 2/12=2,17=4,18=3,40=1/2;
 3/5=4,6=6,7=1216,11=2,16=1,25=1,30=1,71=2,74=-5,140=1/1,2,3;
 4//1;
 5/5=2,38=5,98=1/2;
 8/6=4,10=90,11=11/1;
 11/6=1,8=1,9=11,15=111,16=1/1,2,10;
 10/6=1/2;
 6/7=2,8=2,9=2,10=2,18=1,28=1/1;
 7/8=1,10=1,25=1/1,2,3,16;
 1/10=4,30=1/3;
 99//99;
 Leave Link    1 at Wed Jun 22 00:58:32 2016, MaxMem=           0 cpu:         0.2
 (Enter /home/proyectos/fulerenos/M3C-v1.9/M3C-deps_CCC/g09-AM64L-G09RevC.01/l101.exe)
 ---------
 b3lyp opt
 ---------
 Symbolic Z-matrix:
 Charge =  0 Multiplicity = 1
 C                    -1.05781   0.00007  -0.12936 
 C                     1.40686   0.64219   0.23349 
 C                     0.31102  -0.0003   -0.58874 
 H                     0.40697  -0.00125  -1.67216 
 C                     1.40666  -0.64134   0.23483 
 H                     1.80152  -1.58201   0.57195 
 H                     1.8019    1.58348   0.56869 
 C                    -2.20029  -0.00006   0.24256 
 H                    -3.20851   0.00002   0.57464 
 
 NAtoms=      9 NQM=        9 NQMF=       0 NMMI=      0 NMMIF=      0
                NMic=       0 NMicF=      0.
                    Isotopes and Nuclear Properties:
 (Nuclear quadrupole moments (NQMom) in fm**2, nuclear magnetic moments (NMagM)
  in nuclear magnetons)

  Atom         1           2           3           4           5           6           7           8           9
 IAtWgt=          12          12          12           1          12           1           1          12           1
 AtmWgt=  12.0000000  12.0000000  12.0000000   1.0078250  12.0000000   1.0078250   1.0078250  12.0000000   1.0078250
 NucSpn=           0           0           0           1           0           1           1           0           1
 AtZEff=   0.0000000   0.0000000   0.0000000   0.0000000   0.0000000   0.0000000   0.0000000   0.0000000   0.0000000
 NQMom=    0.0000000   0.0000000   0.0000000   0.0000000   0.0000000   0.0000000   0.0000000   0.0000000   0.0000000
 NMagM=    0.0000000   0.0000000   0.0000000   2.7928460   0.0000000   2.7928460   2.7928460   0.0000000   2.7928460
 AtZNuc=   6.0000000   6.0000000   6.0000000   1.0000000   6.0000000   1.0000000   1.0000000   6.0000000   1.0000000
 Leave Link  101 at Wed Jun 22 00:58:32 2016, MaxMem=    33554432 cpu:         0.4
 (Enter /home/proyectos/fulerenos/M3C-v1.9/M3C-deps_CCC/g09-AM64L-G09RevC.01/l103.exe)

 GradGradGradGradGradGradGradGradGradGradGradGradGradGradGradGradGradGrad
 Berny optimization.
 Initialization pass.
 Trust Radius=3.00D-01 FncErr=1.00D-07 GrdErr=1.00D-07
 Number of steps in this run=      2 maximum allowed number of steps=      2.
 GradGradGradGradGradGradGradGradGradGradGradGradGradGradGradGradGradGrad

 Leave Link  103 at Wed Jun 22 00:58:32 2016, MaxMem=    33554432 cpu:         0.1
 (Enter /home/proyectos/fulerenos/M3C-v1.9/M3C-deps_CCC/g09-AM64L-G09RevC.01/l202.exe)
                          Input orientation:                          
 ---------------------------------------------------------------------
 Center     Atomic      Atomic             Coordinates (Angstroms)
 Number     Number       Type             X           Y           Z
 ---------------------------------------------------------------------
      1          6           0       -1.057809    0.000074   -0.129362
      2          6           0        1.406856    0.642185    0.233492
      3          6           0        0.311016   -0.000302   -0.588738
      4          1           0        0.406967   -0.001252   -1.672162
      5          6           0        1.406664   -0.641342    0.234826
      6          1           0        1.801518   -1.582006    0.571951
      7          1           0        1.801904    1.583480    0.568691
      8          6           0       -2.200288   -0.000056    0.242564
      9          1           0       -3.208512    0.000016    0.574636
 ---------------------------------------------------------------------
                    Distance matrix (angstroms):
                    1          2          3          4          5
     1  C    0.000000
     2  C    2.572653   0.000000
     3  C    1.443852   1.513181   0.000000
     4  H    2.127393   2.246176   1.087665   0.000000
     5  C    2.572484   1.283528   1.513154   2.246266   0.000000
     6  H    3.342240   2.284149   2.463855   3.078896   1.074436
     7  H    3.342516   1.074457   2.463890   3.078741   2.284188
     8  C    1.201494   3.663884   2.645319   3.234804   3.663524
     9  H    2.262993   4.672299   3.706820   4.256735   4.671901
                    6          7          8          9
     6  H    0.000000
     7  H    3.165488   0.000000
     8  C    4.315729   4.316420   0.000000
     9  H    5.253875   5.254680   1.061502   0.000000
 Stoichiometry    C5H4
 Framework group  C1[X(C5H4)]
 Deg. of freedom    21
 Full point group                 C1      NOp   1
 Largest Abelian subgroup         C1      NOp   1
 Largest concise Abelian subgroup C1      NOp   1
                         Standard orientation:                         
 ---------------------------------------------------------------------
 Center     Atomic      Atomic             Coordinates (Angstroms)
 Number     Number       Type             X           Y           Z
 ---------------------------------------------------------------------
      1          6           0       -1.057831   -0.000357    0.129298
      2          6           0        1.406952   -0.641453   -0.234547
      3          6           0        0.310968   -0.000579    0.588749
      4          1           0        0.406860   -0.001517    1.672179
      5          6           0        1.406564    0.642074   -0.233627
      6          1           0        1.801292    1.583389   -0.569077
      7          1           0        1.802163   -1.582098   -0.571377
      8          6           0       -2.200290    0.000251   -0.242691
      9          1           0       -3.208495    0.000608   -0.574818
 ---------------------------------------------------------------------
 Rotational constants (GHZ):     20.1179516      3.4276301      3.3207123
 Leave Link  202 at Wed Jun 22 00:58:32 2016, MaxMem=    33554432 cpu:         0.0
 (Enter /home/proyectos/fulerenos/M3C-v1.9/M3C-deps_CCC/g09-AM64L-G09RevC.01/l301.exe)
 Standard basis: 6-311++G(3df,2p) (5D, 7F)
 Ernie: Thresh=  0.10000D-02 Tol=  0.10000D-05 Strict=F.
 There are   265 symmetry adapted cartesian basis functions of A   symmetry.
 There are   235 symmetry adapted basis functions of A   symmetry.
   235 basis functions,   338 primitive gaussians,   265 cartesian basis functions
    17 alpha electrons       17 beta electrons
       nuclear repulsion energy       131.7881956697 Hartrees.
 IExCor=  402 DFT=T Ex+Corr=B3LYP ExCW=0 ScaHFX=  0.200000
 ScaDFX=  0.800000  0.720000  1.000000  0.810000 ScalE2=  1.000000  1.000000
 IRadAn=      0 IRanWt=     -1 IRanGd=            0 ICorTp=0 IEmpDi=  4
 NAtoms=    9 NActive=    9 NUniq=    9 SFac= 1.00D+00 NAtFMM=   60 NAOKFM=F Big=F
 Integral buffers will be    131072 words long.
 Raffenetti 2 integral format.
 Two-electron integral symmetry is turned on.
 Leave Link  301 at Wed Jun 22 00:58:32 2016, MaxMem=    33554432 cpu:         0.3
 (Enter /home/proyectos/fulerenos/M3C-v1.9/M3C-deps_CCC/g09-AM64L-G09RevC.01/l302.exe)
 NPDir=0 NMtPBC=     1 NCelOv=     1 NCel=       1 NClECP=     1 NCelD=      1
         NCelK=      1 NCelE2=     1 NClLst=     1 CellRange=     0.0.
 One-electron integrals computed using PRISM.
 NBasis=   235 RedAO= T EigKep=  1.10D-06  NBF=   235
 NBsUse=   235 1.00D-06 EigRej= -1.00D+00 NBFU=   235
 Precomputing XC quadrature grid using
 IXCGrd= 4 IRadAn=           0 IRanWt=          -1 IRanGd=           0 AccXCQ= 0.00D+00.
 Generated NRdTot=       0 NPtTot=           0 NUsed=           0 NTot=          32
 NSgBfM=   265   265   265   265   265 MxSgAt=     9 MxSgA2=     9.
 Leave Link  302 at Wed Jun 22 00:58:33 2016, MaxMem=    33554432 cpu:         1.8
 (Enter /home/proyectos/fulerenos/M3C-v1.9/M3C-deps_CCC/g09-AM64L-G09RevC.01/l303.exe)
 DipDrv:  MaxL=1.
 Leave Link  303 at Wed Jun 22 00:58:33 2016, MaxMem=    33554432 cpu:         0.1
 (Enter /home/proyectos/fulerenos/M3C-v1.9/M3C-deps_CCC/g09-AM64L-G09RevC.01/l401.exe)
 ExpMin= 3.60D-02 ExpMax= 4.56D+03 ExpMxC= 6.82D+02 IAcc=3 IRadAn=         5 AccDes= 0.00D+00
 Harris functional with IExCor=  402 and IRadAn=       5 diagonalized for initial guess.
 HarFok:  IExCor=  402 AccDes= 0.00D+00 IRadAn=         5 IDoV= 1 UseB2=F ITyADJ=14
 ICtDFT=  3500011 ScaDFX=  1.000000  1.000000  1.000000  1.000000
 FoFCou: FMM=F IPFlag=           0 FMFlag=      100000 FMFlg1=           0
         NFxFlg=           0 DoJE=T BraDBF=F KetDBF=T FulRan=T
         wScrn=  0.000000 ICntrl=     500 IOpCl=  0 I1Cent=   200000004 NGrid=           0
         NMat0=    1 NMatS0=      1 NMatT0=    0 NMatD0=    1 NMtDS0=    0 NMtDT0=    0
 Petite list used in FoFCou.
 Harris En= -192.902137267497    
 JPrj=0 DoOrth=F DoCkMO=F.
 Leave Link  401 at Wed Jun 22 00:58:36 2016, MaxMem=    33554432 cpu:        15.1
 (Enter /home/proyectos/fulerenos/M3C-v1.9/M3C-deps_CCC/g09-AM64L-G09RevC.01/l502.exe)
 Closed shell SCF:
 Using DIIS extrapolation, IDIIS=  1040.
 Integral symmetry usage will be decided dynamically.
 IVT=      232727 IEndB=      232727 NGot=    33554432 MDV=    33408836
 LenX=    33408836 LenY=    33338170
 Requested convergence on RMS density matrix=1.00D-08 within 128 cycles.
 Requested convergence on MAX density matrix=1.00D-06.
 Requested convergence on             energy=1.00D-06.
 No special actions if energy rises.
 Fock matrices will be formed incrementally for  20 cycles.

 Cycle   1  Pass 1  IDiag  1:
 FoFJK:  IHMeth= 1 ICntrl=       0 DoSepK=F KAlg= 0 I1Cent=   0 FoldK=F
 IRaf= 980000000 NMat=   1 IRICut=       1 DoRegI=T DoRafI=F ISym2E= 0.
 FoFCou: FMM=F IPFlag=           0 FMFlag=      100000 FMFlg1=           0
         NFxFlg=           0 DoJE=F BraDBF=F KetDBF=F FulRan=T
         wScrn=  0.000000 ICntrl=       0 IOpCl=  0 I1Cent=           0 NGrid=           0
         NMat0=    1 NMatS0=      1 NMatT0=    0 NMatD0=    1 NMtDS0=    0 NMtDT0=    0
 Symmetry not used in FoFCou.
 E= -192.673174454009    
 DIIS: error= 2.46D-02 at cycle   1 NSaved=   1.
 NSaved= 1 IEnMin= 1 EnMin= -192.673174454009     IErMin= 1 ErrMin= 2.46D-02
 ErrMax= 2.46D-02  0.00D+00 EMaxC= 1.00D-01 BMatC= 1.63D-01 BMatP= 1.63D-01
 IDIUse=3 WtCom= 7.54D-01 WtEn= 2.46D-01
 Coeff-Com:  0.100D+01
 Coeff-En:   0.100D+01
 Coeff:      0.100D+01
 Gap=     0.210 Goal=   None    Shift=    0.000
 GapD=    0.210 DampG=1.000 DampE=0.500 DampFc=0.5000 IDamp=-1.
 Damping current iteration by 5.00D-01
 RMSDP=1.19D-02 MaxDP=7.78D-01              OVMax= 2.17D-01

 Cycle   2  Pass 1  IDiag  1:
 RMSU=  4.33D-03    CP:  8.27D-01
 E= -192.746688568974     Delta-E=       -0.073514114965 Rises=F Damp=T
 DIIS: error= 3.86D-03 at cycle   2 NSaved=   2.
 NSaved= 2 IEnMin= 2 EnMin= -192.746688568974     IErMin= 2 ErrMin= 3.86D-03
 ErrMax= 3.86D-03  0.00D+00 EMaxC= 1.00D-01 BMatC= 5.69D-03 BMatP= 1.63D-01
 IDIUse=3 WtCom= 9.61D-01 WtEn= 3.86D-02
 Coeff-Com: -0.162D-01 0.102D+01
 Coeff-En:   0.488D-01 0.951D+00
 Coeff:     -0.137D-01 0.101D+01
 Gap=     0.263 Goal=   None    Shift=    0.000
 RMSDP=3.86D-03 MaxDP=3.79D-01 DE=-7.35D-02 OVMax= 1.30D-01

 Cycle   3  Pass 1  IDiag  1:
 RMSU=  2.80D-03    CP:  7.17D-01  8.86D-01
 E= -192.829828982841     Delta-E=       -0.083140413868 Rises=F Damp=F
 DIIS: error= 4.78D-03 at cycle   3 NSaved=   3.
 NSaved= 3 IEnMin= 3 EnMin= -192.829828982841     IErMin= 2 ErrMin= 3.86D-03
 ErrMax= 4.78D-03  0.00D+00 EMaxC= 1.00D-01 BMatC= 3.34D-03 BMatP= 5.69D-03
 IDIUse=3 WtCom= 9.52D-01 WtEn= 4.78D-02
 Coeff-Com: -0.537D-01 0.417D+00 0.636D+00
 Coeff-En:   0.000D+00 0.000D+00 0.100D+01
 Coeff:     -0.511D-01 0.398D+00 0.654D+00
 Gap=     0.236 Goal=   None    Shift=    0.000
 RMSDP=1.01D-03 MaxDP=5.90D-02 DE=-8.31D-02 OVMax= 3.68D-02

 Cycle   4  Pass 1  IDiag  1:
 RMSU=  6.91D-04    CP:  6.91D-01  9.79D-01  9.96D-01
 E= -192.830393551267     Delta-E=       -0.000564568426 Rises=F Damp=F
 DIIS: error= 4.95D-03 at cycle   4 NSaved=   4.
 NSaved= 4 IEnMin= 4 EnMin= -192.830393551267     IErMin= 2 ErrMin= 3.86D-03
 ErrMax= 4.95D-03  0.00D+00 EMaxC= 1.00D-01 BMatC= 3.06D-03 BMatP= 3.34D-03
 IDIUse=3 WtCom= 9.51D-01 WtEn= 4.95D-02
 Coeff-Com: -0.435D-01 0.159D+00 0.494D+00 0.390D+00
 Coeff-En:   0.000D+00 0.000D+00 0.463D+00 0.537D+00
 Coeff:     -0.414D-01 0.152D+00 0.492D+00 0.397D+00
 Gap=     0.233 Goal=   None    Shift=    0.000
 RMSDP=2.78D-04 MaxDP=1.12D-02 DE=-5.65D-04 OVMax= 2.31D-02

 Cycle   5  Pass 1  IDiag  1:
 RMSU=  1.74D-04    CP:  6.88D-01  9.78D-01  9.98D-01  6.98D-01
 E= -192.833342608501     Delta-E=       -0.002949057234 Rises=F Damp=F
 DIIS: error= 5.72D-04 at cycle   5 NSaved=   5.
 NSaved= 5 IEnMin= 5 EnMin= -192.833342608501     IErMin= 5 ErrMin= 5.72D-04
 ErrMax= 5.72D-04  0.00D+00 EMaxC= 1.00D-01 BMatC= 4.47D-05 BMatP= 3.06D-03
 IDIUse=3 WtCom= 9.94D-01 WtEn= 5.72D-03
 Coeff-Com: -0.141D-01 0.324D-01 0.150D+00 0.174D+00 0.658D+00
 Coeff-En:   0.000D+00 0.000D+00 0.000D+00 0.000D+00 0.100D+01
 Coeff:     -0.140D-01 0.322D-01 0.149D+00 0.173D+00 0.660D+00
 Gap=     0.234 Goal=   None    Shift=    0.000
 RMSDP=7.70D-05 MaxDP=4.84D-03 DE=-2.95D-03 OVMax= 2.74D-03

 Cycle   6  Pass 1  IDiag  1:
 RMSU=  4.80D-05    CP:  6.87D-01  9.84D-01  1.01D+00  6.88D-01  8.36D-01
 E= -192.833385025095     Delta-E=       -0.000042416593 Rises=F Damp=F
 DIIS: error= 1.13D-04 at cycle   6 NSaved=   6.
 NSaved= 6 IEnMin= 6 EnMin= -192.833385025095     IErMin= 6 ErrMin= 1.13D-04
 ErrMax= 1.13D-04  0.00D+00 EMaxC= 1.00D-01 BMatC= 2.43D-06 BMatP= 4.47D-05
 IDIUse=3 WtCom= 9.99D-01 WtEn= 1.13D-03
 Coeff-Com: -0.416D-02 0.707D-02 0.406D-01 0.552D-01 0.292D+00 0.609D+00
 Coeff-En:   0.000D+00 0.000D+00 0.000D+00 0.000D+00 0.000D+00 0.100D+01
 Coeff:     -0.415D-02 0.707D-02 0.406D-01 0.551D-01 0.292D+00 0.609D+00
 Gap=     0.234 Goal=   None    Shift=    0.000
 RMSDP=1.55D-05 MaxDP=5.61D-04 DE=-4.24D-05 OVMax= 5.62D-04

 Cycle   7  Pass 1  IDiag  1:
 RMSU=  1.34D-05    CP:  6.87D-01  9.86D-01  1.01D+00  6.94D-01  8.42D-01
                    CP:  1.02D+00
 E= -192.833387165237     Delta-E=       -0.000002140142 Rises=F Damp=F
 DIIS: error= 3.22D-05 at cycle   7 NSaved=   7.
 NSaved= 7 IEnMin= 7 EnMin= -192.833387165237     IErMin= 7 ErrMin= 3.22D-05
 ErrMax= 3.22D-05  0.00D+00 EMaxC= 1.00D-01 BMatC= 2.05D-07 BMatP= 2.43D-06
 IDIUse=1 WtCom= 1.00D+00 WtEn= 0.00D+00
 Coeff-Com: -0.916D-03 0.910D-03 0.753D-02 0.127D-01 0.875D-01 0.289D+00
 Coeff-Com:  0.603D+00
 Coeff:     -0.916D-03 0.910D-03 0.753D-02 0.127D-01 0.875D-01 0.289D+00
 Coeff:      0.603D+00
 Gap=     0.234 Goal=   None    Shift=    0.000
 RMSDP=9.73D-06 MaxDP=9.63D-04 DE=-2.14D-06 OVMax= 1.43D-04

 Cycle   8  Pass 1  IDiag  1:
 RMSU=  5.95D-06    CP:  6.87D-01  9.87D-01  1.01D+00  6.92D-01  8.35D-01
                    CP:  1.05D+00  8.82D-01
 E= -192.833387356065     Delta-E=       -0.000000190828 Rises=F Damp=F
 DIIS: error= 5.78D-06 at cycle   8 NSaved=   8.
 NSaved= 8 IEnMin= 8 EnMin= -192.833387356065     IErMin= 8 ErrMin= 5.78D-06
 ErrMax= 5.78D-06  0.00D+00 EMaxC= 1.00D-01 BMatC= 5.40D-09 BMatP= 2.05D-07
 IDIUse=1 WtCom= 1.00D+00 WtEn= 0.00D+00
 Coeff-Com: -0.165D-05-0.164D-03-0.623D-03 0.169D-03 0.528D-02 0.429D-01
 Coeff-Com:  0.176D+00 0.776D+00
 Coeff:     -0.165D-05-0.164D-03-0.623D-03 0.169D-03 0.528D-02 0.429D-01
 Coeff:      0.176D+00 0.776D+00
 Gap=     0.234 Goal=   None    Shift=    0.000
 RMSDP=1.81D-06 MaxDP=1.13D-04 DE=-1.91D-07 OVMax= 2.53D-05

 Cycle   9  Pass 1  IDiag  1:
 RMSU=  6.68D-07    CP:  6.87D-01  9.87D-01  1.01D+00  6.93D-01  8.35D-01
                    CP:  1.06D+00  9.34D-01  9.83D-01
 E= -192.833387361546     Delta-E=       -0.000000005481 Rises=F Damp=F
 DIIS: error= 1.82D-06 at cycle   9 NSaved=   9.
 NSaved= 9 IEnMin= 9 EnMin= -192.833387361546     IErMin= 9 ErrMin= 1.82D-06
 ErrMax= 1.82D-06  0.00D+00 EMaxC= 1.00D-01 BMatC= 3.94D-10 BMatP= 5.40D-09
 IDIUse=1 WtCom= 1.00D+00 WtEn= 0.00D+00
 Coeff-Com:  0.124D-04-0.430D-04-0.378D-03-0.177D-03-0.493D-03 0.638D-02
 Coeff-Com:  0.368D-01 0.269D+00 0.688D+00
 Coeff:      0.124D-04-0.430D-04-0.378D-03-0.177D-03-0.493D-03 0.638D-02
 Coeff:      0.368D-01 0.269D+00 0.688D+00
 Gap=     0.234 Goal=   None    Shift=    0.000
 RMSDP=4.69D-07 MaxDP=4.36D-05 DE=-5.48D-09 OVMax= 8.29D-06

 Cycle  10  Pass 1  IDiag  1:
 RMSU=  1.55D-07    CP:  6.87D-01  9.87D-01  1.01D+00  6.92D-01  8.35D-01
                    CP:  1.06D+00  9.32D-01  1.02D+00  8.37D-01
 E= -192.833387361895     Delta-E=       -0.000000000349 Rises=F Damp=F
 DIIS: error= 6.14D-07 at cycle  10 NSaved=  10.
 NSaved=10 IEnMin=10 EnMin= -192.833387361895     IErMin=10 ErrMin= 6.14D-07
 ErrMax= 6.14D-07  0.00D+00 EMaxC= 1.00D-01 BMatC= 8.04D-11 BMatP= 3.94D-10
 IDIUse=1 WtCom= 1.00D+00 WtEn= 0.00D+00
 Coeff-Com:  0.627D-05-0.116D-04-0.167D-03-0.117D-03-0.728D-03-0.636D-04
 Coeff-Com:  0.502D-02 0.838D-01 0.372D+00 0.540D+00
 Coeff:      0.627D-05-0.116D-04-0.167D-03-0.117D-03-0.728D-03-0.636D-04
 Coeff:      0.502D-02 0.838D-01 0.372D+00 0.540D+00
 Gap=     0.234 Goal=   None    Shift=    0.000
 RMSDP=1.12D-07 MaxDP=7.14D-06 DE=-3.49D-10 OVMax= 3.39D-06

 Cycle  11  Pass 1  IDiag  1:
 RMSU=  5.00D-08    CP:  6.87D-01  9.87D-01  1.01D+00  6.93D-01  8.35D-01
                    CP:  1.06D+00  9.32D-01  1.02D+00  8.58D-01  7.28D-01
 E= -192.833387361973     Delta-E=       -0.000000000078 Rises=F Damp=F
 DIIS: error= 2.44D-07 at cycle  11 NSaved=  11.
 NSaved=11 IEnMin=11 EnMin= -192.833387361973     IErMin=11 ErrMin= 2.44D-07
 ErrMax= 2.44D-07  0.00D+00 EMaxC= 1.00D-01 BMatC= 4.69D-12 BMatP= 8.04D-11
 IDIUse=1 WtCom= 1.00D+00 WtEn= 0.00D+00
 Coeff-Com:  0.230D-05-0.364D-05-0.675D-04-0.527D-04-0.339D-03-0.379D-03
 Coeff-Com:  0.367D-03 0.272D-01 0.151D+00 0.273D+00 0.550D+00
 Coeff:      0.230D-05-0.364D-05-0.675D-04-0.527D-04-0.339D-03-0.379D-03
 Coeff:      0.367D-03 0.272D-01 0.151D+00 0.273D+00 0.550D+00
 Gap=     0.234 Goal=   None    Shift=    0.000
 RMSDP=2.70D-08 MaxDP=1.15D-06 DE=-7.82D-11 OVMax= 1.56D-06

 Cycle  12  Pass 1  IDiag  1:
 RMSU=  1.61D-08    CP:  6.87D-01  9.87D-01  1.01D+00  6.93D-01  8.35D-01
                    CP:  1.06D+00  9.33D-01  1.02D+00  8.65D-01  7.57D-01
                    CP:  8.63D-01
 E= -192.833387361972     Delta-E=        0.000000000000 Rises=F Damp=F
 DIIS: error= 1.26D-07 at cycle  12 NSaved=  12.
 NSaved=12 IEnMin=11 EnMin= -192.833387361973     IErMin=12 ErrMin= 1.26D-07
 ErrMax= 1.26D-07  0.00D+00 EMaxC= 1.00D-01 BMatC= 1.36D-12 BMatP= 4.69D-12
 IDIUse=1 WtCom= 1.00D+00 WtEn= 0.00D+00
 Coeff-Com:  0.318D-07 0.194D-06-0.931D-05-0.100D-04-0.585D-04-0.207D-03
 Coeff-Com: -0.818D-03-0.908D-05 0.197D-01 0.628D-01 0.368D+00 0.550D+00
 Coeff:      0.318D-07 0.194D-06-0.931D-05-0.100D-04-0.585D-04-0.207D-03
 Coeff:     -0.818D-03-0.908D-05 0.197D-01 0.628D-01 0.368D+00 0.550D+00
 Gap=     0.234 Goal=   None    Shift=    0.000
 RMSDP=1.78D-08 MaxDP=1.58D-06 DE= 3.98D-13 OVMax= 5.58D-07

 Cycle  13  Pass 1  IDiag  1:
 RMSU=  4.66D-09    CP:  6.87D-01  9.87D-01  1.01D+00  6.93D-01  8.35D-01
                    CP:  1.06D+00  9.33D-01  1.02D+00  8.68D-01  7.72D-01
                    CP:  8.93D-01  6.44D-01
 E= -192.833387361980     Delta-E=       -0.000000000007 Rises=F Damp=F
 DIIS: error= 5.09D-09 at cycle  13 NSaved=  13.
 NSaved=13 IEnMin=13 EnMin= -192.833387361980     IErMin=13 ErrMin= 5.09D-09
 ErrMax= 5.09D-09  0.00D+00 EMaxC= 1.00D-01 BMatC= 5.76D-15 BMatP= 1.36D-12
 IDIUse=1 WtCom= 1.00D+00 WtEn= 0.00D+00
 Coeff-Com: -0.536D-07 0.120D-06 0.520D-06-0.553D-06-0.112D-06-0.344D-04
 Coeff-Com: -0.199D-03-0.112D-02-0.189D-02 0.266D-03 0.510D-01 0.114D+00
 Coeff-Com:  0.838D+00
 Coeff:     -0.536D-07 0.120D-06 0.520D-06-0.553D-06-0.112D-06-0.344D-04
 Coeff:     -0.199D-03-0.112D-02-0.189D-02 0.266D-03 0.510D-01 0.114D+00
 Coeff:      0.838D+00
 Gap=     0.234 Goal=   None    Shift=    0.000
 RMSDP=2.42D-09 MaxDP=1.93D-07 DE=-7.22D-12 OVMax= 2.84D-08

 SCF Done:  E(RB3LYP) =  -192.833387362     A.U. after   13 cycles
            NFock= 13  Conv=0.24D-08     -V/T= 2.0049
 KE= 1.918983769262D+02 PE=-7.106441168681D+02 EE= 1.941241569103D+02
 Leave Link  502 at Wed Jun 22 01:01:03 2016, MaxMem=    33554432 cpu:       574.3
 (Enter /home/proyectos/fulerenos/M3C-v1.9/M3C-deps_CCC/g09-AM64L-G09RevC.01/l801.exe)
 DoSCS=F DFT=T ScalE2(SS,OS)=  1.000000  1.000000
 Range of M.O.s used for correlation:     1   235
 NBasis=   235 NAE=    17 NBE=    17 NFC=     0 NFV=     0
 NROrb=    235 NOA=    17 NOB=    17 NVA=   218 NVB=   218

 **** Warning!!: The largest alpha MO coefficient is  0.34335756D+03

 Leave Link  801 at Wed Jun 22 01:01:04 2016, MaxMem=    33554432 cpu:         0.1
 (Enter /home/proyectos/fulerenos/M3C-v1.9/M3C-deps_CCC/g09-AM64L-G09RevC.01/l1101.exe)
 Using compressed storage, NAtomX=     9.
 Will process     10 centers per pass.
 Leave Link 1101 at Wed Jun 22 01:01:04 2016, MaxMem=    33554432 cpu:         1.7
 (Enter /home/proyectos/fulerenos/M3C-v1.9/M3C-deps_CCC/g09-AM64L-G09RevC.01/l1102.exe)
 Symmetrizing basis deriv contribution to polar:
 IMax=3 JMax=2 DiffMx= 0.00D+00
 Leave Link 1102 at Wed Jun 22 01:01:04 2016, MaxMem=    33554432 cpu:         0.2
 (Enter /home/proyectos/fulerenos/M3C-v1.9/M3C-deps_CCC/g09-AM64L-G09RevC.01/l1110.exe)
 Forming Gx(P) for the SCF density, NAtomX=     9.
 Integral derivatives from FoFJK, PRISM(SPDF).
 Do as many integral derivatives as possible in FoFJK.
 G2DrvN: MDV=      33554256.
 G2DrvN: will do    10 centers at a time, making    1 passes.
 Calling FoFCou, ICntrl=  3107 FMM=F I1Cent=   0 AccDes= 0.00D+00.
 FoFJK:  IHMeth= 1 ICntrl=    3107 DoSepK=F KAlg= 0 I1Cent=   0 FoldK=F
 IRaf=         0 NMat=   1 IRICut=       1 DoRegI=T DoRafI=F ISym2E= 0.
 FoFCou: FMM=F IPFlag=           0 FMFlag=      100000 FMFlg1=           0
         NFxFlg=           0 DoJE=F BraDBF=F KetDBF=F FulRan=T
         wScrn=  0.000000 ICntrl=    3107 IOpCl=  0 I1Cent=           0 NGrid=           0
         NMat0=    1 NMatS0=      1 NMatT0=    0 NMatD0=    1 NMtDS0=    0 NMtDT0=    0
 Symmetry not used in FoFCou.
 End of G2Drv F.D. properties file   721 does not exist.
 End of G2Drv F.D. properties file   722 does not exist.
 End of G2Drv F.D. properties file   788 does not exist.
 Leave Link 1110 at Wed Jun 22 01:03:21 2016, MaxMem=    33554432 cpu:       538.2
 (Enter /home/proyectos/fulerenos/M3C-v1.9/M3C-deps_CCC/g09-AM64L-G09RevC.01/l1002.exe)
 Minotr:  Closed shell wavefunction.
          IDoAtm=111111111
          Direct CPHF calculation.
          Differentiating once with respect to electric field.
                with respect to dipole field.
          Differentiating once with respect to nuclear coordinates.
          Requested convergence is 1.0D-08 RMS, and 1.0D-07 maximum.
          Secondary convergence is 1.0D-12 RMS, and 1.0D-12 maximum.
          NewPWx=T KeepS1=F KeepF1=F KeepIn=T MapXYZ=F SortEE=F KeepMc=T.
          MDV=      33554103 using IRadAn=       2.
 Generate precomputed XC quadrature information.
          Solving linear equations simultaneously, MaxMat=       0.
 FoFJK:  IHMeth= 1 ICntrl=       0 DoSepK=F KAlg= 0 I1Cent=   0 FoldK=F
 IRaf= 980000000 NMat=  30 IRICut=      75 DoRegI=T DoRafI=T ISym2E= 2.
 FoFCou: FMM=F IPFlag=           0 FMFlag=      100000 FMFlg1=           0
         NFxFlg=           0 DoJE=F BraDBF=F KetDBF=F FulRan=T
         wScrn=  0.000000 ICntrl=       0 IOpCl=  0 I1Cent=           0 NGrid=           0
         NMat0=   30 NMatS0=     30 NMatT0=    0 NMatD0=   30 NMtDS0=    0 NMtDT0=    0
 Integrals replicated using symmetry in FoFCou.
          There are    30 degrees of freedom in the 1st order CPHF.  IDoFFX=6 NUNeed=     3.
     27 vectors produced by pass  0 Test12= 1.24D-14 3.33D-09 XBig12= 8.10D+01 4.22D+00.
 AX will form    27 AO Fock derivatives at one time.
     27 vectors produced by pass  1 Test12= 1.24D-14 3.33D-09 XBig12= 2.04D+01 9.23D-01.
     27 vectors produced by pass  2 Test12= 1.24D-14 3.33D-09 XBig12= 6.49D-01 1.80D-01.
     27 vectors produced by pass  3 Test12= 1.24D-14 3.33D-09 XBig12= 2.40D-03 8.32D-03.
     27 vectors produced by pass  4 Test12= 1.24D-14 3.33D-09 XBig12= 6.55D-06 3.32D-04.
     27 vectors produced by pass  5 Test12= 1.24D-14 3.33D-09 XBig12= 1.20D-08 1.60D-05.
      7 vectors produced by pass  6 Test12= 1.24D-14 3.33D-09 XBig12= 1.43D-11 5.92D-07.
      6 vectors produced by pass  7 Test12= 1.24D-14 3.33D-09 XBig12= 3.95D-13 1.46D-07.
      4 vectors produced by pass  8 Test12= 1.24D-14 3.33D-09 XBig12= 1.91D-14 4.31D-08.
      1 vectors produced by pass  9 Test12= 1.24D-14 3.33D-09 XBig12= 2.23D-16 3.56D-09.
 InvSVY:  IOpt=1 It=  1 EMax= 2.66D-15
 Solved reduced A of dimension   180 with    30 vectors.
 FullF1:  Do perturbations    1 to     3.
 Isotropic polarizability for W=    0.000000       56.64 Bohr**3.
 End of Minotr F.D. properties file   721 does not exist.
 End of Minotr F.D. properties file   722 does not exist.
 End of Minotr F.D. properties file   788 does not exist.
 Leave Link 1002 at Wed Jun 22 01:08:57 2016, MaxMem=    33554432 cpu:      1328.9
 (Enter /home/proyectos/fulerenos/M3C-v1.9/M3C-deps_CCC/g09-AM64L-G09RevC.01/l601.exe)
 Copying SCF densities to generalized density rwf, IOpCl= 0 IROHF=0.

 **********************************************************************

            Population analysis using the SCF density.

 **********************************************************************

 Orbital symmetries:
       Occupied  (A) (A) (A) (A) (A) (A) (A) (A) (A) (A) (A) (A)
                 (A) (A) (A) (A) (A)
       Virtual   (A) (A) (A) (A) (A) (A) (A) (A) (A) (A) (A) (A)
                 (A) (A) (A) (A) (A) (A) (A) (A) (A) (A) (A) (A)
                 (A) (A) (A) (A) (A) (A) (A) (A) (A) (A) (A) (A)
                 (A) (A) (A) (A) (A) (A) (A) (A) (A) (A) (A) (A)
                 (A) (A) (A) (A) (A) (A) (A) (A) (A) (A) (A) (A)
                 (A) (A) (A) (A) (A) (A) (A) (A) (A) (A) (A) (A)
                 (A) (A) (A) (A) (A) (A) (A) (A) (A) (A) (A) (A)
                 (A) (A) (A) (A) (A) (A) (A) (A) (A) (A) (A) (A)
                 (A) (A) (A) (A) (A) (A) (A) (A) (A) (A) (A) (A)
                 (A) (A) (A) (A) (A) (A) (A) (A) (A) (A) (A) (A)
                 (A) (A) (A) (A) (A) (A) (A) (A) (A) (A) (A) (A)
                 (A) (A) (A) (A) (A) (A) (A) (A) (A) (A) (A) (A)
                 (A) (A) (A) (A) (A) (A) (A) (A) (A) (A) (A) (A)
                 (A) (A) (A) (A) (A) (A) (A) (A) (A) (A) (A) (A)
                 (A) (A) (A) (A) (A) (A) (A) (A) (A) (A) (A) (A)
                 (A) (A) (A) (A) (A) (A) (A) (A) (A) (A) (A) (A)
                 (A) (A) (A) (A) (A) (A) (A) (A) (A) (A) (A) (A)
                 (A) (A) (A) (A) (A) (A) (A) (A) (A) (A) (A) (A)
                 (A) (A)
 The electronic state is 1-A.
 Alpha  occ. eigenvalues --  -10.21853 -10.20463 -10.20344 -10.16955 -10.15909
 Alpha  occ. eigenvalues --   -0.89976  -0.75231  -0.64664  -0.58441  -0.54198
 Alpha  occ. eigenvalues --   -0.51652  -0.47928  -0.38851  -0.35308  -0.28537
 Alpha  occ. eigenvalues --   -0.27690  -0.25754
 Alpha virt. eigenvalues --   -0.02340  -0.00203   0.00910   0.01100   0.01521
 Alpha virt. eigenvalues --    0.03008   0.03010   0.05336   0.06892   0.07350
 Alpha virt. eigenvalues --    0.07564   0.08810   0.09808   0.10899   0.11554
 Alpha virt. eigenvalues --    0.11616   0.12239   0.12607   0.13204   0.14259
 Alpha virt. eigenvalues --    0.14434   0.15853   0.16178   0.17150   0.18109
 Alpha virt. eigenvalues --    0.19259   0.21254   0.21494   0.24592   0.25004
 Alpha virt. eigenvalues --    0.25732   0.27977   0.30244   0.32315   0.35409
 Alpha virt. eigenvalues --    0.35651   0.36861   0.39426   0.39722   0.40692
 Alpha virt. eigenvalues --    0.42038   0.42539   0.43545   0.44898   0.44921
 Alpha virt. eigenvalues --    0.48430   0.49378   0.50549   0.51290   0.53913
 Alpha virt. eigenvalues --    0.54500   0.55286   0.56056   0.56820   0.57141
 Alpha virt. eigenvalues --    0.57610   0.59054   0.60602   0.61580   0.63426
 Alpha virt. eigenvalues --    0.64051   0.69648   0.71870   0.76998   0.79191
 Alpha virt. eigenvalues --    0.79305   0.80679   0.82033   0.86814   0.88206
 Alpha virt. eigenvalues --    0.90484   0.92029   0.93173   0.94392   1.01216
 Alpha virt. eigenvalues --    1.03922   1.04526   1.05364   1.08530   1.11896
 Alpha virt. eigenvalues --    1.15157   1.16781   1.19833   1.21341   1.22939
 Alpha virt. eigenvalues --    1.24765   1.26010   1.26711   1.28365   1.32179
 Alpha virt. eigenvalues --    1.35275   1.38647   1.41992   1.46037   1.48018
 Alpha virt. eigenvalues --    1.48510   1.51183   1.54004   1.54315   1.57757
 Alpha virt. eigenvalues --    1.60083   1.64584   1.67779   1.73117   1.77943
 Alpha virt. eigenvalues --    1.78357   1.82886   1.85023   1.92677   1.96958
 Alpha virt. eigenvalues --    2.01954   2.02033   2.10664   2.16745   2.17838
 Alpha virt. eigenvalues --    2.31099   2.33571   2.51494   2.51669   2.57016
 Alpha virt. eigenvalues --    2.58777   2.64553   2.66796   2.67470   2.67978
 Alpha virt. eigenvalues --    2.71061   2.73171   2.73308   2.78646   2.79925
 Alpha virt. eigenvalues --    2.83637   2.83947   2.88296   2.90288   2.93011
 Alpha virt. eigenvalues --    2.94512   2.97929   3.03829   3.04194   3.05769
 Alpha virt. eigenvalues --    3.07574   3.10156   3.14139   3.14759   3.18395
 Alpha virt. eigenvalues --    3.18947   3.23042   3.24676   3.29401   3.33781
 Alpha virt. eigenvalues --    3.40564   3.46035   3.46795   3.52949   3.54534
 Alpha virt. eigenvalues --    3.67005   3.69676   3.75037   3.79272   3.87041
 Alpha virt. eigenvalues --    3.93763   3.98314   4.01165   4.05729   4.11182
 Alpha virt. eigenvalues --    4.18765   4.19390   4.24891   4.28168   4.33498
 Alpha virt. eigenvalues --    4.39011   4.46540   4.47915   4.52656   4.55418
 Alpha virt. eigenvalues --    4.67087   4.79330   4.81585   4.96360   5.04600
 Alpha virt. eigenvalues --    5.54629   5.57761   5.83532   5.84334   5.91194
 Alpha virt. eigenvalues --    6.09092   6.40273   6.64071   6.99347   6.99953
 Alpha virt. eigenvalues --    7.11196   7.11838   7.12844   7.13315   7.16791
 Alpha virt. eigenvalues --    7.25053   7.31078   7.33655   7.39176   7.40870
 Alpha virt. eigenvalues --    7.50017   7.50847   7.56414   7.58662   7.66196
 Alpha virt. eigenvalues --    7.87374   8.02080   8.05116   8.16824   8.34769
 Alpha virt. eigenvalues --    8.53760   8.55231   8.62811  23.94104  24.23222
 Alpha virt. eigenvalues --   24.88724  26.19681  27.04331
          Condensed to atoms (all electrons):
               1          2          3          4          5          6
     1  C    7.349485  -0.021095   0.555355  -0.028864  -0.020245   0.006789
     2  C   -0.021095   6.761247  -0.255830  -0.052161  -0.642811  -0.005060
     3  C    0.555355  -0.255830   7.721230   0.403694  -0.256902  -0.054180
     4  H   -0.028864  -0.052161   0.403694   0.516484  -0.052034  -0.004181
     5  C   -0.020245  -0.642811  -0.256902  -0.052034   6.761142   0.363360
     6  H    0.006789  -0.005060  -0.054180  -0.004181   0.363360   0.466111
     7  H    0.006808   0.363377  -0.054317  -0.004174  -0.005039  -0.004075
     8  C   -1.324255   0.024440  -1.849009   0.059918   0.024831  -0.015186
     9  H    0.082426  -0.001973   0.038654  -0.000341  -0.001954  -0.000079
               7          8          9
     1  C    0.006808  -1.324255   0.082426
     2  C    0.363377   0.024440  -0.001973
     3  C   -0.054317  -1.849009   0.038654
     4  H   -0.004174   0.059918  -0.000341
     5  C   -0.005039   0.024831  -0.001954
     6  H   -0.004075  -0.015186  -0.000079
     7  H    0.466092  -0.015104  -0.000080
     8  C   -0.015104   8.641426   0.219302
     9  H   -0.000080   0.219302   0.356769
 Mulliken charges:
               1
     1  C   -0.606404
     2  C   -0.170134
     3  C   -0.248697
     4  H    0.161661
     5  C   -0.170349
     6  H    0.246500
     7  H    0.246511
     8  C    0.233637
     9  H    0.307276
 Sum of Mulliken charges =  -0.00000
 Mulliken charges with hydrogens summed into heavy atoms:
               1
     1  C   -0.606404
     2  C    0.076377
     3  C   -0.087036
     5  C    0.076151
     8  C    0.540912
 APT charges:
               1
     1  C    0.022602
     2  C   -0.067250
     3  C    0.119266
     4  H   -0.029476
     5  C   -0.067169
     6  H    0.097797
     7  H    0.097808
     8  C   -0.388475
     9  H    0.214898
 Sum of APT charges =  -0.00000
 APT charges with hydrogens summed into heavy atoms:
               1
     1  C    0.022602
     2  C    0.030557
     3  C    0.089790
     5  C    0.030628
     8  C   -0.173577
 Electronic spatial extent (au):  <R**2>=            397.9917
 Charge=             -0.0000 electrons
 Dipole moment (field-independent basis, Debye):
    X=              1.2078    Y=              0.0005    Z=             -0.2542  Tot=              1.2342
 Quadrupole moment (field-independent basis, Debye-Ang):
   XX=            -25.8593   YY=            -28.0926   ZZ=            -30.0401
   XY=             -0.0020   XZ=              0.5457   YZ=              0.0007
 Traceless Quadrupole moment (field-independent basis, Debye-Ang):
   XX=              2.1381   YY=             -0.0953   ZZ=             -2.0428
   XY=             -0.0020   XZ=              0.5457   YZ=              0.0007
 Octapole moment (field-independent basis, Debye-Ang**2):
  XXX=            -14.2204  YYY=              0.0094  ZZZ=              3.0789  XYY=              9.7185
  XXY=              0.0052  XXZ=             -8.2044  XZZ=              1.8889  YZZ=             -0.0063
  YYZ=             -2.6325  XYZ=              0.0064
 Hexadecapole moment (field-independent basis, Debye-Ang**3):
 XXXX=           -361.5678 YYYY=            -72.3085 ZZZZ=            -68.0196 XXXY=             -0.0322
 XXXZ=             15.9662 YYYX=              0.0117 YYYZ=              0.0050 ZZZX=              1.5781
 ZZZY=             -0.0009 XXYY=            -78.9330 XXZZ=            -84.2248 YYZZ=            -24.8253
 XXYZ=              0.0059 YYXZ=             -5.1695 ZZXY=             -0.0097
 N-N= 1.317881956697D+02 E-N=-7.106441169700D+02  KE= 1.918983769262D+02
  Exact polarizability:  76.723  -0.005  48.844   0.543   0.001  44.346
 Approx polarizability: 113.269  -0.021  79.073   5.159   0.005  64.710
 No NMR shielding tensors so no spin-rotation constants.
 Leave Link  601 at Wed Jun 22 01:08:57 2016, MaxMem=    33554432 cpu:         1.4
 (Enter /home/proyectos/fulerenos/M3C-v1.9/M3C-deps_CCC/g09-AM64L-G09RevC.01/l701.exe)
 Compute integral second derivatives.
 ... and contract with generalized density number  0.
 Leave Link  701 at Wed Jun 22 01:08:58 2016, MaxMem=    33554432 cpu:         2.4
 (Enter /home/proyectos/fulerenos/M3C-v1.9/M3C-deps_CCC/g09-AM64L-G09RevC.01/l702.exe)
 L702 exits ... SP integral derivatives will be done elsewhere.
 Leave Link  702 at Wed Jun 22 01:08:58 2016, MaxMem=    33554432 cpu:         0.1
 (Enter /home/proyectos/fulerenos/M3C-v1.9/M3C-deps_CCC/g09-AM64L-G09RevC.01/l703.exe)
 Compute integral second derivatives, UseDBF=F ICtDFT=           0.
 Integral derivatives from FoFJK, PRISM(SPDF).
 Calling FoFJK, ICntrl=    100127 FMM=F ISym2X=0 I1Cent= 0 IOpClX= 0 NMat=1 NMatS=1 NMatT=0.
 FoFJK:  IHMeth= 1 ICntrl=  100127 DoSepK=F KAlg= 0 I1Cent=   0 FoldK=F
 IRaf=         0 NMat=   1 IRICut=       1 DoRegI=T DoRafI=F ISym2E= 0.
 FoFCou: FMM=F IPFlag=           0 FMFlag=      100000 FMFlg1=         800
         NFxFlg=           0 DoJE=F BraDBF=F KetDBF=F FulRan=T
         wScrn=  0.000000 ICntrl=  100127 IOpCl=  0 I1Cent=           0 NGrid=           0
         NMat0=    1 NMatS0=      1 NMatT0=    0 NMatD0=    1 NMtDS0=    0 NMtDT0=    0
 Symmetry not used in FoFCou.
 Leave Link  703 at Wed Jun 22 01:15:40 2016, MaxMem=    33554432 cpu:      1587.5
 (Enter /home/proyectos/fulerenos/M3C-v1.9/M3C-deps_CCC/g09-AM64L-G09RevC.01/l716.exe)
 Dipole        = 4.75178258D-01 1.82995235D-04-9.99920811D-02
 Polarizability= 7.67233706D+01-5.24945809D-03 4.88443959D+01
                 5.42712275D-01 1.01423214D-03 4.43462148D+01
 Full mass-weighted force constant matrix:
 Low frequencies ---   -6.9496   -0.0004    0.0004    0.0007    4.3078    5.2846
 Low frequencies ---  206.2034  219.9901  530.0444
 Diagonal vibrational polarizability:
        4.7900860       6.7004240       8.3448798
 Harmonic frequencies (cm**-1), IR intensities (KM/Mole), Raman scattering
 activities (A**4/AMU), depolarization ratios for plane and unpolarized
 incident light, reduced masses (AMU), force constants (mDyne/A),
 and normal coordinates:
                      1                      2                      3
                      A                      A                      A
 Frequencies --    206.2019               219.9900               530.0444
 Red. masses --      3.7409                 3.1171                 2.6089
 Frc consts  --      0.0937                 0.0889                 0.4318
 IR Inten    --      3.7175                 3.7063                16.4494
  Atom  AN      X      Y      Z        X      Y      Z        X      Y      Z
     1   6     0.04  -0.00   0.26    -0.00  -0.21  -0.00    -0.19  -0.00   0.25
     2   6    -0.15   0.00  -0.08     0.17   0.03   0.10     0.10   0.00  -0.05
     3   6     0.06  -0.00   0.19    -0.00  -0.13  -0.00    -0.00  -0.00  -0.09
     4   1     0.26  -0.00   0.17    -0.00   0.05  -0.00     0.16  -0.00  -0.11
     5   6    -0.15  -0.00  -0.08    -0.17   0.03  -0.10     0.09  -0.00  -0.05
     6   1    -0.28   0.00  -0.23    -0.45   0.09  -0.25     0.48  -0.02   0.35
     7   1    -0.28  -0.00  -0.23     0.45   0.09   0.25     0.48   0.02   0.35
     8   6     0.20   0.00  -0.21    -0.00   0.22   0.00    -0.09   0.00  -0.08
     9   1     0.31   0.00  -0.55    -0.00   0.51   0.00    -0.02   0.00  -0.32
                      4                      5                      6
                      A                      A                      A
 Frequencies --    540.4556               636.0608               640.0125
 Red. masses --      4.2281                 1.5452                 1.2728
 Frc consts  --      0.7276                 0.3683                 0.3072
 IR Inten    --      0.7068                81.4088                49.4317
  Atom  AN      X      Y      Z        X      Y      Z        X      Y      Z
     1   6     0.00   0.42   0.00     0.09   0.00  -0.05     0.00   0.06  -0.00
     2   6     0.19  -0.07  -0.00    -0.11  -0.00  -0.05    -0.00   0.00   0.00
     3   6     0.00  -0.16  -0.00    -0.01  -0.00   0.01    -0.00  -0.00   0.00
     4   1    -0.00  -0.15   0.00     0.00  -0.00   0.01     0.00   0.00   0.00
     5   6    -0.19  -0.07   0.00    -0.11   0.00  -0.05     0.00   0.00  -0.00
     6   1    -0.50   0.06   0.01     0.31   0.06   0.61     0.00   0.00  -0.01
     7   1     0.50   0.06  -0.01     0.31  -0.06   0.61    -0.00   0.00   0.01
     8   6    -0.00  -0.08  -0.00     0.08   0.00   0.03     0.00  -0.14  -0.00
     9   1    -0.00  -0.41  -0.00     0.06  -0.00   0.10     0.00   0.99   0.00
                      7                      8                      9
                      A                      A                      A
 Frequencies --    686.5556               806.7018               859.1847
 Red. masses --      1.2788                 3.1940                 1.5099
 Frc consts  --      0.3551                 1.2247                 0.6567
 IR Inten    --     42.3545                 5.2942                 0.4249
  Atom  AN      X      Y      Z        X      Y      Z        X      Y      Z
     1   6    -0.02  -0.00   0.05     0.00  -0.08  -0.00     0.00  -0.01   0.00
     2   6     0.00  -0.00   0.00     0.14  -0.14  -0.13    -0.07  -0.01  -0.13
     3   6     0.00   0.00  -0.00    -0.00   0.29   0.00    -0.00   0.03  -0.00
     4   1     0.01   0.00  -0.00    -0.00   0.52   0.00     0.00   0.01  -0.00
     5   6     0.00   0.00   0.00    -0.14  -0.14   0.13     0.07  -0.01   0.13
     6   1    -0.00   0.00   0.00    -0.22   0.01   0.45    -0.43  -0.03  -0.54
     7   1    -0.00  -0.00   0.00     0.22   0.01  -0.45     0.43  -0.03   0.54
     8   6     0.04   0.00  -0.14     0.00   0.01   0.00     0.00   0.00   0.00
     9   1    -0.31  -0.00   0.94     0.00   0.12   0.00     0.00   0.01  -0.00
                     10                     11                     12
                      A                      A                      A
 Frequencies --    906.7613               959.5478              1011.0491
 Red. masses --      2.2765                 1.6169                 1.4197
 Frc consts  --      1.1028                 0.8772                 0.8551
 IR Inten    --      8.3801                 9.3301                40.3066
  Atom  AN      X      Y      Z        X      Y      Z        X      Y      Z
     1   6    -0.04   0.00  -0.11    -0.05  -0.00  -0.06    -0.00   0.00  -0.00
     2   6     0.01   0.02  -0.06     0.04  -0.01  -0.04    -0.11  -0.02   0.05
     3   6     0.05  -0.00   0.28     0.14  -0.00   0.10     0.00  -0.07  -0.00
     4   1     0.07  -0.00   0.27     0.25  -0.00   0.09    -0.00   0.55   0.00
     5   6     0.01  -0.02  -0.06     0.04   0.01  -0.04     0.11  -0.01  -0.05
     6   1     0.51  -0.28  -0.23    -0.42   0.34   0.36    -0.38   0.31   0.31
     7   1     0.51   0.28  -0.23    -0.42  -0.35   0.36     0.38   0.31  -0.31
     8   6    -0.11   0.00  -0.03    -0.11   0.00  -0.03    -0.00  -0.00  -0.00
     9   1    -0.14  -0.00   0.05    -0.13   0.00  -0.02    -0.00  -0.01  -0.00
                     13                     14                     15
                      A                      A                      A
 Frequencies --   1052.3589              1152.1094              1369.4170
 Red. masses --      1.3223                 4.7420                 1.1962
 Frc consts  --      0.8628                 3.7085                 1.3216
 IR Inten    --      1.1291                 1.8819                 9.6169
  Atom  AN      X      Y      Z        X      Y      Z        X      Y      Z
     1   6    -0.00   0.01  -0.00    -0.04   0.00  -0.03     0.01   0.00  -0.03
     2   6     0.04   0.03  -0.06    -0.18  -0.05   0.15     0.01   0.03   0.02
     3   6     0.00  -0.12  -0.00     0.43   0.00  -0.18    -0.12  -0.00   0.00
     4   1    -0.00   0.86   0.00     0.56  -0.00  -0.18     0.98   0.00  -0.13
     5   6    -0.04   0.03   0.06    -0.18   0.05   0.15     0.01  -0.03   0.02
     6   1     0.27  -0.16  -0.12     0.24  -0.26  -0.17    -0.01  -0.04  -0.01
     7   1    -0.27  -0.16   0.12     0.24   0.26  -0.17    -0.01   0.04  -0.01
     8   6    -0.00   0.00  -0.00    -0.10   0.00  -0.03     0.01  -0.00   0.01
     9   1    -0.00  -0.01  -0.00    -0.11   0.00  -0.05     0.01  -0.00   0.02
                     16                     17                     18
                      A                      A                      A
 Frequencies --   1732.3013              2201.2109              3073.1366
 Red. masses --      5.1183                 6.0128                 1.0835
 Frc consts  --      9.0495                17.1653                 6.0290
 IR Inten    --     38.7906                12.5829                24.9773
  Atom  AN      X      Y      Z        X      Y      Z        X      Y      Z
     1   6    -0.01   0.00  -0.01     0.52  -0.00   0.17     0.00   0.00  -0.00
     2   6     0.00  -0.43  -0.00    -0.01  -0.01   0.00     0.00   0.00  -0.00
     3   6    -0.08  -0.00   0.04    -0.07   0.00  -0.03    -0.01   0.00  -0.08
     4   1     0.18   0.00   0.03    -0.04   0.00  -0.03     0.11  -0.00   0.99
     5   6     0.00   0.43  -0.00    -0.01   0.01   0.00     0.00  -0.00  -0.00
     6   1     0.25   0.45  -0.19     0.02   0.00  -0.01    -0.01  -0.01   0.00
     7   1     0.25  -0.44  -0.19     0.02  -0.00  -0.01    -0.01   0.01   0.00
     8   6     0.02  -0.00   0.01    -0.37   0.00  -0.12    -0.00   0.00  -0.00
     9   1     0.02  -0.00   0.02    -0.70   0.00  -0.23     0.00   0.00  -0.00
                     19                     20                     21
                      A                      A                      A
 Frequencies --   3247.4629              3295.1022              3462.4538
 Red. masses --      1.0844                 1.1488                 1.1590
 Frc consts  --      6.7380                 7.3491                 8.1864
 IR Inten    --      1.4843                 0.4971                71.2235
  Atom  AN      X      Y      Z        X      Y      Z        X      Y      Z
     1   6     0.00   0.00   0.00    -0.00   0.00  -0.00     0.03  -0.00   0.01
     2   6     0.02  -0.05  -0.02    -0.02   0.07   0.02    -0.00  -0.00   0.00
     3   6    -0.00   0.00   0.00     0.00   0.00  -0.00    -0.00   0.00  -0.00
     4   1    -0.00   0.00  -0.00     0.00   0.00   0.01    -0.00   0.00  -0.00
     5   6    -0.02  -0.05   0.02    -0.02  -0.07   0.02    -0.00   0.00   0.00
     6   1     0.25   0.62  -0.21     0.26   0.62  -0.22     0.00  -0.00  -0.00
     7   1    -0.25   0.62   0.22     0.25  -0.62  -0.22     0.00   0.00  -0.00
     8   6    -0.00  -0.00  -0.00     0.00  -0.00  -0.00    -0.11   0.00  -0.04
     9   1    -0.00  -0.00  -0.00     0.00  -0.00   0.00     0.94  -0.00   0.31

 -------------------
 - Thermochemistry -
 -------------------
 Temperature   298.150 Kelvin.  Pressure   1.00000 Atm.
 Atom     1 has atomic number  6 and mass  12.00000
 Atom     2 has atomic number  6 and mass  12.00000
 Atom     3 has atomic number  6 and mass  12.00000
 Atom     4 has atomic number  1 and mass   1.00783
 Atom     5 has atomic number  6 and mass  12.00000
 Atom     6 has atomic number  1 and mass   1.00783
 Atom     7 has atomic number  1 and mass   1.00783
 Atom     8 has atomic number  6 and mass  12.00000
 Atom     9 has atomic number  1 and mass   1.00783
 Molecular mass:    64.03130 amu.
 Principal axes and moments of inertia in atomic units:
                           1         2         3
     Eigenvalues --    89.70800 526.52741 543.48015
           X            0.99999  -0.00001   0.00366
           Y            0.00001   1.00000   0.00000
           Z           -0.00366  -0.00000   0.99999
 This molecule is an asymmetric top.
 Rotational symmetry number  1.
 Rotational temperatures (Kelvin)      0.96551     0.16450     0.15937
 Rotational constants (GHZ):          20.11795     3.42763     3.32071
 Zero-point vibrational energy     170994.9 (Joules/Mol)
                                   40.86877 (Kcal/Mol)
 Warning -- explicit consideration of   4 degrees of freedom as
           vibrations may cause significant error
 Vibrational temperatures:    296.68   316.52   762.61   777.59   915.15
          (Kelvin)            920.83   987.80  1160.66  1236.17  1304.63
                             1380.57  1454.67  1514.11  1657.63  1970.28
                             2492.39  3167.05  4421.55  4672.37  4740.91
                             4981.69
 
 Zero-point correction=                           0.065129 (Hartree/Particle)
 Thermal correction to Energy=                    0.070171
 Thermal correction to Enthalpy=                  0.071115
 Thermal correction to Gibbs Free Energy=         0.037721
 Sum of electronic and zero-point Energies=           -192.768259
 Sum of electronic and thermal Energies=              -192.763217
 Sum of electronic and thermal Enthalpies=            -192.762272
 Sum of electronic and thermal Free Energies=         -192.795667
 
                     E (Thermal)             CV                S
                      KCal/Mol        Cal/Mol-Kelvin    Cal/Mol-Kelvin
 Total                   44.033             17.902             70.284
 Electronic               0.000              0.000              0.000
 Translational            0.889              2.981             38.389
 Rotational               0.889              2.981             24.755
 Vibrational             42.255             11.941              7.140
 Vibration     1          0.641              1.831              2.077
 Vibration     2          0.647              1.811              1.959
 Vibration     3          0.885              1.184              0.587
 Vibration     4          0.896              1.161              0.564
                       Q            Log10(Q)             Ln(Q)
 Total Bot       0.446420D-17        -17.350256        -39.950441
 Total V=0       0.404317D+13         12.606722         29.028051
 Vib (Bot)       0.386488D-29        -29.412864        -67.725623
 Vib (Bot)    1  0.964667D+00         -0.015623         -0.035972
 Vib (Bot)    2  0.899153D+00         -0.046167         -0.106302
 Vib (Bot)    3  0.301715D+00         -0.520403         -1.198272
 Vib (Bot)    4  0.293024D+00         -0.533096         -1.227499
 Vib (V=0)       0.350037D+01          0.544114          1.252869
 Vib (V=0)    1  0.158655D+01          0.200453          0.461559
 Vib (V=0)    2  0.152882D+01          0.184357          0.424498
 Vib (V=0)    3  0.108398D+01          0.035021          0.080639
 Vib (V=0)    4  0.107954D+01          0.033238          0.076532
 Electronic      0.100000D+01          0.000000          0.000000
 Translational   0.201393D+08          7.304044         16.818182
 Rotational      0.573541D+05          4.758564         10.956999
 
                                                              b3lyp opt
                                                             IR Spectrum
 
      3     33      3                               2                1            1       1   11                                     
      4     22      0                               2                7            3       1   00 9 9 8 8   666  55          22       
      6     94      7                               0                3            6       5   51 6 0 5 0   843  43          20       
      2     57      3                               1                2            9       2   21 0 7 9 7   706  00          06       
 
      X     XX      X                               X                X            X       X   XX X X X X   XXX  XX          XX       
      X             X                               X                X            X            X X X       XXX   X                   
      X             X                               X                X                         X           XXX   X                   
      X             X                                                X                         X           XXX   X                   
      X             X                                                X                         X           XXX                       
      X             X                                                X                         X           XXX                       
      X                                                              X                         X           XXX                       
      X                                                              X                         X           XXX                       
      X                                                              X                         X           XXX                       
      X                                                              X                         X           XXX                       
      X                                                                                                     XX                       
      X                                                                                                     XX                       
      X                                                                                                      X                       
      X                                                                                                      X                       
      X                                                                                                      X                       
      X                                                                                                      X                       
      X                                                                                                      X                       
                                                                                                             X                       
                                                                                                             X                       
                                                                                                             X                       
 
 ***** Axes restored to original set *****
 -------------------------------------------------------------------
 Center     Atomic                   Forces (Hartrees/Bohr)
 Number     Number              X              Y              Z
 -------------------------------------------------------------------
      1        6           0.000078616   -0.000009853   -0.000040040
      2        6          -0.000017449    0.000002712    0.000004110
      3        6          -0.000004517    0.000011480    0.000070076
      4        1           0.000010140   -0.000011090   -0.000060629
      5        6           0.000007402    0.000011514   -0.000015456
      6        1           0.000000147   -0.000004279   -0.000001063
      7        1          -0.000003688   -0.000011524   -0.000002899
      8        6          -0.000147162    0.000012043    0.000086260
      9        1           0.000076512   -0.000001004   -0.000040358
 -------------------------------------------------------------------
 Cartesian Forces:  Max     0.000147162 RMS     0.000044928
 Z-matrix is all fixed cartesians, so copy forces.
 Force constants in Cartesian coordinates: 
                1             2             3             4             5 
      1  0.126652D+01
      2  0.147274D-04  0.836840D-01
      3 -0.382380D+00  0.141282D-04  0.230914D+00
      4 -0.339746D-01 -0.165415D-01 -0.122788D-01  0.242906D+00
      5  0.121958D-01  0.278132D-02  0.357615D-02  0.151069D+00  0.104789D+01
      6 -0.911739D-02  0.962620D-02  0.651783D-02  0.111593D+00  0.128541D+00
      7 -0.230351D+00  0.323053D-04  0.686616D-01 -0.109103D+00 -0.694605D-01
      8  0.790818D-04 -0.586594D-01 -0.466981D-04 -0.359033D-01 -0.546973D-01
      9  0.857387D-01 -0.390301D-04 -0.104761D+00 -0.625678D-01 -0.521642D-01
     10 -0.840689D-02  0.309301D-04  0.323982D-01 -0.406517D-02  0.507078D-02
     11  0.566881D-05 -0.906646D-03 -0.786924D-05  0.235361D-02  0.129128D-02
     12  0.767256D-02 -0.756287D-05 -0.888664D-02 -0.788078D-02  0.324687D-02
     13 -0.339896D-01  0.165271D-01 -0.123144D-01 -0.246879D-01  0.124682D-01
     14 -0.122084D-01  0.275522D-02 -0.356405D-02 -0.126245D-01 -0.700682D+00
     15 -0.909537D-02 -0.961358D-02  0.654150D-02  0.170018D-01  0.120770D-01
     16  0.308119D-02  0.264393D-02  0.332727D-03  0.548606D-02 -0.485180D-02
     17  0.161120D-02  0.679540D-03 -0.305487D-03  0.999816D-02 -0.349774D-02
     18  0.836198D-03 -0.243597D-02  0.124928D-03 -0.446238D-02 -0.552341D-02
     19  0.308064D-02 -0.264304D-02  0.337376D-03 -0.793464D-01 -0.103158D+00
     20 -0.161012D-02  0.685706D-03  0.304842D-03 -0.995385D-01 -0.293452D+00
     21  0.838410D-03  0.243449D-02  0.120109D-03 -0.420371D-01 -0.900316D-01
     22 -0.970368D+00 -0.688329D-04  0.306075D+00  0.261973D-02 -0.345733D-02
     23 -0.706224D-04 -0.319124D-01  0.225623D-04  0.586923D-03  0.472965D-03
     24  0.306587D+00  0.218824D-04 -0.132768D+00 -0.329215D-03  0.816444D-03
     25  0.440512D-02  0.436501D-05 -0.831914D-03  0.165470D-03  0.124156D-03
     26 -0.173463D-04  0.892578D-03  0.643032D-05  0.599908D-03 -0.106093D-03
     27 -0.108019D-02  0.000000D+00  0.219790D-02  0.961712D-03 -0.537967D-03
                6             7             8             9            10 
      6  0.186023D+00
      7 -0.570204D-01  0.505277D+00
      8 -0.308137D-01  0.833121D-05  0.194099D+00
      9 -0.916046D-01  0.845493D-02  0.318001D-03  0.574117D+00
     10 -0.202093D-01 -0.493232D-01  0.372786D-04  0.370599D-01  0.678533D-01
     11 -0.186361D-01  0.389034D-04 -0.383605D-01 -0.234562D-03 -0.256856D-04
     12 -0.875353D-02  0.359033D-01 -0.235523D-03 -0.304462D+00 -0.288709D-01
     13  0.169698D-01 -0.109105D+00  0.358078D-01 -0.626458D-01 -0.406378D-02
     14 -0.107062D-01  0.693740D-01 -0.545591D-01  0.521141D-01 -0.511175D-02
     15 -0.360817D-01 -0.571690D-01  0.307599D-01 -0.917815D-01 -0.201921D-01
     16 -0.413914D-02  0.111395D-02  0.969528D-02 -0.459816D-02  0.496147D-03
     17  0.849250D-02 -0.252187D-02  0.299589D-03 -0.119923D-02  0.101679D-03
     18  0.739026D-02 -0.219006D-02  0.748689D-02  0.347657D-02  0.539985D-03
     19 -0.406171D-01  0.111370D-02 -0.970694D-02 -0.457886D-02  0.496114D-03
     20 -0.853360D-01  0.251666D-02  0.287992D-03  0.120599D-02 -0.100857D-03
     21 -0.628350D-01 -0.219636D-02 -0.747642D-02  0.348948D-02  0.540073D-03
     22  0.285723D-02 -0.111353D-01 -0.173178D-04  0.120649D-02 -0.269690D-02
     23 -0.640789D-03  0.787065D-05  0.617685D-02 -0.227749D-05 -0.115592D-05
     24 -0.584327D-03  0.494320D-02  0.622710D-05  0.579176D-02 -0.247645D-03
     25 -0.316200D-03  0.151372D-02  0.000000D+00  0.193055D-02 -0.289671D-03
     26 -0.526558D-03  0.427003D-05  0.541299D-02  0.119683D-05 -0.122313D-05
     27 -0.723328D-04  0.612847D-03  0.136622D-05  0.573488D-02 -0.101824D-02
               11            12            13            14            15 
     11  0.343842D-01
     12  0.266710D-03  0.331280D+00
     13 -0.237384D-02 -0.787372D-02  0.242887D+00
     14  0.132215D-02 -0.326804D-02 -0.150661D+00  0.104746D+01
     15  0.186139D-01 -0.877453D-02  0.111896D+00 -0.130363D+00  0.186556D+00
     16 -0.121465D-02  0.605275D-03 -0.793096D-01  0.103054D+00 -0.408224D-01
     17  0.677306D-03 -0.180354D-03  0.994248D-01 -0.293167D+00  0.858316D-01
     18  0.289767D-02 -0.317642D-03 -0.422285D-01  0.905212D-01 -0.631990D-01
     19  0.121547D-02  0.603102D-03  0.548087D-02  0.483938D-02 -0.415254D-02
     20  0.670759D-03  0.178504D-03 -0.100070D-01 -0.349993D-02 -0.847056D-02
     21 -0.289893D-02 -0.313378D-03 -0.443888D-02  0.554786D-02  0.739661D-02
     22  0.000000D+00 -0.251387D-03  0.262305D-02  0.346201D-02  0.284963D-02
     23  0.708358D-03  0.000000D+00 -0.586470D-03  0.476727D-03  0.640391D-03
     24  0.000000D+00  0.146609D-03 -0.327787D-03 -0.819517D-03 -0.582863D-03
     25  0.000000D+00  0.926293D-04  0.165792D-03 -0.124526D-03 -0.316514D-03
     26  0.213054D-03  0.000000D+00 -0.599807D-03 -0.106503D-03  0.524713D-03
     27  0.000000D+00  0.813235D-04  0.962902D-03  0.537979D-03 -0.741865D-04
               16            17            18            19            20 
     16  0.702439D-01
     17 -0.108389D+00  0.294990D+00
     18  0.451667D-01 -0.929824D-01  0.538507D-01
     19  0.113764D-03  0.361177D-03  0.291078D-02  0.702871D-01
     20 -0.355437D-03  0.223217D-03 -0.146827D-03  0.108509D+00  0.295290D+00
     21  0.291208D-02  0.143201D-03 -0.139535D-02  0.449553D-01  0.924640D-01
     22 -0.122243D-02 -0.595057D-03 -0.655441D-03 -0.122276D-02  0.594372D-03
     23 -0.440478D-03 -0.169215D-03  0.716057D-04  0.440290D-03 -0.169164D-03
     24  0.633254D-03  0.206351D-03  0.936746D-04  0.632316D-03 -0.205970D-03
     25 -0.303744D-05  0.870084D-05  0.827066D-04 -0.308553D-05 -0.852701D-05
     26 -0.142538D-03 -0.360985D-04  0.111263D-03  0.142758D-03 -0.364335D-04
     27 -0.903540D-04 -0.613203D-05 -0.241991D-04 -0.904102D-04  0.606641D-05
               21            22            23            24            25 
     21  0.534676D-01
     22 -0.656431D-03  0.135851D+01
     23 -0.719288D-04  0.446793D-04  0.434544D-01
     24  0.940343D-04 -0.428531D+00 -0.929947D-05  0.188805D+00
     25  0.828164D-04 -0.377106D+00  0.189638D-04  0.116640D+00  0.371151D+00
     26 -0.110681D-03  0.368781D-04 -0.190386D-01 -0.155330D-04 -0.228994D-04
     27 -0.240831D-04  0.117106D+00 -0.964527D-05 -0.609954D-01 -0.117364D+00
               26            27 
     26  0.128051D-01
     27  0.915826D-05  0.531761D-01
 Leave Link  716 at Wed Jun 22 01:15:40 2016, MaxMem=    33554432 cpu:         0.2
 (Enter /home/proyectos/fulerenos/M3C-v1.9/M3C-deps_CCC/g09-AM64L-G09RevC.01/l103.exe)

 GradGradGradGradGradGradGradGradGradGradGradGradGradGradGradGradGradGrad
 Berny optimization.
 Search for a local minimum.
 Step number   1 out of a maximum of    2
 All quantities printed in internal units (Hartrees-Bohrs-Radians)
 Second derivative matrix not updated -- analytic derivatives used.
 ITU=  0
     Eigenvalues ---    0.00531   0.00553   0.02421   0.03123   0.03502
     Eigenvalues ---    0.03977   0.05830   0.08462   0.08746   0.14841
     Eigenvalues ---    0.15239   0.19145   0.20121   0.25028   0.34728
     Eigenvalues ---    0.50747   0.71802   0.77249   0.82294   1.87704
     Eigenvalues ---    2.57263
 Angle between quadratic step and forces=  77.86 degrees.
 Linear search not attempted -- first point.
 B after Tr=     0.000003   -0.000031    0.000034
         Rot=    1.000000    0.000003   -0.000009    0.000000 Ang=   0.00 deg.
 Variable       Old X    -DE/DX   Delta X   Delta X   Delta X     New X
                                 (Linear)    (Quad)   (Total)
    X1       -1.99897   0.00008   0.00000   0.00003   0.00003  -1.99894
    Y1        0.00014  -0.00001   0.00000  -0.00036  -0.00039  -0.00025
    Z1       -0.24446  -0.00004   0.00000  -0.00017  -0.00010  -0.24456
    X2        2.65857  -0.00002   0.00000  -0.00038  -0.00037   2.65821
    Y2        1.21355   0.00000   0.00000   0.00001  -0.00002   1.21354
    Z2        0.44124   0.00000   0.00000   0.00016   0.00014   0.44137
    X3        0.58774  -0.00000   0.00000   0.00003   0.00001   0.58775
    Y3       -0.00057   0.00001   0.00000  -0.00022  -0.00025  -0.00083
    Z3       -1.11255   0.00007   0.00000  -0.00008  -0.00006  -1.11261
    X4        0.76906   0.00001   0.00000   0.00020   0.00015   0.76920
    Y4       -0.00237  -0.00001   0.00000  -0.00028  -0.00033  -0.00270
    Z4       -3.15993  -0.00006   0.00000  -0.00025  -0.00023  -3.16016
    X5        2.65821   0.00001   0.00000   0.00019   0.00020   2.65841
    Y5       -1.21196   0.00001   0.00000   0.00002  -0.00001  -1.21197
    Z5        0.44376  -0.00002   0.00000  -0.00014  -0.00015   0.44361
    X6        3.40438   0.00000   0.00000   0.00045   0.00047   3.40484
    Y6       -2.98956  -0.00000   0.00000   0.00007   0.00004  -2.98951
    Z6        1.08083  -0.00000   0.00000  -0.00027  -0.00028   1.08055
    X7        3.40511  -0.00000   0.00000  -0.00080  -0.00077   3.40433
    Y7        2.99234  -0.00001   0.00000   0.00006   0.00003   2.99238
    Z7        1.07467  -0.00000   0.00000   0.00042   0.00037   1.07504
    X8       -4.15794  -0.00015   0.00000   0.00015   0.00016  -4.15778
    Y8       -0.00011   0.00001   0.00000   0.00035   0.00032   0.00022
    Z8        0.45838   0.00009   0.00000   0.00043   0.00054   0.45892
    X9       -6.06321   0.00008   0.00000   0.00010   0.00012  -6.06308
    Y9        0.00003  -0.00000   0.00000   0.00062   0.00060   0.00063
    Z9        1.08590  -0.00004   0.00000  -0.00037  -0.00022   1.08568
         Item               Value     Threshold  Converged?
 Maximum Force            0.000147     0.000450     YES
 RMS     Force            0.000045     0.000300     YES
 Maximum Displacement     0.000771     0.001800     YES
 RMS     Displacement     0.000305     0.001200     YES
 Predicted change in Energy=-4.016558D-08
 Optimization completed.
    -- Stationary point found.
 GradGradGradGradGradGradGradGradGradGradGradGradGradGradGradGradGradGrad

 Leave Link  103 at Wed Jun 22 01:15:40 2016, MaxMem=    33554432 cpu:         0.1
 (Enter /home/proyectos/fulerenos/M3C-v1.9/M3C-deps_CCC/g09-AM64L-G09RevC.01/l9999.exe)
 1\1\GINC-BLADI10\Freq\RB3LYP\6-311++G(3df,2p)\C5H4\ROOT\22-Jun-2016\0\
 \#p b3lyp/6-311++G(3df,2p) freq symmetry=Loose\\b3lyp opt\\0,1\C,-1.05
 7809,0.000074,-0.129362\C,1.406856,0.642185,0.233492\C,0.311016,-0.000
 302,-0.588738\H,0.406967,-0.001252,-1.672162\C,1.406664,-0.641342,0.23
 4826\H,1.801518,-1.582006,0.571951\H,1.801904,1.58348,0.568691\C,-2.20
 0288,-0.000056,0.242564\H,-3.208512,0.000016,0.574636\\Version=EM64L-G
 09RevE.01\State=1-A\HF=-192.8333874\RMSD=2.421e-09\RMSF=4.493e-05\Zero
 Point=0.0651285\Thermal=0.0701708\Dipole=0.4751727,0.0000653,0.1000185
 \DipoleDeriv=0.3132288,-0.0000608,-0.1221116,-0.0001928,-0.0669897,-0.
 0001153,-0.1810794,-0.0001204,-0.1784335,-0.0384651,0.0784662,0.118957
 6,-0.4340834,-0.042618,-0.1190277,0.2335623,0.0767862,-0.1206677,0.141
 0602,-0.000028,-0.018749,0.000087,-0.0957474,0.0003714,-0.1083253,0.00
 03866,0.3124844,-0.0906243,-0.0000128,-0.0062898,-0.0000045,0.1426158,
 -0.0002459,-0.0374953,-0.0002626,-0.1404198,-0.0383647,-0.0782655,0.11
 9166,0.4344692,-0.0424256,0.1188492,0.2327454,-0.0768911,-0.1207173,0.
 0696512,0.0599417,-0.061755,0.0174507,0.0796205,0.0227996,-0.1373472,0
 .0613947,0.1441195,0.0696384,-0.0600646,-0.0616387,-0.0177348,0.079481
 9,-0.0226584,-0.1373523,-0.0613071,0.1443028,-0.6377032,0.0000184,0.02
 41681,-0.0000577,-0.2751168,0.000042,0.1316884,0.0000221,-0.2526061,0.
 2115786,0.0000053,0.0082524,0.0000664,0.2211792,-0.000015,0.0036033,-0
 .0000085,0.2119376\Polar=76.7234284,0.0085629,48.8443876,-0.5409333,-0
 .0069679,44.3461653\PG=C01 [X(C5H4)]\NImag=0\\1.26652296,0.00001473,0.
 08368404,-0.38237992,0.00001413,0.23091377,-0.03397459,-0.01654146,-0.
 01227883,0.24290588,0.01219578,0.00278132,0.00357615,0.15106920,1.0478
 8963,-0.00911739,0.00962620,0.00651783,0.11159255,0.12854071,0.1860234
 4,-0.23035125,0.00003231,0.06866159,-0.10910315,-0.06946049,-0.0570204
 4,0.50527701,0.00007908,-0.05865935,-0.00004670,-0.03590333,-0.0546972
 5,-0.03081372,0.00000833,0.19409881,0.08573875,-0.00003903,-0.10476142
 ,-0.06256783,-0.05216418,-0.09160460,0.00845493,0.00031800,0.57411699,
 -0.00840689,0.00003093,0.03239821,-0.00406517,0.00507078,-0.02020925,-
 0.04932318,0.00003728,0.03705993,0.06785333,0.00000567,-0.00090665,-0.
 00000787,0.00235361,0.00129128,-0.01863612,0.00003890,-0.03836047,-0.0
 0023456,-0.00002569,0.03438421,0.00767256,-0.00000756,-0.00888664,-0.0
 0788078,0.00324687,-0.00875353,0.03590326,-0.00023552,-0.30446219,-0.0
 2887094,0.00026671,0.33127997,-0.03398962,0.01652707,-0.01231442,-0.02
 468787,0.01246816,0.01696976,-0.10910545,0.03580778,-0.06264581,-0.004
 06378,-0.00237384,-0.00787372,0.24288658,-0.01220837,0.00275522,-0.003
 56405,-0.01262455,-0.70068246,-0.01070619,0.06937402,-0.05455915,0.052
 11409,-0.00511175,0.00132215,-0.00326804,-0.15066066,1.04746050,-0.009
 09537,-0.00961358,0.00654150,0.01700184,0.01207697,-0.03608174,-0.0571
 6898,0.03075988,-0.09178148,-0.02019213,0.01861395,-0.00877453,0.11189
 648,-0.13036333,0.18655567,0.00308119,0.00264393,0.00033273,0.00548606
 ,-0.00485180,-0.00413914,0.00111395,0.00969528,-0.00459816,0.00049615,
 -0.00121465,0.00060527,-0.07930958,0.10305443,-0.04082242,0.07024393,0
 .00161120,0.00067954,-0.00030549,0.00999816,-0.00349774,0.00849250,-0.
 00252187,0.00029959,-0.00119923,0.00010168,0.00067731,-0.00018035,0.09
 942477,-0.29316655,0.08583157,-0.10838875,0.29498995,0.00083620,-0.002
 43597,0.00012493,-0.00446238,-0.00552341,0.00739026,-0.00219006,0.0074
 8689,0.00347657,0.00053998,0.00289767,-0.00031764,-0.04222853,0.090521
 20,-0.06319898,0.04516674,-0.09298241,0.05385075,0.00308064,-0.0026430
 4,0.00033738,-0.07934636,-0.10315846,-0.04061712,0.00111370,-0.0097069
 4,-0.00457886,0.00049611,0.00121547,0.00060310,0.00548087,0.00483938,-
 0.00415254,0.00011376,0.00036118,0.00291078,0.07028711,-0.00161012,0.0
 0068571,0.00030484,-0.09953846,-0.29345165,-0.08533602,0.00251666,0.00
 028799,0.00120599,-0.00010086,0.00067076,0.00017850,-0.01000700,-0.003
 49993,-0.00847056,-0.00035544,0.00022322,-0.00014683,0.10850937,0.2952
 8951,0.00083841,0.00243449,0.00012011,-0.04203706,-0.09003158,-0.06283
 500,-0.00219636,-0.00747642,0.00348948,0.00054007,-0.00289893,-0.00031
 338,-0.00443888,0.00554786,0.00739661,0.00291208,0.00014320,-0.0013953
 5,0.04495535,0.09246398,0.05346758,-0.97036755,-0.00006883,0.30607519,
 0.00261973,-0.00345733,0.00285723,-0.01113534,-0.00001732,0.00120649,-
 0.00269690,0.00000059,-0.00025139,0.00262305,0.00346201,0.00284963,-0.
 00122243,-0.00059506,-0.00065544,-0.00122276,0.00059437,-0.00065643,1.
 35850772,-0.00007062,-0.03191241,0.00002256,0.00058692,0.00047296,-0.0
 0064079,0.00000787,0.00617685,-0.00000228,-0.00000116,0.00070836,-0.00
 000062,-0.00058647,0.00047673,0.00064039,-0.00044048,-0.00016921,0.000
 07161,0.00044029,-0.00016916,-0.00007193,0.00004468,0.04345445,0.30658
 697,0.00002188,-0.13276798,-0.00032922,0.00081644,-0.00058433,0.004943
 20,0.00000623,0.00579176,-0.00024765,-0.00000058,0.00014661,-0.0003277
 9,-0.00081952,-0.00058286,0.00063325,0.00020635,0.00009367,0.00063232,
 -0.00020597,0.00009403,-0.42853085,-0.00000930,0.18880452,0.00440512,0
 .00000437,-0.00083191,0.00016547,0.00012416,-0.00031620,0.00151372,-0.
 00000016,0.00193055,-0.00028967,-0.00000007,0.00009263,0.00016579,-0.0
 0012453,-0.00031651,-0.00000304,0.00000870,0.00008271,-0.00000309,-0.0
 0000853,0.00008282,-0.37710552,0.00001896,0.11663976,0.37115121,-0.000
 01735,0.00089258,0.00000643,0.00059991,-0.00010609,-0.00052656,0.00000
 427,0.00541299,0.00000120,-0.00000122,0.00021305,0.00000001,-0.0005998
 1,-0.00010650,0.00052471,-0.00014254,-0.00003610,0.00011126,0.00014276
 ,-0.00003643,-0.00011068,0.00003688,-0.01903856,-0.00001553,-0.0000229
 0,0.01280507,-0.00108019,-0.00000056,0.00219790,0.00096171,-0.00053797
 ,-0.00007233,0.00061285,0.00000137,0.00573488,-0.00101824,-0.00000026,
 0.00008132,0.00096290,0.00053798,-0.00007419,-0.00009035,-0.00000613,-
 0.00002420,-0.00009041,0.00000607,-0.00002408,0.11710557,-0.00000965,-
 0.06099543,-0.11736384,0.00000916,0.05317613\\-0.00007862,0.00000985,0
 .00004004,0.00001745,-0.00000271,-0.00000411,0.00000452,-0.00001148,-0
 .00007008,-0.00001014,0.00001109,0.00006063,-0.00000740,-0.00001151,0.
 00001546,-0.00000015,0.00000428,0.00000106,0.00000369,0.00001152,0.000
 00290,0.00014716,-0.00001204,-0.00008626,-0.00007651,0.00000100,0.0000
 4036\\\@


 OPTIMIST - A PESSIMIST WHO LACKS EXPERIENCE
 Job cpu time:       0 days  1 hours  7 minutes 33.9 seconds.
 File lengths (MBytes):  RWF=     45 Int=      0 D2E=      0 Chk=      4 Scr=      1
 Normal termination of Gaussian 09 at Wed Jun 22 01:15:40 2016.
