 Entering Gaussian System, Link 0=/home/proyectos/fulerenos/M3C-v1.9/M3C-deps_CCC/g09-AM64L-G09RevC.01/g09
 Initial command:
 /home/proyectos/fulerenos/M3C-v1.9/M3C-deps_CCC/g09-AM64L-G09RevC.01/l1.exe "/scratch/naguirre/gaussian/Gau-26134.inp" -scrdir="/scratch/naguirre/gaussian/"
 Entering Link 1 = /home/proyectos/fulerenos/M3C-v1.9/M3C-deps_CCC/g09-AM64L-G09RevC.01/l1.exe PID=     26139.
  
 Copyright (c) 1988,1990,1992,1993,1995,1998,2003,2009,2015,
            Gaussian, Inc.  All Rights Reserved.
  
 This is part of the Gaussian(R) 09 program.  It is based on
 the Gaussian(R) 03 system (copyright 2003, Gaussian, Inc.),
 the Gaussian(R) 98 system (copyright 1998, Gaussian, Inc.),
 the Gaussian(R) 94 system (copyright 1995, Gaussian, Inc.),
 the Gaussian 92(TM) system (copyright 1992, Gaussian, Inc.),
 the Gaussian 90(TM) system (copyright 1990, Gaussian, Inc.),
 the Gaussian 88(TM) system (copyright 1988, Gaussian, Inc.),
 the Gaussian 86(TM) system (copyright 1986, Carnegie Mellon
 University), and the Gaussian 82(TM) system (copyright 1983,
 Carnegie Mellon University). Gaussian is a federally registered
 trademark of Gaussian, Inc.
  
 This software contains proprietary and confidential information,
 including trade secrets, belonging to Gaussian, Inc.
  
 This software is provided under written license and may be
 used, copied, transmitted, or stored only in accord with that
 written license.
  
 The following legend is applicable only to US Government
 contracts under FAR:
  
                    RESTRICTED RIGHTS LEGEND
  
 Use, reproduction and disclosure by the US Government is
 subject to restrictions as set forth in subparagraphs (a)
 and (c) of the Commercial Computer Software - Restricted
 Rights clause in FAR 52.227-19.
  
 Gaussian, Inc.
 340 Quinnipiac St., Bldg. 40, Wallingford CT 06492
  
  
 ---------------------------------------------------------------
 Warning -- This program may not be used in any manner that
 competes with the business of Gaussian, Inc. or will provide
 assistance to any competitor of Gaussian, Inc.  The licensee
 of this program is prohibited from giving any competitor of
 Gaussian, Inc. access to this program.  By using this program,
 the user acknowledges that Gaussian, Inc. is engaged in the
 business of creating and licensing software in the field of
 computational chemistry and represents and warrants to the
 licensee that it is not a competitor of Gaussian, Inc. and that
 it will not use this program in any manner prohibited above.
 ---------------------------------------------------------------
  

 Cite this work as:
 Gaussian 09, Revision E.01,
 M. J. Frisch, G. W. Trucks, H. B. Schlegel, G. E. Scuseria, 
 M. A. Robb, J. R. Cheeseman, G. Scalmani, V. Barone, B. Mennucci, 
 G. A. Petersson, H. Nakatsuji, M. Caricato, X. Li, H. P. Hratchian, 
 A. F. Izmaylov, J. Bloino, G. Zheng, J. L. Sonnenberg, M. Hada, 
 M. Ehara, K. Toyota, R. Fukuda, J. Hasegawa, M. Ishida, T. Nakajima, 
 Y. Honda, O. Kitao, H. Nakai, T. Vreven, J. A. Montgomery, Jr., 
 J. E. Peralta, F. Ogliaro, M. Bearpark, J. J. Heyd, E. Brothers, 
 K. N. Kudin, V. N. Staroverov, T. Keith, R. Kobayashi, J. Normand, 
 K. Raghavachari, A. Rendell, J. C. Burant, S. S. Iyengar, J. Tomasi, 
 M. Cossi, N. Rega, J. M. Millam, M. Klene, J. E. Knox, J. B. Cross, 
 V. Bakken, C. Adamo, J. Jaramillo, R. Gomperts, R. E. Stratmann, 
 O. Yazyev, A. J. Austin, R. Cammi, C. Pomelli, J. W. Ochterski, 
 R. L. Martin, K. Morokuma, V. G. Zakrzewski, G. A. Voth, 
 P. Salvador, J. J. Dannenberg, S. Dapprich, A. D. Daniels, 
 O. Farkas, J. B. Foresman, J. V. Ortiz, J. Cioslowski, 
 and D. J. Fox, Gaussian, Inc., Wallingford CT, 2013.
 
 ******************************************
 Gaussian 09:  EM64L-G09RevE.01 30-Nov-2015
                20-Jun-2016 
 ******************************************
 %NProcShared=4
 Will use up to    4 processors via shared memory.
 ---------------------------------------------
 #p b3lyp/6-311++G(3df,2p) freq symmetry=Loose
 ---------------------------------------------
 1/10=4,30=1,38=1/1,3;
 2/12=2,17=4,18=3,40=1/2;
 3/5=4,6=6,7=1216,11=2,16=1,25=1,30=1,71=2,74=-5,140=1/1,2,3;
 4//1;
 5/5=2,38=5,98=1/2;
 8/6=4,10=90,11=11/1;
 11/6=1,8=1,9=11,15=111,16=1/1,2,10;
 10/6=1/2;
 6/7=2,8=2,9=2,10=2,18=1,28=1/1;
 7/8=1,10=1,25=1/1,2,3,16;
 1/10=4,30=1/3;
 99//99;
 Leave Link    1 at Mon Jun 20 04:39:51 2016, MaxMem=           0 cpu:         0.3
 (Enter /home/proyectos/fulerenos/M3C-v1.9/M3C-deps_CCC/g09-AM64L-G09RevC.01/l101.exe)
 ---------
 b3lyp opt
 ---------
 Symbolic Z-matrix:
 Charge =  1 Multiplicity = 2
 C                     1.11427   1.17932   0. 
 C                    -0.02251  -2.00175   0. 
 H                     1.05951  -2.03272   0. 
 H                    -0.54657  -2.94836   0. 
 C                    -0.70177  -0.84046   0. 
 H                    -1.78352  -0.80356   0. 
 C                     0.        0.38183   0. 
 C                    -0.06012   1.80103   0. 
 H                    -0.70867   2.66477   0. 
 
 NAtoms=      9 NQM=        9 NQMF=       0 NMMI=      0 NMMIF=      0
                NMic=       0 NMicF=      0.
                    Isotopes and Nuclear Properties:
 (Nuclear quadrupole moments (NQMom) in fm**2, nuclear magnetic moments (NMagM)
  in nuclear magnetons)

  Atom         1           2           3           4           5           6           7           8           9
 IAtWgt=          12          12           1           1          12           1          12          12           1
 AtmWgt=  12.0000000  12.0000000   1.0078250   1.0078250  12.0000000   1.0078250  12.0000000  12.0000000   1.0078250
 NucSpn=           0           0           1           1           0           1           0           0           1
 AtZEff=   0.0000000   0.0000000   0.0000000   0.0000000   0.0000000   0.0000000   0.0000000   0.0000000   0.0000000
 NQMom=    0.0000000   0.0000000   0.0000000   0.0000000   0.0000000   0.0000000   0.0000000   0.0000000   0.0000000
 NMagM=    0.0000000   0.0000000   2.7928460   2.7928460   0.0000000   2.7928460   0.0000000   0.0000000   2.7928460
 AtZNuc=   6.0000000   6.0000000   1.0000000   1.0000000   6.0000000   1.0000000   6.0000000   6.0000000   1.0000000
 Leave Link  101 at Mon Jun 20 04:39:51 2016, MaxMem=    33554432 cpu:         0.2
 (Enter /home/proyectos/fulerenos/M3C-v1.9/M3C-deps_CCC/g09-AM64L-G09RevC.01/l103.exe)

 GradGradGradGradGradGradGradGradGradGradGradGradGradGradGradGradGradGrad
 Berny optimization.
 Initialization pass.
 Trust Radius=3.00D-01 FncErr=1.00D-07 GrdErr=1.00D-07
 Number of steps in this run=      2 maximum allowed number of steps=      2.
 GradGradGradGradGradGradGradGradGradGradGradGradGradGradGradGradGradGrad

 Leave Link  103 at Mon Jun 20 04:39:51 2016, MaxMem=    33554432 cpu:         0.1
 (Enter /home/proyectos/fulerenos/M3C-v1.9/M3C-deps_CCC/g09-AM64L-G09RevC.01/l202.exe)
                          Input orientation:                          
 ---------------------------------------------------------------------
 Center     Atomic      Atomic             Coordinates (Angstroms)
 Number     Number       Type             X           Y           Z
 ---------------------------------------------------------------------
      1          6           0        1.114272    1.179323    0.000000
      2          6           0       -0.022506   -2.001746    0.000000
      3          1           0        1.059506   -2.032715    0.000000
      4          1           0       -0.546571   -2.948360    0.000000
      5          6           0       -0.701774   -0.840464    0.000000
      6          1           0       -1.783523   -0.803560    0.000000
      7          6           0        0.000000    0.381830    0.000000
      8          6           0       -0.060116    1.801034    0.000000
      9          1           0       -0.708670    2.664774    0.000000
 ---------------------------------------------------------------------
                    Distance matrix (angstroms):
                    1          2          3          4          5
     1  C    0.000000
     2  C    3.378086   0.000000
     3  H    3.212505   1.082455   0.000000
     4  H    4.449288   1.081999   1.848753   0.000000
     5  C    2.716167   1.345355   2.126869   2.113602   0.000000
     6  H    3.511273   2.129984   3.097360   2.475928   1.082378
     7  C    1.370254   2.383682   2.636775   3.374745   1.409429
     8  C    1.328801   3.802966   3.993893   4.774241   2.718315
     9  H    2.351528   4.716697   5.019248   5.615474   3.505245
                    6          7          8          9
     6  H    0.000000
     7  C    2.141519   0.000000
     8  C    3.123146   1.420477   0.000000
     9  H    3.631067   2.390407   1.080125   0.000000
 Stoichiometry    C5H4(1+,2)
 Framework group  CS[SG(C5H4)]
 Deg. of freedom    15
 Full point group                 CS      NOp   2
 Largest Abelian subgroup         CS      NOp   2
 Largest concise Abelian subgroup C1      NOp   1
                         Standard orientation:                         
 ---------------------------------------------------------------------
 Center     Atomic      Atomic             Coordinates (Angstroms)
 Number     Number       Type             X           Y           Z
 ---------------------------------------------------------------------
      1          6           0        1.114272    1.179323    0.000000
      2          6           0       -0.022506   -2.001746    0.000000
      3          1           0        1.059506   -2.032715    0.000000
      4          1           0       -0.546570   -2.948360    0.000000
      5          6           0       -0.701774   -0.840464    0.000000
      6          1           0       -1.783523   -0.803560    0.000000
      7          6           0        0.000000    0.381830    0.000000
      8          6           0       -0.060116    1.801034    0.000000
      9          1           0       -0.708670    2.664774    0.000000
 ---------------------------------------------------------------------
 Rotational constants (GHZ):     22.9441421      3.6509689      3.1497650
 Leave Link  202 at Mon Jun 20 04:39:51 2016, MaxMem=    33554432 cpu:         0.0
 (Enter /home/proyectos/fulerenos/M3C-v1.9/M3C-deps_CCC/g09-AM64L-G09RevC.01/l301.exe)
 Standard basis: 6-311++G(3df,2p) (5D, 7F)
 Ernie: Thresh=  0.10000D-02 Tol=  0.10000D-05 Strict=F.
 There are   187 symmetry adapted cartesian basis functions of A'  symmetry.
 There are    78 symmetry adapted cartesian basis functions of A"  symmetry.
 There are   162 symmetry adapted basis functions of A'  symmetry.
 There are    73 symmetry adapted basis functions of A"  symmetry.
   235 basis functions,   338 primitive gaussians,   265 cartesian basis functions
    17 alpha electrons       16 beta electrons
       nuclear repulsion energy       132.2000466435 Hartrees.
 IExCor=  402 DFT=T Ex+Corr=B3LYP ExCW=0 ScaHFX=  0.200000
 ScaDFX=  0.800000  0.720000  1.000000  0.810000 ScalE2=  1.000000  1.000000
 IRadAn=      0 IRanWt=     -1 IRanGd=            0 ICorTp=0 IEmpDi=  4
 NAtoms=    9 NActive=    9 NUniq=    9 SFac= 1.00D+00 NAtFMM=   60 NAOKFM=F Big=F
 Integral buffers will be    131072 words long.
 Raffenetti 2 integral format.
 Two-electron integral symmetry is turned on.
 Leave Link  301 at Mon Jun 20 04:39:51 2016, MaxMem=    33554432 cpu:         0.2
 (Enter /home/proyectos/fulerenos/M3C-v1.9/M3C-deps_CCC/g09-AM64L-G09RevC.01/l302.exe)
 NPDir=0 NMtPBC=     1 NCelOv=     1 NCel=       1 NClECP=     1 NCelD=      1
         NCelK=      1 NCelE2=     1 NClLst=     1 CellRange=     0.0.
 One-electron integrals computed using PRISM.
 NBasis=   235 RedAO= T EigKep=  8.65D-06  NBF=   162    73
 NBsUse=   235 1.00D-06 EigRej= -1.00D+00 NBFU=   162    73
 Precomputing XC quadrature grid using
 IXCGrd= 4 IRadAn=           0 IRanWt=          -1 IRanGd=           0 AccXCQ= 0.00D+00.
 Generated NRdTot=       0 NPtTot=           0 NUsed=           0 NTot=          32
 NSgBfM=   265   265   265   265   265 MxSgAt=     9 MxSgA2=     9.
 Leave Link  302 at Mon Jun 20 04:39:51 2016, MaxMem=    33554432 cpu:         1.2
 (Enter /home/proyectos/fulerenos/M3C-v1.9/M3C-deps_CCC/g09-AM64L-G09RevC.01/l303.exe)
 DipDrv:  MaxL=1.
 Leave Link  303 at Mon Jun 20 04:39:51 2016, MaxMem=    33554432 cpu:         0.1
 (Enter /home/proyectos/fulerenos/M3C-v1.9/M3C-deps_CCC/g09-AM64L-G09RevC.01/l401.exe)
 ExpMin= 3.60D-02 ExpMax= 4.56D+03 ExpMxC= 6.82D+02 IAcc=3 IRadAn=         5 AccDes= 0.00D+00
 Harris functional with IExCor=  402 and IRadAn=       5 diagonalized for initial guess.
 HarFok:  IExCor=  402 AccDes= 0.00D+00 IRadAn=         5 IDoV= 1 UseB2=F ITyADJ=14
 ICtDFT=  3500011 ScaDFX=  1.000000  1.000000  1.000000  1.000000
 FoFCou: FMM=F IPFlag=           0 FMFlag=      100000 FMFlg1=           0
         NFxFlg=           0 DoJE=T BraDBF=F KetDBF=T FulRan=T
         wScrn=  0.000000 ICntrl=     500 IOpCl=  0 I1Cent=   200000004 NGrid=           0
         NMat0=    1 NMatS0=      1 NMatT0=    0 NMatD0=    1 NMtDS0=    0 NMtDT0=    0
 Petite list used in FoFCou.
 Harris En= -192.567768461791    
 JPrj=0 DoOrth=F DoCkMO=F.
 Initial guess orbital symmetries:
 Alpha Orbitals:
       Occupied  (A') (A') (A') (A') (A') (A') (A') (A') (A') (A')
                 (A') (A') (A') (A") (A') (A") (A')
       Virtual   (A") (A") (A") (A') (A') (A') (A') (A') (A") (A')
                 (A') (A') (A") (A') (A') (A") (A') (A') (A') (A")
                 (A') (A') (A") (A') (A') (A') (A') (A') (A') (A')
                 (A') (A') (A') (A") (A') (A') (A') (A") (A') (A')
                 (A") (A') (A") (A') (A') (A") (A') (A") (A') (A")
                 (A') (A") (A') (A") (A') (A') (A") (A') (A') (A')
                 (A') (A') (A') (A') (A") (A") (A') (A") (A') (A')
                 (A') (A") (A") (A') (A') (A') (A") (A') (A') (A')
                 (A") (A') (A") (A') (A") (A') (A') (A') (A') (A')
                 (A') (A") (A') (A") (A') (A') (A') (A') (A") (A")
                 (A') (A") (A') (A') (A") (A') (A') (A") (A') (A')
                 (A') (A") (A') (A") (A') (A") (A') (A') (A') (A")
                 (A') (A') (A") (A') (A') (A') (A") (A") (A') (A')
                 (A") (A') (A") (A") (A') (A') (A") (A") (A') (A")
                 (A') (A') (A") (A') (A") (A') (A") (A') (A') (A')
                 (A") (A') (A") (A') (A') (A') (A') (A') (A') (A')
                 (A') (A") (A') (A') (A') (A") (A') (A") (A") (A')
                 (A") (A') (A') (A") (A') (A") (A') (A') (A') (A")
                 (A") (A') (A') (A') (A') (A') (A') (A') (A") (A")
                 (A') (A") (A") (A') (A") (A') (A') (A") (A') (A")
                 (A') (A") (A') (A") (A") (A') (A') (A') (A') (A')
                 (A') (A') (A') (A') (A') (A') (A') (A')
 Beta  Orbitals:
       Occupied  (A') (A') (A') (A') (A') (A') (A') (A') (A') (A')
                 (A') (A') (A') (A") (A') (A")
       Virtual   (A') (A") (A") (A") (A') (A') (A') (A') (A') (A")
                 (A') (A') (A') (A") (A') (A') (A") (A') (A') (A')
                 (A") (A') (A') (A") (A') (A') (A') (A') (A') (A')
                 (A') (A') (A') (A') (A") (A') (A') (A') (A") (A')
                 (A') (A") (A') (A") (A') (A') (A") (A') (A") (A')
                 (A") (A') (A") (A') (A") (A') (A') (A") (A') (A')
                 (A') (A') (A') (A') (A') (A") (A") (A') (A") (A')
                 (A') (A') (A") (A") (A') (A') (A') (A") (A') (A')
                 (A') (A") (A') (A") (A') (A") (A') (A') (A') (A')
                 (A') (A') (A") (A') (A") (A') (A') (A') (A') (A")
                 (A") (A') (A") (A') (A') (A") (A') (A') (A") (A')
                 (A') (A') (A") (A') (A") (A') (A") (A') (A') (A')
                 (A") (A') (A') (A") (A') (A') (A') (A") (A") (A')
                 (A') (A") (A') (A") (A") (A') (A') (A") (A") (A')
                 (A") (A') (A') (A") (A') (A") (A') (A") (A') (A')
                 (A') (A") (A') (A") (A') (A') (A') (A') (A') (A')
                 (A') (A') (A") (A') (A') (A') (A") (A') (A") (A")
                 (A') (A") (A') (A') (A") (A') (A") (A') (A') (A')
                 (A") (A") (A') (A') (A') (A') (A') (A') (A') (A")
                 (A") (A') (A") (A") (A') (A") (A') (A') (A") (A')
                 (A") (A') (A") (A') (A") (A") (A') (A') (A') (A')
                 (A') (A') (A') (A') (A') (A') (A') (A') (A')
 The electronic state of the initial guess is 2-A'.
 Initial guess <Sx>= 0.0000 <Sy>= 0.0000 <Sz>= 0.5000 <S**2>= 0.7500 S= 0.5000
 Leave Link  401 at Mon Jun 20 04:39:53 2016, MaxMem=    33554432 cpu:         6.7
 (Enter /home/proyectos/fulerenos/M3C-v1.9/M3C-deps_CCC/g09-AM64L-G09RevC.01/l502.exe)
 UHF open shell SCF:
 Using DIIS extrapolation, IDIIS=  1040.
 Integral symmetry usage will be decided dynamically.
 IVT=      232800 IEndB=      232800 NGot=    33554432 MDV=    33408763
 LenX=    33408763 LenY=    33338097
 Requested convergence on RMS density matrix=1.00D-08 within 128 cycles.
 Requested convergence on MAX density matrix=1.00D-06.
 Requested convergence on             energy=1.00D-06.
 No special actions if energy rises.
 Fock matrices will be formed incrementally for  20 cycles.

 Cycle   1  Pass 1  IDiag  1:
 FoFJK:  IHMeth= 1 ICntrl=       0 DoSepK=F KAlg= 0 I1Cent=   0 FoldK=F
 IRaf= 980000000 NMat=   1 IRICut=       1 DoRegI=T DoRafI=F ISym2E= 1.
 FoFCou: FMM=F IPFlag=           0 FMFlag=      100000 FMFlg1=           0
         NFxFlg=           0 DoJE=F BraDBF=F KetDBF=F FulRan=T
         wScrn=  0.000000 ICntrl=       0 IOpCl=  1 I1Cent=           0 NGrid=           0
         NMat0=    1 NMatS0=      1 NMatT0=    0 NMatD0=    1 NMtDS0=    0 NMtDT0=    0
 Petite list used in FoFCou.
 E= -192.448050952872    
 DIIS: error= 2.12D-02 at cycle   1 NSaved=   1.
 NSaved= 1 IEnMin= 1 EnMin= -192.448050952872     IErMin= 1 ErrMin= 2.12D-02
 ErrMax= 2.12D-02  0.00D+00 EMaxC= 1.00D-01 BMatC= 3.26D-01 BMatP= 3.26D-01
 IDIUse=3 WtCom= 7.88D-01 WtEn= 2.12D-01
 Coeff-Com:  0.100D+01
 Coeff-En:   0.100D+01
 Coeff:      0.100D+01
 Gap=     0.187 Goal=   None    Shift=    0.000
 Gap=     0.036 Goal=   None    Shift=    0.000
 GapD=    0.036 DampG=0.250 DampE=0.500 DampFc=0.2500 IDamp=-1.
 Damping current iteration by 2.50D-01
 RMSDP=4.00D-03 MaxDP=3.10D-01              OVMax= 2.87D-01

 Cycle   2  Pass 1  IDiag  1:
 RMSU=  9.79D-04    CP:  9.87D-01
 E= -192.473177575185     Delta-E=       -0.025126622313 Rises=F Damp=T
 DIIS: error= 1.08D-02 at cycle   2 NSaved=   2.
 NSaved= 2 IEnMin= 2 EnMin= -192.473177575185     IErMin= 2 ErrMin= 1.08D-02
 ErrMax= 1.08D-02  0.00D+00 EMaxC= 1.00D-01 BMatC= 1.04D-01 BMatP= 3.26D-01
 IDIUse=3 WtCom= 8.92D-01 WtEn= 1.08D-01
 Coeff-Com: -0.933D+00 0.193D+01
 Coeff-En:   0.000D+00 0.100D+01
 Coeff:     -0.832D+00 0.183D+01
 Gap=     0.245 Goal=   None    Shift=    0.000
 Gap=     0.139 Goal=   None    Shift=    0.000
 RMSDP=1.99D-03 MaxDP=1.81D-01 DE=-2.51D-02 OVMax= 2.29D-01

 Cycle   3  Pass 1  IDiag  1:
 RMSU=  1.18D-03    CP:  9.48D-01  2.51D+00
 E= -192.513966875152     Delta-E=       -0.040789299967 Rises=F Damp=F
 DIIS: error= 8.83D-03 at cycle   3 NSaved=   3.
 NSaved= 3 IEnMin= 3 EnMin= -192.513966875152     IErMin= 3 ErrMin= 8.83D-03
 ErrMax= 8.83D-03  0.00D+00 EMaxC= 1.00D-01 BMatC= 3.06D-02 BMatP= 1.04D-01
 IDIUse=3 WtCom= 9.12D-01 WtEn= 8.83D-02
 Coeff-Com: -0.573D+00 0.101D+01 0.560D+00
 Coeff-En:   0.000D+00 0.000D+00 0.100D+01
 Coeff:     -0.522D+00 0.923D+00 0.599D+00
 Gap=     0.207 Goal=   None    Shift=    0.000
 Gap=     0.126 Goal=   None    Shift=    0.000
 RMSDP=7.58D-04 MaxDP=8.26D-02 DE=-4.08D-02 OVMax= 7.90D-02

 Cycle   4  Pass 1  IDiag  1:
 RMSU=  6.26D-04    CP:  9.48D-01  2.94D+00  9.04D-01
 E= -192.521535951957     Delta-E=       -0.007569076806 Rises=F Damp=F
 DIIS: error= 3.29D-03 at cycle   4 NSaved=   4.
 NSaved= 4 IEnMin= 4 EnMin= -192.521535951957     IErMin= 4 ErrMin= 3.29D-03
 ErrMax= 3.29D-03  0.00D+00 EMaxC= 1.00D-01 BMatC= 5.20D-03 BMatP= 3.06D-02
 IDIUse=3 WtCom= 9.67D-01 WtEn= 3.29D-02
 Coeff-Com: -0.178D+00 0.276D+00 0.331D+00 0.571D+00
 Coeff-En:   0.000D+00 0.000D+00 0.121D+00 0.879D+00
 Coeff:     -0.172D+00 0.267D+00 0.324D+00 0.582D+00
 Gap=     0.205 Goal=   None    Shift=    0.000
 Gap=     0.127 Goal=   None    Shift=    0.000
 RMSDP=2.49D-04 MaxDP=1.00D-02 DE=-7.57D-03 OVMax= 2.71D-02

 Cycle   5  Pass 1  IDiag  1:
 RMSU=  2.31D-04    CP:  9.48D-01  3.00D+00  9.39D-01  9.19D-01
 E= -192.522743635067     Delta-E=       -0.001207683110 Rises=F Damp=F
 DIIS: error= 1.34D-03 at cycle   5 NSaved=   5.
 NSaved= 5 IEnMin= 5 EnMin= -192.522743635067     IErMin= 5 ErrMin= 1.34D-03
 ErrMax= 1.34D-03  0.00D+00 EMaxC= 1.00D-01 BMatC= 8.79D-04 BMatP= 5.20D-03
 IDIUse=3 WtCom= 9.87D-01 WtEn= 1.34D-02
 Coeff-Com: -0.541D-01 0.680D-01 0.137D+00 0.361D+00 0.488D+00
 Coeff-En:   0.000D+00 0.000D+00 0.000D+00 0.976D-01 0.902D+00
 Coeff:     -0.534D-01 0.671D-01 0.135D+00 0.357D+00 0.494D+00
 Gap=     0.206 Goal=   None    Shift=    0.000
 Gap=     0.131 Goal=   None    Shift=    0.000
 RMSDP=1.10D-04 MaxDP=1.10D-02 DE=-1.21D-03 OVMax= 6.71D-03

 Cycle   6  Pass 1  IDiag  1:
 RMSU=  7.80D-05    CP:  9.48D-01  3.00D+00  9.63D-01  8.98D-01  6.99D-01
 E= -192.522965184084     Delta-E=       -0.000221549016 Rises=F Damp=F
 DIIS: error= 3.19D-04 at cycle   6 NSaved=   6.
 NSaved= 6 IEnMin= 6 EnMin= -192.522965184084     IErMin= 6 ErrMin= 3.19D-04
 ErrMax= 3.19D-04  0.00D+00 EMaxC= 1.00D-01 BMatC= 5.73D-05 BMatP= 8.79D-04
 IDIUse=3 WtCom= 9.97D-01 WtEn= 3.19D-03
 Coeff-Com: -0.794D-02 0.462D-02 0.248D-01 0.984D-01 0.244D+00 0.636D+00
 Coeff-En:   0.000D+00 0.000D+00 0.000D+00 0.000D+00 0.000D+00 0.100D+01
 Coeff:     -0.792D-02 0.461D-02 0.247D-01 0.981D-01 0.243D+00 0.638D+00
 Gap=     0.207 Goal=   None    Shift=    0.000
 Gap=     0.131 Goal=   None    Shift=    0.000
 RMSDP=5.51D-05 MaxDP=6.91D-03 DE=-2.22D-04 OVMax= 2.67D-03

 Cycle   7  Pass 1  IDiag  1:
 RMSU=  3.63D-05    CP:  9.48D-01  3.00D+00  9.69D-01  9.43D-01  8.17D-01
                    CP:  9.15D-01
 E= -192.522980863086     Delta-E=       -0.000015679002 Rises=F Damp=F
 DIIS: error= 1.59D-04 at cycle   7 NSaved=   7.
 NSaved= 7 IEnMin= 7 EnMin= -192.522980863086     IErMin= 7 ErrMin= 1.59D-04
 ErrMax= 1.59D-04  0.00D+00 EMaxC= 1.00D-01 BMatC= 1.12D-05 BMatP= 5.73D-05
 IDIUse=3 WtCom= 9.98D-01 WtEn= 1.59D-03
 Coeff-Com:  0.811D-02-0.130D-01-0.186D-01-0.322D-01 0.304D-01 0.342D+00
 Coeff-Com:  0.684D+00
 Coeff-En:   0.000D+00 0.000D+00 0.000D+00 0.000D+00 0.000D+00 0.000D+00
 Coeff-En:   0.100D+01
 Coeff:      0.810D-02-0.130D-01-0.186D-01-0.322D-01 0.303D-01 0.341D+00
 Coeff:      0.684D+00
 Gap=     0.207 Goal=   None    Shift=    0.000
 Gap=     0.131 Goal=   None    Shift=    0.000
 RMSDP=2.46D-05 MaxDP=2.96D-03 DE=-1.57D-05 OVMax= 1.75D-03

 Cycle   8  Pass 1  IDiag  1:
 RMSU=  1.57D-05    CP:  9.47D-01  3.00D+00  9.78D-01  9.55D-01  8.07D-01
                    CP:  1.07D+00  1.19D+00
 E= -192.522985372432     Delta-E=       -0.000004509346 Rises=F Damp=F
 DIIS: error= 8.14D-05 at cycle   8 NSaved=   8.
 NSaved= 8 IEnMin= 8 EnMin= -192.522985372432     IErMin= 8 ErrMin= 8.14D-05
 ErrMax= 8.14D-05  0.00D+00 EMaxC= 1.00D-01 BMatC= 1.78D-06 BMatP= 1.12D-05
 IDIUse=1 WtCom= 1.00D+00 WtEn= 0.00D+00
 Coeff-Com:  0.325D-02-0.383D-02-0.768D-02-0.271D-01-0.337D-01-0.496D-01
 Coeff-Com:  0.252D+00 0.867D+00
 Coeff:      0.325D-02-0.383D-02-0.768D-02-0.271D-01-0.337D-01-0.496D-01
 Coeff:      0.252D+00 0.867D+00
 Gap=     0.207 Goal=   None    Shift=    0.000
 Gap=     0.131 Goal=   None    Shift=    0.000
 RMSDP=1.01D-05 MaxDP=1.05D-03 DE=-4.51D-06 OVMax= 7.48D-04

 Cycle   9  Pass 1  IDiag  1:
 RMSU=  5.07D-06    CP:  9.47D-01  3.00D+00  9.81D-01  9.60D-01  8.21D-01
                    CP:  1.10D+00  1.33D+00  1.05D+00
 E= -192.522986270008     Delta-E=       -0.000000897576 Rises=F Damp=F
 DIIS: error= 2.98D-05 at cycle   9 NSaved=   9.
 NSaved= 9 IEnMin= 9 EnMin= -192.522986270008     IErMin= 9 ErrMin= 2.98D-05
 ErrMax= 2.98D-05  0.00D+00 EMaxC= 1.00D-01 BMatC= 3.75D-07 BMatP= 1.78D-06
 IDIUse=1 WtCom= 1.00D+00 WtEn= 0.00D+00
 Coeff-Com:  0.175D-03 0.314D-03-0.288D-03-0.714D-02-0.194D-01-0.816D-01
 Coeff-Com:  0.408D-01 0.416D+00 0.651D+00
 Coeff:      0.175D-03 0.314D-03-0.288D-03-0.714D-02-0.194D-01-0.816D-01
 Coeff:      0.408D-01 0.416D+00 0.651D+00
 Gap=     0.207 Goal=   None    Shift=    0.000
 Gap=     0.131 Goal=   None    Shift=    0.000
 RMSDP=3.77D-06 MaxDP=3.35D-04 DE=-8.98D-07 OVMax= 2.55D-04

 Cycle  10  Pass 1  IDiag  1:
 RMSU=  3.13D-06    CP:  9.47D-01  3.00D+00  9.82D-01  9.61D-01  8.24D-01
                    CP:  1.12D+00  1.35D+00  1.11D+00  1.12D+00
 E= -192.522986419697     Delta-E=       -0.000000149689 Rises=F Damp=F
 DIIS: error= 1.77D-05 at cycle  10 NSaved=  10.
 NSaved=10 IEnMin=10 EnMin= -192.522986419697     IErMin=10 ErrMin= 1.77D-05
 ErrMax= 1.77D-05  0.00D+00 EMaxC= 1.00D-01 BMatC= 1.12D-07 BMatP= 3.75D-07
 IDIUse=1 WtCom= 1.00D+00 WtEn= 0.00D+00
 Coeff-Com: -0.103D-02 0.149D-02 0.230D-02 0.542D-02 0.926D-03-0.273D-01
 Coeff-Com: -0.630D-01-0.113D+00 0.390D+00 0.804D+00
 Coeff:     -0.103D-02 0.149D-02 0.230D-02 0.542D-02 0.926D-03-0.273D-01
 Coeff:     -0.630D-01-0.113D+00 0.390D+00 0.804D+00
 Gap=     0.207 Goal=   None    Shift=    0.000
 Gap=     0.131 Goal=   None    Shift=    0.000
 RMSDP=2.24D-06 MaxDP=1.76D-04 DE=-1.50D-07 OVMax= 2.14D-04

 Cycle  11  Pass 1  IDiag  1:
 RMSU=  1.23D-06    CP:  9.47D-01  3.00D+00  9.82D-01  9.62D-01  8.24D-01
                    CP:  1.12D+00  1.37D+00  1.14D+00  1.32D+00  8.81D-01
 E= -192.522986479542     Delta-E=       -0.000000059845 Rises=F Damp=F
 DIIS: error= 4.04D-06 at cycle  11 NSaved=  11.
 NSaved=11 IEnMin=11 EnMin= -192.522986479542     IErMin=11 ErrMin= 4.04D-06
 ErrMax= 4.04D-06  0.00D+00 EMaxC= 1.00D-01 BMatC= 5.57D-09 BMatP= 1.12D-07
 IDIUse=1 WtCom= 1.00D+00 WtEn= 0.00D+00
 Coeff-Com: -0.194D-03 0.209D-03 0.456D-03 0.198D-02 0.263D-02 0.764D-02
 Coeff-Com: -0.182D-01-0.596D-01-0.177D-01 0.881D-01 0.995D+00
 Coeff:     -0.194D-03 0.209D-03 0.456D-03 0.198D-02 0.263D-02 0.764D-02
 Coeff:     -0.182D-01-0.596D-01-0.177D-01 0.881D-01 0.995D+00
 Gap=     0.207 Goal=   None    Shift=    0.000
 Gap=     0.131 Goal=   None    Shift=    0.000
 RMSDP=5.70D-07 MaxDP=3.02D-05 DE=-5.98D-08 OVMax= 7.03D-05

 Cycle  12  Pass 1  IDiag  1:
 RMSU=  4.42D-07    CP:  9.47D-01  3.00D+00  9.82D-01  9.62D-01  8.24D-01
                    CP:  1.12D+00  1.37D+00  1.15D+00  1.35D+00  9.41D-01
                    CP:  1.10D+00
 E= -192.522986484854     Delta-E=       -0.000000005312 Rises=F Damp=F
 DIIS: error= 2.40D-06 at cycle  12 NSaved=  12.
 NSaved=12 IEnMin=12 EnMin= -192.522986484854     IErMin=12 ErrMin= 2.40D-06
 ErrMax= 2.40D-06  0.00D+00 EMaxC= 1.00D-01 BMatC= 9.14D-10 BMatP= 5.57D-09
 IDIUse=1 WtCom= 1.00D+00 WtEn= 0.00D+00
 Coeff-Com:  0.135D-03-0.196D-03-0.294D-03-0.621D-03 0.324D-04 0.474D-02
 Coeff-Com:  0.486D-02 0.150D-01-0.534D-01-0.107D+00 0.504D-01 0.109D+01
 Coeff:      0.135D-03-0.196D-03-0.294D-03-0.621D-03 0.324D-04 0.474D-02
 Coeff:      0.486D-02 0.150D-01-0.534D-01-0.107D+00 0.504D-01 0.109D+01
 Gap=     0.207 Goal=   None    Shift=    0.000
 Gap=     0.131 Goal=   None    Shift=    0.000
 RMSDP=2.69D-07 MaxDP=1.22D-05 DE=-5.31D-09 OVMax= 4.05D-05

 Cycle  13  Pass 1  IDiag  1:
 RMSU=  1.53D-07    CP:  9.47D-01  3.00D+00  9.82D-01  9.62D-01  8.24D-01
                    CP:  1.12D+00  1.37D+00  1.15D+00  1.36D+00  9.50D-01
                    CP:  1.24D+00  1.28D+00
 E= -192.522986486019     Delta-E=       -0.000000001165 Rises=F Damp=F
 DIIS: error= 7.64D-07 at cycle  13 NSaved=  13.
 NSaved=13 IEnMin=13 EnMin= -192.522986486019     IErMin=13 ErrMin= 7.64D-07
 ErrMax= 7.64D-07  0.00D+00 EMaxC= 1.00D-01 BMatC= 1.23D-10 BMatP= 9.14D-10
 IDIUse=1 WtCom= 1.00D+00 WtEn= 0.00D+00
 Coeff-Com:  0.707D-05-0.117D-05-0.265D-04-0.176D-03-0.324D-03-0.130D-02
 Coeff-Com:  0.191D-02 0.510D-02 0.759D-02 0.194D-02-0.142D+00-0.964D-01
 Coeff-Com:  0.122D+01
 Coeff:      0.707D-05-0.117D-05-0.265D-04-0.176D-03-0.324D-03-0.130D-02
 Coeff:      0.191D-02 0.510D-02 0.759D-02 0.194D-02-0.142D+00-0.964D-01
 Coeff:      0.122D+01
 Gap=     0.207 Goal=   None    Shift=    0.000
 Gap=     0.131 Goal=   None    Shift=    0.000
 RMSDP=1.23D-07 MaxDP=6.60D-06 DE=-1.17D-09 OVMax= 2.24D-05

 Cycle  14  Pass 1  IDiag  1:
 RMSU=  6.65D-08    CP:  9.47D-01  3.00D+00  9.82D-01  9.62D-01  8.24D-01
                    CP:  1.12D+00  1.37D+00  1.15D+00  1.36D+00  9.50D-01
                    CP:  1.26D+00  1.45D+00  1.37D+00
 E= -192.522986486285     Delta-E=       -0.000000000266 Rises=F Damp=F
 DIIS: error= 3.74D-07 at cycle  14 NSaved=  14.
 NSaved=14 IEnMin=14 EnMin= -192.522986486285     IErMin=14 ErrMin= 3.74D-07
 ErrMax= 3.74D-07  0.00D+00 EMaxC= 1.00D-01 BMatC= 2.46D-11 BMatP= 1.23D-10
 IDIUse=1 WtCom= 1.00D+00 WtEn= 0.00D+00
 Coeff-Com: -0.210D-04 0.277D-04 0.479D-04 0.129D-03 0.692D-04-0.500D-03
 Coeff-Com: -0.105D-02-0.390D-02 0.656D-02 0.156D-01 0.338D-01-0.156D+00
 Coeff-Com: -0.364D+00 0.147D+01
 Coeff:     -0.210D-04 0.277D-04 0.479D-04 0.129D-03 0.692D-04-0.500D-03
 Coeff:     -0.105D-02-0.390D-02 0.656D-02 0.156D-01 0.338D-01-0.156D+00
 Coeff:     -0.364D+00 0.147D+01
 Gap=     0.207 Goal=   None    Shift=    0.000
 Gap=     0.131 Goal=   None    Shift=    0.000
 RMSDP=6.30D-08 MaxDP=3.33D-06 DE=-2.66D-10 OVMax= 1.36D-05

 Cycle  15  Pass 1  IDiag  1:
 RMSU=  3.53D-08    CP:  9.47D-01  3.00D+00  9.82D-01  9.62D-01  8.24D-01
                    CP:  1.12D+00  1.37D+00  1.15D+00  1.36D+00  9.52D-01
                    CP:  1.27D+00  1.49D+00  1.60D+00  1.44D+00
 E= -192.522986486352     Delta-E=       -0.000000000067 Rises=F Damp=F
 DIIS: error= 1.21D-07 at cycle  15 NSaved=  15.
 NSaved=15 IEnMin=15 EnMin= -192.522986486352     IErMin=15 ErrMin= 1.21D-07
 ErrMax= 1.21D-07  0.00D+00 EMaxC= 1.00D-01 BMatC= 2.70D-12 BMatP= 2.46D-11
 IDIUse=1 WtCom= 1.00D+00 WtEn= 0.00D+00
 Coeff-Com:  0.277D-06-0.120D-05 0.356D-05 0.208D-04 0.348D-04 0.221D-03
 Coeff-Com: -0.199D-03-0.251D-03-0.185D-02-0.113D-02 0.168D-01 0.263D-01
 Coeff-Com: -0.152D+00-0.145D+00 0.126D+01
 Coeff:      0.277D-06-0.120D-05 0.356D-05 0.208D-04 0.348D-04 0.221D-03
 Coeff:     -0.199D-03-0.251D-03-0.185D-02-0.113D-02 0.168D-01 0.263D-01
 Coeff:     -0.152D+00-0.145D+00 0.126D+01
 Gap=     0.207 Goal=   None    Shift=    0.000
 Gap=     0.131 Goal=   None    Shift=    0.000
 RMSDP=2.24D-08 MaxDP=1.09D-06 DE=-6.74D-11 OVMax= 4.78D-06

 Cycle  16  Pass 1  IDiag  1:
 RMSU=  6.66D-09    CP:  9.47D-01  3.00D+00  9.82D-01  9.62D-01  8.24D-01
                    CP:  1.12D+00  1.37D+00  1.15D+00  1.36D+00  9.52D-01
                    CP:  1.27D+00  1.50D+00  1.64D+00  1.65D+00  1.38D+00
 E= -192.522986486359     Delta-E=       -0.000000000007 Rises=F Damp=F
 DIIS: error= 2.71D-08 at cycle  16 NSaved=  16.
 NSaved=16 IEnMin=16 EnMin= -192.522986486359     IErMin=16 ErrMin= 2.71D-08
 ErrMax= 2.71D-08  0.00D+00 EMaxC= 1.00D-01 BMatC= 1.83D-13 BMatP= 2.70D-12
 IDIUse=1 WtCom= 1.00D+00 WtEn= 0.00D+00
 Coeff-Com:  0.125D-05-0.153D-05-0.381D-05-0.114D-04-0.533D-05 0.105D-04
 Coeff-Com:  0.992D-04 0.287D-03-0.339D-03-0.107D-02-0.417D-02 0.979D-02
 Coeff-Com:  0.458D-01-0.107D+00-0.138D+00 0.119D+01
 Coeff:      0.125D-05-0.153D-05-0.381D-05-0.114D-04-0.533D-05 0.105D-04
 Coeff:      0.992D-04 0.287D-03-0.339D-03-0.107D-02-0.417D-02 0.979D-02
 Coeff:      0.458D-01-0.107D+00-0.138D+00 0.119D+01
 Gap=     0.207 Goal=   None    Shift=    0.000
 Gap=     0.131 Goal=   None    Shift=    0.000
 RMSDP=5.23D-09 MaxDP=2.93D-07 DE=-6.59D-12 OVMax= 8.67D-07

 SCF Done:  E(UB3LYP) =  -192.522986486     A.U. after   16 cycles
            NFock= 16  Conv=0.52D-08     -V/T= 2.0047
 <Sx>= 0.0000 <Sy>= 0.0000 <Sz>= 0.5000 <S**2>= 0.7546 S= 0.5023
 <L.S>= 0.000000000000E+00
 KE= 1.916272731785D+02 PE=-7.026864936451D+02 EE= 1.863361873367D+02
 Annihilation of the first spin contaminant:
 S**2 before annihilation     0.7546,   after     0.7500
 Leave Link  502 at Mon Jun 20 04:42:46 2016, MaxMem=    33554432 cpu:       663.7
 (Enter /home/proyectos/fulerenos/M3C-v1.9/M3C-deps_CCC/g09-AM64L-G09RevC.01/l801.exe)
 DoSCS=F DFT=T ScalE2(SS,OS)=  1.000000  1.000000
 Range of M.O.s used for correlation:     1   235
 NBasis=   235 NAE=    17 NBE=    16 NFC=     0 NFV=     0
 NROrb=    235 NOA=    17 NOB=    16 NVA=   218 NVB=   219

 **** Warning!!: The largest alpha MO coefficient is  0.11227367D+03


 **** Warning!!: The largest beta MO coefficient is  0.11381858D+03

 Leave Link  801 at Mon Jun 20 04:42:46 2016, MaxMem=    33554432 cpu:         0.1
 (Enter /home/proyectos/fulerenos/M3C-v1.9/M3C-deps_CCC/g09-AM64L-G09RevC.01/l1101.exe)
 Using compressed storage, NAtomX=     9.
 Will process     10 centers per pass.
 Leave Link 1101 at Mon Jun 20 04:42:46 2016, MaxMem=    33554432 cpu:         1.2
 (Enter /home/proyectos/fulerenos/M3C-v1.9/M3C-deps_CCC/g09-AM64L-G09RevC.01/l1102.exe)
 Symmetrizing basis deriv contribution to polar:
 IMax=3 JMax=2 DiffMx= 0.00D+00
 Leave Link 1102 at Mon Jun 20 04:42:46 2016, MaxMem=    33554432 cpu:         0.1
 (Enter /home/proyectos/fulerenos/M3C-v1.9/M3C-deps_CCC/g09-AM64L-G09RevC.01/l1110.exe)
 Forming Gx(P) for the SCF density, NAtomX=     9.
 Integral derivatives from FoFJK, PRISM(SPDF).
 Do as many integral derivatives as possible in FoFJK.
 G2DrvN: MDV=      33554256.
 G2DrvN: will do    10 centers at a time, making    1 passes.
 Calling FoFCou, ICntrl=  3107 FMM=F I1Cent=   0 AccDes= 0.00D+00.
 FoFJK:  IHMeth= 1 ICntrl=    3107 DoSepK=F KAlg= 0 I1Cent=   0 FoldK=F
 IRaf=         0 NMat=   1 IRICut=       1 DoRegI=T DoRafI=F ISym2E= 1.
 FoFCou: FMM=F IPFlag=           0 FMFlag=      100000 FMFlg1=           0
         NFxFlg=           0 DoJE=F BraDBF=F KetDBF=F FulRan=T
         wScrn=  0.000000 ICntrl=    3107 IOpCl=  1 I1Cent=           0 NGrid=           0
         NMat0=    1 NMatS0=      1 NMatT0=    0 NMatD0=    1 NMtDS0=    0 NMtDT0=    0
 Petite list used in FoFCou.
 End of G2Drv F.D. properties file   721 does not exist.
 End of G2Drv F.D. properties file   722 does not exist.
 End of G2Drv F.D. properties file   788 does not exist.
 Leave Link 1110 at Mon Jun 20 04:44:24 2016, MaxMem=    33554432 cpu:       380.9
 (Enter /home/proyectos/fulerenos/M3C-v1.9/M3C-deps_CCC/g09-AM64L-G09RevC.01/l1002.exe)
 Minotr:  UHF open shell wavefunction.
          IDoAtm=111111111
          Direct CPHF calculation.
          Differentiating once with respect to electric field.
                with respect to dipole field.
          Differentiating once with respect to nuclear coordinates.
          Using symmetry in CPHF.
          Requested convergence is 1.0D-08 RMS, and 1.0D-07 maximum.
          Secondary convergence is 1.0D-12 RMS, and 1.0D-12 maximum.
          NewPWx=T KeepS1=F KeepF1=F KeepIn=T MapXYZ=F SortEE=F KeepMc=T.
          MDV=      33553868 using IRadAn=       2.
 Generate precomputed XC quadrature information.
          Solving linear equations simultaneously, MaxMat=       0.
 FoFJK:  IHMeth= 1 ICntrl=       0 DoSepK=F KAlg= 0 I1Cent=   0 FoldK=F
 IRaf= 980000000 NMat=  30 IRICut=      75 DoRegI=T DoRafI=T ISym2E= 2.
 FoFCou: FMM=F IPFlag=           0 FMFlag=      100000 FMFlg1=           0
         NFxFlg=           0 DoJE=F BraDBF=F KetDBF=F FulRan=T
         wScrn=  0.000000 ICntrl=       0 IOpCl=  1 I1Cent=           0 NGrid=           0
         NMat0=   30 NMatS0=     30 NMatT0=    0 NMatD0=   30 NMtDS0=    0 NMtDT0=    0
 Integrals replicated using symmetry in FoFCou.
          There are    30 degrees of freedom in the 1st order CPHF.  IDoFFX=6 NUNeed=     3.
     27 vectors produced by pass  0 Test12= 2.40D-14 3.33D-09 XBig12= 2.23D+02 9.35D+00.
 AX will form    27 AO Fock derivatives at one time.
     27 vectors produced by pass  1 Test12= 2.40D-14 3.33D-09 XBig12= 2.96D+01 1.23D+00.
     27 vectors produced by pass  2 Test12= 2.40D-14 3.33D-09 XBig12= 1.23D+00 3.28D-01.
     27 vectors produced by pass  3 Test12= 2.40D-14 3.33D-09 XBig12= 1.38D-02 2.60D-02.
     27 vectors produced by pass  4 Test12= 2.40D-14 3.33D-09 XBig12= 2.06D-04 3.95D-03.
     27 vectors produced by pass  5 Test12= 2.40D-14 3.33D-09 XBig12= 1.95D-06 1.87D-04.
     24 vectors produced by pass  6 Test12= 2.40D-14 3.33D-09 XBig12= 1.02D-08 1.36D-05.
      7 vectors produced by pass  7 Test12= 2.40D-14 3.33D-09 XBig12= 4.28D-11 7.40D-07.
      3 vectors produced by pass  8 Test12= 2.40D-14 3.33D-09 XBig12= 5.14D-13 1.29D-07.
      3 vectors produced by pass  9 Test12= 2.40D-14 3.33D-09 XBig12= 7.71D-14 4.28D-08.
      1 vectors produced by pass 10 Test12= 2.40D-14 3.33D-09 XBig12= 1.00D-15 7.43D-09.
 InvSVY:  IOpt=1 It=  1 EMax= 5.33D-15
 Solved reduced A of dimension   200 with    30 vectors.
 FullF1:  Do perturbations    1 to     3.
 Isotropic polarizability for W=    0.000000       50.95 Bohr**3.
 End of Minotr F.D. properties file   721 does not exist.
 End of Minotr F.D. properties file   722 does not exist.
 End of Minotr F.D. properties file   788 does not exist.
 Leave Link 1002 at Mon Jun 20 04:50:08 2016, MaxMem=    33554432 cpu:      1374.7
 (Enter /home/proyectos/fulerenos/M3C-v1.9/M3C-deps_CCC/g09-AM64L-G09RevC.01/l601.exe)
 Copying SCF densities to generalized density rwf, IOpCl= 1 IROHF=0.

 **********************************************************************

            Population analysis using the SCF density.

 **********************************************************************

 Orbital symmetries:
 Alpha Orbitals:
       Occupied  (A') (A') (A') (A') (A') (A') (A') (A') (A') (A')
                 (A') (A') (A") (A') (A') (A') (A")
       Virtual   (A") (A") (A") (A') (A') (A') (A') (A") (A') (A')
                 (A') (A") (A') (A') (A') (A") (A') (A') (A") (A')
                 (A") (A') (A') (A') (A') (A') (A') (A') (A') (A')
                 (A') (A') (A") (A') (A') (A") (A') (A') (A") (A')
                 (A') (A") (A') (A') (A") (A') (A') (A") (A') (A")
                 (A') (A") (A') (A") (A') (A") (A') (A') (A') (A')
                 (A') (A") (A") (A') (A') (A') (A') (A") (A') (A')
                 (A') (A") (A") (A') (A') (A') (A') (A") (A') (A')
                 (A") (A") (A') (A") (A') (A') (A') (A') (A') (A')
                 (A') (A") (A') (A') (A") (A') (A') (A") (A') (A")
                 (A') (A') (A") (A') (A') (A") (A') (A") (A') (A')
                 (A') (A") (A') (A") (A') (A") (A') (A') (A') (A")
                 (A') (A') (A') (A") (A') (A') (A") (A') (A") (A')
                 (A') (A") (A") (A') (A") (A') (A") (A") (A') (A")
                 (A') (A") (A') (A') (A") (A') (A") (A') (A') (A")
                 (A') (A') (A") (A') (A') (A') (A') (A') (A') (A')
                 (A') (A") (A') (A') (A") (A') (A') (A") (A") (A')
                 (A") (A') (A') (A") (A') (A") (A') (A') (A") (A')
                 (A") (A') (A') (A') (A') (A') (A') (A') (A") (A')
                 (A") (A") (A') (A") (A") (A') (A") (A') (A") (A')
                 (A') (A") (A') (A") (A") (A') (A') (A') (A') (A')
                 (A') (A') (A') (A') (A') (A') (A') (A')
 Beta  Orbitals:
       Occupied  (A') (A') (A') (A') (A') (A') (A') (A') (A') (A')
                 (A') (A") (A') (A') (A') (A")
       Virtual   (A') (A") (A") (A") (A') (A') (A') (A') (A") (A')
                 (A') (A') (A") (A') (A') (A") (A') (A') (A') (A")
                 (A') (A") (A') (A') (A') (A') (A') (A') (A') (A')
                 (A') (A') (A') (A") (A') (A') (A") (A') (A") (A')
                 (A') (A') (A") (A') (A') (A") (A') (A') (A") (A")
                 (A') (A') (A") (A') (A") (A') (A") (A') (A') (A')
                 (A') (A') (A") (A") (A') (A') (A') (A') (A") (A')
                 (A') (A") (A') (A") (A') (A') (A') (A") (A') (A')
                 (A') (A") (A") (A') (A") (A') (A') (A') (A') (A')
                 (A') (A') (A") (A') (A") (A') (A') (A') (A") (A')
                 (A") (A') (A') (A") (A') (A") (A') (A') (A") (A')
                 (A') (A') (A") (A') (A") (A') (A") (A') (A') (A')
                 (A") (A') (A') (A') (A") (A') (A') (A") (A') (A")
                 (A') (A") (A') (A") (A') (A") (A') (A") (A") (A')
                 (A") (A') (A") (A') (A') (A") (A') (A") (A') (A')
                 (A") (A') (A') (A") (A') (A') (A') (A') (A') (A')
                 (A') (A') (A") (A') (A') (A") (A') (A') (A") (A")
                 (A') (A") (A') (A') (A") (A') (A") (A') (A') (A")
                 (A') (A") (A') (A') (A') (A') (A') (A') (A') (A")
                 (A") (A') (A") (A') (A") (A") (A') (A') (A") (A")
                 (A') (A') (A") (A") (A') (A") (A') (A') (A') (A')
                 (A') (A') (A') (A') (A') (A') (A') (A') (A')
 The electronic state is 2-A'.
 Alpha  occ. eigenvalues --  -10.50219 -10.49823 -10.48819 -10.41561 -10.40996
 Alpha  occ. eigenvalues --   -1.20158  -1.02292  -0.87035  -0.83387  -0.74262
 Alpha  occ. eigenvalues --   -0.72577  -0.65900  -0.65208  -0.64321  -0.59325
 Alpha  occ. eigenvalues --   -0.52451  -0.51223
 Alpha virt. eigenvalues --   -0.30542  -0.26499  -0.16112  -0.14601  -0.13768
 Alpha virt. eigenvalues --   -0.12603  -0.10614  -0.09671  -0.09236  -0.07694
 Alpha virt. eigenvalues --   -0.06825  -0.05432  -0.04876  -0.04662  -0.04417
 Alpha virt. eigenvalues --   -0.03624  -0.02175  -0.01195  -0.00570   0.00227
 Alpha virt. eigenvalues --    0.00863   0.01293   0.01573   0.02355   0.03079
 Alpha virt. eigenvalues --    0.04674   0.05148   0.07262   0.07558   0.08465
 Alpha virt. eigenvalues --    0.09847   0.13119   0.13232   0.14231   0.17124
 Alpha virt. eigenvalues --    0.18784   0.19975   0.20534   0.20564   0.21112
 Alpha virt. eigenvalues --    0.22919   0.24268   0.25496   0.25577   0.27551
 Alpha virt. eigenvalues --    0.28004   0.28943   0.31848   0.32413   0.32780
 Alpha virt. eigenvalues --    0.35818   0.36248   0.36998   0.37517   0.39361
 Alpha virt. eigenvalues --    0.40856   0.41274   0.42957   0.44503   0.46992
 Alpha virt. eigenvalues --    0.48601   0.50243   0.50993   0.51023   0.53646
 Alpha virt. eigenvalues --    0.53920   0.55278   0.59289   0.61620   0.62741
 Alpha virt. eigenvalues --    0.65376   0.65483   0.66454   0.72166   0.75798
 Alpha virt. eigenvalues --    0.80748   0.83044   0.83092   0.88503   0.88709
 Alpha virt. eigenvalues --    0.89642   0.93322   0.94257   0.97680   0.98174
 Alpha virt. eigenvalues --    1.00231   1.01253   1.04978   1.08790   1.12415
 Alpha virt. eigenvalues --    1.15273   1.16048   1.18185   1.19040   1.19979
 Alpha virt. eigenvalues --    1.21225   1.22561   1.29160   1.30685   1.30693
 Alpha virt. eigenvalues --    1.32967   1.38014   1.38287   1.48920   1.53520
 Alpha virt. eigenvalues --    1.54389   1.65091   1.66612   1.68790   1.75502
 Alpha virt. eigenvalues --    1.75944   1.79367   1.84645   1.85645   1.90512
 Alpha virt. eigenvalues --    2.01634   2.05834   2.06819   2.18051   2.22050
 Alpha virt. eigenvalues --    2.26882   2.34931   2.41233   2.42216   2.43507
 Alpha virt. eigenvalues --    2.44175   2.47684   2.51934   2.52374   2.56340
 Alpha virt. eigenvalues --    2.59000   2.59146   2.63711   2.64052   2.68384
 Alpha virt. eigenvalues --    2.69850   2.70611   2.72764   2.75416   2.78484
 Alpha virt. eigenvalues --    2.84677   2.85908   2.87353   2.93657   2.98280
 Alpha virt. eigenvalues --    3.03055   3.07567   3.10439   3.13418   3.16727
 Alpha virt. eigenvalues --    3.17634   3.22314   3.30847   3.34141   3.37452
 Alpha virt. eigenvalues --    3.40450   3.40691   3.45611   3.49995   3.62297
 Alpha virt. eigenvalues --    3.69412   3.72065   3.80031   3.86763   3.90023
 Alpha virt. eigenvalues --    3.91541   3.98836   4.00145   4.02910   4.08547
 Alpha virt. eigenvalues --    4.09948   4.11787   4.20509   4.24865   4.32627
 Alpha virt. eigenvalues --    4.38459   4.38492   4.53315   4.61440   4.62445
 Alpha virt. eigenvalues --    4.84760   4.96782   5.29823   5.43079   5.75959
 Alpha virt. eigenvalues --    5.85555   6.15987   6.33670   6.75447   6.78527
 Alpha virt. eigenvalues --    6.78927   6.84161   6.85524   6.91925   6.93261
 Alpha virt. eigenvalues --    6.94406   7.04562   7.04726   7.07552   7.08926
 Alpha virt. eigenvalues --    7.12950   7.24996   7.29370   7.29480   7.47111
 Alpha virt. eigenvalues --    7.59908   7.73614   7.84058   7.95696   8.08182
 Alpha virt. eigenvalues --    8.15092   8.21318   8.53673  23.72281  24.35580
 Alpha virt. eigenvalues --   25.18772  25.45726  25.55677
  Beta  occ. eigenvalues --  -10.49925 -10.48624 -10.48321 -10.41550 -10.40995
  Beta  occ. eigenvalues --   -1.19008  -1.02096  -0.86624  -0.82436  -0.73726
  Beta  occ. eigenvalues --   -0.69850  -0.64631  -0.64448  -0.62514  -0.59000
  Beta  occ. eigenvalues --   -0.51080
  Beta virt. eigenvalues --   -0.37969  -0.30381  -0.24834  -0.15627  -0.14406
  Beta virt. eigenvalues --   -0.13627  -0.12246  -0.10458  -0.09653  -0.09118
  Beta virt. eigenvalues --   -0.07440  -0.06045  -0.05409  -0.04824  -0.04283
  Beta virt. eigenvalues --   -0.03556  -0.03286  -0.02019  -0.01027  -0.00578
  Beta virt. eigenvalues --    0.00386   0.00992   0.01390   0.01728   0.02551
  Beta virt. eigenvalues --    0.03257   0.05030   0.05487   0.07481   0.07888
  Beta virt. eigenvalues --    0.08784   0.09939   0.13225   0.13324   0.14602
  Beta virt. eigenvalues --    0.17568   0.19241   0.20069   0.20666   0.21036
  Beta virt. eigenvalues --    0.21263   0.23423   0.24467   0.25735   0.25928
  Beta virt. eigenvalues --    0.27887   0.28053   0.30084   0.32130   0.33211
  Beta virt. eigenvalues --    0.34154   0.35990   0.36577   0.37355   0.37840
  Beta virt. eigenvalues --    0.39775   0.41004   0.41725   0.43474   0.45026
  Beta virt. eigenvalues --    0.47355   0.49144   0.50324   0.51298   0.51585
  Beta virt. eigenvalues --    0.53873   0.54430   0.55803   0.59714   0.61904
  Beta virt. eigenvalues --    0.63397   0.65692   0.65800   0.66537   0.72292
  Beta virt. eigenvalues --    0.76342   0.81029   0.83153   0.83408   0.88680
  Beta virt. eigenvalues --    0.88898   0.89756   0.93506   0.94479   0.97749
  Beta virt. eigenvalues --    0.98305   1.00397   1.01532   1.05205   1.10491
  Beta virt. eigenvalues --    1.12712   1.15501   1.17550   1.18279   1.20255
  Beta virt. eigenvalues --    1.21019   1.21460   1.22737   1.29832   1.30949
  Beta virt. eigenvalues --    1.31255   1.33091   1.39014   1.39086   1.50233
  Beta virt. eigenvalues --    1.54577   1.54988   1.65887   1.67784   1.69950
  Beta virt. eigenvalues --    1.77693   1.79113   1.81132   1.85541   1.86835
  Beta virt. eigenvalues --    1.91467   2.02695   2.06773   2.07989   2.18435
  Beta virt. eigenvalues --    2.23047   2.27291   2.35708   2.41952   2.42813
  Beta virt. eigenvalues --    2.44012   2.44751   2.47997   2.52669   2.53055
  Beta virt. eigenvalues --    2.57436   2.59381   2.59828   2.64241   2.65447
  Beta virt. eigenvalues --    2.68634   2.70698   2.70789   2.73507   2.75789
  Beta virt. eigenvalues --    2.78907   2.85313   2.87250   2.88347   2.94006
  Beta virt. eigenvalues --    2.99053   3.03645   3.08506   3.11220   3.14653
  Beta virt. eigenvalues --    3.18041   3.18055   3.22901   3.31645   3.35249
  Beta virt. eigenvalues --    3.38125   3.40794   3.41681   3.46510   3.50895
  Beta virt. eigenvalues --    3.63662   3.72064   3.72763   3.80685   3.87229
  Beta virt. eigenvalues --    3.90782   3.93138   3.98963   4.00219   4.03641
  Beta virt. eigenvalues --    4.08682   4.10272   4.12431   4.20800   4.24923
  Beta virt. eigenvalues --    4.33103   4.38941   4.40245   4.54294   4.62156
  Beta virt. eigenvalues --    4.62862   4.85333   4.97128   5.30183   5.43131
  Beta virt. eigenvalues --    5.76282   5.86001   6.17185   6.34152   6.76689
  Beta virt. eigenvalues --    6.80147   6.80478   6.84142   6.87710   6.92170
  Beta virt. eigenvalues --    6.94425   6.95399   7.05015   7.05527   7.08885
  Beta virt. eigenvalues --    7.10037   7.15139   7.27488   7.30016   7.30950
  Beta virt. eigenvalues --    7.47260   7.60013   7.74022   7.84654   7.96806
  Beta virt. eigenvalues --    8.09722   8.15347   8.23305   8.55620  23.72830
  Beta virt. eigenvalues --   24.35833  25.19162  25.46129  25.56468
          Condensed to atoms (all electrons):
               1          2          3          4          5          6
     1  C    8.699171  -0.048617  -0.038510   0.007710  -0.465066   0.015526
     2  C   -0.048617   6.241931   0.523037   0.460777  -0.411759  -0.092354
     3  H   -0.038510   0.523037   0.428522  -0.013472  -0.089786  -0.002598
     4  H    0.007710   0.460777  -0.013472   0.415730  -0.107884  -0.001028
     5  C   -0.465066  -0.411759  -0.089786  -0.107884   6.799066   0.449188
     6  H    0.015526  -0.092354  -0.002598  -0.001028   0.449188   0.451007
     7  C   -0.949316  -0.093351  -0.006453   0.016309   0.138794  -0.092721
     8  C   -1.465008  -0.080098   0.006275  -0.009203  -0.108555   0.058625
     9  H    0.007806   0.001373  -0.000471   0.000308  -0.016315   0.001969
               7          8          9
     1  C   -0.949316  -1.465008   0.007806
     2  C   -0.093351  -0.080098   0.001373
     3  H   -0.006453   0.006275  -0.000471
     4  H    0.016309  -0.009203   0.000308
     5  C    0.138794  -0.108555  -0.016315
     6  H   -0.092721   0.058625   0.001969
     7  C    6.925886  -0.258017  -0.017712
     8  C   -0.258017   7.382147   0.314137
     9  H   -0.017712   0.314137   0.389466
          Atomic-Atomic Spin Densities.
               1          2          3          4          5          6
     1  C    1.621956  -0.019612   0.006588  -0.002213  -0.046962  -0.001184
     2  C   -0.019612  -0.008849  -0.001224   0.002018   0.006240   0.001959
     3  H    0.006588  -0.001224   0.000444  -0.000747   0.002730  -0.000061
     4  H   -0.002213   0.002018  -0.000747   0.002502  -0.005202   0.000260
     5  C   -0.046962   0.006240   0.002730  -0.005202   0.037010   0.004161
     6  H   -0.001184   0.001959  -0.000061   0.000260   0.004161   0.003709
     7  C   -0.597671   0.006877  -0.006211   0.005247  -0.016799  -0.000516
     8  C   -0.098187   0.006215   0.000400   0.000029   0.066086  -0.002590
     9  H   -0.008970   0.000215  -0.000067   0.000077  -0.001982  -0.000122
               7          8          9
     1  C   -0.597671  -0.098187  -0.008970
     2  C    0.006877   0.006215   0.000215
     3  H   -0.006211   0.000400  -0.000067
     4  H    0.005247   0.000029   0.000077
     5  C   -0.016799   0.066086  -0.001982
     6  H   -0.000516  -0.002590  -0.000122
     7  C    0.513085   0.075252   0.008816
     8  C    0.075252   0.055652   0.001579
     9  H    0.008816   0.001579   0.005634
 Mulliken charges and spin densities:
               1          2
     1  C    0.236304   0.853746
     2  C   -0.500938  -0.006161
     3  H    0.193457   0.001852
     4  H    0.230753   0.001970
     5  C   -0.187681   0.045283
     6  H    0.212388   0.005615
     7  C    0.336581  -0.011920
     8  C    0.159696   0.104436
     9  H    0.319441   0.005179
 Sum of Mulliken charges =   1.00000   1.00000
 Mulliken charges and spin densities with hydrogens summed into heavy atoms:
               1          2
     1  C    0.236304   0.853746
     2  C   -0.076728  -0.002339
     5  C    0.024707   0.050898
     7  C    0.336581  -0.011920
     8  C    0.479137   0.109615
 APT charges:
               1
     1  C    0.027646
     2  C    0.227493
     3  H    0.099154
     4  H    0.121456
     5  C   -0.418967
     6  H    0.111249
     7  C    0.671393
     8  C   -0.091561
     9  H    0.252136
 Sum of APT charges =   1.00000
 APT charges with hydrogens summed into heavy atoms:
               1
     1  C    0.027646
     2  C    0.448103
     5  C   -0.307718
     7  C    0.671393
     8  C    0.160576
 Electronic spatial extent (au):  <R**2>=            375.0660
 Charge=              1.0000 electrons
 Dipole moment (field-independent basis, Debye):
    X=             -0.7885    Y=              0.9990    Z=              0.0000  Tot=              1.2727
 Quadrupole moment (field-independent basis, Debye-Ang):
   XX=            -22.5655   YY=             -6.9765   ZZ=            -27.9131
   XY=             -0.7637   XZ=              0.0000   YZ=              0.0000
 Traceless Quadrupole moment (field-independent basis, Debye-Ang):
   XX=             -3.4138   YY=             12.1752   ZZ=             -8.7614
   XY=             -0.7637   XZ=              0.0000   YZ=              0.0000
 Octapole moment (field-independent basis, Debye-Ang**2):
  XXX=             -4.3311  YYY=             -0.3119  ZZZ=              0.0000  XYY=             -7.5677
  XXY=             -1.3372  XXZ=              0.0000  XZZ=              0.1346  YZZ=              1.2404
  YYZ=              0.0000  XYZ=              0.0000
 Hexadecapole moment (field-independent basis, Debye-Ang**3):
 XXXX=            -86.7650 YYYY=           -242.9945 ZZZZ=            -28.8949 XXXY=            -24.6277
 XXXZ=              0.0000 YYYX=            -37.3147 YYYZ=              0.0000 ZZZX=              0.0000
 ZZZY=              0.0000 XXYY=            -66.7471 XXZZ=            -21.5510 YYZZ=            -69.7293
 XXYZ=              0.0000 YYXZ=              0.0000 ZZXY=             -9.2795
 N-N= 1.322000466435D+02 E-N=-7.026864935004D+02  KE= 1.916272731785D+02
 Symmetry A'   KE= 1.871862735405D+02
 Symmetry A"   KE= 4.440999637952D+00
  Exact polarizability:  45.644   2.656  77.543   0.000  -0.000  29.662
 Approx polarizability:  75.749   0.177 123.827  -0.000  -0.000  44.140
                          Isotropic Fermi Contact Couplings
        Atom                 a.u.       MegaHertz       Gauss      10(-4) cm-1
     1  C(13)              0.57313     644.30482     229.90398     214.91696
     2  C(13)              0.01029      11.57296       4.12952       3.86032
     3  H(1)              -0.00006      -0.25315      -0.09033      -0.08444
     4  H(1)               0.00092       4.11845       1.46956       1.37377
     5  C(13)             -0.00286      -3.21045      -1.14557      -1.07089
     6  H(1)               0.00408      18.25093       6.51239       6.08786
     7  C(13)              0.00532       5.97541       2.13218       1.99318
     8  C(13)             -0.00361      -4.05743      -1.44779      -1.35341
     9  H(1)               0.00180       8.03339       2.86651       2.67965
 --------------------------------------------------------
       Center         ----  Spin Dipole Couplings  ----
                      3XX-RR        3YY-RR        3ZZ-RR
 --------------------------------------------------------
     1   Atom        0.813172     -0.436355     -0.376817
     2   Atom        0.000020      0.026172     -0.026193
     3   Atom       -0.003170      0.008288     -0.005118
     4   Atom       -0.000351      0.002880     -0.002528
     5   Atom       -0.002206      0.013180     -0.010974
     6   Atom        0.005155     -0.000213     -0.004942
     7   Atom        0.242393     -0.066452     -0.175941
     8   Atom        0.181233      0.000436     -0.181669
     9   Atom        0.014942      0.004249     -0.019190
 --------------------------------------------------------
                        XY            XZ            YZ
 --------------------------------------------------------
     1   Atom        0.118533      0.000000      0.000000
     2   Atom       -0.007311      0.000000      0.000000
     3   Atom       -0.000222      0.000000      0.000000
     4   Atom        0.001492      0.000000      0.000000
     5   Atom       -0.000445      0.000000      0.000000
     6   Atom        0.006761      0.000000      0.000000
     7   Atom       -0.139707      0.000000      0.000000
     8   Atom        0.146641      0.000000      0.000000
     9   Atom       -0.014952      0.000000      0.000000
 --------------------------------------------------------


 ---------------------------------------------------------------------------------
              Anisotropic Spin Dipole Couplings in Principal Axis System
 ---------------------------------------------------------------------------------

       Atom             a.u.   MegaHertz   Gauss  10(-4) cm-1        Axes

              Baa    -0.4475   -60.050   -21.427   -20.031 -0.0936  0.9956 -0.0000
     1 C(13)  Bbb    -0.3768   -50.565   -18.043   -16.867  0.0000  0.0000  1.0000
              Bcc     0.8243   110.615    39.470    36.897  0.9956  0.0936  0.0000
 
              Baa    -0.0262    -3.515    -1.254    -1.172  0.0000  0.0000  1.0000
     2 C(13)  Bbb    -0.0019    -0.253    -0.090    -0.084  0.9677  0.2522  0.0000
              Bcc     0.0281     3.768     1.344     1.257 -0.2522  0.9677  0.0000
 
              Baa    -0.0051    -2.731    -0.974    -0.911  0.0000  0.0000  1.0000
     3 H(1)   Bbb    -0.0032    -1.694    -0.604    -0.565  0.9998  0.0193  0.0000
              Bcc     0.0083     4.424     1.579     1.476 -0.0193  0.9998  0.0000
 
              Baa    -0.0025    -1.349    -0.481    -0.450  0.0000  0.0000  1.0000
     4 H(1)   Bbb    -0.0009    -0.499    -0.178    -0.166  0.9313 -0.3642 -0.0000
              Bcc     0.0035     1.848     0.659     0.616  0.3642  0.9313  0.0000
 
              Baa    -0.0110    -1.473    -0.525    -0.491  0.0000  0.0000  1.0000
     5 C(13)  Bbb    -0.0022    -0.298    -0.106    -0.099  0.9996  0.0289  0.0000
              Bcc     0.0132     1.770     0.632     0.591 -0.0289  0.9996  0.0000
 
              Baa    -0.0049    -2.637    -0.941    -0.880  0.0000  0.0000  1.0000
     6 H(1)   Bbb    -0.0048    -2.563    -0.915    -0.855 -0.5617  0.8273 -0.0000
              Bcc     0.0097     5.200     1.855     1.734  0.8273  0.5617  0.0000
 
              Baa    -0.1759   -23.610    -8.425    -7.875  0.0000  0.0000  1.0000
     7 C(13)  Bbb    -0.1203   -16.139    -5.759    -5.383  0.3595  0.9332  0.0000
              Bcc     0.2962    39.749    14.183    13.259  0.9332 -0.3595 -0.0000
 
              Baa    -0.1817   -24.378    -8.699    -8.132  0.0000  0.0000  1.0000
     8 C(13)  Bbb    -0.0814   -10.927    -3.899    -3.645 -0.4875  0.8731 -0.0000
              Bcc     0.2631    35.305    12.598    11.777  0.8731  0.4875  0.0000
 
              Baa    -0.0192   -10.239    -3.654    -3.415  0.0000  0.0000  1.0000
     9 H(1)   Bbb    -0.0063    -3.353    -1.196    -1.118  0.5759  0.8175  0.0000
              Bcc     0.0255    13.592     4.850     4.534  0.8175 -0.5759 -0.0000
 

 ---------------------------------------------------------------------------------

 No NMR shielding tensors so no spin-rotation constants.
 Leave Link  601 at Mon Jun 20 04:50:09 2016, MaxMem=    33554432 cpu:         2.2
 (Enter /home/proyectos/fulerenos/M3C-v1.9/M3C-deps_CCC/g09-AM64L-G09RevC.01/l701.exe)
 Compute integral second derivatives.
 ... and contract with generalized density number  0.
 Leave Link  701 at Mon Jun 20 04:50:09 2016, MaxMem=    33554432 cpu:         1.6
 (Enter /home/proyectos/fulerenos/M3C-v1.9/M3C-deps_CCC/g09-AM64L-G09RevC.01/l702.exe)
 L702 exits ... SP integral derivatives will be done elsewhere.
 Leave Link  702 at Mon Jun 20 04:50:09 2016, MaxMem=    33554432 cpu:         0.1
 (Enter /home/proyectos/fulerenos/M3C-v1.9/M3C-deps_CCC/g09-AM64L-G09RevC.01/l703.exe)
 Compute integral second derivatives, UseDBF=F ICtDFT=           0.
 Integral derivatives from FoFJK, PRISM(SPDF).
 Calling FoFJK, ICntrl=    100127 FMM=F ISym2X=1 I1Cent= 0 IOpClX= 1 NMat=1 NMatS=1 NMatT=0.
 FoFJK:  IHMeth= 1 ICntrl=  100127 DoSepK=F KAlg= 0 I1Cent=   0 FoldK=F
 IRaf=         0 NMat=   1 IRICut=       1 DoRegI=T DoRafI=F ISym2E= 1.
 FoFCou: FMM=F IPFlag=           0 FMFlag=      100000 FMFlg1=         800
         NFxFlg=           0 DoJE=F BraDBF=F KetDBF=F FulRan=T
         wScrn=  0.000000 ICntrl=  100127 IOpCl=  1 I1Cent=           0 NGrid=           0
         NMat0=    1 NMatS0=      1 NMatT0=    0 NMatD0=    1 NMtDS0=    0 NMtDT0=    0
 Petite list used in FoFCou.
 Leave Link  703 at Mon Jun 20 04:52:36 2016, MaxMem=    33554432 cpu:       587.2
 (Enter /home/proyectos/fulerenos/M3C-v1.9/M3C-deps_CCC/g09-AM64L-G09RevC.01/l716.exe)
 Dipole        =-3.10217601D-01 3.93036852D-01 0.00000000D+00
 Polarizability= 4.56442021D+01 2.65555153D+00 7.75428061D+01
                 1.88909560D-08-7.48847139D-09 2.96620844D+01
 Full mass-weighted force constant matrix:
 Low frequencies ---   -2.1871   -0.0010   -0.0004   -0.0002    3.4598   17.7072
 Low frequencies ---  136.2320  223.5034  381.6017
 Diagonal vibrational polarizability:
        3.8076508       6.7178785      14.8463142
 Harmonic frequencies (cm**-1), IR intensities (KM/Mole), Raman scattering
 activities (A**4/AMU), depolarization ratios for plane and unpolarized
 incident light, reduced masses (AMU), force constants (mDyne/A),
 and normal coordinates:
                      1                      2                      3
                     A"                     A'                     A"
 Frequencies --    136.2162               223.5034               381.6004
 Red. masses --      2.9277                 3.3627                 1.9269
 Frc consts  --      0.0320                 0.0990                 0.1653
 IR Inten    --      8.3483                 2.6479                 3.1632
  Atom  AN      X      Y      Z        X      Y      Z        X      Y      Z
     1   6    -0.00  -0.00  -0.17     0.03   0.25  -0.00     0.00   0.00  -0.14
     2   6     0.00  -0.00   0.19    -0.19  -0.17   0.00     0.00   0.00  -0.03
     3   1     0.00  -0.00   0.46    -0.20  -0.51   0.00    -0.00   0.00   0.54
     4   1     0.00   0.00   0.27    -0.49  -0.00  -0.00     0.00   0.00  -0.61
     5   6     0.00  -0.00  -0.21     0.14   0.02  -0.00    -0.00   0.00  -0.00
     6   1    -0.00  -0.00  -0.43     0.14   0.23  -0.00    -0.00   0.00  -0.47
     7   6    -0.00   0.00  -0.12     0.22  -0.02  -0.00     0.00  -0.00   0.25
     8   6     0.00   0.00   0.23    -0.13  -0.04   0.00    -0.00  -0.00  -0.02
     9   1     0.00   0.00   0.59    -0.35  -0.21   0.00    -0.00  -0.00  -0.16
                      4                      5                      6
                     A'                     A"                     A'
 Frequencies --    511.6353               684.5471               806.1753
 Red. masses --      3.1899                 2.0087                 2.8021
 Frc consts  --      0.4920                 0.5546                 1.0730
 IR Inten    --      4.7546                 1.0671                 0.4682
  Atom  AN      X      Y      Z        X      Y      Z        X      Y      Z
     1   6    -0.07  -0.01  -0.00    -0.00   0.00  -0.05    -0.06  -0.21  -0.00
     2   6     0.01  -0.22  -0.00     0.00  -0.00   0.01     0.04   0.12  -0.00
     3   1    -0.00  -0.54   0.00     0.00   0.00  -0.46     0.02  -0.49  -0.00
     4   1    -0.27  -0.08  -0.00     0.00  -0.00   0.69    -0.53   0.44   0.00
     5   6     0.13  -0.11   0.00    -0.00  -0.00  -0.20     0.22   0.17  -0.00
     6   1     0.13  -0.26  -0.00    -0.00  -0.00   0.24     0.22   0.06  -0.00
     7   6    -0.17   0.14   0.00     0.00  -0.00   0.22    -0.09   0.05   0.00
     8   6     0.08   0.24  -0.00     0.00   0.00   0.02    -0.07  -0.11  -0.00
     9   1     0.37   0.46   0.00    -0.00  -0.00  -0.40    -0.17  -0.19   0.00
                      7                      8                      9
                     A"                     A'                     A"
 Frequencies --    888.2357               949.7035               991.7354
 Red. masses --      1.4439                 1.3302                 1.0951
 Frc consts  --      0.6712                 0.7069                 0.6346
 IR Inten    --     27.0695                19.8028                30.0801
  Atom  AN      X      Y      Z        X      Y      Z        X      Y      Z
     1   6     0.00   0.00   0.03    -0.07   0.00   0.00     0.00  -0.00   0.01
     2   6    -0.00  -0.00   0.00    -0.00   0.03   0.00    -0.00  -0.00  -0.00
     3   1    -0.00   0.00  -0.08    -0.00   0.03  -0.00     0.00  -0.00   0.49
     4   1     0.00  -0.00   0.10    -0.01   0.03   0.00     0.00  -0.00  -0.25
     5   6    -0.00  -0.00  -0.04     0.03   0.03  -0.00     0.00  -0.00  -0.09
     6   1    -0.00  -0.00   0.01     0.04   0.15   0.00     0.00  -0.00   0.83
     7   6    -0.00   0.00   0.09     0.07  -0.08   0.00    -0.00   0.00  -0.00
     8   6     0.00   0.00  -0.17    -0.09  -0.05  -0.00     0.00   0.00  -0.00
     9   1    -0.00  -0.00   0.97     0.76   0.60   0.00    -0.00  -0.00   0.01
                     10                     11                     12
                     A'                     A"                     A'
 Frequencies --   1074.8309              1088.7667              1133.7948
 Red. masses --      1.6960                 1.3696                 4.7697
 Frc consts  --      1.1544                 0.9566                 3.6125
 IR Inten    --      3.2529                15.2428                76.6089
  Atom  AN      X      Y      Z        X      Y      Z        X      Y      Z
     1   6    -0.09  -0.12  -0.00     0.00   0.00   0.00    -0.24  -0.10   0.00
     2   6    -0.08  -0.08   0.00    -0.00  -0.00  -0.17     0.08   0.10  -0.00
     3   1    -0.06   0.48  -0.00    -0.00   0.00   0.66     0.07  -0.39   0.00
     4   1     0.43  -0.36  -0.00     0.00  -0.00   0.73    -0.38   0.36   0.00
     5   6     0.12   0.06  -0.00     0.00   0.00   0.06    -0.10  -0.04   0.00
     6   1     0.14   0.57   0.00     0.00   0.00  -0.09    -0.10  -0.13  -0.00
     7   6     0.03   0.00  -0.00    -0.00   0.00   0.00     0.25  -0.27  -0.00
     8   6    -0.01   0.09   0.00    -0.00  -0.00  -0.00     0.08   0.33  -0.00
     9   1    -0.20  -0.05  -0.00     0.00   0.00   0.00    -0.45  -0.04   0.00
                     13                     14                     15
                     A'                     A'                     A'
 Frequencies --   1323.2222              1421.5361              1458.7417
 Red. masses --      1.3410                 2.5386                 2.0142
 Frc consts  --      1.3834                 3.0224                 2.5253
 IR Inten    --     12.7215                60.6369               240.1873
  Atom  AN      X      Y      Z        X      Y      Z        X      Y      Z
     1   6     0.01   0.01   0.00    -0.10   0.16  -0.00    -0.11   0.09  -0.00
     2   6     0.12  -0.05   0.00    -0.00   0.02  -0.00    -0.03  -0.01  -0.00
     3   1     0.12  -0.48  -0.00    -0.00   0.54   0.00    -0.03  -0.53   0.00
     4   1     0.05  -0.02  -0.00    -0.47   0.30  -0.00     0.59  -0.37   0.00
     5   6    -0.11   0.02  -0.00     0.10  -0.07   0.00     0.02   0.19   0.00
     6   1    -0.10   0.84   0.00     0.12   0.45   0.00    -0.01  -0.35  -0.00
     7   6    -0.03   0.01   0.00    -0.16  -0.16  -0.00    -0.06  -0.11  -0.00
     8   6     0.00  -0.02  -0.00     0.19  -0.05   0.00     0.13  -0.05   0.00
     9   1     0.00  -0.02  -0.00     0.08  -0.19  -0.00     0.08  -0.14  -0.00
                     16                     17                     18
                     A'                     A'                     A'
 Frequencies --   1621.7532              1736.3754              3149.3851
 Red. masses --      2.9222                 8.7288                 1.0598
 Frc consts  --      4.5282                15.5057                 6.1934
 IR Inten    --     71.5777               139.9438                 4.1450
  Atom  AN      X      Y      Z        X      Y      Z        X      Y      Z
     1   6     0.04   0.01  -0.00     0.47   0.01   0.00     0.00   0.00  -0.00
     2   6    -0.14   0.27  -0.00     0.01  -0.02   0.00    -0.04   0.06  -0.00
     3   1    -0.20  -0.59  -0.00     0.02   0.02  -0.00     0.73  -0.01   0.00
     4   1     0.56  -0.08   0.00     0.02  -0.04  -0.00    -0.34  -0.59   0.00
     5   6     0.11  -0.26  -0.00     0.08   0.18  -0.00    -0.00  -0.01  -0.00
     6   1     0.15   0.31  -0.00     0.07   0.01   0.00     0.07  -0.00  -0.00
     7   6    -0.04  -0.01   0.00    -0.29  -0.47  -0.00    -0.00  -0.00   0.00
     8   6    -0.00   0.02  -0.00    -0.25   0.27  -0.00    -0.00   0.00  -0.00
     9   1    -0.03   0.02   0.00    -0.30   0.45   0.00     0.00  -0.00   0.00
                     19                     20                     21
                     A'                     A'                     A'
 Frequencies --   3181.4161              3247.0260              3247.7480
 Red. masses --      1.0928                 1.1195                 1.1185
 Frc consts  --      6.5167                 6.9539                 6.9509
 IR Inten    --      9.2539                 8.8173                94.0617
  Atom  AN      X      Y      Z        X      Y      Z        X      Y      Z
     1   6     0.00   0.00   0.00     0.00  -0.00  -0.00    -0.01   0.01  -0.00
     2   6     0.01  -0.00   0.00    -0.08  -0.05  -0.00    -0.01  -0.01  -0.00
     3   1    -0.12   0.00   0.00     0.66  -0.02  -0.00     0.07  -0.00  -0.00
     4   1    -0.02  -0.03   0.00     0.35   0.64   0.00     0.03   0.06  -0.00
     5   6    -0.09   0.01   0.00    -0.01   0.00   0.00    -0.00   0.00   0.00
     6   1     0.99  -0.03  -0.00     0.11  -0.01  -0.00     0.02  -0.00  -0.00
     7   6     0.00   0.00  -0.00     0.00  -0.00  -0.00     0.00   0.01   0.00
     8   6    -0.00   0.00  -0.00    -0.01   0.01   0.00     0.06  -0.08  -0.00
     9   1     0.01  -0.01   0.00     0.06  -0.08   0.00    -0.60   0.79  -0.00

 -------------------
 - Thermochemistry -
 -------------------
 Temperature   298.150 Kelvin.  Pressure   1.00000 Atm.
 Atom     1 has atomic number  6 and mass  12.00000
 Atom     2 has atomic number  6 and mass  12.00000
 Atom     3 has atomic number  1 and mass   1.00783
 Atom     4 has atomic number  1 and mass   1.00783
 Atom     5 has atomic number  6 and mass  12.00000
 Atom     6 has atomic number  1 and mass   1.00783
 Atom     7 has atomic number  6 and mass  12.00000
 Atom     8 has atomic number  6 and mass  12.00000
 Atom     9 has atomic number  1 and mass   1.00783
 Molecular mass:    64.03130 amu.
 Principal axes and moments of inertia in atomic units:
                           1         2         3
     Eigenvalues --    78.65804 494.31842 572.97646
           X            0.18343   0.98303   0.00000
           Y            0.98303  -0.18343   0.00000
           Z            0.00000  -0.00000   1.00000
 This molecule is an asymmetric top.
 Rotational symmetry number  1.
 Rotational temperatures (Kelvin)      1.10114     0.17522     0.15116
 Rotational constants (GHZ):          22.94414     3.65097     3.14976
 Zero-point vibrational energy     175001.4 (Joules/Mol)
                                   41.82634 (Kcal/Mol)
 Warning -- explicit consideration of   4 degrees of freedom as
           vibrations may cause significant error
 Vibrational temperatures:    195.98   321.57   549.04   736.13   984.91
          (Kelvin)           1159.90  1277.97  1366.41  1426.88  1546.44
                             1566.49  1631.28  1903.82  2045.27  2098.80
                             2333.34  2498.25  4531.26  4577.34  4671.74
                             4672.78
 
 Zero-point correction=                           0.066655 (Hartree/Particle)
 Thermal correction to Energy=                    0.071661
 Thermal correction to Enthalpy=                  0.072605
 Thermal correction to Gibbs Free Energy=         0.038410
 Sum of electronic and zero-point Energies=           -192.456332
 Sum of electronic and thermal Energies=              -192.451326
 Sum of electronic and thermal Enthalpies=            -192.450382
 Sum of electronic and thermal Free Energies=         -192.484577
 
                     E (Thermal)             CV                S
                      KCal/Mol        Cal/Mol-Kelvin    Cal/Mol-Kelvin
 Total                   44.968             16.503             71.970
 Electronic               0.000              0.000              1.377
 Translational            0.889              2.981             38.389
 Rotational               0.889              2.981             24.614
 Vibrational             43.190             10.541              7.589
 Vibration     1          0.614              1.917              2.856
 Vibration     2          0.649              1.805              1.931
 Vibration     3          0.751              1.509              1.033
 Vibration     4          0.867              1.224              0.630
                       Q            Log10(Q)             Ln(Q)
 Total Bot       0.215180D-17        -17.667197        -40.680226
 Total V=0       0.981033D+13         12.991684         29.914457
 Vib (Bot)       0.999860D-30        -30.000061        -69.077693
 Vib (Bot)    1  0.149425D+01          0.174422          0.401622
 Vib (Bot)    2  0.883706D+00         -0.053692         -0.123631
 Vib (Bot)    3  0.473278D+00         -0.324884         -0.748072
 Vib (Bot)    4  0.317899D+00         -0.497711         -1.146022
 Vib (V=0)       0.455848D+01          0.658820          1.516990
 Vib (V=0)    1  0.207568D+01          0.317161          0.730289
 Vib (V=0)    2  0.151535D+01          0.180513          0.415647
 Vib (V=0)    3  0.118847D+01          0.074989          0.172667
 Vib (V=0)    4  0.109250D+01          0.038423          0.088471
 Electronic      0.200000D+01          0.301030          0.693147
 Translational   0.201393D+08          7.304044         16.818182
 Rotational      0.534306D+05          4.727790         10.886138
 
                                                              b3lyp opt
                                                             IR Spectrum
 
     33 33                                                       1   1     1 1   1      111                                          
     22 11                                                       7   6     4 4   3      100   99  8  8    6     5     3     2  1     
     44 84                                                       3   2     5 2   2      387   95  8  0    8     1     8     2  3     
     87 19                                                       6   2     9 2   3      495   20  8  6    5     2     2     4  6     
 
     XX XX                                                       X   X     X X   X      XXX   XX  X  X    X     X     X     X  X     
     X                                                           X   X     X X          X     XX  X                                  
     X                                                           X   X     X X          X     X                                      
     X                                                           X   X     X X          X                                            
     X                                                           X   X     X X          X                                            
     X                                                           X   X     X            X                                            
     X                                                           X         X                                                         
     X                                                           X         X                                                         
                                                                 X         X                                                         
                                                                 X         X                                                         
                                                                 X         X                                                         
                                                                 X         X                                                         
                                                                           X                                                         
                                                                           X                                                         
                                                                           X                                                         
                                                                           X                                                         
                                                                           X                                                         
                                                                           X                                                         
                                                                           X                                                         
                                                                           X                                                         
 
 ***** Axes restored to original set *****
 -------------------------------------------------------------------
 Center     Atomic                   Forces (Hartrees/Bohr)
 Number     Number              X              Y              Z
 -------------------------------------------------------------------
      1        6           0.000050074   -0.000016557   -0.000000000
      2        6           0.000007794    0.000066968   -0.000000000
      3        1           0.000007200   -0.000009880   -0.000000000
      4        1          -0.000008328   -0.000040595   -0.000000000
      5        6          -0.000083864   -0.000043395   -0.000000000
      6        1           0.000070609    0.000010266   -0.000000000
      7        6          -0.000011605   -0.000027588   -0.000000000
      8        6          -0.000054891    0.000072795   -0.000000000
      9        1           0.000023012   -0.000012014   -0.000000000
 -------------------------------------------------------------------
 Cartesian Forces:  Max     0.000083864 RMS     0.000035004
 Z-matrix is all fixed cartesians, so copy forces.
 Force constants in Cartesian coordinates: 
                1             2             3             4             5 
      1  0.686548D+00
      2 -0.270009D-01  0.297333D+00
      3  0.000000D+00  0.000000D+00  0.153631D-01
      4  0.272813D-02 -0.578940D-02  0.000000D+00  0.692645D+00
      5  0.247109D-02  0.104942D-01  0.000000D+00 -0.615966D-01  0.766405D+00
      6  0.000000D+00  0.000000D+00 -0.147758D-02  0.000000D+00  0.000000D+00
      7  0.531199D-03  0.220148D-03  0.000000D+00 -0.344577D+00  0.597037D-02
      8 -0.527123D-03 -0.923606D-03  0.000000D+00 -0.690047D-03 -0.597976D-01
      9  0.000000D+00  0.000000D+00  0.840596D-03  0.000000D+00  0.000000D+00
     10 -0.165602D-03  0.500183D-03  0.000000D+00 -0.130462D+00 -0.127857D+00
     11 -0.316283D-03  0.768246D-03  0.000000D+00 -0.121208D+00 -0.275649D+00
     12  0.000000D+00  0.000000D+00 -0.412344D-03  0.000000D+00  0.000000D+00
     13 -0.920325D-02 -0.224780D-01  0.000000D+00 -0.220111D+00  0.181859D+00
     14 -0.106574D-02 -0.223073D-01  0.000000D+00  0.164519D+00 -0.377259D+00
     15  0.000000D+00  0.000000D+00  0.836747D-02  0.000000D+00  0.000000D+00
     16  0.221406D-02  0.156060D-02  0.000000D+00 -0.105420D-01  0.765964D-03
     17 -0.155854D-02 -0.289468D-02  0.000000D+00  0.318958D-01  0.225688D-02
     18  0.000000D+00  0.000000D+00  0.359183D-02  0.000000D+00  0.000000D+00
     19 -0.268500D+00 -0.177824D+00  0.000000D+00  0.176269D-01 -0.574328D-02
     20 -0.184026D+00 -0.145520D+00  0.000000D+00  0.285018D-03 -0.690871D-01
     21  0.000000D+00  0.000000D+00 -0.198896D-01  0.000000D+00  0.000000D+00
     22 -0.415916D+00  0.218539D+00  0.000000D+00 -0.672757D-02  0.427385D-02
     23  0.215705D+00 -0.144481D+00  0.000000D+00 -0.780835D-02  0.337435D-02
     24  0.000000D+00  0.000000D+00 -0.161795D-01  0.000000D+00  0.000000D+00
     25  0.176350D-02  0.122721D-01  0.000000D+00 -0.580514D-03 -0.143438D-03
     26 -0.368180D-02  0.753157D-02  0.000000D+00  0.392693D-03 -0.738468D-03
     27  0.000000D+00  0.000000D+00  0.979610D-02  0.000000D+00  0.000000D+00
                6             7             8             9            10 
      6  0.138496D+00
      7  0.000000D+00  0.359061D+00
      8  0.000000D+00 -0.760492D-02  0.548863D-01
      9 -0.453327D-01  0.000000D+00  0.000000D+00  0.254553D-01
     10  0.000000D+00 -0.736714D-02 -0.239634D-01  0.000000D+00  0.126273D+00
     11  0.000000D+00  0.296659D-02  0.573444D-02  0.000000D+00  0.130363D+00
     12 -0.472080D-01  0.000000D+00  0.000000D+00  0.772916D-02  0.000000D+00
     13  0.000000D+00 -0.100653D-01  0.292516D-01  0.000000D+00  0.108759D-01
     14  0.000000D+00 -0.323482D-02  0.108827D-02  0.000000D+00  0.179488D-01
     15 -0.549264D-01  0.000000D+00  0.000000D+00  0.885524D-02  0.000000D+00
     16  0.000000D+00  0.952874D-03  0.132236D-02  0.000000D+00  0.108407D-02
     17  0.000000D+00  0.147527D-02 -0.381597D-02  0.000000D+00 -0.338720D-03
     18  0.636673D-02  0.000000D+00  0.000000D+00  0.102379D-01  0.000000D+00
     19  0.000000D+00  0.173143D-02  0.272481D-02  0.000000D+00 -0.114430D-02
     20  0.000000D+00  0.478419D-03  0.238739D-02  0.000000D+00  0.269056D-02
     21  0.652076D-03  0.000000D+00  0.000000D+00 -0.869241D-02  0.000000D+00
     22  0.000000D+00 -0.175076D-03 -0.587364D-03  0.000000D+00  0.904819D-03
     23  0.000000D+00 -0.283099D-03  0.398640D-03  0.000000D+00  0.715291D-03
     24  0.335987D-02  0.000000D+00  0.000000D+00  0.761889D-03  0.000000D+00
     25  0.000000D+00 -0.918956D-04  0.740901D-04  0.000000D+00  0.000000D+00
     26  0.000000D+00  0.120326D-04  0.421334D-04  0.000000D+00 -0.584281D-04
     27  0.700882D-04  0.000000D+00  0.000000D+00  0.144978D-03  0.000000D+00
               11            12            13            14            15 
     11  0.288576D+00
     12  0.000000D+00  0.253596D-01
     13 -0.131902D-01  0.000000D+00  0.710670D+00
     14 -0.152529D-01  0.000000D+00 -0.837673D-01  0.691306D+00
     15  0.000000D+00  0.108649D-01  0.000000D+00  0.000000D+00  0.115664D+00
     16 -0.252485D-03  0.000000D+00 -0.337309D+00  0.107417D-01  0.000000D+00
     17  0.112341D-02  0.000000D+00  0.806945D-02 -0.538077D-01  0.000000D+00
     18  0.000000D+00 -0.699420D-02  0.000000D+00  0.000000D+00 -0.375635D-01
     19  0.132345D-02  0.000000D+00 -0.154882D+00 -0.769867D-01  0.000000D+00
     20 -0.514076D-02  0.000000D+00 -0.109558D+00 -0.201239D+00  0.000000D+00
     21  0.000000D+00  0.134619D-01  0.000000D+00  0.000000D+00 -0.640541D-01
     22  0.353438D-03  0.000000D+00  0.790426D-02 -0.272958D-01  0.000000D+00
     23 -0.712204D-04  0.000000D+00  0.956752D-02 -0.243842D-01  0.000000D+00
     24  0.000000D+00 -0.271699D-02  0.000000D+00  0.000000D+00  0.143260D-01
     25 -0.389283D-04  0.000000D+00  0.211942D-02 -0.859451D-03  0.000000D+00
     26 -0.879239D-04  0.000000D+00  0.246194D-03  0.185547D-02  0.000000D+00
     27  0.000000D+00 -0.839884D-04  0.000000D+00  0.000000D+00 -0.153315D-02
               16            17            18            19            20 
     16  0.356460D+00
     17 -0.868960D-02  0.600709D-01
     18  0.000000D+00  0.000000D+00  0.253870D-01
     19 -0.134240D-01 -0.323700D-01  0.000000D+00  0.449098D+00
     20 -0.504497D-02 -0.386947D-02  0.000000D+00  0.268760D+00  0.732391D+00
     21  0.000000D+00  0.000000D+00  0.284846D-03  0.000000D+00  0.000000D+00
     22  0.753266D-03  0.150205D-02  0.000000D+00 -0.356835D-01  0.316740D-01
     23 -0.267864D-03  0.123976D-02  0.000000D+00  0.126597D-01 -0.304139D+00
     24  0.000000D+00  0.000000D+00 -0.102373D-02  0.000000D+00  0.000000D+00
     25 -0.189762D-03  0.142361D-04  0.000000D+00  0.517746D-02 -0.525822D-02
     26 -0.135709D-03 -0.303133D-03  0.000000D+00  0.745585D-02 -0.578326D-02
     27  0.000000D+00  0.000000D+00 -0.286866D-03  0.000000D+00  0.000000D+00
               21            22            23            24            25 
     21  0.111186D+00
     22  0.000000D+00  0.608625D+00
     23  0.000000D+00 -0.386326D+00  0.713760D+00
     24 -0.447874D-01  0.000000D+00  0.000000D+00  0.876307D-01
     25  0.000000D+00 -0.159685D+00  0.156038D+00  0.000000D+00  0.151486D+00
     26  0.000000D+00  0.157867D+00 -0.245698D+00  0.000000D+00 -0.162098D+00
     27  0.118389D-01  0.000000D+00  0.000000D+00 -0.413708D-01  0.000000D+00
               26            27 
     26  0.243182D+00
     27  0.000000D+00  0.214248D-01
 Leave Link  716 at Mon Jun 20 04:52:36 2016, MaxMem=    33554432 cpu:         0.2
 (Enter /home/proyectos/fulerenos/M3C-v1.9/M3C-deps_CCC/g09-AM64L-G09RevC.01/l103.exe)

 GradGradGradGradGradGradGradGradGradGradGradGradGradGradGradGradGradGrad
 Berny optimization.
 Search for a local minimum.
 Step number   1 out of a maximum of    2
 All quantities printed in internal units (Hartrees-Bohrs-Radians)
 Second derivative matrix not updated -- analytic derivatives used.
 ITU=  0
     Eigenvalues ---    0.00226   0.00666   0.01371   0.02602   0.05423
     Eigenvalues ---    0.05727   0.08355   0.09841   0.10419   0.16042
     Eigenvalues ---    0.17434   0.21575   0.23424   0.32504   0.47598
     Eigenvalues ---    0.65100   0.70992   0.92959   1.09205   1.33802
     Eigenvalues ---    1.59560
 Angle between quadratic step and forces=  79.33 degrees.
 ClnCor:  largest displacement from symmetrization is 3.55D-12 for atom     9.
 Linear search not attempted -- first point.
 ClnCor:  largest displacement from symmetrization is 8.88D-16 for atom     4.
 B after Tr=    -0.000105   -0.000053    0.000000
         Rot=    1.000000    0.000000    0.000000    0.000004 Ang=   0.00 deg.
 Variable       Old X    -DE/DX   Delta X   Delta X   Delta X     New X
                                 (Linear)    (Quad)   (Total)
    X1        2.10567   0.00005   0.00000  -0.00009  -0.00018   2.10549
    Y1        2.22860  -0.00002   0.00000  -0.00051  -0.00058   2.22802
    Z1        0.00000  -0.00000   0.00000   0.00000   0.00000   0.00000
    X2       -0.04253   0.00001   0.00000   0.00016   0.00003  -0.04250
    Y2       -3.78275   0.00007   0.00000   0.00023   0.00018  -3.78257
    Z2        0.00000  -0.00000   0.00000   0.00000   0.00000   0.00000
    X3        2.00218   0.00001   0.00000   0.00020   0.00006   2.00224
    Y3       -3.84127  -0.00001   0.00000   0.00071   0.00064  -3.84064
    Z3        0.00000  -0.00000   0.00000   0.00000   0.00000   0.00000
    X4       -1.03287  -0.00001   0.00000   0.00080   0.00065  -1.03222
    Y4       -5.57159  -0.00004   0.00000  -0.00025  -0.00030  -5.57189
    Z4        0.00000  -0.00000   0.00000   0.00000   0.00000   0.00000
    X5       -1.32616  -0.00008   0.00000  -0.00042  -0.00053  -1.32669
    Y5       -1.58825  -0.00004   0.00000  -0.00014  -0.00018  -1.58843
    Z5        0.00000  -0.00000   0.00000   0.00000   0.00000   0.00000
    X6       -3.37037   0.00007   0.00000  -0.00021  -0.00033  -3.37070
    Y6       -1.51851   0.00001   0.00000  -0.00027  -0.00030  -1.51881
    Z6        0.00000  -0.00000   0.00000   0.00000   0.00000   0.00000
    X7        0.00000  -0.00001   0.00000  -0.00048  -0.00058  -0.00058
    Y7        0.72155  -0.00003   0.00000  -0.00002  -0.00007   0.72148
    Z7        0.00000  -0.00000   0.00000   0.00000   0.00000   0.00000
    X8       -0.11360  -0.00005   0.00000   0.00016   0.00008  -0.11353
    Y8        3.40346   0.00007   0.00000   0.00012   0.00007   3.40353
    Z8        0.00000  -0.00000   0.00000   0.00000   0.00000   0.00000
    X9       -1.33919   0.00002   0.00000   0.00087   0.00081  -1.33838
    Y9        5.03569  -0.00001   0.00000   0.00059   0.00054   5.03624
    Z9        0.00000  -0.00000   0.00000   0.00000   0.00000   0.00000
         Item               Value     Threshold  Converged?
 Maximum Force            0.000084     0.000450     YES
 RMS     Force            0.000035     0.000300     YES
 Maximum Displacement     0.000807     0.001800     YES
 RMS     Displacement     0.000341     0.001200     YES
 Predicted change in Energy=-3.076710D-08
 Optimization completed.
    -- Stationary point found.
 GradGradGradGradGradGradGradGradGradGradGradGradGradGradGradGradGradGrad

 Leave Link  103 at Mon Jun 20 04:52:36 2016, MaxMem=    33554432 cpu:         0.1
 (Enter /home/proyectos/fulerenos/M3C-v1.9/M3C-deps_CCC/g09-AM64L-G09RevC.01/l9999.exe)
 1\1\GINC-BELVIS17\Freq\UB3LYP\6-311++G(3df,2p)\C5H4(1+,2)\ROOT\20-Jun-
 2016\0\\#p b3lyp/6-311++G(3df,2p) freq symmetry=Loose\\b3lyp opt\\1,2\
 C,1.114272,1.179323,0.\C,-0.022506,-2.001746,0.\H,1.059506,-2.032715,0
 .\H,-0.546571,-2.94836,0.\C,-0.701774,-0.840464,0.\H,-1.783523,-0.8035
 6,0.\C,0.,0.38183,0.\C,-0.060116,1.801034,0.\H,-0.70867,2.664774,0.\\V
 ersion=EM64L-G09RevE.01\State=2-A'\HF=-192.5229865\S2=0.754573\S2-1=0.
 \S2A=0.750014\RMSD=5.232e-09\RMSF=3.500e-05\ZeroPoint=0.0666545\Therma
 l=0.0716607\Dipole=-0.3102175,0.3930369,0.\DipoleDeriv=0.3925496,0.065
 9103,0.,-0.0836983,-0.4209439,0.,0.,0.,0.1113335,0.0606491,-0.3641056,
 0.,0.0182067,0.574815,0.,0.,0.,0.0470153,0.0615719,-0.041866,0.,-0.059
 3701,0.1012697,0.,0.,0.,0.1346219,0.0979113,0.0007151,0.,-0.0049944,0.
 1465077,0.,0.,0.,0.1199482,0.1075261,0.0347125,0.,-0.1876744,-1.254363
 5,0.,0.,0.,-0.1100631,0.1195806,0.0141162,0.,0.0182818,0.049542,0.,0.,
 0.,0.1646235,0.0567847,0.6893012,0.,0.7120816,1.7516452,0.,0.,0.,0.205
 7486,-0.168129,-0.3039683,0.,-0.4044984,-0.2355567,0.,0.,0.,0.1290036,
 0.2715558,-0.0948154,0.,-0.0083345,0.2870844,0.,0.,0.,0.1977685\Polar=
 45.6442029,2.6555564,77.5428053,0.,0.,29.6620844\PG=CS [SG(C5H4)]\NIma
 g=0\\0.68654801,-0.02700091,0.29733256,0.,0.,0.01536311,0.00272813,-0.
 00578940,0.,0.69264496,0.00247109,0.01049422,0.,-0.06159661,0.76640519
 ,0.,0.,-0.00147758,0.,0.,0.13849591,0.00053120,0.00022015,0.,-0.344577
 16,0.00597037,0.,0.35906102,-0.00052712,-0.00092361,0.,-0.00069005,-0.
 05979763,0.,-0.00760492,0.05488634,0.,0.,0.00084060,0.,0.,-0.04533271,
 0.,0.,0.02545534,-0.00016560,0.00050018,0.,-0.13046193,-0.12785712,0.,
 -0.00736714,-0.02396342,0.,0.12627328,-0.00031628,0.00076825,0.,-0.121
 20844,-0.27564899,0.,0.00296659,0.00573444,0.,0.13036283,0.28857568,0.
 ,0.,-0.00041234,0.,0.,-0.04720801,0.,0.,0.00772916,0.,0.,0.02535961,-0
 .00920325,-0.02247802,0.,-0.22011089,0.18185917,0.,-0.01006525,0.02925
 162,0.,0.01087592,-0.01319017,0.,0.71067033,-0.00106574,-0.02230733,0.
 ,0.16451929,-0.37725850,0.,-0.00323482,0.00108827,0.,0.01794883,-0.015
 25288,0.,-0.08376734,0.69130593,0.,0.,0.00836747,0.,0.,-0.05492637,0.,
 0.,0.00885524,0.,0.,0.01086489,0.,0.,0.11566354,0.00221406,0.00156060,
 0.,-0.01054196,0.00076596,0.,0.00095287,0.00132236,0.,0.00108407,-0.00
 025249,0.,-0.33730899,0.01074172,0.,0.35646043,-0.00155854,-0.00289468
 ,0.,0.03189584,0.00225688,0.,0.00147527,-0.00381597,0.,-0.00033872,0.0
 0112341,0.,0.00806945,-0.05380770,0.,-0.00868960,0.06007088,0.,0.,0.00
 359183,0.,0.,0.00636673,0.,0.,0.01023792,0.,0.,-0.00699420,0.,0.,-0.03
 756353,0.,0.,0.02538700,-0.26850022,-0.17782353,0.,0.01762693,-0.00574
 328,0.,0.00173143,0.00272481,0.,-0.00114430,0.00132345,0.,-0.15488155,
 -0.07698670,0.,-0.01342400,-0.03236999,0.,0.44909773,-0.18402608,-0.14
 552021,0.,0.00028502,-0.06908705,0.,0.00047842,0.00238739,0.,0.0026905
 6,-0.00514076,0.,-0.10955843,-0.20123907,0.,-0.00504497,-0.00386947,0.
 ,0.26875974,0.73239099,0.,0.,-0.01988965,0.,0.,0.00065208,0.,0.,-0.008
 69241,0.,0.,0.01346187,0.,0.,-0.06405408,0.,0.,0.00028485,0.,0.,0.1111
 8585,-0.41591583,0.21853881,0.,-0.00672757,0.00427385,0.,-0.00017508,-
 0.00058736,0.,0.00090482,0.00035344,0.,0.00790426,-0.02729580,0.,0.000
 75327,0.00150205,0.,-0.03568347,0.03167397,0.,0.60862469,0.21570539,-0
 .14448078,0.,-0.00780835,0.00337435,0.,-0.00028310,0.00039864,0.,0.000
 71529,-0.00007122,0.,0.00956752,-0.02438420,0.,-0.00026786,0.00123976,
 0.,0.01265966,-0.30413856,0.,-0.38632606,0.71376022,0.,0.,-0.01617953,
 0.,0.,0.00335987,0.,0.,0.00076189,0.,0.,-0.00271699,0.,0.,0.01432600,0
 .,0.,-0.00102373,0.,0.,-0.04478739,0.,0.,0.08763070,0.00176350,0.01227
 213,0.,-0.00058051,-0.00014344,0.,-0.00009190,0.00007409,0.,0.00000088
 ,-0.00003893,0.,0.00211942,-0.00085945,0.,-0.00018976,0.00001424,0.,0.
 00517746,-0.00525822,0.,-0.15968509,0.15603751,0.,0.15148600,-0.003681
 80,0.00753157,0.,0.00039269,-0.00073847,0.,0.00001203,0.00004213,0.,-0
 .00005843,-0.00008792,0.,0.00024619,0.00185547,0.,-0.00013571,-0.00030
 313,0.,0.00745585,-0.00578326,0.,0.15786710,-0.24569820,0.,-0.16209793
 ,0.24318181,0.,0.,0.00979610,0.,0.,0.00007009,0.,0.,0.00014498,0.,0.,-
 0.00008399,0.,0.,-0.00153315,0.,0.,-0.00028687,0.,0.,0.01183889,0.,0.,
 -0.04137082,0.,0.,0.02142477\\-0.00005007,0.00001656,0.,-0.00000779,-0
 .00006697,0.,-0.00000720,0.00000988,0.,0.00000833,0.00004059,0.,0.0000
 8386,0.00004340,0.,-0.00007061,-0.00001027,0.,0.00001160,0.00002759,0.
 ,0.00005489,-0.00007279,0.,-0.00002301,0.00001201,0.\\\@


 THE MOST BEAUTIFUL EXPERIENCE WE CAN HAVE IS THE MYSTERIOUS.
 IT IS THE FUNDAMENTAL EMOTION WHICH STANDS AT AT THE CRADLE 
 OF TRUE ART AND TRUE SCIENCE.

                                    -- ALBERT EINSTEIN
 Job cpu time:       0 days  0 hours 50 minutes 21.3 seconds.
 File lengths (MBytes):  RWF=     81 Int=      0 D2E=      0 Chk=      5 Scr=      1
 Normal termination of Gaussian 09 at Mon Jun 20 04:52:36 2016.
