 Entering Gaussian System, Link 0=/home/proyectos/fulerenos/M3C-v2.0/M3C-deps_CCC/g09-AM64L-G09RevC.01/g09
 Initial command:
 /home/proyectos/fulerenos/M3C-v2.0/M3C-deps_CCC/g09-AM64L-G09RevC.01/l1.exe "/scratch/naguirre/gaussian/Gau-9056.inp" -scrdir="/scratch/naguirre/gaussian/"
 Entering Link 1 = /home/proyectos/fulerenos/M3C-v2.0/M3C-deps_CCC/g09-AM64L-G09RevC.01/l1.exe PID=      9057.
  
 Copyright (c) 1988,1990,1992,1993,1995,1998,2003,2009,2015,
            Gaussian, Inc.  All Rights Reserved.
  
 This is part of the Gaussian(R) 09 program.  It is based on
 the Gaussian(R) 03 system (copyright 2003, Gaussian, Inc.),
 the Gaussian(R) 98 system (copyright 1998, Gaussian, Inc.),
 the Gaussian(R) 94 system (copyright 1995, Gaussian, Inc.),
 the Gaussian 92(TM) system (copyright 1992, Gaussian, Inc.),
 the Gaussian 90(TM) system (copyright 1990, Gaussian, Inc.),
 the Gaussian 88(TM) system (copyright 1988, Gaussian, Inc.),
 the Gaussian 86(TM) system (copyright 1986, Carnegie Mellon
 University), and the Gaussian 82(TM) system (copyright 1983,
 Carnegie Mellon University). Gaussian is a federally registered
 trademark of Gaussian, Inc.
  
 This software contains proprietary and confidential information,
 including trade secrets, belonging to Gaussian, Inc.
  
 This software is provided under written license and may be
 used, copied, transmitted, or stored only in accord with that
 written license.
  
 The following legend is applicable only to US Government
 contracts under FAR:
  
                    RESTRICTED RIGHTS LEGEND
  
 Use, reproduction and disclosure by the US Government is
 subject to restrictions as set forth in subparagraphs (a)
 and (c) of the Commercial Computer Software - Restricted
 Rights clause in FAR 52.227-19.
  
 Gaussian, Inc.
 340 Quinnipiac St., Bldg. 40, Wallingford CT 06492
  
  
 ---------------------------------------------------------------
 Warning -- This program may not be used in any manner that
 competes with the business of Gaussian, Inc. or will provide
 assistance to any competitor of Gaussian, Inc.  The licensee
 of this program is prohibited from giving any competitor of
 Gaussian, Inc. access to this program.  By using this program,
 the user acknowledges that Gaussian, Inc. is engaged in the
 business of creating and licensing software in the field of
 computational chemistry and represents and warrants to the
 licensee that it is not a competitor of Gaussian, Inc. and that
 it will not use this program in any manner prohibited above.
 ---------------------------------------------------------------
  

 Cite this work as:
 Gaussian 09, Revision E.01,
 M. J. Frisch, G. W. Trucks, H. B. Schlegel, G. E. Scuseria, 
 M. A. Robb, J. R. Cheeseman, G. Scalmani, V. Barone, B. Mennucci, 
 G. A. Petersson, H. Nakatsuji, M. Caricato, X. Li, H. P. Hratchian, 
 A. F. Izmaylov, J. Bloino, G. Zheng, J. L. Sonnenberg, M. Hada, 
 M. Ehara, K. Toyota, R. Fukuda, J. Hasegawa, M. Ishida, T. Nakajima, 
 Y. Honda, O. Kitao, H. Nakai, T. Vreven, J. A. Montgomery, Jr., 
 J. E. Peralta, F. Ogliaro, M. Bearpark, J. J. Heyd, E. Brothers, 
 K. N. Kudin, V. N. Staroverov, T. Keith, R. Kobayashi, J. Normand, 
 K. Raghavachari, A. Rendell, J. C. Burant, S. S. Iyengar, J. Tomasi, 
 M. Cossi, N. Rega, J. M. Millam, M. Klene, J. E. Knox, J. B. Cross, 
 V. Bakken, C. Adamo, J. Jaramillo, R. Gomperts, R. E. Stratmann, 
 O. Yazyev, A. J. Austin, R. Cammi, C. Pomelli, J. W. Ochterski, 
 R. L. Martin, K. Morokuma, V. G. Zakrzewski, G. A. Voth, 
 P. Salvador, J. J. Dannenberg, S. Dapprich, A. D. Daniels, 
 O. Farkas, J. B. Foresman, J. V. Ortiz, J. Cioslowski, 
 and D. J. Fox, Gaussian, Inc., Wallingford CT, 2013.
 
 ******************************************
 Gaussian 09:  EM64L-G09RevE.01 30-Nov-2015
                20-Jul-2016 
 ******************************************
 %NProcShared=1
 Will use up to    1 processors via shared memory.
 ---------------------------------------------
 #p b3lyp/6-311++G(3df,2p) freq symmetry=Loose
 ---------------------------------------------
 1/10=4,30=1,38=1/1,3;
 2/12=2,17=4,18=3,40=1/2;
 3/5=4,6=6,7=1216,11=2,16=1,25=1,30=1,71=2,74=-5,140=1/1,2,3;
 4//1;
 5/5=2,38=5,98=1/2;
 8/6=4,10=90,11=11/1;
 11/6=1,8=1,9=11,15=111,16=1/1,2,10;
 10/6=1/2;
 6/7=2,8=2,9=2,10=2,18=1,28=1/1;
 7/8=1,10=1,25=1/1,2,3,16;
 1/10=4,30=1/3;
 99//99;
 Leave Link    1 at Wed Jul 20 23:03:42 2016, MaxMem=           0 cpu:         0.1
 (Enter /home/proyectos/fulerenos/M3C-v2.0/M3C-deps_CCC/g09-AM64L-G09RevC.01/l101.exe)
 ---------
 b3lyp opt
 ---------
 Symbolic Z-matrix:
 Charge =  1 Multiplicity = 4
 C                    -1.25504  -0.40054  -0.00043 
 H                    -1.01145  -1.46332  -0.00089 
 C                     1.07125   0.16551   0.00014 
 C                    -2.58188  -0.04065  -0.00043 
 C                     2.2968   -0.19321   0.00013 
 H                     2.84124  -0.34957  -0.93032 
 H                     2.841    -0.35044   0.93058 
 C                    -0.23058   0.56009   0.00016 
 H                    -0.47358   1.6173    0.00062 
 
 NAtoms=      9 NQM=        9 NQMF=       0 NMMI=      0 NMMIF=      0
                NMic=       0 NMicF=      0.
                    Isotopes and Nuclear Properties:
 (Nuclear quadrupole moments (NQMom) in fm**2, nuclear magnetic moments (NMagM)
  in nuclear magnetons)

  Atom         1           2           3           4           5           6           7           8           9
 IAtWgt=          12           1          12          12          12           1           1          12           1
 AtmWgt=  12.0000000   1.0078250  12.0000000  12.0000000  12.0000000   1.0078250   1.0078250  12.0000000   1.0078250
 NucSpn=           0           1           0           0           0           1           1           0           1
 AtZEff=   0.0000000   0.0000000   0.0000000   0.0000000   0.0000000   0.0000000   0.0000000   0.0000000   0.0000000
 NQMom=    0.0000000   0.0000000   0.0000000   0.0000000   0.0000000   0.0000000   0.0000000   0.0000000   0.0000000
 NMagM=    0.0000000   2.7928460   0.0000000   0.0000000   0.0000000   2.7928460   2.7928460   0.0000000   2.7928460
 AtZNuc=   6.0000000   1.0000000   6.0000000   6.0000000   6.0000000   1.0000000   1.0000000   6.0000000   1.0000000
 Leave Link  101 at Wed Jul 20 23:03:43 2016, MaxMem=    33554432 cpu:         0.3
 (Enter /home/proyectos/fulerenos/M3C-v2.0/M3C-deps_CCC/g09-AM64L-G09RevC.01/l103.exe)

 GradGradGradGradGradGradGradGradGradGradGradGradGradGradGradGradGradGrad
 Berny optimization.
 Initialization pass.
 Trust Radius=3.00D-01 FncErr=1.00D-07 GrdErr=1.00D-07
 Number of steps in this run=      2 maximum allowed number of steps=      2.
 GradGradGradGradGradGradGradGradGradGradGradGradGradGradGradGradGradGrad

 Leave Link  103 at Wed Jul 20 23:03:43 2016, MaxMem=    33554432 cpu:         0.0
 (Enter /home/proyectos/fulerenos/M3C-v2.0/M3C-deps_CCC/g09-AM64L-G09RevC.01/l202.exe)
                          Input orientation:                          
 ---------------------------------------------------------------------
 Center     Atomic      Atomic             Coordinates (Angstroms)
 Number     Number       Type             X           Y           Z
 ---------------------------------------------------------------------
      1          6           0       -1.255042   -0.400540   -0.000428
      2          1           0       -1.011448   -1.463316   -0.000895
      3          6           0        1.071254    0.165515    0.000140
      4          6           0       -2.581880   -0.040651   -0.000432
      5          6           0        2.296796   -0.193206    0.000132
      6          1           0        2.841245   -0.349566   -0.930319
      7          1           0        2.841002   -0.350439    0.930576
      8          6           0       -0.230584    0.560094    0.000156
      9          1           0       -0.473583    1.617300    0.000620
 ---------------------------------------------------------------------
                    Distance matrix (angstroms):
                    1          2          3          4          5
     1  C    0.000000
     2  H    1.090335   0.000000
     3  C    2.394174   2.644001   0.000000
     4  C    1.374780   2.119017   3.658947   0.000000
     5  C    3.557884   3.543679   1.276963   4.881061   0.000000
     6  H    4.200816   4.116735   2.064928   5.510934   1.089316
     7  H    4.200816   4.116735   2.064928   5.510934   1.089316
     8  C    1.404397   2.168856   1.360322   2.426827   2.637254
     9  H    2.163875   3.127218   2.119953   2.682111   3.309521
                    6          7          8          9
     6  H    0.000000
     7  H    1.860895   0.000000
     8  C    3.336075   3.336075   0.000000
     9  H    3.965261   3.965261   1.084773   0.000000
 Stoichiometry    C5H4(1+,4)
 Framework group  CS[SG(C5H2),X(H2)]
 Deg. of freedom    14
 Full point group                 CS      NOp   2
 Largest Abelian subgroup         CS      NOp   2
 Largest concise Abelian subgroup CS      NOp   2
                         Standard orientation:                         
 ---------------------------------------------------------------------
 Center     Atomic      Atomic             Coordinates (Angstroms)
 Number     Number       Type             X           Y           Z
 ---------------------------------------------------------------------
      1          6           0        1.313045    0.107430   -0.000000
      2          1           0        1.492428   -0.968048   -0.000000
      3          6           0       -1.053563   -0.254838    0.000000
      4          6           0        2.402933    0.945382   -0.000000
      5          6           0       -2.050229   -1.053144    0.000000
      6          1           0       -2.493864   -1.405373    0.930448
      7          1           0       -2.493864   -1.405373   -0.930448
      8          6           0        0.000000    0.605673   -0.000000
      9          1           0       -0.177813    1.675774   -0.000000
 ---------------------------------------------------------------------
 Rotational constants (GHZ):     38.1175023      2.5834995      2.4606252
 Leave Link  202 at Wed Jul 20 23:03:43 2016, MaxMem=    33554432 cpu:         0.0
 (Enter /home/proyectos/fulerenos/M3C-v2.0/M3C-deps_CCC/g09-AM64L-G09RevC.01/l301.exe)
 Standard basis: 6-311++G(3df,2p) (5D, 7F)
 Ernie: Thresh=  0.10000D-02 Tol=  0.10000D-05 Strict=F.
 There are   181 symmetry adapted cartesian basis functions of A'  symmetry.
 There are    84 symmetry adapted cartesian basis functions of A"  symmetry.
 There are   156 symmetry adapted basis functions of A'  symmetry.
 There are    79 symmetry adapted basis functions of A"  symmetry.
   235 basis functions,   338 primitive gaussians,   265 cartesian basis functions
    18 alpha electrons       15 beta electrons
       nuclear repulsion energy       124.2948869580 Hartrees.
 IExCor=  402 DFT=T Ex+Corr=B3LYP ExCW=0 ScaHFX=  0.200000
 ScaDFX=  0.800000  0.720000  1.000000  0.810000 ScalE2=  1.000000  1.000000
 IRadAn=      0 IRanWt=     -1 IRanGd=            0 ICorTp=0 IEmpDi=  4
 NAtoms=    9 NActive=    9 NUniq=    8 SFac= 1.27D+00 NAtFMM=   60 NAOKFM=F Big=F
 Integral buffers will be    131072 words long.
 Raffenetti 2 integral format.
 Two-electron integral symmetry is turned on.
 Leave Link  301 at Wed Jul 20 23:03:43 2016, MaxMem=    33554432 cpu:         0.2
 (Enter /home/proyectos/fulerenos/M3C-v2.0/M3C-deps_CCC/g09-AM64L-G09RevC.01/l302.exe)
 NPDir=0 NMtPBC=     1 NCelOv=     1 NCel=       1 NClECP=     1 NCelD=      1
         NCelK=      1 NCelE2=     1 NClLst=     1 CellRange=     0.0.
 One-electron integrals computed using PRISM.
 One-electron integral symmetry used in STVInt
 NBasis=   235 RedAO= T EigKep=  1.07D-06  NBF=   156    79
 NBsUse=   235 1.00D-06 EigRej= -1.00D+00 NBFU=   156    79
 Precomputing XC quadrature grid using
 IXCGrd= 4 IRadAn=           0 IRanWt=          -1 IRanGd=           0 AccXCQ= 0.00D+00.
 Generated NRdTot=       0 NPtTot=           0 NUsed=           0 NTot=          32
 NSgBfM=   265   265   265   265   265 MxSgAt=     9 MxSgA2=     9.
 Leave Link  302 at Wed Jul 20 23:03:44 2016, MaxMem=    33554432 cpu:         0.6
 (Enter /home/proyectos/fulerenos/M3C-v2.0/M3C-deps_CCC/g09-AM64L-G09RevC.01/l303.exe)
 DipDrv:  MaxL=1.
 Leave Link  303 at Wed Jul 20 23:03:44 2016, MaxMem=    33554432 cpu:         0.1
 (Enter /home/proyectos/fulerenos/M3C-v2.0/M3C-deps_CCC/g09-AM64L-G09RevC.01/l401.exe)
 ExpMin= 3.60D-02 ExpMax= 4.56D+03 ExpMxC= 6.82D+02 IAcc=3 IRadAn=         5 AccDes= 0.00D+00
 Harris functional with IExCor=  402 and IRadAn=       5 diagonalized for initial guess.
 HarFok:  IExCor=  402 AccDes= 0.00D+00 IRadAn=         5 IDoV= 1 UseB2=F ITyADJ=14
 ICtDFT=  3500011 ScaDFX=  1.000000  1.000000  1.000000  1.000000
 FoFCou: FMM=F IPFlag=           0 FMFlag=      100000 FMFlg1=           0
         NFxFlg=           0 DoJE=T BraDBF=F KetDBF=T FulRan=T
         wScrn=  0.000000 ICntrl=     500 IOpCl=  0 I1Cent=   200000004 NGrid=           0
         NMat0=    1 NMatS0=      1 NMatT0=    0 NMatD0=    1 NMtDS0=    0 NMtDT0=    0
 Petite list used in FoFCou.
 Harris En= -192.402026377202    
 JPrj=0 DoOrth=F DoCkMO=F.
 Initial guess orbital symmetries:
 Alpha Orbitals:
       Occupied  (A') (A') (A') (A') (A') (A') (A') (A') (A') (A')
                 (A') (A") (A') (A") (A') (A') (A") (A')
       Virtual   (A") (A') (A") (A') (A') (A') (A") (A') (A') (A")
                 (A') (A') (A") (A') (A') (A') (A") (A') (A') (A")
                 (A') (A') (A') (A") (A') (A') (A') (A') (A') (A")
                 (A') (A") (A') (A') (A') (A") (A') (A") (A') (A')
                 (A') (A") (A') (A') (A") (A') (A') (A') (A") (A')
                 (A") (A') (A') (A") (A') (A") (A') (A") (A') (A')
                 (A') (A") (A") (A") (A') (A') (A") (A') (A') (A')
                 (A') (A") (A') (A') (A") (A') (A') (A") (A') (A')
                 (A") (A") (A') (A') (A') (A') (A") (A') (A') (A')
                 (A") (A') (A") (A') (A') (A') (A") (A') (A") (A')
                 (A") (A') (A") (A') (A') (A") (A') (A") (A') (A')
                 (A") (A') (A") (A') (A') (A') (A') (A") (A') (A')
                 (A") (A') (A") (A") (A') (A") (A') (A") (A') (A")
                 (A') (A") (A') (A") (A') (A') (A') (A") (A') (A")
                 (A') (A") (A') (A') (A") (A') (A") (A') (A') (A")
                 (A') (A') (A') (A") (A') (A") (A') (A') (A') (A")
                 (A') (A') (A') (A") (A') (A') (A') (A') (A") (A')
                 (A") (A") (A') (A') (A") (A") (A') (A') (A") (A')
                 (A') (A") (A') (A") (A') (A') (A') (A") (A") (A')
                 (A') (A") (A') (A") (A") (A") (A') (A') (A') (A")
                 (A') (A') (A") (A') (A") (A') (A') (A") (A') (A')
                 (A') (A') (A') (A') (A') (A') (A')
 Beta  Orbitals:
       Occupied  (A') (A') (A') (A') (A') (A') (A') (A') (A') (A')
                 (A') (A") (A') (A") (A')
       Virtual   (A') (A") (A') (A") (A') (A") (A') (A') (A') (A")
                 (A') (A') (A") (A') (A') (A") (A') (A') (A') (A")
                 (A') (A') (A") (A') (A') (A') (A") (A') (A') (A')
                 (A') (A') (A") (A') (A") (A') (A') (A') (A") (A')
                 (A") (A') (A') (A') (A") (A') (A') (A") (A') (A')
                 (A') (A") (A') (A") (A') (A') (A") (A') (A") (A')
                 (A") (A') (A') (A') (A") (A") (A") (A') (A') (A")
                 (A') (A') (A') (A') (A") (A') (A') (A") (A') (A')
                 (A") (A') (A') (A") (A") (A') (A') (A') (A') (A")
                 (A') (A') (A') (A") (A') (A") (A') (A') (A') (A")
                 (A') (A") (A') (A") (A') (A") (A') (A') (A") (A')
                 (A") (A') (A') (A") (A') (A") (A') (A') (A') (A')
                 (A") (A') (A') (A") (A') (A") (A") (A') (A") (A')
                 (A") (A') (A") (A') (A") (A') (A") (A') (A') (A')
                 (A") (A') (A") (A') (A") (A') (A') (A") (A') (A")
                 (A') (A') (A") (A') (A') (A') (A") (A') (A") (A')
                 (A') (A') (A") (A') (A') (A') (A") (A') (A') (A')
                 (A') (A") (A') (A") (A") (A') (A') (A") (A") (A')
                 (A') (A") (A') (A') (A") (A') (A") (A') (A') (A')
                 (A") (A") (A') (A') (A") (A') (A") (A") (A") (A')
                 (A') (A') (A") (A') (A') (A") (A') (A") (A') (A')
                 (A") (A') (A') (A') (A') (A') (A') (A') (A') (A')
 The electronic state of the initial guess is 4-A".
 Initial guess <Sx>= 0.0000 <Sy>= 0.0000 <Sz>= 1.5000 <S**2>= 3.7500 S= 1.5000
 Leave Link  401 at Wed Jul 20 23:03:52 2016, MaxMem=    33554432 cpu:         6.6
 (Enter /home/proyectos/fulerenos/M3C-v2.0/M3C-deps_CCC/g09-AM64L-G09RevC.01/l502.exe)
 UHF open shell SCF:
 Using DIIS extrapolation, IDIIS=  1040.
 Integral symmetry usage will be decided dynamically.
 IVT=      233035 IEndB=      233035 NGot=    33554432 MDV=    33408528
 LenX=    33408528 LenY=    33337862
 Requested convergence on RMS density matrix=1.00D-08 within 128 cycles.
 Requested convergence on MAX density matrix=1.00D-06.
 Requested convergence on             energy=1.00D-06.
 No special actions if energy rises.
 Fock matrices will be formed incrementally for  20 cycles.

 Cycle   1  Pass 1  IDiag  1:
 FoFJK:  IHMeth= 1 ICntrl=       0 DoSepK=F KAlg= 0 I1Cent=   0 FoldK=F
 IRaf= 970000000 NMat=   1 IRICut=       1 DoRegI=T DoRafI=F ISym2E= 1.
 FoFCou: FMM=F IPFlag=           0 FMFlag=      100000 FMFlg1=           0
         NFxFlg=           0 DoJE=F BraDBF=F KetDBF=F FulRan=T
         wScrn=  0.000000 ICntrl=       0 IOpCl=  1 I1Cent=           0 NGrid=           0
         NMat0=    1 NMatS0=      1 NMatT0=    0 NMatD0=    1 NMtDS0=    0 NMtDT0=    0
 Petite list used in FoFCou.
 E= -192.297512299256    
 DIIS: error= 2.27D-02 at cycle   1 NSaved=   1.
 NSaved= 1 IEnMin= 1 EnMin= -192.297512299256     IErMin= 1 ErrMin= 2.27D-02
 ErrMax= 2.27D-02  0.00D+00 EMaxC= 1.00D-01 BMatC= 4.46D-01 BMatP= 4.46D-01
 IDIUse=3 WtCom= 7.73D-01 WtEn= 2.27D-01
 Coeff-Com:  0.100D+01
 Coeff-En:   0.100D+01
 Coeff:      0.100D+01
 Gap=     0.191 Goal=   None    Shift=    0.000
 Gap=    -0.079 Goal=   None    Shift=    0.000
 GapD=   -0.079 DampG=0.250 DampE=0.500 DampFc=0.2500 IDamp=-1.
 Damping current iteration by 2.50D-01
 RMSDP=1.26D-02 MaxDP=1.26D+00              OVMax= 9.20D-01

 Cycle   2  Pass 1  IDiag  1:
 RMSU=  3.14D-03    CP:  1.00D+00
 E= -192.313563685232     Delta-E=       -0.016051385976 Rises=F Damp=T
 DIIS: error= 1.11D-02 at cycle   2 NSaved=   2.
 NSaved= 2 IEnMin= 2 EnMin= -192.313563685232     IErMin= 2 ErrMin= 1.11D-02
 ErrMax= 1.11D-02  0.00D+00 EMaxC= 1.00D-01 BMatC= 1.07D-01 BMatP= 4.46D-01
 IDIUse=3 WtCom= 8.89D-01 WtEn= 1.11D-01
 Coeff-Com: -0.206D+00 0.121D+01
 Coeff-En:   0.372D+00 0.628D+00
 Coeff:     -0.142D+00 0.114D+01
 Gap=     0.230 Goal=   None    Shift=    0.000
 Gap=    -0.138 Goal=   None    Shift=    0.000
 RMSDP=7.13D-03 MaxDP=1.01D+00 DE=-1.61D-02 OVMax= 9.54D-01

 Cycle   3  Pass 1  IDiag  1:
 RMSU=  5.27D-03    CP:  1.11D+00 -6.63D-02
 E= -192.296570640613     Delta-E=        0.016993044619 Rises=F Damp=F
 DIIS: error= 2.97D-02 at cycle   3 NSaved=   3.
 NSaved= 3 IEnMin= 2 EnMin= -192.313563685232     IErMin= 2 ErrMin= 1.11D-02
 ErrMax= 2.97D-02  0.00D+00 EMaxC= 1.00D-01 BMatC= 3.12D-01 BMatP= 1.07D-01
 IDIUse=2 WtCom= 0.00D+00 WtEn= 1.00D+00
 Coeff-En:   0.000D+00 0.561D+00 0.439D+00
 Coeff:      0.000D+00 0.561D+00 0.439D+00
 Gap=     0.211 Goal=   None    Shift=    0.000
 Gap=     0.017 Goal=   None    Shift=    0.000
 RMSDP=9.90D-03 MaxDP=1.28D+00 DE= 1.70D-02 OVMax= 5.43D-01

 Cycle   4  Pass 1  IDiag  1:
 RMSU=  3.48D-03    CP:  9.79D-01  2.02D+00  4.83D-02
 E= -192.291282094566     Delta-E=        0.005288546048 Rises=F Damp=F
 DIIS: error= 2.55D-02 at cycle   4 NSaved=   4.
 NSaved= 4 IEnMin= 2 EnMin= -192.313563685232     IErMin= 2 ErrMin= 1.11D-02
 ErrMax= 2.55D-02  0.00D+00 EMaxC= 1.00D-01 BMatC= 3.18D-01 BMatP= 1.07D-01
 IDIUse=2 WtCom= 0.00D+00 WtEn= 1.00D+00
 Coeff-En:   0.000D+00 0.000D+00 0.508D+00 0.492D+00
 Coeff:      0.000D+00 0.000D+00 0.508D+00 0.492D+00
 Gap=     0.195 Goal=   None    Shift=    0.000
 Gap=     0.055 Goal=   None    Shift=    0.000
 RMSDP=5.16D-03 MaxDP=5.78D-01 DE= 5.29D-03 OVMax= 4.82D-01

 Cycle   5  Pass 1  IDiag  1:
 RMSU=  1.81D-03    CP:  1.03D+00  8.05D-01  4.53D-01  6.05D-01
 E= -192.399782078220     Delta-E=       -0.108499983654 Rises=F Damp=F
 DIIS: error= 8.75D-03 at cycle   5 NSaved=   5.
 NSaved= 5 IEnMin= 5 EnMin= -192.399782078220     IErMin= 5 ErrMin= 8.75D-03
 ErrMax= 8.75D-03  0.00D+00 EMaxC= 1.00D-01 BMatC= 3.83D-02 BMatP= 1.07D-01
 IDIUse=3 WtCom= 9.13D-01 WtEn= 8.75D-02
 Coeff-Com: -0.448D+00 0.589D+00 0.166D+00-0.956D-01 0.788D+00
 Coeff-En:   0.000D+00 0.000D+00 0.000D+00 0.560D-02 0.994D+00
 Coeff:     -0.409D+00 0.538D+00 0.151D+00-0.867D-01 0.806D+00
 Gap=     0.161 Goal=   None    Shift=    0.000
 Gap=     0.101 Goal=   None    Shift=    0.000
 RMSDP=1.92D-03 MaxDP=2.22D-01 DE=-1.08D-01 OVMax= 5.17D-02

 Cycle   6  Pass 1  IDiag  1:
 RMSU=  8.40D-04    CP:  1.07D+00  9.70D-01  6.40D-01  5.15D-01  1.11D+00
 E= -192.408770601661     Delta-E=       -0.008988523442 Rises=F Damp=F
 DIIS: error= 4.47D-03 at cycle   6 NSaved=   6.
 NSaved= 6 IEnMin= 6 EnMin= -192.408770601661     IErMin= 6 ErrMin= 4.47D-03
 ErrMax= 4.47D-03  0.00D+00 EMaxC= 1.00D-01 BMatC= 5.91D-03 BMatP= 3.83D-02
 IDIUse=3 WtCom= 9.55D-01 WtEn= 4.47D-02
 Coeff-Com: -0.263D+00 0.344D+00 0.373D-01-0.566D-01 0.447D+00 0.491D+00
 Coeff-En:   0.000D+00 0.000D+00 0.000D+00 0.000D+00 0.000D+00 0.100D+01
 Coeff:     -0.252D+00 0.329D+00 0.356D-01-0.541D-01 0.427D+00 0.514D+00
 Gap=     0.166 Goal=   None    Shift=    0.000
 Gap=     0.109 Goal=   None    Shift=    0.000
 RMSDP=5.03D-04 MaxDP=4.56D-02 DE=-8.99D-03 OVMax= 2.05D-02

 Cycle   7  Pass 1  IDiag  1:
 RMSU=  2.15D-04    CP:  1.06D+00  1.06D+00  6.18D-01  5.45D-01  1.27D+00
                    CP:  9.69D-01
 E= -192.410486406205     Delta-E=       -0.001715804543 Rises=F Damp=F
 DIIS: error= 2.49D-03 at cycle   7 NSaved=   7.
 NSaved= 7 IEnMin= 7 EnMin= -192.410486406205     IErMin= 7 ErrMin= 2.49D-03
 ErrMax= 2.49D-03  0.00D+00 EMaxC= 1.00D-01 BMatC= 1.58D-03 BMatP= 5.91D-03
 IDIUse=3 WtCom= 9.75D-01 WtEn= 2.49D-02
 Coeff-Com: -0.472D-01 0.748D-01-0.499D-01-0.752D-02-0.185D-01 0.260D+00
 Coeff-Com:  0.788D+00
 Coeff-En:   0.000D+00 0.000D+00 0.000D+00 0.000D+00 0.000D+00 0.000D+00
 Coeff-En:   0.100D+01
 Coeff:     -0.460D-01 0.730D-01-0.487D-01-0.734D-02-0.180D-01 0.254D+00
 Coeff:      0.794D+00
 Gap=     0.169 Goal=   None    Shift=    0.000
 Gap=     0.114 Goal=   None    Shift=    0.000
 RMSDP=5.63D-04 MaxDP=7.59D-02 DE=-1.72D-03 OVMax= 2.56D-02

 Cycle   8  Pass 1  IDiag  1:
 RMSU=  1.60D-04    CP:  1.07D+00  1.17D+00  6.31D-01  5.65D-01  1.39D+00
                    CP:  1.26D+00  1.14D+00
 E= -192.411352538904     Delta-E=       -0.000866132699 Rises=F Damp=F
 DIIS: error= 7.11D-04 at cycle   8 NSaved=   8.
 NSaved= 8 IEnMin= 8 EnMin= -192.411352538904     IErMin= 8 ErrMin= 7.11D-04
 ErrMax= 7.11D-04  0.00D+00 EMaxC= 1.00D-01 BMatC= 1.34D-04 BMatP= 1.58D-03
 IDIUse=3 WtCom= 9.93D-01 WtEn= 7.11D-03
 Coeff-Com:  0.156D-01-0.203D-01-0.115D-02 0.249D-02-0.575D-01-0.192D+00
 Coeff-Com:  0.119D+00 0.113D+01
 Coeff-En:   0.000D+00 0.000D+00 0.000D+00 0.000D+00 0.000D+00 0.000D+00
 Coeff-En:   0.000D+00 0.100D+01
 Coeff:      0.155D-01-0.202D-01-0.114D-02 0.247D-02-0.571D-01-0.191D+00
 Coeff:      0.118D+00 0.113D+01
 Gap=     0.170 Goal=   None    Shift=    0.000
 Gap=     0.121 Goal=   None    Shift=    0.000
 RMSDP=1.87D-04 MaxDP=1.40D-02 DE=-8.66D-04 OVMax= 1.37D-02

 Cycle   9  Pass 1  IDiag  1:
 RMSU=  7.65D-05    CP:  1.07D+00  1.19D+00  6.47D-01  5.72D-01  1.46D+00
                    CP:  1.30D+00  1.43D+00  1.12D+00
 E= -192.411464616510     Delta-E=       -0.000112077606 Rises=F Damp=F
 DIIS: error= 3.05D-04 at cycle   9 NSaved=   9.
 NSaved= 9 IEnMin= 9 EnMin= -192.411464616510     IErMin= 9 ErrMin= 3.05D-04
 ErrMax= 3.05D-04  0.00D+00 EMaxC= 1.00D-01 BMatC= 4.38D-05 BMatP= 1.34D-04
 IDIUse=3 WtCom= 9.97D-01 WtEn= 3.05D-03
 Coeff-Com:  0.177D-03 0.849D-05 0.141D-01-0.454D-02 0.689D-02-0.512D-01
 Coeff-Com: -0.764D-01 0.161D+00 0.950D+00
 Coeff-En:   0.000D+00 0.000D+00 0.000D+00 0.000D+00 0.000D+00 0.000D+00
 Coeff-En:   0.000D+00 0.000D+00 0.100D+01
 Coeff:      0.176D-03 0.846D-05 0.141D-01-0.452D-02 0.687D-02-0.511D-01
 Coeff:     -0.762D-01 0.161D+00 0.950D+00
 Gap=     0.169 Goal=   None    Shift=    0.000
 Gap=     0.122 Goal=   None    Shift=    0.000
 RMSDP=7.84D-05 MaxDP=9.89D-03 DE=-1.12D-04 OVMax= 2.56D-03

 Cycle  10  Pass 1  IDiag  1:
 RMSU=  2.27D-05    CP:  1.07D+00  1.17D+00  6.55D-01  5.66D-01  1.46D+00
                    CP:  1.30D+00  1.43D+00  1.18D+00  1.18D+00
 E= -192.411482697540     Delta-E=       -0.000018081030 Rises=F Damp=F
 DIIS: error= 1.20D-04 at cycle  10 NSaved=  10.
 NSaved=10 IEnMin=10 EnMin= -192.411482697540     IErMin=10 ErrMin= 1.20D-04
 ErrMax= 1.20D-04  0.00D+00 EMaxC= 1.00D-01 BMatC= 5.76D-06 BMatP= 4.38D-05
 IDIUse=3 WtCom= 9.99D-01 WtEn= 1.20D-03
 Coeff-Com:  0.451D-02-0.651D-02 0.149D-02 0.645D-03 0.255D-03 0.264D-01
 Coeff-Com: -0.158D-01-0.158D+00 0.101D+00 0.105D+01
 Coeff-En:   0.000D+00 0.000D+00 0.000D+00 0.000D+00 0.000D+00 0.000D+00
 Coeff-En:   0.000D+00 0.000D+00 0.000D+00 0.100D+01
 Coeff:      0.450D-02-0.650D-02 0.149D-02 0.644D-03 0.255D-03 0.264D-01
 Coeff:     -0.158D-01-0.158D+00 0.101D+00 0.105D+01
 Gap=     0.169 Goal=   None    Shift=    0.000
 Gap=     0.123 Goal=   None    Shift=    0.000
 RMSDP=3.55D-05 MaxDP=4.25D-03 DE=-1.81D-05 OVMax= 1.50D-03

 Cycle  11  Pass 1  IDiag  1:
 RMSU=  9.71D-06    CP:  1.07D+00  1.16D+00  6.58D-01  5.67D-01  1.46D+00
                    CP:  1.30D+00  1.44D+00  1.19D+00  1.35D+00  1.28D+00
 E= -192.411484810705     Delta-E=       -0.000002113165 Rises=F Damp=F
 DIIS: error= 1.04D-04 at cycle  11 NSaved=  11.
 NSaved=11 IEnMin=11 EnMin= -192.411484810705     IErMin=11 ErrMin= 1.04D-04
 ErrMax= 1.04D-04  0.00D+00 EMaxC= 1.00D-01 BMatC= 2.78D-06 BMatP= 5.76D-06
 IDIUse=3 WtCom= 9.99D-01 WtEn= 1.04D-03
 Coeff-Com:  0.269D-02-0.397D-02-0.152D-02 0.953D-03-0.837D-03 0.271D-01
 Coeff-Com:  0.105D-01-0.119D+00-0.123D+00 0.606D+00 0.601D+00
 Coeff-En:   0.000D+00 0.000D+00 0.000D+00 0.000D+00 0.000D+00 0.000D+00
 Coeff-En:   0.000D+00 0.000D+00 0.000D+00 0.000D+00 0.100D+01
 Coeff:      0.268D-02-0.397D-02-0.152D-02 0.952D-03-0.836D-03 0.271D-01
 Coeff:      0.105D-01-0.119D+00-0.123D+00 0.605D+00 0.602D+00
 Gap=     0.169 Goal=   None    Shift=    0.000
 Gap=     0.123 Goal=   None    Shift=    0.000
 RMSDP=1.62D-05 MaxDP=1.58D-03 DE=-2.11D-06 OVMax= 6.92D-04

 Cycle  12  Pass 1  IDiag  1:
 RMSU=  4.42D-06    CP:  1.07D+00  1.16D+00  6.60D-01  5.66D-01  1.45D+00
                    CP:  1.29D+00  1.43D+00  1.19D+00  1.41D+00  1.38D+00
                    CP:  8.83D-01
 E= -192.411485726342     Delta-E=       -0.000000915636 Rises=F Damp=F
 DIIS: error= 2.81D-05 at cycle  12 NSaved=  12.
 NSaved=12 IEnMin=12 EnMin= -192.411485726342     IErMin=12 ErrMin= 2.81D-05
 ErrMax= 2.81D-05  0.00D+00 EMaxC= 1.00D-01 BMatC= 2.79D-07 BMatP= 2.78D-06
 IDIUse=1 WtCom= 1.00D+00 WtEn= 0.00D+00
 Coeff-Com: -0.430D-04 0.545D-04-0.564D-03 0.624D-04 0.630D-03 0.809D-02
 Coeff-Com:  0.918D-02-0.219D-01-0.498D-01 0.456D-01 0.212D+00 0.797D+00
 Coeff:     -0.430D-04 0.545D-04-0.564D-03 0.624D-04 0.630D-03 0.809D-02
 Coeff:      0.918D-02-0.219D-01-0.498D-01 0.456D-01 0.212D+00 0.797D+00
 Gap=     0.169 Goal=   None    Shift=    0.000
 Gap=     0.123 Goal=   None    Shift=    0.000
 RMSDP=9.81D-06 MaxDP=1.22D-03 DE=-9.16D-07 OVMax= 3.41D-04

 Cycle  13  Pass 1  IDiag  1:
 RMSU=  1.99D-06    CP:  1.07D+00  1.16D+00  6.60D-01  5.66D-01  1.45D+00
                    CP:  1.29D+00  1.42D+00  1.18D+00  1.41D+00  1.43D+00
                    CP:  1.03D+00  1.11D+00
 E= -192.411485847863     Delta-E=       -0.000000121521 Rises=F Damp=F
 DIIS: error= 4.28D-06 at cycle  13 NSaved=  13.
 NSaved=13 IEnMin=13 EnMin= -192.411485847863     IErMin=13 ErrMin= 4.28D-06
 ErrMax= 4.28D-06  0.00D+00 EMaxC= 1.00D-01 BMatC= 1.14D-08 BMatP= 2.79D-07
 IDIUse=1 WtCom= 1.00D+00 WtEn= 0.00D+00
 Coeff-Com: -0.254D-03 0.350D-03 0.151D-03-0.789D-04 0.390D-04-0.385D-02
 Coeff-Com: -0.236D-02 0.150D-01 0.213D-01-0.792D-01-0.696D-01-0.777D-01
 Coeff-Com:  0.120D+01
 Coeff:     -0.254D-03 0.350D-03 0.151D-03-0.789D-04 0.390D-04-0.385D-02
 Coeff:     -0.236D-02 0.150D-01 0.213D-01-0.792D-01-0.696D-01-0.777D-01
 Coeff:      0.120D+01
 Gap=     0.169 Goal=   None    Shift=    0.000
 Gap=     0.123 Goal=   None    Shift=    0.000
 RMSDP=3.32D-06 MaxDP=3.98D-04 DE=-1.22D-07 OVMax= 1.20D-04

 Cycle  14  Pass 1  IDiag  1:
 RMSU=  1.02D-06    CP:  1.07D+00  1.16D+00  6.60D-01  5.66D-01  1.45D+00
                    CP:  1.29D+00  1.42D+00  1.17D+00  1.42D+00  1.45D+00
                    CP:  1.13D+00  1.32D+00  1.67D+00
 E= -192.411485859582     Delta-E=       -0.000000011720 Rises=F Damp=F
 DIIS: error= 2.59D-06 at cycle  14 NSaved=  14.
 NSaved=14 IEnMin=14 EnMin= -192.411485859582     IErMin=14 ErrMin= 2.59D-06
 ErrMax= 2.59D-06  0.00D+00 EMaxC= 1.00D-01 BMatC= 3.16D-09 BMatP= 1.14D-08
 IDIUse=1 WtCom= 1.00D+00 WtEn= 0.00D+00
 Coeff-Com: -0.658D-04 0.102D-03 0.116D-03-0.287D-04-0.884D-05-0.113D-02
 Coeff-Com: -0.213D-02 0.225D-02 0.602D-02 0.210D-02-0.234D-01-0.127D+00
 Coeff-Com: -0.193D+00 0.134D+01
 Coeff:     -0.658D-04 0.102D-03 0.116D-03-0.287D-04-0.884D-05-0.113D-02
 Coeff:     -0.213D-02 0.225D-02 0.602D-02 0.210D-02-0.234D-01-0.127D+00
 Coeff:     -0.193D+00 0.134D+01
 Gap=     0.169 Goal=   None    Shift=    0.000
 Gap=     0.123 Goal=   None    Shift=    0.000
 RMSDP=2.27D-06 MaxDP=3.00D-04 DE=-1.17D-08 OVMax= 8.03D-05

 Cycle  15  Pass 1  IDiag  1:
 RMSU=  4.11D-07    CP:  1.07D+00  1.15D+00  6.60D-01  5.66D-01  1.45D+00
                    CP:  1.29D+00  1.42D+00  1.17D+00  1.43D+00  1.47D+00
                    CP:  1.19D+00  1.43D+00  2.18D+00  1.67D+00
 E= -192.411485863392     Delta-E=       -0.000000003810 Rises=F Damp=F
 DIIS: error= 7.81D-07 at cycle  15 NSaved=  15.
 NSaved=15 IEnMin=15 EnMin= -192.411485863392     IErMin=15 ErrMin= 7.81D-07
 ErrMax= 7.81D-07  0.00D+00 EMaxC= 1.00D-01 BMatC= 2.56D-10 BMatP= 3.16D-09
 IDIUse=1 WtCom= 1.00D+00 WtEn= 0.00D+00
 Coeff-Com:  0.956D-06-0.767D-05 0.475D-05 0.882D-05 0.684D-04 0.370D-03
 Coeff-Com:  0.186D-03-0.164D-02-0.243D-02 0.915D-02 0.735D-02 0.136D-01
 Coeff-Com: -0.192D+00-0.259D-02 0.117D+01
 Coeff:      0.956D-06-0.767D-05 0.475D-05 0.882D-05 0.684D-04 0.370D-03
 Coeff:      0.186D-03-0.164D-02-0.243D-02 0.915D-02 0.735D-02 0.136D-01
 Coeff:     -0.192D+00-0.259D-02 0.117D+01
 Gap=     0.169 Goal=   None    Shift=    0.000
 Gap=     0.123 Goal=   None    Shift=    0.000
 RMSDP=1.08D-06 MaxDP=1.46D-04 DE=-3.81D-09 OVMax= 3.00D-05

 Cycle  16  Pass 1  IDiag  1:
 RMSU=  1.30D-07    CP:  1.07D+00  1.15D+00  6.60D-01  5.66D-01  1.45D+00
                    CP:  1.29D+00  1.42D+00  1.17D+00  1.44D+00  1.48D+00
                    CP:  1.21D+00  1.47D+00  2.37D+00  2.06D+00  1.30D+00
 E= -192.411485863788     Delta-E=       -0.000000000396 Rises=F Damp=F
 DIIS: error= 2.35D-07 at cycle  16 NSaved=  16.
 NSaved=16 IEnMin=16 EnMin= -192.411485863788     IErMin=16 ErrMin= 2.35D-07
 ErrMax= 2.35D-07  0.00D+00 EMaxC= 1.00D-01 BMatC= 3.36D-11 BMatP= 2.56D-10
 IDIUse=1 WtCom= 1.00D+00 WtEn= 0.00D+00
 Coeff-Com: -0.150D-04 0.211D-04-0.566D-05-0.239D-05 0.439D-04 0.222D-03
 Coeff-Com:  0.295D-03-0.617D-03-0.128D-02 0.145D-02 0.376D-02 0.196D-01
 Coeff-Com: -0.172D-01-0.171D+00 0.268D+00 0.897D+00
 Coeff:     -0.150D-04 0.211D-04-0.566D-05-0.239D-05 0.439D-04 0.222D-03
 Coeff:      0.295D-03-0.617D-03-0.128D-02 0.145D-02 0.376D-02 0.196D-01
 Coeff:     -0.172D-01-0.171D+00 0.268D+00 0.897D+00
 Gap=     0.169 Goal=   None    Shift=    0.000
 Gap=     0.123 Goal=   None    Shift=    0.000
 RMSDP=2.28D-07 MaxDP=2.87D-05 DE=-3.96D-10 OVMax= 6.46D-06

 Cycle  17  Pass 1  IDiag  1:
 RMSU=  3.13D-08    CP:  1.07D+00  1.15D+00  6.60D-01  5.66D-01  1.45D+00
                    CP:  1.29D+00  1.42D+00  1.17D+00  1.44D+00  1.48D+00
                    CP:  1.22D+00  1.48D+00  2.40D+00  2.11D+00  1.43D+00
                    CP:  9.29D-01
 E= -192.411485863805     Delta-E=       -0.000000000017 Rises=F Damp=F
 DIIS: error= 2.25D-07 at cycle  17 NSaved=  17.
 NSaved=17 IEnMin=17 EnMin= -192.411485863805     IErMin=17 ErrMin= 2.25D-07
 ErrMax= 2.25D-07  0.00D+00 EMaxC= 1.00D-01 BMatC= 1.39D-11 BMatP= 3.36D-11
 IDIUse=1 WtCom= 1.00D+00 WtEn= 0.00D+00
 Coeff-Com: -0.311D-05 0.407D-05-0.880D-06-0.601D-06-0.143D-05-0.249D-04
 Coeff-Com: -0.160D-04 0.978D-04 0.113D-03-0.638D-03-0.118D-03 0.112D-02
 Coeff-Com:  0.144D-01-0.216D-01-0.729D-01 0.117D+00 0.963D+00
 Coeff:     -0.311D-05 0.407D-05-0.880D-06-0.601D-06-0.143D-05-0.249D-04
 Coeff:     -0.160D-04 0.978D-04 0.113D-03-0.638D-03-0.118D-03 0.112D-02
 Coeff:      0.144D-01-0.216D-01-0.729D-01 0.117D+00 0.963D+00
 Gap=     0.169 Goal=   None    Shift=    0.000
 Gap=     0.123 Goal=   None    Shift=    0.000
 RMSDP=5.12D-08 MaxDP=5.03D-06 DE=-1.68D-11 OVMax= 2.20D-06

 Cycle  18  Pass 1  IDiag  1:
 RMSU=  8.76D-09    CP:  1.07D+00  1.15D+00  6.60D-01  5.66D-01  1.45D+00
                    CP:  1.29D+00  1.42D+00  1.17D+00  1.44D+00  1.48D+00
                    CP:  1.22D+00  1.48D+00  2.41D+00  2.12D+00  1.45D+00
                    CP:  9.69D-01  1.10D+00
 E= -192.411485863816     Delta-E=       -0.000000000011 Rises=F Damp=F
 DIIS: error= 3.38D-08 at cycle  18 NSaved=  18.
 NSaved=18 IEnMin=18 EnMin= -192.411485863816     IErMin=18 ErrMin= 3.38D-08
 ErrMax= 3.38D-08  0.00D+00 EMaxC= 1.00D-01 BMatC= 4.44D-13 BMatP= 1.39D-11
 IDIUse=1 WtCom= 1.00D+00 WtEn= 0.00D+00
 Coeff-Com: -0.139D-05 0.204D-05 0.127D-05-0.615D-06-0.166D-05-0.248D-04
 Coeff-Com: -0.312D-04 0.676D-04 0.109D-03-0.182D-03-0.340D-03-0.155D-02
 Coeff-Com:  0.251D-02 0.140D-01-0.273D-01-0.795D-01 0.238D-01 0.107D+01
 Coeff:     -0.139D-05 0.204D-05 0.127D-05-0.615D-06-0.166D-05-0.248D-04
 Coeff:     -0.312D-04 0.676D-04 0.109D-03-0.182D-03-0.340D-03-0.155D-02
 Coeff:      0.251D-02 0.140D-01-0.273D-01-0.795D-01 0.238D-01 0.107D+01
 Gap=     0.169 Goal=   None    Shift=    0.000
 Gap=     0.123 Goal=   None    Shift=    0.000
 RMSDP=9.17D-09 MaxDP=7.76D-07 DE=-1.09D-11 OVMax= 5.51D-07

 SCF Done:  E(UB3LYP) =  -192.411485864     A.U. after   18 cycles
            NFock= 18  Conv=0.92D-08     -V/T= 2.0045
 <Sx>= 0.0000 <Sy>= 0.0000 <Sz>= 1.5000 <S**2>= 3.7748 S= 1.5062
 <L.S>= 0.000000000000E+00
 KE= 1.915488696500D+02 PE=-6.871363694598D+02 EE= 1.788811269880D+02
 Annihilation of the first spin contaminant:
 S**2 before annihilation     3.7748,   after     3.7501
 Leave Link  502 at Wed Jul 20 23:15:22 2016, MaxMem=    33554432 cpu:       689.8
 (Enter /home/proyectos/fulerenos/M3C-v2.0/M3C-deps_CCC/g09-AM64L-G09RevC.01/l801.exe)
 DoSCS=F DFT=T ScalE2(SS,OS)=  1.000000  1.000000
 Range of M.O.s used for correlation:     1   235
 NBasis=   235 NAE=    18 NBE=    15 NFC=     0 NFV=     0
 NROrb=    235 NOA=    18 NOB=    15 NVA=   217 NVB=   220

 **** Warning!!: The largest alpha MO coefficient is  0.38535921D+03


 **** Warning!!: The largest beta MO coefficient is  0.44120943D+03

 Leave Link  801 at Wed Jul 20 23:15:22 2016, MaxMem=    33554432 cpu:         0.1
 (Enter /home/proyectos/fulerenos/M3C-v2.0/M3C-deps_CCC/g09-AM64L-G09RevC.01/l1101.exe)
 Using compressed storage, NAtomX=     9.
 Will process     10 centers per pass.
 Leave Link 1101 at Wed Jul 20 23:15:24 2016, MaxMem=    33554432 cpu:         0.6
 (Enter /home/proyectos/fulerenos/M3C-v2.0/M3C-deps_CCC/g09-AM64L-G09RevC.01/l1102.exe)
 Symmetrizing basis deriv contribution to polar:
 IMax=3 JMax=2 DiffMx= 0.00D+00
 Leave Link 1102 at Wed Jul 20 23:15:24 2016, MaxMem=    33554432 cpu:         0.1
 (Enter /home/proyectos/fulerenos/M3C-v2.0/M3C-deps_CCC/g09-AM64L-G09RevC.01/l1110.exe)
 Forming Gx(P) for the SCF density, NAtomX=     9.
 Integral derivatives from FoFJK, PRISM(SPDF).
 Do as many integral derivatives as possible in FoFJK.
 G2DrvN: MDV=      33554256.
 G2DrvN: will do    10 centers at a time, making    1 passes.
 Calling FoFCou, ICntrl=  3107 FMM=F I1Cent=   0 AccDes= 0.00D+00.
 FoFJK:  IHMeth= 1 ICntrl=    3107 DoSepK=F KAlg= 0 I1Cent=   0 FoldK=F
 IRaf=         0 NMat=   1 IRICut=       1 DoRegI=T DoRafI=F ISym2E= 1.
 FoFCou: FMM=F IPFlag=           0 FMFlag=      100000 FMFlg1=           0
         NFxFlg=           0 DoJE=F BraDBF=F KetDBF=F FulRan=T
         wScrn=  0.000000 ICntrl=    3107 IOpCl=  1 I1Cent=           0 NGrid=           0
         NMat0=    1 NMatS0=      1 NMatT0=    0 NMatD0=    1 NMtDS0=    0 NMtDT0=    0
 Petite list used in FoFCou.
 End of G2Drv F.D. properties file   721 does not exist.
 End of G2Drv F.D. properties file   722 does not exist.
 End of G2Drv F.D. properties file   788 does not exist.
 Leave Link 1110 at Wed Jul 20 23:22:55 2016, MaxMem=    33554432 cpu:       445.8
 (Enter /home/proyectos/fulerenos/M3C-v2.0/M3C-deps_CCC/g09-AM64L-G09RevC.01/l1002.exe)
 Minotr:  UHF open shell wavefunction.
          IDoAtm=111111111
          Direct CPHF calculation.
          Differentiating once with respect to electric field.
                with respect to dipole field.
          Differentiating once with respect to nuclear coordinates.
          Using symmetry in CPHF.
          Requested convergence is 1.0D-08 RMS, and 1.0D-07 maximum.
          Secondary convergence is 1.0D-12 RMS, and 1.0D-12 maximum.
          NewPWx=T KeepS1=F KeepF1=F KeepIn=T MapXYZ=F SortEE=F KeepMc=T.
          MDV=      33553868 using IRadAn=       2.
 Generate precomputed XC quadrature information.
          Solving linear equations simultaneously, MaxMat=       0.
 FoFJK:  IHMeth= 1 ICntrl=       0 DoSepK=F KAlg= 0 I1Cent=   0 FoldK=F
 IRaf= 970000000 NMat=  27 IRICut=      67 DoRegI=T DoRafI=T ISym2E= 2.
 FoFCou: FMM=F IPFlag=           0 FMFlag=      100000 FMFlg1=           0
         NFxFlg=           0 DoJE=F BraDBF=F KetDBF=F FulRan=T
         wScrn=  0.000000 ICntrl=       0 IOpCl=  1 I1Cent=           0 NGrid=           0
         NMat0=   27 NMatS0=     27 NMatT0=    0 NMatD0=   27 NMtDS0=    0 NMtDT0=    0
 Integrals replicated using symmetry in FoFCou.
          There are    27 degrees of freedom in the 1st order CPHF.  IDoFFX=4 NUNeed=    27.
     27 vectors produced by pass  0 Test12= 2.67D-14 3.70D-09 XBig12= 3.62D+02 1.18D+01.
 AX will form    27 AO Fock derivatives at one time.
     27 vectors produced by pass  1 Test12= 2.67D-14 3.70D-09 XBig12= 4.84D+01 1.65D+00.
     27 vectors produced by pass  2 Test12= 2.67D-14 3.70D-09 XBig12= 2.00D+00 4.62D-01.
     27 vectors produced by pass  3 Test12= 2.67D-14 3.70D-09 XBig12= 2.41D-02 3.92D-02.
     27 vectors produced by pass  4 Test12= 2.67D-14 3.70D-09 XBig12= 1.91D-04 1.55D-03.
     27 vectors produced by pass  5 Test12= 2.67D-14 3.70D-09 XBig12= 1.19D-06 1.37D-04.
     26 vectors produced by pass  6 Test12= 2.67D-14 3.70D-09 XBig12= 5.08D-09 1.05D-05.
      8 vectors produced by pass  7 Test12= 2.67D-14 3.70D-09 XBig12= 2.56D-11 1.17D-06.
      8 vectors produced by pass  8 Test12= 2.67D-14 3.70D-09 XBig12= 6.34D-12 6.41D-07.
      4 vectors produced by pass  9 Test12= 2.67D-14 3.70D-09 XBig12= 8.42D-13 1.89D-07.
      2 vectors produced by pass 10 Test12= 2.67D-14 3.70D-09 XBig12= 3.18D-14 3.46D-08.
 InvSVY:  IOpt=1 It=  1 EMax= 1.87D-15
 Solved reduced A of dimension   210 with    27 vectors.
 FullF1:  Do perturbations    1 to    27.
 Isotropic polarizability for W=    0.000000       62.78 Bohr**3.
 End of Minotr F.D. properties file   721 does not exist.
 End of Minotr F.D. properties file   722 does not exist.
 End of Minotr F.D. properties file   788 does not exist.
 Leave Link 1002 at Wed Jul 20 23:55:54 2016, MaxMem=    33554432 cpu:      1978.2
 (Enter /home/proyectos/fulerenos/M3C-v2.0/M3C-deps_CCC/g09-AM64L-G09RevC.01/l601.exe)
 Copying SCF densities to generalized density rwf, IOpCl= 1 IROHF=0.

 **********************************************************************

            Population analysis using the SCF density.

 **********************************************************************

 Orbital symmetries:
 Alpha Orbitals:
       Occupied  (A') (A') (A') (A') (A') (A') (A') (A') (A') (A')
                 (A') (A") (A') (A') (A") (A') (A") (A')
       Virtual   (A") (A') (A") (A') (A') (A') (A") (A') (A') (A")
                 (A') (A') (A") (A') (A') (A') (A") (A') (A') (A')
                 (A') (A") (A') (A") (A') (A') (A') (A") (A') (A')
                 (A') (A") (A') (A') (A") (A') (A') (A") (A') (A')
                 (A') (A") (A') (A') (A") (A') (A') (A') (A") (A")
                 (A') (A") (A') (A') (A") (A') (A') (A") (A') (A')
                 (A') (A") (A") (A") (A') (A") (A') (A') (A') (A')
                 (A") (A') (A') (A') (A") (A') (A') (A") (A') (A')
                 (A") (A') (A") (A') (A') (A') (A') (A") (A') (A')
                 (A") (A') (A") (A') (A') (A") (A') (A') (A") (A')
                 (A") (A') (A") (A') (A') (A") (A') (A") (A') (A')
                 (A") (A") (A') (A') (A') (A') (A') (A") (A') (A')
                 (A") (A') (A") (A") (A') (A") (A") (A') (A') (A")
                 (A') (A") (A") (A') (A') (A') (A") (A') (A") (A')
                 (A') (A") (A') (A') (A') (A") (A') (A") (A') (A")
                 (A') (A') (A') (A") (A') (A") (A') (A') (A') (A")
                 (A') (A') (A') (A") (A') (A') (A') (A") (A') (A')
                 (A") (A") (A') (A') (A") (A") (A') (A") (A') (A')
                 (A') (A') (A") (A") (A') (A') (A') (A") (A') (A")
                 (A') (A") (A') (A") (A") (A") (A') (A') (A') (A")
                 (A") (A') (A') (A') (A") (A') (A') (A") (A') (A')
                 (A') (A') (A') (A') (A') (A') (A')
 Beta  Orbitals:
       Occupied  (A') (A') (A') (A') (A') (A') (A') (A') (A') (A')
                 (A') (A") (A') (A") (A')
       Virtual   (A') (A") (A') (A") (A') (A") (A') (A') (A') (A")
                 (A') (A') (A") (A') (A') (A") (A') (A') (A') (A")
                 (A') (A') (A') (A') (A") (A') (A") (A') (A') (A')
                 (A") (A') (A') (A") (A') (A') (A') (A") (A') (A')
                 (A") (A') (A') (A") (A') (A') (A") (A') (A') (A')
                 (A') (A") (A") (A') (A') (A') (A") (A") (A') (A')
                 (A") (A') (A') (A') (A") (A") (A") (A') (A") (A')
                 (A') (A') (A') (A") (A') (A') (A') (A") (A') (A')
                 (A") (A') (A') (A") (A") (A') (A') (A') (A') (A')
                 (A") (A') (A') (A") (A') (A") (A') (A') (A') (A")
                 (A') (A") (A') (A") (A') (A") (A') (A') (A") (A')
                 (A") (A') (A') (A") (A') (A") (A') (A') (A') (A')
                 (A") (A') (A') (A") (A') (A") (A") (A') (A") (A')
                 (A") (A') (A") (A') (A") (A") (A') (A') (A') (A")
                 (A') (A") (A') (A') (A') (A") (A') (A') (A") (A")
                 (A') (A') (A") (A') (A') (A') (A") (A') (A") (A')
                 (A') (A') (A") (A') (A') (A') (A") (A') (A') (A')
                 (A") (A') (A') (A") (A") (A') (A') (A") (A") (A')
                 (A") (A') (A') (A') (A') (A") (A") (A') (A') (A')
                 (A") (A") (A') (A') (A") (A") (A') (A") (A") (A')
                 (A') (A') (A") (A') (A") (A') (A') (A") (A') (A')
                 (A") (A') (A') (A') (A') (A') (A') (A') (A') (A')
 The electronic state is 4-A".
 Alpha  occ. eigenvalues --  -10.50092 -10.46349 -10.46134 -10.44777 -10.40545
 Alpha  occ. eigenvalues --   -1.08345  -1.01915  -0.94503  -0.79622  -0.77042
 Alpha  occ. eigenvalues --   -0.70589  -0.67674  -0.67083  -0.61185  -0.59014
 Alpha  occ. eigenvalues --   -0.51566  -0.49422  -0.46584
 Alpha virt. eigenvalues --   -0.29688  -0.21536  -0.19007  -0.15002  -0.12692
 Alpha virt. eigenvalues --   -0.11317  -0.10297  -0.08673  -0.07747  -0.06991
 Alpha virt. eigenvalues --   -0.06371  -0.04869  -0.04490  -0.03783  -0.02817
 Alpha virt. eigenvalues --   -0.02097  -0.01721  -0.00113   0.00636   0.01497
 Alpha virt. eigenvalues --    0.01761   0.02126   0.03061   0.03574   0.05402
 Alpha virt. eigenvalues --    0.06073   0.06773   0.08873   0.09166   0.10091
 Alpha virt. eigenvalues --    0.10910   0.11639   0.13406   0.15018   0.17042
 Alpha virt. eigenvalues --    0.17784   0.19131   0.19484   0.22633   0.23409
 Alpha virt. eigenvalues --    0.24312   0.24457   0.26082   0.27606   0.28449
 Alpha virt. eigenvalues --    0.29732   0.31417   0.31686   0.32291   0.33084
 Alpha virt. eigenvalues --    0.34408   0.35259   0.35870   0.36607   0.37548
 Alpha virt. eigenvalues --    0.38351   0.39725   0.41944   0.44313   0.47055
 Alpha virt. eigenvalues --    0.49517   0.50719   0.51735   0.53380   0.55066
 Alpha virt. eigenvalues --    0.56134   0.56680   0.59499   0.60817   0.65932
 Alpha virt. eigenvalues --    0.68492   0.69015   0.71045   0.75955   0.77482
 Alpha virt. eigenvalues --    0.79767   0.81535   0.84625   0.87057   0.90576
 Alpha virt. eigenvalues --    0.91596   0.96017   0.96230   0.98953   1.01040
 Alpha virt. eigenvalues --    1.03434   1.06403   1.07198   1.12104   1.13992
 Alpha virt. eigenvalues --    1.16617   1.18157   1.18418   1.19741   1.21791
 Alpha virt. eigenvalues --    1.25092   1.27070   1.30593   1.33344   1.36266
 Alpha virt. eigenvalues --    1.38706   1.40512   1.41959   1.44734   1.47193
 Alpha virt. eigenvalues --    1.55171   1.55535   1.63580   1.65985   1.73302
 Alpha virt. eigenvalues --    1.74838   1.85410   1.86369   1.91992   1.95630
 Alpha virt. eigenvalues --    1.99363   2.08391   2.15942   2.16421   2.28160
 Alpha virt. eigenvalues --    2.39977   2.43167   2.44642   2.45906   2.46313
 Alpha virt. eigenvalues --    2.47527   2.51090   2.52444   2.54980   2.57015
 Alpha virt. eigenvalues --    2.58443   2.60070   2.61659   2.61816   2.65904
 Alpha virt. eigenvalues --    2.69866   2.70314   2.71729   2.72854   2.76219
 Alpha virt. eigenvalues --    2.77857   2.84960   2.85067   2.88291   2.91323
 Alpha virt. eigenvalues --    2.93010   2.96414   2.97406   2.98696   3.03527
 Alpha virt. eigenvalues --    3.06649   3.17111   3.22784   3.24686   3.29086
 Alpha virt. eigenvalues --    3.36672   3.36825   3.40441   3.53608   3.59447
 Alpha virt. eigenvalues --    3.65958   3.77329   3.80247   3.81808   3.89036
 Alpha virt. eigenvalues --    3.95803   4.00042   4.01327   4.02643   4.05603
 Alpha virt. eigenvalues --    4.09655   4.15961   4.17221   4.24022   4.25788
 Alpha virt. eigenvalues --    4.37818   4.41740   4.55854   4.57854   5.01595
 Alpha virt. eigenvalues --    5.19354   5.37014   5.37456   5.50662   5.58282
 Alpha virt. eigenvalues --    5.68366   6.15183   6.66546   6.69095   6.73657
 Alpha virt. eigenvalues --    6.79958   6.81368   6.84042   6.86796   6.88620
 Alpha virt. eigenvalues --    6.97829   6.98309   7.01370   7.11902   7.15324
 Alpha virt. eigenvalues --    7.28449   7.29293   7.30450   7.38289   7.41633
 Alpha virt. eigenvalues --    7.48974   7.62323   7.77265   7.85765   7.88598
 Alpha virt. eigenvalues --    8.03769   8.35432  23.63294  24.21280  25.13426
 Alpha virt. eigenvalues --   25.38466  26.02167
  Beta  occ. eigenvalues --  -10.46120 -10.45991 -10.45669 -10.44386 -10.40572
  Beta  occ. eigenvalues --   -1.06339  -0.99718  -0.91258  -0.75983  -0.75306
  Beta  occ. eigenvalues --   -0.69666  -0.66439  -0.64907  -0.55545  -0.51276
  Beta virt. eigenvalues --   -0.38982  -0.38764  -0.26660  -0.23597  -0.21061
  Beta virt. eigenvalues --   -0.16090  -0.14711  -0.12513  -0.10828  -0.10157
  Beta virt. eigenvalues --   -0.07931  -0.07523  -0.06479  -0.05994  -0.04314
  Beta virt. eigenvalues --   -0.04038  -0.03531  -0.01923  -0.01652  -0.00807
  Beta virt. eigenvalues --    0.00320   0.01104   0.01717   0.02007   0.02231
  Beta virt. eigenvalues --    0.03399   0.03919   0.06084   0.06642   0.07569
  Beta virt. eigenvalues --    0.09398   0.09594   0.10895   0.12110   0.12258
  Beta virt. eigenvalues --    0.14604   0.15751   0.18357   0.19358   0.19777
  Beta virt. eigenvalues --    0.20316   0.23933   0.24033   0.25549   0.25979
  Beta virt. eigenvalues --    0.27458   0.29033   0.29042   0.30960   0.32829
  Beta virt. eigenvalues --    0.33662   0.33796   0.34713   0.36363   0.36456
  Beta virt. eigenvalues --    0.37000   0.37792   0.38557   0.39105   0.42293
  Beta virt. eigenvalues --    0.42429   0.44954   0.49190   0.50786   0.52153
  Beta virt. eigenvalues --    0.52616   0.53992   0.56266   0.56538   0.58216
  Beta virt. eigenvalues --    0.60209   0.61360   0.66503   0.69211   0.69526
  Beta virt. eigenvalues --    0.71992   0.76656   0.78263   0.80336   0.83002
  Beta virt. eigenvalues --    0.85033   0.87518   0.91288   0.92038   0.96447
  Beta virt. eigenvalues --    0.97844   1.00695   1.01836   1.04470   1.07236
  Beta virt. eigenvalues --    1.07876   1.13313   1.16157   1.18250   1.18840
  Beta virt. eigenvalues --    1.19749   1.20763   1.22832   1.27335   1.28564
  Beta virt. eigenvalues --    1.33104   1.37269   1.39858   1.41486   1.43299
  Beta virt. eigenvalues --    1.46575   1.47742   1.53917   1.56498   1.60563
  Beta virt. eigenvalues --    1.66188   1.67578   1.75166   1.76570   1.89419
  Beta virt. eigenvalues --    1.89545   1.93381   1.97367   2.02310   2.11386
  Beta virt. eigenvalues --    2.17176   2.19204   2.29173   2.42356   2.44201
  Beta virt. eigenvalues --    2.47124   2.48194   2.49099   2.50092   2.54765
  Beta virt. eigenvalues --    2.56011   2.59456   2.60196   2.61450   2.64193
  Beta virt. eigenvalues --    2.65501   2.66108   2.68606   2.72195   2.72529
  Beta virt. eigenvalues --    2.73813   2.76852   2.78130   2.81692   2.86294
  Beta virt. eigenvalues --    2.86792   2.90214   2.94489   2.94523   2.98634
  Beta virt. eigenvalues --    2.99438   3.00319   3.06688   3.08473   3.20268
  Beta virt. eigenvalues --    3.23941   3.27163   3.30165   3.37399   3.39609
  Beta virt. eigenvalues --    3.43511   3.55010   3.60960   3.68182   3.78625
  Beta virt. eigenvalues --    3.82456   3.82983   3.89877   3.96469   4.00767
  Beta virt. eigenvalues --    4.03087   4.04317   4.07444   4.11838   4.16636
  Beta virt. eigenvalues --    4.19542   4.24772   4.27048   4.39955   4.42964
  Beta virt. eigenvalues --    4.56868   4.59059   5.03159   5.21241   5.37722
  Beta virt. eigenvalues --    5.37994   5.51918   5.59011   5.68972   6.15983
  Beta virt. eigenvalues --    6.74878   6.78350   6.81103   6.82316   6.86564
  Beta virt. eigenvalues --    6.87350   6.87601   6.90709   7.00253   7.02361
  Beta virt. eigenvalues --    7.10437   7.13150   7.18624   7.29738   7.30974
  Beta virt. eigenvalues --    7.31629   7.40662   7.43367   7.50143   7.64660
  Beta virt. eigenvalues --    7.77449   7.87626   7.89268   8.05108   8.36174
  Beta virt. eigenvalues --   23.64784  24.23319  25.15243  25.39052  26.02384
          Condensed to atoms (all electrons):
               1          2          3          4          5          6
     1  C    6.871734   0.530117   0.659957  -1.146647   0.253840  -0.000268
     2  H    0.530117   0.460306  -0.014887  -0.099912  -0.057754  -0.000296
     3  C    0.659957  -0.014887   8.738045  -0.328326  -0.897274  -0.053276
     4  C   -1.146647  -0.099912  -0.328326   7.287958  -0.075466   0.000077
     5  C    0.253840  -0.057754  -0.897274  -0.075466  11.179182   0.396187
     6  H   -0.000268  -0.000296  -0.053276   0.000077   0.396187   0.406088
     7  H   -0.000268  -0.000296  -0.053276   0.000077   0.396187  -0.011144
     8  C   -1.079770  -0.030308  -2.474281   0.299058  -4.917118   0.026671
     9  H   -0.172477  -0.000687  -0.156932   0.053938  -0.005602  -0.000033
               7          8          9
     1  C   -0.000268  -1.079770  -0.172477
     2  H   -0.000296  -0.030308  -0.000687
     3  C   -0.053276  -2.474281  -0.156932
     4  C    0.000077   0.299058   0.053938
     5  C    0.396187  -4.917118  -0.005602
     6  H   -0.011144   0.026671  -0.000033
     7  H    0.406088   0.026671  -0.000033
     8  C    0.026671  13.820696   0.619330
     9  H   -0.000033   0.619330   0.458341
          Atomic-Atomic Spin Densities.
               1          2          3          4          5          6
     1  C    0.434707   0.005379   0.124980  -0.353487   0.055518  -0.000047
     2  H    0.005379   0.049779   0.003901   0.020954  -0.000513   0.000014
     3  C    0.124980   0.003901   0.665207  -0.133275  -0.074163  -0.002287
     4  C   -0.353487   0.020954  -0.133275   2.798410  -0.071508   0.000065
     5  C    0.055518  -0.000513  -0.074163  -0.071508   0.677079   0.009428
     6  H   -0.000047   0.000014  -0.002287   0.000065   0.009428   0.026741
     7  H   -0.000047   0.000014  -0.002287   0.000065   0.009428  -0.002610
     8  C   -0.183430  -0.018797  -0.347484   0.085144  -0.628864  -0.002026
     9  H    0.004892  -0.001120  -0.010110  -0.007952  -0.003479   0.000047
               7          8          9
     1  C   -0.000047  -0.183430   0.004892
     2  H    0.000014  -0.018797  -0.001120
     3  C   -0.002287  -0.347484  -0.010110
     4  C    0.000065   0.085144  -0.007952
     5  C    0.009428  -0.628864  -0.003479
     6  H   -0.002610  -0.002026   0.000047
     7  H    0.026741  -0.002026   0.000047
     8  C   -0.002026   1.347202   0.016435
     9  H    0.000047   0.016435  -0.007469
 Mulliken charges and spin densities:
               1          2
     1  C    0.083783   0.088465
     2  H    0.213715   0.059612
     3  C    0.580248   0.224481
     4  C    0.009244   2.338417
     5  C   -0.272184  -0.027074
     6  H    0.235994   0.029326
     7  H    0.235994   0.029326
     8  C   -0.290949   0.266155
     9  H    0.204155  -0.008707
 Sum of Mulliken charges =   1.00000   3.00000
 Mulliken charges and spin densities with hydrogens summed into heavy atoms:
               1          2
     1  C    0.297498   0.148077
     3  C    0.580248   0.224481
     4  C    0.009244   2.338417
     5  C    0.199804   0.031578
     8  C   -0.086794   0.257447
 APT charges:
               1
     1  C    0.044500
     2  H    0.118118
     3  C    0.548589
     4  C    0.271411
     5  C   -0.342690
     6  H    0.212577
     7  H    0.212577
     8  C   -0.176715
     9  H    0.111633
 Sum of APT charges =   1.00000
 APT charges with hydrogens summed into heavy atoms:
               1
     1  C    0.162618
     3  C    0.548589
     4  C    0.271411
     5  C    0.082463
     8  C   -0.065083
 Electronic spatial extent (au):  <R**2>=            454.0315
 Charge=              1.0000 electrons
 Dipole moment (field-independent basis, Debye):
    X=             -0.2626    Y=             -0.4175    Z=              0.0000  Tot=              0.4933
 Quadrupole moment (field-independent basis, Debye-Ang):
   XX=             -8.1490   YY=            -20.7618   ZZ=            -26.1839
   XY=              7.8991   XZ=             -0.0000   YZ=             -0.0000
 Traceless Quadrupole moment (field-independent basis, Debye-Ang):
   XX=             10.2159   YY=             -2.3969   ZZ=             -7.8190
   XY=              7.8991   XZ=             -0.0000   YZ=             -0.0000
 Octapole moment (field-independent basis, Debye-Ang**2):
  XXX=             -5.0173  YYY=             -0.6093  ZZZ=              0.0000  XYY=             -4.9054
  XXY=             -9.1610  XXZ=              0.0000  XZZ=             -6.0336  YZZ=             -3.3900
  YYZ=              0.0000  XYZ=              0.0000
 Hexadecapole moment (field-independent basis, Debye-Ang**3):
 XXXX=           -355.6477 YYYY=           -117.7936 ZZZZ=            -32.7712 XXXY=            -19.1713
 XXXZ=             -0.0000 YYYX=            -72.0992 YYYZ=             -0.0000 ZZZX=             -0.0000
 ZZZY=             -0.0000 XXYY=            -65.9936 XXZZ=            -71.1241 YYZZ=            -23.9100
 XXYZ=             -0.0000 YYXZ=             -0.0000 ZZXY=            -19.8355
 N-N= 1.242948869580D+02 E-N=-6.871363694844D+02  KE= 1.915488696500D+02
 Symmetry A'   KE= 1.860653185999D+02
 Symmetry A"   KE= 5.483551050113D+00
  Exact polarizability: 102.623  27.335  52.485   0.000   0.000  33.232
 Approx polarizability: 161.290  47.187  80.845   0.000   0.000  47.907
                          Isotropic Fermi Contact Couplings
        Atom                 a.u.       MegaHertz       Gauss      10(-4) cm-1
     1  C(13)              0.05992      22.45422       8.01222       7.48992
     2  H(1)               0.03024      45.05556      16.07694      15.02892
     3  C(13)              0.01661       6.22245       2.22032       2.07559
     4  C(13)              1.00826     377.82496     134.81734     126.02884
     5  C(13)             -0.01641      -6.15032      -2.19459      -2.05153
     6  H(1)               0.01679      25.01412       8.92566       8.34381
     7  H(1)               0.01679      25.01412       8.92566       8.34381
     8  C(13)              0.08229      30.83724      11.00349      10.28619
     9  H(1)              -0.00296      -4.40739      -1.57267      -1.47015
 --------------------------------------------------------
       Center         ----  Spin Dipole Couplings  ----
                      3XX-RR        3YY-RR        3ZZ-RR
 --------------------------------------------------------
     1   Atom        0.153763      0.020157     -0.173919
     2   Atom       -0.006145      0.044045     -0.037900
     3   Atom       -0.160806     -0.179965      0.340771
     4   Atom        0.102490      0.314759     -0.417250
     5   Atom       -0.008624     -0.009378      0.018002
     6   Atom        0.004138     -0.001925     -0.002213
     7   Atom        0.004138     -0.001925     -0.002213
     8   Atom       -0.026431     -0.159417      0.185848
     9   Atom        0.013434      0.010888     -0.024322
 --------------------------------------------------------
                        XY            XZ            YZ
 --------------------------------------------------------
     1   Atom        0.249192     -0.000000      0.000000
     2   Atom        0.023749      0.000000      0.000000
     3   Atom        0.006083      0.000000      0.000000
     4   Atom       -0.407731     -0.000000     -0.000000
     5   Atom        0.022329      0.000000      0.000000
     6   Atom        0.007811     -0.005958     -0.004334
     7   Atom        0.007811      0.005958      0.004334
     8   Atom        0.002396      0.000000      0.000000
     9   Atom       -0.009223      0.000000     -0.000000
 --------------------------------------------------------


 ---------------------------------------------------------------------------------
              Anisotropic Spin Dipole Couplings in Principal Axis System
 ---------------------------------------------------------------------------------

       Atom             a.u.   MegaHertz   Gauss  10(-4) cm-1        Axes

              Baa    -0.1739   -23.338    -8.328    -7.785  0.0000 -0.0000  1.0000
     1 C(13)  Bbb    -0.1710   -22.951    -8.189    -7.656 -0.6087  0.7934  0.0000
              Bcc     0.3450    46.289    16.517    15.440  0.7934  0.6087 -0.0000
 
              Baa    -0.0379   -20.222    -7.216    -6.745  0.0000  0.0000  1.0000
     2 H(1)   Bbb    -0.0156    -8.324    -2.970    -2.777  0.9291 -0.3699  0.0000
              Bcc     0.0535    28.546    10.186     9.522  0.3699  0.9291 -0.0000
 
              Baa    -0.1817   -24.387    -8.702    -8.135 -0.2791  0.9603 -0.0000
     3 C(13)  Bbb    -0.1590   -21.341    -7.615    -7.119  0.9603  0.2791 -0.0000
              Bcc     0.3408    45.728    16.317    15.253  0.0000  0.0000  1.0000
 
              Baa    -0.4172   -55.991   -19.979   -18.677  0.0000  0.0000  1.0000
     4 C(13)  Bbb    -0.2127   -28.541   -10.184    -9.520  0.7912  0.6116  0.0000
              Bcc     0.6299    84.532    30.163    28.197 -0.6116  0.7912 -0.0000
 
              Baa    -0.0313    -4.205    -1.500    -1.402 -0.7011  0.7131  0.0000
     5 C(13)  Bbb     0.0133     1.789     0.638     0.597  0.7131  0.7011 -0.0000
              Bcc     0.0180     2.416     0.862     0.806  0.0000  0.0000  1.0000
 
              Baa    -0.0073    -3.893    -1.389    -1.299 -0.5195  0.8469  0.1132
     6 H(1)   Bbb    -0.0057    -3.065    -1.094    -1.022  0.4263  0.1421  0.8934
              Bcc     0.0130     6.958     2.483     2.321  0.7405  0.5124 -0.4348
 
              Baa    -0.0073    -3.893    -1.389    -1.299 -0.5195  0.8469 -0.1132
     7 H(1)   Bbb    -0.0057    -3.065    -1.094    -1.022 -0.4263 -0.1421  0.8934
              Bcc     0.0130     6.958     2.483     2.321  0.7405  0.5124  0.4348
 
              Baa    -0.1595   -21.398    -7.635    -7.138 -0.0180  0.9998 -0.0000
     8 C(13)  Bbb    -0.0264    -3.541    -1.264    -1.181  0.9998  0.0180 -0.0000
              Bcc     0.1858    24.939     8.899     8.319  0.0000  0.0000  1.0000
 
              Baa    -0.0243   -12.977    -4.630    -4.329  0.0000  0.0000  1.0000
     9 H(1)   Bbb     0.0029     1.521     0.543     0.507  0.6570  0.7539 -0.0000
              Bcc     0.0215    11.456     4.088     3.821  0.7539 -0.6570  0.0000
 

 ---------------------------------------------------------------------------------

 No NMR shielding tensors so no spin-rotation constants.
 Leave Link  601 at Wed Jul 20 23:55:55 2016, MaxMem=    33554432 cpu:         0.9
 (Enter /home/proyectos/fulerenos/M3C-v2.0/M3C-deps_CCC/g09-AM64L-G09RevC.01/l701.exe)
 Compute integral second derivatives.
 ... and contract with generalized density number  0.
 Leave Link  701 at Wed Jul 20 23:55:56 2016, MaxMem=    33554432 cpu:         1.0
 (Enter /home/proyectos/fulerenos/M3C-v2.0/M3C-deps_CCC/g09-AM64L-G09RevC.01/l702.exe)
 L702 exits ... SP integral derivatives will be done elsewhere.
 Leave Link  702 at Wed Jul 20 23:55:56 2016, MaxMem=    33554432 cpu:         0.1
 (Enter /home/proyectos/fulerenos/M3C-v2.0/M3C-deps_CCC/g09-AM64L-G09RevC.01/l703.exe)
 Compute integral second derivatives, UseDBF=F ICtDFT=           0.
 Integral derivatives from FoFJK, PRISM(SPDF).
 Calling FoFJK, ICntrl=    100127 FMM=F ISym2X=1 I1Cent= 0 IOpClX= 1 NMat=1 NMatS=1 NMatT=0.
 FoFJK:  IHMeth= 1 ICntrl=  100127 DoSepK=F KAlg= 0 I1Cent=   0 FoldK=F
 IRaf=         0 NMat=   1 IRICut=       1 DoRegI=T DoRafI=F ISym2E= 1.
 FoFCou: FMM=F IPFlag=           0 FMFlag=      100000 FMFlg1=         800
         NFxFlg=           0 DoJE=F BraDBF=F KetDBF=F FulRan=T
         wScrn=  0.000000 ICntrl=  100127 IOpCl=  1 I1Cent=           0 NGrid=           0
         NMat0=    1 NMatS0=      1 NMatT0=    0 NMatD0=    1 NMtDS0=    0 NMtDT0=    0
 Petite list used in FoFCou.
 Leave Link  703 at Thu Jul 21 00:11:08 2016, MaxMem=    33554432 cpu:       912.1
 (Enter /home/proyectos/fulerenos/M3C-v2.0/M3C-deps_CCC/g09-AM64L-G09RevC.01/l716.exe)
 Dipole        =-1.03333066D-01-1.64276593D-01 8.47101747D-16
 Polarizability= 1.02622729D+02 2.73350692D+01 5.24846437D+01
                 8.20404932D-07 3.54536252D-07 3.32316640D+01
 Full mass-weighted force constant matrix:
 Low frequencies ---   -8.9934   -0.0006   -0.0002    0.0007    5.0737    9.2121
 Low frequencies ---  141.6208  171.6851  331.5574
 Diagonal vibrational polarizability:
        5.0271848       3.3352853       3.0098195
 Harmonic frequencies (cm**-1), IR intensities (KM/Mole), Raman scattering
 activities (A**4/AMU), depolarization ratios for plane and unpolarized
 incident light, reduced masses (AMU), force constants (mDyne/A),
 and normal coordinates:
                      1                      2                      3
                     A"                     A'                     A"
 Frequencies --    141.6202               171.6843               331.5572
 Red. masses --      3.2767                 4.3131                 1.1380
 Frc consts  --      0.0387                 0.0749                 0.0737
 IR Inten    --      0.7170                 1.5399                 0.1994
  Atom  AN      X      Y      Z        X      Y      Z        X      Y      Z
     1   6     0.00   0.00  -0.20     0.17  -0.02   0.00     0.00  -0.00  -0.07
     2   1     0.00   0.00  -0.47     0.41   0.02   0.00     0.00  -0.00  -0.31
     3   6     0.00  -0.00  -0.10     0.06  -0.21   0.00    -0.00   0.00  -0.04
     4   6    -0.00   0.00   0.31    -0.04   0.26  -0.00    -0.00  -0.00   0.04
     5   6    -0.00   0.00   0.16    -0.25   0.18  -0.00     0.00  -0.00   0.02
     6   1     0.41  -0.16   0.30    -0.37   0.32  -0.00    -0.34   0.56   0.07
     7   1    -0.41   0.16   0.30    -0.37   0.32   0.00     0.34  -0.56   0.07
     8   6     0.00  -0.00  -0.18     0.09  -0.24   0.00     0.00   0.00   0.06
     9   1    -0.00  -0.00  -0.03    -0.01  -0.25   0.00    -0.00   0.00   0.14
                      4                      5                      6
                     A"                     A'                     A'
 Frequencies --    391.1789               426.4867               555.1217
 Red. masses --      2.2079                 5.5986                 6.6885
 Frc consts  --      0.1991                 0.6000                 1.2144
 IR Inten    --      2.6893                 4.5272                 6.2732
  Atom  AN      X      Y      Z        X      Y      Z        X      Y      Z
     1   6     0.00   0.00  -0.12    -0.07   0.33   0.00    -0.23  -0.12  -0.00
     2   1    -0.00   0.00  -0.10    -0.26   0.29   0.00    -0.41  -0.14   0.00
     3   6    -0.00  -0.00   0.27     0.12  -0.30  -0.00     0.44  -0.23   0.00
     4   6     0.00  -0.00   0.08     0.34  -0.18  -0.00    -0.34  -0.06   0.00
     5   6    -0.00  -0.00  -0.02    -0.13   0.00   0.00     0.16   0.20   0.00
     6   1    -0.50  -0.16  -0.33    -0.21   0.09  -0.00     0.08   0.36   0.01
     7   1     0.50   0.16  -0.33    -0.21   0.09   0.00     0.08   0.36  -0.01
     8   6    -0.00   0.00  -0.13    -0.16   0.10   0.00    -0.00   0.14   0.00
     9   1    -0.00   0.00  -0.33    -0.57   0.04   0.00    -0.14   0.11  -0.00
                      7                      8                      9
                     A"                     A'                     A"
 Frequencies --    847.5041               905.3804               908.1157
 Red. masses --      1.6409                 1.3104                 1.5933
 Frc consts  --      0.6944                 0.6329                 0.7741
 IR Inten    --      0.7121                51.4215                 8.6405
  Atom  AN      X      Y      Z        X      Y      Z        X      Y      Z
     1   6     0.00   0.00   0.11    -0.00   0.00   0.00    -0.00   0.00  -0.17
     2   1     0.00   0.00  -0.31    -0.01   0.00  -0.00     0.00   0.00   0.90
     3   6    -0.00   0.00  -0.13    -0.03   0.03   0.00    -0.00   0.00  -0.09
     4   6    -0.00  -0.00  -0.03     0.00   0.00  -0.00     0.00   0.00   0.04
     5   6     0.00  -0.00   0.15     0.10  -0.13  -0.00     0.00  -0.00   0.07
     6   1    -0.42  -0.31  -0.19    -0.43   0.55   0.00    -0.20  -0.12  -0.08
     7   1     0.42   0.31  -0.19    -0.43   0.55  -0.00     0.20   0.12  -0.08
     8   6     0.00   0.00  -0.08    -0.00  -0.00  -0.00    -0.00  -0.00   0.09
     9   1    -0.00  -0.00   0.48     0.01   0.00  -0.00    -0.00  -0.00   0.09
                     10                     11                     12
                     A"                     A'                     A'
 Frequencies --    925.2047              1048.4918              1214.5089
 Red. masses --      1.3563                 3.2381                 3.0592
 Frc consts  --      0.6840                 2.0973                 2.6587
 IR Inten    --     33.6467                22.2606                14.1142
  Atom  AN      X      Y      Z        X      Y      Z        X      Y      Z
     1   6     0.00  -0.00  -0.00     0.09  -0.11  -0.00    -0.09   0.27  -0.00
     2   1    -0.00  -0.00   0.34    -0.14  -0.15   0.00    -0.07   0.30   0.00
     3   6     0.00  -0.00   0.09     0.03  -0.09  -0.00     0.00   0.00   0.00
     4   6    -0.00   0.00   0.00    -0.02   0.04   0.00    -0.14  -0.14  -0.00
     5   6    -0.00   0.00  -0.05    -0.19  -0.14   0.00    -0.03  -0.03  -0.00
     6   1     0.10   0.17   0.07    -0.35  -0.23  -0.09    -0.13  -0.12  -0.07
     7   1    -0.10  -0.17   0.07    -0.35  -0.23   0.09    -0.13  -0.12   0.07
     8   6    -0.00   0.00  -0.14     0.12   0.32   0.00     0.22  -0.12   0.00
     9   1     0.00   0.00   0.88     0.48   0.40  -0.00     0.80  -0.03  -0.00
                     13                     14                     15
                     A'                     A'                     A'
 Frequencies --   1260.0909              1284.4507              1346.3330
 Red. masses --      1.2329                 1.9918                 1.2383
 Frc consts  --      1.1534                 1.9361                 1.3225
 IR Inten    --      2.9243                26.6705                20.9297
  Atom  AN      X      Y      Z        X      Y      Z        X      Y      Z
     1   6     0.03   0.01  -0.00    -0.20  -0.07   0.00     0.07   0.03  -0.00
     2   1     0.96   0.17   0.00     0.11  -0.01  -0.00    -0.14  -0.01   0.00
     3   6     0.01  -0.02   0.00     0.02  -0.04  -0.00    -0.04  -0.04  -0.00
     4   6    -0.05  -0.08  -0.00     0.16   0.11   0.00    -0.04  -0.02   0.00
     5   6     0.00   0.00  -0.00    -0.00   0.00   0.00    -0.07  -0.06   0.00
     6   1     0.02   0.03   0.02     0.13   0.11   0.10     0.44   0.35   0.40
     7   1     0.02   0.03  -0.02     0.13   0.11  -0.10     0.44   0.35  -0.40
     8   6    -0.08   0.06   0.00    -0.08  -0.03  -0.00     0.02   0.03   0.00
     9   1     0.10   0.09  -0.00     0.90   0.12   0.00     0.06   0.04  -0.00
                     16                     17                     18
                     A'                     A'                     A'
 Frequencies --   1483.8482              1954.5496              3077.1699
 Red. masses --      2.8537                 9.6813                 1.0611
 Frc consts  --      3.7020                21.7910                 5.9199
 IR Inten    --      1.5184               255.3649               195.1448
  Atom  AN      X      Y      Z        X      Y      Z        X      Y      Z
     1   6    -0.26  -0.05   0.00     0.02   0.01   0.00     0.00  -0.00  -0.00
     2   1     0.50   0.09  -0.00    -0.03  -0.01  -0.00    -0.00   0.01   0.00
     3   6     0.00   0.04   0.00     0.56   0.46   0.00    -0.01  -0.01   0.00
     4   6     0.07   0.05  -0.00    -0.01  -0.01  -0.00     0.00   0.00  -0.00
     5   6    -0.08  -0.07  -0.00    -0.34  -0.28  -0.00     0.05   0.04  -0.00
     6   1     0.08   0.05   0.13    -0.11  -0.08   0.28    -0.28  -0.22   0.61
     7   1     0.08   0.05  -0.13    -0.11  -0.08  -0.28    -0.28  -0.22  -0.61
     8   6     0.27   0.04  -0.00    -0.21  -0.16  -0.00    -0.00   0.00   0.00
     9   1    -0.71  -0.13   0.00    -0.02  -0.15   0.00     0.00  -0.02  -0.00
                     19                     20                     21
                     A'                     A"                     A'
 Frequencies --   3091.7796              3147.4782              3160.3356
 Red. masses --      1.0879                 1.1110                 1.0902
 Frc consts  --      6.1271                 6.4846                 6.4152
 IR Inten    --     12.3751                58.7601                17.0869
  Atom  AN      X      Y      Z        X      Y      Z        X      Y      Z
     1   6     0.02  -0.08  -0.00     0.00   0.00  -0.00    -0.00  -0.00   0.00
     2   1    -0.17   0.98   0.00     0.00  -0.00  -0.00    -0.01   0.04  -0.00
     3   6     0.00   0.00  -0.00    -0.00  -0.00  -0.00     0.00   0.00   0.00
     4   6     0.00  -0.00   0.00    -0.00  -0.00   0.00     0.00   0.00  -0.00
     5   6    -0.00  -0.00  -0.00    -0.00  -0.00  -0.10     0.00   0.00  -0.00
     6   1     0.00   0.00  -0.01    -0.30  -0.24   0.59    -0.01  -0.00   0.01
     7   1     0.00   0.00   0.01     0.30   0.24   0.59    -0.01  -0.00  -0.01
     8   6    -0.00   0.00   0.00    -0.00   0.00  -0.00     0.01  -0.09  -0.00
     9   1     0.00  -0.04  -0.00     0.00  -0.00  -0.00    -0.16   0.98   0.00

 -------------------
 - Thermochemistry -
 -------------------
 Temperature   298.150 Kelvin.  Pressure   1.00000 Atm.
 Atom     1 has atomic number  6 and mass  12.00000
 Atom     2 has atomic number  1 and mass   1.00783
 Atom     3 has atomic number  6 and mass  12.00000
 Atom     4 has atomic number  6 and mass  12.00000
 Atom     5 has atomic number  6 and mass  12.00000
 Atom     6 has atomic number  1 and mass   1.00783
 Atom     7 has atomic number  1 and mass   1.00783
 Atom     8 has atomic number  6 and mass  12.00000
 Atom     9 has atomic number  1 and mass   1.00783
 Molecular mass:    64.03130 amu.
 Principal axes and moments of inertia in atomic units:
                           1         2         3
     Eigenvalues --    47.34679 698.56455 733.44822
           X            0.92737  -0.37415   0.00000
           Y            0.37415   0.92737   0.00000
           Z            0.00000  -0.00000   1.00000
 This molecule is an asymmetric top.
 Rotational symmetry number  1.
 Rotational temperatures (Kelvin)      1.82935     0.12399     0.11809
 Rotational constants (GHZ):          38.11750     2.58350     2.46063
 Zero-point vibrational energy     165520.6 (Joules/Mol)
                                   39.56038 (Kcal/Mol)
 Warning -- explicit consideration of   6 degrees of freedom as
           vibrations may cause significant error
 Vibrational temperatures:    203.76   247.02   477.04   562.82   613.62
          (Kelvin)            798.70  1219.37  1302.64  1306.57  1331.16
                             1508.54  1747.41  1812.99  1848.04  1937.07
                             2134.92  2812.16  4427.36  4448.38  4528.51
                             4547.01
 
 Zero-point correction=                           0.063043 (Hartree/Particle)
 Thermal correction to Energy=                    0.068618
 Thermal correction to Enthalpy=                  0.069563
 Thermal correction to Gibbs Free Energy=         0.033701
 Sum of electronic and zero-point Energies=           -192.348442
 Sum of electronic and thermal Energies=              -192.342867
 Sum of electronic and thermal Enthalpies=            -192.341923
 Sum of electronic and thermal Free Energies=         -192.377785
 
                     E (Thermal)             CV                S
                      KCal/Mol        Cal/Mol-Kelvin    Cal/Mol-Kelvin
 Total                   43.059             18.485             75.477
 Electronic               0.000              0.000              2.755
 Translational            0.889              2.981             38.389
 Rotational               0.889              2.981             24.698
 Vibrational             41.281             12.524              9.635
 Vibration     1          0.615              1.912              2.782
 Vibration     2          0.626              1.877              2.417
 Vibration     3          0.714              1.612              1.252
 Vibration     4          0.759              1.489              0.996
 Vibration     5          0.788              1.413              0.870
 Vibration     6          0.911              1.128              0.534
                       Q            Log10(Q)             Ln(Q)
 Total Bot       0.315321D-15        -15.501247        -35.692940
 Total V=0       0.313820D+14         13.496680         31.077255
 Vib (Bot)       0.702053D-28        -28.153630        -64.826129
 Vib (Bot)    1  0.143515D+01          0.156898          0.361271
 Vib (Bot)    2  0.117317D+01          0.069361          0.159709
 Vib (Bot)    3  0.563001D+00         -0.249491         -0.574473
 Vib (Bot)    4  0.458561D+00         -0.338602         -0.779661
 Vib (Bot)    5  0.409662D+00         -0.387575         -0.892423
 Vib (Bot)    6  0.281308D+00         -0.550818         -1.268306
 Vib (V=0)       0.698710D+01          0.844297          1.944066
 Vib (V=0)    1  0.201976D+01          0.305299          0.702977
 Vib (V=0)    2  0.177527D+01          0.249266          0.573955
 Vib (V=0)    3  0.125297D+01          0.097942          0.225520
 Vib (V=0)    4  0.117844D+01          0.071307          0.164190
 Vib (V=0)    5  0.114639D+01          0.059333          0.136620
 Vib (V=0)    6  0.107370D+01          0.030884          0.071113
 Electronic      0.400000D+01          0.602060          1.386294
 Translational   0.201393D+08          7.304044         16.818182
 Rotational      0.557545D+05          4.746280         10.928713
 
                                                              b3lyp opt
                                                             IR Spectrum
 
     33 33                                            1                  1    1  11 1     1                                          
     11 00                                            9                  4    3  22 2     0   999 8           5    4 3 3      11     
     64 97                                            5                  8    4  86 1     4   200 4           5    2 9 3      74     
     07 27                                            5                  4    6  40 5     8   585 8           5    6 1 2      22     
 
     XX XX                                            X                  X    X  XX X     X   XXX X           X    X X X      XX     
      X  X                                            X                       X  X        X   X X                                    
      X  X                                            X                                       X X                                    
      X  X                                            X                                         X                                    
      X  X                                            X                                                                              
         X                                            X                                                                              
         X                                            X                                                                              
         X                                            X                                                                              
         X                                            X                                                                              
         X                                            X                                                                              
         X                                            X                                                                              
         X                                            X                                                                              
         X                                            X                                                                              
         X                                            X                                                                              
         X                                            X                                                                              
                                                      X                                                                              
                                                      X                                                                              
                                                      X                                                                              
                                                      X                                                                              
                                                      X                                                                              
 
 ***** Axes restored to original set *****
 -------------------------------------------------------------------
 Center     Atomic                   Forces (Hartrees/Bohr)
 Number     Number              X              Y              Z
 -------------------------------------------------------------------
      1        6          -0.000011999   -0.000016507   -0.000000009
      2        1          -0.000001916    0.000023283    0.000000011
      3        6          -0.000002906    0.000012724    0.000000006
      4        6           0.000015585   -0.000017144   -0.000000006
      5        6           0.000010521   -0.000015051   -0.000000006
      6        1          -0.000008095   -0.000000345    0.000009574
      7        1          -0.000008093   -0.000000336   -0.000009576
      8        6           0.000017238    0.000003553    0.000000004
      9        1          -0.000010336    0.000009825    0.000000003
 -------------------------------------------------------------------
 Cartesian Forces:  Max     0.000023283 RMS     0.000010246
 Z-matrix is all fixed cartesians, so copy forces.
 Force constants in Cartesian coordinates: 
                1             2             3             4             5 
      1  0.566236D+00
      2 -0.992320D-02  0.617592D+00
      3  0.532487D-04  0.231315D-03  0.121439D+00
      4 -0.568893D-01  0.581809D-01  0.253782D-04  0.709726D-01
      5  0.497331D-01 -0.306075D+00 -0.117188D-03 -0.603732D-01  0.323821D+00
      6  0.214220D-04 -0.116088D-03 -0.423027D-01 -0.217895D-04  0.134145D-03
      7 -0.255274D-01 -0.127634D-01 -0.948799D-05  0.232462D-02 -0.851339D-03
      8 -0.141914D-01  0.153737D-01  0.469403D-05 -0.951263D-03  0.114115D-02
      9 -0.101665D-04  0.487541D-05  0.142081D-02  0.000000D+00  0.216598D-05
     10 -0.301430D+00  0.979963D-01  0.111917D-04 -0.189847D-01  0.712035D-02
     11  0.775328D-01 -0.784142D-01 -0.105041D-04  0.293369D-01 -0.248192D-02
     12  0.159731D-05 -0.783891D-05 -0.344808D-01  0.100946D-04 -0.451499D-05
     13 -0.189183D-02  0.887343D-02  0.343463D-05 -0.665871D-03  0.362195D-03
     14  0.341140D-03 -0.380851D-02 -0.346181D-05  0.363177D-03 -0.926113D-04
     15  0.000000D+00 -0.234508D-05  0.366939D-02  0.000000D+00  0.000000D+00
     16  0.869325D-03 -0.185748D-03  0.525716D-03 -0.317715D-04 -0.987515D-04
     17  0.224335D-04 -0.791591D-04  0.348197D-02 -0.174489D-04  0.480123D-04
     18 -0.528705D-03  0.684846D-03 -0.344538D-04  0.214170D-04  0.837119D-04
     19  0.869323D-03 -0.185077D-03 -0.525654D-03 -0.317966D-04 -0.988401D-04
     20  0.228444D-04 -0.752524D-04 -0.348201D-02 -0.175107D-04  0.477957D-04
     21  0.528964D-03 -0.684933D-03 -0.383602D-04 -0.214299D-04 -0.836506D-04
     22 -0.190057D+00 -0.116297D+00 -0.719231D-04  0.663591D-02  0.626538D-02
     23 -0.108098D+00 -0.228889D+00 -0.949433D-04 -0.246390D-01 -0.159424D-01
     24 -0.680777D-04 -0.960125D-04 -0.563858D-01 -0.119015D-04 -0.110293D-04
     25  0.782114D-02 -0.256960D-01 -0.119033D-04 -0.332967D-02 -0.205890D-02
     26  0.456024D-02 -0.156250D-01 -0.987971D-05 -0.188253D-02 -0.465811D-03
     27  0.227961D-05 -0.138180D-04  0.671267D-02 -0.212718D-05 -0.340725D-05
                6             7             8             9            10 
      6  0.209262D-01
      7  0.000000D+00  0.108615D+01
      8  0.215209D-05 -0.294838D+00  0.190169D+00
      9 -0.371349D-02 -0.127189D-04 -0.645591D-05  0.122071D+00
     10  0.000000D+00 -0.275898D-01 -0.392204D-02 -0.625820D-05  0.385448D+00
     11 -0.162174D-05  0.260822D-02 -0.148077D-02 -0.333659D-05 -0.924141D-01
     12  0.912485D-02 -0.319651D-05 -0.418664D-05  0.635973D-02  0.511681D-05
     13  0.000000D+00 -0.603621D+00  0.169295D+00  0.106353D-04  0.604397D-02
     14  0.000000D+00  0.165962D+00 -0.854244D-01  0.170070D-04 -0.176252D-02
     15  0.501162D-03  0.906862D-05  0.174425D-04 -0.756201D-01  0.000000D+00
     16 -0.117586D-03 -0.211188D-01  0.696223D-02  0.207041D-01 -0.717746D-03
     17 -0.314753D-03  0.706631D-02  0.149188D-02 -0.725311D-02  0.534709D-03
     18 -0.449851D-04  0.234390D-02 -0.568718D-03  0.136695D-02  0.613774D-03
     19  0.117497D-03 -0.211128D-01  0.698149D-02 -0.207034D-01 -0.717623D-03
     20  0.314835D-03  0.706661D-02  0.148455D-02  0.725506D-02  0.534885D-03
     21 -0.447435D-04 -0.234313D-02  0.570646D-03  0.136828D-02 -0.613508D-03
     22  0.258880D-05 -0.374186D+00  0.984876D-01  0.499758D-05 -0.430061D-01
     23 -0.150532D-04  0.118169D+00 -0.120916D+00 -0.141675D-04 -0.812156D-02
     24  0.932277D-02  0.142211D-04 -0.167349D-04 -0.578736D-01 -0.108039D-04
     25 -0.221017D-05 -0.153160D-01  0.321763D-01  0.124886D-04  0.954360D-03
     26 -0.338470D-05  0.758027D-02 -0.183912D-02 -0.204307D-05  0.339840D-04
     27  0.623089D-02  0.000000D+00  0.116026D-05  0.462074D-02  0.000000D+00
               11            12            13            14            15 
     11  0.682777D-01
     12  0.137302D-04  0.133302D-01
     13 -0.278692D-02  0.000000D+00  0.831870D+00
     14  0.109859D-02  0.152126D-05 -0.215830D+00  0.156956D+00
     15  0.138772D-05 -0.263621D-02 -0.623172D-04 -0.204529D-03  0.533287D+00
     16  0.835294D-04 -0.143375D-03 -0.105615D+00  0.212761D-01  0.124513D+00
     17 -0.199025D-04 -0.153455D-02  0.214979D-01 -0.373221D-01 -0.358976D-01
     18 -0.222435D-03  0.177207D-03  0.118364D+00 -0.341053D-01 -0.241304D+00
     19  0.833371D-04  0.143220D-03 -0.105552D+00  0.213839D-01 -0.124458D+00
     20 -0.215497D-04  0.153450D-02  0.215995D-01 -0.373879D-01  0.360945D-01
     21  0.222271D-03  0.178732D-03 -0.118309D+00  0.343020D-01 -0.241301D+00
     22 -0.140840D-01 -0.136003D-04 -0.224417D-01  0.915008D-02 -0.135308D-05
     23  0.118048D-01  0.000000D+00  0.118268D-04  0.566099D-02 -0.713902D-05
     24 -0.132996D-05  0.107318D-01 -0.563360D-05 -0.594245D-05  0.208783D-01
     25 -0.359771D-03  0.000000D+00  0.187399D-02 -0.883440D-03  0.000000D+00
     26  0.123724D-02  0.189090D-05 -0.302229D-02  0.320315D-03 -0.142483D-05
     27  0.183868D-05 -0.278547D-02 -0.150223D-05 -0.114864D-05  0.252505D-02
               16            17            18            19            20 
     16  0.116110D+00
     17 -0.294275D-01  0.222439D-01
     18 -0.130751D+00  0.376446D-01  0.257646D+00
     19  0.987483D-02  0.733141D-04  0.126773D-01  0.116042D+00
     20  0.861498D-04  0.100459D-01 -0.364421D-02 -0.295403D-01  0.223147D-01
     21 -0.126705D-01  0.366879D-02 -0.161466D-01  0.130686D+00 -0.378730D-01
     22  0.802710D-03  0.725499D-03 -0.264981D-02  0.801691D-03  0.723535D-03
     23  0.128010D-02  0.358243D-02  0.237752D-03  0.127898D-02  0.358452D-02
     24 -0.126253D-02  0.200061D-02 -0.164270D-02  0.126436D-02 -0.199552D-02
     25 -0.172828D-03 -0.475185D-03 -0.914617D-04 -0.173059D-03 -0.475738D-03
     26  0.239678D-04  0.903937D-05 -0.110324D-03  0.231910D-04  0.725175D-05
     27 -0.798228D-03 -0.179600D-02 -0.181096D-04  0.798210D-03  0.179590D-02
               21            22            23            24            25 
     21  0.257644D+00
     22  0.265113D-02  0.686648D+00
     23 -0.232518D-03 -0.424974D-01  0.661570D+00
     24 -0.164378D-02  0.542367D-04  0.249790D-03  0.116965D+00
     25  0.909748D-04 -0.651968D-01  0.626161D-01  0.261220D-04  0.735389D-01
     26  0.110353D-03  0.575265D-01 -0.320455D+00 -0.123831D-03 -0.648434D-01
     27 -0.160904D-04  0.237352D-04 -0.123168D-03 -0.403522D-01 -0.238317D-04
               26            27 
     26  0.336811D+00
     27  0.138643D-03  0.230825D-01
 Leave Link  716 at Thu Jul 21 00:11:09 2016, MaxMem=    33554432 cpu:         0.1
 (Enter /home/proyectos/fulerenos/M3C-v2.0/M3C-deps_CCC/g09-AM64L-G09RevC.01/l103.exe)

 GradGradGradGradGradGradGradGradGradGradGradGradGradGradGradGradGradGrad
 Berny optimization.
 Search for a local minimum.
 Step number   1 out of a maximum of    2
 All quantities printed in internal units (Hartrees-Bohrs-Radians)
 Second derivative matrix not updated -- analytic derivatives used.
 ITU=  0
     Eigenvalues ---    0.00297   0.00507   0.00556   0.01584   0.03422
     Eigenvalues ---    0.05885   0.06742   0.07276   0.11134   0.12645
     Eigenvalues ---    0.14578   0.17131   0.21160   0.23470   0.41464
     Eigenvalues ---    0.56043   0.75807   0.85010   0.92087   1.02930
     Eigenvalues ---    1.80557
 Angle between quadratic step and forces=  68.35 degrees.
 ClnCor:  largest displacement from symmetrization is 6.64D-11 for atom     2.
 Linear search not attempted -- first point.
 ClnCor:  largest displacement from symmetrization is 3.64D-15 for atom     6.
 B after Tr=     0.000034    0.000046    0.000000
         Rot=    1.000000    0.000000    0.000000   -0.000021 Ang=  -0.00 deg.
 Variable       Old X    -DE/DX   Delta X   Delta X   Delta X     New X
                                 (Linear)    (Quad)   (Total)
    X1       -2.37169  -0.00001   0.00000   0.00058   0.00065  -2.37104
    Y1       -0.75691  -0.00002   0.00000   0.00022   0.00017  -0.75674
    Z1       -0.00081  -0.00000   0.00000   0.00000   0.00000  -0.00081
    X2       -1.91136  -0.00000   0.00000   0.00156   0.00171  -1.90965
    Y2       -2.76527   0.00002   0.00000   0.00051   0.00048  -2.76479
    Z2       -0.00169   0.00000   0.00000   0.00000   0.00000  -0.00169
    X3        2.02438  -0.00000   0.00000  -0.00004  -0.00002   2.02435
    Y3        0.31278   0.00001   0.00000   0.00103   0.00116   0.31394
    Z3        0.00026   0.00000   0.00000   0.00000   0.00000   0.00027
    X4       -4.87905   0.00002   0.00000   0.00027   0.00031  -4.87874
    Y4       -0.07682  -0.00002   0.00000  -0.00110  -0.00126  -0.07808
    Z4       -0.00082  -0.00000   0.00000  -0.00000  -0.00000  -0.00082
    X5        4.34032   0.00001   0.00000  -0.00053  -0.00048   4.33984
    Y5       -0.36511  -0.00002   0.00000  -0.00063  -0.00040  -0.36551
    Z5        0.00025  -0.00000   0.00000  -0.00000  -0.00000   0.00025
    X6        5.36917  -0.00001   0.00000  -0.00076  -0.00069   5.36848
    Y6       -0.66058  -0.00000   0.00000  -0.00127  -0.00099  -0.66158
    Z6       -1.75805   0.00001   0.00000   0.00001   0.00002  -1.75803
    X7        5.36872  -0.00001   0.00000  -0.00076  -0.00069   5.36802
    Y7       -0.66223  -0.00000   0.00000  -0.00127  -0.00099  -0.66323
    Z7        1.75853  -0.00001   0.00000  -0.00002  -0.00002   1.75852
    X8       -0.43574   0.00002   0.00000  -0.00005  -0.00006  -0.43580
    Y8        1.05842   0.00000   0.00000   0.00096   0.00098   1.05941
    Z8        0.00029   0.00000   0.00000   0.00000   0.00000   0.00029
    X9       -0.89494  -0.00001   0.00000  -0.00063  -0.00073  -0.89567
    Y9        3.05625   0.00001   0.00000   0.00085   0.00085   3.05711
    Z9        0.00117   0.00000   0.00000   0.00000   0.00000   0.00117
         Item               Value     Threshold  Converged?
 Maximum Force            0.000023     0.000450     YES
 RMS     Force            0.000010     0.000300     YES
 Maximum Displacement     0.001711     0.001800     YES
 RMS     Displacement     0.000672     0.001200     YES
 Predicted change in Energy=-3.548727D-08
 Optimization completed.
    -- Stationary point found.
 GradGradGradGradGradGradGradGradGradGradGradGradGradGradGradGradGradGrad

 Leave Link  103 at Thu Jul 21 00:11:09 2016, MaxMem=    33554432 cpu:         0.1
 (Enter /home/proyectos/fulerenos/M3C-v2.0/M3C-deps_CCC/g09-AM64L-G09RevC.01/l9999.exe)
 1\1\GINC-EINSTENIO\Freq\UB3LYP\6-311++G(3df,2p)\C5H4(1+,4)\ROOT\21-Jul
 -2016\0\\#p b3lyp/6-311++G(3df,2p) freq symmetry=Loose\\b3lyp opt\\1,4
 \C,-1.255041985,-0.400539946,-0.0004280669\H,-1.011447983,-1.463315939
 ,-0.000894613\C,1.071253987,0.165514954,0.0001401469\C,-2.581879985,-0
 .040650946,-0.000432067\C,2.296795991,-0.193206031,0.000131508\H,2.841
 244622,-0.349566289,-0.930318668\H,2.8410023742,-0.3504387244,0.930576
 3826\C,-0.230584009,0.560093966,0.0001556649\H,-0.47358301,1.617299965
 ,0.0006196771\\Version=EM64L-G09RevE.01\State=4-A"\HF=-192.4114859\S2=
 3.774795\S2-1=0.\S2A=3.750069\RMSD=9.171e-09\RMSF=1.025e-05\ZeroPoint=
 0.0630435\Thermal=0.0686184\Dipole=0.1580958,-0.1125622,-0.0000322\Dip
 oleDeriv=0.0418607,-0.2474307,-0.0001124,0.1518758,0.0778481,0.0000498
 ,0.0000747,-0.0000022,0.0137922,0.0662126,0.0476629,0.0000123,0.016194
 2,0.1447737,0.0000028,-0.0000024,0.0000069,0.1433678,1.5165011,0.03632
 63,0.0001933,-0.5161913,-0.033027,-0.0001588,-0.000066,-0.0000868,0.16
 2294,0.4222769,0.2251714,0.0001294,-0.0645704,0.1528604,-0.0000488,-0.
 0000064,-0.0000111,0.2390972,-0.8614074,0.0455554,-0.0000795,0.2437521
 ,-0.0800518,0.0000348,0.0000137,0.000009,-0.0866107,0.2694188,-0.00748
 85,-0.0454717,-0.0250788,0.183946,-0.0024276,-0.1564152,0.0128586,0.18
 43653,0.2693662,-0.0075278,0.0454868,-0.0252261,0.1839558,0.0024206,0.
 1564138,-0.0128609,0.1844081,-0.7469496,-0.1018199,-0.0001452,0.230462
 6,0.2149336,0.0001299,0.0000106,0.0000866,0.0018698,0.0227207,0.009551
 1,-0.0000131,-0.011218,0.1547612,-0.0000027,-0.0000228,0.,0.1574164\Po
 lar=114.601886,-1.7589013,40.5054841,0.0097689,0.0031812,33.2316668\PG
 =CS [SG(C5H2),X(H2)]\NImag=0\\0.56623647,-0.00992320,0.61759207,0.0000
 5325,0.00023131,0.12143922,-0.05688931,0.05818088,0.00002538,0.0709726
 2,0.04973312,-0.30607492,-0.00011719,-0.06037322,0.32382072,0.00002142
 ,-0.00011609,-0.04230266,-0.00002179,0.00013414,0.02092620,-0.02552742
 ,-0.01276338,-0.00000949,0.00232462,-0.00085134,0.00000038,1.08614688,
 -0.01419144,0.01537374,0.00000469,-0.00095126,0.00114115,0.00000215,-0
 .29483764,0.19016930,-0.00001017,0.00000488,0.00142081,0.00000034,0.00
 000217,-0.00371349,-0.00001272,-0.00000646,0.12207063,-0.30143021,0.09
 799629,0.00001119,-0.01898473,0.00712035,-0.00000032,-0.02758979,-0.00
 392204,-0.00000626,0.38544787,0.07753279,-0.07841418,-0.00001050,0.029
 33694,-0.00248192,-0.00000162,0.00260822,-0.00148077,-0.00000334,-0.09
 241410,0.06827771,0.00000160,-0.00000784,-0.03448079,0.00001009,-0.000
 00451,0.00912485,-0.00000320,-0.00000419,0.00635973,0.00000512,0.00001
 373,0.01333015,-0.00189183,0.00887343,0.00000343,-0.00066587,0.0003621
 9,0.00000002,-0.60362080,0.16929479,0.00001064,0.00604397,-0.00278692,
 -0.00000018,0.83186980,0.00034114,-0.00380851,-0.00000346,0.00036318,-
 0.00009261,-0.00000023,0.16596205,-0.08542441,0.00001701,-0.00176252,0
 .00109859,0.00000152,-0.21583043,0.15695555,-0.00000056,-0.00000235,0.
 00366939,0.00000002,-0.00000023,0.00050116,0.00000907,0.00001744,-0.07
 562008,0.00000031,0.00000139,-0.00263621,-0.00006232,-0.00020453,0.533
 28700,0.00086932,-0.00018575,0.00052572,-0.00003177,-0.00009875,-0.000
 11759,-0.02111879,0.00696223,0.02070410,-0.00071775,0.00008353,-0.0001
 4338,-0.10561538,0.02127606,0.12451312,0.11610965,0.00002243,-0.000079
 16,0.00348197,-0.00001745,0.00004801,-0.00031475,0.00706631,0.00149188
 ,-0.00725311,0.00053471,-0.00001990,-0.00153455,0.02149791,-0.03732205
 ,-0.03589761,-0.02942754,0.02224386,-0.00052870,0.00068485,-0.00003445
 ,0.00002142,0.00008371,-0.00004499,0.00234390,-0.00056872,0.00136695,0
 .00061377,-0.00022243,0.00017721,0.11836434,-0.03410526,-0.24130361,-0
 .13075076,0.03764464,0.25764636,0.00086932,-0.00018508,-0.00052565,-0.
 00003180,-0.00009884,0.00011750,-0.02111279,0.00698149,-0.02070342,-0.
 00071762,0.00008334,0.00014322,-0.10555216,0.02138388,-0.12445778,0.00
 987483,0.00007331,0.01267731,0.11604158,0.00002284,-0.00007525,-0.0034
 8201,-0.00001751,0.00004780,0.00031484,0.00706661,0.00148455,0.0072550
 6,0.00053488,-0.00002155,0.00153450,0.02159950,-0.03738787,0.03609445,
 0.00008615,0.01004589,-0.00364421,-0.02954027,0.02231467,0.00052896,-0
 .00068493,-0.00003836,-0.00002143,-0.00008365,-0.00004474,-0.00234313,
 0.00057065,0.00136828,-0.00061351,0.00022227,0.00017873,-0.11830880,0.
 03430205,-0.24130101,-0.01267046,0.00366879,-0.01614665,0.13068626,-0.
 03787301,0.25764362,-0.19005749,-0.11629721,-0.00007192,0.00663591,0.0
 0626538,0.00000259,-0.37418589,0.09848760,0.00000500,-0.04300610,-0.01
 408402,-0.00001360,-0.02244172,0.00915008,-0.00000135,0.00080271,0.000
 72550,-0.00264981,0.00080169,0.00072353,0.00265113,0.68664772,-0.10809
 792,-0.22888884,-0.00009494,-0.02463902,-0.01594241,-0.00001505,0.1181
 6890,-0.12091632,-0.00001417,-0.00812156,0.01180479,-0.00000055,0.0000
 1183,0.00566099,-0.00000714,0.00128010,0.00358243,0.00023775,0.0012789
 8,0.00358452,-0.00023252,-0.04249741,0.66157009,-0.00006808,-0.0000960
 1,-0.05638582,-0.00001190,-0.00001103,0.00932277,0.00001422,-0.0000167
 3,-0.05787356,-0.00001080,-0.00000133,0.01073180,-0.00000563,-0.000005
 94,0.02087831,-0.00126253,0.00200061,-0.00164270,0.00126436,-0.0019955
 2,-0.00164378,0.00005424,0.00024979,0.11696517,0.00782114,-0.02569598,
 -0.00001190,-0.00332967,-0.00205890,-0.00000221,-0.01531600,0.03217627
 ,0.00001249,0.00095436,-0.00035977,0.00000032,0.00187399,-0.00088344,-
 0.00000050,-0.00017283,-0.00047519,-0.00009146,-0.00017306,-0.00047574
 ,0.00009097,-0.06519683,0.06261611,0.00002612,0.07353890,0.00456024,-0
 .01562495,-0.00000988,-0.00188253,-0.00046581,-0.00000338,0.00758027,-
 0.00183912,-0.00000204,0.00003398,0.00123724,0.00000189,-0.00302229,0.
 00032032,-0.00000142,0.00002397,0.00000904,-0.00011032,0.00002319,0.00
 000725,0.00011035,0.05752655,-0.32045525,-0.00012383,-0.06484337,0.336
 81128,0.00000228,-0.00001382,0.00671267,-0.00000213,-0.00000341,0.0062
 3089,0.00000096,0.00000116,0.00462074,0.00000050,0.00000184,-0.0027854
 7,-0.00000150,-0.00000115,0.00252505,-0.00079823,-0.00179600,-0.000018
 11,0.00079821,0.00179590,-0.00001609,0.00002374,-0.00012317,-0.0403522
 0,-0.00002383,0.00013864,0.02308252\\0.00001200,0.00001651,0.,0.000001
 92,-0.00002328,-0.00000001,0.00000291,-0.00001272,0.,-0.00001559,0.000
 01714,0.,-0.00001052,0.00001505,0.,0.00000810,0.00000035,-0.00000957,0
 .00000809,0.00000034,0.00000958,-0.00001724,-0.00000355,0.,0.00001034,
 -0.00000983,0.\\\@


 Everywhere is walking distance if you have the time.
                                    -- Steven Wright
 Job cpu time:       0 days  1 hours  7 minutes 17.6 seconds.
 File lengths (MBytes):  RWF=     78 Int=      0 D2E=      0 Chk=      5 Scr=      1
 Normal termination of Gaussian 09 at Thu Jul 21 00:11:09 2016.
