 Entering Gaussian System, Link 0=/home/proyectos/fulerenos/M3C-v2.0/M3C-deps_CCC/g09-AM64L-G09RevC.01/g09
 Initial command:
 /home/proyectos/fulerenos/M3C-v2.0/M3C-deps_CCC/g09-AM64L-G09RevC.01/l1.exe "/scratch/naguirre/gaussian/Gau-1434.inp" -scrdir="/scratch/naguirre/gaussian/"
 Entering Link 1 = /home/proyectos/fulerenos/M3C-v2.0/M3C-deps_CCC/g09-AM64L-G09RevC.01/l1.exe PID=      1437.
  
 Copyright (c) 1988,1990,1992,1993,1995,1998,2003,2009,2015,
            Gaussian, Inc.  All Rights Reserved.
  
 This is part of the Gaussian(R) 09 program.  It is based on
 the Gaussian(R) 03 system (copyright 2003, Gaussian, Inc.),
 the Gaussian(R) 98 system (copyright 1998, Gaussian, Inc.),
 the Gaussian(R) 94 system (copyright 1995, Gaussian, Inc.),
 the Gaussian 92(TM) system (copyright 1992, Gaussian, Inc.),
 the Gaussian 90(TM) system (copyright 1990, Gaussian, Inc.),
 the Gaussian 88(TM) system (copyright 1988, Gaussian, Inc.),
 the Gaussian 86(TM) system (copyright 1986, Carnegie Mellon
 University), and the Gaussian 82(TM) system (copyright 1983,
 Carnegie Mellon University). Gaussian is a federally registered
 trademark of Gaussian, Inc.
  
 This software contains proprietary and confidential information,
 including trade secrets, belonging to Gaussian, Inc.
  
 This software is provided under written license and may be
 used, copied, transmitted, or stored only in accord with that
 written license.
  
 The following legend is applicable only to US Government
 contracts under FAR:
  
                    RESTRICTED RIGHTS LEGEND
  
 Use, reproduction and disclosure by the US Government is
 subject to restrictions as set forth in subparagraphs (a)
 and (c) of the Commercial Computer Software - Restricted
 Rights clause in FAR 52.227-19.
  
 Gaussian, Inc.
 340 Quinnipiac St., Bldg. 40, Wallingford CT 06492
  
  
 ---------------------------------------------------------------
 Warning -- This program may not be used in any manner that
 competes with the business of Gaussian, Inc. or will provide
 assistance to any competitor of Gaussian, Inc.  The licensee
 of this program is prohibited from giving any competitor of
 Gaussian, Inc. access to this program.  By using this program,
 the user acknowledges that Gaussian, Inc. is engaged in the
 business of creating and licensing software in the field of
 computational chemistry and represents and warrants to the
 licensee that it is not a competitor of Gaussian, Inc. and that
 it will not use this program in any manner prohibited above.
 ---------------------------------------------------------------
  

 Cite this work as:
 Gaussian 09, Revision E.01,
 M. J. Frisch, G. W. Trucks, H. B. Schlegel, G. E. Scuseria, 
 M. A. Robb, J. R. Cheeseman, G. Scalmani, V. Barone, B. Mennucci, 
 G. A. Petersson, H. Nakatsuji, M. Caricato, X. Li, H. P. Hratchian, 
 A. F. Izmaylov, J. Bloino, G. Zheng, J. L. Sonnenberg, M. Hada, 
 M. Ehara, K. Toyota, R. Fukuda, J. Hasegawa, M. Ishida, T. Nakajima, 
 Y. Honda, O. Kitao, H. Nakai, T. Vreven, J. A. Montgomery, Jr., 
 J. E. Peralta, F. Ogliaro, M. Bearpark, J. J. Heyd, E. Brothers, 
 K. N. Kudin, V. N. Staroverov, T. Keith, R. Kobayashi, J. Normand, 
 K. Raghavachari, A. Rendell, J. C. Burant, S. S. Iyengar, J. Tomasi, 
 M. Cossi, N. Rega, J. M. Millam, M. Klene, J. E. Knox, J. B. Cross, 
 V. Bakken, C. Adamo, J. Jaramillo, R. Gomperts, R. E. Stratmann, 
 O. Yazyev, A. J. Austin, R. Cammi, C. Pomelli, J. W. Ochterski, 
 R. L. Martin, K. Morokuma, V. G. Zakrzewski, G. A. Voth, 
 P. Salvador, J. J. Dannenberg, S. Dapprich, A. D. Daniels, 
 O. Farkas, J. B. Foresman, J. V. Ortiz, J. Cioslowski, 
 and D. J. Fox, Gaussian, Inc., Wallingford CT, 2013.
 
 ******************************************
 Gaussian 09:  EM64L-G09RevE.01 30-Nov-2015
                20-Jul-2016 
 ******************************************
 %NProcShared=1
 Will use up to    1 processors via shared memory.
 ---------------------------------------------
 #p b3lyp/6-311++G(3df,2p) freq symmetry=Loose
 ---------------------------------------------
 1/10=4,30=1,38=1/1,3;
 2/12=2,17=4,18=3,40=1/2;
 3/5=4,6=6,7=1216,11=2,16=1,25=1,30=1,71=2,74=-5,140=1/1,2,3;
 4//1;
 5/5=2,38=5,98=1/2;
 8/6=4,10=90,11=11/1;
 11/6=1,8=1,9=11,15=111,16=1/1,2,10;
 10/6=1/2;
 6/7=2,8=2,9=2,10=2,18=1,28=1/1;
 7/8=1,10=1,25=1/1,2,3,16;
 1/10=4,30=1/3;
 99//99;
 Leave Link    1 at Wed Jul 20 09:10:14 2016, MaxMem=           0 cpu:         0.2
 (Enter /home/proyectos/fulerenos/M3C-v2.0/M3C-deps_CCC/g09-AM64L-G09RevC.01/l101.exe)
 ---------
 b3lyp opt
 ---------
 Symbolic Z-matrix:
 Charge =  1 Multiplicity = 4
 C                     0.00282   2.24692   0. 
 C                    -1.26867  -1.02023   0. 
 H                    -1.32836  -2.09973   0. 
 H                    -2.18088  -0.44346   0. 
 C                     0.00133   1.01582   0. 
 C                    -0.00035  -0.37025   0. 
 C                     1.26639  -1.0233    0. 
 H                     2.17999  -0.44875   0. 
 H                     1.32346  -2.10295   0. 
 
 NAtoms=      9 NQM=        9 NQMF=       0 NMMI=      0 NMMIF=      0
                NMic=       0 NMicF=      0.
                    Isotopes and Nuclear Properties:
 (Nuclear quadrupole moments (NQMom) in fm**2, nuclear magnetic moments (NMagM)
  in nuclear magnetons)

  Atom         1           2           3           4           5           6           7           8           9
 IAtWgt=          12          12           1           1          12          12          12           1           1
 AtmWgt=  12.0000000  12.0000000   1.0078250   1.0078250  12.0000000  12.0000000  12.0000000   1.0078250   1.0078250
 NucSpn=           0           0           1           1           0           0           0           1           1
 AtZEff=   0.0000000   0.0000000   0.0000000   0.0000000   0.0000000   0.0000000   0.0000000   0.0000000   0.0000000
 NQMom=    0.0000000   0.0000000   0.0000000   0.0000000   0.0000000   0.0000000   0.0000000   0.0000000   0.0000000
 NMagM=    0.0000000   0.0000000   2.7928460   2.7928460   0.0000000   0.0000000   0.0000000   2.7928460   2.7928460
 AtZNuc=   6.0000000   6.0000000   1.0000000   1.0000000   6.0000000   6.0000000   6.0000000   1.0000000   1.0000000
 Leave Link  101 at Wed Jul 20 09:10:15 2016, MaxMem=    33554432 cpu:         0.6
 (Enter /home/proyectos/fulerenos/M3C-v2.0/M3C-deps_CCC/g09-AM64L-G09RevC.01/l103.exe)

 GradGradGradGradGradGradGradGradGradGradGradGradGradGradGradGradGradGrad
 Berny optimization.
 Initialization pass.
 Trust Radius=3.00D-01 FncErr=1.00D-07 GrdErr=1.00D-07
 Number of steps in this run=      2 maximum allowed number of steps=      2.
 GradGradGradGradGradGradGradGradGradGradGradGradGradGradGradGradGradGrad

 Leave Link  103 at Wed Jul 20 09:10:15 2016, MaxMem=    33554432 cpu:         0.2
 (Enter /home/proyectos/fulerenos/M3C-v2.0/M3C-deps_CCC/g09-AM64L-G09RevC.01/l202.exe)
                          Input orientation:                          
 ---------------------------------------------------------------------
 Center     Atomic      Atomic             Coordinates (Angstroms)
 Number     Number       Type             X           Y           Z
 ---------------------------------------------------------------------
      1          6           0        0.002821    2.246922    0.000000
      2          6           0       -1.268671   -1.020231    0.000000
      3          1           0       -1.328359   -2.099731    0.000000
      4          1           0       -2.180880   -0.443463    0.000000
      5          6           0        0.001328    1.015824    0.000000
      6          6           0       -0.000352   -0.370251    0.000000
      7          6           0        1.266387   -1.023305    0.000000
      8          1           0        2.179992   -0.448750    0.000000
      9          1           0        1.323457   -2.102946    0.000000
 ---------------------------------------------------------------------
                    Distance matrix (angstroms):
                    1          2          3          4          5
     1  C    0.000000
     2  C    3.505850   0.000000
     3  H    4.545925   1.081149   0.000000
     4  H    3.465071   1.079253   1.862798   0.000000
     5  C    1.231099   2.399671   3.387440   2.625176   0.000000
     6  C    2.617175   1.425169   2.180528   2.181757   1.386076
     7  C    3.505850   2.535060   2.809163   3.495693   2.399671
     8  H    3.465071   3.495693   3.877404   4.360875   2.625176
     9  H    4.545925   2.809163   2.651817   3.877404   3.387440
                    6          7          8          9
     6  C    0.000000
     7  C    1.425169   0.000000
     8  H    2.181757   1.079253   0.000000
     9  H    2.180528   1.081149   1.862798   0.000000
 Stoichiometry    C5H4(1+,4)
 Framework group  C2V[C2(CCC),SGV(C2H4)]
 Deg. of freedom     8
 Full point group                 C2V     NOp   4
 Largest Abelian subgroup         C2V     NOp   4
 Largest concise Abelian subgroup C2      NOp   2
                         Standard orientation:                         
 ---------------------------------------------------------------------
 Center     Atomic      Atomic             Coordinates (Angstroms)
 Number     Number       Type             X           Y           Z
 ---------------------------------------------------------------------
      1          6           0        0.000000   -0.000000    2.246957
      2          6           0        0.000000    1.267530   -1.021735
      3          1           0        0.000000    1.325909   -2.101307
      4          1           0        0.000000    2.180438   -0.446073
      5          6           0        0.000000   -0.000000    1.015858
      6          6           0       -0.000000    0.000000   -0.370218
      7          6           0       -0.000000   -1.267530   -1.021735
      8          1           0       -0.000000   -2.180438   -0.446073
      9          1           0       -0.000000   -1.325909   -2.101307
 ---------------------------------------------------------------------
 Rotational constants (GHZ):      9.7779116      4.6548298      3.1535599
 Leave Link  202 at Wed Jul 20 09:10:15 2016, MaxMem=    33554432 cpu:         0.0
 (Enter /home/proyectos/fulerenos/M3C-v2.0/M3C-deps_CCC/g09-AM64L-G09RevC.01/l301.exe)
 Standard basis: 6-311++G(3df,2p) (5D, 7F)
 Ernie: Thresh=  0.10000D-02 Tol=  0.10000D-05 Strict=F.
 There are   110 symmetry adapted cartesian basis functions of A1  symmetry.
 There are    30 symmetry adapted cartesian basis functions of A2  symmetry.
 There are    48 symmetry adapted cartesian basis functions of B1  symmetry.
 There are    77 symmetry adapted cartesian basis functions of B2  symmetry.
 There are    93 symmetry adapted basis functions of A1  symmetry.
 There are    29 symmetry adapted basis functions of A2  symmetry.
 There are    44 symmetry adapted basis functions of B1  symmetry.
 There are    69 symmetry adapted basis functions of B2  symmetry.
   235 basis functions,   338 primitive gaussians,   265 cartesian basis functions
    18 alpha electrons       15 beta electrons
       nuclear repulsion energy       127.8337799007 Hartrees.
 IExCor=  402 DFT=T Ex+Corr=B3LYP ExCW=0 ScaHFX=  0.200000
 ScaDFX=  0.800000  0.720000  1.000000  0.810000 ScalE2=  1.000000  1.000000
 IRadAn=      0 IRanWt=     -1 IRanGd=            0 ICorTp=0 IEmpDi=  4
 NAtoms=    9 NActive=    9 NUniq=    6 SFac= 2.25D+00 NAtFMM=   60 NAOKFM=F Big=F
 Integral buffers will be    131072 words long.
 Raffenetti 2 integral format.
 Two-electron integral symmetry is turned on.
 Leave Link  301 at Wed Jul 20 09:10:16 2016, MaxMem=    33554432 cpu:         0.5
 (Enter /home/proyectos/fulerenos/M3C-v2.0/M3C-deps_CCC/g09-AM64L-G09RevC.01/l302.exe)
 NPDir=0 NMtPBC=     1 NCelOv=     1 NCel=       1 NClECP=     1 NCelD=      1
         NCelK=      1 NCelE2=     1 NClLst=     1 CellRange=     0.0.
 One-electron integrals computed using PRISM.
 One-electron integral symmetry used in STVInt
 NBasis=   235 RedAO= T EigKep=  2.23D-06  NBF=    93    29    44    69
 NBsUse=   235 1.00D-06 EigRej= -1.00D+00 NBFU=    93    29    44    69
 Precomputing XC quadrature grid using
 IXCGrd= 4 IRadAn=           0 IRanWt=          -1 IRanGd=           0 AccXCQ= 0.00D+00.
 Generated NRdTot=       0 NPtTot=           0 NUsed=           0 NTot=          32
 NSgBfM=   265   265   265   265   265 MxSgAt=     9 MxSgA2=     9.
 Leave Link  302 at Wed Jul 20 09:10:17 2016, MaxMem=    33554432 cpu:         0.9
 (Enter /home/proyectos/fulerenos/M3C-v2.0/M3C-deps_CCC/g09-AM64L-G09RevC.01/l303.exe)
 DipDrv:  MaxL=1.
 Leave Link  303 at Wed Jul 20 09:10:18 2016, MaxMem=    33554432 cpu:         0.3
 (Enter /home/proyectos/fulerenos/M3C-v2.0/M3C-deps_CCC/g09-AM64L-G09RevC.01/l401.exe)
 ExpMin= 3.60D-02 ExpMax= 4.56D+03 ExpMxC= 6.82D+02 IAcc=3 IRadAn=         5 AccDes= 0.00D+00
 Harris functional with IExCor=  402 and IRadAn=       5 diagonalized for initial guess.
 HarFok:  IExCor=  402 AccDes= 0.00D+00 IRadAn=         5 IDoV= 1 UseB2=F ITyADJ=14
 ICtDFT=  3500011 ScaDFX=  1.000000  1.000000  1.000000  1.000000
 FoFCou: FMM=F IPFlag=           0 FMFlag=      100000 FMFlg1=           0
         NFxFlg=           0 DoJE=T BraDBF=F KetDBF=T FulRan=T
         wScrn=  0.000000 ICntrl=     500 IOpCl=  0 I1Cent=   200000004 NGrid=           0
         NMat0=    1 NMatS0=      1 NMatT0=    0 NMatD0=    1 NMtDS0=    0 NMtDT0=    0
 Petite list used in FoFCou.
 Harris En= -192.409655877496    
 JPrj=0 DoOrth=F DoCkMO=F.
 Initial guess orbital symmetries:
 Alpha Orbitals:
       Occupied  (A1) (B2) (A1) (A1) (A1) (A1) (A1) (B2) (A1) (A1)
                 (B2) (A1) (B2) (B1) (B2) (A1) (B1) (A2)
       Virtual   (B1) (B2) (A1) (B1) (A1) (B2) (A1) (B2) (B1) (A1)
                 (A1) (A2) (B2) (B1) (A1) (A1) (B2) (A1) (B2) (B1)
                 (B2) (B2) (A1) (B1) (A1) (A1) (A1) (B2) (B2) (A2)
                 (A1) (B2) (A1) (A1) (B1) (B2) (A1) (A1) (A2) (A1)
                 (B2) (A1) (B2) (A2) (B1) (A1) (A1) (B1) (B2) (A2)
                 (A1) (B1) (B2) (B2) (B1) (A1) (A1) (B1) (B2) (B2)
                 (A1) (A2) (A1) (A1) (B1) (B2) (A2) (A1) (B1) (A1)
                 (B2) (B2) (B1) (B2) (A1) (A2) (A1) (B1) (A1) (B1)
                 (A2) (B2) (B2) (A1) (A1) (B2) (A1) (B2) (A1) (A1)
                 (A1) (B2) (A2) (B2) (A1) (B2) (A2) (B1) (A1) (A1)
                 (B2) (B1) (A2) (A1) (A2) (B1) (B2) (A1) (B1) (A1)
                 (B2) (A2) (B2) (A1) (A1) (B2) (B1) (A1) (A1) (B2)
                 (A2) (B1) (B2) (B1) (B1) (A1) (B2) (A1) (B2) (A1)
                 (A2) (A1) (B1) (A2) (B1) (B1) (B2) (A1) (B1) (A2)
                 (B2) (B2) (B1) (B2) (B2) (A1) (B1) (A1) (A2) (A1)
                 (B2) (B2) (B2) (B1) (A1) (A1) (B2) (A1) (A1) (B2)
                 (A1) (A2) (A1) (B1) (A2) (A1) (B2) (A1) (B1) (B2)
                 (A1) (A2) (B1) (A1) (B2) (B1) (A2) (B2) (A1) (B2)
                 (A1) (B1) (B2) (A1) (B2) (B2) (A1) (A2) (A1) (A2)
                 (B1) (A2) (A2) (A1) (B1) (A1) (B1) (B2) (A1) (B2)
                 (B1) (B2) (A2) (B1) (A1) (A1) (B2) (A1) (B2) (A1)
                 (B2) (A1) (A1) (A1) (B2) (A1) (A1)
 Beta  Orbitals:
       Occupied  (A1) (B2) (A1) (A1) (A1) (A1) (A1) (B2) (A1) (A1)
                 (B2) (A1) (B2) (B1) (B2)
       Virtual   (A1) (B1) (A2) (B1) (B2) (A1) (B1) (A1) (B2) (A1)
                 (B2) (B1) (A1) (A1) (A2) (B2) (B1) (A1) (A1) (B2)
                 (A1) (B2) (B1) (B2) (B2) (A1) (B1) (A1) (A1) (A1)
                 (B2) (B2) (A2) (A1) (B2) (A1) (A1) (B1) (B2) (A1)
                 (A1) (A2) (A1) (B2) (A1) (B2) (A2) (B1) (A1) (A1)
                 (B1) (B2) (A2) (A1) (B1) (B2) (B2) (B1) (A1) (A1)
                 (B1) (B2) (B2) (A1) (A2) (A1) (A1) (B1) (B2) (A2)
                 (A1) (B1) (A1) (B2) (B2) (B1) (B2) (A1) (A2) (A1)
                 (B1) (A1) (B1) (A2) (B2) (B2) (A1) (A1) (B2) (A1)
                 (B2) (A1) (A1) (A1) (B2) (A2) (B2) (A1) (B2) (A2)
                 (B1) (A1) (A1) (B2) (B1) (A2) (A1) (A2) (B1) (B2)
                 (A1) (B1) (A1) (B2) (A2) (B2) (A1) (A1) (B2) (B1)
                 (A1) (A1) (B2) (A2) (B1) (B2) (B1) (B1) (A1) (B2)
                 (A1) (B2) (A1) (A2) (A1) (B1) (A2) (B1) (B1) (B2)
                 (A1) (B1) (A2) (B2) (B2) (B1) (B2) (B2) (A1) (B1)
                 (A1) (A2) (A1) (B2) (B2) (B2) (B1) (A1) (A1) (B2)
                 (A1) (A1) (B2) (A1) (A2) (A1) (B1) (A2) (A1) (B2)
                 (A1) (B1) (B2) (A1) (A2) (B1) (A1) (B2) (B1) (A2)
                 (B2) (A1) (B2) (A1) (B1) (B2) (A1) (B2) (B2) (A1)
                 (A2) (A1) (A2) (B1) (A2) (A2) (A1) (B1) (A1) (B1)
                 (B2) (A1) (B2) (B1) (B2) (A2) (B1) (A1) (A1) (B2)
                 (A1) (B2) (A1) (B2) (A1) (A1) (A1) (B2) (A1) (A1)
 The electronic state of the initial guess is 4-B2.
 Initial guess <Sx>= 0.0000 <Sy>= 0.0000 <Sz>= 1.5000 <S**2>= 3.7500 S= 1.5000
 Leave Link  401 at Wed Jul 20 09:10:28 2016, MaxMem=    33554432 cpu:         5.8
 (Enter /home/proyectos/fulerenos/M3C-v2.0/M3C-deps_CCC/g09-AM64L-G09RevC.01/l502.exe)
 UHF open shell SCF:
 Using DIIS extrapolation, IDIIS=  1040.
 Integral symmetry usage will be decided dynamically.
 IVT=      233181 IEndB=      233181 NGot=    33554432 MDV=    33408382
 LenX=    33408382 LenY=    33337716
 Requested convergence on RMS density matrix=1.00D-08 within 128 cycles.
 Requested convergence on MAX density matrix=1.00D-06.
 Requested convergence on             energy=1.00D-06.
 No special actions if energy rises.
 Fock matrices will be formed incrementally for  20 cycles.

 Cycle   1  Pass 1  IDiag  1:
 FoFJK:  IHMeth= 1 ICntrl=       0 DoSepK=F KAlg= 0 I1Cent=   0 FoldK=F
 IRaf= 990000000 NMat=   1 IRICut=       1 DoRegI=T DoRafI=F ISym2E= 1.
 FoFCou: FMM=F IPFlag=           0 FMFlag=      100000 FMFlg1=           0
         NFxFlg=           0 DoJE=F BraDBF=F KetDBF=F FulRan=T
         wScrn=  0.000000 ICntrl=       0 IOpCl=  1 I1Cent=           0 NGrid=           0
         NMat0=    1 NMatS0=      1 NMatT0=    0 NMatD0=    1 NMtDS0=    0 NMtDT0=    0
 Petite list used in FoFCou.
 E= -192.314599571533    
 DIIS: error= 2.67D-02 at cycle   1 NSaved=   1.
 NSaved= 1 IEnMin= 1 EnMin= -192.314599571533     IErMin= 1 ErrMin= 2.67D-02
 ErrMax= 2.67D-02  0.00D+00 EMaxC= 1.00D-01 BMatC= 3.63D-01 BMatP= 3.63D-01
 IDIUse=3 WtCom= 7.33D-01 WtEn= 2.67D-01
 Coeff-Com:  0.100D+01
 Coeff-En:   0.100D+01
 Coeff:      0.100D+01
 Gap=     0.093 Goal=   None    Shift=    0.000
 Gap=     0.014 Goal=   None    Shift=    0.000
 GapD=    0.014 DampG=0.250 DampE=0.500 DampFc=0.2500 IDamp=-1.
 Damping current iteration by 2.50D-01
 RMSDP=1.30D-02 MaxDP=1.32D+00              OVMax= 3.25D-01

 Cycle   2  Pass 1  IDiag  1:
 RMSU=  3.25D-03    CP:  9.90D-01
 E= -192.339655189036     Delta-E=       -0.025055617503 Rises=F Damp=T
 DIIS: error= 1.01D-02 at cycle   2 NSaved=   2.
 NSaved= 2 IEnMin= 2 EnMin= -192.339655189036     IErMin= 2 ErrMin= 1.01D-02
 ErrMax= 1.01D-02  0.00D+00 EMaxC= 1.00D-01 BMatC= 1.05D-01 BMatP= 3.63D-01
 IDIUse=3 WtCom= 8.99D-01 WtEn= 1.01D-01
 Coeff-Com: -0.506D+00 0.151D+01
 Coeff-En:   0.000D+00 0.100D+01
 Coeff:     -0.455D+00 0.145D+01
 Gap=     0.155 Goal=   None    Shift=    0.000
 Gap=     0.146 Goal=   None    Shift=    0.000
 RMSDP=5.42D-03 MaxDP=5.66D-01 DE=-2.51D-02 OVMax= 3.43D-01

 Cycle   3  Pass 1  IDiag  1:
 RMSU=  3.35D-03    CP:  9.29D-01  2.24D+00
 E= -192.373866355432     Delta-E=       -0.034211166395 Rises=F Damp=F
 DIIS: error= 1.85D-02 at cycle   3 NSaved=   3.
 NSaved= 3 IEnMin= 3 EnMin= -192.373866355432     IErMin= 2 ErrMin= 1.01D-02
 ErrMax= 1.85D-02  0.00D+00 EMaxC= 1.00D-01 BMatC= 1.05D-01 BMatP= 1.05D-01
 IDIUse=3 WtCom= 8.15D-01 WtEn= 1.85D-01
 Coeff-Com: -0.531D+00 0.102D+01 0.514D+00
 Coeff-En:   0.000D+00 0.000D+00 0.100D+01
 Coeff:     -0.433D+00 0.829D+00 0.603D+00
 Gap=     0.148 Goal=   None    Shift=    0.000
 Gap=     0.093 Goal=   None    Shift=    0.000
 RMSDP=2.33D-03 MaxDP=2.02D-01 DE=-3.42D-02 OVMax= 1.30D-01

 Cycle   4  Pass 1  IDiag  1:
 RMSU=  1.44D-03    CP:  9.31D-01  2.74D+00  7.64D-01
 E= -192.397851637619     Delta-E=       -0.023985282187 Rises=F Damp=F
 DIIS: error= 9.26D-03 at cycle   4 NSaved=   4.
 NSaved= 4 IEnMin= 4 EnMin= -192.397851637619     IErMin= 4 ErrMin= 9.26D-03
 ErrMax= 9.26D-03  0.00D+00 EMaxC= 1.00D-01 BMatC= 2.57D-02 BMatP= 1.05D-01
 IDIUse=3 WtCom= 9.07D-01 WtEn= 9.26D-02
 Coeff-Com: -0.112D+00 0.189D+00 0.358D+00 0.566D+00
 Coeff-En:   0.000D+00 0.000D+00 0.216D+00 0.784D+00
 Coeff:     -0.102D+00 0.171D+00 0.344D+00 0.586D+00
 Gap=     0.146 Goal=   None    Shift=    0.000
 Gap=     0.108 Goal=   None    Shift=    0.000
 RMSDP=6.84D-04 MaxDP=4.20D-02 DE=-2.40D-02 OVMax= 4.87D-02

 Cycle   5  Pass 1  IDiag  1:
 RMSU=  3.62D-04    CP:  9.22D-01  2.71D+00  9.07D-01  8.39D-01
 E= -192.404449598142     Delta-E=       -0.006597960523 Rises=F Damp=F
 DIIS: error= 2.00D-03 at cycle   5 NSaved=   5.
 NSaved= 5 IEnMin= 5 EnMin= -192.404449598142     IErMin= 5 ErrMin= 2.00D-03
 ErrMax= 2.00D-03  0.00D+00 EMaxC= 1.00D-01 BMatC= 7.34D-04 BMatP= 2.57D-02
 IDIUse=3 WtCom= 9.80D-01 WtEn= 2.00D-02
 Coeff-Com:  0.190D-01-0.501D-01 0.622D-01 0.229D+00 0.740D+00
 Coeff-En:   0.000D+00 0.000D+00 0.000D+00 0.000D+00 0.100D+01
 Coeff:      0.186D-01-0.491D-01 0.610D-01 0.224D+00 0.745D+00
 Gap=     0.150 Goal=   None    Shift=    0.000
 Gap=     0.111 Goal=   None    Shift=    0.000
 RMSDP=2.90D-04 MaxDP=2.66D-02 DE=-6.60D-03 OVMax= 1.17D-02

 Cycle   6  Pass 1  IDiag  1:
 RMSU=  1.81D-04    CP:  9.26D-01  2.77D+00  9.11D-01  8.61D-01  8.59D-01
 E= -192.404742511168     Delta-E=       -0.000292913026 Rises=F Damp=F
 DIIS: error= 9.50D-04 at cycle   6 NSaved=   6.
 NSaved= 6 IEnMin= 6 EnMin= -192.404742511168     IErMin= 6 ErrMin= 9.50D-04
 ErrMax= 9.50D-04  0.00D+00 EMaxC= 1.00D-01 BMatC= 1.22D-04 BMatP= 7.34D-04
 IDIUse=3 WtCom= 9.90D-01 WtEn= 9.50D-03
 Coeff-Com:  0.240D-01-0.404D-01-0.301D-01-0.238D-01 0.230D+00 0.840D+00
 Coeff-En:   0.000D+00 0.000D+00 0.000D+00 0.000D+00 0.000D+00 0.100D+01
 Coeff:      0.238D-01-0.400D-01-0.298D-01-0.235D-01 0.228D+00 0.842D+00
 Gap=     0.149 Goal=   None    Shift=    0.000
 Gap=     0.113 Goal=   None    Shift=    0.000
 RMSDP=9.42D-05 MaxDP=4.40D-03 DE=-2.93D-04 OVMax= 7.13D-03

 Cycle   7  Pass 1  IDiag  1:
 RMSU=  7.00D-05    CP:  9.26D-01  2.76D+00  9.15D-01  8.52D-01  9.71D-01
                    CP:  9.59D-01
 E= -192.404809978968     Delta-E=       -0.000067467800 Rises=F Damp=F
 DIIS: error= 5.51D-04 at cycle   7 NSaved=   7.
 NSaved= 7 IEnMin= 7 EnMin= -192.404809978968     IErMin= 7 ErrMin= 5.51D-04
 ErrMax= 5.51D-04  0.00D+00 EMaxC= 1.00D-01 BMatC= 6.63D-05 BMatP= 1.22D-04
 IDIUse=3 WtCom= 9.94D-01 WtEn= 5.51D-03
 Coeff-Com:  0.772D-02-0.765D-02-0.296D-01-0.719D-01-0.546D-01 0.538D+00
 Coeff-Com:  0.618D+00
 Coeff-En:   0.000D+00 0.000D+00 0.000D+00 0.000D+00 0.000D+00 0.000D+00
 Coeff-En:   0.100D+01
 Coeff:      0.768D-02-0.761D-02-0.295D-01-0.715D-01-0.543D-01 0.535D+00
 Coeff:      0.620D+00
 Gap=     0.149 Goal=   None    Shift=    0.000
 Gap=     0.113 Goal=   None    Shift=    0.000
 RMSDP=4.34D-05 MaxDP=1.89D-03 DE=-6.75D-05 OVMax= 4.18D-03

 Cycle   8  Pass 1  IDiag  1:
 RMSU=  3.47D-05    CP:  9.27D-01  2.76D+00  9.17D-01  8.49D-01  9.74D-01
                    CP:  1.08D+00  1.05D+00
 E= -192.404841742259     Delta-E=       -0.000031763291 Rises=F Damp=F
 DIIS: error= 1.96D-04 at cycle   8 NSaved=   8.
 NSaved= 8 IEnMin= 8 EnMin= -192.404841742259     IErMin= 8 ErrMin= 1.96D-04
 ErrMax= 1.96D-04  0.00D+00 EMaxC= 1.00D-01 BMatC= 7.66D-06 BMatP= 6.63D-05
 IDIUse=3 WtCom= 9.98D-01 WtEn= 1.96D-03
 Coeff-Com: -0.555D-02 0.105D-01 0.324D-02-0.849D-02-0.103D+00-0.126D+00
 Coeff-Com:  0.160D+00 0.107D+01
 Coeff-En:   0.000D+00 0.000D+00 0.000D+00 0.000D+00 0.000D+00 0.000D+00
 Coeff-En:   0.000D+00 0.100D+01
 Coeff:     -0.553D-02 0.105D-01 0.323D-02-0.847D-02-0.102D+00-0.126D+00
 Coeff:      0.160D+00 0.107D+01
 Gap=     0.150 Goal=   None    Shift=    0.000
 Gap=     0.113 Goal=   None    Shift=    0.000
 RMSDP=4.98D-05 MaxDP=4.65D-03 DE=-3.18D-05 OVMax= 3.50D-03

 Cycle   9  Pass 1  IDiag  1:
 RMSU=  2.25D-05    CP:  9.27D-01  2.74D+00  9.17D-01  8.43D-01  9.84D-01
                    CP:  1.13D+00  1.30D+00  1.37D+00
 E= -192.404850390279     Delta-E=       -0.000008648020 Rises=F Damp=F
 DIIS: error= 6.69D-05 at cycle   9 NSaved=   9.
 NSaved= 9 IEnMin= 9 EnMin= -192.404850390279     IErMin= 9 ErrMin= 6.69D-05
 ErrMax= 6.69D-05  0.00D+00 EMaxC= 1.00D-01 BMatC= 6.94D-07 BMatP= 7.66D-06
 IDIUse=1 WtCom= 1.00D+00 WtEn= 0.00D+00
 Coeff-Com: -0.120D-02 0.106D-02 0.364D-02 0.109D-01 0.128D-01-0.823D-01
 Coeff-Com: -0.909D-01-0.445D-02 0.115D+01
 Coeff:     -0.120D-02 0.106D-02 0.364D-02 0.109D-01 0.128D-01-0.823D-01
 Coeff:     -0.909D-01-0.445D-02 0.115D+01
 Gap=     0.149 Goal=   None    Shift=    0.000
 Gap=     0.113 Goal=   None    Shift=    0.000
 RMSDP=1.31D-05 MaxDP=5.88D-04 DE=-8.65D-06 OVMax= 1.25D-03

 Cycle  10  Pass 1  IDiag  1:
 RMSU=  6.59D-06    CP:  9.27D-01  2.74D+00  9.17D-01  8.42D-01  9.90D-01
                    CP:  1.14D+00  1.39D+00  1.58D+00  1.20D+00
 E= -192.404851433346     Delta-E=       -0.000001043067 Rises=F Damp=F
 DIIS: error= 2.20D-05 at cycle  10 NSaved=  10.
 NSaved=10 IEnMin=10 EnMin= -192.404851433346     IErMin=10 ErrMin= 2.20D-05
 ErrMax= 2.20D-05  0.00D+00 EMaxC= 1.00D-01 BMatC= 7.06D-08 BMatP= 6.94D-07
 IDIUse=1 WtCom= 1.00D+00 WtEn= 0.00D+00
 Coeff-Com:  0.107D-02-0.161D-02-0.624D-03-0.517D-03 0.826D-02 0.270D-01
 Coeff-Com: -0.464D-02-0.119D+00-0.207D+00 0.130D+01
 Coeff:      0.107D-02-0.161D-02-0.624D-03-0.517D-03 0.826D-02 0.270D-01
 Coeff:     -0.464D-02-0.119D+00-0.207D+00 0.130D+01
 Gap=     0.149 Goal=   None    Shift=    0.000
 Gap=     0.113 Goal=   None    Shift=    0.000
 RMSDP=4.47D-06 MaxDP=2.21D-04 DE=-1.04D-06 OVMax= 4.58D-04

 Cycle  11  Pass 1  IDiag  1:
 RMSU=  1.51D-06    CP:  9.27D-01  2.74D+00  9.17D-01  8.42D-01  9.91D-01
                    CP:  1.14D+00  1.40D+00  1.64D+00  1.29D+00  1.34D+00
 E= -192.404851534131     Delta-E=       -0.000000100785 Rises=F Damp=F
 DIIS: error= 4.40D-06 at cycle  11 NSaved=  11.
 NSaved=11 IEnMin=11 EnMin= -192.404851534131     IErMin=11 ErrMin= 4.40D-06
 ErrMax= 4.40D-06  0.00D+00 EMaxC= 1.00D-01 BMatC= 3.39D-09 BMatP= 7.06D-08
 IDIUse=1 WtCom= 1.00D+00 WtEn= 0.00D+00
 Coeff-Com: -0.359D-04 0.769D-04-0.112D-03-0.375D-03-0.857D-03 0.408D-02
 Coeff-Com: -0.759D-04 0.693D-02-0.323D-01-0.141D+00 0.116D+01
 Coeff:     -0.359D-04 0.769D-04-0.112D-03-0.375D-03-0.857D-03 0.408D-02
 Coeff:     -0.759D-04 0.693D-02-0.323D-01-0.141D+00 0.116D+01
 Gap=     0.149 Goal=   None    Shift=    0.000
 Gap=     0.113 Goal=   None    Shift=    0.000
 RMSDP=7.82D-07 MaxDP=3.84D-05 DE=-1.01D-07 OVMax= 6.94D-05

 Cycle  12  Pass 1  IDiag  1:
 RMSU=  2.94D-07    CP:  9.27D-01  2.74D+00  9.17D-01  8.42D-01  9.91D-01
                    CP:  1.14D+00  1.40D+00  1.64D+00  1.30D+00  1.41D+00
                    CP:  1.27D+00
 E= -192.404851537001     Delta-E=       -0.000000002870 Rises=F Damp=F
 DIIS: error= 6.32D-07 at cycle  12 NSaved=  12.
 NSaved=12 IEnMin=12 EnMin= -192.404851537001     IErMin=12 ErrMin= 6.32D-07
 ErrMax= 6.32D-07  0.00D+00 EMaxC= 1.00D-01 BMatC= 1.26D-10 BMatP= 3.39D-09
 IDIUse=1 WtCom= 1.00D+00 WtEn= 0.00D+00
 Coeff-Com: -0.309D-04 0.396D-04 0.136D-04-0.167D-04-0.111D-03-0.495D-03
 Coeff-Com: -0.484D-03 0.277D-02 0.319D-02-0.752D-02-0.108D+00 0.111D+01
 Coeff:     -0.309D-04 0.396D-04 0.136D-04-0.167D-04-0.111D-03-0.495D-03
 Coeff:     -0.484D-03 0.277D-02 0.319D-02-0.752D-02-0.108D+00 0.111D+01
 Gap=     0.149 Goal=   None    Shift=    0.000
 Gap=     0.113 Goal=   None    Shift=    0.000
 RMSDP=1.46D-07 MaxDP=1.01D-05 DE=-2.87D-09 OVMax= 9.07D-06

 Cycle  13  Pass 1  IDiag  1:
 RMSU=  5.48D-08    CP:  9.27D-01  2.74D+00  9.17D-01  8.42D-01  9.91D-01
                    CP:  1.14D+00  1.40D+00  1.65D+00  1.30D+00  1.42D+00
                    CP:  1.31D+00  1.08D+00
 E= -192.404851537057     Delta-E=       -0.000000000056 Rises=F Damp=F
 DIIS: error= 2.40D-07 at cycle  13 NSaved=  13.
 NSaved=13 IEnMin=13 EnMin= -192.404851537057     IErMin=13 ErrMin= 2.40D-07
 ErrMax= 2.40D-07  0.00D+00 EMaxC= 1.00D-01 BMatC= 1.50D-11 BMatP= 1.26D-10
 IDIUse=1 WtCom= 1.00D+00 WtEn= 0.00D+00
 Coeff-Com: -0.309D-05 0.397D-05 0.969D-05 0.461D-05-0.248D-04-0.132D-03
 Coeff-Com: -0.225D-03 0.457D-03 0.139D-02 0.235D-02-0.419D-01 0.260D-02
 Coeff-Com:  0.104D+01
 Coeff:     -0.309D-05 0.397D-05 0.969D-05 0.461D-05-0.248D-04-0.132D-03
 Coeff:     -0.225D-03 0.457D-03 0.139D-02 0.235D-02-0.419D-01 0.260D-02
 Coeff:      0.104D+01
 Gap=     0.149 Goal=   None    Shift=    0.000
 Gap=     0.113 Goal=   None    Shift=    0.000
 RMSDP=2.89D-08 MaxDP=1.63D-06 DE=-5.56D-11 OVMax= 1.83D-06

 Cycle  14  Pass 1  IDiag  1:
 RMSU=  1.15D-08    CP:  9.27D-01  2.74D+00  9.17D-01  8.42D-01  9.91D-01
                    CP:  1.14D+00  1.40D+00  1.65D+00  1.30D+00  1.42D+00
                    CP:  1.32D+00  1.10D+00  1.18D+00
 E= -192.404851537064     Delta-E=       -0.000000000007 Rises=F Damp=F
 DIIS: error= 5.88D-08 at cycle  14 NSaved=  14.
 NSaved=14 IEnMin=14 EnMin= -192.404851537064     IErMin=14 ErrMin= 5.88D-08
 ErrMax= 5.88D-08  0.00D+00 EMaxC= 1.00D-01 BMatC= 1.07D-12 BMatP= 1.50D-11
 IDIUse=1 WtCom= 1.00D+00 WtEn= 0.00D+00
 Coeff-Com:  0.139D-05-0.187D-05 0.101D-05 0.203D-05 0.748D-05 0.293D-04
 Coeff-Com: -0.505D-04-0.788D-04 0.244D-04 0.409D-03 0.376D-02-0.750D-01
 Coeff-Com:  0.155D-01 0.106D+01
 Coeff:      0.139D-05-0.187D-05 0.101D-05 0.203D-05 0.748D-05 0.293D-04
 Coeff:     -0.505D-04-0.788D-04 0.244D-04 0.409D-03 0.376D-02-0.750D-01
 Coeff:      0.155D-01 0.106D+01
 Gap=     0.149 Goal=   None    Shift=    0.000
 Gap=     0.113 Goal=   None    Shift=    0.000
 RMSDP=1.22D-08 MaxDP=1.03D-06 DE=-6.59D-12 OVMax= 7.63D-07

 Cycle  15  Pass 1  IDiag  1:
 RMSU=  5.25D-09    CP:  9.27D-01  2.74D+00  9.17D-01  8.42D-01  9.91D-01
                    CP:  1.14D+00  1.40D+00  1.65D+00  1.30D+00  1.42D+00
                    CP:  1.32D+00  1.09D+00  1.26D+00  1.23D+00
 E= -192.404851537065     Delta-E=       -0.000000000001 Rises=F Damp=F
 DIIS: error= 1.22D-08 at cycle  15 NSaved=  15.
 NSaved=15 IEnMin=15 EnMin= -192.404851537065     IErMin=15 ErrMin= 1.22D-08
 ErrMax= 1.22D-08  0.00D+00 EMaxC= 1.00D-01 BMatC= 6.35D-14 BMatP= 1.07D-12
 IDIUse=1 WtCom= 1.00D+00 WtEn= 0.00D+00
 Coeff-Com: -0.650D-07 0.116D-06-0.391D-06-0.331D-06 0.103D-05 0.100D-04
 Coeff-Com: -0.411D-05 0.652D-06-0.439D-04-0.388D-03 0.309D-02 0.411D-02
 Coeff-Com: -0.101D+00 0.869D-01 0.101D+01
 Coeff:     -0.650D-07 0.116D-06-0.391D-06-0.331D-06 0.103D-05 0.100D-04
 Coeff:     -0.411D-05 0.652D-06-0.439D-04-0.388D-03 0.309D-02 0.411D-02
 Coeff:     -0.101D+00 0.869D-01 0.101D+01
 Gap=     0.149 Goal=   None    Shift=    0.000
 Gap=     0.113 Goal=   None    Shift=    0.000
 RMSDP=2.24D-09 MaxDP=1.18D-07 DE=-1.14D-12 OVMax= 1.60D-07

 SCF Done:  E(UB3LYP) =  -192.404851537     A.U. after   15 cycles
            NFock= 15  Conv=0.22D-08     -V/T= 2.0045
 <Sx>= 0.0000 <Sy>= 0.0000 <Sz>= 1.5000 <S**2>= 3.7990 S= 1.5122
 <L.S>= 0.000000000000E+00
 KE= 1.915366950004D+02 PE=-6.940227895519D+02 EE= 1.822474631137D+02
 Annihilation of the first spin contaminant:
 S**2 before annihilation     3.7990,   after     3.7507
 Leave Link  502 at Wed Jul 20 09:20:02 2016, MaxMem=    33554432 cpu:       572.4
 (Enter /home/proyectos/fulerenos/M3C-v2.0/M3C-deps_CCC/g09-AM64L-G09RevC.01/l801.exe)
 DoSCS=F DFT=T ScalE2(SS,OS)=  1.000000  1.000000
 Range of M.O.s used for correlation:     1   235
 NBasis=   235 NAE=    18 NBE=    15 NFC=     0 NFV=     0
 NROrb=    235 NOA=    18 NOB=    15 NVA=   217 NVB=   220

 **** Warning!!: The largest alpha MO coefficient is  0.28356588D+03


 **** Warning!!: The largest beta MO coefficient is  0.29713857D+03

 Leave Link  801 at Wed Jul 20 09:20:19 2016, MaxMem=    33554432 cpu:        16.3
 (Enter /home/proyectos/fulerenos/M3C-v2.0/M3C-deps_CCC/g09-AM64L-G09RevC.01/l1101.exe)
 Using compressed storage, NAtomX=     9.
 Will process     10 centers per pass.
 Leave Link 1101 at Wed Jul 20 09:21:06 2016, MaxMem=    33554432 cpu:        44.8
 (Enter /home/proyectos/fulerenos/M3C-v2.0/M3C-deps_CCC/g09-AM64L-G09RevC.01/l1102.exe)
 Symmetrizing basis deriv contribution to polar:
 IMax=3 JMax=2 DiffMx= 0.00D+00
 Leave Link 1102 at Wed Jul 20 09:21:06 2016, MaxMem=    33554432 cpu:         0.0
 (Enter /home/proyectos/fulerenos/M3C-v2.0/M3C-deps_CCC/g09-AM64L-G09RevC.01/l1110.exe)
 Forming Gx(P) for the SCF density, NAtomX=     9.
 Integral derivatives from FoFJK, PRISM(SPDF).
 Do as many integral derivatives as possible in FoFJK.
 G2DrvN: MDV=      33554256.
 G2DrvN: will do    10 centers at a time, making    1 passes.
 Calling FoFCou, ICntrl=  3107 FMM=F I1Cent=   0 AccDes= 0.00D+00.
 FoFJK:  IHMeth= 1 ICntrl=    3107 DoSepK=F KAlg= 0 I1Cent=   0 FoldK=F
 IRaf=         0 NMat=   1 IRICut=       1 DoRegI=T DoRafI=F ISym2E= 1.
 FoFCou: FMM=F IPFlag=           0 FMFlag=      100000 FMFlg1=           0
         NFxFlg=           0 DoJE=F BraDBF=F KetDBF=F FulRan=T
         wScrn=  0.000000 ICntrl=    3107 IOpCl=  1 I1Cent=           0 NGrid=           0
         NMat0=    1 NMatS0=      1 NMatT0=    0 NMatD0=    1 NMtDS0=    0 NMtDT0=    0
 Petite list used in FoFCou.
 End of G2Drv F.D. properties file   721 does not exist.
 End of G2Drv F.D. properties file   722 does not exist.
 End of G2Drv F.D. properties file   788 does not exist.
 Leave Link 1110 at Wed Jul 20 09:31:37 2016, MaxMem=    33554432 cpu:       610.0
 (Enter /home/proyectos/fulerenos/M3C-v2.0/M3C-deps_CCC/g09-AM64L-G09RevC.01/l1002.exe)
 Minotr:  UHF open shell wavefunction.
          IDoAtm=111111111
          Direct CPHF calculation.
          Differentiating once with respect to electric field.
                with respect to dipole field.
          Differentiating once with respect to nuclear coordinates.
          Using symmetry in CPHF.
          Requested convergence is 1.0D-08 RMS, and 1.0D-07 maximum.
          Secondary convergence is 1.0D-12 RMS, and 1.0D-12 maximum.
          NewPWx=T KeepS1=F KeepF1=F KeepIn=T MapXYZ=F SortEE=F KeepMc=T.
          MDV=      33553868 using IRadAn=       2.
 Generate precomputed XC quadrature information.
          Solving linear equations simultaneously, MaxMat=       0.
 FoFJK:  IHMeth= 1 ICntrl=       0 DoSepK=F KAlg= 0 I1Cent=   0 FoldK=F
 IRaf= 990000000 NMat=  21 IRICut=      52 DoRegI=T DoRafI=T ISym2E= 2.
 FoFCou: FMM=F IPFlag=           0 FMFlag=      100000 FMFlg1=           0
         NFxFlg=           0 DoJE=F BraDBF=F KetDBF=F FulRan=T
         wScrn=  0.000000 ICntrl=       0 IOpCl=  1 I1Cent=           0 NGrid=           0
         NMat0=   21 NMatS0=     21 NMatT0=    0 NMatD0=   21 NMtDS0=    0 NMtDT0=    0
 Integrals replicated using symmetry in FoFCou.
          There are    21 degrees of freedom in the 1st order CPHF.  IDoFFX=4 NUNeed=    21.
     21 vectors produced by pass  0 Test12= 3.43D-14 4.76D-09 XBig12= 2.43D+02 1.11D+01.
 AX will form    21 AO Fock derivatives at one time.
     21 vectors produced by pass  1 Test12= 3.43D-14 4.76D-09 XBig12= 7.41D+01 2.25D+00.
     21 vectors produced by pass  2 Test12= 3.43D-14 4.76D-09 XBig12= 2.87D+00 4.38D-01.
     21 vectors produced by pass  3 Test12= 3.43D-14 4.76D-09 XBig12= 5.15D-02 7.86D-02.
     21 vectors produced by pass  4 Test12= 3.43D-14 4.76D-09 XBig12= 4.86D-04 4.29D-03.
     21 vectors produced by pass  5 Test12= 3.43D-14 4.76D-09 XBig12= 3.34D-06 2.27D-04.
     21 vectors produced by pass  6 Test12= 3.43D-14 4.76D-09 XBig12= 2.75D-08 1.79D-05.
     16 vectors produced by pass  7 Test12= 3.43D-14 4.76D-09 XBig12= 1.46D-10 1.51D-06.
      4 vectors produced by pass  8 Test12= 3.43D-14 4.76D-09 XBig12= 1.38D-12 1.58D-07.
      4 vectors produced by pass  9 Test12= 3.43D-14 4.76D-09 XBig12= 6.12D-13 1.44D-07.
      4 vectors produced by pass 10 Test12= 3.43D-14 4.76D-09 XBig12= 1.02D-14 2.29D-08.
      3 vectors produced by pass 11 Test12= 3.43D-14 4.76D-09 XBig12= 8.75D-16 6.37D-09.
 InvSVY:  IOpt=1 It=  1 EMax= 1.07D-14
 Solved reduced A of dimension   178 with    21 vectors.
 FullF1:  Do perturbations    1 to    21.
 Isotropic polarizability for W=    0.000000       58.39 Bohr**3.
 End of Minotr F.D. properties file   721 does not exist.
 End of Minotr F.D. properties file   722 does not exist.
 End of Minotr F.D. properties file   788 does not exist.
 Leave Link 1002 at Wed Jul 20 10:08:40 2016, MaxMem=    33554432 cpu:      2216.6
 (Enter /home/proyectos/fulerenos/M3C-v2.0/M3C-deps_CCC/g09-AM64L-G09RevC.01/l601.exe)
 Copying SCF densities to generalized density rwf, IOpCl= 1 IROHF=0.

 **********************************************************************

            Population analysis using the SCF density.

 **********************************************************************

 Orbital symmetries:
 Alpha Orbitals:
       Occupied  (A1) (A1) (A1) (B2) (A1) (A1) (A1) (B2) (A1) (A1)
                 (B2) (A1) (B1) (A1) (B2) (B2) (B1) (A2)
       Virtual   (B1) (B2) (A1) (B1) (A1) (B2) (A1) (B1) (A1) (B2)
                 (A1) (B1) (A2) (B2) (A1) (A1) (B2) (B2) (A1) (B1)
                 (B1) (B2) (A1) (B2) (A1) (A1) (A2) (B2) (A1) (B2)
                 (A1) (A1) (B1) (B2) (A1) (A2) (A1) (A1) (B2) (A1)
                 (B2) (A1) (B2) (A2) (A1) (B1) (A1) (B1) (B2) (A2)
                 (A1) (B1) (B2) (B1) (B2) (A1) (B1) (A1) (B2) (A2)
                 (B2) (A1) (B1) (A1) (A1) (A2) (B2) (A1) (B1) (B2)
                 (A1) (B2) (B1) (B2) (A1) (A2) (A1) (B1) (A1) (B1)
                 (A2) (B2) (B2) (A1) (A1) (B2) (B2) (A1) (A1) (A1)
                 (A1) (B2) (A2) (A2) (B2) (A1) (B1) (B2) (A1) (A1)
                 (B1) (B2) (A2) (A1) (A2) (B1) (B2) (A1) (B1) (A1)
                 (B2) (A2) (A1) (B2) (A1) (B2) (B1) (A1) (A1) (B2)
                 (A2) (B1) (B1) (B2) (B1) (B2) (A1) (A1) (B2) (A1)
                 (A1) (A2) (B1) (B1) (A2) (B2) (B1) (A1) (B1) (A2)
                 (B2) (B1) (B2) (B1) (B2) (A1) (B2) (A1) (A2) (A1)
                 (B2) (B2) (B2) (B1) (A1) (A1) (B2) (A1) (A1) (B2)
                 (A2) (A1) (A1) (B1) (A2) (A1) (B2) (A1) (B1) (B2)
                 (A2) (A1) (B1) (A1) (B2) (B1) (A2) (B2) (A1) (B2)
                 (A1) (B1) (B2) (A1) (B2) (B2) (A1) (A2) (A1) (A2)
                 (A2) (A1) (B1) (A2) (B1) (B1) (A1) (B2) (B2) (A1)
                 (B1) (B2) (A2) (B1) (A1) (A1) (B2) (A1) (B2) (A1)
                 (B2) (A1) (A1) (A1) (B2) (A1) (A1)
 Beta  Orbitals:
       Occupied  (A1) (A1) (A1) (B2) (A1) (A1) (A1) (B2) (A1) (A1)
                 (B2) (A1) (B2) (B1) (B2)
       Virtual   (A1) (B1) (A2) (B1) (B2) (A1) (A1) (B2) (B1) (A1)
                 (B1) (B2) (A1) (A1) (A2) (B2) (B1) (A1) (A1) (B2)
                 (A1) (B2) (B1) (B1) (B2) (B2) (A1) (A1) (A1) (B2)
                 (A2) (A1) (B2) (A1) (A1) (B2) (B1) (A1) (A2) (A1)
                 (A1) (B2) (A1) (B2) (A1) (B2) (A2) (A1) (B1) (A1)
                 (B1) (B2) (A2) (A1) (B1) (B2) (B1) (B2) (A1) (A1)
                 (B1) (B2) (B2) (A2) (A1) (A1) (B1) (A1) (A2) (B2)
                 (A1) (B1) (B2) (A1) (B2) (B1) (B2) (A1) (A2) (A1)
                 (B1) (A1) (B1) (A2) (B2) (B2) (A1) (A1) (B2) (B2)
                 (A1) (A1) (A1) (A1) (B2) (A2) (B2) (A1) (A2) (B2)
                 (B1) (A1) (A1) (B2) (B1) (A2) (A1) (A2) (B1) (B2)
                 (A1) (B1) (A1) (B2) (A2) (B2) (A1) (A1) (B2) (B1)
                 (A1) (A1) (B2) (A2) (B1) (B2) (B1) (B1) (B2) (A1)
                 (A1) (B2) (A1) (A1) (A2) (B1) (A2) (B1) (B1) (B2)
                 (A1) (B1) (A2) (B2) (B1) (B2) (B2) (B1) (A1) (B2)
                 (A1) (A2) (A1) (B2) (B2) (B2) (B1) (A1) (A1) (B2)
                 (A1) (A1) (B2) (A2) (A1) (A1) (B1) (A2) (A1) (B2)
                 (A1) (B1) (B2) (A2) (A1) (B1) (B2) (A1) (B1) (A2)
                 (B2) (A1) (B2) (A1) (B1) (B2) (A1) (B2) (B2) (A1)
                 (A2) (A1) (A2) (A1) (A2) (A2) (B1) (B1) (A1) (B1)
                 (B2) (B2) (A1) (B1) (B2) (A2) (B1) (A1) (A1) (B2)
                 (A1) (B2) (A1) (B2) (A1) (A1) (A1) (B2) (A1) (A1)
 The electronic state is 4-B2.
 Alpha  occ. eigenvalues --  -10.52414 -10.47521 -10.47101 -10.42730 -10.42728
 Alpha  occ. eigenvalues --   -1.09428  -1.02560  -0.92893  -0.86038  -0.72916
 Alpha  occ. eigenvalues --   -0.69008  -0.66055  -0.63313  -0.62463  -0.62363
 Alpha  occ. eigenvalues --   -0.55788  -0.54769  -0.44257
 Alpha virt. eigenvalues --   -0.29311  -0.22456  -0.15346  -0.14420  -0.12015
 Alpha virt. eigenvalues --   -0.11466  -0.09185  -0.08962  -0.08158  -0.07938
 Alpha virt. eigenvalues --   -0.06968  -0.05010  -0.04796  -0.03930  -0.02931
 Alpha virt. eigenvalues --   -0.01900  -0.00928  -0.00243  -0.00168   0.00180
 Alpha virt. eigenvalues --    0.01648   0.02367   0.03013   0.03106   0.03726
 Alpha virt. eigenvalues --    0.05634   0.07263   0.07693   0.08460   0.10112
 Alpha virt. eigenvalues --    0.10231   0.13561   0.13924   0.14096   0.14590
 Alpha virt. eigenvalues --    0.18325   0.19578   0.20483   0.20937   0.21094
 Alpha virt. eigenvalues --    0.23764   0.24618   0.26512   0.26742   0.27500
 Alpha virt. eigenvalues --    0.27782   0.28416   0.30374   0.33092   0.33160
 Alpha virt. eigenvalues --    0.34750   0.35255   0.36703   0.37612   0.39465
 Alpha virt. eigenvalues --    0.41139   0.42951   0.43806   0.45381   0.47186
 Alpha virt. eigenvalues --    0.48932   0.50378   0.52490   0.52546   0.54138
 Alpha virt. eigenvalues --    0.56564   0.57306   0.61782   0.62787   0.64765
 Alpha virt. eigenvalues --    0.66782   0.69026   0.70666   0.72738   0.76581
 Alpha virt. eigenvalues --    0.81175   0.83190   0.87153   0.88243   0.89356
 Alpha virt. eigenvalues --    0.92991   0.94679   0.96571   0.97354   0.99400
 Alpha virt. eigenvalues --    1.02274   1.04701   1.05174   1.08529   1.12950
 Alpha virt. eigenvalues --    1.16727   1.18381   1.21801   1.24593   1.24792
 Alpha virt. eigenvalues --    1.24942   1.27273   1.28200   1.29245   1.33144
 Alpha virt. eigenvalues --    1.41566   1.41724   1.46819   1.52948   1.53047
 Alpha virt. eigenvalues --    1.58500   1.59955   1.60308   1.64919   1.72039
 Alpha virt. eigenvalues --    1.77797   1.84856   1.86093   1.86327   1.96283
 Alpha virt. eigenvalues --    1.96353   2.06610   2.10136   2.22443   2.31665
 Alpha virt. eigenvalues --    2.34562   2.37952   2.38997   2.39397   2.42760
 Alpha virt. eigenvalues --    2.47429   2.49573   2.54341   2.54360   2.55750
 Alpha virt. eigenvalues --    2.58100   2.58175   2.61347   2.62854   2.63701
 Alpha virt. eigenvalues --    2.65750   2.66705   2.69952   2.74246   2.76442
 Alpha virt. eigenvalues --    2.79167   2.79229   2.82451   2.92073   2.92567
 Alpha virt. eigenvalues --    2.93276   2.94480   3.02029   3.02246   3.03952
 Alpha virt. eigenvalues --    3.10327   3.19534   3.22479   3.22933   3.28193
 Alpha virt. eigenvalues --    3.35125   3.43295   3.46524   3.54405   3.59378
 Alpha virt. eigenvalues --    3.59559   3.63856   3.72522   3.87336   3.93715
 Alpha virt. eigenvalues --    3.96069   3.98627   3.99670   4.02642   4.05529
 Alpha virt. eigenvalues --    4.08517   4.09503   4.13407   4.25597   4.26361
 Alpha virt. eigenvalues --    4.28108   4.29055   4.44394   4.77277   5.01153
 Alpha virt. eigenvalues --    5.21117   5.24759   5.40284   5.41073   5.70955
 Alpha virt. eigenvalues --    5.85967   5.89722   6.65115   6.66767   6.80066
 Alpha virt. eigenvalues --    6.83090   6.83620   6.85428   6.85563   6.92960
 Alpha virt. eigenvalues --    6.97264   6.97717   7.01831   7.08596   7.10332
 Alpha virt. eigenvalues --    7.16151   7.24460   7.38330   7.39010   7.45613
 Alpha virt. eigenvalues --    7.57682   7.61793   7.66632   7.70149   7.93552
 Alpha virt. eigenvalues --    8.13021   8.35211  23.59474  24.44900  24.49432
 Alpha virt. eigenvalues --   25.20788  26.27753
  Beta  occ. eigenvalues --  -10.49430 -10.47425 -10.46908 -10.41661 -10.41660
  Beta  occ. eigenvalues --   -1.07750  -0.98243  -0.89846  -0.84187  -0.71754
  Beta  occ. eigenvalues --   -0.68281  -0.62421  -0.61598  -0.58768  -0.53504
  Beta virt. eigenvalues --   -0.42172  -0.42087  -0.30230  -0.22419  -0.19593
  Beta virt. eigenvalues --   -0.14995  -0.11740  -0.11299  -0.10809  -0.08768
  Beta virt. eigenvalues --   -0.07805  -0.07677  -0.07623  -0.05984  -0.03751
  Beta virt. eigenvalues --   -0.03746  -0.03270  -0.02471  -0.01671  -0.00795
  Beta virt. eigenvalues --    0.00169   0.00745   0.00754   0.01979   0.02503
  Beta virt. eigenvalues --    0.03397   0.03779   0.04028   0.06186   0.07719
  Beta virt. eigenvalues --    0.07995   0.09044   0.10300   0.11132   0.13968
  Beta virt. eigenvalues --    0.14694   0.15120   0.15353   0.19808   0.20167
  Beta virt. eigenvalues --    0.21362   0.21682   0.21862   0.24857   0.26281
  Beta virt. eigenvalues --    0.27338   0.28409   0.29235   0.30356   0.31090
  Beta virt. eigenvalues --    0.32514   0.33946   0.35051   0.35454   0.37408
  Beta virt. eigenvalues --    0.37659   0.39594   0.40209   0.42007   0.44011
  Beta virt. eigenvalues --    0.44333   0.46323   0.49465   0.49718   0.50940
  Beta virt. eigenvalues --    0.53139   0.53689   0.54939   0.57503   0.57590
  Beta virt. eigenvalues --    0.62414   0.63850   0.64933   0.68657   0.69599
  Beta virt. eigenvalues --    0.72193   0.73457   0.79124   0.82028   0.84096
  Beta virt. eigenvalues --    0.88723   0.89547   0.90195   0.93759   0.95500
  Beta virt. eigenvalues --    0.97471   0.97656   1.00584   1.03478   1.06300
  Beta virt. eigenvalues --    1.07576   1.10127   1.15440   1.17569   1.19046
  Beta virt. eigenvalues --    1.24807   1.25851   1.25934   1.27894   1.29068
  Beta virt. eigenvalues --    1.29619   1.32590   1.34018   1.43913   1.47765
  Beta virt. eigenvalues --    1.50294   1.55073   1.55702   1.61636   1.62002
  Beta virt. eigenvalues --    1.62276   1.68811   1.73282   1.79304   1.87606
  Beta virt. eigenvalues --    1.89755   1.94284   1.97383   1.97773   2.10778
  Beta virt. eigenvalues --    2.13412   2.23283   2.33285   2.38096   2.40273
  Beta virt. eigenvalues --    2.41318   2.42317   2.47137   2.49505   2.50865
  Beta virt. eigenvalues --    2.56135   2.56489   2.58336   2.61073   2.63559
  Beta virt. eigenvalues --    2.64113   2.67066   2.67551   2.68833   2.68961
  Beta virt. eigenvalues --    2.72393   2.78459   2.80089   2.80175   2.82332
  Beta virt. eigenvalues --    2.83156   2.93828   2.95190   2.95321   2.95951
  Beta virt. eigenvalues --    3.04373   3.05708   3.07517   3.13292   3.20857
  Beta virt. eigenvalues --    3.25362   3.26205   3.31108   3.35782   3.43994
  Beta virt. eigenvalues --    3.47996   3.55710   3.60897   3.62601   3.65441
  Beta virt. eigenvalues --    3.78957   3.90061   3.94631   3.96433   3.98617
  Beta virt. eigenvalues --    4.00355   4.03885   4.06152   4.09499   4.09541
  Beta virt. eigenvalues --    4.15356   4.26751   4.26901   4.29837   4.30819
  Beta virt. eigenvalues --    4.45369   4.77324   5.02015   5.22082   5.27984
  Beta virt. eigenvalues --    5.40562   5.41362   5.71607   5.86631   5.91193
  Beta virt. eigenvalues --    6.69897   6.72379   6.83224   6.84890   6.86894
  Beta virt. eigenvalues --    6.89217   6.90692   6.96561   7.00423   7.06449
  Beta virt. eigenvalues --    7.08696   7.15234   7.17413   7.19198   7.25214
  Beta virt. eigenvalues --    7.40773   7.40896   7.50498   7.58278   7.62633
  Beta virt. eigenvalues --    7.67478   7.70832   7.95225   8.13597   8.36923
  Beta virt. eigenvalues --   23.60898  24.46198  24.50666  25.21079  26.30097
          Condensed to atoms (all electrons):
               1          2          3          4          5          6
     1  C   11.145186   0.327244  -0.010979   0.004914  -3.854830  -2.077973
     2  C    0.327244   7.192424   0.415594   0.410337   0.004806  -0.958377
     3  H   -0.010979   0.415594   0.419978  -0.009071   0.032294  -0.080984
     4  H    0.004914   0.410337  -0.009071   0.404099   0.017676  -0.074861
     5  C   -3.854830   0.004806   0.032294   0.017676   9.105275   0.510602
     6  C   -2.077973  -0.958377  -0.080984  -0.074861   0.510602   8.898385
     7  C    0.327244  -0.872001   0.006128   0.018665   0.004806  -0.958377
     8  H    0.004914   0.018665  -0.000044  -0.000660   0.017676  -0.074861
     9  H   -0.010979   0.006128  -0.002748  -0.000044   0.032294  -0.080984
               7          8          9
     1  C    0.327244   0.004914  -0.010979
     2  C   -0.872001   0.018665   0.006128
     3  H    0.006128  -0.000044  -0.002748
     4  H    0.018665  -0.000660  -0.000044
     5  C    0.004806   0.017676   0.032294
     6  C   -0.958377  -0.074861  -0.080984
     7  C    7.192424   0.410337   0.415594
     8  H    0.410337   0.404099  -0.009071
     9  H    0.415594  -0.009071   0.419978
          Atomic-Atomic Spin Densities.
               1          2          3          4          5          6
     1  C    2.177789  -0.026985  -0.000439   0.002212  -0.714923   0.050512
     2  C   -0.026985   0.708489  -0.006036   0.013491   0.019224  -0.029968
     3  H   -0.000439  -0.006036  -0.027772   0.004145   0.001791   0.010569
     4  H    0.002212   0.013491   0.004145  -0.029511  -0.003980  -0.010208
     5  C   -0.714923   0.019224   0.001791  -0.003980   0.765664  -0.043662
     6  C    0.050512  -0.029968   0.010569  -0.010208  -0.043662   0.163610
     7  C   -0.026985   0.060333  -0.003198   0.000815   0.019224  -0.029968
     8  H    0.002212   0.000815  -0.000331   0.000322  -0.003980  -0.010208
     9  H   -0.000439  -0.003198   0.000473  -0.000331   0.001791   0.010569
               7          8          9
     1  C   -0.026985   0.002212  -0.000439
     2  C    0.060333   0.000815  -0.003198
     3  H   -0.003198  -0.000331   0.000473
     4  H    0.000815   0.000322  -0.000331
     5  C    0.019224  -0.003980   0.001791
     6  C   -0.029968  -0.010208   0.010569
     7  C    0.708489   0.013491  -0.006036
     8  H    0.013491  -0.029511   0.004145
     9  H   -0.006036   0.004145  -0.027772
 Mulliken charges and spin densities:
               1          2
     1  C    0.145257   1.462954
     2  C   -0.544820   0.736165
     3  H    0.229832  -0.020796
     4  H    0.228944  -0.023044
     5  C    0.129400   0.041149
     6  C    0.897431   0.111247
     7  C   -0.544820   0.736165
     8  H    0.228944  -0.023044
     9  H    0.229832  -0.020796
 Sum of Mulliken charges =   1.00000   3.00000
 Mulliken charges and spin densities with hydrogens summed into heavy atoms:
               1          2
     1  C    0.145257   1.462954
     2  C   -0.086044   0.692325
     5  C    0.129400   0.041149
     6  C    0.897431   0.111247
     7  C   -0.086044   0.692325
 APT charges:
               1
     1  C    0.384150
     2  C   -0.040485
     3  H    0.106686
     4  H    0.113157
     5  C    0.068799
     6  C    0.188336
     7  C   -0.040485
     8  H    0.113157
     9  H    0.106686
 Sum of APT charges =   1.00000
 APT charges with hydrogens summed into heavy atoms:
               1
     1  C    0.384150
     2  C    0.179357
     5  C    0.068799
     6  C    0.188336
     7  C    0.179357
 Electronic spatial extent (au):  <R**2>=            369.9756
 Charge=              1.0000 electrons
 Dipole moment (field-independent basis, Debye):
    X=             -0.0000    Y=              0.0000    Z=              0.2286  Tot=              0.2286
 Quadrupole moment (field-independent basis, Debye-Ang):
   XX=            -28.1198   YY=            -19.4767   ZZ=            -11.1760
   XY=              0.0000   XZ=              0.0000   YZ=             -0.0000
 Traceless Quadrupole moment (field-independent basis, Debye-Ang):
   XX=             -8.5289   YY=              0.1141   ZZ=              8.4148
   XY=              0.0000   XZ=              0.0000   YZ=             -0.0000
 Octapole moment (field-independent basis, Debye-Ang**2):
  XXX=              0.0000  YYY=              0.0000  ZZZ=              9.1845  XYY=              0.0000
  XXY=             -0.0000  XXZ=              0.4345  XZZ=              0.0000  YZZ=             -0.0000
  YYZ=             -9.0257  XYZ=             -0.0000
 Hexadecapole moment (field-independent basis, Debye-Ang**3):
 XXXX=            -29.2534 YYYY=           -136.5880 ZZZZ=           -205.0748 XXXY=             -0.0000
 XXXZ=             -0.0000 YYYX=             -0.0000 YYYZ=             -0.0000 ZZZX=             -0.0000
 ZZZY=             -0.0000 XXYY=            -35.9876 XXZZ=            -55.7734 YYZZ=            -70.8402
 XXYZ=              0.0000 YYXZ=             -0.0000 ZZXY=             -0.0000
 N-N= 1.278337799007D+02 E-N=-6.940227895790D+02  KE= 1.915366950004D+02
 Symmetry A1   KE= 1.445201485958D+02
 Symmetry A2   KE= 1.261862619536D+00
 Symmetry B1   KE= 3.401319780475D+00
 Symmetry B2   KE= 4.235336400463D+01
  Exact polarizability:  30.555   0.000  65.301  -0.000   0.000  79.307
 Approx polarizability:  43.850   0.000  88.823   0.000   0.000 129.830
                          Isotropic Fermi Contact Couplings
        Atom                 a.u.       MegaHertz       Gauss      10(-4) cm-1
     1  C(13)              1.11313     417.12312     148.83990     139.13730
     2  C(13)              0.03526      13.21486       4.71539       4.40800
     3  H(1)              -0.01025     -15.26997      -5.44871      -5.09351
     4  H(1)              -0.01046     -15.59236      -5.56374      -5.20105
     5  C(13)              0.15898      59.57561      21.25806      19.87228
     6  C(13)             -0.02303      -8.62852      -3.07887      -2.87816
     7  C(13)              0.03526      13.21486       4.71539       4.40800
     8  H(1)              -0.01046     -15.59236      -5.56374      -5.20105
     9  H(1)              -0.01025     -15.26997      -5.44871      -5.09351
 --------------------------------------------------------
       Center         ----  Spin Dipole Couplings  ----
                      3XX-RR        3YY-RR        3ZZ-RR
 --------------------------------------------------------
     1   Atom        0.162901     -0.635437      0.472537
     2   Atom        0.886367     -0.438983     -0.447383
     3   Atom       -0.008733     -0.048667      0.057401
     4   Atom       -0.008044      0.032715     -0.024671
     5   Atom        0.047281     -0.360955      0.313675
     6   Atom        0.105774     -0.058660     -0.047114
     7   Atom        0.886367     -0.438983     -0.447383
     8   Atom       -0.008044      0.032715     -0.024671
     9   Atom       -0.008733     -0.048667      0.057401
 --------------------------------------------------------
                        XY            XZ            YZ
 --------------------------------------------------------
     1   Atom        0.000000      0.000000      0.000000
     2   Atom        0.000000     -0.000000     -0.000676
     3   Atom        0.000000     -0.000000     -0.015932
     4   Atom        0.000000      0.000000      0.044088
     5   Atom        0.000000      0.000000      0.000000
     6   Atom       -0.000000     -0.000000      0.000000
     7   Atom       -0.000000     -0.000000      0.000676
     8   Atom       -0.000000      0.000000     -0.044088
     9   Atom        0.000000     -0.000000      0.015932
 --------------------------------------------------------


 ---------------------------------------------------------------------------------
              Anisotropic Spin Dipole Couplings in Principal Axis System
 ---------------------------------------------------------------------------------

       Atom             a.u.   MegaHertz   Gauss  10(-4) cm-1        Axes

              Baa    -0.6354   -85.270   -30.426   -28.443  0.0000  1.0000 -0.0000
     1 C(13)  Bbb     0.1629    21.860     7.800     7.292  1.0000 -0.0000  0.0000
              Bcc     0.4725    63.410    22.626    21.151  0.0000  0.0000  1.0000
 
              Baa    -0.4474   -60.042   -21.424   -20.028 -0.0000  0.0797  0.9968
     2 C(13)  Bbb    -0.4389   -58.900   -21.017   -19.647 -0.0000  0.9968 -0.0797
              Bcc     0.8864   118.942    42.441    39.675  1.0000  0.0000  0.0000
 
              Baa    -0.0510   -27.216    -9.711    -9.078  0.0000  0.9894  0.1454
     3 H(1)   Bbb    -0.0087    -4.660    -1.663    -1.554  1.0000 -0.0000  0.0000
              Bcc     0.0597    31.876    11.374    10.633 -0.0000 -0.1454  0.9894
 
              Baa    -0.0486   -25.920    -9.249    -8.646 -0.0000 -0.4767  0.8791
     4 H(1)   Bbb    -0.0080    -4.292    -1.532    -1.432  1.0000 -0.0000  0.0000
              Bcc     0.0566    30.212    10.780    10.078  0.0000  0.8791  0.4767
 
              Baa    -0.3610   -48.437   -17.283   -16.157  0.0000  1.0000 -0.0000
     5 C(13)  Bbb     0.0473     6.345     2.264     2.116  1.0000 -0.0000 -0.0000
              Bcc     0.3137    42.092    15.020    14.040  0.0000  0.0000  1.0000
 
              Baa    -0.0587    -7.872    -2.809    -2.626  0.0000  1.0000 -0.0000
     6 C(13)  Bbb    -0.0471    -6.322    -2.256    -2.109  0.0000  0.0000  1.0000
              Bcc     0.1058    14.194     5.065     4.735  1.0000 -0.0000 -0.0000
 
              Baa    -0.4474   -60.042   -21.424   -20.028  0.0000 -0.0797  0.9968
     7 C(13)  Bbb    -0.4389   -58.900   -21.017   -19.647 -0.0000  0.9968  0.0797
              Bcc     0.8864   118.942    42.441    39.675  1.0000  0.0000  0.0000
 
              Baa    -0.0486   -25.920    -9.249    -8.646 -0.0000  0.4767  0.8791
     8 H(1)   Bbb    -0.0080    -4.292    -1.532    -1.432  1.0000  0.0000  0.0000
              Bcc     0.0566    30.212    10.780    10.078 -0.0000  0.8791 -0.4767
 
              Baa    -0.0510   -27.216    -9.711    -9.078 -0.0000  0.9894 -0.1454
     9 H(1)   Bbb    -0.0087    -4.660    -1.663    -1.554  1.0000  0.0000  0.0000
              Bcc     0.0597    31.876    11.374    10.633 -0.0000  0.1454  0.9894
 

 ---------------------------------------------------------------------------------

 No NMR shielding tensors so no spin-rotation constants.
 Leave Link  601 at Wed Jul 20 10:08:51 2016, MaxMem=    33554432 cpu:         9.2
 (Enter /home/proyectos/fulerenos/M3C-v2.0/M3C-deps_CCC/g09-AM64L-G09RevC.01/l701.exe)
 Compute integral second derivatives.
 ... and contract with generalized density number  0.
 Leave Link  701 at Wed Jul 20 10:09:06 2016, MaxMem=    33554432 cpu:        13.7
 (Enter /home/proyectos/fulerenos/M3C-v2.0/M3C-deps_CCC/g09-AM64L-G09RevC.01/l702.exe)
 L702 exits ... SP integral derivatives will be done elsewhere.
 Leave Link  702 at Wed Jul 20 10:09:06 2016, MaxMem=    33554432 cpu:         0.0
 (Enter /home/proyectos/fulerenos/M3C-v2.0/M3C-deps_CCC/g09-AM64L-G09RevC.01/l703.exe)
 Compute integral second derivatives, UseDBF=F ICtDFT=           0.
 Integral derivatives from FoFJK, PRISM(SPDF).
 Calling FoFJK, ICntrl=    100127 FMM=F ISym2X=1 I1Cent= 0 IOpClX= 1 NMat=1 NMatS=1 NMatT=0.
 FoFJK:  IHMeth= 1 ICntrl=  100127 DoSepK=F KAlg= 0 I1Cent=   0 FoldK=F
 IRaf=         0 NMat=   1 IRICut=       1 DoRegI=T DoRafI=F ISym2E= 1.
 FoFCou: FMM=F IPFlag=           0 FMFlag=      100000 FMFlg1=         800
         NFxFlg=           0 DoJE=F BraDBF=F KetDBF=F FulRan=T
         wScrn=  0.000000 ICntrl=  100127 IOpCl=  1 I1Cent=           0 NGrid=           0
         NMat0=    1 NMatS0=      1 NMatT0=    0 NMatD0=    1 NMtDS0=    0 NMtDT0=    0
 Petite list used in FoFCou.
 Leave Link  703 at Wed Jul 20 10:30:39 2016, MaxMem=    33554432 cpu:      1291.6
 (Enter /home/proyectos/fulerenos/M3C-v2.0/M3C-deps_CCC/g09-AM64L-G09RevC.01/l716.exe)
 Dipole        =-6.03886585D-17 5.47399582D-14 8.99356685D-02
 Polarizability= 3.05548126D+01 1.18872942D-07 6.53012666D+01
                -9.84439183D-08 2.07781013D-06 7.93074383D+01
 Full mass-weighted force constant matrix:
 Low frequencies ---  -11.8110   -2.4822   -0.0004   -0.0001    0.0040    8.1345
 Low frequencies ---  129.8647  232.8943  259.9020
 Diagonal vibrational polarizability:
        4.9721419       4.1420976       1.7736054
 Harmonic frequencies (cm**-1), IR intensities (KM/Mole), Raman scattering
 activities (A**4/AMU), depolarization ratios for plane and unpolarized
 incident light, reduced masses (AMU), force constants (mDyne/A),
 and normal coordinates:
                      1                      2                      3
                     B2                     B1                     A2
 Frequencies --    129.8622               232.8934               259.9014
 Red. masses --      5.9425                 2.2215                 1.0219
 Frc consts  --      0.0590                 0.0710                 0.0407
 IR Inten    --      0.7958                 4.2500                 0.0000
  Atom  AN      X      Y      Z        X      Y      Z        X      Y      Z
     1   6    -0.00   0.48   0.00    -0.20   0.00   0.00     0.00  -0.00  -0.00
     2   6    -0.00  -0.02   0.23    -0.05   0.00  -0.00     0.03   0.00  -0.00
     3   1     0.00   0.19   0.24    -0.61  -0.00  -0.00     0.51  -0.00  -0.00
     4   1    -0.00  -0.13   0.41     0.27   0.00  -0.00    -0.49   0.00  -0.00
     5   6     0.00  -0.31   0.00     0.20  -0.00   0.00    -0.00  -0.00  -0.00
     6   6     0.00  -0.14   0.00     0.16   0.00   0.00    -0.00   0.00   0.00
     7   6    -0.00  -0.02  -0.23    -0.05   0.00   0.00    -0.03   0.00   0.00
     8   1    -0.00  -0.13  -0.41     0.27   0.00   0.00     0.49   0.00   0.00
     9   1     0.00   0.19  -0.24    -0.61  -0.00   0.00    -0.51  -0.00   0.00
                      4                      5                      6
                     A1                     B1                     B2
 Frequencies --    389.9263               431.3545               467.3436
 Red. masses --      2.3268                 1.5061                 5.0297
 Frc consts  --      0.2084                 0.1651                 0.6472
 IR Inten    --      0.2815                 3.0533                11.9429
  Atom  AN      X      Y      Z        X      Y      Z        X      Y      Z
     1   6     0.00  -0.00  -0.14    -0.08   0.00  -0.00    -0.00  -0.04   0.00
     2   6     0.00   0.13   0.14    -0.05   0.00  -0.00    -0.00  -0.12   0.19
     3   1    -0.00   0.48   0.16     0.37  -0.00  -0.00     0.00   0.17   0.21
     4   1     0.00  -0.05   0.43    -0.58   0.00  -0.00    -0.00  -0.26   0.42
     5   6    -0.00   0.00  -0.13     0.17  -0.00  -0.00     0.00   0.48   0.00
     6   6     0.00  -0.00  -0.11     0.05   0.00  -0.00     0.00  -0.18   0.00
     7   6     0.00  -0.13   0.14    -0.05   0.00   0.00    -0.00  -0.12  -0.19
     8   1     0.00   0.05   0.43    -0.58   0.00   0.00    -0.00  -0.26  -0.42
     9   1    -0.00  -0.48   0.16     0.37  -0.00   0.00     0.00   0.17  -0.21
                      7                      8                      9
                     B1                     A2                     A1
 Frequencies --    578.4361               814.5683               831.8017
 Red. masses --      3.8561                 1.2902                 4.4326
 Frc consts  --      0.7602                 0.5044                 1.8070
 IR Inten    --      6.8800                 0.0000                 8.2636
  Atom  AN      X      Y      Z        X      Y      Z        X      Y      Z
     1   6     0.10   0.00   0.00    -0.00   0.00   0.00    -0.00  -0.00   0.29
     2   6    -0.04   0.00  -0.00    -0.11   0.00  -0.00     0.00   0.24  -0.17
     3   1    -0.30  -0.00  -0.00     0.51   0.00  -0.00    -0.00   0.55  -0.17
     4   1    -0.53   0.00  -0.00     0.47   0.00   0.00    -0.00   0.13   0.02
     5   6    -0.29  -0.00   0.00     0.00  -0.00   0.00     0.00   0.00   0.20
     6   6     0.41   0.00  -0.00    -0.00  -0.00  -0.00     0.00   0.00  -0.12
     7   6    -0.04   0.00   0.00     0.11  -0.00  -0.00    -0.00  -0.24  -0.17
     8   1    -0.53   0.00   0.00    -0.47  -0.00   0.00     0.00  -0.13   0.02
     9   1    -0.30  -0.00   0.00    -0.51  -0.00  -0.00     0.00  -0.55  -0.17
                     10                     11                     12
                     B1                     B2                     A1
 Frequencies --    866.6015               980.6674              1012.4476
 Red. masses --      1.5733                 1.3047                 1.7328
 Frc consts  --      0.6962                 0.7393                 1.0465
 IR Inten    --     52.1441                 9.2954                18.0036
  Atom  AN      X      Y      Z        X      Y      Z        X      Y      Z
     1   6     0.00  -0.00  -0.00     0.00  -0.00  -0.00     0.00   0.00  -0.07
     2   6    -0.13  -0.00   0.00     0.00   0.00  -0.11    -0.00   0.16   0.04
     3   1     0.49  -0.00   0.00    -0.00   0.54  -0.09    -0.00  -0.33   0.01
     4   1     0.48  -0.00   0.00    -0.00  -0.28   0.33     0.00   0.45  -0.40
     5   6    -0.02   0.00  -0.00    -0.00  -0.02   0.00    -0.00  -0.00  -0.03
     6   6     0.12  -0.00   0.00    -0.00  -0.03   0.00     0.00  -0.00   0.08
     7   6    -0.13   0.00   0.00     0.00   0.00   0.11    -0.00  -0.16   0.04
     8   1     0.48  -0.00  -0.00    -0.00  -0.28  -0.33     0.00  -0.45  -0.40
     9   1     0.49   0.00   0.00    -0.00   0.54   0.09     0.00   0.33   0.01
                     13                     14                     15
                     A1                     B2                     B2
 Frequencies --   1344.7737              1346.8923              1477.8116
 Red. masses --      3.9397                 3.7466                 1.2720
 Frc consts  --      4.1977                 4.0045                 1.6367
 IR Inten    --     43.2530                19.5545                57.4420
  Atom  AN      X      Y      Z        X      Y      Z        X      Y      Z
     1   6     0.00  -0.00  -0.19     0.00   0.00  -0.00     0.00   0.00  -0.00
     2   6    -0.00   0.02  -0.13     0.00  -0.16   0.03     0.00  -0.09   0.04
     3   1    -0.00   0.58  -0.11    -0.00  -0.21   0.05    -0.00   0.50   0.07
     4   1     0.00  -0.10   0.09     0.00  -0.41   0.40     0.00   0.21  -0.43
     5   6    -0.00   0.00  -0.00    -0.00  -0.03  -0.00    -0.00  -0.01  -0.00
     6   6     0.00  -0.00   0.45     0.00   0.44   0.00    -0.00   0.07   0.00
     7   6     0.00  -0.02  -0.13     0.00  -0.16  -0.03     0.00  -0.09  -0.04
     8   1    -0.00   0.10   0.09    -0.00  -0.41  -0.40    -0.00   0.21   0.43
     9   1     0.00  -0.58  -0.11    -0.00  -0.21  -0.05    -0.00   0.50  -0.07
                     16                     17                     18
                     A1                     A1                     B2
 Frequencies --   1497.8269              2116.0374              3153.5292
 Red. masses --      1.1961                11.9372                 1.0510
 Frc consts  --      1.5810                31.4920                 6.1579
 IR Inten    --      3.1573                33.7713                48.7015
  Atom  AN      X      Y      Z        X      Y      Z        X      Y      Z
     1   6    -0.00   0.00   0.01    -0.00  -0.00  -0.58    -0.00  -0.00  -0.00
     2   6     0.00  -0.08   0.05    -0.00  -0.01   0.01    -0.00   0.04  -0.03
     3   1     0.00   0.47   0.08     0.00  -0.04   0.02    -0.00  -0.02   0.54
     4   1    -0.00   0.24  -0.46    -0.00   0.01  -0.03    -0.00  -0.38  -0.25
     5   6     0.00  -0.00  -0.00     0.00   0.00   0.78     0.00   0.00   0.00
     6   6    -0.00   0.00  -0.04    -0.00   0.00  -0.23    -0.00  -0.00  -0.00
     7   6    -0.00   0.08   0.05    -0.00   0.01   0.01    -0.00   0.04   0.03
     8   1     0.00  -0.24  -0.46     0.00  -0.01  -0.03    -0.00  -0.38   0.25
     9   1    -0.00  -0.47   0.08    -0.00   0.04   0.02    -0.00  -0.02  -0.54
                     19                     20                     21
                     A1                     B2                     A1
 Frequencies --   3158.6764              3273.4683              3274.7802
 Red. masses --      1.0539                 1.1215                 1.1235
 Frc consts  --      6.1952                 7.0807                 7.0989
 IR Inten    --      2.7972                 4.3466                15.0136
  Atom  AN      X      Y      Z        X      Y      Z        X      Y      Z
     1   6    -0.00   0.00   0.00     0.00   0.00  -0.00     0.00  -0.00   0.00
     2   6    -0.00   0.04  -0.03     0.00  -0.04  -0.06     0.00  -0.04  -0.06
     3   1     0.00  -0.03   0.54     0.00  -0.02   0.45    -0.00  -0.03   0.45
     4   1     0.00  -0.38  -0.25    -0.00   0.46   0.29    -0.00   0.45   0.29
     5   6    -0.00  -0.00  -0.00     0.00  -0.00   0.00    -0.00   0.00   0.00
     6   6     0.00   0.00   0.00    -0.00   0.00   0.00    -0.00  -0.00  -0.00
     7   6     0.00  -0.04  -0.03     0.00  -0.04   0.06    -0.00   0.04  -0.06
     8   1    -0.00   0.38  -0.25    -0.00   0.46  -0.29     0.00  -0.45   0.29
     9   1    -0.00   0.03   0.54     0.00  -0.02  -0.45     0.00   0.03   0.45

 -------------------
 - Thermochemistry -
 -------------------
 Temperature   298.150 Kelvin.  Pressure   1.00000 Atm.
 Atom     1 has atomic number  6 and mass  12.00000
 Atom     2 has atomic number  6 and mass  12.00000
 Atom     3 has atomic number  1 and mass   1.00783
 Atom     4 has atomic number  1 and mass   1.00783
 Atom     5 has atomic number  6 and mass  12.00000
 Atom     6 has atomic number  6 and mass  12.00000
 Atom     7 has atomic number  6 and mass  12.00000
 Atom     8 has atomic number  1 and mass   1.00783
 Atom     9 has atomic number  1 and mass   1.00783
 Molecular mass:    64.03130 amu.
 Principal axes and moments of inertia in atomic units:
                           1         2         3
     Eigenvalues --   184.57328 387.71368 572.28696
           X            0.00000  -0.00000   1.00000
           Y            0.00000   1.00000   0.00000
           Z            1.00000  -0.00000   0.00000
 This molecule is an asymmetric top.
 Rotational symmetry number  2.
 Rotational temperatures (Kelvin)      0.46927     0.22340     0.15135
 Rotational constants (GHZ):           9.77791     4.65483     3.15356
 Zero-point vibrational energy     165321.5 (Joules/Mol)
                                   39.51279 (Kcal/Mol)
 Warning -- explicit consideration of   7 degrees of freedom as
           vibrations may cause significant error
 Vibrational temperatures:    186.84   335.08   373.94   561.02   620.62
          (Kelvin)            672.40   832.24  1171.98  1196.78  1246.84
                             1410.96  1456.68  1934.83  1937.88  2126.24
                             2155.04  3044.50  4537.22  4544.63  4709.78
                             4711.67
 
 Zero-point correction=                           0.062968 (Hartree/Particle)
 Thermal correction to Energy=                    0.068793
 Thermal correction to Enthalpy=                  0.069737
 Thermal correction to Gibbs Free Energy=         0.033941
 Sum of electronic and zero-point Energies=           -192.341884
 Sum of electronic and thermal Energies=              -192.336058
 Sum of electronic and thermal Enthalpies=            -192.335114
 Sum of electronic and thermal Free Energies=         -192.370910
 
                     E (Thermal)             CV                S
                      KCal/Mol        Cal/Mol-Kelvin    Cal/Mol-Kelvin
 Total                   43.168             19.671             75.339
 Electronic               0.000              0.000              2.755
 Translational            0.889              2.981             38.389
 Rotational               0.889              2.981             23.841
 Vibrational             41.391             13.709             10.354
 Vibration     1          0.612              1.923              2.948
 Vibration     2          0.654              1.791              1.857
 Vibration     3          0.668              1.746              1.662
 Vibration     4          0.758              1.492              1.000
 Vibration     5          0.792              1.402              0.854
 Vibration     6          0.825              1.323              0.745
 Vibration     7          0.935              1.078              0.488
                       Q            Log10(Q)             Ln(Q)
 Total Bot       0.244417D-15        -15.611868        -35.947654
 Total V=0       0.224479D+14         13.351175         30.742217
 Vib (Bot)       0.837655D-28        -28.076935        -64.649531
 Vib (Bot)    1  0.156991D+01          0.195876          0.451020
 Vib (Bot)    2  0.844626D+00         -0.073336         -0.168862
 Vib (Bot)    3  0.747365D+00         -0.126467         -0.291202
 Vib (Bot)    4  0.460447D+00         -0.336820         -0.775556
 Vib (Bot)    5  0.403507D+00         -0.394149         -0.907562
 Vib (Bot)    6  0.361728D+00         -0.441618         -1.016863
 Vib (Bot)    7  0.263851D+00         -0.578642         -1.332372
 Vib (V=0)       0.769322D+01          0.886108          2.040339
 Vib (V=0)    1  0.214761D+01          0.331956          0.764357
 Vib (V=0)    2  0.148153D+01          0.170709          0.393072
 Vib (V=0)    3  0.139920D+01          0.145879          0.335898
 Vib (V=0)    4  0.117971D+01          0.071777          0.165273
 Vib (V=0)    5  0.114251D+01          0.057860          0.133227
 Vib (V=0)    6  0.111713D+01          0.048103          0.110761
 Vib (V=0)    7  0.106535D+01          0.027491          0.063301
 Electronic      0.400000D+01          0.602060          1.386294
 Translational   0.201393D+08          7.304044         16.818182
 Rotational      0.362212D+05          4.558963         10.497401
 
                                                              b3lyp opt
                                                             IR Spectrum
 
     33  33                                       2                       11   11            1                                       
     22  11                                       1                       44   33            09    888        5   4 43    22   1     
     77  55                                       1                       97   44            18    631        7   6 39    63   3     
     53  94                                       6                       88   75            21    725        8   7 10    03   0     
 
     XX  XX                                       X                       XX   XX            XX    XX         X   X XX     X   X     
     XX   X                                       X                        X   XX            XX    XX         X   X                  
     X    X                                       X                        X   XX            XX    XX             X                  
     X    X                                       X                        X   XX            X     X              X                  
     X    X                                       X                        X   XX            X     X                                 
          X                                       X                        X   XX            X     X                                 
          X                                       X                        X   XX                  X                                 
          X                                       X                        X    X                  X                                 
          X                                       X                        X    X                  X                                 
          X                                       X                        X    X                  X                                 
          X                                       X                        X    X                  X                                 
          X                                       X                        X    X                  X                                 
          X                                                                X    X                  X                                 
          X                                                                X    X                  X                                 
          X                                                                X    X                  X                                 
          X                                                                X                       X                                 
          X                                                                X                       X                                 
                                                                           X                       X                                 
                                                                           X                                                         
                                                                           X                                                         
 
 ***** Axes restored to original set *****
 -------------------------------------------------------------------
 Center     Atomic                   Forces (Hartrees/Bohr)
 Number     Number              X              Y              Z
 -------------------------------------------------------------------
      1        6           0.000000006    0.000005055    0.000000000
      2        6          -0.000006807   -0.000005840   -0.000000000
      3        1           0.000002433    0.000001972    0.000000000
      4        1           0.000003902    0.000006038    0.000000000
      5        6          -0.000000009   -0.000007077    0.000000000
      6        6          -0.000000003   -0.000002317    0.000000000
      7        6           0.000006793   -0.000005857   -0.000000000
      8        1          -0.000003887    0.000006047   -0.000000000
      9        1          -0.000002428    0.000001978    0.000000000
 -------------------------------------------------------------------
 Cartesian Forces:  Max     0.000007077 RMS     0.000003676
 Z-matrix is all fixed cartesians, so copy forces.
 Force constants in Cartesian coordinates: 
                1             2             3             4             5 
      1  0.382694D-02
      2  0.105779D-02  0.876254D+00
      3  0.000000D+00  0.000000D+00  0.141185D-01
      4  0.997625D-04 -0.893519D-02  0.000000D+00  0.619255D+00
      5 -0.359749D-03 -0.133466D-01  0.000000D+00 -0.373287D-01  0.649391D+00
      6  0.000000D+00  0.000000D+00  0.131837D-02  0.000000D+00  0.000000D+00
      7  0.114783D-03 -0.135453D-02  0.000000D+00 -0.587307D-01 -0.837028D-02
      8  0.392576D-04  0.227958D-03  0.000000D+00 -0.135804D-01 -0.348647D+00
      9  0.000000D+00  0.000000D+00 -0.112522D-02  0.000000D+00  0.000000D+00
     10  0.247816D-03  0.192731D-03  0.000000D+00 -0.264095D+00  0.134184D+00
     11  0.503985D-04  0.788765D-03  0.000000D+00  0.141089D+00 -0.147712D+00
     12  0.000000D+00  0.000000D+00  0.411001D-03  0.000000D+00  0.000000D+00
     13 -0.641329D-02 -0.103545D-02  0.000000D+00  0.282247D-02 -0.254004D-01
     14 -0.103544D-02 -0.860407D+00  0.000000D+00 -0.306039D-02 -0.195460D-01
     15  0.000000D+00  0.000000D+00 -0.281876D-01  0.000000D+00  0.000000D+00
     16  0.163655D-02  0.875810D-05  0.000000D+00 -0.244183D+00 -0.721671D-01
     17  0.873364D-05  0.883797D-02  0.000000D+00 -0.744932D-01 -0.142789D+00
     18  0.000000D+00  0.000000D+00  0.128608D-01  0.000000D+00  0.000000D+00
     19  0.122222D-03  0.890252D-02  0.000000D+00 -0.564605D-01  0.523026D-02
     20  0.327085D-03 -0.133691D-01  0.000000D+00 -0.503401D-02  0.244669D-01
     21  0.000000D+00  0.000000D+00  0.131837D-02  0.000000D+00  0.000000D+00
     22  0.247231D-03 -0.191419D-03  0.000000D+00 -0.898650D-03  0.376109D-02
     23 -0.490835D-04  0.789354D-03  0.000000D+00  0.322517D-02 -0.192683D-02
     24  0.000000D+00  0.000000D+00  0.411001D-03  0.000000D+00  0.000000D+00
     25  0.117973D-03  0.135479D-02  0.000000D+00  0.219012D-02  0.450829D-03
     26 -0.389919D-04  0.224769D-03  0.000000D+00 -0.188267D-02  0.108460D-03
     27  0.000000D+00  0.000000D+00 -0.112522D-02  0.000000D+00  0.000000D+00
                6             7             8             9            10 
      6  0.854648D-01
      7  0.000000D+00  0.534557D-01
      8  0.000000D+00  0.167528D-01  0.361301D+00
      9 -0.280112D-01  0.000000D+00  0.000000D+00  0.116781D-01
     10  0.000000D+00  0.705308D-02 -0.369095D-02  0.000000D+00  0.276147D+00
     11  0.000000D+00  0.223652D-01 -0.646275D-02  0.000000D+00 -0.141630D+00
     12 -0.245140D-01  0.000000D+00  0.000000D+00  0.786283D-02  0.000000D+00
     13  0.000000D+00 -0.338132D-02 -0.189543D-02  0.000000D+00 -0.574093D-04
     14  0.000000D+00 -0.201241D-02 -0.997984D-03  0.000000D+00  0.369530D-03
     15  0.591262D-02  0.000000D+00  0.000000D+00  0.308495D-02  0.000000D+00
     16  0.000000D+00 -0.308555D-03  0.102101D-02  0.000000D+00 -0.178971D-01
     17  0.000000D+00 -0.276077D-01 -0.588842D-02  0.000000D+00  0.136214D-01
     18 -0.531866D-01  0.000000D+00  0.000000D+00  0.845959D-02  0.000000D+00
     19  0.000000D+00  0.219358D-02  0.187762D-02  0.000000D+00 -0.915598D-03
     20  0.000000D+00 -0.455885D-03  0.105000D-03  0.000000D+00 -0.376355D-02
     21  0.129785D-01  0.000000D+00  0.000000D+00 -0.135521D-02  0.000000D+00
     22  0.000000D+00  0.844501D-04 -0.615675D-04  0.000000D+00 -0.567105D-03
     23  0.000000D+00  0.218697D-03  0.878695D-04  0.000000D+00  0.654849D-03
     24  0.139274D-02  0.000000D+00  0.000000D+00 -0.464586D-03  0.000000D+00
     25  0.000000D+00 -0.481062D-03 -0.462323D-03  0.000000D+00  0.840691D-04
     26  0.000000D+00  0.464155D-03  0.274044D-03  0.000000D+00  0.615767D-04
     27 -0.135521D-02  0.000000D+00  0.000000D+00 -0.129172D-03  0.000000D+00
               11            12            13            14            15 
     11  0.143937D+00
     12  0.000000D+00  0.118461D-01
     13 -0.989606D-03  0.000000D+00  0.593018D-01
     14  0.775881D-03  0.000000D+00  0.148218D-02  0.128175D+01
     15  0.000000D+00 -0.167217D-02  0.000000D+00  0.000000D+00  0.662018D-01
     16 -0.167876D-01  0.000000D+00 -0.517359D-01 -0.400113D-03  0.000000D+00
     17  0.978665D-02  0.000000D+00 -0.400106D-03 -0.381730D+00  0.000000D+00
     18  0.000000D+00  0.328224D-02  0.000000D+00  0.000000D+00 -0.526650D-01
     19 -0.322762D-02  0.000000D+00  0.289136D-02  0.300599D-02  0.000000D+00
     20 -0.190989D-02  0.000000D+00  0.253460D-01 -0.196149D-01  0.000000D+00
     21  0.000000D+00  0.139274D-02  0.000000D+00  0.000000D+00  0.591262D-02
     22 -0.651758D-03  0.000000D+00 -0.559063D-04 -0.367511D-03  0.000000D+00
     23  0.707673D-03  0.000000D+00  0.991614D-03  0.774371D-03  0.000000D+00
     24  0.000000D+00  0.185584D-02  0.000000D+00  0.000000D+00 -0.167217D-02
     25 -0.218688D-03  0.000000D+00 -0.337182D-02  0.201816D-02  0.000000D+00
     26  0.882505D-04  0.000000D+00  0.190119D-02 -0.100748D-02  0.000000D+00
     27  0.000000D+00 -0.464586D-03  0.000000D+00  0.000000D+00  0.308495D-02
               16            17            18            19            20 
     16  0.574448D+00
     17  0.929406D-04  0.651101D+00
     18  0.000000D+00  0.000000D+00  0.122694D+00
     19 -0.243827D+00  0.747382D-01  0.000000D+00  0.619437D+00
     20  0.724121D-01 -0.143145D+00  0.000000D+00  0.374013D-01  0.649210D+00
     21  0.000000D+00  0.000000D+00 -0.531866D-01  0.000000D+00  0.000000D+00
     22 -0.178892D-01 -0.135543D-01  0.000000D+00 -0.264762D+00 -0.133900D+00
     23  0.168548D-01  0.977881D-02  0.000000D+00 -0.140806D+00 -0.147045D+00
     24  0.000000D+00  0.000000D+00  0.328224D-02  0.000000D+00  0.000000D+00
     25 -0.244118D-03  0.275940D-01  0.000000D+00 -0.586791D-01  0.766712D-02
     26 -0.103470D-02 -0.595286D-02  0.000000D+00  0.128772D-01 -0.348698D+00
     27  0.000000D+00  0.000000D+00  0.845959D-02  0.000000D+00  0.000000D+00
               21            22            23            24            25 
     21  0.854648D-01
     22  0.000000D+00  0.276833D+00
     23  0.000000D+00  0.141307D+00  0.143251D+00
     24 -0.245140D-01  0.000000D+00  0.000000D+00  0.118461D-01
     25  0.000000D+00  0.700771D-02 -0.223978D-01  0.000000D+00  0.533763D-01
     26  0.000000D+00  0.365829D-02 -0.641738D-02  0.000000D+00 -0.160060D-01
     27 -0.280112D-01  0.000000D+00  0.000000D+00  0.786283D-02  0.000000D+00
               26            27 
     26  0.361380D+00
     27  0.000000D+00  0.116781D-01
 Leave Link  716 at Wed Jul 20 10:30:40 2016, MaxMem=    33554432 cpu:         0.3
 (Enter /home/proyectos/fulerenos/M3C-v2.0/M3C-deps_CCC/g09-AM64L-G09RevC.01/l103.exe)

 GradGradGradGradGradGradGradGradGradGradGradGradGradGradGradGradGradGrad
 Berny optimization.
 Search for a local minimum.
 Step number   1 out of a maximum of    2
 All quantities printed in internal units (Hartrees-Bohrs-Radians)
 Second derivative matrix not updated -- analytic derivatives used.
 ITU=  0
     Eigenvalues ---    0.00268   0.00428   0.00458   0.01289   0.02383
     Eigenvalues ---    0.04802   0.07022   0.07644   0.07800   0.08253
     Eigenvalues ---    0.12562   0.14209   0.20635   0.22929   0.42663
     Eigenvalues ---    0.59506   0.87730   0.88400   0.96700   0.98438
     Eigenvalues ---    2.03315
 Angle between quadratic step and forces=  64.26 degrees.
 ClnCor:  largest displacement from symmetrization is 6.44D-12 for atom     8.
 Linear search not attempted -- first point.
 ClnCor:  largest displacement from symmetrization is 8.95D-16 for atom     4.
 B after Tr=    -0.000000   -0.000029   -0.000000
         Rot=    1.000000    0.000000   -0.000000    0.000000 Ang=   0.00 deg.
 Variable       Old X    -DE/DX   Delta X   Delta X   Delta X     New X
                                 (Linear)    (Quad)   (Total)
    X1        0.00533   0.00000   0.00000  -0.00000  -0.00000   0.00533
    Y1        4.24607   0.00001   0.00000  -0.00006  -0.00009   4.24598
    Z1        0.00000   0.00000   0.00000  -0.00000  -0.00000  -0.00000
    X2       -2.39744  -0.00001   0.00000  -0.00004  -0.00004  -2.39748
    Y2       -1.92796  -0.00001   0.00000   0.00001  -0.00002  -1.92798
    Z2       -0.00000  -0.00000   0.00000   0.00000   0.00000   0.00000
    X3       -2.51023   0.00000   0.00000  -0.00014  -0.00014  -2.51038
    Y3       -3.96792   0.00000   0.00000   0.00002  -0.00001  -3.96792
    Z3       -0.00000   0.00000   0.00000  -0.00000   0.00000   0.00000
    X4       -4.12127   0.00000   0.00000   0.00008   0.00008  -4.12119
    Y4       -0.83802   0.00001   0.00000   0.00020   0.00017  -0.83785
    Z4       -0.00000   0.00000   0.00000   0.00000   0.00000   0.00000
    X5        0.00251  -0.00000   0.00000  -0.00000  -0.00000   0.00251
    Y5        1.91963  -0.00001   0.00000  -0.00007  -0.00010   1.91953
    Z5        0.00000   0.00000   0.00000  -0.00000  -0.00000  -0.00000
    X6       -0.00067  -0.00000   0.00000  -0.00000  -0.00000  -0.00067
    Y6       -0.69967  -0.00000   0.00000  -0.00007  -0.00010  -0.69977
    Z6       -0.00000   0.00000   0.00000  -0.00000  -0.00000  -0.00000
    X7        2.39312   0.00001   0.00000   0.00004   0.00004   2.39317
    Y7       -1.93377  -0.00001   0.00000   0.00001  -0.00002  -1.93379
    Z7        0.00000  -0.00000   0.00000   0.00000  -0.00000  -0.00000
    X8        4.11959  -0.00000   0.00000  -0.00008  -0.00008   4.11951
    Y8       -0.84801   0.00001   0.00000   0.00020   0.00017  -0.84785
    Z8        0.00000  -0.00000   0.00000   0.00000  -0.00000  -0.00000
    X9        2.50097  -0.00000   0.00000   0.00014   0.00014   2.50111
    Y9       -3.97399   0.00000   0.00000   0.00002  -0.00001  -3.97400
    Z9        0.00000   0.00000   0.00000   0.00000   0.00000   0.00000
         Item               Value     Threshold  Converged?
 Maximum Force            0.000007     0.000450     YES
 RMS     Force            0.000004     0.000300     YES
 Maximum Displacement     0.000169     0.001800     YES
 RMS     Displacement     0.000072     0.001200     YES
 Predicted change in Energy=-1.595943D-09
 Optimization completed.
    -- Stationary point found.
 GradGradGradGradGradGradGradGradGradGradGradGradGradGradGradGradGradGrad

 Leave Link  103 at Wed Jul 20 10:30:40 2016, MaxMem=    33554432 cpu:         0.2
 (Enter /home/proyectos/fulerenos/M3C-v2.0/M3C-deps_CCC/g09-AM64L-G09RevC.01/l9999.exe)
 1\1\GINC-EINSTENIO\Freq\UB3LYP\6-311++G(3df,2p)\C5H4(1+,4)\ROOT\20-Jul
 -2016\0\\#p b3lyp/6-311++G(3df,2p) freq symmetry=Loose\\b3lyp opt\\1,4
 \C,0.0028210191,2.246922017,0.\C,-1.268671342,-1.020231205,0.\H,-1.328
 358817,-2.099731165,0.\H,-2.180880135,-0.443462655,0.\C,0.0013283406,1
 .015824078,0.\C,-0.0003522441,-0.370250954,0.\C,1.2663869542,-1.023304
 906,0.\H,2.1799917008,-0.4487501138,0.\H,1.3234565188,-2.1029464313,0.
 \\Version=EM64L-G09RevE.01\State=4-B2\HF=-192.4048515\S2=3.798977\S2-1
 =0.\S2A=3.750739\RMSD=2.241e-09\RMSF=3.676e-06\ZeroPoint=0.0629676\The
 rmal=0.0687933\Dipole=0.000109,0.0899356,0.\DipoleDeriv=0.09687,0.0008
 136,0.,0.0008137,0.7678351,0.,0.,0.,0.2877461,-0.3763956,0.432354,0.,-
 0.3501324,0.2812023,0.,0.,0.,-0.026263,0.0732446,0.0354324,0.,0.055715
 9,0.1156462,0.,0.,0.,0.1311667,0.1558683,-0.0048752,0.,0.0029662,0.040
 9741,0.,0.,0.,0.1426286,0.492844,-0.0010381,0.,-0.0010376,-0.3630686,0
 .,0.,0.,0.0766216,0.7052639,-0.0011951,0.,-0.0011958,-0.2808241,0.,0.,
 0.,0.1405677,-0.3765913,-0.4307589,0.,0.3517274,0.2813978,0.,0.,0.,-0.
 026263,0.1558723,0.0045966,0.,-0.0032447,0.0409701,0.,0.,0.,0.1426286,
 0.0730238,-0.0353291,0.,-0.0556126,0.115867,0.,0.,0.,0.1311667\Polar=6
 5.3012872,0.0169801,79.3074177,0.0000001,0.,30.5548126\PG=C02V [C2(C1C
 1C1),SGV(C2H4)]\NImag=0\\0.00382694,0.00105779,0.87625363,0.,0.,0.0141
 1854,0.00009976,-0.00893519,0.,0.61925540,-0.00035975,-0.01334660,0.,-
 0.03732868,0.64939112,0.,0.,0.00131837,0.,0.,0.08546484,0.00011478,-0.
 00135453,0.,-0.05873067,-0.00837028,0.,0.05345571,0.00003926,0.0002279
 6,0.,-0.01358037,-0.34864668,0.,0.01675275,0.36130097,0.,0.,-0.0011252
 2,0.,0.,-0.02801124,0.,0.,0.01167806,0.00024782,0.00019273,0.,-0.26409
 504,0.13418404,0.,0.00705308,-0.00369095,0.,0.27614725,0.00005040,0.00
 078876,0.,0.14108937,-0.14771182,0.,0.02236516,-0.00646275,0.,-0.14162
 960,0.14393723,0.,0.,0.00041100,0.,0.,-0.02451400,0.,0.,0.00786283,0.,
 0.,0.01184610,-0.00641329,-0.00103545,0.,0.00282247,-0.02540038,0.,-0.
 00338132,-0.00189543,0.,-0.00005741,-0.00098961,0.,0.05930177,-0.00103
 544,-0.86040678,0.,-0.00306039,-0.01954599,0.,-0.00201241,-0.00099798,
 0.,0.00036953,0.00077588,0.,0.00148218,1.28175269,0.,0.,-0.02818763,0.
 ,0.,0.00591262,0.,0.,0.00308495,0.,0.,-0.00167217,0.,0.,0.06620180,0.0
 0163655,0.00000876,0.,-0.24418294,-0.07216713,0.,-0.00030855,0.0010210
 1,0.,-0.01789707,-0.01678765,0.,-0.05173587,-0.00040011,0.,0.57444792,
 0.00000873,0.00883797,0.,-0.07449323,-0.14278857,0.,-0.02760767,-0.005
 88842,0.,0.01362137,0.00978665,0.,-0.00040011,-0.38172981,0.,0.0000929
 4,0.65110105,0.,0.,0.01286080,0.,0.,-0.05318660,0.,0.,0.00845959,0.,0.
 ,0.00328224,0.,0.,-0.05266499,0.,0.,0.12269372,0.00012222,0.00890252,0
 .,-0.05646046,0.00523026,0.,0.00219358,0.00187762,0.,-0.00091560,-0.00
 322762,0.,0.00289136,0.00300599,0.,-0.24382671,0.07473824,0.,0.6194366
 1,0.00032708,-0.01336905,0.,-0.00503401,0.02446693,0.,-0.00045589,0.00
 010500,0.,-0.00376355,-0.00190989,0.,0.02534599,-0.01961488,0.,0.07241
 212,-0.14314482,0.,0.03740132,0.64920990,0.,0.,0.00131837,0.,0.,0.0129
 7848,0.,0.,-0.00135521,0.,0.,0.00139274,0.,0.,0.00591262,0.,0.,-0.0531
 8660,0.,0.,0.08546484,0.00024723,-0.00019142,0.,-0.00089865,0.00376109
 ,0.,0.00008445,-0.00006157,0.,-0.00056711,-0.00065176,0.,-0.00005591,-
 0.00036751,0.,-0.01788922,-0.01355426,0.,-0.26476188,-0.13390020,0.,0.
 27683336,-0.00004908,0.00078935,0.,0.00322517,-0.00192683,0.,0.0002187
 0,0.00008787,0.,0.00065485,0.00070767,0.,0.00099161,0.00077437,0.,0.01
 685477,0.00977881,0.,-0.14080553,-0.14704498,0.,0.14130733,0.14325112,
 0.,0.,0.00041100,0.,0.,0.00139274,0.,0.,-0.00046459,0.,0.,0.00185584,0
 .,0.,-0.00167217,0.,0.,0.00328224,0.,0.,-0.02451400,0.,0.,0.01184610,0
 .00011797,0.00135479,0.,0.00219012,0.00045083,0.,-0.00048106,-0.000462
 32,0.,0.00008407,-0.00021869,0.,-0.00337182,0.00201816,0.,-0.00024412,
 0.02759398,0.,-0.05867914,0.00766712,0.,0.00700771,-0.02239782,0.,0.05
 337627,-0.00003899,0.00022477,0.,-0.00188267,0.00010846,0.,0.00046415,
 0.00027404,0.,0.00006158,0.00008825,0.,0.00190119,-0.00100748,0.,-0.00
 103470,-0.00595286,0.,0.01287721,-0.34869821,0.,0.00365829,-0.00641738
 ,0.,-0.01600605,0.36138041,0.,0.,-0.00112522,0.,0.,-0.00135521,0.,0.,-
 0.00012917,0.,0.,-0.00046459,0.,0.,0.00308495,0.,0.,0.00845959,0.,0.,-
 0.02801124,0.,0.,0.00786283,0.,0.,0.01167806\\0.,-0.00000505,0.,0.0000
 0681,0.00000584,0.,-0.00000243,-0.00000197,0.,-0.00000390,-0.00000604,
 0.,0.,0.00000708,0.,0.,0.00000232,0.,-0.00000679,0.00000586,0.,0.00000
 389,-0.00000605,0.,0.00000243,-0.00000198,0.\\\@


 O WAD SOME POWER THE GIFTIE GIE US       
 TO SEE OURSELS AS OTHERS SEE US.....     
 IT WOULD FRAE MONIE A BLUNDER FREE US,   
                     AND FOOLISH NOTION...
 WHAT AIRS IN DRESS AND GAIT WAD LEA'E US,
                     AND EV'N DEVOTION....
                                          
              (ROBERT BURNS 'TO A LOUSE') 
 Job cpu time:       0 days  1 hours 19 minutes 45.5 seconds.
 File lengths (MBytes):  RWF=     67 Int=      0 D2E=      0 Chk=      5 Scr=      1
 Normal termination of Gaussian 09 at Wed Jul 20 10:30:41 2016.
