 Entering Gaussian System, Link 0=/home/proyectos/fulerenos/M3C-v2.0/M3C-deps_CCC/g09-AM64L-G09RevC.01/g09
 Initial command:
 /home/proyectos/fulerenos/M3C-v2.0/M3C-deps_CCC/g09-AM64L-G09RevC.01/l1.exe "/scratch/naguirre/gaussian/Gau-4378.inp" -scrdir="/scratch/naguirre/gaussian/"
 Entering Link 1 = /home/proyectos/fulerenos/M3C-v2.0/M3C-deps_CCC/g09-AM64L-G09RevC.01/l1.exe PID=      4382.
  
 Copyright (c) 1988,1990,1992,1993,1995,1998,2003,2009,2015,
            Gaussian, Inc.  All Rights Reserved.
  
 This is part of the Gaussian(R) 09 program.  It is based on
 the Gaussian(R) 03 system (copyright 2003, Gaussian, Inc.),
 the Gaussian(R) 98 system (copyright 1998, Gaussian, Inc.),
 the Gaussian(R) 94 system (copyright 1995, Gaussian, Inc.),
 the Gaussian 92(TM) system (copyright 1992, Gaussian, Inc.),
 the Gaussian 90(TM) system (copyright 1990, Gaussian, Inc.),
 the Gaussian 88(TM) system (copyright 1988, Gaussian, Inc.),
 the Gaussian 86(TM) system (copyright 1986, Carnegie Mellon
 University), and the Gaussian 82(TM) system (copyright 1983,
 Carnegie Mellon University). Gaussian is a federally registered
 trademark of Gaussian, Inc.
  
 This software contains proprietary and confidential information,
 including trade secrets, belonging to Gaussian, Inc.
  
 This software is provided under written license and may be
 used, copied, transmitted, or stored only in accord with that
 written license.
  
 The following legend is applicable only to US Government
 contracts under FAR:
  
                    RESTRICTED RIGHTS LEGEND
  
 Use, reproduction and disclosure by the US Government is
 subject to restrictions as set forth in subparagraphs (a)
 and (c) of the Commercial Computer Software - Restricted
 Rights clause in FAR 52.227-19.
  
 Gaussian, Inc.
 340 Quinnipiac St., Bldg. 40, Wallingford CT 06492
  
  
 ---------------------------------------------------------------
 Warning -- This program may not be used in any manner that
 competes with the business of Gaussian, Inc. or will provide
 assistance to any competitor of Gaussian, Inc.  The licensee
 of this program is prohibited from giving any competitor of
 Gaussian, Inc. access to this program.  By using this program,
 the user acknowledges that Gaussian, Inc. is engaged in the
 business of creating and licensing software in the field of
 computational chemistry and represents and warrants to the
 licensee that it is not a competitor of Gaussian, Inc. and that
 it will not use this program in any manner prohibited above.
 ---------------------------------------------------------------
  

 Cite this work as:
 Gaussian 09, Revision E.01,
 M. J. Frisch, G. W. Trucks, H. B. Schlegel, G. E. Scuseria, 
 M. A. Robb, J. R. Cheeseman, G. Scalmani, V. Barone, B. Mennucci, 
 G. A. Petersson, H. Nakatsuji, M. Caricato, X. Li, H. P. Hratchian, 
 A. F. Izmaylov, J. Bloino, G. Zheng, J. L. Sonnenberg, M. Hada, 
 M. Ehara, K. Toyota, R. Fukuda, J. Hasegawa, M. Ishida, T. Nakajima, 
 Y. Honda, O. Kitao, H. Nakai, T. Vreven, J. A. Montgomery, Jr., 
 J. E. Peralta, F. Ogliaro, M. Bearpark, J. J. Heyd, E. Brothers, 
 K. N. Kudin, V. N. Staroverov, T. Keith, R. Kobayashi, J. Normand, 
 K. Raghavachari, A. Rendell, J. C. Burant, S. S. Iyengar, J. Tomasi, 
 M. Cossi, N. Rega, J. M. Millam, M. Klene, J. E. Knox, J. B. Cross, 
 V. Bakken, C. Adamo, J. Jaramillo, R. Gomperts, R. E. Stratmann, 
 O. Yazyev, A. J. Austin, R. Cammi, C. Pomelli, J. W. Ochterski, 
 R. L. Martin, K. Morokuma, V. G. Zakrzewski, G. A. Voth, 
 P. Salvador, J. J. Dannenberg, S. Dapprich, A. D. Daniels, 
 O. Farkas, J. B. Foresman, J. V. Ortiz, J. Cioslowski, 
 and D. J. Fox, Gaussian, Inc., Wallingford CT, 2013.
 
 ******************************************
 Gaussian 09:  EM64L-G09RevE.01 30-Nov-2015
                20-Jul-2016 
 ******************************************
 %NProcShared=1
 Will use up to    1 processors via shared memory.
 ---------------------------------------------
 #p b3lyp/6-311++G(3df,2p) freq symmetry=Loose
 ---------------------------------------------
 1/10=4,30=1,38=1/1,3;
 2/12=2,17=4,18=3,40=1/2;
 3/5=4,6=6,7=1216,11=2,16=1,25=1,30=1,71=2,74=-5,140=1/1,2,3;
 4//1;
 5/5=2,38=5,98=1/2;
 8/6=4,10=90,11=11/1;
 11/6=1,8=1,9=11,15=111,16=1/1,2,10;
 10/6=1/2;
 6/7=2,8=2,9=2,10=2,18=1,28=1/1;
 7/8=1,10=1,25=1/1,2,3,16;
 1/10=4,30=1/3;
 99//99;
 Leave Link    1 at Wed Jul 20 13:36:41 2016, MaxMem=           0 cpu:         0.1
 (Enter /home/proyectos/fulerenos/M3C-v2.0/M3C-deps_CCC/g09-AM64L-G09RevC.01/l101.exe)
 ---------
 b3lyp opt
 ---------
 Symbolic Z-matrix:
 Charge =  1 Multiplicity = 4
 C                    -1.50798   0.17965  -0.00042 
 C                     2.06577  -0.34029   0.0001 
 H                    -2.43365   0.75626  -0.00053 
 H                     2.57243  -0.59383  -0.93029 
 H                     2.57215  -0.59391   0.93062 
 C                    -1.60737  -1.18958  -0.0005 
 C                     0.92426   0.23211  -0.00005 
 C                    -0.27707   0.86488  -0.0002 
 H                    -0.29911   1.95163  -0.00016 
 
 NAtoms=      9 NQM=        9 NQMF=       0 NMMI=      0 NMMIF=      0
                NMic=       0 NMicF=      0.
                    Isotopes and Nuclear Properties:
 (Nuclear quadrupole moments (NQMom) in fm**2, nuclear magnetic moments (NMagM)
  in nuclear magnetons)

  Atom         1           2           3           4           5           6           7           8           9
 IAtWgt=          12          12           1           1           1          12          12          12           1
 AtmWgt=  12.0000000  12.0000000   1.0078250   1.0078250   1.0078250  12.0000000  12.0000000  12.0000000   1.0078250
 NucSpn=           0           0           1           1           1           0           0           0           1
 AtZEff=   0.0000000   0.0000000   0.0000000   0.0000000   0.0000000   0.0000000   0.0000000   0.0000000   0.0000000
 NQMom=    0.0000000   0.0000000   0.0000000   0.0000000   0.0000000   0.0000000   0.0000000   0.0000000   0.0000000
 NMagM=    0.0000000   0.0000000   2.7928460   2.7928460   2.7928460   0.0000000   0.0000000   0.0000000   2.7928460
 AtZNuc=   6.0000000   6.0000000   1.0000000   1.0000000   1.0000000   6.0000000   6.0000000   6.0000000   1.0000000
 Leave Link  101 at Wed Jul 20 13:36:41 2016, MaxMem=    33554432 cpu:         0.4
 (Enter /home/proyectos/fulerenos/M3C-v2.0/M3C-deps_CCC/g09-AM64L-G09RevC.01/l103.exe)

 GradGradGradGradGradGradGradGradGradGradGradGradGradGradGradGradGradGrad
 Berny optimization.
 Initialization pass.
 Trust Radius=3.00D-01 FncErr=1.00D-07 GrdErr=1.00D-07
 Number of steps in this run=      2 maximum allowed number of steps=      2.
 GradGradGradGradGradGradGradGradGradGradGradGradGradGradGradGradGradGrad

 Leave Link  103 at Wed Jul 20 13:36:41 2016, MaxMem=    33554432 cpu:         0.1
 (Enter /home/proyectos/fulerenos/M3C-v2.0/M3C-deps_CCC/g09-AM64L-G09RevC.01/l202.exe)
                          Input orientation:                          
 ---------------------------------------------------------------------
 Center     Atomic      Atomic             Coordinates (Angstroms)
 Number     Number       Type             X           Y           Z
 ---------------------------------------------------------------------
      1          6           0       -1.507981    0.179649   -0.000420
      2          6           0        2.065774   -0.340291    0.000098
      3          1           0       -2.433651    0.756264   -0.000535
      4          1           0        2.572429   -0.593828   -0.930291
      5          1           0        2.572146   -0.593912    0.930619
      6          6           0       -1.607369   -1.189580   -0.000498
      7          6           0        0.924264    0.232109   -0.000049
      8          6           0       -0.277074    0.864879   -0.000202
      9          1           0       -0.299109    1.951631   -0.000156
 ---------------------------------------------------------------------
                    Distance matrix (angstroms):
                    1          2          3          4          5
     1  C    0.000000
     2  C    3.611380   0.000000
     3  H    1.090573   4.631118   0.000000
     4  H    4.255898   1.089314   5.267640   0.000000
     5  H    4.255898   1.089314   5.267640   1.860910   0.000000
     6  C    1.372831   3.770049   2.114013   4.323210   4.323210
     7  C    2.432811   1.276984   3.398578   2.064938   2.064938
     8  C    1.408784   2.634648   2.159310   3.333550   3.333550
     9  H    2.145062   3.293263   2.446461   3.948448   3.948448
                    6          7          8          9
     6  C    0.000000
     7  C    2.903509   0.000000
     8  C    2.447547   1.357796   0.000000
     9  H    3.402756   2.110307   1.086975   0.000000
 Stoichiometry    C5H4(1+,4)
 Framework group  C1[X(C5H4)]
 Deg. of freedom    21
 Full point group                 C1      NOp   1
 Largest Abelian subgroup         C1      NOp   1
 Largest concise Abelian subgroup C1      NOp   1
                         Standard orientation:                         
 ---------------------------------------------------------------------
 Center     Atomic      Atomic             Coordinates (Angstroms)
 Number     Number       Type             X           Y           Z
 ---------------------------------------------------------------------
      1          6           0       -1.507910    0.179608   -0.000221
      2          6           0        2.065852   -0.340288    0.000298
      3          1           0       -2.433587    0.756212   -0.000335
      4          1           0        2.572510   -0.593818   -0.930092
      5          1           0        2.572227   -0.593903    0.930818
      6          6           0       -1.607281   -1.189622   -0.000298
      7          6           0        0.924335    0.232098    0.000151
      8          6           0       -0.277011    0.864854   -0.000003
      9          1           0       -0.299059    1.951605    0.000043
 ---------------------------------------------------------------------
 Rotational constants (GHZ):     14.4619753      3.5591225      2.9136756
 Leave Link  202 at Wed Jul 20 13:36:42 2016, MaxMem=    33554432 cpu:         0.0
 (Enter /home/proyectos/fulerenos/M3C-v2.0/M3C-deps_CCC/g09-AM64L-G09RevC.01/l301.exe)
 Standard basis: 6-311++G(3df,2p) (5D, 7F)
 Ernie: Thresh=  0.10000D-02 Tol=  0.10000D-05 Strict=F.
 There are   265 symmetry adapted cartesian basis functions of A   symmetry.
 There are   235 symmetry adapted basis functions of A   symmetry.
   235 basis functions,   338 primitive gaussians,   265 cartesian basis functions
    18 alpha electrons       15 beta electrons
       nuclear repulsion energy       126.1286150822 Hartrees.
 IExCor=  402 DFT=T Ex+Corr=B3LYP ExCW=0 ScaHFX=  0.200000
 ScaDFX=  0.800000  0.720000  1.000000  0.810000 ScalE2=  1.000000  1.000000
 IRadAn=      0 IRanWt=     -1 IRanGd=            0 ICorTp=0 IEmpDi=  4
 NAtoms=    9 NActive=    9 NUniq=    9 SFac= 1.00D+00 NAtFMM=   60 NAOKFM=F Big=F
 Integral buffers will be    131072 words long.
 Raffenetti 2 integral format.
 Two-electron integral symmetry is turned on.
 Leave Link  301 at Wed Jul 20 13:36:43 2016, MaxMem=    33554432 cpu:         0.3
 (Enter /home/proyectos/fulerenos/M3C-v2.0/M3C-deps_CCC/g09-AM64L-G09RevC.01/l302.exe)
 NPDir=0 NMtPBC=     1 NCelOv=     1 NCel=       1 NClECP=     1 NCelD=      1
         NCelK=      1 NCelE2=     1 NClLst=     1 CellRange=     0.0.
 One-electron integrals computed using PRISM.
 NBasis=   235 RedAO= T EigKep=  1.34D-06  NBF=   235
 NBsUse=   235 1.00D-06 EigRej= -1.00D+00 NBFU=   235
 Precomputing XC quadrature grid using
 IXCGrd= 4 IRadAn=           0 IRanWt=          -1 IRanGd=           0 AccXCQ= 0.00D+00.
 Generated NRdTot=       0 NPtTot=           0 NUsed=           0 NTot=          32
 NSgBfM=   265   265   265   265   265 MxSgAt=     9 MxSgA2=     9.
 Leave Link  302 at Wed Jul 20 13:36:44 2016, MaxMem=    33554432 cpu:         0.8
 (Enter /home/proyectos/fulerenos/M3C-v2.0/M3C-deps_CCC/g09-AM64L-G09RevC.01/l303.exe)
 DipDrv:  MaxL=1.
 Leave Link  303 at Wed Jul 20 13:36:45 2016, MaxMem=    33554432 cpu:         0.2
 (Enter /home/proyectos/fulerenos/M3C-v2.0/M3C-deps_CCC/g09-AM64L-G09RevC.01/l401.exe)
 ExpMin= 3.60D-02 ExpMax= 4.56D+03 ExpMxC= 6.82D+02 IAcc=3 IRadAn=         5 AccDes= 0.00D+00
 Harris functional with IExCor=  402 and IRadAn=       5 diagonalized for initial guess.
 HarFok:  IExCor=  402 AccDes= 0.00D+00 IRadAn=         5 IDoV= 1 UseB2=F ITyADJ=14
 ICtDFT=  3500011 ScaDFX=  1.000000  1.000000  1.000000  1.000000
 FoFCou: FMM=F IPFlag=           0 FMFlag=      100000 FMFlg1=           0
         NFxFlg=           0 DoJE=T BraDBF=F KetDBF=T FulRan=T
         wScrn=  0.000000 ICntrl=     500 IOpCl=  0 I1Cent=   200000004 NGrid=           0
         NMat0=    1 NMatS0=      1 NMatT0=    0 NMatD0=    1 NMtDS0=    0 NMtDT0=    0
 Petite list used in FoFCou.
 Harris En= -192.400771039223    
 JPrj=0 DoOrth=F DoCkMO=F.
 Initial guess <Sx>= 0.0000 <Sy>= 0.0000 <Sz>= 1.5000 <S**2>= 3.7500 S= 1.5000
 Leave Link  401 at Wed Jul 20 13:37:02 2016, MaxMem=    33554432 cpu:        15.0
 (Enter /home/proyectos/fulerenos/M3C-v2.0/M3C-deps_CCC/g09-AM64L-G09RevC.01/l502.exe)
 UHF open shell SCF:
 Using DIIS extrapolation, IDIIS=  1040.
 Integral symmetry usage will be decided dynamically.
 IVT=      232727 IEndB=      232727 NGot=    33554432 MDV=    33408836
 LenX=    33408836 LenY=    33338170
 Requested convergence on RMS density matrix=1.00D-08 within 128 cycles.
 Requested convergence on MAX density matrix=1.00D-06.
 Requested convergence on             energy=1.00D-06.
 No special actions if energy rises.
 Fock matrices will be formed incrementally for  20 cycles.

 Cycle   1  Pass 1  IDiag  1:
 FoFJK:  IHMeth= 1 ICntrl=       0 DoSepK=F KAlg= 0 I1Cent=   0 FoldK=F
 IRaf= 980000000 NMat=   1 IRICut=       1 DoRegI=T DoRafI=F ISym2E= 0.
 FoFCou: FMM=F IPFlag=           0 FMFlag=      100000 FMFlg1=           0
         NFxFlg=           0 DoJE=F BraDBF=F KetDBF=F FulRan=T
         wScrn=  0.000000 ICntrl=       0 IOpCl=  1 I1Cent=           0 NGrid=           0
         NMat0=    1 NMatS0=      1 NMatT0=    0 NMatD0=    1 NMtDS0=    0 NMtDT0=    0
 Symmetry not used in FoFCou.
 E= -192.299246520467    
 DIIS: error= 2.34D-02 at cycle   1 NSaved=   1.
 NSaved= 1 IEnMin= 1 EnMin= -192.299246520467     IErMin= 1 ErrMin= 2.34D-02
 ErrMax= 2.34D-02  0.00D+00 EMaxC= 1.00D-01 BMatC= 4.36D-01 BMatP= 4.36D-01
 IDIUse=3 WtCom= 7.66D-01 WtEn= 2.34D-01
 Coeff-Com:  0.100D+01
 Coeff-En:   0.100D+01
 Coeff:      0.100D+01
 Gap=     0.233 Goal=   None    Shift=    0.000
 Gap=    -0.059 Goal=   None    Shift=    0.000
 GapD=   -0.059 DampG=0.250 DampE=0.500 DampFc=0.2500 IDamp=-1.
 Damping current iteration by 2.50D-01
 RMSDP=1.09D-02 MaxDP=1.01D+00              OVMax= 8.74D-01

 Cycle   2  Pass 1  IDiag  1:
 RMSU=  2.66D-03    CP:  1.02D+00
 E= -192.318759222177     Delta-E=       -0.019512701711 Rises=F Damp=T
 DIIS: error= 8.05D-03 at cycle   2 NSaved=   2.
 NSaved= 2 IEnMin= 2 EnMin= -192.318759222177     IErMin= 2 ErrMin= 8.05D-03
 ErrMax= 8.05D-03  0.00D+00 EMaxC= 1.00D-01 BMatC= 1.02D-01 BMatP= 4.36D-01
 IDIUse=3 WtCom= 9.20D-01 WtEn= 8.05D-02
 Coeff-Com: -0.276D+00 0.128D+01
 Coeff-En:   0.315D+00 0.685D+00
 Coeff:     -0.229D+00 0.123D+01
 Gap=     0.267 Goal=   None    Shift=    0.000
 Gap=    -0.111 Goal=   None    Shift=    0.000
 RMSDP=5.08D-03 MaxDP=2.98D-01 DE=-1.95D-02 OVMax= 9.29D-01

 Cycle   3  Pass 1  IDiag  1:
 RMSU=  4.24D-03    CP:  1.11D+00  4.29D-01
 E= -192.314944875510     Delta-E=        0.003814346668 Rises=F Damp=F
 DIIS: error= 2.99D-02 at cycle   3 NSaved=   3.
 NSaved= 3 IEnMin= 2 EnMin= -192.318759222177     IErMin= 2 ErrMin= 8.05D-03
 ErrMax= 2.99D-02  0.00D+00 EMaxC= 1.00D-01 BMatC= 2.44D-01 BMatP= 1.02D-01
 IDIUse=2 WtCom= 0.00D+00 WtEn= 1.00D+00
 Coeff-En:   0.000D+00 0.518D+00 0.482D+00
 Coeff:      0.000D+00 0.518D+00 0.482D+00
 Gap=     0.209 Goal=   None    Shift=    0.000
 Gap=     0.088 Goal=   None    Shift=    0.000
 RMSDP=6.91D-03 MaxDP=5.75D-01 DE= 3.81D-03 OVMax= 6.53D-01

 Cycle   4  Pass 1  IDiag  1:
 RMSU=  2.03D-03    CP:  1.08D+00  2.51D+00  1.70D-01
 E= -192.230253358919     Delta-E=        0.084691516590 Rises=F Damp=F
 DIIS: error= 3.68D-02 at cycle   4 NSaved=   4.
 NSaved= 4 IEnMin= 2 EnMin= -192.318759222177     IErMin= 2 ErrMin= 8.05D-03
 ErrMax= 3.68D-02  0.00D+00 EMaxC= 1.00D-01 BMatC= 4.63D-01 BMatP= 1.02D-01
 IDIUse=2 WtCom= 0.00D+00 WtEn= 1.00D+00
 Coeff-En:   0.000D+00 0.000D+00 0.615D+00 0.385D+00
 Coeff:      0.000D+00 0.000D+00 0.615D+00 0.385D+00
 Gap=     0.182 Goal=   None    Shift=    0.000
 Gap=     0.031 Goal=   None    Shift=    0.000
 RMSDP=5.02D-03 MaxDP=5.30D-01 DE= 8.47D-02 OVMax= 5.64D-01

 Cycle   5  Pass 1  IDiag  1:
 RMSU=  1.88D-03    CP:  1.07D+00  9.24D-01  6.02D-01  7.34D-01
 E= -192.397748519979     Delta-E=       -0.167495161060 Rises=F Damp=F
 DIIS: error= 9.73D-03 at cycle   5 NSaved=   5.
 NSaved= 5 IEnMin= 5 EnMin= -192.397748519979     IErMin= 2 ErrMin= 8.05D-03
 ErrMax= 9.73D-03  0.00D+00 EMaxC= 1.00D-01 BMatC= 4.10D-02 BMatP= 1.02D-01
 IDIUse=3 WtCom= 9.03D-01 WtEn= 9.73D-02
 Coeff-Com: -0.443D+00 0.629D+00 0.229D+00-0.980D-01 0.683D+00
 Coeff-En:   0.000D+00 0.000D+00 0.000D+00 0.000D+00 0.100D+01
 Coeff:     -0.400D+00 0.568D+00 0.206D+00-0.884D-01 0.714D+00
 Gap=     0.153 Goal=   None    Shift=    0.000
 Gap=     0.097 Goal=   None    Shift=    0.000
 RMSDP=1.15D-03 MaxDP=9.79D-02 DE=-1.67D-01 OVMax= 7.85D-02

 Cycle   6  Pass 1  IDiag  1:
 RMSU=  7.08D-04    CP:  1.08D+00  9.85D-01  7.08D-01  5.59D-01  1.30D+00
 E= -192.406140462426     Delta-E=       -0.008391942447 Rises=F Damp=F
 DIIS: error= 5.55D-03 at cycle   6 NSaved=   6.
 NSaved= 6 IEnMin= 6 EnMin= -192.406140462426     IErMin= 6 ErrMin= 5.55D-03
 ErrMax= 5.55D-03  0.00D+00 EMaxC= 1.00D-01 BMatC= 8.60D-03 BMatP= 4.10D-02
 IDIUse=3 WtCom= 9.44D-01 WtEn= 5.55D-02
 Coeff-Com: -0.280D+00 0.375D+00 0.726D-01-0.668D-01 0.460D+00 0.439D+00
 Coeff-En:   0.000D+00 0.000D+00 0.000D+00 0.000D+00 0.882D-01 0.912D+00
 Coeff:     -0.264D+00 0.354D+00 0.686D-01-0.630D-01 0.439D+00 0.465D+00
 Gap=     0.158 Goal=   None    Shift=    0.000
 Gap=     0.106 Goal=   None    Shift=    0.000
 RMSDP=4.57D-04 MaxDP=3.50D-02 DE=-8.39D-03 OVMax= 2.36D-02

 Cycle   7  Pass 1  IDiag  1:
 RMSU=  2.62D-04    CP:  1.08D+00  1.01D+00  6.85D-01  5.95D-01  1.48D+00
                    CP:  9.62D-01
 E= -192.408703131453     Delta-E=       -0.002562669027 Rises=F Damp=F
 DIIS: error= 2.05D-03 at cycle   7 NSaved=   7.
 NSaved= 7 IEnMin= 7 EnMin= -192.408703131453     IErMin= 7 ErrMin= 2.05D-03
 ErrMax= 2.05D-03  0.00D+00 EMaxC= 1.00D-01 BMatC= 1.18D-03 BMatP= 8.60D-03
 IDIUse=3 WtCom= 9.80D-01 WtEn= 2.05D-02
 Coeff-Com:  0.925D-02-0.107D-01-0.758D-01 0.982D-02-0.788D-01 0.191D+00
 Coeff-Com:  0.955D+00
 Coeff-En:   0.000D+00 0.000D+00 0.000D+00 0.000D+00 0.000D+00 0.000D+00
 Coeff-En:   0.100D+01
 Coeff:      0.906D-02-0.105D-01-0.743D-01 0.962D-02-0.772D-01 0.187D+00
 Coeff:      0.956D+00
 Gap=     0.162 Goal=   None    Shift=    0.000
 Gap=     0.115 Goal=   None    Shift=    0.000
 RMSDP=4.27D-04 MaxDP=3.69D-02 DE=-2.56D-03 OVMax= 2.97D-02

 Cycle   8  Pass 1  IDiag  1:
 RMSU=  1.33D-04    CP:  1.08D+00  1.06D+00  6.89D-01  6.05D-01  1.65D+00
                    CP:  1.20D+00  1.20D+00
 E= -192.409492525828     Delta-E=       -0.000789394375 Rises=F Damp=F
 DIIS: error= 4.19D-04 at cycle   8 NSaved=   8.
 NSaved= 8 IEnMin= 8 EnMin= -192.409492525828     IErMin= 8 ErrMin= 4.19D-04
 ErrMax= 4.19D-04  0.00D+00 EMaxC= 1.00D-01 BMatC= 6.47D-05 BMatP= 1.18D-03
 IDIUse=3 WtCom= 9.96D-01 WtEn= 4.19D-03
 Coeff-Com:  0.181D-02 0.278D-02 0.186D-01-0.623D-02-0.212D-01-0.120D+00
 Coeff-Com: -0.118D+00 0.124D+01
 Coeff-En:   0.000D+00 0.000D+00 0.000D+00 0.000D+00 0.000D+00 0.000D+00
 Coeff-En:   0.000D+00 0.100D+01
 Coeff:      0.180D-02 0.277D-02 0.186D-01-0.620D-02-0.211D-01-0.120D+00
 Coeff:     -0.118D+00 0.124D+01
 Gap=     0.162 Goal=   None    Shift=    0.000
 Gap=     0.120 Goal=   None    Shift=    0.000
 RMSDP=1.10D-04 MaxDP=7.25D-03 DE=-7.89D-04 OVMax= 1.30D-02

 Cycle   9  Pass 1  IDiag  1:
 RMSU=  5.40D-05    CP:  1.08D+00  1.05D+00  6.98D-01  5.90D-01  1.69D+00
                    CP:  1.23D+00  1.30D+00  1.21D+00
 E= -192.409573591992     Delta-E=       -0.000081066164 Rises=F Damp=F
 DIIS: error= 2.58D-04 at cycle   9 NSaved=   9.
 NSaved= 9 IEnMin= 9 EnMin= -192.409573591992     IErMin= 9 ErrMin= 2.58D-04
 ErrMax= 2.58D-04  0.00D+00 EMaxC= 1.00D-01 BMatC= 3.17D-05 BMatP= 6.47D-05
 IDIUse=3 WtCom= 9.97D-01 WtEn= 2.58D-03
 Coeff-Com:  0.512D-02-0.609D-02 0.156D-01-0.300D-02-0.774D-02-0.666D-01
 Coeff-Com: -0.128D+00 0.503D+00 0.687D+00
 Coeff-En:   0.000D+00 0.000D+00 0.000D+00 0.000D+00 0.000D+00 0.000D+00
 Coeff-En:   0.000D+00 0.000D+00 0.100D+01
 Coeff:      0.510D-02-0.607D-02 0.155D-01-0.300D-02-0.772D-02-0.664D-01
 Coeff:     -0.127D+00 0.502D+00 0.688D+00
 Gap=     0.161 Goal=   None    Shift=    0.000
 Gap=     0.121 Goal=   None    Shift=    0.000
 RMSDP=4.75D-05 MaxDP=4.62D-03 DE=-8.11D-05 OVMax= 3.00D-03

 Cycle  10  Pass 1  IDiag  1:
 RMSU=  2.07D-05    CP:  1.08D+00  1.05D+00  7.04D-01  5.85D-01  1.70D+00
                    CP:  1.24D+00  1.33D+00  1.34D+00  1.07D+00
 E= -192.409584607206     Delta-E=       -0.000011015215 Rises=F Damp=F
 DIIS: error= 1.72D-04 at cycle  10 NSaved=  10.
 NSaved=10 IEnMin=10 EnMin= -192.409584607206     IErMin=10 ErrMin= 1.72D-04
 ErrMax= 1.72D-04  0.00D+00 EMaxC= 1.00D-01 BMatC= 1.47D-05 BMatP= 3.17D-05
 IDIUse=3 WtCom= 9.98D-01 WtEn= 1.72D-03
 Coeff-Com:  0.630D-02-0.102D-01 0.146D-02 0.174D-02-0.119D-02 0.190D-01
 Coeff-Com:  0.540D-02-0.256D+00 0.354D+00 0.880D+00
 Coeff-En:   0.000D+00 0.000D+00 0.000D+00 0.000D+00 0.000D+00 0.000D+00
 Coeff-En:   0.000D+00 0.000D+00 0.000D+00 0.100D+01
 Coeff:      0.628D-02-0.102D-01 0.146D-02 0.174D-02-0.119D-02 0.190D-01
 Coeff:      0.539D-02-0.255D+00 0.353D+00 0.880D+00
 Gap=     0.161 Goal=   None    Shift=    0.000
 Gap=     0.122 Goal=   None    Shift=    0.000
 RMSDP=2.49D-05 MaxDP=1.73D-03 DE=-1.10D-05 OVMax= 1.58D-03

 Cycle  11  Pass 1  IDiag  1:
 RMSU=  9.25D-06    CP:  1.08D+00  1.05D+00  7.06D-01  5.82D-01  1.69D+00
                    CP:  1.24D+00  1.33D+00  1.36D+00  1.32D+00  1.15D+00
 E= -192.409589522309     Delta-E=       -0.000004915102 Rises=F Damp=F
 DIIS: error= 8.56D-05 at cycle  11 NSaved=  11.
 NSaved=11 IEnMin=11 EnMin= -192.409589522309     IErMin=11 ErrMin= 8.56D-05
 ErrMax= 8.56D-05  0.00D+00 EMaxC= 1.00D-01 BMatC= 1.93D-06 BMatP= 1.47D-05
 IDIUse=1 WtCom= 1.00D+00 WtEn= 0.00D+00
 Coeff-Com:  0.788D-03-0.114D-02-0.160D-02 0.357D-03 0.665D-03 0.185D-01
 Coeff-Com:  0.331D-01-0.139D+00-0.607D-02 0.168D+00 0.926D+00
 Coeff:      0.788D-03-0.114D-02-0.160D-02 0.357D-03 0.665D-03 0.185D-01
 Coeff:      0.331D-01-0.139D+00-0.607D-02 0.168D+00 0.926D+00
 Gap=     0.161 Goal=   None    Shift=    0.000
 Gap=     0.122 Goal=   None    Shift=    0.000
 RMSDP=1.46D-05 MaxDP=1.03D-03 DE=-4.92D-06 OVMax= 6.93D-04

 Cycle  12  Pass 1  IDiag  1:
 RMSU=  3.17D-06    CP:  1.08D+00  1.04D+00  7.06D-01  5.81D-01  1.69D+00
                    CP:  1.23D+00  1.32D+00  1.35D+00  1.38D+00  1.22D+00
                    CP:  1.16D+00
 E= -192.409590278201     Delta-E=       -0.000000755892 Rises=F Damp=F
 DIIS: error= 7.46D-06 at cycle  12 NSaved=  12.
 NSaved=12 IEnMin=12 EnMin= -192.409590278201     IErMin=12 ErrMin= 7.46D-06
 ErrMax= 7.46D-06  0.00D+00 EMaxC= 1.00D-01 BMatC= 4.22D-08 BMatP= 1.93D-06
 IDIUse=1 WtCom= 1.00D+00 WtEn= 0.00D+00
 Coeff-Com:  0.714D-04-0.193D-03-0.387D-03 0.998D-04 0.388D-03 0.200D-02
 Coeff-Com:  0.457D-02-0.756D-02-0.121D-01-0.280D-01 0.172D+00 0.869D+00
 Coeff:      0.714D-04-0.193D-03-0.387D-03 0.998D-04 0.388D-03 0.200D-02
 Coeff:      0.457D-02-0.756D-02-0.121D-01-0.280D-01 0.172D+00 0.869D+00
 Gap=     0.161 Goal=   None    Shift=    0.000
 Gap=     0.122 Goal=   None    Shift=    0.000
 RMSDP=1.87D-06 MaxDP=1.30D-04 DE=-7.56D-07 OVMax= 1.15D-04

 Cycle  13  Pass 1  IDiag  1:
 RMSU=  1.23D-06    CP:  1.08D+00  1.04D+00  7.06D-01  5.82D-01  1.69D+00
                    CP:  1.23D+00  1.32D+00  1.35D+00  1.38D+00  1.23D+00
                    CP:  1.22D+00  1.02D+00
 E= -192.409590298084     Delta-E=       -0.000000019883 Rises=F Damp=F
 DIIS: error= 3.05D-06 at cycle  13 NSaved=  13.
 NSaved=13 IEnMin=13 EnMin= -192.409590298084     IErMin=13 ErrMin= 3.05D-06
 ErrMax= 3.05D-06  0.00D+00 EMaxC= 1.00D-01 BMatC= 6.28D-09 BMatP= 4.22D-08
 IDIUse=1 WtCom= 1.00D+00 WtEn= 0.00D+00
 Coeff-Com: -0.238D-03 0.354D-03 0.156D-03-0.843D-04 0.948D-04-0.234D-02
 Coeff-Com: -0.425D-02 0.195D-01-0.356D-03-0.375D-01-0.998D-01 0.236D+00
 Coeff-Com:  0.889D+00
 Coeff:     -0.238D-03 0.354D-03 0.156D-03-0.843D-04 0.948D-04-0.234D-02
 Coeff:     -0.425D-02 0.195D-01-0.356D-03-0.375D-01-0.998D-01 0.236D+00
 Coeff:      0.889D+00
 Gap=     0.161 Goal=   None    Shift=    0.000
 Gap=     0.122 Goal=   None    Shift=    0.000
 RMSDP=8.68D-07 MaxDP=6.43D-05 DE=-1.99D-08 OVMax= 6.96D-05

 Cycle  14  Pass 1  IDiag  1:
 RMSU=  4.82D-07    CP:  1.08D+00  1.04D+00  7.06D-01  5.82D-01  1.69D+00
                    CP:  1.23D+00  1.32D+00  1.35D+00  1.38D+00  1.23D+00
                    CP:  1.24D+00  1.12D+00  1.20D+00
 E= -192.409590303430     Delta-E=       -0.000000005346 Rises=F Damp=F
 DIIS: error= 1.62D-06 at cycle  14 NSaved=  14.
 NSaved=14 IEnMin=14 EnMin= -192.409590303430     IErMin=14 ErrMin= 1.62D-06
 ErrMax= 1.62D-06  0.00D+00 EMaxC= 1.00D-01 BMatC= 1.63D-09 BMatP= 6.28D-09
 IDIUse=1 WtCom= 1.00D+00 WtEn= 0.00D+00
 Coeff-Com:  0.498D-05 0.318D-05 0.685D-04-0.327D-05-0.670D-04-0.253D-03
 Coeff-Com: -0.112D-02-0.641D-04 0.304D-02 0.832D-02-0.203D-01-0.189D+00
 Coeff-Com: -0.876D-01 0.129D+01
 Coeff:      0.498D-05 0.318D-05 0.685D-04-0.327D-05-0.670D-04-0.253D-03
 Coeff:     -0.112D-02-0.641D-04 0.304D-02 0.832D-02-0.203D-01-0.189D+00
 Coeff:     -0.876D-01 0.129D+01
 Gap=     0.161 Goal=   None    Shift=    0.000
 Gap=     0.122 Goal=   None    Shift=    0.000
 RMSDP=5.27D-07 MaxDP=1.88D-05 DE=-5.35D-09 OVMax= 5.85D-05

 Cycle  15  Pass 1  IDiag  1:
 RMSU=  2.61D-07    CP:  1.08D+00  1.04D+00  7.06D-01  5.82D-01  1.69D+00
                    CP:  1.23D+00  1.32D+00  1.35D+00  1.38D+00  1.23D+00
                    CP:  1.25D+00  1.14D+00  1.45D+00  1.51D+00
 E= -192.409590305614     Delta-E=       -0.000000002184 Rises=F Damp=F
 DIIS: error= 6.12D-07 at cycle  15 NSaved=  15.
 NSaved=15 IEnMin=15 EnMin= -192.409590305614     IErMin=15 ErrMin= 6.12D-07
 ErrMax= 6.12D-07  0.00D+00 EMaxC= 1.00D-01 BMatC= 1.90D-10 BMatP= 1.63D-09
 IDIUse=1 WtCom= 1.00D+00 WtEn= 0.00D+00
 Coeff-Com:  0.363D-07-0.475D-05 0.124D-05 0.417D-05 0.589D-04 0.306D-03
 Coeff-Com:  0.668D-03-0.253D-02-0.591D-03 0.439D-02 0.147D-01-0.269D-01
 Coeff-Com: -0.155D+00-0.107D+00 0.127D+01
 Coeff:      0.363D-07-0.475D-05 0.124D-05 0.417D-05 0.589D-04 0.306D-03
 Coeff:      0.668D-03-0.253D-02-0.591D-03 0.439D-02 0.147D-01-0.269D-01
 Coeff:     -0.155D+00-0.107D+00 0.127D+01
 Gap=     0.161 Goal=   None    Shift=    0.000
 Gap=     0.122 Goal=   None    Shift=    0.000
 RMSDP=3.23D-07 MaxDP=2.35D-05 DE=-2.18D-09 OVMax= 2.99D-05

 Cycle  16  Pass 1  IDiag  1:
 RMSU=  8.02D-08    CP:  1.08D+00  1.04D+00  7.06D-01  5.82D-01  1.69D+00
                    CP:  1.23D+00  1.32D+00  1.35D+00  1.38D+00  1.23D+00
                    CP:  1.25D+00  1.14D+00  1.54D+00  1.80D+00  1.50D+00
 E= -192.409590305966     Delta-E=       -0.000000000352 Rises=F Damp=F
 DIIS: error= 1.95D-07 at cycle  16 NSaved=  16.
 NSaved=16 IEnMin=16 EnMin= -192.409590305966     IErMin=16 ErrMin= 1.95D-07
 ErrMax= 1.95D-07  0.00D+00 EMaxC= 1.00D-01 BMatC= 2.15D-11 BMatP= 1.90D-10
 IDIUse=1 WtCom= 1.00D+00 WtEn= 0.00D+00
 Coeff-Com: -0.750D-05 0.107D-04-0.737D-05-0.112D-05 0.184D-04 0.941D-04
 Coeff-Com:  0.247D-03-0.440D-03-0.534D-03-0.121D-03 0.518D-02 0.201D-01
 Coeff-Com: -0.185D-01-0.180D+00 0.201D+00 0.973D+00
 Coeff:     -0.750D-05 0.107D-04-0.737D-05-0.112D-05 0.184D-04 0.941D-04
 Coeff:      0.247D-03-0.440D-03-0.534D-03-0.121D-03 0.518D-02 0.201D-01
 Coeff:     -0.185D-01-0.180D+00 0.201D+00 0.973D+00
 Gap=     0.161 Goal=   None    Shift=    0.000
 Gap=     0.122 Goal=   None    Shift=    0.000
 RMSDP=6.47D-08 MaxDP=3.27D-06 DE=-3.52D-10 OVMax= 6.83D-06

 Cycle  17  Pass 1  IDiag  1:
 RMSU=  2.18D-08    CP:  1.08D+00  1.04D+00  7.06D-01  5.82D-01  1.69D+00
                    CP:  1.23D+00  1.32D+00  1.35D+00  1.38D+00  1.23D+00
                    CP:  1.25D+00  1.14D+00  1.55D+00  1.87D+00  1.64D+00
                    CP:  1.14D+00
 E= -192.409590305990     Delta-E=       -0.000000000024 Rises=F Damp=F
 DIIS: error= 1.32D-07 at cycle  17 NSaved=  17.
 NSaved=17 IEnMin=17 EnMin= -192.409590305990     IErMin=17 ErrMin= 1.32D-07
 ErrMax= 1.32D-07  0.00D+00 EMaxC= 1.00D-01 BMatC= 4.59D-12 BMatP= 2.15D-11
 IDIUse=1 WtCom= 1.00D+00 WtEn= 0.00D+00
 Coeff-Com: -0.289D-05 0.402D-05 0.601D-07-0.810D-06-0.368D-05-0.294D-04
 Coeff-Com: -0.658D-04 0.212D-03 0.559D-05-0.394D-03-0.798D-03 0.434D-02
 Coeff-Com:  0.109D-01-0.440D-02-0.886D-01 0.486D-01 0.103D+01
 Coeff:     -0.289D-05 0.402D-05 0.601D-07-0.810D-06-0.368D-05-0.294D-04
 Coeff:     -0.658D-04 0.212D-03 0.559D-05-0.394D-03-0.798D-03 0.434D-02
 Coeff:      0.109D-01-0.440D-02-0.886D-01 0.486D-01 0.103D+01
 Gap=     0.161 Goal=   None    Shift=    0.000
 Gap=     0.122 Goal=   None    Shift=    0.000
 RMSDP=2.66D-08 MaxDP=2.50D-06 DE=-2.39D-11 OVMax= 1.60D-06

 Cycle  18  Pass 1  IDiag  1:
 RMSU=  7.44D-09    CP:  1.08D+00  1.04D+00  7.06D-01  5.82D-01  1.69D+00
                    CP:  1.23D+00  1.32D+00  1.35D+00  1.38D+00  1.23D+00
                    CP:  1.25D+00  1.14D+00  1.55D+00  1.88D+00  1.66D+00
                    CP:  1.22D+00  1.17D+00
 E= -192.409590305992     Delta-E=       -0.000000000002 Rises=F Damp=F
 DIIS: error= 1.71D-08 at cycle  18 NSaved=  18.
 NSaved=18 IEnMin=18 EnMin= -192.409590305992     IErMin=18 ErrMin= 1.71D-08
 ErrMax= 1.71D-08  0.00D+00 EMaxC= 1.00D-01 BMatC= 1.77D-13 BMatP= 4.59D-12
 IDIUse=1 WtCom= 1.00D+00 WtEn= 0.00D+00
 Coeff-Com: -0.966D-06 0.145D-05 0.112D-05-0.290D-06-0.586D-06-0.117D-04
 Coeff-Com: -0.228D-04 0.586D-04 0.188D-04-0.269D-04-0.516D-03-0.979D-03
 Coeff-Com:  0.132D-02 0.142D-01-0.155D-01-0.892D-01-0.550D-02 0.110D+01
 Coeff:     -0.966D-06 0.145D-05 0.112D-05-0.290D-06-0.586D-06-0.117D-04
 Coeff:     -0.228D-04 0.586D-04 0.188D-04-0.269D-04-0.516D-03-0.979D-03
 Coeff:      0.132D-02 0.142D-01-0.155D-01-0.892D-01-0.550D-02 0.110D+01
 Gap=     0.161 Goal=   None    Shift=    0.000
 Gap=     0.122 Goal=   None    Shift=    0.000
 RMSDP=5.80D-09 MaxDP=6.05D-07 DE=-2.39D-12 OVMax= 4.16D-07

 SCF Done:  E(UB3LYP) =  -192.409590306     A.U. after   18 cycles
            NFock= 18  Conv=0.58D-08     -V/T= 2.0045
 <Sx>= 0.0000 <Sy>= 0.0000 <Sz>= 1.5000 <S**2>= 3.7743 S= 1.5061
 <L.S>= 0.000000000000E+00
 KE= 1.915467808948D+02 PE=-6.907777739260D+02 EE= 1.806927876431D+02
 Annihilation of the first spin contaminant:
 S**2 before annihilation     3.7743,   after     3.7501
 Leave Link  502 at Wed Jul 20 13:58:08 2016, MaxMem=    33554432 cpu:      1264.7
 (Enter /home/proyectos/fulerenos/M3C-v2.0/M3C-deps_CCC/g09-AM64L-G09RevC.01/l801.exe)
 DoSCS=F DFT=T ScalE2(SS,OS)=  1.000000  1.000000
 Range of M.O.s used for correlation:     1   235
 NBasis=   235 NAE=    18 NBE=    15 NFC=     0 NFV=     0
 NROrb=    235 NOA=    18 NOB=    15 NVA=   217 NVB=   220

 **** Warning!!: The largest alpha MO coefficient is  0.25245522D+03


 **** Warning!!: The largest beta MO coefficient is  0.22975430D+03

 Leave Link  801 at Wed Jul 20 13:58:09 2016, MaxMem=    33554432 cpu:         0.1
 (Enter /home/proyectos/fulerenos/M3C-v2.0/M3C-deps_CCC/g09-AM64L-G09RevC.01/l1101.exe)
 Using compressed storage, NAtomX=     9.
 Will process     10 centers per pass.
 Leave Link 1101 at Wed Jul 20 13:58:10 2016, MaxMem=    33554432 cpu:         1.0
 (Enter /home/proyectos/fulerenos/M3C-v2.0/M3C-deps_CCC/g09-AM64L-G09RevC.01/l1102.exe)
 Symmetrizing basis deriv contribution to polar:
 IMax=3 JMax=2 DiffMx= 0.00D+00
 Leave Link 1102 at Wed Jul 20 13:58:10 2016, MaxMem=    33554432 cpu:         0.2
 (Enter /home/proyectos/fulerenos/M3C-v2.0/M3C-deps_CCC/g09-AM64L-G09RevC.01/l1110.exe)
 Forming Gx(P) for the SCF density, NAtomX=     9.
 Integral derivatives from FoFJK, PRISM(SPDF).
 Do as many integral derivatives as possible in FoFJK.
 G2DrvN: MDV=      33554256.
 G2DrvN: will do    10 centers at a time, making    1 passes.
 Calling FoFCou, ICntrl=  3107 FMM=F I1Cent=   0 AccDes= 0.00D+00.
 FoFJK:  IHMeth= 1 ICntrl=    3107 DoSepK=F KAlg= 0 I1Cent=   0 FoldK=F
 IRaf=         0 NMat=   1 IRICut=       1 DoRegI=T DoRafI=F ISym2E= 0.
 FoFCou: FMM=F IPFlag=           0 FMFlag=      100000 FMFlg1=           0
         NFxFlg=           0 DoJE=F BraDBF=F KetDBF=F FulRan=T
         wScrn=  0.000000 ICntrl=    3107 IOpCl=  1 I1Cent=           0 NGrid=           0
         NMat0=    1 NMatS0=      1 NMatT0=    0 NMatD0=    1 NMtDS0=    0 NMtDT0=    0
 Symmetry not used in FoFCou.
 End of G2Drv F.D. properties file   721 does not exist.
 End of G2Drv F.D. properties file   722 does not exist.
 End of G2Drv F.D. properties file   788 does not exist.
 Leave Link 1110 at Wed Jul 20 14:13:36 2016, MaxMem=    33554432 cpu:       925.0
 (Enter /home/proyectos/fulerenos/M3C-v2.0/M3C-deps_CCC/g09-AM64L-G09RevC.01/l1002.exe)
 Minotr:  UHF open shell wavefunction.
          IDoAtm=111111111
          Direct CPHF calculation.
          Differentiating once with respect to electric field.
                with respect to dipole field.
          Differentiating once with respect to nuclear coordinates.
          Requested convergence is 1.0D-08 RMS, and 1.0D-07 maximum.
          Secondary convergence is 1.0D-12 RMS, and 1.0D-12 maximum.
          NewPWx=T KeepS1=F KeepF1=F KeepIn=T MapXYZ=F SortEE=F KeepMc=T.
          MDV=      33553868 using IRadAn=       2.
 Generate precomputed XC quadrature information.
          Solving linear equations simultaneously, MaxMat=       0.
 FoFJK:  IHMeth= 1 ICntrl=       0 DoSepK=F KAlg= 0 I1Cent=   0 FoldK=F
 IRaf= 980000000 NMat=  30 IRICut=      75 DoRegI=T DoRafI=T ISym2E= 2.
 FoFCou: FMM=F IPFlag=           0 FMFlag=      100000 FMFlg1=           0
         NFxFlg=           0 DoJE=F BraDBF=F KetDBF=F FulRan=T
         wScrn=  0.000000 ICntrl=       0 IOpCl=  1 I1Cent=           0 NGrid=           0
         NMat0=   30 NMatS0=     30 NMatT0=    0 NMatD0=   30 NMtDS0=    0 NMtDT0=    0
 Integrals replicated using symmetry in FoFCou.
          There are    30 degrees of freedom in the 1st order CPHF.  IDoFFX=6 NUNeed=     3.
     27 vectors produced by pass  0 Test12= 2.40D-14 3.33D-09 XBig12= 2.92D+02 1.03D+01.
 AX will form    27 AO Fock derivatives at one time.
     27 vectors produced by pass  1 Test12= 2.40D-14 3.33D-09 XBig12= 2.58D+01 1.34D+00.
     27 vectors produced by pass  2 Test12= 2.40D-14 3.33D-09 XBig12= 9.50D-01 2.81D-01.
     27 vectors produced by pass  3 Test12= 2.40D-14 3.33D-09 XBig12= 1.62D-02 2.78D-02.
     27 vectors produced by pass  4 Test12= 2.40D-14 3.33D-09 XBig12= 1.04D-04 1.50D-03.
     27 vectors produced by pass  5 Test12= 2.40D-14 3.33D-09 XBig12= 5.44D-07 8.58D-05.
     27 vectors produced by pass  6 Test12= 2.40D-14 3.33D-09 XBig12= 2.10D-09 7.17D-06.
      7 vectors produced by pass  7 Test12= 2.40D-14 3.33D-09 XBig12= 1.21D-11 5.66D-07.
      6 vectors produced by pass  8 Test12= 2.40D-14 3.33D-09 XBig12= 3.98D-12 4.12D-07.
      5 vectors produced by pass  9 Test12= 2.40D-14 3.33D-09 XBig12= 3.51D-13 1.00D-07.
      2 vectors produced by pass 10 Test12= 2.40D-14 3.33D-09 XBig12= 8.51D-15 2.12D-08.
      1 vectors produced by pass 11 Test12= 2.40D-14 3.33D-09 XBig12= 5.12D-16 4.22D-09.
 InvSVY:  IOpt=1 It=  1 EMax= 1.07D-14
 Solved reduced A of dimension   210 with    30 vectors.
 FullF1:  Do perturbations    1 to     3.
 Isotropic polarizability for W=    0.000000       58.95 Bohr**3.
 End of Minotr F.D. properties file   721 does not exist.
 End of Minotr F.D. properties file   722 does not exist.
 End of Minotr F.D. properties file   788 does not exist.
 Leave Link 1002 at Wed Jul 20 15:08:29 2016, MaxMem=    33554432 cpu:      3288.9
 (Enter /home/proyectos/fulerenos/M3C-v2.0/M3C-deps_CCC/g09-AM64L-G09RevC.01/l601.exe)
 Copying SCF densities to generalized density rwf, IOpCl= 1 IROHF=0.

 **********************************************************************

            Population analysis using the SCF density.

 **********************************************************************

 Orbital symmetries:
 Alpha Orbitals:
       Occupied  (A) (A) (A) (A) (A) (A) (A) (A) (A) (A) (A) (A)
                 (A) (A) (A) (A) (A) (A)
       Virtual   (A) (A) (A) (A) (A) (A) (A) (A) (A) (A) (A) (A)
                 (A) (A) (A) (A) (A) (A) (A) (A) (A) (A) (A) (A)
                 (A) (A) (A) (A) (A) (A) (A) (A) (A) (A) (A) (A)
                 (A) (A) (A) (A) (A) (A) (A) (A) (A) (A) (A) (A)
                 (A) (A) (A) (A) (A) (A) (A) (A) (A) (A) (A) (A)
                 (A) (A) (A) (A) (A) (A) (A) (A) (A) (A) (A) (A)
                 (A) (A) (A) (A) (A) (A) (A) (A) (A) (A) (A) (A)
                 (A) (A) (A) (A) (A) (A) (A) (A) (A) (A) (A) (A)
                 (A) (A) (A) (A) (A) (A) (A) (A) (A) (A) (A) (A)
                 (A) (A) (A) (A) (A) (A) (A) (A) (A) (A) (A) (A)
                 (A) (A) (A) (A) (A) (A) (A) (A) (A) (A) (A) (A)
                 (A) (A) (A) (A) (A) (A) (A) (A) (A) (A) (A) (A)
                 (A) (A) (A) (A) (A) (A) (A) (A) (A) (A) (A) (A)
                 (A) (A) (A) (A) (A) (A) (A) (A) (A) (A) (A) (A)
                 (A) (A) (A) (A) (A) (A) (A) (A) (A) (A) (A) (A)
                 (A) (A) (A) (A) (A) (A) (A) (A) (A) (A) (A) (A)
                 (A) (A) (A) (A) (A) (A) (A) (A) (A) (A) (A) (A)
                 (A) (A) (A) (A) (A) (A) (A) (A) (A) (A) (A) (A)
                 (A)
 Beta  Orbitals:
       Occupied  (A) (A) (A) (A) (A) (A) (A) (A) (A) (A) (A) (A)
                 (A) (A) (A)
       Virtual   (A) (A) (A) (A) (A) (A) (A) (A) (A) (A) (A) (A)
                 (A) (A) (A) (A) (A) (A) (A) (A) (A) (A) (A) (A)
                 (A) (A) (A) (A) (A) (A) (A) (A) (A) (A) (A) (A)
                 (A) (A) (A) (A) (A) (A) (A) (A) (A) (A) (A) (A)
                 (A) (A) (A) (A) (A) (A) (A) (A) (A) (A) (A) (A)
                 (A) (A) (A) (A) (A) (A) (A) (A) (A) (A) (A) (A)
                 (A) (A) (A) (A) (A) (A) (A) (A) (A) (A) (A) (A)
                 (A) (A) (A) (A) (A) (A) (A) (A) (A) (A) (A) (A)
                 (A) (A) (A) (A) (A) (A) (A) (A) (A) (A) (A) (A)
                 (A) (A) (A) (A) (A) (A) (A) (A) (A) (A) (A) (A)
                 (A) (A) (A) (A) (A) (A) (A) (A) (A) (A) (A) (A)
                 (A) (A) (A) (A) (A) (A) (A) (A) (A) (A) (A) (A)
                 (A) (A) (A) (A) (A) (A) (A) (A) (A) (A) (A) (A)
                 (A) (A) (A) (A) (A) (A) (A) (A) (A) (A) (A) (A)
                 (A) (A) (A) (A) (A) (A) (A) (A) (A) (A) (A) (A)
                 (A) (A) (A) (A) (A) (A) (A) (A) (A) (A) (A) (A)
                 (A) (A) (A) (A) (A) (A) (A) (A) (A) (A) (A) (A)
                 (A) (A) (A) (A) (A) (A) (A) (A) (A) (A) (A) (A)
                 (A) (A) (A) (A)
 The electronic state is 4-A.
 Alpha  occ. eigenvalues --  -10.50039 -10.46419 -10.46238 -10.44873 -10.40670
 Alpha  occ. eigenvalues --   -1.08537  -1.01581  -0.94380  -0.82554  -0.72771
 Alpha  occ. eigenvalues --   -0.71952  -0.68135  -0.67784  -0.61029  -0.59072
 Alpha  occ. eigenvalues --   -0.51491  -0.49360  -0.46676
 Alpha virt. eigenvalues --   -0.30581  -0.21847  -0.17801  -0.14835  -0.12703
 Alpha virt. eigenvalues --   -0.10651  -0.10112  -0.09173  -0.07545  -0.07160
 Alpha virt. eigenvalues --   -0.06767  -0.04714  -0.04590  -0.03616  -0.02664
 Alpha virt. eigenvalues --   -0.01857  -0.01508  -0.00576   0.00585   0.01001
 Alpha virt. eigenvalues --    0.01813   0.02244   0.03066   0.03445   0.04562
 Alpha virt. eigenvalues --    0.05815   0.06788   0.08330   0.08740   0.09088
 Alpha virt. eigenvalues --    0.11118   0.11272   0.11768   0.15842   0.15878
 Alpha virt. eigenvalues --    0.16430   0.19663   0.20262   0.22449   0.23292
 Alpha virt. eigenvalues --    0.25499   0.26106   0.26402   0.27369   0.28163
 Alpha virt. eigenvalues --    0.28466   0.30189   0.30874   0.32703   0.33531
 Alpha virt. eigenvalues --    0.35022   0.36100   0.37163   0.37348   0.39293
 Alpha virt. eigenvalues --    0.39693   0.41268   0.41623   0.43434   0.44317
 Alpha virt. eigenvalues --    0.46503   0.47251   0.52762   0.53955   0.56011
 Alpha virt. eigenvalues --    0.57884   0.58508   0.60924   0.62508   0.67055
 Alpha virt. eigenvalues --    0.69324   0.69441   0.72215   0.73822   0.74833
 Alpha virt. eigenvalues --    0.79506   0.83831   0.87589   0.87881   0.91609
 Alpha virt. eigenvalues --    0.92655   0.98148   1.01597   1.02159   1.03079
 Alpha virt. eigenvalues --    1.03681   1.08847   1.09445   1.09713   1.11935
 Alpha virt. eigenvalues --    1.13718   1.14721   1.16605   1.16856   1.18622
 Alpha virt. eigenvalues --    1.22189   1.26901   1.29091   1.34482   1.35169
 Alpha virt. eigenvalues --    1.35477   1.40882   1.40915   1.48762   1.51908
 Alpha virt. eigenvalues --    1.52735   1.54364   1.66608   1.67920   1.71513
 Alpha virt. eigenvalues --    1.73376   1.80341   1.86922   1.92417   1.95944
 Alpha virt. eigenvalues --    2.00426   2.08163   2.16941   2.22521   2.32032
 Alpha virt. eigenvalues --    2.38458   2.38796   2.43250   2.45496   2.46163
 Alpha virt. eigenvalues --    2.47792   2.50583   2.52172   2.53892   2.55666
 Alpha virt. eigenvalues --    2.55906   2.58623   2.61848   2.62833   2.64242
 Alpha virt. eigenvalues --    2.68644   2.68904   2.72360   2.73183   2.76090
 Alpha virt. eigenvalues --    2.76890   2.82001   2.86933   2.88792   2.93393
 Alpha virt. eigenvalues --    2.94618   2.96491   2.98914   3.03209   3.05767
 Alpha virt. eigenvalues --    3.06021   3.12980   3.24642   3.28185   3.28441
 Alpha virt. eigenvalues --    3.35142   3.36696   3.40166   3.54170   3.57545
 Alpha virt. eigenvalues --    3.61607   3.78507   3.79925   3.87011   3.91700
 Alpha virt. eigenvalues --    3.94161   3.96012   4.00544   4.01042   4.04126
 Alpha virt. eigenvalues --    4.07200   4.17689   4.18591   4.19730   4.22856
 Alpha virt. eigenvalues --    4.43297   4.43547   4.57882   4.59695   4.91894
 Alpha virt. eigenvalues --    5.23603   5.31094   5.37322   5.51689   5.53136
 Alpha virt. eigenvalues --    5.84816   6.19087   6.66564   6.71180   6.74935
 Alpha virt. eigenvalues --    6.79356   6.80710   6.81779   6.83363   6.87165
 Alpha virt. eigenvalues --    6.98556   7.00626   7.00921   7.12199   7.14084
 Alpha virt. eigenvalues --    7.25128   7.28869   7.31806   7.36114   7.44245
 Alpha virt. eigenvalues --    7.47813   7.61633   7.77334   7.86318   7.91170
 Alpha virt. eigenvalues --    8.01223   8.34977  23.62127  24.22867  25.08983
 Alpha virt. eigenvalues --   25.42587  26.01640
  Beta  occ. eigenvalues --  -10.46186 -10.45965 -10.45791 -10.44459 -10.40698
  Beta  occ. eigenvalues --   -1.06407  -0.99654  -0.91015  -0.79364  -0.71481
  Beta  occ. eigenvalues --   -0.70103  -0.66580  -0.65539  -0.55561  -0.51348
  Beta virt. eigenvalues --   -0.39137  -0.38639  -0.26877  -0.25044  -0.21393
  Beta virt. eigenvalues --   -0.14429  -0.14263  -0.12528  -0.10114  -0.09566
  Beta virt. eigenvalues --   -0.08760  -0.07037  -0.06833  -0.06457  -0.04401
  Beta virt. eigenvalues --   -0.03841  -0.03140  -0.02260  -0.01387  -0.00943
  Beta virt. eigenvalues --   -0.00284   0.01180   0.01318   0.01924   0.02913
  Beta virt. eigenvalues --    0.03373   0.03749   0.05187   0.06779   0.07359
  Beta virt. eigenvalues --    0.08771   0.09054   0.09449   0.11577   0.12228
  Beta virt. eigenvalues --    0.12955   0.16626   0.16948   0.17500   0.20353
  Beta virt. eigenvalues --    0.22898   0.23036   0.24631   0.26446   0.27295
  Beta virt. eigenvalues --    0.27503   0.28243   0.29413   0.29942   0.32160
  Beta virt. eigenvalues --    0.32178   0.35331   0.35365   0.35613   0.37197
  Beta virt. eigenvalues --    0.38454   0.39600   0.40505   0.40918   0.42244
  Beta virt. eigenvalues --    0.42504   0.44296   0.45553   0.47843   0.48355
  Beta virt. eigenvalues --    0.53376   0.56041   0.56606   0.58939   0.59275
  Beta virt. eigenvalues --    0.61534   0.63042   0.67766   0.70185   0.71007
  Beta virt. eigenvalues --    0.72827   0.74330   0.75251   0.79793   0.84320
  Beta virt. eigenvalues --    0.88275   0.89225   0.92157   0.92998   0.98719
  Beta virt. eigenvalues --    1.02543   1.03791   1.04148   1.05145   1.10128
  Beta virt. eigenvalues --    1.10412   1.11977   1.12942   1.15349   1.15667
  Beta virt. eigenvalues --    1.17961   1.18535   1.19451   1.25323   1.27543
  Beta virt. eigenvalues --    1.30374   1.36285   1.38882   1.40666   1.43996
  Beta virt. eigenvalues --    1.45115   1.53967   1.54154   1.55372   1.57539
  Beta virt. eigenvalues --    1.69048   1.69831   1.75321   1.75696   1.86221
  Beta virt. eigenvalues --    1.89575   1.93522   1.97505   2.03836   2.10168
  Beta virt. eigenvalues --    2.18911   2.24090   2.33825   2.39982   2.40639
  Beta virt. eigenvalues --    2.45896   2.47377   2.48509   2.51598   2.54059
  Beta virt. eigenvalues --    2.55691   2.56488   2.58410   2.59791   2.61254
  Beta virt. eigenvalues --    2.64365   2.67786   2.68259   2.70733   2.72523
  Beta virt. eigenvalues --    2.74789   2.75534   2.77801   2.80492   2.85894
  Beta virt. eigenvalues --    2.87891   2.94061   2.94224   2.97471   2.97610
  Beta virt. eigenvalues --    2.99973   3.06339   3.08113   3.08164   3.15084
  Beta virt. eigenvalues --    3.25425   3.29388   3.30992   3.37107   3.38094
  Beta virt. eigenvalues --    3.42942   3.55629   3.58434   3.65938   3.79240
  Beta virt. eigenvalues --    3.81470   3.88076   3.93660   3.95112   3.96890
  Beta virt. eigenvalues --    4.01596   4.01717   4.07226   4.08700   4.18622
  Beta virt. eigenvalues --    4.19931   4.22407   4.23839   4.44514   4.44752
  Beta virt. eigenvalues --    4.59333   4.60957   4.93352   5.25585   5.31753
  Beta virt. eigenvalues --    5.37834   5.52949   5.53756   5.85678   6.19947
  Beta virt. eigenvalues --    6.74798   6.79863   6.82652   6.83017   6.83899
  Beta virt. eigenvalues --    6.84910   6.86977   6.88345   7.00869   7.02273
  Beta virt. eigenvalues --    7.12128   7.12537   7.17976   7.27523   7.29181
  Beta virt. eigenvalues --    7.32587   7.38649   7.46052   7.48852   7.64435
  Beta virt. eigenvalues --    7.77509   7.87526   7.92719   8.02514   8.35718
  Beta virt. eigenvalues --   23.63669  24.24770  25.10731  25.43314  26.01849
          Condensed to atoms (all electrons):
               1          2          3          4          5          6
     1  C    6.519084   0.054088   0.503741   0.000926   0.000926  -0.775596
     2  C    0.054088  11.250947   0.020802   0.369772   0.369771  -0.295032
     3  H    0.503741   0.020802   0.456051   0.000065   0.000065  -0.065640
     4  H    0.000926   0.369772   0.000065   0.406668  -0.011043   0.000093
     5  H    0.000926   0.369771   0.000065  -0.011043   0.406668   0.000093
     6  C   -0.775596  -0.295032  -0.065640   0.000093   0.000093   7.207842
     7  C   -0.126278  -0.702328   0.071220  -0.043520  -0.043520  -0.325015
     8  C   -0.031103  -4.823990  -0.195650   0.041018   0.041019   0.232851
     9  H   -0.100476   0.034502   0.002800  -0.000466  -0.000466   0.003075
               7          8          9
     1  C   -0.126278  -0.031103  -0.100476
     2  C   -0.702328  -4.823990   0.034502
     3  H    0.071220  -0.195650   0.002800
     4  H   -0.043520   0.041018  -0.000466
     5  H   -0.043520   0.041019  -0.000466
     6  C   -0.325015   0.232851   0.003075
     7  C    8.336659  -1.785052   0.003144
     8  C   -1.785052  12.322319   0.398166
     9  H    0.003144   0.398166   0.447838
          Atomic-Atomic Spin Densities.
               1          2          3          4          5          6
     1  C    0.639495  -0.026235   0.001681   0.000167   0.000167  -0.687830
     2  C   -0.026235   0.363720   0.000475   0.010752   0.010752   0.126381
     3  H    0.001681   0.000475   0.046768   0.000008   0.000008   0.020682
     4  H    0.000167   0.010752   0.000008   0.023997  -0.001725  -0.000207
     5  H    0.000167   0.010752   0.000008  -0.001725   0.023997  -0.000207
     6  C   -0.687830   0.126381   0.020682  -0.000207  -0.000207   3.275006
     7  C   -0.082655  -0.108386   0.004447  -0.001968  -0.001968   0.106201
     8  C    0.136425  -0.332237  -0.019186  -0.002901  -0.002902  -0.433670
     9  H   -0.005987  -0.016420   0.000050  -0.000079  -0.000079   0.000879
               7          8          9
     1  C   -0.082655   0.136425  -0.005987
     2  C   -0.108386  -0.332237  -0.016420
     3  H    0.004447  -0.019186   0.000050
     4  H   -0.001968  -0.002901  -0.000079
     5  H   -0.001968  -0.002902  -0.000079
     6  C    0.106201  -0.433670   0.000879
     7  C    0.377854  -0.011127  -0.013406
     8  C   -0.011127   0.827252   0.037581
     9  H   -0.013406   0.037581   0.006948
 Mulliken charges and spin densities:
               1          2
     1  C   -0.045311  -0.024771
     2  C   -0.278532   0.028803
     3  H    0.206545   0.054932
     4  H    0.236487   0.028043
     5  H    0.236487   0.028043
     6  C    0.017331   2.407235
     7  C    0.614690   0.268992
     8  C   -0.199578   0.199236
     9  H    0.211882   0.009488
 Sum of Mulliken charges =   1.00000   3.00000
 Mulliken charges and spin densities with hydrogens summed into heavy atoms:
               1          2
     1  C    0.161233   0.030160
     2  C    0.194442   0.084890
     6  C    0.017331   2.407235
     7  C    0.614690   0.268992
     8  C    0.012304   0.208724
 APT charges:
               1
     1  C    0.106311
     2  C   -0.308898
     3  H    0.130724
     4  H    0.207410
     5  H    0.207410
     6  C    0.219548
     7  C    0.484132
     8  C   -0.181259
     9  H    0.134621
 Sum of APT charges =   1.00000
 APT charges with hydrogens summed into heavy atoms:
               1
     1  C    0.237035
     2  C    0.105922
     6  C    0.219548
     7  C    0.484132
     8  C   -0.046638
 Electronic spatial extent (au):  <R**2>=            401.4319
 Charge=              1.0000 electrons
 Dipole moment (field-independent basis, Debye):
    X=              0.1512    Y=              0.1526    Z=              0.0000  Tot=              0.2148
 Quadrupole moment (field-independent basis, Debye-Ang):
   XX=             -8.8727   YY=            -21.7455   ZZ=            -26.1668
   XY=             -2.3851   XZ=              0.0025   YZ=             -0.0002
 Traceless Quadrupole moment (field-independent basis, Debye-Ang):
   XX=             10.0556   YY=             -2.8172   ZZ=             -7.2384
   XY=             -2.3851   XZ=              0.0025   YZ=             -0.0002
 Octapole moment (field-independent basis, Debye-Ang**2):
  XXX=             13.5019  YYY=              5.3871  ZZZ=              0.0026  XYY=             -5.1014
  XXY=             -6.9070  XXZ=             -0.0001  XZZ=              6.0733  YZZ=             -1.1080
  YYZ=             -0.0004  XYZ=             -0.0014
 Hexadecapole moment (field-independent basis, Debye-Ang**3):
 XXXX=           -293.3048 YYYY=            -98.6605 ZZZZ=            -32.6928 XXXY=            -31.8809
 XXXZ=             -0.0188 YYYX=             -1.4991 YYYZ=             -0.0013 ZZZX=             -0.0228
 ZZZY=             -0.0039 XXYY=            -74.9367 XXZZ=            -59.6772 YYZZ=            -25.0985
 XXYZ=             -0.0042 YYXZ=             -0.0072 ZZXY=             -4.4098
 N-N= 1.261286150822D+02 E-N=-6.907777736313D+02  KE= 1.915467808948D+02
  Exact polarizability:  91.846   1.962  51.986   0.009   0.001  33.017
 Approx polarizability: 139.614   3.677  87.034   0.014   0.002  47.856
                          Isotropic Fermi Contact Couplings
        Atom                 a.u.       MegaHertz       Gauss      10(-4) cm-1
     1  C(13)              0.05201      19.48835       6.95393       6.50061
     2  C(13)             -0.01597      -5.98404      -2.13525      -1.99606
     3  H(1)               0.03021      45.00704      16.05963      15.01273
     4  H(1)               0.01600      23.83858       8.50620       7.95169
     5  H(1)               0.01600      23.83858       8.50620       7.95169
     6  C(13)              0.99556     373.06756     133.11978     124.44194
     7  C(13)              0.00324       1.21357       0.43303       0.40480
     8  C(13)              0.07090      26.56866       9.48036       8.86235
     9  H(1)               0.00354       5.26999       1.88046       1.75788
 --------------------------------------------------------
       Center         ----  Spin Dipole Couplings  ----
                      3XX-RR        3YY-RR        3ZZ-RR
 --------------------------------------------------------
     1   Atom       -0.165126      0.332047     -0.166921
     2   Atom        0.017348     -0.029552      0.012203
     3   Atom       -0.001476      0.038354     -0.036879
     4   Atom        0.011308     -0.007055     -0.004253
     5   Atom        0.011303     -0.007054     -0.004249
     6   Atom        0.623628     -0.207597     -0.416031
     7   Atom       -0.169215     -0.161109      0.330325
     8   Atom       -0.099971     -0.100932      0.200902
     9   Atom       -0.019765      0.035460     -0.015694
 --------------------------------------------------------
                        XY            XZ            YZ
 --------------------------------------------------------
     1   Atom        0.038505      0.000002      0.000029
     2   Atom       -0.004829      0.000001     -0.000003
     3   Atom       -0.031979      0.000004     -0.000001
     4   Atom       -0.002408     -0.008187      0.002314
     5   Atom       -0.002408      0.008191     -0.002315
     6   Atom       -0.062986      0.000155     -0.000000
     7   Atom        0.020943     -0.000075     -0.000019
     8   Atom        0.067389     -0.000043     -0.000004
     9   Atom       -0.003336     -0.000001      0.000002
 --------------------------------------------------------


 ---------------------------------------------------------------------------------
              Anisotropic Spin Dipole Couplings in Principal Axis System
 ---------------------------------------------------------------------------------

       Atom             a.u.   MegaHertz   Gauss  10(-4) cm-1        Axes

              Baa    -0.1681   -22.556    -8.049    -7.524  0.9970 -0.0768  0.0001
     1 C(13)  Bbb    -0.1669   -22.399    -7.993    -7.472 -0.0002 -0.0000  1.0000
              Bcc     0.3350    44.955    16.041    14.995  0.0768  0.9970  0.0001
 
              Baa    -0.0300    -4.032    -1.439    -1.345  0.1014  0.9948  0.0001
     2 C(13)  Bbb     0.0122     1.638     0.584     0.546 -0.0002 -0.0000  1.0000
              Bcc     0.0178     2.394     0.854     0.799  0.9948 -0.1014  0.0001
 
              Baa    -0.0369   -19.677    -7.021    -6.563 -0.0002 -0.0000  1.0000
     3 H(1)   Bbb    -0.0192   -10.262    -3.662    -3.423  0.8743  0.4855  0.0002
              Bcc     0.0561    29.939    10.683     9.987 -0.4855  0.8743 -0.0000
 
              Baa    -0.0088    -4.697    -1.676    -1.567  0.2148 -0.6585  0.7213
     4 H(1)   Bbb    -0.0065    -3.445    -1.229    -1.149  0.3618  0.7396  0.5675
              Bcc     0.0153     8.142     2.905     2.716  0.9072 -0.1391 -0.3971
 
              Baa    -0.0088    -4.697    -1.676    -1.567 -0.2150  0.6584  0.7213
     5 H(1)   Bbb    -0.0065    -3.445    -1.229    -1.149  0.3620  0.7397 -0.5673
              Bcc     0.0153     8.142     2.905     2.716  0.9071 -0.1391  0.3974
 
              Baa    -0.4160   -55.827   -19.921   -18.622 -0.0002 -0.0000  1.0000
     6 C(13)  Bbb    -0.2123   -28.494   -10.168    -9.505  0.0751  0.9972  0.0001
              Bcc     0.6284    84.322    30.088    28.127  0.9972 -0.0751  0.0001
 
              Baa    -0.1865   -25.026    -8.930    -8.348  0.7714 -0.6364  0.0001
     7 C(13)  Bbb    -0.1438   -19.301    -6.887    -6.438  0.6364  0.7714  0.0001
              Bcc     0.3303    44.326    15.817    14.786 -0.0002 -0.0000  1.0000
 
              Baa    -0.1678   -22.523    -8.037    -7.513 -0.7046  0.7096 -0.0001
     8 C(13)  Bbb    -0.0331    -4.436    -1.583    -1.480  0.7096  0.7046  0.0001
              Bcc     0.2009    26.959     9.620     8.993 -0.0002 -0.0000  1.0000
 
              Baa    -0.0200   -10.653    -3.801    -3.553  0.9982  0.0601  0.0002
     9 H(1)   Bbb    -0.0157    -8.374    -2.988    -2.793 -0.0002 -0.0000  1.0000
              Bcc     0.0357    19.027     6.789     6.347 -0.0601  0.9982  0.0000
 

 ---------------------------------------------------------------------------------

 No NMR shielding tensors so no spin-rotation constants.
 Leave Link  601 at Wed Jul 20 15:08:30 2016, MaxMem=    33554432 cpu:         1.1
 (Enter /home/proyectos/fulerenos/M3C-v2.0/M3C-deps_CCC/g09-AM64L-G09RevC.01/l701.exe)
 Compute integral second derivatives.
 ... and contract with generalized density number  0.
 Leave Link  701 at Wed Jul 20 15:08:33 2016, MaxMem=    33554432 cpu:         2.2
 (Enter /home/proyectos/fulerenos/M3C-v2.0/M3C-deps_CCC/g09-AM64L-G09RevC.01/l702.exe)
 L702 exits ... SP integral derivatives will be done elsewhere.
 Leave Link  702 at Wed Jul 20 15:08:33 2016, MaxMem=    33554432 cpu:         0.1
 (Enter /home/proyectos/fulerenos/M3C-v2.0/M3C-deps_CCC/g09-AM64L-G09RevC.01/l703.exe)
 Compute integral second derivatives, UseDBF=F ICtDFT=           0.
 Integral derivatives from FoFJK, PRISM(SPDF).
 Calling FoFJK, ICntrl=    100127 FMM=F ISym2X=0 I1Cent= 0 IOpClX= 1 NMat=1 NMatS=1 NMatT=0.
 FoFJK:  IHMeth= 1 ICntrl=  100127 DoSepK=F KAlg= 0 I1Cent=   0 FoldK=F
 IRaf=         0 NMat=   1 IRICut=       1 DoRegI=T DoRafI=F ISym2E= 0.
 FoFCou: FMM=F IPFlag=           0 FMFlag=      100000 FMFlg1=         800
         NFxFlg=           0 DoJE=F BraDBF=F KetDBF=F FulRan=T
         wScrn=  0.000000 ICntrl=  100127 IOpCl=  1 I1Cent=           0 NGrid=           0
         NMat0=    1 NMatS0=      1 NMatT0=    0 NMatD0=    1 NMtDS0=    0 NMtDT0=    0
 Symmetry not used in FoFCou.
 Leave Link  703 at Wed Jul 20 15:41:49 2016, MaxMem=    33554432 cpu:      1995.0
 (Enter /home/proyectos/fulerenos/M3C-v2.0/M3C-deps_CCC/g09-AM64L-G09RevC.01/l716.exe)
 Dipole        = 5.94788457D-02 6.00439202D-02 1.17675964D-05
 Polarizability= 9.18458855D+01 1.96199124D+00 5.19862868D+01
                 9.01827134D-03 1.16069957D-03 3.30172994D+01
 Full mass-weighted force constant matrix:
 Low frequencies ---   -8.3873   -4.1430   -0.0006    0.0003    0.0005    5.8638
 Low frequencies ---  154.4399  213.3811  285.2838
 Diagonal vibrational polarizability:
        4.8059738       3.7783564       4.9113631
 Harmonic frequencies (cm**-1), IR intensities (KM/Mole), Raman scattering
 activities (A**4/AMU), depolarization ratios for plane and unpolarized
 incident light, reduced masses (AMU), force constants (mDyne/A),
 and normal coordinates:
                      1                      2                      3
                      A                      A                      A
 Frequencies --    154.4381               213.3784               285.2836
 Red. masses --      5.0299                 2.2795                 1.1032
 Frc consts  --      0.0707                 0.0612                 0.0529
 IR Inten    --      1.5886                 3.8711                 0.1625
  Atom  AN      X      Y      Z        X      Y      Z        X      Y      Z
     1   6     0.06  -0.01   0.00    -0.00  -0.00   0.21     0.00   0.00  -0.05
     2   6    -0.27  -0.23  -0.00    -0.00  -0.00   0.11    -0.00  -0.00  -0.00
     3   1    -0.07  -0.21  -0.00    -0.00  -0.00   0.74    -0.00  -0.00   0.00
     4   1    -0.35  -0.38  -0.00     0.30  -0.01   0.27     0.33   0.62   0.01
     5   1    -0.35  -0.38   0.00    -0.30   0.01   0.27    -0.33  -0.62   0.01
     6   6     0.41  -0.04   0.00     0.00   0.00  -0.12    -0.00  -0.00   0.07
     7   6    -0.07   0.16  -0.00     0.00   0.00  -0.17     0.00   0.00  -0.02
     8   6    -0.05   0.19   0.00     0.00   0.00  -0.13     0.00   0.00  -0.02
     9   1    -0.14   0.18  -0.00     0.00   0.00  -0.12    -0.00  -0.00   0.13
                      4                      5                      6
                      A                      A                      A
 Frequencies --    382.3549               416.9056               690.0343
 Red. masses --      7.1107                 2.0023                 6.7027
 Frc consts  --      0.6125                 0.2051                 1.8804
 IR Inten    --      8.0898                 4.1211                 1.0661
  Atom  AN      X      Y      Z        X      Y      Z        X      Y      Z
     1   6     0.13  -0.18   0.00    -0.00  -0.00   0.08     0.45  -0.11   0.00
     2   6    -0.03  -0.13  -0.00     0.00   0.00  -0.00    -0.18   0.13  -0.00
     3   1     0.20  -0.06   0.00    -0.00  -0.00   0.30     0.43  -0.14   0.00
     4   1    -0.13  -0.33   0.00    -0.34   0.32  -0.29    -0.17   0.23  -0.02
     5   1    -0.13  -0.33  -0.00     0.34  -0.32  -0.29    -0.17   0.23   0.02
     6   6    -0.38  -0.15  -0.00     0.00   0.00  -0.06    -0.18  -0.13  -0.00
     7   6     0.28   0.48   0.00    -0.00  -0.00   0.22    -0.26  -0.21  -0.00
     8   6     0.04   0.04   0.00     0.00   0.00  -0.18     0.15   0.27   0.00
     9   1    -0.38   0.03  -0.00     0.00   0.00  -0.47     0.20   0.27   0.00
                      7                      8                      9
                      A                      A                      A
 Frequencies --    789.9903               887.3617               904.1240
 Red. masses --      1.2508                 1.8094                 1.3155
 Frc consts  --      0.4599                 0.8395                 0.6336
 IR Inten    --     29.0197                14.5542                47.4199
  Atom  AN      X      Y      Z        X      Y      Z        X      Y      Z
     1   6     0.00   0.00  -0.10     0.00   0.00  -0.07     0.01   0.00   0.00
     2   6    -0.00  -0.00   0.07     0.00   0.00  -0.16    -0.08  -0.14  -0.00
     3   1    -0.00  -0.00   0.52    -0.00  -0.00   0.44     0.02   0.02   0.00
     4   1    -0.29  -0.02  -0.10     0.47  -0.30   0.20     0.30   0.63  -0.00
     5   1     0.29   0.02  -0.10    -0.47   0.30   0.20     0.30   0.63   0.00
     6   6    -0.00  -0.00   0.04    -0.00  -0.00   0.02     0.00   0.01   0.00
     7   6     0.00   0.00  -0.03    -0.00  -0.00   0.19     0.02   0.04   0.00
     8   6     0.00   0.00  -0.07     0.00   0.00  -0.07     0.00  -0.01  -0.00
     9   1    -0.00  -0.00   0.72    -0.00  -0.00   0.18    -0.01  -0.01  -0.00
                     10                     11                     12
                      A                      A                      A
 Frequencies --    955.5881               962.1722              1147.8342
 Red. masses --      1.5497                 3.5801                 1.7510
 Frc consts  --      0.8337                 1.9528                 1.3592
 IR Inten    --      0.8506                 3.1740                22.6437
  Atom  AN      X      Y      Z        X      Y      Z        X      Y      Z
     1   6     0.00   0.00  -0.15    -0.15  -0.02  -0.00    -0.12   0.05  -0.00
     2   6    -0.00  -0.00   0.02     0.19  -0.11   0.00    -0.08   0.04  -0.00
     3   1    -0.00  -0.00   0.69    -0.43  -0.44  -0.00    -0.18  -0.04  -0.00
     4   1    -0.05   0.02  -0.02     0.35  -0.05   0.06    -0.19   0.09  -0.07
     5   1     0.05  -0.02  -0.02     0.35  -0.05  -0.06    -0.19   0.09   0.07
     6   6    -0.00  -0.00   0.02    -0.05  -0.13  -0.00    -0.01  -0.14  -0.00
     7   6     0.00   0.00  -0.04     0.03  -0.09   0.00     0.02   0.05   0.00
     8   6    -0.00  -0.00   0.15    -0.05   0.36   0.00     0.15  -0.01   0.00
     9   1     0.00   0.00  -0.68     0.03   0.38   0.00     0.89   0.01   0.00
                     13                     14                     15
                      A                      A                      A
 Frequencies --   1264.7146              1336.1496              1398.1319
 Red. masses --      1.4679                 1.1303                 2.2172
 Frc consts  --      1.3834                 1.1889                 2.5536
 IR Inten    --      0.8170                39.6756                28.1375
  Atom  AN      X      Y      Z        X      Y      Z        X      Y      Z
     1   6    -0.04   0.09  -0.00     0.03  -0.01   0.00     0.07   0.27   0.00
     2   6     0.01  -0.01   0.00    -0.06   0.03  -0.00    -0.04   0.02  -0.00
     3   1     0.43   0.84   0.00     0.03  -0.01   0.00    -0.43  -0.55  -0.00
     4   1     0.08  -0.04   0.04     0.48  -0.25   0.37     0.11  -0.06   0.11
     5   1     0.08  -0.04  -0.04     0.48  -0.25  -0.37     0.11  -0.06  -0.11
     6   6     0.02  -0.17  -0.00    -0.00   0.01   0.00    -0.02  -0.14  -0.00
     7   6    -0.02  -0.01  -0.00    -0.04   0.04  -0.00    -0.01  -0.00  -0.00
     8   6    -0.01   0.03  -0.00    -0.04  -0.03  -0.00     0.07  -0.08   0.00
     9   1    -0.21   0.03  -0.00     0.37  -0.02   0.00    -0.59  -0.10  -0.00
                     16                     17                     18
                      A                      A                      A
 Frequencies --   1444.7746              1951.7160              3077.5008
 Red. masses --      3.5185                 9.7454                 1.0609
 Frc consts  --      4.3272                21.8718                 5.9200
 IR Inten    --      0.3464               215.9700               172.5576
  Atom  AN      X      Y      Z        X      Y      Z        X      Y      Z
     1   6    -0.20  -0.17  -0.00     0.01   0.02   0.00    -0.00   0.00  -0.00
     2   6    -0.14   0.07  -0.00    -0.39   0.20  -0.00    -0.06   0.03  -0.00
     3   1    -0.03   0.14   0.00     0.02   0.04   0.00     0.02  -0.01   0.00
     4   1     0.18  -0.08   0.23    -0.12   0.06   0.27     0.32  -0.16  -0.61
     5   1     0.18  -0.08  -0.23    -0.12   0.06  -0.27     0.32  -0.16   0.61
     6   6     0.02   0.08   0.00     0.00  -0.02  -0.00     0.00  -0.00  -0.00
     7   6    -0.01  -0.04  -0.00     0.65  -0.33   0.00     0.01  -0.00   0.00
     8   6     0.36   0.05   0.00    -0.24   0.11  -0.00     0.00   0.00   0.00
     9   1    -0.75   0.03  -0.00    -0.06   0.12  -0.00    -0.00  -0.03  -0.00
                     19                     20                     21
                      A                      A                      A
 Frequencies --   3090.2002              3135.7421              3147.9276
 Red. masses --      1.0863                 1.0888                 1.1110
 Frc consts  --      6.1116                 6.3080                 6.4867
 IR Inten    --     12.2653                26.4187                58.0504
  Atom  AN      X      Y      Z        X      Y      Z        X      Y      Z
     1   6    -0.07   0.04  -0.00     0.01  -0.01   0.00     0.00  -0.00  -0.00
     2   6     0.00  -0.00   0.00    -0.00   0.00  -0.00     0.00   0.00  -0.10
     3   1     0.84  -0.52   0.00    -0.10   0.06  -0.00    -0.00   0.00   0.00
     4   1    -0.01   0.00   0.01     0.01  -0.01  -0.02    -0.34   0.17   0.59
     5   1    -0.01   0.00  -0.01     0.01  -0.01   0.02     0.34  -0.17   0.59
     6   6    -0.00  -0.00  -0.00     0.00   0.00   0.00     0.00   0.00  -0.00
     7   6     0.00   0.00   0.00    -0.00   0.00  -0.00     0.00   0.00  -0.00
     8   6     0.00  -0.01   0.00     0.00  -0.08  -0.00     0.00  -0.00  -0.00
     9   1    -0.01   0.13   0.00    -0.02   0.99   0.00     0.00   0.00  -0.00

 -------------------
 - Thermochemistry -
 -------------------
 Temperature   298.150 Kelvin.  Pressure   1.00000 Atm.
 Atom     1 has atomic number  6 and mass  12.00000
 Atom     2 has atomic number  6 and mass  12.00000
 Atom     3 has atomic number  1 and mass   1.00783
 Atom     4 has atomic number  1 and mass   1.00783
 Atom     5 has atomic number  1 and mass   1.00783
 Atom     6 has atomic number  6 and mass  12.00000
 Atom     7 has atomic number  6 and mass  12.00000
 Atom     8 has atomic number  6 and mass  12.00000
 Atom     9 has atomic number  1 and mass   1.00783
 Molecular mass:    64.03130 amu.
 Principal axes and moments of inertia in atomic units:
                           1         2         3
     Eigenvalues --   124.79216 507.07477 619.40362
           X            0.99873  -0.05032  -0.00015
           Y            0.05032   0.99873  -0.00005
           Z            0.00015   0.00004   1.00000
 This molecule is an asymmetric top.
 Rotational symmetry number  1.
 Rotational temperatures (Kelvin)      0.69406     0.17081     0.13983
 Rotational constants (GHZ):          14.46198     3.55912     2.91368
 Zero-point vibrational energy     165301.9 (Joules/Mol)
                                   39.50811 (Kcal/Mol)
 Warning -- explicit consideration of   5 degrees of freedom as
           vibrations may cause significant error
 Vibrational temperatures:    222.20   307.00   410.46   550.12   599.83
          (Kelvin)            992.80  1136.62  1276.71  1300.83  1374.88
                             1384.35  1651.48  1819.64  1922.42  2011.60
                             2078.71  2808.08  4427.83  4446.10  4511.63
                             4529.16
 
 Zero-point correction=                           0.062960 (Hartree/Particle)
 Thermal correction to Energy=                    0.068479
 Thermal correction to Enthalpy=                  0.069424
 Thermal correction to Gibbs Free Energy=         0.033520
 Sum of electronic and zero-point Energies=           -192.346630
 Sum of electronic and thermal Energies=              -192.341111
 Sum of electronic and thermal Enthalpies=            -192.340167
 Sum of electronic and thermal Free Energies=         -192.376070
 
                     E (Thermal)             CV                S
                      KCal/Mol        Cal/Mol-Kelvin    Cal/Mol-Kelvin
 Total                   42.971             18.450             75.565
 Electronic               0.000              0.000              2.755
 Translational            0.889              2.981             38.389
 Rotational               0.889              2.981             25.175
 Vibrational             41.194             12.489              9.245
 Vibration     1          0.620              1.898              2.617
 Vibration     2          0.644              1.821              2.015
 Vibration     3          0.683              1.701              1.502
 Vibration     4          0.752              1.508              1.030
 Vibration     5          0.780              1.434              0.903
                       Q            Log10(Q)             Ln(Q)
 Total Bot       0.381709D-15        -15.418267        -35.501872
 Total V=0       0.347809D+14         13.541341         31.180091
 Vib (Bot)       0.668600D-28        -28.174834        -64.874952
 Vib (Bot)    1  0.131124D+01          0.117683          0.270975
 Vib (Bot)    2  0.929548D+00         -0.031728         -0.073057
 Vib (Bot)    3  0.672040D+00         -0.172605         -0.397438
 Vib (Bot)    4  0.472094D+00         -0.325972         -0.750578
 Vib (Bot)    5  0.422167D+00         -0.374516         -0.862354
 Vib (V=0)       0.609221D+01          0.784775          1.807010
 Vib (V=0)    1  0.190334D+01          0.279516          0.643609
 Vib (V=0)    2  0.155549D+01          0.191867          0.441791
 Vib (V=0)    3  0.133764D+01          0.126339          0.290905
 Vib (V=0)    4  0.118766D+01          0.074691          0.171983
 Vib (V=0)    5  0.115439D+01          0.062352          0.143571
 Electronic      0.400000D+01          0.602060          1.386294
 Translational   0.201393D+08          7.304044         16.818182
 Rotational      0.708701D+05          4.850463         11.168604
 
                                                              b3lyp opt
                                                             IR Spectrum
 
     3333                                             1                   1 1  1 1    1                                              
     1100                                             9                   4 3  3 2    1      99 98   7   6          43   2  2 1      
     4397                                             5                   4 9  3 6    4      65 08   9   9          18   8  1 5      
     8608                                             2                   5 8  6 5    8      26 47   0   0          72   5  3 4      
 
     XXXX                                             X                   X X  X X    X      XX XX   X   X          XX   X  X X      
     XX X                                             X                     X  X      X         X    X                               
     X  X                                             X                     X  X                X    X                               
     X  X                                             X                        X                X                                    
     X  X                                             X                                                                              
        X                                             X                                                                              
        X                                             X                                                                              
        X                                             X                                                                              
        X                                             X                                                                              
        X                                             X                                                                              
        X                                             X                                                                              
        X                                             X                                                                              
        X                                             X                                                                              
        X                                             X                                                                              
        X                                             X                                                                              
        X                                             X                                                                              
                                                      X                                                                              
                                                      X                                                                              
                                                      X                                                                              
                                                      X                                                                              
 
 ***** Axes restored to original set *****
 -------------------------------------------------------------------
 Center     Atomic                   Forces (Hartrees/Bohr)
 Number     Number              X              Y              Z
 -------------------------------------------------------------------
      1        6           0.000067517    0.000031233    0.000000036
      2        6          -0.000020955   -0.000003001    0.000000018
      3        1          -0.000027701    0.000041869   -0.000000006
      4        1           0.000016196   -0.000000340   -0.000024286
      5        1           0.000016185   -0.000000345    0.000024266
      6        6           0.000005954   -0.000058698   -0.000000010
      7        6          -0.000017915   -0.000003776   -0.000000016
      8        6          -0.000024894    0.000047224    0.000000004
      9        1          -0.000014386   -0.000054166   -0.000000007
 -------------------------------------------------------------------
 Cartesian Forces:  Max     0.000067517 RMS     0.000027225
 Z-matrix is all fixed cartesians, so copy forces.
 Force constants in Cartesian coordinates: 
                1             2             3             4             5 
      1  0.592511D+00
      2 -0.224783D-01  0.584580D+00
      3  0.706041D-04  0.177104D-04  0.121570D+00
      4  0.849393D-02 -0.300567D-02  0.000000D+00  0.731642D+00
      5 -0.525111D-02 -0.384606D-03  0.000000D+00 -0.321186D+00  0.255253D+00
      6  0.000000D+00  0.000000D+00  0.282163D-02  0.155532D-04 -0.614774D-04
      7 -0.246252D+00  0.115075D+00 -0.255554D-04  0.813946D-03 -0.234378D-03
      8  0.123271D+00 -0.116032D+00  0.154629D-04 -0.680736D-03  0.598225D-03
      9 -0.251551D-04  0.142333D-04 -0.440551D-01  0.000000D+00  0.000000D+00
     10  0.423218D-03  0.215411D-03  0.129332D-02 -0.955821D-01  0.321846D-01
     11  0.376771D-03 -0.355269D-03  0.339250D-02  0.325829D-01 -0.473970D-01
     12  0.333413D-03 -0.175353D-03 -0.189058D-04  0.110053D+00 -0.552167D-01
     13  0.423713D-03  0.215479D-03 -0.129317D-02 -0.955137D-01  0.321783D-01
     14  0.377833D-03 -0.354977D-03 -0.339242D-02  0.325751D-01 -0.474074D-01
     15 -0.333246D-03  0.175386D-03 -0.196922D-04 -0.110006D+00  0.552443D-01
     16 -0.440654D-01 -0.125625D-01 -0.223048D-05 -0.308035D-02  0.115674D-02
     17  0.109888D-01 -0.339072D+00 -0.122588D-04  0.417829D-02 -0.176259D-02
     18 -0.111043D-05 -0.158059D-04 -0.333766D-01  0.000000D+00  0.000000D+00
     19 -0.546554D-01  0.279087D-01 -0.715628D-05 -0.525177D+00  0.245876D+00
     20 -0.592341D-03  0.639702D-02  0.000000D+00  0.248221D+00 -0.159620D+00
     21 -0.848944D-05  0.446230D-05  0.113942D-02 -0.568951D-04  0.334809D-04
     22 -0.258535D+00 -0.802594D-01 -0.345824D-04 -0.226984D-01  0.163949D-01
     23 -0.107774D+00 -0.124031D+00 -0.195710D-04  0.107394D-01 -0.532782D-03
     24 -0.358620D-04 -0.154047D-04 -0.550907D-01 -0.628068D-05  0.146111D-05
     25  0.165680D-02 -0.251089D-01 -0.196043D-05  0.110131D-02 -0.111958D-02
     26  0.108158D-02 -0.107470D-01  0.000000D+00 -0.342429D-02  0.125250D-02
     27  0.000000D+00 -0.462585D-05  0.703015D-02  0.000000D+00  0.000000D+00
                6             7             8             9            10 
      6  0.533542D+00
      7  0.000000D+00  0.259913D+00
      8  0.000000D+00 -0.125203D+00  0.135038D+00
      9 -0.288644D-02  0.308206D-04 -0.138028D-04  0.199994D-01
     10  0.115744D+00 -0.570590D-04  0.370711D-04 -0.468828D-03  0.102409D+00
     11 -0.583488D-01  0.110040D-03  0.513575D-04 -0.165944D-02 -0.443619D-01
     12 -0.241382D+00  0.650657D-04 -0.415687D-04  0.184074D-03 -0.121678D+00
     13 -0.115697D+00 -0.571818D-04  0.370159D-04  0.468758D-03  0.990242D-02
     14  0.583764D-01  0.109542D-03  0.512028D-04  0.165946D-02  0.579036D-04
     15 -0.241440D+00 -0.651290D-04  0.415679D-04  0.184352D-03 -0.117794D-01
     16  0.000000D+00  0.700433D-02  0.201951D-01  0.000000D+00 -0.162707D-03
     17  0.000000D+00 -0.173706D-02 -0.288165D-01 -0.203014D-05 -0.677092D-03
     18  0.882829D-03  0.000000D+00  0.130056D-05  0.993923D-02 -0.237425D-03
     19 -0.570270D-04 -0.570946D-02 -0.243066D-02 -0.207013D-05 -0.179946D-01
     20  0.338765D-04 -0.925344D-03 -0.135833D-02  0.000000D+00  0.106735D-01
     21 -0.759076D-01 -0.200484D-05  0.000000D+00  0.723187D-02  0.193724D-01
     22 -0.602526D-05 -0.163342D-01 -0.152506D-01 -0.503050D-05  0.131099D-02
     23  0.000000D+00  0.125153D-01  0.956343D-02  0.178615D-05  0.178514D-02
     24  0.219078D-01 -0.375326D-05 -0.243034D-05  0.120927D-01 -0.108209D-02
     25  0.000000D+00  0.678950D-03  0.249932D-04  0.000000D+00 -0.249101D-03
     26  0.000000D+00  0.290054D-03  0.904592D-03  0.000000D+00  0.854386D-04
     27  0.246151D-02  0.000000D+00  0.000000D+00 -0.269009D-02 -0.116441D-02
               11            12            13            14            15 
     11  0.360256D-01
     12  0.610084D-01  0.257701D+00
     13  0.550347D-04  0.117873D-01  0.102335D+00
     14  0.996718D-02 -0.590750D-02 -0.443545D-01  0.360368D-01
     15  0.590990D-02 -0.161413D-01  0.121627D+00 -0.610422D-01  0.257764D+00
     16  0.111655D-03  0.278305D-04 -0.162769D-03  0.111574D-03 -0.278538D-04
     17  0.342193D-03  0.615536D-03 -0.676930D-03  0.342223D-03 -0.615706D-03
     18 -0.271193D-03 -0.548727D-04  0.237334D-03  0.271264D-03 -0.548419D-04
     19  0.104254D-01  0.234316D-02 -0.179881D-01  0.104225D-01 -0.234810D-02
     20 -0.170238D-02 -0.111010D-02  0.106749D-01 -0.170341D-02  0.111306D-02
     21 -0.103805D-01  0.141657D-02 -0.193774D-01  0.103834D-01  0.141103D-02
     22  0.112002D-02 -0.284645D-02  0.130980D-02  0.112041D-02  0.284746D-02
     23  0.295511D-02  0.919733D-03  0.178532D-02  0.295538D-02 -0.918767D-03
     24  0.212172D-02 -0.169492D-02  0.108316D-02 -0.212095D-02 -0.169400D-02
     25 -0.419871D-03 -0.852051D-04 -0.249481D-03 -0.420415D-03  0.850945D-04
     26  0.113207D-03 -0.924105D-04  0.853055D-04  0.113036D-03  0.924472D-04
     27 -0.177253D-02 -0.100384D-04  0.116434D-02  0.177242D-02 -0.948820D-05
               16            17            18            19            20 
     16  0.446789D-01
     17  0.267222D-01  0.411348D+00
     18  0.597893D-05  0.221792D-04  0.132009D-01
     19  0.407815D-02 -0.157078D-01  0.000000D+00  0.952259D+00
     20 -0.394883D-02  0.717029D-02  0.000000D+00 -0.435017D+00  0.323244D+00
     21  0.000000D+00 -0.193064D-05 -0.274219D-02  0.106096D-03 -0.569475D-04
     22 -0.454164D-02 -0.176678D-01 -0.266168D-05 -0.327391D+00  0.137012D+00
     23 -0.297831D-01 -0.490089D-01 -0.711068D-05  0.149068D+00 -0.160980D+00
     24 -0.317535D-05 -0.524075D-05  0.749099D-02 -0.337854D-04  0.162319D-04
     25 -0.374850D-02 -0.542259D-02 -0.153130D-05 -0.742206D-02  0.339023D-01
     26 -0.200290D-02 -0.543314D-03  0.000000D+00  0.945440D-02 -0.114470D-01
     27 -0.137686D-05 -0.106488D-05  0.471460D-02 -0.146207D-05  0.439616D-05
               21            22            23            24            25 
     21  0.122568D+00
     22 -0.343039D-04  0.676950D+00
     23  0.180863D-04 -0.433612D-01  0.645469D+00
     24 -0.601591D-01  0.833298D-04  0.175638D-04  0.115510D+00
     25  0.000000D+00 -0.500703D-01  0.502553D-02 -0.155121D-05  0.583024D-01
     26  0.000000D+00  0.891857D-03 -0.326390D+00 -0.129468D-04 -0.646144D-02
     27  0.504224D-02 -0.174443D-05 -0.123319D-04 -0.383630D-01  0.525893D-05
               26            27 
     26  0.346744D+00
     27  0.137918D-04  0.218241D-01
 Leave Link  716 at Wed Jul 20 15:41:50 2016, MaxMem=    33554432 cpu:         0.1
 (Enter /home/proyectos/fulerenos/M3C-v2.0/M3C-deps_CCC/g09-AM64L-G09RevC.01/l103.exe)

 GradGradGradGradGradGradGradGradGradGradGradGradGradGradGradGradGradGrad
 Berny optimization.
 Search for a local minimum.
 Step number   1 out of a maximum of    2
 All quantities printed in internal units (Hartrees-Bohrs-Radians)
 Second derivative matrix not updated -- analytic derivatives used.
 ITU=  0
     Eigenvalues ---    0.00347   0.00494   0.00504   0.01461   0.03660
     Eigenvalues ---    0.05920   0.06084   0.07781   0.10145   0.11982
     Eigenvalues ---    0.15058   0.16662   0.21949   0.23320   0.38232
     Eigenvalues ---    0.60392   0.75354   0.87008   0.93082   0.97096
     Eigenvalues ---    1.79678
 Angle between quadratic step and forces=  58.37 degrees.
 Linear search not attempted -- first point.
 B after Tr=    -0.000012   -0.000033   -0.000000
         Rot=    1.000000   -0.000000    0.000000    0.000001 Ang=   0.00 deg.
 Variable       Old X    -DE/DX   Delta X   Delta X   Delta X     New X
                                 (Linear)    (Quad)   (Total)
    X1       -2.84967   0.00007   0.00000   0.00006   0.00005  -2.84962
    Y1        0.33949   0.00003   0.00000   0.00005   0.00002   0.33951
    Z1       -0.00079   0.00000   0.00000   0.00000   0.00000  -0.00079
    X2        3.90375  -0.00002   0.00000  -0.00002  -0.00004   3.90371
    Y2       -0.64306  -0.00000   0.00000  -0.00005  -0.00010  -0.64315
    Z2        0.00019   0.00000   0.00000   0.00000   0.00000   0.00019
    X3       -4.59893  -0.00003   0.00000   0.00012   0.00012  -4.59882
    Y3        1.42913   0.00004   0.00000   0.00040   0.00038   1.42951
    Z3       -0.00101  -0.00000   0.00000   0.00000   0.00000  -0.00101
    X4        4.86119   0.00002   0.00000   0.00013   0.00012   4.86130
    Y4       -1.12217  -0.00000   0.00000   0.00015   0.00011  -1.12206
    Z4       -1.75800  -0.00002   0.00000  -0.00007  -0.00007  -1.75806
    X5        4.86065   0.00002   0.00000   0.00013   0.00012   4.86077
    Y5       -1.12233  -0.00000   0.00000   0.00015   0.00011  -1.12222
    Z5        1.75861   0.00002   0.00000   0.00007   0.00007   1.75868
    X6       -3.03749   0.00001   0.00000  -0.00002  -0.00004  -3.03752
    Y6       -2.24798  -0.00006   0.00000  -0.00008  -0.00011  -2.24809
    Z6       -0.00094  -0.00000   0.00000  -0.00000  -0.00000  -0.00094
    X7        1.74661  -0.00002   0.00000  -0.00006  -0.00007   1.74653
    Y7        0.43862  -0.00000   0.00000  -0.00010  -0.00014   0.43849
    Z7       -0.00009  -0.00000   0.00000  -0.00000  -0.00000  -0.00009
    X8       -0.52359  -0.00002   0.00000  -0.00003  -0.00003  -0.52363
    Y8        1.63438   0.00005   0.00000  -0.00003  -0.00006   1.63432
    Z8       -0.00038   0.00000   0.00000  -0.00000  -0.00000  -0.00038
    X9       -0.56523  -0.00001   0.00000  -0.00021  -0.00022  -0.56545
    Y9        3.68805  -0.00005   0.00000  -0.00019  -0.00022   3.68783
    Z9       -0.00030  -0.00000   0.00000  -0.00000  -0.00000  -0.00030
         Item               Value     Threshold  Converged?
 Maximum Force            0.000068     0.000450     YES
 RMS     Force            0.000027     0.000300     YES
 Maximum Displacement     0.000378     0.001800     YES
 RMS     Displacement     0.000117     0.001200     YES
 Predicted change in Energy=-2.279624D-08
 Optimization completed.
    -- Stationary point found.
 GradGradGradGradGradGradGradGradGradGradGradGradGradGradGradGradGradGrad

 Leave Link  103 at Wed Jul 20 15:41:50 2016, MaxMem=    33554432 cpu:         0.0
 (Enter /home/proyectos/fulerenos/M3C-v2.0/M3C-deps_CCC/g09-AM64L-G09RevC.01/l9999.exe)
 1\1\GINC-EINSTENIO\Freq\UB3LYP\6-311++G(3df,2p)\C5H4(1+,4)\ROOT\20-Jul
 -2016\0\\#p b3lyp/6-311++G(3df,2p) freq symmetry=Loose\\b3lyp opt\\1,4
 \C,-1.507980993,0.179649002,-0.000420498\C,2.065773993,-0.340291002,0.
 000098326\H,-2.433650943,0.756264017,-0.000534756\H,2.572428749,-0.593
 827624,-0.930291291\H,2.57214626,-0.593912374,0.930618625\C,-1.6073689
 78,-1.189579993,-0.000497943\C,0.924263988,0.232108996,-0.000048889\C,
 -0.277074019,0.864878994,-0.000202437\H,-0.299108959,1.951631012,-0.00
 0156289\\Version=EM64L-G09RevE.01\State=4-A\HF=-192.4095903\S2=3.77426
 8\S2-1=0.\S2A=3.750071\RMSD=5.798e-09\RMSF=2.722e-05\ZeroPoint=0.06296
 02\Thermal=0.0684793\Dipole=0.0594796,0.0600432,0.0000118\DipoleDeriv=
 0.15049,-0.041374,0.0000173,-0.2722573,0.1450321,-0.0000359,0.0000069,
 -0.0000007,0.0234105,-0.7300203,0.105442,-0.000094,0.3537249,-0.118240
 3,0.0000519,-0.0000828,0.0000143,-0.0784337,0.1755813,-0.0281064,0.000
 0045,0.0057698,0.0790047,-0.0000018,0.000006,-0.0000069,0.1375858,0.25
 36613,-0.0162496,-0.0475981,-0.0419863,0.1857222,0.0035646,-0.1416881,
 0.0206536,0.1828473,0.2536039,-0.0162476,0.0476181,-0.0419981,0.185724
 3,-0.003577,0.1417058,-0.0206584,0.1829026,0.2348578,0.0686151,0.00000
 37,0.3686363,0.1927225,0.0000542,0.0000176,0.0000087,0.2310647,1.29435
 11,-0.0984486,0.0001699,-0.689731,0.0118817,-0.0001108,0.0001428,-0.00
 00211,0.1461636,-0.6724033,0.0219946,-0.0001001,0.2933833,0.13583,0.00
 00511,-0.0000877,0.0000097,-0.0072027,0.0398782,0.0043745,-0.0000213,0
 .0244585,0.1823227,0.0000037,-0.0000204,0.0000007,0.1816619\Polar=91.8
 459336,1.9615023,51.9862386,0.0090183,0.0011606,33.0172994\PG=C01 [X(C
 5H4)]\NImag=0\\0.59251069,-0.02247833,0.58457961,0.00007060,0.00001771
 ,0.12156982,0.00849393,-0.00300567,0.00000073,0.73164207,-0.00525111,-
 0.00038461,-0.00000094,-0.32118580,0.25525333,0.00000062,-0.00000060,0
 .00282163,0.00001555,-0.00006148,0.53354234,-0.24625218,0.11507521,-0.
 00002556,0.00081395,-0.00023438,0.00000055,0.25991290,0.12327108,-0.11
 603213,0.00001546,-0.00068074,0.00059823,0.00000006,-0.12520331,0.1350
 3814,-0.00002516,0.00001423,-0.04405507,0.00000053,0.00000012,-0.00288
 644,0.00003082,-0.00001380,0.01999937,0.00042322,0.00021541,0.00129332
 ,-0.09558212,0.03218456,0.11574423,-0.00005706,0.00003707,-0.00046883,
 0.10240899,0.00037677,-0.00035527,0.00339250,0.03258293,-0.04739696,-0
 .05834885,0.00011004,0.00005136,-0.00165944,-0.04436193,0.03602557,0.0
 0033341,-0.00017535,-0.00001891,0.11005277,-0.05521674,-0.24138198,0.0
 0006507,-0.00004157,0.00018407,-0.12167788,0.06100840,0.25770142,0.000
 42371,0.00021548,-0.00129317,-0.09551371,0.03217832,-0.11569710,-0.000
 05718,0.00003702,0.00046876,0.00990242,0.00005503,0.01178729,0.1023352
 8,0.00037783,-0.00035498,-0.00339242,0.03257514,-0.04740740,0.05837644
 ,0.00010954,0.00005120,0.00165946,0.00005790,0.00996718,-0.00590750,-0
 .04435446,0.03603676,-0.00033325,0.00017539,-0.00001969,-0.11000563,0.
 05524427,-0.24144011,-0.00006513,0.00004157,0.00018435,-0.01177937,0.0
 0590990,-0.01614135,0.12162678,-0.06104215,0.25776411,-0.04406545,-0.0
 1256250,-0.00000223,-0.00308035,0.00115674,-0.00000055,0.00700433,0.02
 019511,0.00000048,-0.00016271,0.00011165,0.00002783,-0.00016277,0.0001
 1157,-0.00002785,0.04467894,0.01098881,-0.33907168,-0.00001226,0.00417
 829,-0.00176259,0.00000052,-0.00173706,-0.02881649,-0.00000203,-0.0006
 7709,0.00034219,0.00061554,-0.00067693,0.00034222,-0.00061571,0.026722
 21,0.41134824,-0.00000111,-0.00001581,-0.03337662,-0.00000041,0.000000
 06,0.00088283,-0.00000052,0.00000130,0.00993923,-0.00023743,-0.0002711
 9,-0.00005487,0.00023733,0.00027126,-0.00005484,0.00000598,0.00002218,
 0.01320088,-0.05465539,0.02790872,-0.00000716,-0.52517668,0.24587636,-
 0.00005703,-0.00570946,-0.00243066,-0.00000207,-0.01799463,0.01042536,
 0.00234316,-0.01798806,0.01042246,-0.00234810,0.00407815,-0.01570781,0
 .00000035,0.95225916,-0.00059234,0.00639702,0.00000016,0.24822077,-0.1
 5961973,0.00003388,-0.00092534,-0.00135833,-0.00000053,0.01067349,-0.0
 0170238,-0.00111010,0.01067491,-0.00170341,0.00111306,-0.00394883,0.00
 717029,-0.00000015,-0.43501675,0.32324386,-0.00000849,0.00000446,0.001
 13942,-0.00005690,0.00003348,-0.07590758,-0.00000200,-0.00000076,0.007
 23187,0.01937245,-0.01038051,0.00141657,-0.01937741,0.01038344,0.00141
 103,0.00000090,-0.00000193,-0.00274219,0.00010610,-0.00005695,0.122567
 79,-0.25853535,-0.08025940,-0.00003458,-0.02269840,0.01639489,-0.00000
 603,-0.01633424,-0.01525056,-0.00000503,0.00131099,0.00112002,-0.00284
 645,0.00130980,0.00112041,0.00284746,-0.00454164,-0.01766784,-0.000002
 66,-0.32739103,0.13701180,-0.00003430,0.67695014,-0.10777429,-0.124031
 00,-0.00001957,0.01073937,-0.00053278,0.00000061,0.01251525,0.00956343
 ,0.00000179,0.00178514,0.00295511,0.00091973,0.00178532,0.00295538,-0.
 00091877,-0.02978306,-0.04900887,-0.00000711,0.14906792,-0.16098027,0.
 00001809,-0.04336118,0.64546865,-0.00003586,-0.00001540,-0.05509073,-0
 .00000628,0.00000146,0.02190781,-0.00000375,-0.00000243,0.01209272,-0.
 00108209,0.00212172,-0.00169492,0.00108316,-0.00212095,-0.00169400,-0.
 00000318,-0.00000524,0.00749099,-0.00003379,0.00001623,-0.06015914,0.0
 0008333,0.00001756,0.11551023,0.00165680,-0.02510892,-0.00000196,0.001
 10131,-0.00111958,-0.00000026,0.00067895,0.00002499,0.00000050,-0.0002
 4910,-0.00041987,-0.00008521,-0.00024948,-0.00042042,0.00008509,-0.003
 74850,-0.00542259,-0.00000153,-0.00742206,0.03390229,-0.00000035,-0.05
 007027,0.00502553,-0.00000155,0.05830235,0.00108158,-0.01074696,-0.000
 00064,-0.00342429,0.00125250,-0.00000058,0.00029005,0.00090459,0.00000
 020,0.00008544,0.00011321,-0.00009241,0.00008531,0.00011304,0.00009245
 ,-0.00200290,-0.00054331,-0.00000054,0.00945440,-0.01144704,0.00000068
 ,0.00089186,-0.32638964,-0.00001295,-0.00646144,0.34674363,-0.00000077
 ,-0.00000463,0.00703015,-0.00000036,-0.00000023,0.00246151,0.00000053,
 0.00000018,-0.00269009,-0.00116441,-0.00177253,-0.00001004,0.00116434,
 0.00177242,-0.00000949,-0.00000138,-0.00000106,0.00471460,-0.00000146,
 0.00000440,0.00504224,-0.00000174,-0.00001233,-0.03836297,0.00000526,0
 .00001379,0.02182408\\-0.00006752,-0.00003123,-0.00000004,0.00002095,0
 .00000300,-0.00000002,0.00002770,-0.00004187,0.,-0.00001620,0.00000034
 ,0.00002429,-0.00001618,0.00000034,-0.00002427,-0.00000595,0.00005870,
 0.00000001,0.00001792,0.00000378,0.00000002,0.00002489,-0.00004722,0.,
 0.00001439,0.00005417,0.\\\@


 THESE ARE THE TIMES THAT TRY MENS SOULS.
 THE SUMMER SOLDIER AND THE SUNSHINE PATRIOT WILL IN THIS CRISIS,
 SHRINK FROM THE SERVICE OF HIS COUNTRY.  BUT HE THAT STANDS NOW,
 DESERVES THE LOVE AND THANKS OF MAN AND WOMAN.
 TYRANNY, LIKE HELL, IS NOT EASILY CONQUERED,
 YET WE HAVE THIS CONSOLATION WITH US,
 THAT THE HARDER THE CONFLICT, THE MORE GLORIOUS THE TRIUMPH.
 WHAT WE OBTAIN TOO CHEAP, WE ESTEEM TOO LIGHTLY, 
 'TIS DEARNESS ONLY THAT GIVES EVERYTHING ITS VALUE.

                                              -- TOM PAINE
 Job cpu time:       0 days  2 hours  4 minutes 57.2 seconds.
 File lengths (MBytes):  RWF=     79 Int=      0 D2E=      0 Chk=      5 Scr=      1
 Normal termination of Gaussian 09 at Wed Jul 20 15:41:50 2016.
