 Entering Gaussian System, Link 0=/home/proyectos/fulerenos/M3C-v1.9/M3C-deps_CCC/g09-AM64L-G09RevC.01/g09
 Initial command:
 /home/proyectos/fulerenos/M3C-v1.9/M3C-deps_CCC/g09-AM64L-G09RevC.01/l1.exe "/scratch/naguirre/gaussian/Gau-12668.inp" -scrdir="/scratch/naguirre/gaussian/"
 Entering Link 1 = /home/proyectos/fulerenos/M3C-v1.9/M3C-deps_CCC/g09-AM64L-G09RevC.01/l1.exe PID=     12676.
  
 Copyright (c) 1988,1990,1992,1993,1995,1998,2003,2009,2015,
            Gaussian, Inc.  All Rights Reserved.
  
 This is part of the Gaussian(R) 09 program.  It is based on
 the Gaussian(R) 03 system (copyright 2003, Gaussian, Inc.),
 the Gaussian(R) 98 system (copyright 1998, Gaussian, Inc.),
 the Gaussian(R) 94 system (copyright 1995, Gaussian, Inc.),
 the Gaussian 92(TM) system (copyright 1992, Gaussian, Inc.),
 the Gaussian 90(TM) system (copyright 1990, Gaussian, Inc.),
 the Gaussian 88(TM) system (copyright 1988, Gaussian, Inc.),
 the Gaussian 86(TM) system (copyright 1986, Carnegie Mellon
 University), and the Gaussian 82(TM) system (copyright 1983,
 Carnegie Mellon University). Gaussian is a federally registered
 trademark of Gaussian, Inc.
  
 This software contains proprietary and confidential information,
 including trade secrets, belonging to Gaussian, Inc.
  
 This software is provided under written license and may be
 used, copied, transmitted, or stored only in accord with that
 written license.
  
 The following legend is applicable only to US Government
 contracts under FAR:
  
                    RESTRICTED RIGHTS LEGEND
  
 Use, reproduction and disclosure by the US Government is
 subject to restrictions as set forth in subparagraphs (a)
 and (c) of the Commercial Computer Software - Restricted
 Rights clause in FAR 52.227-19.
  
 Gaussian, Inc.
 340 Quinnipiac St., Bldg. 40, Wallingford CT 06492
  
  
 ---------------------------------------------------------------
 Warning -- This program may not be used in any manner that
 competes with the business of Gaussian, Inc. or will provide
 assistance to any competitor of Gaussian, Inc.  The licensee
 of this program is prohibited from giving any competitor of
 Gaussian, Inc. access to this program.  By using this program,
 the user acknowledges that Gaussian, Inc. is engaged in the
 business of creating and licensing software in the field of
 computational chemistry and represents and warrants to the
 licensee that it is not a competitor of Gaussian, Inc. and that
 it will not use this program in any manner prohibited above.
 ---------------------------------------------------------------
  

 Cite this work as:
 Gaussian 09, Revision E.01,
 M. J. Frisch, G. W. Trucks, H. B. Schlegel, G. E. Scuseria, 
 M. A. Robb, J. R. Cheeseman, G. Scalmani, V. Barone, B. Mennucci, 
 G. A. Petersson, H. Nakatsuji, M. Caricato, X. Li, H. P. Hratchian, 
 A. F. Izmaylov, J. Bloino, G. Zheng, J. L. Sonnenberg, M. Hada, 
 M. Ehara, K. Toyota, R. Fukuda, J. Hasegawa, M. Ishida, T. Nakajima, 
 Y. Honda, O. Kitao, H. Nakai, T. Vreven, J. A. Montgomery, Jr., 
 J. E. Peralta, F. Ogliaro, M. Bearpark, J. J. Heyd, E. Brothers, 
 K. N. Kudin, V. N. Staroverov, T. Keith, R. Kobayashi, J. Normand, 
 K. Raghavachari, A. Rendell, J. C. Burant, S. S. Iyengar, J. Tomasi, 
 M. Cossi, N. Rega, J. M. Millam, M. Klene, J. E. Knox, J. B. Cross, 
 V. Bakken, C. Adamo, J. Jaramillo, R. Gomperts, R. E. Stratmann, 
 O. Yazyev, A. J. Austin, R. Cammi, C. Pomelli, J. W. Ochterski, 
 R. L. Martin, K. Morokuma, V. G. Zakrzewski, G. A. Voth, 
 P. Salvador, J. J. Dannenberg, S. Dapprich, A. D. Daniels, 
 O. Farkas, J. B. Foresman, J. V. Ortiz, J. Cioslowski, 
 and D. J. Fox, Gaussian, Inc., Wallingford CT, 2013.
 
 ******************************************
 Gaussian 09:  EM64L-G09RevE.01 30-Nov-2015
                20-Jun-2016 
 ******************************************
 %NProcShared=4
 Will use up to    4 processors via shared memory.
 ---------------------------------------------
 #p b3lyp/6-311++G(3df,2p) freq symmetry=Loose
 ---------------------------------------------
 1/10=4,30=1,38=1/1,3;
 2/12=2,17=4,18=3,40=1/2;
 3/5=4,6=6,7=1216,11=2,16=1,25=1,30=1,71=2,74=-5,140=1/1,2,3;
 4//1;
 5/5=2,38=5,98=1/2;
 8/6=4,10=90,11=11/1;
 11/6=1,8=1,9=11,15=111,16=1/1,2,10;
 10/6=1/2;
 6/7=2,8=2,9=2,10=2,18=1,28=1/1;
 7/8=1,10=1,25=1/1,2,3,16;
 1/10=4,30=1/3;
 99//99;
 Leave Link    1 at Mon Jun 20 10:50:07 2016, MaxMem=           0 cpu:         0.2
 (Enter /home/proyectos/fulerenos/M3C-v1.9/M3C-deps_CCC/g09-AM64L-G09RevC.01/l101.exe)
 ---------
 b3lyp opt
 ---------
 Symbolic Z-matrix:
 Charge =  3 Multiplicity = 2
 C                     0.46912  -0.00224   0.50088 
 C                    -0.8286    0.7663    0.02964 
 C                    -1.814     0.00131  -0.28999 
 C                    -0.82869  -0.76657   0.02298 
 H                     0.5642   -0.00693   1.60153 
 C                     1.72184   0.00149  -0.3436 
 H                     2.68542  -0.56672   0.15714 
 H                     1.74684   0.00705  -1.4407 
 H                     2.68555   0.56484   0.1625 
 
 NAtoms=      9 NQM=        9 NQMF=       0 NMMI=      0 NMMIF=      0
                NMic=       0 NMicF=      0.
                    Isotopes and Nuclear Properties:
 (Nuclear quadrupole moments (NQMom) in fm**2, nuclear magnetic moments (NMagM)
  in nuclear magnetons)

  Atom         1           2           3           4           5           6           7           8           9
 IAtWgt=          12          12          12          12           1          12           1           1           1
 AtmWgt=  12.0000000  12.0000000  12.0000000  12.0000000   1.0078250  12.0000000   1.0078250   1.0078250   1.0078250
 NucSpn=           0           0           0           0           1           0           1           1           1
 AtZEff=   0.0000000   0.0000000   0.0000000   0.0000000   0.0000000   0.0000000   0.0000000   0.0000000   0.0000000
 NQMom=    0.0000000   0.0000000   0.0000000   0.0000000   0.0000000   0.0000000   0.0000000   0.0000000   0.0000000
 NMagM=    0.0000000   0.0000000   0.0000000   0.0000000   2.7928460   0.0000000   2.7928460   2.7928460   2.7928460
 AtZNuc=   6.0000000   6.0000000   6.0000000   6.0000000   1.0000000   6.0000000   1.0000000   1.0000000   1.0000000
 Leave Link  101 at Mon Jun 20 10:50:07 2016, MaxMem=    33554432 cpu:         0.2
 (Enter /home/proyectos/fulerenos/M3C-v1.9/M3C-deps_CCC/g09-AM64L-G09RevC.01/l103.exe)

 GradGradGradGradGradGradGradGradGradGradGradGradGradGradGradGradGradGrad
 Berny optimization.
 Initialization pass.
 Trust Radius=3.00D-01 FncErr=1.00D-07 GrdErr=1.00D-07
 Number of steps in this run=      2 maximum allowed number of steps=      2.
 GradGradGradGradGradGradGradGradGradGradGradGradGradGradGradGradGradGrad

 Leave Link  103 at Mon Jun 20 10:50:07 2016, MaxMem=    33554432 cpu:         0.1
 (Enter /home/proyectos/fulerenos/M3C-v1.9/M3C-deps_CCC/g09-AM64L-G09RevC.01/l202.exe)
                          Input orientation:                          
 ---------------------------------------------------------------------
 Center     Atomic      Atomic             Coordinates (Angstroms)
 Number     Number       Type             X           Y           Z
 ---------------------------------------------------------------------
      1          6           0        0.469118   -0.002239    0.500879
      2          6           0       -0.828599    0.766303    0.029642
      3          6           0       -1.814003    0.001306   -0.289985
      4          6           0       -0.828685   -0.766566    0.022981
      5          1           0        0.564195   -0.006925    1.601530
      6          6           0        1.721837    0.001488   -0.343596
      7          1           0        2.685415   -0.566720    0.157142
      8          1           0        1.746835    0.007051   -1.440697
      9          1           0        2.685551    0.564843    0.162495
 ---------------------------------------------------------------------
                    Distance matrix (angstroms):
                    1          2          3          4          5
     1  C    0.000000
     2  C    1.580124   0.000000
     3  C    2.416220   1.287790   0.000000
     4  C    1.580150   1.532883   1.287799   0.000000
     5  H    1.104760   2.237988   3.038704   2.238076   0.000000
     6  C    1.510780   2.688675   3.536246   2.688763   2.263564
     7  H    2.312740   3.760519   4.557120   3.522334   2.626633
     8  H    2.324299   3.061245   3.742157   3.061722   3.264043
     9  H    2.312717   3.522426   4.557225   3.760581   2.626384
                    6          7          8          9
     6  C    0.000000
     7  H    1.225594   0.000000
     8  H    1.097400   1.939906   0.000000
     9  H    1.225660   1.131576   1.939728   0.000000
 Stoichiometry    C5H4(3+,2)
 Framework group  C1[X(C5H4)]
 Deg. of freedom    21
 Full point group                 C1      NOp   1
 Largest Abelian subgroup         C1      NOp   1
 Largest concise Abelian subgroup C1      NOp   1
                         Standard orientation:                         
 ---------------------------------------------------------------------
 Center     Atomic      Atomic             Coordinates (Angstroms)
 Number     Number       Type             X           Y           Z
 ---------------------------------------------------------------------
      1          6           0       -0.469118    0.002239    0.500879
      2          6           0        0.828599   -0.766303    0.029642
      3          6           0        1.814003   -0.001306   -0.289985
      4          6           0        0.828685    0.766566    0.022981
      5          1           0       -0.564195    0.006925    1.601530
      6          6           0       -1.721837   -0.001488   -0.343596
      7          1           0       -2.685415    0.566720    0.157142
      8          1           0       -1.746835   -0.007051   -1.440697
      9          1           0       -2.685551   -0.564843    0.162495
 ---------------------------------------------------------------------
 Rotational constants (GHZ):     20.2826456      4.1633480      4.0122790
 Leave Link  202 at Mon Jun 20 10:50:07 2016, MaxMem=    33554432 cpu:         0.0
 (Enter /home/proyectos/fulerenos/M3C-v1.9/M3C-deps_CCC/g09-AM64L-G09RevC.01/l301.exe)
 Standard basis: 6-311++G(3df,2p) (5D, 7F)
 Ernie: Thresh=  0.10000D-02 Tol=  0.10000D-05 Strict=F.
 There are   265 symmetry adapted cartesian basis functions of A   symmetry.
 There are   235 symmetry adapted basis functions of A   symmetry.
   235 basis functions,   338 primitive gaussians,   265 cartesian basis functions
    16 alpha electrons       15 beta electrons
       nuclear repulsion energy       135.9088298592 Hartrees.
 IExCor=  402 DFT=T Ex+Corr=B3LYP ExCW=0 ScaHFX=  0.200000
 ScaDFX=  0.800000  0.720000  1.000000  0.810000 ScalE2=  1.000000  1.000000
 IRadAn=      0 IRanWt=     -1 IRanGd=            0 ICorTp=0 IEmpDi=  4
 NAtoms=    9 NActive=    9 NUniq=    9 SFac= 1.00D+00 NAtFMM=   60 NAOKFM=F Big=F
 Integral buffers will be    131072 words long.
 Raffenetti 2 integral format.
 Two-electron integral symmetry is turned on.
 Leave Link  301 at Mon Jun 20 10:50:07 2016, MaxMem=    33554432 cpu:         0.2
 (Enter /home/proyectos/fulerenos/M3C-v1.9/M3C-deps_CCC/g09-AM64L-G09RevC.01/l302.exe)
 NPDir=0 NMtPBC=     1 NCelOv=     1 NCel=       1 NClECP=     1 NCelD=      1
         NCelK=      1 NCelE2=     1 NClLst=     1 CellRange=     0.0.
 One-electron integrals computed using PRISM.
 NBasis=   235 RedAO= T EigKep=  1.26D-05  NBF=   235
 NBsUse=   235 1.00D-06 EigRej= -1.00D+00 NBFU=   235
 Precomputing XC quadrature grid using
 IXCGrd= 4 IRadAn=           0 IRanWt=          -1 IRanGd=           0 AccXCQ= 0.00D+00.
 Generated NRdTot=       0 NPtTot=           0 NUsed=           0 NTot=          32
 NSgBfM=   265   265   265   265   265 MxSgAt=     9 MxSgA2=     9.
 Leave Link  302 at Mon Jun 20 10:50:07 2016, MaxMem=    33554432 cpu:         1.3
 (Enter /home/proyectos/fulerenos/M3C-v1.9/M3C-deps_CCC/g09-AM64L-G09RevC.01/l303.exe)
 DipDrv:  MaxL=1.
 Leave Link  303 at Mon Jun 20 10:50:08 2016, MaxMem=    33554432 cpu:         0.1
 (Enter /home/proyectos/fulerenos/M3C-v1.9/M3C-deps_CCC/g09-AM64L-G09RevC.01/l401.exe)
 ExpMin= 3.60D-02 ExpMax= 4.56D+03 ExpMxC= 6.82D+02 IAcc=3 IRadAn=         5 AccDes= 0.00D+00
 Harris functional with IExCor=  402 and IRadAn=       5 diagonalized for initial guess.
 HarFok:  IExCor=  402 AccDes= 0.00D+00 IRadAn=         5 IDoV= 1 UseB2=F ITyADJ=14
 ICtDFT=  3500011 ScaDFX=  1.000000  1.000000  1.000000  1.000000
 FoFCou: FMM=F IPFlag=           0 FMFlag=      100000 FMFlg1=           0
         NFxFlg=           0 DoJE=T BraDBF=F KetDBF=T FulRan=T
         wScrn=  0.000000 ICntrl=     500 IOpCl=  0 I1Cent=   200000004 NGrid=           0
         NMat0=    1 NMatS0=      1 NMatT0=    0 NMatD0=    1 NMtDS0=    0 NMtDT0=    0
 Petite list used in FoFCou.
 Harris En= -191.787652902156    
 JPrj=0 DoOrth=F DoCkMO=F.
 Initial guess <Sx>= 0.0000 <Sy>= 0.0000 <Sz>= 0.5000 <S**2>= 0.7500 S= 0.5000
 Leave Link  401 at Mon Jun 20 10:50:11 2016, MaxMem=    33554432 cpu:        11.4
 (Enter /home/proyectos/fulerenos/M3C-v1.9/M3C-deps_CCC/g09-AM64L-G09RevC.01/l502.exe)
 UHF open shell SCF:
 Using DIIS extrapolation, IDIIS=  1040.
 Integral symmetry usage will be decided dynamically.
 IVT=      232727 IEndB=      232727 NGot=    33554432 MDV=    33408836
 LenX=    33408836 LenY=    33338170
 Requested convergence on RMS density matrix=1.00D-08 within 128 cycles.
 Requested convergence on MAX density matrix=1.00D-06.
 Requested convergence on             energy=1.00D-06.
 No special actions if energy rises.
 Fock matrices will be formed incrementally for  20 cycles.

 Cycle   1  Pass 1  IDiag  1:
 FoFJK:  IHMeth= 1 ICntrl=       0 DoSepK=F KAlg= 0 I1Cent=   0 FoldK=F
 IRaf= 980000000 NMat=   1 IRICut=       1 DoRegI=T DoRafI=F ISym2E= 0.
 FoFCou: FMM=F IPFlag=           0 FMFlag=      100000 FMFlg1=           0
         NFxFlg=           0 DoJE=F BraDBF=F KetDBF=F FulRan=T
         wScrn=  0.000000 ICntrl=       0 IOpCl=  1 I1Cent=           0 NGrid=           0
         NMat0=    1 NMatS0=      1 NMatT0=    0 NMatD0=    1 NMtDS0=    0 NMtDT0=    0
 Symmetry not used in FoFCou.
 E= -190.855209554127    
 DIIS: error= 1.75D-02 at cycle   1 NSaved=   1.
 NSaved= 1 IEnMin= 1 EnMin= -190.855209554127     IErMin= 1 ErrMin= 1.75D-02
 ErrMax= 1.75D-02  0.00D+00 EMaxC= 1.00D-01 BMatC= 2.62D-01 BMatP= 2.62D-01
 IDIUse=3 WtCom= 8.25D-01 WtEn= 1.75D-01
 Coeff-Com:  0.100D+01
 Coeff-En:   0.100D+01
 Coeff:      0.100D+01
 Gap=     0.056 Goal=   None    Shift=    0.000
 Gap=     0.222 Goal=   None    Shift=    0.000
 GapD=    0.056 DampG=0.500 DampE=0.500 DampFc=0.2500 IDamp=-1.
 Damping current iteration by 2.50D-01
 RMSDP=4.83D-03 MaxDP=3.78D-01              OVMax= 3.21D-01

 Cycle   2  Pass 1  IDiag  1:
 RMSU=  1.21D-03    CP:  1.00D+00
 E= -190.879246444150     Delta-E=       -0.024036890023 Rises=F Damp=T
 DIIS: error= 8.53D-03 at cycle   2 NSaved=   2.
 NSaved= 2 IEnMin= 2 EnMin= -190.879246444150     IErMin= 2 ErrMin= 8.53D-03
 ErrMax= 8.53D-03  0.00D+00 EMaxC= 1.00D-01 BMatC= 8.42D-02 BMatP= 2.62D-01
 IDIUse=3 WtCom= 9.15D-01 WtEn= 8.53D-02
 Coeff-Com: -0.418D+00 0.142D+01
 Coeff-En:   0.000D+00 0.100D+01
 Coeff:     -0.382D+00 0.138D+01
 Gap=     0.042 Goal=   None    Shift=    0.000
 Gap=     0.114 Goal=   None    Shift=    0.000
 RMSDP=3.07D-03 MaxDP=3.05D-01 DE=-2.40D-02 OVMax= 3.03D-01

 Cycle   3  Pass 1  IDiag  1:
 RMSU=  2.74D-03    CP:  1.12D+00  8.70D-01
 E= -190.908302549356     Delta-E=       -0.029056105206 Rises=F Damp=F
 DIIS: error= 1.09D-02 at cycle   3 NSaved=   3.
 NSaved= 3 IEnMin= 3 EnMin= -190.908302549356     IErMin= 2 ErrMin= 8.53D-03
 ErrMax= 1.09D-02  0.00D+00 EMaxC= 1.00D-01 BMatC= 1.09D-01 BMatP= 8.42D-02
 IDIUse=2 WtCom= 0.00D+00 WtEn= 1.00D+00
 Coeff-En:   0.000D+00 0.000D+00 0.100D+01
 Coeff:      0.000D+00 0.000D+00 0.100D+01
 Gap=     0.157 Goal=   None    Shift=    0.000
 Gap=     0.207 Goal=   None    Shift=    0.000
 RMSDP=5.15D-03 MaxDP=6.01D-01 DE=-2.91D-02 OVMax= 3.53D-01

 Cycle   4  Pass 1  IDiag  1:
 RMSU=  1.77D-03    CP:  1.01D+00  3.00D+00 -7.21D-02
 E= -190.732357714471     Delta-E=        0.175944834884 Rises=F Damp=F
 DIIS: error= 2.99D-02 at cycle   4 NSaved=   4.
 NSaved= 4 IEnMin= 3 EnMin= -190.908302549356     IErMin= 2 ErrMin= 8.53D-03
 ErrMax= 2.99D-02  0.00D+00 EMaxC= 1.00D-01 BMatC= 6.87D-01 BMatP= 8.42D-02
 IDIUse=2 WtCom= 0.00D+00 WtEn= 1.00D+00
 Coeff-En:   0.000D+00 0.000D+00 0.809D+00 0.191D+00
 Coeff:      0.000D+00 0.000D+00 0.809D+00 0.191D+00
 Gap=     0.127 Goal=   None    Shift=    0.000
 Gap=     0.173 Goal=   None    Shift=    0.000
 RMSDP=2.52D-03 MaxDP=2.70D-01 DE= 1.76D-01 OVMax= 1.67D-01

 Cycle   5  Pass 1  IDiag  1:
 RMSU=  8.73D-04    CP:  1.07D+00  2.49D+00  4.34D-01  3.57D-01
 E= -190.913175444171     Delta-E=       -0.180817729700 Rises=F Damp=F
 DIIS: error= 1.06D-02 at cycle   5 NSaved=   5.
 NSaved= 5 IEnMin= 5 EnMin= -190.913175444171     IErMin= 2 ErrMin= 8.53D-03
 ErrMax= 1.06D-02  0.00D+00 EMaxC= 1.00D-01 BMatC= 8.58D-02 BMatP= 8.42D-02
 IDIUse=3 WtCom= 8.94D-01 WtEn= 1.06D-01
 Coeff-Com:  0.346D-01-0.465D-01 0.354D+00-0.131D+00 0.789D+00
 Coeff-En:   0.000D+00 0.000D+00 0.469D+00 0.000D+00 0.531D+00
 Coeff:      0.309D-01-0.416D-01 0.366D+00-0.117D+00 0.762D+00
 Gap=     0.102 Goal=   None    Shift=    0.000
 Gap=     0.154 Goal=   None    Shift=    0.000
 RMSDP=1.41D-03 MaxDP=1.86D-01 DE=-1.81D-01 OVMax= 8.46D-02

 Cycle   6  Pass 1  IDiag  1:
 RMSU=  1.52D-04    CP:  1.10D+00  1.64D+00  7.34D-01  2.31D-01  7.12D-01
 E= -190.937255258179     Delta-E=       -0.024079814008 Rises=F Damp=F
 DIIS: error= 3.21D-04 at cycle   6 NSaved=   6.
 NSaved= 6 IEnMin= 6 EnMin= -190.937255258179     IErMin= 6 ErrMin= 3.21D-04
 ErrMax= 3.21D-04  0.00D+00 EMaxC= 1.00D-01 BMatC= 8.29D-05 BMatP= 8.42D-02
 IDIUse=3 WtCom= 9.97D-01 WtEn= 3.21D-03
 Coeff-Com: -0.939D-04-0.289D-02 0.856D-01-0.397D-01 0.208D+00 0.750D+00
 Coeff-En:   0.000D+00 0.000D+00 0.000D+00 0.000D+00 0.000D+00 0.100D+01
 Coeff:     -0.936D-04-0.288D-02 0.853D-01-0.396D-01 0.207D+00 0.750D+00
 Gap=     0.105 Goal=   None    Shift=    0.000
 Gap=     0.155 Goal=   None    Shift=    0.000
 RMSDP=1.06D-04 MaxDP=1.51D-02 DE=-2.41D-02 OVMax= 7.93D-03

 Cycle   7  Pass 1  IDiag  1:
 RMSU=  7.04D-05    CP:  1.10D+00  1.65D+00  7.30D-01  2.29D-01  7.13D-01
                    CP:  1.49D+00
 E= -190.937324397538     Delta-E=       -0.000069139359 Rises=F Damp=F
 DIIS: error= 2.80D-04 at cycle   7 NSaved=   7.
 NSaved= 7 IEnMin= 7 EnMin= -190.937324397538     IErMin= 7 ErrMin= 2.80D-04
 ErrMax= 2.80D-04  0.00D+00 EMaxC= 1.00D-01 BMatC= 5.28D-05 BMatP= 8.29D-05
 IDIUse=3 WtCom= 9.97D-01 WtEn= 2.80D-03
 Coeff-Com: -0.135D-02 0.215D-03-0.474D-02 0.531D-03-0.102D-01 0.403D+00
 Coeff-Com:  0.612D+00
 Coeff-En:   0.000D+00 0.000D+00 0.000D+00 0.000D+00 0.000D+00 0.000D+00
 Coeff-En:   0.100D+01
 Coeff:     -0.135D-02 0.215D-03-0.472D-02 0.530D-03-0.102D-01 0.402D+00
 Coeff:      0.614D+00
 Gap=     0.105 Goal=   None    Shift=    0.000
 Gap=     0.155 Goal=   None    Shift=    0.000
 RMSDP=1.06D-04 MaxDP=1.54D-02 DE=-6.91D-05 OVMax= 7.50D-03

 Cycle   8  Pass 1  IDiag  1:
 RMSU=  3.75D-05    CP:  1.10D+00  1.65D+00  7.35D-01  2.31D-01  7.20D-01
                    CP:  2.01D+00  1.81D+00
 E= -190.937399141576     Delta-E=       -0.000074744038 Rises=F Damp=F
 DIIS: error= 2.36D-04 at cycle   8 NSaved=   8.
 NSaved= 8 IEnMin= 8 EnMin= -190.937399141576     IErMin= 8 ErrMin= 2.36D-04
 ErrMax= 2.36D-04  0.00D+00 EMaxC= 1.00D-01 BMatC= 2.85D-05 BMatP= 5.28D-05
 IDIUse=3 WtCom= 9.98D-01 WtEn= 2.36D-03
 Coeff-Com: -0.139D-02 0.454D-03-0.443D-02 0.418D-03-0.927D-02 0.357D+00
 Coeff-Com:  0.544D+00 0.113D+00
 Coeff-En:   0.000D+00 0.000D+00 0.000D+00 0.000D+00 0.000D+00 0.000D+00
 Coeff-En:   0.000D+00 0.100D+01
 Coeff:     -0.139D-02 0.453D-03-0.442D-02 0.417D-03-0.924D-02 0.356D+00
 Coeff:      0.543D+00 0.115D+00
 Gap=     0.105 Goal=   None    Shift=    0.000
 Gap=     0.155 Goal=   None    Shift=    0.000
 RMSDP=1.88D-05 MaxDP=2.52D-03 DE=-7.47D-05 OVMax= 1.19D-03

 Cycle   9  Pass 1  IDiag  1:
 RMSU=  1.49D-06    CP:  1.10D+00  1.65D+00  7.36D-01  2.31D-01  7.20D-01
                    CP:  2.10D+00  1.97D+00  1.13D+00
 E= -190.937412088392     Delta-E=       -0.000012946816 Rises=F Damp=F
 DIIS: error= 2.38D-04 at cycle   9 NSaved=   9.
 NSaved= 9 IEnMin= 9 EnMin= -190.937412088392     IErMin= 8 ErrMin= 2.36D-04
 ErrMax= 2.38D-04  0.00D+00 EMaxC= 1.00D-01 BMatC= 2.93D-05 BMatP= 2.85D-05
 IDIUse=3 WtCom= 9.98D-01 WtEn= 2.36D-03
 Large coefficients: NSaved=  9 BigCof=   22.66 CofMax=   10.00 Det=-2.27D-08
 Inversion failed.  Reducing to  8 matrices.
 Large coefficients: NSaved=  8 BigCof=   21.46 CofMax=   10.00 Det=-2.39D-08
 Inversion failed.  Reducing to  7 matrices.
 Large coefficients: NSaved=  7 BigCof=   20.82 CofMax=   10.00 Det=-2.45D-08
 Inversion failed.  Reducing to  6 matrices.
 Large coefficients: NSaved=  6 BigCof=   19.92 CofMax=   10.00 Det=-2.49D-08
 Inversion failed.  Reducing to  5 matrices.
 Large coefficients: NSaved=  5 BigCof=   19.16 CofMax=   10.00 Det=-2.59D-08
 Inversion failed.  Reducing to  4 matrices.
 Large coefficients: NSaved=  4 BigCof=   16.77 CofMax=   10.00 Det=-2.77D-08
 Inversion failed.  Reducing to  3 matrices.
 Large coefficients: NSaved=  3 BigCof=   17.55 CofMax=   10.00 Det=-2.79D-08
 Inversion failed.  Reducing to  2 matrices.
 Large coefficients: NSaved=  2 BigCof=   12.23 CofMax=   10.00 Det=-3.43D-08
 Coeff-Com:  0.122D+02-0.112D+02
 Coeff-En:   0.000D+00 0.100D+01
 Coeff:      0.122D+02-0.112D+02
 Gap=     0.105 Goal=   None    Shift=    0.000
 Gap=     0.155 Goal=   None    Shift=    0.000
 RMSDP=1.01D-04 MaxDP=1.30D-02 DE=-1.29D-05 OVMax= 6.37D-03

 Cycle  10  Pass 1  IDiag  1:
 RMSU=  7.66D-06    CP:  1.10D+00  1.65D+00  7.34D-01  2.29D-01  7.13D-01
                    CP:  1.61D+00  1.14D+00  2.48D-01 -2.34D+00
 E= -190.937343787936     Delta-E=        0.000068300455 Rises=F Damp=F
 DIIS: error= 3.01D-04 at cycle  10 NSaved=   3.
 NSaved= 3 IEnMin= 2 EnMin= -190.937412088392     IErMin= 1 ErrMin= 2.36D-04
 ErrMax= 3.01D-04  0.00D+00 EMaxC= 1.00D-01 BMatC= 3.27D-05 BMatP= 2.85D-05
 IDIUse=3 WtCom= 9.98D-01 WtEn= 2.36D-03
 Large coefficients: NSaved=  3 BigCof=   37.26 CofMax=   10.00 Det=-1.50D-08
 Inversion failed.  Reducing to  2 matrices.
 Coeff-Com:  0.636D+00 0.364D+00
 Coeff-En:   0.000D+00 0.100D+01
 Coeff:      0.635D+00 0.365D+00
 Gap=     0.106 Goal=   None    Shift=    0.000
 Gap=     0.155 Goal=   None    Shift=    0.000
 RMSDP=2.24D-04 MaxDP=2.91D-02 DE= 6.83D-05 OVMax= 1.41D-02

 Cycle  11  Pass 1  IDiag  1:
 RMSU=  5.15D-06    CP:  1.10D+00  1.65D+00  7.38D-01  2.33D-01  7.27D-01
                    CP:  2.71D+00  3.00D+00  2.07D+00  3.00D+00 -1.56D-01
 E= -190.937501481235     Delta-E=       -0.000157693299 Rises=F Damp=F
 DIIS: error= 3.06D-04 at cycle  11 NSaved=   3.
 NSaved= 3 IEnMin= 3 EnMin= -190.937501481235     IErMin= 1 ErrMin= 2.38D-04
 ErrMax= 3.06D-04  0.00D+00 EMaxC= 1.00D-01 BMatC= 3.80D-05 BMatP= 2.93D-05
 IDIUse=3 WtCom= 9.98D-01 WtEn= 2.36D-03
 Coeff-Com:  0.267D+01-0.576D-01-0.162D+01
 Coeff-En:   0.000D+00 0.000D+00 0.100D+01
 Coeff:      0.267D+01-0.575D-01-0.161D+01
 Gap=     0.105 Goal=   None    Shift=    0.000
 Gap=     0.155 Goal=   None    Shift=    0.000
 RMSDP=1.81D-04 MaxDP=2.58D-02 DE=-1.58D-04 OVMax= 1.22D-02

 Cycle  12  Pass 1  IDiag  1:
 RMSU=  4.26D-06    CP:  1.10D+00  1.66D+00  7.31D-01  2.33D-01  7.23D-01
                    CP:  1.82D+00  1.47D+00  7.40D-01 -2.06D+00  1.70D-01
                    CP:  1.92D-01
 E= -190.937368876663     Delta-E=        0.000132604572 Rises=F Damp=F
 DIIS: error= 3.92D-04 at cycle  12 NSaved=   4.
 NSaved= 4 IEnMin= 3 EnMin= -190.937501481235     IErMin= 1 ErrMin= 2.38D-04
 ErrMax= 3.92D-04  0.00D+00 EMaxC= 1.00D-01 BMatC= 4.56D-05 BMatP= 2.93D-05
 IDIUse=3 WtCom= 9.98D-01 WtEn= 2.36D-03
 Rare condition: small coef for last iteration:  0.000D+00
 Coeff-Com:  0.511D+01-0.489D+00-0.472D+01 0.109D+01
 Coeff-En:   0.000D+00 0.000D+00 0.000D+00 0.100D+01
 Coeff:      0.511D+01-0.489D+00-0.472D+01 0.109D+01
 Gap=     0.103 Goal=   None    Shift=    0.000
 Gap=     0.156 Goal=   None    Shift=    0.000
 RMSDP=4.66D-04 MaxDP=6.17D-02 DE= 1.33D-04 OVMax= 3.07D-02

 Cycle  13  Pass 1  IDiag  1:
 RMSU=  2.77D-05    CP:  1.10D+00  1.63D+00  7.30D-01  2.25D-01  6.75D-01
                    CP: -4.81D-01 -2.41D+00 -2.57D+00 -3.00D+00  2.12D+00
                    CP: -3.00D+00  1.93D+00
 E= -190.937137905198     Delta-E=        0.000230971465 Rises=F Damp=F
 DIIS: error= 2.56D-04 at cycle  13 NSaved=   5.
 NSaved= 5 IEnMin= 3 EnMin= -190.937501481235     IErMin= 1 ErrMin= 2.38D-04
 ErrMax= 2.56D-04  0.00D+00 EMaxC= 1.00D-01 BMatC= 3.08D-05 BMatP= 2.93D-05
 IDIUse=3 WtCom= 9.98D-01 WtEn= 2.36D-03
 Rare condition: small coef for last iteration:  0.000D+00
 Coeff-Com:  0.288D+01-0.174D+00-0.384D+01 0.143D+01 0.702D+00
 Coeff-En:   0.000D+00 0.000D+00 0.000D+00 0.000D+00 0.100D+01
 Coeff:      0.288D+01-0.174D+00-0.384D+01 0.143D+01 0.702D+00
 Gap=     0.102 Goal=   None    Shift=    0.000
 Gap=     0.158 Goal=   None    Shift=    0.000
 RMSDP=3.63D-04 MaxDP=4.76D-02 DE= 2.31D-04 OVMax= 2.35D-02

 Cycle  14  Pass 1  IDiag  1:
 RMSU=  1.84D-04    CP:  1.10D+00  1.63D+00  7.19D-01  2.18D-01  6.24D-01
                    CP: -2.30D+00 -3.00D+00 -3.00D+00 -3.00D+00  3.00D+00
                    CP: -3.00D+00  3.00D+00  1.88D+00
 E= -190.937069074747     Delta-E=        0.000068830451 Rises=F Damp=F
 DIIS: error= 9.00D-05 at cycle  14 NSaved=   6.
 NSaved= 6 IEnMin= 3 EnMin= -190.937501481235     IErMin= 6 ErrMin= 9.00D-05
 ErrMax= 9.00D-05  0.00D+00 EMaxC= 1.00D-01 BMatC= 6.19D-06 BMatP= 2.93D-05
 IDIUse=1 WtCom= 1.00D+00 WtEn= 0.00D+00
 Coeff-Com:  0.691D+00 0.219D-02-0.137D+01 0.763D+00 0.187D+00 0.730D+00
 Coeff:      0.691D+00 0.219D-02-0.137D+01 0.763D+00 0.187D+00 0.730D+00
 Gap=     0.102 Goal=   None    Shift=    0.000
 Gap=     0.158 Goal=   None    Shift=    0.000
 RMSDP=6.50D-05 MaxDP=8.38D-03 DE= 6.88D-05 OVMax= 4.13D-03

 Cycle  15  Pass 1  IDiag  1:
 RMSU=  1.07D-05    CP:  1.10D+00  1.64D+00  7.17D-01  2.17D-01  6.15D-01
                    CP: -2.62D+00 -3.00D+00 -3.00D+00 -3.00D+00  3.00D+00
                    CP: -3.00D+00  3.00D+00  2.05D+00  1.22D+00
 E= -190.937066555257     Delta-E=        0.000002519490 Rises=F Damp=F
 DIIS: error= 5.90D-05 at cycle  15 NSaved=   7.
 NSaved= 7 IEnMin= 3 EnMin= -190.937501481235     IErMin= 7 ErrMin= 5.90D-05
 ErrMax= 5.90D-05  0.00D+00 EMaxC= 1.00D-01 BMatC= 3.18D-06 BMatP= 6.19D-06
 IDIUse=1 WtCom= 1.00D+00 WtEn= 0.00D+00
 Coeff-Com: -0.111D+01 0.115D+00 0.110D+01-0.162D+00-0.370D+00 0.686D+00
 Coeff-Com:  0.741D+00
 Coeff:     -0.111D+01 0.115D+00 0.110D+01-0.162D+00-0.370D+00 0.686D+00
 Coeff:      0.741D+00
 Gap=     0.102 Goal=   None    Shift=    0.000
 Gap=     0.158 Goal=   None    Shift=    0.000
 RMSDP=3.62D-05 MaxDP=5.27D-03 DE= 2.52D-06 OVMax= 2.44D-03

 Cycle  16  Pass 1  IDiag  1:
 RMSU=  6.78D-06    CP:  1.10D+00  1.64D+00  7.14D-01  2.18D-01  6.12D-01
                    CP: -2.79D+00 -3.00D+00 -3.00D+00 -3.00D+00  3.00D+00
                    CP: -3.00D+00  3.00D+00  2.16D+00  1.34D+00  9.33D-01
 E= -190.937066508925     Delta-E=        0.000000046331 Rises=F Damp=F
 DIIS: error= 4.01D-05 at cycle  16 NSaved=   8.
 NSaved= 8 IEnMin= 3 EnMin= -190.937501481235     IErMin= 8 ErrMin= 4.01D-05
 ErrMax= 4.01D-05  0.00D+00 EMaxC= 1.00D-01 BMatC= 9.90D-07 BMatP= 3.18D-06
 IDIUse=1 WtCom= 1.00D+00 WtEn= 0.00D+00
 Coeff-Com: -0.582D+00 0.676D-01 0.613D+00-0.173D+00-0.115D+00 0.235D+00
 Coeff-Com:  0.387D+00 0.567D+00
 Coeff:     -0.582D+00 0.676D-01 0.613D+00-0.173D+00-0.115D+00 0.235D+00
 Coeff:      0.387D+00 0.567D+00
 Gap=     0.102 Goal=   None    Shift=    0.000
 Gap=     0.158 Goal=   None    Shift=    0.000
 RMSDP=1.18D-05 MaxDP=1.81D-03 DE= 4.63D-08 OVMax= 7.85D-04

 Cycle  17  Pass 1  IDiag  1:
 RMSU=  1.38D-06    CP:  1.10D+00  1.64D+00  7.15D-01  2.17D-01  6.09D-01
                    CP: -2.85D+00 -3.00D+00 -3.00D+00 -3.00D+00  3.00D+00
                    CP: -3.00D+00  3.00D+00  2.20D+00  1.37D+00  1.03D+00
                    CP:  9.63D-01
 E= -190.937066676307     Delta-E=       -0.000000167381 Rises=F Damp=F
 DIIS: error= 1.21D-05 at cycle  17 NSaved=   9.
 NSaved= 9 IEnMin= 3 EnMin= -190.937501481235     IErMin= 9 ErrMin= 1.21D-05
 ErrMax= 1.21D-05  0.00D+00 EMaxC= 1.00D-01 BMatC= 1.07D-07 BMatP= 9.90D-07
 IDIUse=1 WtCom= 1.00D+00 WtEn= 0.00D+00
 Coeff-Com: -0.161D+00 0.240D-01 0.156D+00-0.580D-01 0.129D-01 0.413D-01
 Coeff-Com:  0.662D-01 0.635D-01 0.855D+00
 Coeff:     -0.161D+00 0.240D-01 0.156D+00-0.580D-01 0.129D-01 0.413D-01
 Coeff:      0.662D-01 0.635D-01 0.855D+00
 Gap=     0.102 Goal=   None    Shift=    0.000
 Gap=     0.158 Goal=   None    Shift=    0.000
 RMSDP=4.95D-06 MaxDP=7.64D-04 DE=-1.67D-07 OVMax= 3.13D-04

 Cycle  18  Pass 1  IDiag  1:
 RMSU=  6.54D-07    CP:  1.10D+00  1.64D+00  7.15D-01  2.17D-01  6.08D-01
                    CP: -2.87D+00 -3.00D+00 -3.00D+00 -3.00D+00  3.00D+00
                    CP: -3.00D+00  3.00D+00  2.22D+00  1.39D+00  1.05D+00
                    CP:  1.01D+00  1.42D+00
 E= -190.937066702307     Delta-E=       -0.000000026000 Rises=F Damp=F
 DIIS: error= 2.65D-06 at cycle  18 NSaved=  10.
 NSaved=10 IEnMin= 3 EnMin= -190.937501481235     IErMin=10 ErrMin= 2.65D-06
 ErrMax= 2.65D-06  0.00D+00 EMaxC= 1.00D-01 BMatC= 6.87D-09 BMatP= 1.07D-07
 IDIUse=1 WtCom= 1.00D+00 WtEn= 0.00D+00
 Coeff-Com:  0.500D-01-0.689D-02-0.539D-01 0.133D-01 0.199D-01-0.295D-01
 Coeff-Com: -0.637D-01-0.149D+00 0.266D+00 0.953D+00
 Coeff:      0.500D-01-0.689D-02-0.539D-01 0.133D-01 0.199D-01-0.295D-01
 Coeff:     -0.637D-01-0.149D+00 0.266D+00 0.953D+00
 Gap=     0.102 Goal=   None    Shift=    0.000
 Gap=     0.158 Goal=   None    Shift=    0.000
 RMSDP=2.77D-06 MaxDP=3.55D-04 DE=-2.60D-08 OVMax= 1.74D-04

 Cycle  19  Pass 1  IDiag  1:
 RMSU=  3.87D-07    CP:  1.10D+00  1.64D+00  7.15D-01  2.17D-01  6.07D-01
                    CP: -2.88D+00 -3.00D+00 -3.00D+00 -3.00D+00  3.00D+00
                    CP: -3.00D+00  3.00D+00  2.23D+00  1.40D+00  1.07D+00
                    CP:  1.08D+00  1.87D+00  1.62D+00
 E= -190.937066710008     Delta-E=       -0.000000007701 Rises=F Damp=F
 DIIS: error= 1.99D-06 at cycle  19 NSaved=  11.
 NSaved=11 IEnMin= 3 EnMin= -190.937501481235     IErMin=11 ErrMin= 1.99D-06
 ErrMax= 1.99D-06  0.00D+00 EMaxC= 1.00D-01 BMatC= 2.71D-09 BMatP= 6.87D-09
 IDIUse=1 WtCom= 1.00D+00 WtEn= 0.00D+00
 Coeff-Com:  0.460D-01-0.634D-02-0.411D-01 0.133D-01-0.708D-02-0.138D-01
 Coeff-Com: -0.116D-01 0.201D-01-0.205D+00-0.134D+00 0.134D+01
 Coeff:      0.460D-01-0.634D-02-0.411D-01 0.133D-01-0.708D-02-0.138D-01
 Coeff:     -0.116D-01 0.201D-01-0.205D+00-0.134D+00 0.134D+01
 Gap=     0.102 Goal=   None    Shift=    0.000
 Gap=     0.158 Goal=   None    Shift=    0.000
 RMSDP=9.73D-07 MaxDP=7.18D-05 DE=-7.70D-09 OVMax= 7.61D-05

 Cycle  20  Pass 1  IDiag  1:
 RMSU=  1.69D-07    CP:  1.10D+00  1.64D+00  7.15D-01  2.17D-01  6.07D-01
                    CP: -2.88D+00 -3.00D+00 -3.00D+00 -3.00D+00  3.00D+00
                    CP: -3.00D+00  3.00D+00  2.24D+00  1.40D+00  1.09D+00
                    CP:  1.14D+00  2.17D+00  2.20D+00  2.08D+00
 E= -190.937066714570     Delta-E=       -0.000000004562 Rises=F Damp=F
 DIIS: error= 8.21D-07 at cycle  20 NSaved=  12.
 NSaved=12 IEnMin= 3 EnMin= -190.937501481235     IErMin=12 ErrMin= 8.21D-07
 ErrMax= 8.21D-07  0.00D+00 EMaxC= 1.00D-01 BMatC= 4.65D-10 BMatP= 2.71D-09
 IDIUse=1 WtCom= 1.00D+00 WtEn= 0.00D+00
 Coeff-Com:  0.199D-01-0.212D-02-0.199D-01 0.672D-02-0.157D-02-0.344D-02
 Coeff-Com:  0.240D-02 0.347D-01-0.114D+00-0.309D+00 0.308D+00 0.108D+01
 Coeff:      0.199D-01-0.212D-02-0.199D-01 0.672D-02-0.157D-02-0.344D-02
 Coeff:      0.240D-02 0.347D-01-0.114D+00-0.309D+00 0.308D+00 0.108D+01
 Gap=     0.102 Goal=   None    Shift=    0.000
 Gap=     0.158 Goal=   None    Shift=    0.000
 RMSDP=5.24D-07 MaxDP=2.74D-05 DE=-4.56D-09 OVMax= 3.90D-05

 Cycle  21  Pass 1  IDiag  1:
 Restarting incremental Fock formation.
 E= -190.937066715609     Delta-E=       -0.000000001039 Rises=F Damp=F
 DIIS: error= 3.49D-07 at cycle  21 NSaved=  13.
 NSaved=13 IEnMin= 3 EnMin= -190.937501481235     IErMin=13 ErrMin= 3.49D-07
 ErrMax= 3.49D-07  0.00D+00 EMaxC= 1.00D-01 BMatC= 6.74D-11 BMatP= 4.65D-10
 IDIUse=1 WtCom= 1.00D+00 WtEn= 0.00D+00
 Coeff-Com: -0.119D-01 0.140D-02 0.123D-01-0.376D-02-0.743D-03 0.404D-02
 Coeff-Com:  0.632D-02 0.839D-02 0.252D-01-0.342D-01-0.203D+00 0.102D+00
 Coeff-Com:  0.109D+01
 Coeff:     -0.119D-01 0.140D-02 0.123D-01-0.376D-02-0.743D-03 0.404D-02
 Coeff:      0.632D-02 0.839D-02 0.252D-01-0.342D-01-0.203D+00 0.102D+00
 Coeff:      0.109D+01
 Gap=     0.102 Goal=   None    Shift=    0.000
 Gap=     0.158 Goal=   None    Shift=    0.000
 RMSDP=3.18D-07 MaxDP=4.16D-05 DE=-1.04D-09 OVMax= 2.99D-05

 Cycle  22  Pass 1  IDiag  1:
 RMSU=  3.18D-07    CP:  1.00D+00
 E= -190.937066715665     Delta-E=       -0.000000000056 Rises=F Damp=F
 DIIS: error= 2.41D-07 at cycle  22 NSaved=  14.
 NSaved=14 IEnMin= 3 EnMin= -190.937501481235     IErMin=14 ErrMin= 2.41D-07
 ErrMax= 2.41D-07  0.00D+00 EMaxC= 1.00D-01 BMatC= 2.89D-11 BMatP= 6.74D-11
 IDIUse=1 WtCom= 1.00D+00 WtEn= 0.00D+00
 Coeff-Com: -0.487D-02 0.572D-03 0.469D-02-0.131D-02 0.266D-04 0.160D-02
 Coeff-Com:  0.136D-02-0.209D-02 0.997D-02 0.181D-01-0.648D-01-0.654D-01
 Coeff-Com:  0.330D+00 0.772D+00
 Coeff:     -0.487D-02 0.572D-03 0.469D-02-0.131D-02 0.266D-04 0.160D-02
 Coeff:      0.136D-02-0.209D-02 0.997D-02 0.181D-01-0.648D-01-0.654D-01
 Coeff:      0.330D+00 0.772D+00
 Gap=     0.102 Goal=   None    Shift=    0.000
 Gap=     0.158 Goal=   None    Shift=    0.000
 RMSDP=5.83D-08 MaxDP=8.77D-06 DE=-5.60D-11 OVMax= 3.83D-06

 Cycle  23  Pass 1  IDiag  1:
 RMSU=  3.91D-08    CP:  1.00D+00  8.64D-01
 E= -190.937066715668     Delta-E=       -0.000000000003 Rises=F Damp=F
 DIIS: error= 7.09D-08 at cycle  23 NSaved=  15.
 NSaved=15 IEnMin= 3 EnMin= -190.937501481235     IErMin=15 ErrMin= 7.09D-08
 ErrMax= 7.09D-08  0.00D+00 EMaxC= 1.00D-01 BMatC= 2.72D-12 BMatP= 2.89D-11
 IDIUse=1 WtCom= 1.00D+00 WtEn= 0.00D+00
 Coeff-Com:  0.453D-03-0.419D-04-0.598D-03 0.203D-03 0.131D-03-0.126D-03
 Coeff-Com: -0.470D-03-0.163D-02-0.278D-02 0.733D-02 0.167D-01-0.261D-01
 Coeff-Com: -0.636D-01 0.691D-01 0.100D+01
 Coeff:      0.453D-03-0.419D-04-0.598D-03 0.203D-03 0.131D-03-0.126D-03
 Coeff:     -0.470D-03-0.163D-02-0.278D-02 0.733D-02 0.167D-01-0.261D-01
 Coeff:     -0.636D-01 0.691D-01 0.100D+01
 Gap=     0.102 Goal=   None    Shift=    0.000
 Gap=     0.158 Goal=   None    Shift=    0.000
 RMSDP=4.43D-08 MaxDP=6.62D-06 DE=-3.01D-12 OVMax= 3.06D-06

 Cycle  24  Pass 1  IDiag  1:
 RMSU=  4.65D-09    CP:  1.00D+00  7.46D-01  1.60D+00
 E= -190.937066715668     Delta-E=       -0.000000000000 Rises=F Damp=F
 DIIS: error= 1.85D-08 at cycle  24 NSaved=  16.
 NSaved=16 IEnMin= 3 EnMin= -190.937501481235     IErMin=16 ErrMin= 1.85D-08
 ErrMax= 1.85D-08  0.00D+00 EMaxC= 1.00D-01 BMatC= 2.32D-13 BMatP= 2.72D-12
 IDIUse=1 WtCom= 1.00D+00 WtEn= 0.00D+00
 Coeff-Com:  0.303D-03-0.426D-04-0.253D-03 0.519D-04-0.339D-04-0.112D-03
 Coeff-Com: -0.207D-04 0.462D-03-0.328D-03-0.256D-02 0.393D-02 0.739D-02
 Coeff-Com: -0.261D-01-0.596D-01 0.656D-01 0.101D+01
 Coeff:      0.303D-03-0.426D-04-0.253D-03 0.519D-04-0.339D-04-0.112D-03
 Coeff:     -0.207D-04 0.462D-03-0.328D-03-0.256D-02 0.393D-02 0.739D-02
 Coeff:     -0.261D-01-0.596D-01 0.656D-01 0.101D+01
 Gap=     0.102 Goal=   None    Shift=    0.000
 Gap=     0.158 Goal=   None    Shift=    0.000
 RMSDP=2.25D-09 MaxDP=3.35D-07 DE=-1.71D-13 OVMax= 1.40D-07

 SCF Done:  E(UB3LYP) =  -190.937066716     A.U. after   24 cycles
            NFock= 24  Conv=0.23D-08     -V/T= 2.0044
 <Sx>= 0.0000 <Sy>= 0.0000 <Sz>= 0.5000 <S**2>= 0.7579 S= 0.5040
 <L.S>= 0.000000000000E+00
 KE= 1.901093722714D+02 PE=-6.906146654819D+02 EE= 1.736593966356D+02
 Annihilation of the first spin contaminant:
 S**2 before annihilation     0.7579,   after     0.7500
 Leave Link  502 at Mon Jun 20 10:55:03 2016, MaxMem=    33554432 cpu:      1139.6
 (Enter /home/proyectos/fulerenos/M3C-v1.9/M3C-deps_CCC/g09-AM64L-G09RevC.01/l801.exe)
 DoSCS=F DFT=T ScalE2(SS,OS)=  1.000000  1.000000
 Range of M.O.s used for correlation:     1   235
 NBasis=   235 NAE=    16 NBE=    15 NFC=     0 NFV=     0
 NROrb=    235 NOA=    16 NOB=    15 NVA=   219 NVB=   220

 **** Warning!!: The largest alpha MO coefficient is  0.79543980D+02


 **** Warning!!: The largest beta MO coefficient is  0.84413063D+02

 Leave Link  801 at Mon Jun 20 10:55:03 2016, MaxMem=    33554432 cpu:         0.1
 (Enter /home/proyectos/fulerenos/M3C-v1.9/M3C-deps_CCC/g09-AM64L-G09RevC.01/l1101.exe)
 Using compressed storage, NAtomX=     9.
 Will process     10 centers per pass.
 Leave Link 1101 at Mon Jun 20 10:55:04 2016, MaxMem=    33554432 cpu:         1.7
 (Enter /home/proyectos/fulerenos/M3C-v1.9/M3C-deps_CCC/g09-AM64L-G09RevC.01/l1102.exe)
 Symmetrizing basis deriv contribution to polar:
 IMax=3 JMax=2 DiffMx= 0.00D+00
 Leave Link 1102 at Mon Jun 20 10:55:04 2016, MaxMem=    33554432 cpu:         0.3
 (Enter /home/proyectos/fulerenos/M3C-v1.9/M3C-deps_CCC/g09-AM64L-G09RevC.01/l1110.exe)
 Forming Gx(P) for the SCF density, NAtomX=     9.
 Integral derivatives from FoFJK, PRISM(SPDF).
 Do as many integral derivatives as possible in FoFJK.
 G2DrvN: MDV=      33554256.
 G2DrvN: will do    10 centers at a time, making    1 passes.
 Calling FoFCou, ICntrl=  3107 FMM=F I1Cent=   0 AccDes= 0.00D+00.
 FoFJK:  IHMeth= 1 ICntrl=    3107 DoSepK=F KAlg= 0 I1Cent=   0 FoldK=F
 IRaf=         0 NMat=   1 IRICut=       1 DoRegI=T DoRafI=F ISym2E= 0.
 FoFCou: FMM=F IPFlag=           0 FMFlag=      100000 FMFlg1=           0
         NFxFlg=           0 DoJE=F BraDBF=F KetDBF=F FulRan=T
         wScrn=  0.000000 ICntrl=    3107 IOpCl=  1 I1Cent=           0 NGrid=           0
         NMat0=    1 NMatS0=      1 NMatT0=    0 NMatD0=    1 NMtDS0=    0 NMtDT0=    0
 Symmetry not used in FoFCou.
 End of G2Drv F.D. properties file   721 does not exist.
 End of G2Drv F.D. properties file   722 does not exist.
 End of G2Drv F.D. properties file   788 does not exist.
 Leave Link 1110 at Mon Jun 20 10:57:14 2016, MaxMem=    33554432 cpu:       516.3
 (Enter /home/proyectos/fulerenos/M3C-v1.9/M3C-deps_CCC/g09-AM64L-G09RevC.01/l1002.exe)
 Minotr:  UHF open shell wavefunction.
          IDoAtm=111111111
          Direct CPHF calculation.
          Differentiating once with respect to electric field.
                with respect to dipole field.
          Differentiating once with respect to nuclear coordinates.
          Requested convergence is 1.0D-08 RMS, and 1.0D-07 maximum.
          Secondary convergence is 1.0D-12 RMS, and 1.0D-12 maximum.
          NewPWx=T KeepS1=F KeepF1=F KeepIn=T MapXYZ=F SortEE=F KeepMc=T.
          MDV=      33553868 using IRadAn=       2.
 Generate precomputed XC quadrature information.
          Solving linear equations simultaneously, MaxMat=       0.
 FoFJK:  IHMeth= 1 ICntrl=       0 DoSepK=F KAlg= 0 I1Cent=   0 FoldK=F
 IRaf= 980000000 NMat=  30 IRICut=      75 DoRegI=T DoRafI=T ISym2E= 2.
 FoFCou: FMM=F IPFlag=           0 FMFlag=      100000 FMFlg1=           0
         NFxFlg=           0 DoJE=F BraDBF=F KetDBF=F FulRan=T
         wScrn=  0.000000 ICntrl=       0 IOpCl=  1 I1Cent=           0 NGrid=           0
         NMat0=   30 NMatS0=     30 NMatT0=    0 NMatD0=   30 NMtDS0=    0 NMtDT0=    0
 Integrals replicated using symmetry in FoFCou.
          There are    30 degrees of freedom in the 1st order CPHF.  IDoFFX=6 NUNeed=     3.
     27 vectors produced by pass  0 Test12= 2.27D-14 3.33D-09 XBig12= 1.60D+02 4.45D+00.
 AX will form    27 AO Fock derivatives at one time.
     27 vectors produced by pass  1 Test12= 2.27D-14 3.33D-09 XBig12= 1.38D+02 3.63D+00.
     27 vectors produced by pass  2 Test12= 2.27D-14 3.33D-09 XBig12= 2.79D+00 3.04D-01.
     27 vectors produced by pass  3 Test12= 2.27D-14 3.33D-09 XBig12= 4.93D-02 5.21D-02.
     27 vectors produced by pass  4 Test12= 2.27D-14 3.33D-09 XBig12= 3.10D-04 2.37D-03.
     27 vectors produced by pass  5 Test12= 2.27D-14 3.33D-09 XBig12= 1.35D-06 1.86D-04.
     23 vectors produced by pass  6 Test12= 2.27D-14 3.33D-09 XBig12= 8.50D-09 1.31D-05.
      9 vectors produced by pass  7 Test12= 2.27D-14 3.33D-09 XBig12= 4.77D-11 1.06D-06.
      3 vectors produced by pass  8 Test12= 2.27D-14 3.33D-09 XBig12= 1.45D-13 3.94D-08.
      2 vectors produced by pass  9 Test12= 2.27D-14 3.33D-09 XBig12= 1.29D-14 1.67D-08.
 InvSVY:  IOpt=1 It=  1 EMax= 2.37D-15
 Solved reduced A of dimension   199 with    30 vectors.
 FullF1:  Do perturbations    1 to     3.
 Isotropic polarizability for W=    0.000000       37.55 Bohr**3.
 End of Minotr F.D. properties file   721 does not exist.
 End of Minotr F.D. properties file   722 does not exist.
 End of Minotr F.D. properties file   788 does not exist.
 Leave Link 1002 at Mon Jun 20 11:05:30 2016, MaxMem=    33554432 cpu:      1986.5
 (Enter /home/proyectos/fulerenos/M3C-v1.9/M3C-deps_CCC/g09-AM64L-G09RevC.01/l601.exe)
 Copying SCF densities to generalized density rwf, IOpCl= 1 IROHF=0.

 **********************************************************************

            Population analysis using the SCF density.

 **********************************************************************

 Orbital symmetries:
 Alpha Orbitals:
       Occupied  (A) (A) (A) (A) (A) (A) (A) (A) (A) (A) (A) (A)
                 (A) (A) (A) (A)
       Virtual   (A) (A) (A) (A) (A) (A) (A) (A) (A) (A) (A) (A)
                 (A) (A) (A) (A) (A) (A) (A) (A) (A) (A) (A) (A)
                 (A) (A) (A) (A) (A) (A) (A) (A) (A) (A) (A) (A)
                 (A) (A) (A) (A) (A) (A) (A) (A) (A) (A) (A) (A)
                 (A) (A) (A) (A) (A) (A) (A) (A) (A) (A) (A) (A)
                 (A) (A) (A) (A) (A) (A) (A) (A) (A) (A) (A) (A)
                 (A) (A) (A) (A) (A) (A) (A) (A) (A) (A) (A) (A)
                 (A) (A) (A) (A) (A) (A) (A) (A) (A) (A) (A) (A)
                 (A) (A) (A) (A) (A) (A) (A) (A) (A) (A) (A) (A)
                 (A) (A) (A) (A) (A) (A) (A) (A) (A) (A) (A) (A)
                 (A) (A) (A) (A) (A) (A) (A) (A) (A) (A) (A) (A)
                 (A) (A) (A) (A) (A) (A) (A) (A) (A) (A) (A) (A)
                 (A) (A) (A) (A) (A) (A) (A) (A) (A) (A) (A) (A)
                 (A) (A) (A) (A) (A) (A) (A) (A) (A) (A) (A) (A)
                 (A) (A) (A) (A) (A) (A) (A) (A) (A) (A) (A) (A)
                 (A) (A) (A) (A) (A) (A) (A) (A) (A) (A) (A) (A)
                 (A) (A) (A) (A) (A) (A) (A) (A) (A) (A) (A) (A)
                 (A) (A) (A) (A) (A) (A) (A) (A) (A) (A) (A) (A)
                 (A) (A) (A)
 Beta  Orbitals:
       Occupied  (A) (A) (A) (A) (A) (A) (A) (A) (A) (A) (A) (A)
                 (A) (A) (A)
       Virtual   (A) (A) (A) (A) (A) (A) (A) (A) (A) (A) (A) (A)
                 (A) (A) (A) (A) (A) (A) (A) (A) (A) (A) (A) (A)
                 (A) (A) (A) (A) (A) (A) (A) (A) (A) (A) (A) (A)
                 (A) (A) (A) (A) (A) (A) (A) (A) (A) (A) (A) (A)
                 (A) (A) (A) (A) (A) (A) (A) (A) (A) (A) (A) (A)
                 (A) (A) (A) (A) (A) (A) (A) (A) (A) (A) (A) (A)
                 (A) (A) (A) (A) (A) (A) (A) (A) (A) (A) (A) (A)
                 (A) (A) (A) (A) (A) (A) (A) (A) (A) (A) (A) (A)
                 (A) (A) (A) (A) (A) (A) (A) (A) (A) (A) (A) (A)
                 (A) (A) (A) (A) (A) (A) (A) (A) (A) (A) (A) (A)
                 (A) (A) (A) (A) (A) (A) (A) (A) (A) (A) (A) (A)
                 (A) (A) (A) (A) (A) (A) (A) (A) (A) (A) (A) (A)
                 (A) (A) (A) (A) (A) (A) (A) (A) (A) (A) (A) (A)
                 (A) (A) (A) (A) (A) (A) (A) (A) (A) (A) (A) (A)
                 (A) (A) (A) (A) (A) (A) (A) (A) (A) (A) (A) (A)
                 (A) (A) (A) (A) (A) (A) (A) (A) (A) (A) (A) (A)
                 (A) (A) (A) (A) (A) (A) (A) (A) (A) (A) (A) (A)
                 (A) (A) (A) (A) (A) (A) (A) (A) (A) (A) (A) (A)
                 (A) (A) (A) (A)
 The electronic state is 2-A.
 Alpha  occ. eigenvalues --  -11.07178 -11.07160 -11.04764 -11.01784 -10.96215
 Alpha  occ. eigenvalues --   -1.76499  -1.52533  -1.42123  -1.31051  -1.23566
 Alpha  occ. eigenvalues --   -1.23160  -1.16450  -1.14878  -1.10159  -1.08356
 Alpha  occ. eigenvalues --   -1.02872
 Alpha virt. eigenvalues --   -0.92715  -0.80818  -0.75850  -0.71507  -0.58715
 Alpha virt. eigenvalues --   -0.56172  -0.55573  -0.52344  -0.51424  -0.46625
 Alpha virt. eigenvalues --   -0.45066  -0.44171  -0.41640  -0.41071  -0.39169
 Alpha virt. eigenvalues --   -0.38817  -0.38507  -0.36874  -0.35242  -0.33268
 Alpha virt. eigenvalues --   -0.31112  -0.30524  -0.29923  -0.29426  -0.27051
 Alpha virt. eigenvalues --   -0.26508  -0.26219  -0.25475  -0.24671  -0.23814
 Alpha virt. eigenvalues --   -0.23734  -0.23460  -0.21336  -0.21176  -0.19379
 Alpha virt. eigenvalues --   -0.18324  -0.17284  -0.16285  -0.15715  -0.14736
 Alpha virt. eigenvalues --   -0.14382  -0.12645  -0.11251  -0.09291  -0.09034
 Alpha virt. eigenvalues --   -0.07141  -0.06320  -0.06117  -0.04546  -0.04539
 Alpha virt. eigenvalues --   -0.03449  -0.02511  -0.02026  -0.00298  -0.00228
 Alpha virt. eigenvalues --    0.00235   0.02286   0.02509   0.04063   0.04344
 Alpha virt. eigenvalues --    0.05236   0.06736   0.07291   0.09857   0.11210
 Alpha virt. eigenvalues --    0.12112   0.14118   0.14990   0.16741   0.18919
 Alpha virt. eigenvalues --    0.20961   0.21939   0.22778   0.28990   0.30621
 Alpha virt. eigenvalues --    0.32072   0.32992   0.37026   0.40541   0.42987
 Alpha virt. eigenvalues --    0.46201   0.48796   0.50278   0.52916   0.56113
 Alpha virt. eigenvalues --    0.58204   0.59576   0.60607   0.62574   0.63828
 Alpha virt. eigenvalues --    0.66688   0.67618   0.68839   0.70263   0.70948
 Alpha virt. eigenvalues --    0.73756   0.74783   0.79027   0.80478   0.83275
 Alpha virt. eigenvalues --    0.85818   0.86854   0.90265   0.93781   1.02088
 Alpha virt. eigenvalues --    1.05196   1.06256   1.09267   1.17181   1.17197
 Alpha virt. eigenvalues --    1.20719   1.26406   1.28272   1.29630   1.34980
 Alpha virt. eigenvalues --    1.41643   1.43107   1.46710   1.48971   1.52696
 Alpha virt. eigenvalues --    1.56973   1.60986   1.63702   1.88683   1.90718
 Alpha virt. eigenvalues --    1.94133   1.98373   2.02819   2.04202   2.05837
 Alpha virt. eigenvalues --    2.08473   2.11535   2.12283   2.15703   2.19935
 Alpha virt. eigenvalues --    2.20993   2.26319   2.26487   2.29512   2.31596
 Alpha virt. eigenvalues --    2.34650   2.38619   2.43675   2.43886   2.46008
 Alpha virt. eigenvalues --    2.46543   2.49605   2.52363   2.55772   2.56097
 Alpha virt. eigenvalues --    2.61851   2.62998   2.65296   2.74067   2.79160
 Alpha virt. eigenvalues --    2.80969   2.82535   2.96694   2.97256   3.02277
 Alpha virt. eigenvalues --    3.09543   3.14788   3.15446   3.19975   3.23957
 Alpha virt. eigenvalues --    3.35177   3.36042   3.37394   3.40593   3.43280
 Alpha virt. eigenvalues --    3.52791   3.57806   3.61147   3.67387   3.73326
 Alpha virt. eigenvalues --    3.77743   3.81001   3.83707   3.87994   3.90943
 Alpha virt. eigenvalues --    4.16545   4.25540   4.28373   4.31796   4.37342
 Alpha virt. eigenvalues --    4.53397   4.77055   4.79140   4.97839   6.23893
 Alpha virt. eigenvalues --    6.25740   6.26781   6.27037   6.38346   6.44657
 Alpha virt. eigenvalues --    6.49201   6.55233   6.58053   6.63211   6.65662
 Alpha virt. eigenvalues --    6.71455   6.71897   6.76863   6.85968   6.87418
 Alpha virt. eigenvalues --    6.91472   6.93022   7.18059   7.23030   7.39316
 Alpha virt. eigenvalues --    7.39357   7.57678   7.72215   7.98678  22.92710
 Alpha virt. eigenvalues --   23.31783  23.70278  25.08870  25.32635
  Beta  occ. eigenvalues --  -11.07139 -11.07119 -11.04555 -11.01877 -10.95041
  Beta  occ. eigenvalues --   -1.76429  -1.50990  -1.39378  -1.30986  -1.23182
  Beta  occ. eigenvalues --   -1.22055  -1.15411  -1.14023  -1.09721  -1.07929
  Beta virt. eigenvalues --   -0.92111  -0.88500  -0.80798  -0.74912  -0.70990
  Beta virt. eigenvalues --   -0.57286  -0.55309  -0.53796  -0.50770  -0.49950
  Beta virt. eigenvalues --   -0.46510  -0.44267  -0.43834  -0.41400  -0.40729
  Beta virt. eigenvalues --   -0.38845  -0.38705  -0.38340  -0.36487  -0.34692
  Beta virt. eigenvalues --   -0.32918  -0.30831  -0.30317  -0.29695  -0.29323
  Beta virt. eigenvalues --   -0.26856  -0.26277  -0.25750  -0.25384  -0.24570
  Beta virt. eigenvalues --   -0.23696  -0.23393  -0.22940  -0.21164  -0.21047
  Beta virt. eigenvalues --   -0.19250  -0.18324  -0.17072  -0.16186  -0.15615
  Beta virt. eigenvalues --   -0.14642  -0.13383  -0.12466  -0.10953  -0.08928
  Beta virt. eigenvalues --   -0.08746  -0.06975  -0.06008  -0.05878  -0.04314
  Beta virt. eigenvalues --   -0.04208  -0.03262  -0.02147  -0.01940  -0.00187
  Beta virt. eigenvalues --    0.00104   0.00446   0.02466   0.03438   0.04286
  Beta virt. eigenvalues --    0.05370   0.05728   0.06918   0.07544   0.10160
  Beta virt. eigenvalues --    0.11353   0.12887   0.14354   0.15623   0.16862
  Beta virt. eigenvalues --    0.19553   0.21165   0.22398   0.22993   0.29214
  Beta virt. eigenvalues --    0.30849   0.32360   0.33415   0.37917   0.40739
  Beta virt. eigenvalues --    0.43260   0.46445   0.49349   0.50548   0.53168
  Beta virt. eigenvalues --    0.56785   0.59459   0.59841   0.61932   0.63537
  Beta virt. eigenvalues --    0.64268   0.66794   0.68174   0.69455   0.70491
  Beta virt. eigenvalues --    0.71356   0.74217   0.75077   0.80165   0.81971
  Beta virt. eigenvalues --    0.83767   0.86484   0.87352   0.90712   0.94494
  Beta virt. eigenvalues --    1.02046   1.05653   1.07801   1.09640   1.17784
  Beta virt. eigenvalues --    1.18095   1.22012   1.27933   1.29013   1.30108
  Beta virt. eigenvalues --    1.35287   1.42487   1.44207   1.48121   1.49233
  Beta virt. eigenvalues --    1.53199   1.58062   1.61460   1.64278   1.90924
  Beta virt. eigenvalues --    1.92290   1.94356   1.98774   2.03689   2.04559
  Beta virt. eigenvalues --    2.06981   2.09778   2.13156   2.13419   2.16779
  Beta virt. eigenvalues --    2.20279   2.21276   2.27408   2.27476   2.30008
  Beta virt. eigenvalues --    2.32006   2.39347   2.39521   2.45290   2.45344
  Beta virt. eigenvalues --    2.46537   2.47888   2.49935   2.53505   2.56395
  Beta virt. eigenvalues --    2.57076   2.62187   2.64443   2.68037   2.75108
  Beta virt. eigenvalues --    2.79417   2.81240   2.82759   2.97963   2.98122
  Beta virt. eigenvalues --    3.02626   3.09896   3.15107   3.15778   3.19964
  Beta virt. eigenvalues --    3.24789   3.36031   3.37183   3.38918   3.41234
  Beta virt. eigenvalues --    3.44103   3.54368   3.59507   3.62374   3.68475
  Beta virt. eigenvalues --    3.73598   3.77946   3.82094   3.85209   3.88356
  Beta virt. eigenvalues --    3.91398   4.17106   4.26547   4.28737   4.34865
  Beta virt. eigenvalues --    4.38050   4.54962   4.77150   4.79227   4.98149
  Beta virt. eigenvalues --    6.24928   6.25623   6.27103   6.27322   6.40681
  Beta virt. eigenvalues --    6.45157   6.51578   6.55881   6.62067   6.63349
  Beta virt. eigenvalues --    6.68151   6.71718   6.72146   6.78982   6.86385
  Beta virt. eigenvalues --    6.87555   6.91962   6.96460   7.18490   7.23551
  Beta virt. eigenvalues --    7.39229   7.39694   7.57810   7.72725   7.98707
  Beta virt. eigenvalues --   22.92825  23.32620  23.70697  25.08921  25.32822
          Condensed to atoms (all electrons):
               1          2          3          4          5          6
     1  C    6.395404  -0.099889  -0.569957  -0.099783   0.463120  -0.203174
     2  C   -0.099889   6.587962   0.020318  -1.092946  -0.045775  -0.130833
     3  C   -0.569957   0.020318   6.362423   0.020223   0.002796   0.022630
     4  C   -0.099783  -1.092946   0.020223   6.587939  -0.045788  -0.130869
     5  H    0.463120  -0.045775   0.002796  -0.045788   0.343467  -0.060323
     6  C   -0.203174  -0.130833   0.022630  -0.130869  -0.060323   5.781135
     7  H   -0.037478   0.002189  -0.001540   0.006252  -0.003423   0.272063
     8  H   -0.078102   0.000164   0.000426   0.000160   0.000815   0.422121
     9  H   -0.037413   0.006252  -0.001536   0.002180  -0.003411   0.271954
               7          8          9
     1  C   -0.037478  -0.078102  -0.037413
     2  C    0.002189   0.000164   0.006252
     3  C   -0.001540   0.000426  -0.001536
     4  C    0.006252   0.000160   0.002180
     5  H   -0.003423   0.000815  -0.003411
     6  C    0.272063   0.422121   0.271954
     7  H    0.376811  -0.004436   0.076784
     8  H   -0.004436   0.309374  -0.004411
     9  H    0.076784  -0.004411   0.376768
          Atomic-Atomic Spin Densities.
               1          2          3          4          5          6
     1  C   -0.085735   0.031910  -0.010839   0.031830   0.003671  -0.029885
     2  C    0.031910   0.092139  -0.082509  -0.037770  -0.000354  -0.005555
     3  C   -0.010839  -0.082509   0.276570  -0.082581  -0.000349   0.002444
     4  C    0.031830  -0.037770  -0.082581   0.092478  -0.000344  -0.005631
     5  H    0.003671  -0.000354  -0.000349  -0.000344  -0.000185  -0.001400
     6  C   -0.029885  -0.005555   0.002444  -0.005631  -0.001400   0.672276
     7  H   -0.001506   0.001750   0.000414  -0.002632   0.000136   0.055839
     8  H    0.000880   0.000807  -0.000413   0.000814  -0.000256  -0.002740
     9  H   -0.001437  -0.002631   0.000418   0.001746   0.000146   0.055774
               7          8          9
     1  C   -0.001506   0.000880  -0.001437
     2  C    0.001750   0.000807  -0.002631
     3  C    0.000414  -0.000413   0.000418
     4  C   -0.002632   0.000814   0.001746
     5  H    0.000136  -0.000256   0.000146
     6  C    0.055839  -0.002740   0.055774
     7  H    0.108465   0.001143  -0.044715
     8  H    0.001143  -0.019216   0.001159
     9  H   -0.044715   0.001159   0.108541
 Mulliken charges and spin densities:
               1          2
     1  C    0.267273  -0.061111
     2  C    0.752558  -0.002213
     3  C    0.144218   0.103154
     4  C    0.752633  -0.002090
     5  H    0.348521   0.001067
     6  C   -0.244702   0.741122
     7  H    0.312778   0.118893
     8  H    0.353889  -0.017823
     9  H    0.312832   0.119001
 Sum of Mulliken charges =   3.00000   1.00000
 Mulliken charges and spin densities with hydrogens summed into heavy atoms:
               1          2
     1  C    0.615794  -0.060045
     2  C    0.752558  -0.002213
     3  C    0.144218   0.103154
     4  C    0.752633  -0.002090
     6  C    0.734797   0.961194
 APT charges:
               1
     1  C    0.581235
     2  C    0.292502
     3  C    0.511711
     4  C    0.292547
     5  H    0.236580
     6  C    0.029872
     7  H    0.411987
     8  H    0.231533
     9  H    0.412034
 Sum of APT charges =   3.00000
 APT charges with hydrogens summed into heavy atoms:
               1
     1  C    0.817815
     2  C    0.292502
     3  C    0.511711
     4  C    0.292547
     6  C    1.085425
 Electronic spatial extent (au):  <R**2>=            292.0212
 Charge=              3.0000 electrons
 Dipole moment (field-independent basis, Debye):
    X=             -4.1221    Y=              0.0008    Z=              0.1964  Tot=              4.1268
 Quadrupole moment (field-independent basis, Debye-Ang):
   XX=             24.8239   YY=            -17.4362   ZZ=            -15.9424
   XY=             -0.0078   XZ=             -1.6498   YZ=              0.0075
 Traceless Quadrupole moment (field-independent basis, Debye-Ang):
   XX=             27.6755   YY=            -14.5846   ZZ=            -13.0908
   XY=             -0.0078   XZ=             -1.6498   YZ=              0.0075
 Octapole moment (field-independent basis, Debye-Ang**2):
  XXX=            -56.6853  YYY=              0.0067  ZZZ=              1.6962  XYY=             -0.5302
  XXY=             -0.0179  XXZ=             -4.6623  XZZ=             -6.9441  YZZ=              0.0005
  YYZ=              0.4040  XYZ=             -0.0292
 Hexadecapole moment (field-independent basis, Debye-Ang**3):
 XXXX=             18.9143 YYYY=            -43.0685 ZZZZ=            -24.6082 XXXY=             -0.0751
 XXXZ=            -14.8151 YYYX=             -0.0130 YYYZ=             -0.0160 ZZZX=              3.3111
 ZZZY=              0.0964 XXYY=            -37.8008 XXZZ=            -37.9384 YYZZ=            -15.4114
 XXYZ=              0.0004 YYXZ=             -0.7579 ZZXY=              0.0265
 N-N= 1.359088298592D+02 E-N=-6.906146658807D+02  KE= 1.901093722714D+02
  Exact polarizability:  54.266  -0.014  30.945  -3.584  -0.014  27.428
 Approx polarizability:  97.946  -0.061  66.992 -14.572  -0.104  42.704
                          Isotropic Fermi Contact Couplings
        Atom                 a.u.       MegaHertz       Gauss      10(-4) cm-1
     1  C(13)             -0.02833     -31.85072     -11.36513     -10.62426
     2  C(13)              0.03367      37.85033      13.50594      12.62551
     3  C(13)              0.08816      99.11296      35.36597      33.06053
     4  C(13)              0.03387      38.07348      13.58556      12.69995
     5  H(1)               0.00028       1.24157       0.44302       0.41414
     6  C(13)              0.03835      43.11742      15.38537      14.38242
     7  H(1)               0.05690     254.35080      90.75869      84.84230
     8  H(1)              -0.01086     -48.54463     -17.32193     -16.19274
     9  H(1)               0.05696     254.60874      90.85073      84.92833
 --------------------------------------------------------
       Center         ----  Spin Dipole Couplings  ----
                      3XX-RR        3YY-RR        3ZZ-RR
 --------------------------------------------------------
     1   Atom        0.032291     -0.027439     -0.004852
     2   Atom        0.054117     -0.054325      0.000207
     3   Atom        0.031515      0.011079     -0.042594
     4   Atom        0.054089     -0.053786     -0.000303
     5   Atom        0.001786     -0.007184      0.005398
     6   Atom       -0.511064      1.021445     -0.510381
     7   Atom        0.073230     -0.046763     -0.026467
     8   Atom       -0.055018     -0.010858      0.065876
     9   Atom        0.073255     -0.046870     -0.026385
 --------------------------------------------------------
                        XY            XZ            YZ
 --------------------------------------------------------
     1   Atom        0.000044      0.011197      0.000139
     2   Atom        0.050731     -0.031557     -0.028090
     3   Atom       -0.000136     -0.030889     -0.000248
     4   Atom       -0.051097     -0.031116      0.028606
     5   Atom        0.000058      0.012989      0.000051
     6   Atom        0.000167      0.003368     -0.007636
     7   Atom       -0.009108     -0.064959      0.005068
     8   Atom       -0.000023     -0.006274      0.000404
     9   Atom        0.008491     -0.065013     -0.004875
 --------------------------------------------------------


 ---------------------------------------------------------------------------------
              Anisotropic Spin Dipole Couplings in Principal Axis System
 ---------------------------------------------------------------------------------

       Atom             a.u.   MegaHertz   Gauss  10(-4) cm-1        Axes

              Baa    -0.0274    -3.682    -1.314    -1.228  0.0005  1.0000 -0.0064
     1 C(13)  Bbb    -0.0080    -1.069    -0.381    -0.357 -0.2680  0.0063  0.9634
              Bcc     0.0354     4.751     1.695     1.585  0.9634  0.0013  0.2680
 
              Baa    -0.0775   -10.399    -3.711    -3.469 -0.3072  0.9280  0.2107
     2 C(13)  Bbb    -0.0141    -1.894    -0.676    -0.632  0.4513 -0.0529  0.8908
              Bcc     0.0916    12.293     4.386     4.101  0.8378  0.3687 -0.4026
 
              Baa    -0.0538    -7.217    -2.575    -2.407  0.3405  0.0043  0.9402
     3 C(13)  Bbb     0.0111     1.487     0.531     0.496 -0.0002  1.0000 -0.0045
              Bcc     0.0427     5.730     2.045     1.911  0.9402 -0.0014 -0.3405
 
              Baa    -0.0775   -10.404    -3.712    -3.470  0.3077  0.9259 -0.2190
     4 C(13)  Bbb    -0.0141    -1.897    -0.677    -0.633  0.4514  0.0606  0.8903
              Bcc     0.0917    12.301     4.389     4.103  0.8376 -0.3728 -0.3993
 
              Baa    -0.0095    -5.081    -1.813    -1.695  0.7542 -0.0043 -0.6566
     5 H(1)   Bbb    -0.0072    -3.833    -1.368    -1.279  0.0011  1.0000 -0.0052
              Bcc     0.0167     8.914     3.181     2.973  0.6566  0.0032  0.7542
 
              Baa    -0.5141   -68.991   -24.618   -23.013  0.7400 -0.0034 -0.6725
     6 C(13)  Bbb    -0.5074   -68.082   -24.294   -22.710  0.6726  0.0036  0.7400
              Bcc     1.0215   137.073    48.911    45.723  0.0001  1.0000 -0.0050
 
              Baa    -0.0585   -31.226   -11.142   -10.416  0.4391 -0.0465  0.8972
     7 H(1)   Bbb    -0.0474   -25.316    -9.033    -8.445  0.0816  0.9966  0.0118
              Bcc     0.1060    56.542    20.176    18.860  0.8947 -0.0680 -0.4414
 
              Baa    -0.0553   -29.528   -10.536    -9.850  0.9987  0.0000  0.0517
     8 H(1)   Bbb    -0.0109    -5.794    -2.068    -1.933  0.0002  1.0000 -0.0052
              Bcc     0.0662    35.322    12.604    11.782 -0.0517  0.0053  0.9986
 
              Baa    -0.0585   -31.216   -11.139   -10.413  0.4389  0.0554  0.8968
     9 H(1)   Bbb    -0.0475   -25.323    -9.036    -8.447 -0.0817  0.9964 -0.0216
              Bcc     0.1060    56.539    20.174    18.859  0.8948  0.0638 -0.4419
 

 ---------------------------------------------------------------------------------

 No NMR shielding tensors so no spin-rotation constants.
 Leave Link  601 at Mon Jun 20 11:05:31 2016, MaxMem=    33554432 cpu:         2.1
 (Enter /home/proyectos/fulerenos/M3C-v1.9/M3C-deps_CCC/g09-AM64L-G09RevC.01/l701.exe)
 Compute integral second derivatives.
 ... and contract with generalized density number  0.
 Leave Link  701 at Mon Jun 20 11:05:31 2016, MaxMem=    33554432 cpu:         1.9
 (Enter /home/proyectos/fulerenos/M3C-v1.9/M3C-deps_CCC/g09-AM64L-G09RevC.01/l702.exe)
 L702 exits ... SP integral derivatives will be done elsewhere.
 Leave Link  702 at Mon Jun 20 11:05:31 2016, MaxMem=    33554432 cpu:         0.1
 (Enter /home/proyectos/fulerenos/M3C-v1.9/M3C-deps_CCC/g09-AM64L-G09RevC.01/l703.exe)
 Compute integral second derivatives, UseDBF=F ICtDFT=           0.
 Integral derivatives from FoFJK, PRISM(SPDF).
 Calling FoFJK, ICntrl=    100127 FMM=F ISym2X=0 I1Cent= 0 IOpClX= 1 NMat=1 NMatS=1 NMatT=0.
 FoFJK:  IHMeth= 1 ICntrl=  100127 DoSepK=F KAlg= 0 I1Cent=   0 FoldK=F
 IRaf=         0 NMat=   1 IRICut=       1 DoRegI=T DoRafI=F ISym2E= 0.
 FoFCou: FMM=F IPFlag=           0 FMFlag=      100000 FMFlg1=         800
         NFxFlg=           0 DoJE=F BraDBF=F KetDBF=F FulRan=T
         wScrn=  0.000000 ICntrl=  100127 IOpCl=  1 I1Cent=           0 NGrid=           0
         NMat0=    1 NMatS0=      1 NMatT0=    0 NMatD0=    1 NMtDS0=    0 NMtDT0=    0
 Symmetry not used in FoFCou.
 Leave Link  703 at Mon Jun 20 11:08:49 2016, MaxMem=    33554432 cpu:       791.0
 (Enter /home/proyectos/fulerenos/M3C-v1.9/M3C-deps_CCC/g09-AM64L-G09RevC.01/l716.exe)
 Dipole        =-1.62176592D+00 3.32650539D-04 7.72794121D-02
 Polarizability= 5.42658576D+01-1.44502122D-02 3.09446218D+01
                -3.58445334D+00-1.44043245D-02 2.74281334D+01
 Full mass-weighted force constant matrix:
 Low frequencies ---   -5.9714    0.0006    0.0006    0.0009    5.6963    6.6441
 Low frequencies ---   77.0635  274.6877  331.0270
 Diagonal vibrational polarizability:
        8.7701975     103.7744050       6.3921981
 Harmonic frequencies (cm**-1), IR intensities (KM/Mole), Raman scattering
 activities (A**4/AMU), depolarization ratios for plane and unpolarized
 incident light, reduced masses (AMU), force constants (mDyne/A),
 and normal coordinates:
                      1                      2                      3
                      A                      A                      A
 Frequencies --     77.0317               274.6876               331.0268
 Red. masses --      1.1394                 4.1235                 7.3139
 Frc consts  --      0.0040                 0.1833                 0.4722
 IR Inten    --     19.8839                10.1682                19.8592
  Atom  AN      X      Y      Z        X      Y      Z        X      Y      Z
     1   6    -0.00   0.07  -0.00     0.00  -0.00  -0.21    -0.00  -0.21   0.00
     2   6     0.02  -0.03   0.04     0.04   0.00  -0.14    -0.37   0.31   0.00
     3   6    -0.00  -0.02   0.00     0.19   0.00   0.33     0.00  -0.23   0.00
     4   6    -0.02  -0.03  -0.04     0.04  -0.01  -0.14     0.37   0.31  -0.01
     5   1     0.00   0.10  -0.00     0.11  -0.00  -0.20    -0.00  -0.03   0.00
     6   6     0.00   0.03  -0.00    -0.22   0.00   0.10     0.00  -0.13   0.00
     7   1    -0.20  -0.48   0.23    -0.06  -0.00   0.41    -0.21  -0.37  -0.09
     8   1     0.00   0.58  -0.00    -0.56   0.00   0.11    -0.00   0.23  -0.00
     9   1     0.20  -0.48  -0.22    -0.06   0.01   0.41     0.21  -0.36   0.09
                      4                      5                      6
                      A                      A                      A
 Frequencies --    385.8442               509.5049               546.0092
 Red. masses --      3.7639                 4.9305                 1.0270
 Frc consts  --      0.3301                 0.7541                 0.1804
 IR Inten    --      3.1625                 9.8716                22.4241
  Atom  AN      X      Y      Z        X      Y      Z        X      Y      Z
     1   6     0.00   0.35  -0.00    -0.04  -0.00  -0.18     0.00   0.02  -0.00
     2   6    -0.08  -0.05  -0.22     0.17   0.01   0.25    -0.02   0.01  -0.00
     3   6    -0.00  -0.05   0.00     0.03  -0.00  -0.25    -0.00  -0.01   0.00
     4   6     0.08  -0.04   0.22     0.17  -0.01   0.25     0.02   0.01   0.00
     5   1     0.00   0.19  -0.00    -0.24  -0.00  -0.21     0.00   0.04  -0.00
     6   6     0.00  -0.12   0.00    -0.25  -0.00  -0.09     0.00   0.01   0.00
     7   1    -0.21  -0.31  -0.20    -0.11  -0.03   0.26     0.32  -0.07   0.57
     8   1     0.00  -0.60   0.00    -0.61  -0.00  -0.08     0.00  -0.36   0.00
     9   1     0.21  -0.31   0.20    -0.11   0.03   0.26    -0.32  -0.08  -0.57
                      7                      8                      9
                      A                      A                      A
 Frequencies --    675.3588               793.8183               835.2520
 Red. masses --      2.8685                 1.5416                 3.2814
 Frc consts  --      0.7709                 0.5723                 1.3488
 IR Inten    --     38.4665                88.5293                14.5023
  Atom  AN      X      Y      Z        X      Y      Z        X      Y      Z
     1   6    -0.13   0.00   0.19     0.00   0.08  -0.00    -0.12   0.00   0.00
     2   6     0.07   0.12  -0.05    -0.01  -0.00  -0.03    -0.08   0.25   0.01
     3   6     0.20  -0.00  -0.05    -0.00  -0.00   0.00     0.13  -0.00  -0.04
     4   6     0.07  -0.12  -0.05     0.01   0.00   0.03    -0.08  -0.25   0.01
     5   1     0.02   0.00   0.21     0.00   0.14  -0.00    -0.33   0.00  -0.01
     6   6    -0.18   0.00   0.02    -0.00  -0.20   0.00     0.16  -0.00  -0.05
     7   1    -0.36   0.10  -0.46     0.29   0.33   0.11     0.31  -0.15   0.43
     8   1     0.29   0.00   0.02    -0.00   0.72  -0.00    -0.26  -0.00  -0.05
     9   1    -0.36  -0.10  -0.46    -0.29   0.33  -0.11     0.31   0.15   0.43
                     10                     11                     12
                      A                      A                      A
 Frequencies --    970.2337              1039.0954              1083.1607
 Red. masses --      3.2935                 4.1243                 1.1760
 Frc consts  --      1.8267                 2.6237                 0.8129
 IR Inten    --     51.0822                17.5319                 7.8962
  Atom  AN      X      Y      Z        X      Y      Z        X      Y      Z
     1   6     0.23  -0.00  -0.22     0.33   0.00   0.23     0.00  -0.10   0.00
     2   6    -0.11   0.16   0.08    -0.07   0.06  -0.01     0.01  -0.01  -0.05
     3   6    -0.02  -0.00  -0.01    -0.02   0.00   0.03     0.00   0.02  -0.00
     4   6    -0.11  -0.16   0.08    -0.07  -0.06  -0.01    -0.01  -0.01   0.05
     5   1     0.31  -0.00  -0.23     0.36   0.00   0.27     0.00   0.99  -0.00
     6   6    -0.06   0.00   0.14    -0.18  -0.00  -0.27    -0.00   0.02  -0.00
     7   1    -0.06   0.30  -0.36     0.13   0.07   0.17    -0.01  -0.02  -0.01
     8   1     0.43   0.00   0.15    -0.57  -0.00  -0.30     0.00  -0.00   0.00
     9   1    -0.06  -0.30  -0.35     0.13  -0.07   0.17     0.01  -0.02   0.01
                     13                     14                     15
                      A                      A                      A
 Frequencies --   1185.4131              1334.2264              1451.7543
 Red. masses --      1.0985                 1.1421                 1.1090
 Frc consts  --      0.9095                 1.1979                 1.3771
 IR Inten    --    104.6156                 4.9953                27.1380
  Atom  AN      X      Y      Z        X      Y      Z        X      Y      Z
     1   6    -0.05   0.00   0.01    -0.09  -0.00  -0.02     0.05  -0.00  -0.00
     2   6     0.01  -0.02  -0.01     0.00   0.01   0.02    -0.00  -0.00  -0.01
     3   6     0.00  -0.00  -0.00    -0.01  -0.00  -0.00     0.00  -0.00   0.00
     4   6     0.01   0.02  -0.01     0.00  -0.01   0.02    -0.00   0.00  -0.01
     5   1    -0.08   0.00   0.01     0.93   0.00   0.06    -0.28  -0.00  -0.03
     6   6    -0.06  -0.00  -0.01    -0.00  -0.00  -0.04    -0.07  -0.00  -0.04
     7   1     0.44   0.50   0.10     0.02  -0.09   0.14    -0.10  -0.24   0.33
     8   1     0.28  -0.00  -0.02     0.22  -0.00  -0.06     0.75  -0.00  -0.04
     9   1     0.44  -0.50   0.11     0.02   0.10   0.14    -0.10   0.24   0.32
                     16                     17                     18
                      A                      A                      A
 Frequencies --   1535.5755              1837.4395              1849.0690
 Red. masses --     11.9627                11.8168                 1.0275
 Frc consts  --     16.6197                23.5058                 2.0699
 IR Inten    --     11.9647                24.4716               257.6618
  Atom  AN      X      Y      Z        X      Y      Z        X      Y      Z
     1   6     0.00  -0.02   0.00     0.03  -0.00  -0.01    -0.00  -0.00   0.00
     2   6    -0.44  -0.30   0.14    -0.36  -0.30   0.12     0.00   0.00  -0.00
     3   6    -0.00   0.63  -0.00     0.68  -0.00  -0.22    -0.00  -0.00   0.00
     4   6     0.44  -0.30  -0.14    -0.36   0.30   0.12    -0.00   0.00   0.00
     5   1    -0.00  -0.06   0.00     0.12  -0.00  -0.00    -0.00   0.01  -0.00
     6   6    -0.00  -0.01   0.00     0.00  -0.00  -0.00    -0.00  -0.04   0.00
     7   1    -0.01  -0.00  -0.00     0.02  -0.03  -0.01    -0.55   0.31   0.32
     8   1     0.00  -0.01   0.00    -0.01  -0.00  -0.00    -0.00  -0.07   0.00
     9   1     0.01   0.00   0.00     0.02   0.03  -0.01     0.55   0.31  -0.32
                     19                     20                     21
                      A                      A                      A
 Frequencies --   2309.9686              2972.2575              3059.3216
 Red. masses --      1.1061                 1.0931                 1.0972
 Frc consts  --      3.4773                 5.6898                 6.0506
 IR Inten    --    416.7945               207.9529               148.8685
  Atom  AN      X      Y      Z        X      Y      Z        X      Y      Z
     1   6    -0.00  -0.00  -0.00     0.01  -0.00  -0.09     0.00   0.00   0.01
     2   6     0.00  -0.00  -0.00     0.00   0.00   0.00    -0.00  -0.00  -0.00
     3   6    -0.00  -0.00   0.00    -0.00  -0.00  -0.00    -0.00   0.00   0.00
     4   6     0.00   0.00  -0.00     0.00  -0.00   0.00    -0.00   0.00  -0.00
     5   1    -0.01   0.00   0.01    -0.09   0.00   0.99     0.01  -0.00  -0.02
     6   6    -0.09   0.00   0.04     0.00  -0.00  -0.00     0.00  -0.00  -0.09
     7   1     0.49  -0.43  -0.26    -0.01   0.00   0.00    -0.02   0.02   0.02
     8   1     0.02   0.00   0.09     0.01   0.00   0.02     0.00   0.01   0.99
     9   1     0.49   0.43  -0.26    -0.01  -0.00   0.00    -0.02  -0.02   0.02

 -------------------
 - Thermochemistry -
 -------------------
 Temperature   298.150 Kelvin.  Pressure   1.00000 Atm.
 Atom     1 has atomic number  6 and mass  12.00000
 Atom     2 has atomic number  6 and mass  12.00000
 Atom     3 has atomic number  6 and mass  12.00000
 Atom     4 has atomic number  6 and mass  12.00000
 Atom     5 has atomic number  1 and mass   1.00783
 Atom     6 has atomic number  6 and mass  12.00000
 Atom     7 has atomic number  1 and mass   1.00783
 Atom     8 has atomic number  1 and mass   1.00783
 Atom     9 has atomic number  1 and mass   1.00783
 Molecular mass:    64.03130 amu.
 Principal axes and moments of inertia in atomic units:
                           1         2         3
     Eigenvalues --    88.97958 433.48315 449.80451
           X            0.99998   0.00000   0.00685
           Y           -0.00003   0.99999   0.00403
           Z           -0.00685  -0.00403   0.99997
 This molecule is an asymmetric top.
 Rotational symmetry number  1.
 Rotational temperatures (Kelvin)      0.97341     0.19981     0.19256
 Rotational constants (GHZ):          20.28265     4.16335     4.01228
 Zero-point vibrational energy     149868.5 (Joules/Mol)
                                   35.81942 (Kcal/Mol)
 Warning -- explicit consideration of   6 degrees of freedom as
           vibrations may cause significant error
 Vibrational temperatures:    110.83   395.21   476.27   555.14   733.06
          (Kelvin)            785.58   971.69  1142.13  1201.74  1395.95
                             1495.02  1558.42  1705.54  1919.65  2088.75
                             2209.35  2643.66  2660.39  3323.53  4276.41
                             4401.68
 
 Zero-point correction=                           0.057082 (Hartree/Particle)
 Thermal correction to Energy=                    0.062674
 Thermal correction to Enthalpy=                  0.063618
 Thermal correction to Gibbs Free Energy=         0.028363
 Sum of electronic and zero-point Energies=           -190.879985
 Sum of electronic and thermal Energies=              -190.874393
 Sum of electronic and thermal Enthalpies=            -190.873448
 Sum of electronic and thermal Free Energies=         -190.908704
 
                     E (Thermal)             CV                S
                      KCal/Mol        Cal/Mol-Kelvin    Cal/Mol-Kelvin
 Total                   39.329             18.861             74.202
 Electronic               0.000              0.000              1.377
 Translational            0.889              2.981             38.389
 Rotational               0.889              2.981             24.365
 Vibrational             37.551             12.899             10.070
 Vibration     1          0.599              1.964              3.965
 Vibration     2          0.677              1.720              1.567
 Vibration     3          0.713              1.614              1.255
 Vibration     4          0.755              1.500              1.016
 Vibration     5          0.865              1.229              0.635
 Vibration     6          0.901              1.148              0.553
                       Q            Log10(Q)             Ln(Q)
 Total Bot       0.899692D-13        -13.045906        -30.039309
 Total V=0       0.162136D+14         13.209880         30.416872
 Vib (Bot)       0.473730D-25        -25.324469        -58.311746
 Vib (Bot)    1  0.267470D+01          0.427275          0.983836
 Vib (Bot)    2  0.701876D+00         -0.153740         -0.353999
 Vib (Bot)    3  0.564088D+00         -0.248653         -0.572545
 Vib (Bot)    4  0.466674D+00         -0.330987         -0.762125
 Vib (Bot)    5  0.319843D+00         -0.495063         -1.139925
 Vib (Bot)    6  0.288517D+00         -0.539828         -1.243000
 Vib (V=0)       0.853722D+01          0.931316          2.144435
 Vib (V=0)    1  0.322103D+01          0.507995          1.169701
 Vib (V=0)    2  0.136176D+01          0.134100          0.308778
 Vib (V=0)    3  0.125379D+01          0.098224          0.226169
 Vib (V=0)    4  0.118395D+01          0.073332          0.168854
 Vib (V=0)    5  0.109355D+01          0.038838          0.089428
 Vib (V=0)    6  0.107727D+01          0.032325          0.074431
 Electronic      0.200000D+01          0.301030          0.693147
 Translational   0.201393D+08          7.304044         16.818182
 Rotational      0.471509D+05          4.673490         10.761107
 
                                                              b3lyp opt
                                                             IR Spectrum
 
     3   2                           2                 11            1  1    1     1    11                                           
     0   9                           3                 88            5  4    3     1    00  9     8 7   6     55    3  3 2           
     5   7                           1                 43            3  5    3     8    83  7     3 9   7     41    8  3 7       7   
     9   2                           0                 97            6  2    4     5    39  0     5 4   5     60    6  1 5       7   
 
     X   X                           X                 XX            X  X    X     X    XX  X     X X   X     XX    X  X X       X   
     X   X                           X                 X                           X        X       X   X                            
     X   X                           X                 X                           X                X                                
     X   X                           X                 X                           X                X                                
     X   X                           X                 X                           X                                                 
     X   X                           X                 X                                                                             
     X   X                           X                 X                                                                             
         X                           X                 X                                                                             
         X                           X                 X                                                                             
         X                           X                 X                                                                             
                                     X                 X                                                                             
                                     X                 X                                                                             
                                     X                                                                                               
                                     X                                                                                               
                                     X                                                                                               
                                     X                                                                                               
                                     X                                                                                               
                                     X                                                                                               
                                     X                                                                                               
                                     X                                                                                               
 
 ***** Axes restored to original set *****
 -------------------------------------------------------------------
 Center     Atomic                   Forces (Hartrees/Bohr)
 Number     Number              X              Y              Z
 -------------------------------------------------------------------
      1        6          -0.000011923    0.000009684    0.000006591
      2        6           0.000001304   -0.000006025   -0.000005902
      3        6           0.000014999   -0.000005389    0.000006636
      4        6           0.000002825    0.000009732   -0.000000984
      5        1           0.000000332   -0.000010467   -0.000002797
      6        6          -0.000025905    0.000022093   -0.000033281
      7        1           0.000001369   -0.000012722    0.000008675
      8        1           0.000012857   -0.000009805    0.000015446
      9        1           0.000004143    0.000002899    0.000005618
 -------------------------------------------------------------------
 Cartesian Forces:  Max     0.000033281 RMS     0.000012071
 Z-matrix is all fixed cartesians, so copy forces.
 Force constants in Cartesian coordinates: 
                1             2             3             4             5 
      1  0.394074D+00
      2 -0.172261D-04  0.977005D-01
      3 -0.136278D-02 -0.193430D-02  0.542415D+00
      4 -0.915897D-01  0.441549D-02 -0.218409D-01  0.474367D+00
      5  0.186275D-01  0.453698D-02  0.134833D-01  0.252492D+00  0.381521D+00
      6 -0.133174D-01 -0.552891D-03 -0.602745D-01  0.133706D+00  0.754585D-01
      7 -0.172563D-01  0.649892D-04 -0.144330D-01 -0.376503D+00 -0.268367D+00
      8  0.632798D-04 -0.259913D-01 -0.197982D-03 -0.288059D+00 -0.205489D+00
      9 -0.155602D-01 -0.198345D-03  0.200103D-01 -0.112560D+00 -0.843798D-01
     10 -0.915628D-01 -0.421713D-02 -0.218810D-01  0.278861D-01 -0.919669D-02
     11 -0.184877D-01  0.466145D-02 -0.129195D-01  0.909556D-02 -0.175551D+00
     12 -0.134610D-01  0.112083D-02 -0.603668D-01  0.811441D-02 -0.332646D-02
     13 -0.466878D-01  0.687142D-04 -0.150838D-01 -0.937072D-02  0.247081D-02
     14  0.873707D-04 -0.414612D-01  0.112205D-02  0.430452D-02 -0.419619D-02
     15 -0.192853D-01  0.112560D-02 -0.305441D+00 -0.268513D-02  0.226024D-03
     16 -0.115181D+00 -0.223562D-03  0.575390D-01 -0.268928D-01  0.686909D-02
     17 -0.235998D-03 -0.496039D-01  0.449158D-03  0.149836D-01 -0.484231D-03
     18  0.524697D-01  0.451386D-03 -0.147403D+00 -0.915969D-02 -0.293437D-03
     19 -0.169227D-01  0.787163D-02 -0.404055D-02 -0.654950D-03 -0.829442D-03
     20 -0.725610D-02  0.184948D-02 -0.792321D-03  0.356279D-03 -0.901285D-03
     21  0.337657D-02  0.474101D-04  0.505459D-02  0.303969D-02 -0.183901D-02
     22  0.204637D-02 -0.123918D-03  0.252072D-01  0.755423D-03 -0.296712D-03
     23 -0.969237D-05  0.646023D-02  0.292872D-04  0.104085D-03  0.601347D-03
     24  0.369970D-02  0.260673D-04  0.950051D-03 -0.383683D-03  0.125621D-03
     25 -0.169198D-01 -0.783898D-02 -0.410419D-02  0.200277D-02 -0.176935D-02
     26  0.722854D-02  0.184773D-02  0.760353D-03  0.230726D-02 -0.378459D-04
     27  0.344077D-02 -0.857551D-04  0.505545D-02  0.177002D-02  0.545274D-03
                6             7             8             9            10 
      6  0.102201D+00
      7 -0.114054D+00  0.774916D+00
      8 -0.899713D-01 -0.104035D-02  0.429922D+00
      9 -0.635475D-01  0.239433D+00  0.139685D-02  0.107008D+00
     10  0.804185D-02 -0.376419D+00  0.289026D+00 -0.110038D+00  0.474251D+00
     11  0.166545D-02  0.269346D+00 -0.207049D+00  0.831377D-01 -0.253628D+00
     12  0.145613D-01 -0.111703D+00  0.887318D-01 -0.620433D-01  0.131483D+00
     13 -0.178018D-01 -0.954249D-03 -0.399587D-05  0.786829D-03 -0.936896D-02
     14  0.228718D-01 -0.376937D-05  0.634613D-02  0.302369D-04 -0.427955D-02
     15  0.125575D-02  0.913872D-03  0.312650D-04 -0.776516D-03 -0.271969D-02
     16  0.211450D-02 -0.401255D-03  0.229356D-04 -0.232906D-02 -0.268907D-01
     17 -0.107059D-01  0.158222D-05  0.135731D-02  0.143413D-04 -0.148965D-01
     18  0.595597D-02 -0.750720D-04  0.149830D-04 -0.175809D-02 -0.929156D-02
     19  0.739216D-03 -0.147858D-02 -0.701278D-03  0.506825D-04  0.200325D-02
     20  0.578215D-04 -0.473113D-03  0.647578D-03 -0.784435D-04 -0.232043D-02
     21 -0.230609D-04 -0.350221D-03  0.961335D-03  0.504803D-03  0.175067D-02
     22  0.720797D-03 -0.423855D-03  0.000000D+00  0.160690D-03  0.755166D-03
     23  0.104490D-02 -0.403105D-05 -0.406401D-03 -0.204377D-05 -0.996357D-04
     24  0.466470D-03  0.612478D-03 -0.232966D-05  0.104436D-03 -0.381260D-03
     25 -0.148919D-03 -0.147955D-02  0.691716D-03  0.567972D-04 -0.653814D-03
     26  0.131627D-03  0.476379D-03  0.662961D-03  0.794713D-04 -0.388671D-03
     27 -0.595691D-03 -0.344422D-03 -0.964563D-03  0.497400D-03  0.303604D-02
               11            12            13            14            15 
     11  0.382851D+00
     12 -0.730228D-01  0.100901D+00
     13 -0.231382D-02 -0.178205D-01  0.640869D-01
     14 -0.399552D-02 -0.229135D-01 -0.954408D-04  0.381449D-01
     15 -0.270687D-03  0.105818D-02  0.218296D-01 -0.115100D-02  0.307859D+00
     16 -0.691058D-02  0.204774D-02  0.534719D-02 -0.665995D-05  0.455407D-03
     17 -0.578181D-03  0.106494D-01 -0.123927D-03  0.352263D-02  0.427950D-04
     18  0.233898D-03  0.604161D-02  0.277051D-01  0.396923D-04 -0.594249D-02
     19  0.177785D-02 -0.131698D-03  0.438182D-03 -0.236181D-03  0.617648D-03
     20 -0.253015D-04 -0.125346D-03 -0.283710D-03  0.304552D-03 -0.508867D-03
     21 -0.536944D-03 -0.600800D-03  0.677410D-03 -0.484034D-03  0.771881D-03
     22  0.289408D-03  0.725201D-03 -0.392640D-02  0.000000D+00  0.255969D-03
     23  0.612560D-03 -0.104784D-02  0.354911D-05  0.103889D-02  0.000000D+00
     24 -0.123424D-03  0.454823D-03 -0.976922D-03  0.416822D-05  0.433729D-03
     25  0.831502D-03  0.745269D-03  0.435844D-03  0.230616D-03  0.617688D-03
     26 -0.926160D-03 -0.660017D-04  0.277812D-03  0.295813D-03  0.505388D-03
     27  0.183631D-02 -0.586307D-05  0.684110D-03  0.480606D-03  0.781497D-03
               16            17            18            19            20 
     16  0.408872D+00
     17 -0.107860D-03  0.130624D+00
     18  0.113574D-01 -0.224499D-02  0.584540D+00
     19 -0.953905D-01  0.250983D-01 -0.385407D-01  0.967282D-01
     20  0.717907D-01 -0.317566D-01  0.328950D-01 -0.476448D-01  0.674400D-01
     21 -0.351923D-01  0.237071D-01 -0.574923D-01  0.409820D-01 -0.279325D-01
     22 -0.540895D-01 -0.143829D-04  0.431642D-02 -0.219816D-03 -0.690156D-02
     23 -0.212635D-05 -0.219014D-01  0.153019D-02  0.741032D-02  0.125844D-02
     24 -0.153222D-03  0.153134D-02 -0.325954D+00 -0.110005D-02 -0.963682D-03
     25 -0.953733D-01 -0.247048D-01 -0.387815D-01  0.154970D-01 -0.726730D-02
     26 -0.714319D-01 -0.311797D-01 -0.326267D-01  0.725356D-02 -0.388169D-01
     27 -0.358394D-01 -0.234432D-01 -0.579878D-01  0.142350D-02 -0.255169D-02
               21            22            23            24            25 
     21  0.439408D-01
     22 -0.156561D-01  0.553282D-01
     23  0.398775D-02 -0.708664D-05  0.110537D-01
     24 -0.196376D-02 -0.142175D-03 -0.159337D-02  0.327511D+00
     25  0.137231D-02 -0.225565D-03 -0.739538D-02 -0.117486D-02  0.967164D-01
     26  0.208887D-02  0.705504D-02  0.128266D-02  0.995610D-03  0.472220D-01
     27  0.980787D-02 -0.155880D-01 -0.394834D-02 -0.200272D-02  0.414174D-01
               26            27 
     26  0.668714D-01
     27  0.281314D-01  0.444498D-01
 Leave Link  716 at Mon Jun 20 11:08:49 2016, MaxMem=    33554432 cpu:         0.1
 (Enter /home/proyectos/fulerenos/M3C-v1.9/M3C-deps_CCC/g09-AM64L-G09RevC.01/l103.exe)

 GradGradGradGradGradGradGradGradGradGradGradGradGradGradGradGradGradGrad
 Berny optimization.
 Search for a local minimum.
 Step number   1 out of a maximum of    2
 All quantities printed in internal units (Hartrees-Bohrs-Radians)
 Second derivative matrix not updated -- analytic derivatives used.
 ITU=  0
     Eigenvalues ---    0.00032   0.01118   0.01354   0.02949   0.04132
     Eigenvalues ---    0.04887   0.05808   0.07174   0.07736   0.08726
     Eigenvalues ---    0.12518   0.12604   0.16679   0.19529   0.29840
     Eigenvalues ---    0.41227   0.56400   0.64020   0.88502   1.07066
     Eigenvalues ---    1.53261
 Angle between quadratic step and forces=  79.12 degrees.
 Linear search not attempted -- first point.
 B after Tr=    -0.000016    0.000093    0.000008
         Rot=    1.000000   -0.000036   -0.000007    0.000011 Ang=  -0.00 deg.
 Variable       Old X    -DE/DX   Delta X   Delta X   Delta X     New X
                                 (Linear)    (Quad)   (Total)
    X1        0.88650  -0.00001   0.00000  -0.00003  -0.00003   0.88647
    Y1       -0.00423   0.00001   0.00000  -0.00011  -0.00010  -0.00433
    Z1        0.94652   0.00001   0.00000  -0.00013  -0.00014   0.94639
    X2       -1.56583   0.00000   0.00000  -0.00005  -0.00003  -1.56586
    Y2        1.44810  -0.00001   0.00000   0.00011   0.00024   1.44834
    Z2        0.05602  -0.00001   0.00000   0.00031   0.00044   0.05646
    X3       -3.42797   0.00001   0.00000  -0.00005  -0.00007  -3.42804
    Y3        0.00247  -0.00001   0.00000   0.00016   0.00037   0.00284
    Z3       -0.54799   0.00001   0.00000   0.00019   0.00025  -0.54775
    X4       -1.56599   0.00000   0.00000   0.00005   0.00000  -1.56599
    Y4       -1.44860   0.00001   0.00000   0.00012   0.00025  -1.44835
    Z4        0.04343  -0.00000   0.00000  -0.00034  -0.00041   0.04302
    X5        1.06617   0.00000   0.00000   0.00007   0.00010   1.06627
    Y5       -0.01309  -0.00001   0.00000  -0.00073  -0.00088  -0.01397
    Z5        3.02645  -0.00000   0.00000  -0.00015  -0.00016   3.02629
    X6        3.25380  -0.00003   0.00000  -0.00001  -0.00004   3.25376
    Y6        0.00281   0.00002   0.00000   0.00006   0.00013   0.00294
    Z6       -0.64930  -0.00003   0.00000  -0.00010  -0.00014  -0.64944
    X7        5.07470   0.00000   0.00000   0.00013   0.00009   5.07479
    Y7       -1.07095  -0.00001   0.00000   0.00063   0.00059  -1.07036
    Z7        0.29696   0.00001   0.00000   0.00056   0.00042   0.29738
    X8        3.30104   0.00001   0.00000   0.00038   0.00033   3.30137
    Y8        0.01332  -0.00001   0.00000  -0.00142  -0.00121   0.01212
    Z8       -2.72252   0.00002   0.00000  -0.00006  -0.00010  -2.72262
    X9        5.07496   0.00000   0.00000  -0.00035  -0.00034   5.07462
    Y9        1.06740   0.00000   0.00000   0.00067   0.00062   1.06802
    Z9        0.30707   0.00001   0.00000  -0.00017  -0.00016   0.30691
         Item               Value     Threshold  Converged?
 Maximum Force            0.000033     0.000450     YES
 RMS     Force            0.000012     0.000300     YES
 Maximum Displacement     0.001208     0.001800     YES
 RMS     Displacement     0.000395     0.001200     YES
 Predicted change in Energy=-1.185578D-08
 Optimization completed.
    -- Stationary point found.
 GradGradGradGradGradGradGradGradGradGradGradGradGradGradGradGradGradGrad

 Leave Link  103 at Mon Jun 20 11:08:49 2016, MaxMem=    33554432 cpu:         0.1
 (Enter /home/proyectos/fulerenos/M3C-v1.9/M3C-deps_CCC/g09-AM64L-G09RevC.01/l9999.exe)
 1\1\GINC-BELVIS17\Freq\UB3LYP\6-311++G(3df,2p)\C5H4(3+,2)\ROOT\20-Jun-
 2016\0\\#p b3lyp/6-311++G(3df,2p) freq symmetry=Loose\\b3lyp opt\\3,2\
 C,0.469118,-0.002239,0.500879\C,-0.828599,0.766303,0.029642\C,-1.81400
 3,0.001306,-0.289985\C,-0.828685,-0.766566,0.022981\H,0.564195,-0.0069
 25,1.60153\C,1.721837,0.001488,-0.343596\H,2.685415,-0.56672,0.157142\
 H,1.746835,0.007051,-1.440697\H,2.685551,0.564843,0.162495\\Version=EM
 64L-G09RevE.01\State=2-A\HF=-190.9370667\S2=0.75792\S2-1=0.\S2A=0.7500
 42\RMSD=2.254e-09\RMSF=1.207e-05\ZeroPoint=0.0570819\Thermal=0.0626741
 \Dipole=1.6217659,-0.0003325,0.0772794\DipoleDeriv=1.0469184,-0.000458
 5,0.1098674,-0.0002848,0.6248293,0.0024107,0.0872075,0.0024123,0.07195
 73,0.0216564,0.3297519,-0.074184,-0.0144617,0.4251017,0.0011167,-0.091
 7299,0.1430118,0.4307493,0.6620618,-0.0000527,0.00204,0.0002203,0.3507
 832,-0.0007648,0.0008551,-0.0007517,0.5222878,0.0217155,-0.3290321,-0.
 0770647,0.0149178,0.4264058,-0.0011222,-0.0915907,-0.1430337,0.4295192
 ,0.085938,-0.0001787,0.0390643,-0.0004026,0.1570727,-0.0013318,0.10017
 15,-0.0013212,0.4667278,-0.0256452,-0.0000946,-0.0052875,0.0006391,-0.
 0005982,-0.0004666,-0.1393326,-0.00051,0.1158585,0.5447991,-0.206277,0
 .0204925,-0.0745895,0.4171027,-0.017666,0.1221771,-0.0828212,0.2740583
 ,0.0976596,0.0002197,-0.0373536,0.0005921,0.1832067,-0.0011698,-0.1106
 178,-0.0011492,0.4137319,0.5448964,0.2061219,0.0224256,0.0733693,0.416
 0961,0.0189937,0.1228597,0.084163,0.2751098\Polar=54.2658576,-0.014448
 1,30.9446218,3.5844533,0.0144046,27.4281334\PG=C01 [X(C5H4)]\NImag=0\\
 0.39407379,-0.00001723,0.09770055,-0.00136278,-0.00193430,0.54241458,-
 0.09158970,0.00441549,-0.02184086,0.47436660,0.01862752,0.00453698,0.0
 1348330,0.25249207,0.38152102,-0.01331740,-0.00055289,-0.06027448,0.13
 370568,0.07545848,0.10220124,-0.01725634,0.00006499,-0.01443298,-0.376
 50275,-0.26836729,-0.11405395,0.77491586,0.00006328,-0.02599126,-0.000
 19798,-0.28805891,-0.20548899,-0.08997131,-0.00104035,0.42992176,-0.01
 556018,-0.00019834,0.02001033,-0.11256043,-0.08437979,-0.06354752,0.23
 943284,0.00139685,0.10700842,-0.09156281,-0.00421713,-0.02188099,0.027
 88609,-0.00919669,0.00804185,-0.37641928,0.28902649,-0.11003817,0.4742
 5104,-0.01848769,0.00466145,-0.01291953,0.00909556,-0.17555080,0.00166
 545,0.26934561,-0.20704909,0.08313772,-0.25362784,0.38285105,-0.013461
 00,0.00112083,-0.06036681,0.00811441,-0.00332646,0.01456132,-0.1117025
 5,0.08873175,-0.06204327,0.13148310,-0.07302279,0.10090080,-0.04668776
 ,0.00006871,-0.01508382,-0.00937072,0.00247081,-0.01780179,-0.00095425
 ,-0.00000400,0.00078683,-0.00936896,-0.00231382,-0.01782047,0.06408687
 ,0.00008737,-0.04146125,0.00112205,0.00430452,-0.00419619,0.02287181,-
 0.00000377,0.00634613,0.00003024,-0.00427955,-0.00399552,-0.02291353,-
 0.00009544,0.03814493,-0.01928532,0.00112560,-0.30544104,-0.00268513,0
 .00022602,0.00125575,0.00091387,0.00003127,-0.00077652,-0.00271969,-0.
 00027069,0.00105818,0.02182956,-0.00115100,0.30785900,-0.11518104,-0.0
 0022356,0.05753902,-0.02689277,0.00686909,0.00211450,-0.00040126,0.000
 02294,-0.00232906,-0.02689067,-0.00691058,0.00204774,0.00534719,-0.000
 00666,0.00045541,0.40887191,-0.00023600,-0.04960391,0.00044916,0.01498
 364,-0.00048423,-0.01070588,0.00000158,0.00135731,0.00001434,-0.014896
 54,-0.00057818,0.01064939,-0.00012393,0.00352263,0.00004279,-0.0001078
 6,0.13062407,0.05246966,0.00045139,-0.14740268,-0.00915969,-0.00029344
 ,0.00595597,-0.00007507,0.00001498,-0.00175809,-0.00929156,0.00023390,
 0.00604161,0.02770509,0.00003969,-0.00594249,0.01135737,-0.00224499,0.
 58453954,-0.01692275,0.00787163,-0.00404055,-0.00065495,-0.00082944,0.
 00073922,-0.00147858,-0.00070128,0.00005068,0.00200325,0.00177785,-0.0
 0013170,0.00043818,-0.00023618,0.00061765,-0.09539053,0.02509830,-0.03
 854072,0.09672819,-0.00725610,0.00184948,-0.00079232,0.00035628,-0.000
 90129,0.00005782,-0.00047311,0.00064758,-0.00007844,-0.00232043,-0.000
 02530,-0.00012535,-0.00028371,0.00030455,-0.00050887,0.07179069,-0.031
 75659,0.03289499,-0.04764476,0.06743999,0.00337657,0.00004741,0.005054
 59,0.00303969,-0.00183901,-0.00002306,-0.00035022,0.00096133,0.0005048
 0,0.00175067,-0.00053694,-0.00060080,0.00067741,-0.00048403,0.00077188
 ,-0.03519231,0.02370709,-0.05749232,0.04098197,-0.02793247,0.04394081,
 0.00204637,-0.00012392,0.02520716,0.00075542,-0.00029671,0.00072080,-0
 .00042385,0.00000011,0.00016069,0.00075517,0.00028941,0.00072520,-0.00
 392640,-0.00000091,0.00025597,-0.05408952,-0.00001438,0.00431642,-0.00
 021982,-0.00690156,-0.01565608,0.05532820,-0.00000969,0.00646023,0.000
 02929,0.00010408,0.00060135,0.00104490,-0.00000403,-0.00040640,-0.0000
 0204,-0.00009964,0.00061256,-0.00104784,0.00000355,0.00103889,-0.00000
 052,-0.00000213,-0.02190139,0.00153019,0.00741032,0.00125844,0.0039877
 5,-0.00000709,0.01105366,0.00369970,0.00002607,0.00095005,-0.00038368,
 0.00012562,0.00046647,0.00061248,-0.00000233,0.00010444,-0.00038126,-0
 .00012342,0.00045482,-0.00097692,0.00000417,0.00043373,-0.00015322,0.0
 0153134,-0.32595374,-0.00110005,-0.00096368,-0.00196376,-0.00014217,-0
 .00159337,0.32751071,-0.01691976,-0.00783898,-0.00410419,0.00200277,-0
 .00176935,-0.00014892,-0.00147955,0.00069172,0.00005680,-0.00065381,0.
 00083150,0.00074527,0.00043584,0.00023062,0.00061769,-0.09537332,-0.02
 470482,-0.03878149,0.01549700,-0.00726730,0.00137231,-0.00022557,-0.00
 739538,-0.00117486,0.09671639,0.00722854,0.00184773,0.00076035,0.00230
 726,-0.00003785,0.00013163,0.00047638,0.00066296,0.00007947,-0.0003886
 7,-0.00092616,-0.00006600,0.00027781,0.00029581,0.00050539,-0.07143192
 ,-0.03117972,-0.03262672,0.00725356,-0.03881685,0.00208887,0.00705504,
 0.00128266,0.00099561,0.04722200,0.06687142,0.00344077,-0.00008576,0.0
 0505545,0.00177002,0.00054527,-0.00059569,-0.00034442,-0.00096456,0.00
 049740,0.00303604,0.00183631,-0.00000586,0.00068411,0.00048061,0.00078
 150,-0.03583943,-0.02344324,-0.05798779,0.00142350,-0.00255169,0.00980
 787,-0.01558798,-0.00394834,-0.00200272,0.04141740,0.02813141,0.044449
 84\\0.00001192,-0.00000968,-0.00000659,-0.00000130,0.00000602,0.000005
 90,-0.00001500,0.00000539,-0.00000664,-0.00000282,-0.00000973,0.000000
 98,-0.00000033,0.00001047,0.00000280,0.00002590,-0.00002209,0.00003328
 ,-0.00000137,0.00001272,-0.00000867,-0.00001286,0.00000981,-0.00001545
 ,-0.00000414,-0.00000290,-0.00000562\\\@


 THERE IS NO SCIENCE WITHOUT FANCY, NOR ART WITHOUT FACTS.
     -- VLADIMIR NABAKOV
 Job cpu time:       0 days  1 hours 14 minutes 14.2 seconds.
 File lengths (MBytes):  RWF=     79 Int=      0 D2E=      0 Chk=      5 Scr=      1
 Normal termination of Gaussian 09 at Mon Jun 20 11:08:49 2016.
