 Entering Gaussian System, Link 0=/home/proyectos/fulerenos/M3C-v2.0/M3C-deps_CCC/g09-AM64L-G09RevC.01/g09
 Initial command:
 /home/proyectos/fulerenos/M3C-v2.0/M3C-deps_CCC/g09-AM64L-G09RevC.01/l1.exe "/scratch/naguirre/gaussian/Gau-32308.inp" -scrdir="/scratch/naguirre/gaussian/"
 Entering Link 1 = /home/proyectos/fulerenos/M3C-v2.0/M3C-deps_CCC/g09-AM64L-G09RevC.01/l1.exe PID=     32310.
  
 Copyright (c) 1988,1990,1992,1993,1995,1998,2003,2009,2015,
            Gaussian, Inc.  All Rights Reserved.
  
 This is part of the Gaussian(R) 09 program.  It is based on
 the Gaussian(R) 03 system (copyright 2003, Gaussian, Inc.),
 the Gaussian(R) 98 system (copyright 1998, Gaussian, Inc.),
 the Gaussian(R) 94 system (copyright 1995, Gaussian, Inc.),
 the Gaussian 92(TM) system (copyright 1992, Gaussian, Inc.),
 the Gaussian 90(TM) system (copyright 1990, Gaussian, Inc.),
 the Gaussian 88(TM) system (copyright 1988, Gaussian, Inc.),
 the Gaussian 86(TM) system (copyright 1986, Carnegie Mellon
 University), and the Gaussian 82(TM) system (copyright 1983,
 Carnegie Mellon University). Gaussian is a federally registered
 trademark of Gaussian, Inc.
  
 This software contains proprietary and confidential information,
 including trade secrets, belonging to Gaussian, Inc.
  
 This software is provided under written license and may be
 used, copied, transmitted, or stored only in accord with that
 written license.
  
 The following legend is applicable only to US Government
 contracts under FAR:
  
                    RESTRICTED RIGHTS LEGEND
  
 Use, reproduction and disclosure by the US Government is
 subject to restrictions as set forth in subparagraphs (a)
 and (c) of the Commercial Computer Software - Restricted
 Rights clause in FAR 52.227-19.
  
 Gaussian, Inc.
 340 Quinnipiac St., Bldg. 40, Wallingford CT 06492
  
  
 ---------------------------------------------------------------
 Warning -- This program may not be used in any manner that
 competes with the business of Gaussian, Inc. or will provide
 assistance to any competitor of Gaussian, Inc.  The licensee
 of this program is prohibited from giving any competitor of
 Gaussian, Inc. access to this program.  By using this program,
 the user acknowledges that Gaussian, Inc. is engaged in the
 business of creating and licensing software in the field of
 computational chemistry and represents and warrants to the
 licensee that it is not a competitor of Gaussian, Inc. and that
 it will not use this program in any manner prohibited above.
 ---------------------------------------------------------------
  

 Cite this work as:
 Gaussian 09, Revision E.01,
 M. J. Frisch, G. W. Trucks, H. B. Schlegel, G. E. Scuseria, 
 M. A. Robb, J. R. Cheeseman, G. Scalmani, V. Barone, B. Mennucci, 
 G. A. Petersson, H. Nakatsuji, M. Caricato, X. Li, H. P. Hratchian, 
 A. F. Izmaylov, J. Bloino, G. Zheng, J. L. Sonnenberg, M. Hada, 
 M. Ehara, K. Toyota, R. Fukuda, J. Hasegawa, M. Ishida, T. Nakajima, 
 Y. Honda, O. Kitao, H. Nakai, T. Vreven, J. A. Montgomery, Jr., 
 J. E. Peralta, F. Ogliaro, M. Bearpark, J. J. Heyd, E. Brothers, 
 K. N. Kudin, V. N. Staroverov, T. Keith, R. Kobayashi, J. Normand, 
 K. Raghavachari, A. Rendell, J. C. Burant, S. S. Iyengar, J. Tomasi, 
 M. Cossi, N. Rega, J. M. Millam, M. Klene, J. E. Knox, J. B. Cross, 
 V. Bakken, C. Adamo, J. Jaramillo, R. Gomperts, R. E. Stratmann, 
 O. Yazyev, A. J. Austin, R. Cammi, C. Pomelli, J. W. Ochterski, 
 R. L. Martin, K. Morokuma, V. G. Zakrzewski, G. A. Voth, 
 P. Salvador, J. J. Dannenberg, S. Dapprich, A. D. Daniels, 
 O. Farkas, J. B. Foresman, J. V. Ortiz, J. Cioslowski, 
 and D. J. Fox, Gaussian, Inc., Wallingford CT, 2013.
 
 ******************************************
 Gaussian 09:  EM64L-G09RevE.01 30-Nov-2015
                20-Jul-2016 
 ******************************************
 %NProcShared=1
 Will use up to    1 processors via shared memory.
 ---------------------------------------------
 #p b3lyp/6-311++G(3df,2p) freq symmetry=Loose
 ---------------------------------------------
 1/10=4,30=1,38=1/1,3;
 2/12=2,17=4,18=3,40=1/2;
 3/5=4,6=6,7=1216,11=2,16=1,25=1,30=1,71=2,74=-5,140=1/1,2,3;
 4//1;
 5/5=2,38=5,98=1/2;
 8/6=4,10=90,11=11/1;
 11/6=1,8=1,9=11,15=111,16=1/1,2,10;
 10/6=1/2;
 6/7=2,8=2,9=2,10=2,18=1,28=1/1;
 7/8=1,10=1,25=1/1,2,3,16;
 1/10=4,30=1/3;
 99//99;
 Leave Link    1 at Wed Jul 20 00:25:53 2016, MaxMem=           0 cpu:         0.2
 (Enter /home/proyectos/fulerenos/M3C-v2.0/M3C-deps_CCC/g09-AM64L-G09RevC.01/l101.exe)
 ---------
 b3lyp opt
 ---------
 Symbolic Z-matrix:
 Charge =  3 Multiplicity = 2
 C                     2.56985   0.33209   0.00041 
 C                     1.3461   -0.03246   0.00056 
 C                     0.07381  -0.56909   0.00084 
 H                     3.63415   0.65812   0.00028 
 H                     0.04539  -1.71028   0.00177 
 C                    -1.17155  -0.04495   0.00026 
 C                    -2.42469   0.32581  -0.0002 
 H                    -3.27323  -0.42543   0.00031 
 H                    -2.7682    1.40156  -0.00112 
 
 NAtoms=      9 NQM=        9 NQMF=       0 NMMI=      0 NMMIF=      0
                NMic=       0 NMicF=      0.
                    Isotopes and Nuclear Properties:
 (Nuclear quadrupole moments (NQMom) in fm**2, nuclear magnetic moments (NMagM)
  in nuclear magnetons)

  Atom         1           2           3           4           5           6           7           8           9
 IAtWgt=          12          12          12           1           1          12          12           1           1
 AtmWgt=  12.0000000  12.0000000  12.0000000   1.0078250   1.0078250  12.0000000  12.0000000   1.0078250   1.0078250
 NucSpn=           0           0           0           1           1           0           0           1           1
 AtZEff=   0.0000000   0.0000000   0.0000000   0.0000000   0.0000000   0.0000000   0.0000000   0.0000000   0.0000000
 NQMom=    0.0000000   0.0000000   0.0000000   0.0000000   0.0000000   0.0000000   0.0000000   0.0000000   0.0000000
 NMagM=    0.0000000   0.0000000   0.0000000   2.7928460   2.7928460   0.0000000   0.0000000   2.7928460   2.7928460
 AtZNuc=   6.0000000   6.0000000   6.0000000   1.0000000   1.0000000   6.0000000   6.0000000   1.0000000   1.0000000
 Leave Link  101 at Wed Jul 20 00:27:00 2016, MaxMem=    33554432 cpu:        56.5
 (Enter /home/proyectos/fulerenos/M3C-v2.0/M3C-deps_CCC/g09-AM64L-G09RevC.01/l103.exe)

 GradGradGradGradGradGradGradGradGradGradGradGradGradGradGradGradGradGrad
 Berny optimization.
 Initialization pass.
 Trust Radius=3.00D-01 FncErr=1.00D-07 GrdErr=1.00D-07
 Number of steps in this run=      2 maximum allowed number of steps=      2.
 GradGradGradGradGradGradGradGradGradGradGradGradGradGradGradGradGradGrad

 Leave Link  103 at Wed Jul 20 00:27:00 2016, MaxMem=    33554432 cpu:         0.1
 (Enter /home/proyectos/fulerenos/M3C-v2.0/M3C-deps_CCC/g09-AM64L-G09RevC.01/l202.exe)
                          Input orientation:                          
 ---------------------------------------------------------------------
 Center     Atomic      Atomic             Coordinates (Angstroms)
 Number     Number       Type             X           Y           Z
 ---------------------------------------------------------------------
      1          6           0        2.569849    0.332093    0.000411
      2          6           0        1.346102   -0.032463    0.000557
      3          6           0        0.073812   -0.569094    0.000838
      4          1           0        3.634153    0.658124    0.000277
      5          1           0        0.045389   -1.710283    0.001766
      6          6           0       -1.171553   -0.044951    0.000255
      7          6           0       -2.424695    0.325807   -0.000203
      8          1           0       -3.273225   -0.425430    0.000305
      9          1           0       -2.768205    1.401560   -0.001124
 ---------------------------------------------------------------------
                    Distance matrix (angstroms):
                    1          2          3          4          5
     1  C    0.000000
     2  C    1.276894   0.000000
     3  C    2.653741   1.380831   0.000000
     4  H    1.113121   2.389997   3.765912   0.000000
     5  H    3.247184   2.122955   1.141544   4.299835   0.000000
     6  C    3.760353   2.517686   1.351170   4.856864   2.062591
     7  C    4.994548   3.787779   2.653938   6.067955   3.201091
     8  H    5.891974   4.636012   3.350119   6.991850   3.558658
     9  H    5.444133   4.357057   3.458401   6.445377   4.195222
                    6          7          8          9
     6  C    0.000000
     7  C    1.306838   0.000000
     8  H    2.135835   1.133296   0.000000
     9  H    2.154459   1.129267   1.895505   0.000000
 Stoichiometry    C5H4(3+,2)
 Framework group  CS[SG(C5H4)]
 Deg. of freedom    15
 Full point group                 CS      NOp   2
 Largest Abelian subgroup         CS      NOp   2
 Largest concise Abelian subgroup C1      NOp   1
                         Standard orientation:                         
 ---------------------------------------------------------------------
 Center     Atomic      Atomic             Coordinates (Angstroms)
 Number     Number       Type             X           Y           Z
 ---------------------------------------------------------------------
      1          6           0       -2.591270    0.001224    0.000000
      2          6           0       -1.330779    0.205234    0.000000
      3          6           0       -0.000000    0.573640    0.000000
      4          1           0       -3.688685   -0.185104    0.000000
      5          1           0        0.175074    1.701679    0.000000
      6          6           0        1.167541   -0.106439   -0.000000
      7          6           0        2.362538   -0.635410   -0.000000
      8          1           0        3.300704    0.000361   -0.000000
      9          1           0        2.564726   -1.746430   -0.000000
 ---------------------------------------------------------------------
 Rotational constants (GHZ):     41.8812798      2.2989881      2.1793567
 Leave Link  202 at Wed Jul 20 00:27:00 2016, MaxMem=    33554432 cpu:         0.0
 (Enter /home/proyectos/fulerenos/M3C-v2.0/M3C-deps_CCC/g09-AM64L-G09RevC.01/l301.exe)
 Standard basis: 6-311++G(3df,2p) (5D, 7F)
 Ernie: Thresh=  0.10000D-02 Tol=  0.10000D-05 Strict=F.
 There are   187 symmetry adapted cartesian basis functions of A'  symmetry.
 There are    78 symmetry adapted cartesian basis functions of A"  symmetry.
 There are   162 symmetry adapted basis functions of A'  symmetry.
 There are    73 symmetry adapted basis functions of A"  symmetry.
   235 basis functions,   338 primitive gaussians,   265 cartesian basis functions
    16 alpha electrons       15 beta electrons
       nuclear repulsion energy       121.0223290473 Hartrees.
 IExCor=  402 DFT=T Ex+Corr=B3LYP ExCW=0 ScaHFX=  0.200000
 ScaDFX=  0.800000  0.720000  1.000000  0.810000 ScalE2=  1.000000  1.000000
 IRadAn=      0 IRanWt=     -1 IRanGd=            0 ICorTp=0 IEmpDi=  4
 NAtoms=    9 NActive=    9 NUniq=    9 SFac= 1.00D+00 NAtFMM=   60 NAOKFM=F Big=F
 Integral buffers will be    131072 words long.
 Raffenetti 2 integral format.
 Two-electron integral symmetry is turned on.
 Leave Link  301 at Wed Jul 20 00:28:08 2016, MaxMem=    33554432 cpu:        56.2
 (Enter /home/proyectos/fulerenos/M3C-v2.0/M3C-deps_CCC/g09-AM64L-G09RevC.01/l302.exe)
 NPDir=0 NMtPBC=     1 NCelOv=     1 NCel=       1 NClECP=     1 NCelD=      1
         NCelK=      1 NCelE2=     1 NClLst=     1 CellRange=     0.0.
 One-electron integrals computed using PRISM.
 NBasis=   235 RedAO= T EigKep=  1.75D-06  NBF=   162    73
 NBsUse=   235 1.00D-06 EigRej= -1.00D+00 NBFU=   162    73
 Precomputing XC quadrature grid using
 IXCGrd= 4 IRadAn=           0 IRanWt=          -1 IRanGd=           0 AccXCQ= 0.00D+00.
 Generated NRdTot=       0 NPtTot=           0 NUsed=           0 NTot=          32
 NSgBfM=   265   265   265   265   265 MxSgAt=     9 MxSgA2=     9.
 Leave Link  302 at Wed Jul 20 00:28:10 2016, MaxMem=    33554432 cpu:         1.9
 (Enter /home/proyectos/fulerenos/M3C-v2.0/M3C-deps_CCC/g09-AM64L-G09RevC.01/l303.exe)
 DipDrv:  MaxL=1.
 Leave Link  303 at Wed Jul 20 00:28:10 2016, MaxMem=    33554432 cpu:         0.3
 (Enter /home/proyectos/fulerenos/M3C-v2.0/M3C-deps_CCC/g09-AM64L-G09RevC.01/l401.exe)
 ExpMin= 3.60D-02 ExpMax= 4.56D+03 ExpMxC= 6.82D+02 IAcc=3 IRadAn=         5 AccDes= 0.00D+00
 Harris functional with IExCor=  402 and IRadAn=       5 diagonalized for initial guess.
 HarFok:  IExCor=  402 AccDes= 0.00D+00 IRadAn=         5 IDoV= 1 UseB2=F ITyADJ=14
 ICtDFT=  3500011 ScaDFX=  1.000000  1.000000  1.000000  1.000000
 FoFCou: FMM=F IPFlag=           0 FMFlag=      100000 FMFlg1=           0
         NFxFlg=           0 DoJE=T BraDBF=F KetDBF=T FulRan=T
         wScrn=  0.000000 ICntrl=     500 IOpCl=  0 I1Cent=   200000004 NGrid=           0
         NMat0=    1 NMatS0=      1 NMatT0=    0 NMatD0=    1 NMtDS0=    0 NMtDT0=    0
 Petite list used in FoFCou.
 Harris En= -191.950822606664    
 JPrj=0 DoOrth=F DoCkMO=F.
 Initial guess orbital symmetries:
 Alpha Orbitals:
       Occupied  (A') (A') (A') (A') (A') (A') (A') (A') (A') (A')
                 (A') (A') (A') (A") (A") (A')
       Virtual   (A") (A') (A") (A') (A') (A') (A") (A') (A') (A')
                 (A') (A") (A') (A") (A') (A') (A") (A') (A') (A')
                 (A") (A') (A') (A') (A') (A") (A') (A') (A') (A')
                 (A') (A') (A') (A") (A') (A') (A") (A') (A') (A')
                 (A") (A') (A') (A') (A") (A") (A') (A') (A') (A")
                 (A') (A') (A") (A") (A') (A') (A") (A') (A") (A')
                 (A') (A') (A') (A") (A') (A') (A') (A') (A") (A')
                 (A') (A") (A") (A") (A') (A') (A") (A') (A') (A')
                 (A") (A') (A") (A') (A') (A') (A") (A') (A') (A')
                 (A') (A') (A') (A') (A') (A') (A") (A") (A') (A')
                 (A') (A") (A") (A') (A") (A") (A') (A') (A") (A")
                 (A') (A') (A') (A') (A') (A') (A") (A') (A") (A')
                 (A") (A') (A") (A') (A") (A') (A') (A") (A') (A")
                 (A') (A") (A') (A') (A") (A') (A") (A') (A') (A")
                 (A') (A') (A") (A') (A") (A') (A') (A") (A') (A")
                 (A') (A') (A") (A') (A') (A') (A') (A') (A") (A')
                 (A") (A') (A') (A') (A") (A') (A') (A") (A") (A')
                 (A') (A') (A") (A') (A") (A') (A') (A") (A') (A')
                 (A') (A') (A") (A') (A") (A') (A') (A') (A') (A")
                 (A') (A") (A') (A") (A') (A") (A") (A') (A") (A")
                 (A') (A") (A') (A') (A") (A') (A') (A") (A') (A')
                 (A') (A') (A') (A') (A') (A') (A') (A') (A')
 Beta  Orbitals:
       Occupied  (A') (A') (A') (A') (A') (A') (A') (A') (A') (A')
                 (A') (A') (A') (A") (A")
       Virtual   (A') (A") (A') (A") (A') (A') (A') (A") (A') (A')
                 (A') (A') (A") (A') (A") (A') (A') (A") (A') (A')
                 (A') (A") (A') (A') (A') (A') (A") (A') (A') (A')
                 (A') (A') (A') (A') (A") (A') (A') (A") (A') (A')
                 (A') (A") (A') (A') (A') (A") (A") (A') (A') (A')
                 (A") (A') (A') (A") (A") (A') (A') (A") (A') (A")
                 (A') (A') (A') (A') (A") (A') (A') (A') (A') (A")
                 (A') (A') (A") (A") (A") (A') (A') (A") (A') (A')
                 (A') (A") (A') (A") (A') (A') (A') (A") (A') (A')
                 (A') (A') (A') (A') (A') (A') (A') (A") (A") (A')
                 (A') (A') (A") (A") (A') (A") (A") (A') (A') (A")
                 (A") (A') (A') (A') (A') (A') (A') (A") (A') (A")
                 (A') (A") (A') (A") (A') (A") (A') (A') (A") (A')
                 (A") (A') (A") (A') (A') (A") (A') (A") (A') (A')
                 (A") (A') (A') (A") (A') (A") (A') (A') (A") (A')
                 (A") (A') (A') (A") (A') (A') (A') (A') (A') (A")
                 (A') (A") (A') (A') (A') (A") (A') (A') (A") (A")
                 (A') (A') (A') (A") (A') (A") (A') (A') (A") (A')
                 (A') (A') (A') (A") (A') (A") (A') (A') (A') (A')
                 (A") (A') (A") (A') (A") (A') (A") (A") (A') (A")
                 (A") (A') (A") (A') (A') (A") (A') (A') (A") (A')
                 (A') (A') (A') (A') (A') (A') (A') (A') (A') (A')
 The electronic state of the initial guess is 2-A'.
 Initial guess <Sx>= 0.0000 <Sy>= 0.0000 <Sz>= 0.5000 <S**2>= 0.7500 S= 0.5000
 Leave Link  401 at Wed Jul 20 00:28:20 2016, MaxMem=    33554432 cpu:         9.3
 (Enter /home/proyectos/fulerenos/M3C-v2.0/M3C-deps_CCC/g09-AM64L-G09RevC.01/l502.exe)
 UHF open shell SCF:
 Using DIIS extrapolation, IDIIS=  1040.
 Integral symmetry usage will be decided dynamically.
 IVT=      232800 IEndB=      232800 NGot=    33554432 MDV=    33408763
 LenX=    33408763 LenY=    33338097
 Requested convergence on RMS density matrix=1.00D-08 within 128 cycles.
 Requested convergence on MAX density matrix=1.00D-06.
 Requested convergence on             energy=1.00D-06.
 No special actions if energy rises.
 Fock matrices will be formed incrementally for  20 cycles.

 Cycle   1  Pass 1  IDiag  1:
 FoFJK:  IHMeth= 1 ICntrl=       0 DoSepK=F KAlg= 0 I1Cent=   0 FoldK=F
 IRaf= 940000000 NMat=   1 IRICut=       1 DoRegI=T DoRafI=F ISym2E= 1.
 FoFCou: FMM=F IPFlag=           0 FMFlag=      100000 FMFlg1=           0
         NFxFlg=           0 DoJE=F BraDBF=F KetDBF=F FulRan=T
         wScrn=  0.000000 ICntrl=       0 IOpCl=  1 I1Cent=           0 NGrid=           0
         NMat0=    1 NMatS0=      1 NMatT0=    0 NMatD0=    1 NMtDS0=    0 NMtDT0=    0
 Petite list used in FoFCou.
 E= -191.120765835800    
 DIIS: error= 2.59D-02 at cycle   1 NSaved=   1.
 NSaved= 1 IEnMin= 1 EnMin= -191.120765835800     IErMin= 1 ErrMin= 2.59D-02
 ErrMax= 2.59D-02  0.00D+00 EMaxC= 1.00D-01 BMatC= 2.14D-01 BMatP= 2.14D-01
 IDIUse=3 WtCom= 7.41D-01 WtEn= 2.59D-01
 Coeff-Com:  0.100D+01
 Coeff-En:   0.100D+01
 Coeff:      0.100D+01
 Gap=     0.163 Goal=   None    Shift=    0.000
 Gap=     0.058 Goal=   None    Shift=    0.000
 GapD=    0.058 DampG=0.500 DampE=0.500 DampFc=0.2500 IDamp=-1.
 Damping current iteration by 2.50D-01
 RMSDP=1.03D-02 MaxDP=9.83D-01              OVMax= 3.14D-01

 Cycle   2  Pass 1  IDiag  1:
 RMSU=  2.19D-03    CP:  1.07D+00
 E= -191.143590711253     Delta-E=       -0.022824875453 Rises=F Damp=T
 DIIS: error= 9.39D-03 at cycle   2 NSaved=   2.
 NSaved= 2 IEnMin= 2 EnMin= -191.143590711253     IErMin= 2 ErrMin= 9.39D-03
 ErrMax= 9.39D-03  0.00D+00 EMaxC= 1.00D-01 BMatC= 6.01D-02 BMatP= 2.14D-01
 IDIUse=3 WtCom= 9.06D-01 WtEn= 9.39D-02
 Coeff-Com: -0.393D+00 0.139D+01
 Coeff-En:   0.000D+00 0.100D+01
 Coeff:     -0.356D+00 0.136D+01
 Gap=     0.164 Goal=   None    Shift=    0.000
 Gap=     0.088 Goal=   None    Shift=    0.000
 RMSDP=4.68D-03 MaxDP=4.02D-01 DE=-2.28D-02 OVMax= 2.28D-01

 Cycle   3  Pass 1  IDiag  1:
 RMSU=  3.13D-03    CP:  1.19D+00  2.08D+00
 E= -191.190081807499     Delta-E=       -0.046491096246 Rises=F Damp=F
 DIIS: error= 5.95D-03 at cycle   3 NSaved=   3.
 NSaved= 3 IEnMin= 3 EnMin= -191.190081807499     IErMin= 3 ErrMin= 5.95D-03
 ErrMax= 5.95D-03  0.00D+00 EMaxC= 1.00D-01 BMatC= 1.16D-02 BMatP= 6.01D-02
 IDIUse=3 WtCom= 9.41D-01 WtEn= 5.95D-02
 Coeff-Com: -0.251D+00 0.469D+00 0.782D+00
 Coeff-En:   0.000D+00 0.000D+00 0.100D+01
 Coeff:     -0.236D+00 0.442D+00 0.795D+00
 Gap=     0.156 Goal=   None    Shift=    0.000
 Gap=     0.103 Goal=   None    Shift=    0.000
 RMSDP=9.94D-04 MaxDP=6.66D-02 DE=-4.65D-02 OVMax= 4.63D-02

 Cycle   4  Pass 1  IDiag  1:
 RMSU=  9.21D-04    CP:  1.18D+00  2.02D+00  1.05D+00
 E= -191.190188337103     Delta-E=       -0.000106529603 Rises=F Damp=F
 DIIS: error= 5.14D-03 at cycle   4 NSaved=   4.
 NSaved= 4 IEnMin= 4 EnMin= -191.190188337103     IErMin= 4 ErrMin= 5.14D-03
 ErrMax= 5.14D-03  0.00D+00 EMaxC= 1.00D-01 BMatC= 1.04D-02 BMatP= 1.16D-02
 IDIUse=3 WtCom= 9.49D-01 WtEn= 5.14D-02
 Coeff-Com: -0.123D+00 0.173D+00 0.530D+00 0.420D+00
 Coeff-En:   0.000D+00 0.000D+00 0.492D+00 0.508D+00
 Coeff:     -0.117D+00 0.164D+00 0.528D+00 0.425D+00
 Gap=     0.161 Goal=   None    Shift=    0.000
 Gap=     0.099 Goal=   None    Shift=    0.000
 RMSDP=4.91D-04 MaxDP=4.76D-02 DE=-1.07D-04 OVMax= 3.31D-02

 Cycle   5  Pass 1  IDiag  1:
 RMSU=  3.04D-04    CP:  1.18D+00  2.06D+00  1.03D+00  6.27D-01
 E= -191.193080809345     Delta-E=       -0.002892472243 Rises=F Damp=F
 DIIS: error= 1.41D-03 at cycle   5 NSaved=   5.
 NSaved= 5 IEnMin= 5 EnMin= -191.193080809345     IErMin= 5 ErrMin= 1.41D-03
 ErrMax= 1.41D-03  0.00D+00 EMaxC= 1.00D-01 BMatC= 6.70D-04 BMatP= 1.04D-02
 IDIUse=3 WtCom= 9.86D-01 WtEn= 1.41D-02
 Coeff-Com: -0.484D-01 0.637D-01 0.230D+00 0.258D+00 0.497D+00
 Coeff-En:   0.000D+00 0.000D+00 0.000D+00 0.162D-01 0.984D+00
 Coeff:     -0.477D-01 0.628D-01 0.227D+00 0.254D+00 0.504D+00
 Gap=     0.162 Goal=   None    Shift=    0.000
 Gap=     0.100 Goal=   None    Shift=    0.000
 RMSDP=1.56D-04 MaxDP=7.21D-03 DE=-2.89D-03 OVMax= 1.10D-02

 Cycle   6  Pass 1  IDiag  1:
 RMSU=  1.02D-04    CP:  1.19D+00  2.07D+00  1.04D+00  6.17D-01  6.43D-01
 E= -191.193272305695     Delta-E=       -0.000191496350 Rises=F Damp=F
 DIIS: error= 5.25D-04 at cycle   6 NSaved=   6.
 NSaved= 6 IEnMin= 6 EnMin= -191.193272305695     IErMin= 6 ErrMin= 5.25D-04
 ErrMax= 5.25D-04  0.00D+00 EMaxC= 1.00D-01 BMatC= 5.98D-05 BMatP= 6.70D-04
 IDIUse=3 WtCom= 9.95D-01 WtEn= 5.25D-03
 Coeff-Com: -0.107D-01 0.114D-01 0.503D-01 0.820D-01 0.242D+00 0.625D+00
 Coeff-En:   0.000D+00 0.000D+00 0.000D+00 0.000D+00 0.000D+00 0.100D+01
 Coeff:     -0.107D-01 0.114D-01 0.500D-01 0.816D-01 0.240D+00 0.627D+00
 Gap=     0.161 Goal=   None    Shift=    0.000
 Gap=     0.100 Goal=   None    Shift=    0.000
 RMSDP=5.41D-05 MaxDP=3.32D-03 DE=-1.91D-04 OVMax= 5.42D-03

 Cycle   7  Pass 1  IDiag  1:
 RMSU=  4.21D-05    CP:  1.18D+00  2.06D+00  1.04D+00  6.37D-01  6.97D-01
                    CP:  1.00D+00
 E= -191.193289896340     Delta-E=       -0.000017590645 Rises=F Damp=F
 DIIS: error= 3.33D-04 at cycle   7 NSaved=   7.
 NSaved= 7 IEnMin= 7 EnMin= -191.193289896340     IErMin= 7 ErrMin= 3.33D-04
 ErrMax= 3.33D-04  0.00D+00 EMaxC= 1.00D-01 BMatC= 1.64D-05 BMatP= 5.98D-05
 IDIUse=3 WtCom= 9.97D-01 WtEn= 3.33D-03
 Coeff-Com:  0.488D-02-0.798D-02-0.187D-01-0.119D-01-0.433D-02 0.339D+00
 Coeff-Com:  0.699D+00
 Coeff-En:   0.000D+00 0.000D+00 0.000D+00 0.000D+00 0.000D+00 0.705D-01
 Coeff-En:   0.930D+00
 Coeff:      0.487D-02-0.795D-02-0.187D-01-0.119D-01-0.431D-02 0.338D+00
 Coeff:      0.700D+00
 Gap=     0.162 Goal=   None    Shift=    0.000
 Gap=     0.101 Goal=   None    Shift=    0.000
 RMSDP=2.99D-05 MaxDP=2.44D-03 DE=-1.76D-05 OVMax= 3.52D-03

 Cycle   8  Pass 1  IDiag  1:
 RMSU=  1.86D-05    CP:  1.18D+00  2.06D+00  1.04D+00  6.37D-01  7.06D-01
                    CP:  1.21D+00  1.09D+00
 E= -191.193297320928     Delta-E=       -0.000007424587 Rises=F Damp=F
 DIIS: error= 1.82D-04 at cycle   8 NSaved=   8.
 NSaved= 8 IEnMin= 8 EnMin= -191.193297320928     IErMin= 8 ErrMin= 1.82D-04
 ErrMax= 1.82D-04  0.00D+00 EMaxC= 1.00D-01 BMatC= 2.44D-06 BMatP= 1.64D-05
 IDIUse=3 WtCom= 9.98D-01 WtEn= 1.82D-03
 Coeff-Com:  0.282D-02-0.403D-02-0.109D-01-0.129D-01-0.211D-01 0.893D-01
 Coeff-Com:  0.324D+00 0.633D+00
 Coeff-En:   0.000D+00 0.000D+00 0.000D+00 0.000D+00 0.000D+00 0.000D+00
 Coeff-En:   0.000D+00 0.100D+01
 Coeff:      0.282D-02-0.402D-02-0.109D-01-0.128D-01-0.211D-01 0.891D-01
 Coeff:      0.323D+00 0.634D+00
 Gap=     0.162 Goal=   None    Shift=    0.000
 Gap=     0.100 Goal=   None    Shift=    0.000
 RMSDP=1.36D-05 MaxDP=1.44D-03 DE=-7.42D-06 OVMax= 1.87D-03

 Cycle   9  Pass 1  IDiag  1:
 RMSU=  1.10D-05    CP:  1.18D+00  2.06D+00  1.04D+00  6.36D-01  7.12D-01
                    CP:  1.23D+00  1.18D+00  1.08D+00
 E= -191.193299277123     Delta-E=       -0.000001956195 Rises=F Damp=F
 DIIS: error= 1.05D-04 at cycle   9 NSaved=   9.
 NSaved= 9 IEnMin= 9 EnMin= -191.193299277123     IErMin= 9 ErrMin= 1.05D-04
 ErrMax= 1.05D-04  0.00D+00 EMaxC= 1.00D-01 BMatC= 9.82D-07 BMatP= 2.44D-06
 IDIUse=3 WtCom= 9.99D-01 WtEn= 1.05D-03
 Coeff-Com:  0.231D-05 0.641D-03 0.270D-04-0.527D-02-0.135D-01-0.106D+00
 Coeff-Com: -0.128D+00 0.358D+00 0.894D+00
 Coeff-En:   0.000D+00 0.000D+00 0.000D+00 0.000D+00 0.000D+00 0.000D+00
 Coeff-En:   0.000D+00 0.000D+00 0.100D+01
 Coeff:      0.230D-05 0.640D-03 0.270D-04-0.527D-02-0.135D-01-0.106D+00
 Coeff:     -0.128D+00 0.358D+00 0.894D+00
 Gap=     0.162 Goal=   None    Shift=    0.000
 Gap=     0.100 Goal=   None    Shift=    0.000
 RMSDP=1.37D-05 MaxDP=1.24D-03 DE=-1.96D-06 OVMax= 1.98D-03

 Cycle  10  Pass 1  IDiag  1:
 RMSU=  6.03D-06    CP:  1.18D+00  2.06D+00  1.04D+00  6.34D-01  7.26D-01
                    CP:  1.30D+00  1.30D+00  1.44D+00  1.26D+00
 E= -191.193301009076     Delta-E=       -0.000001731953 Rises=F Damp=F
 DIIS: error= 5.50D-05 at cycle  10 NSaved=  10.
 NSaved=10 IEnMin=10 EnMin= -191.193301009076     IErMin=10 ErrMin= 5.50D-05
 ErrMax= 5.50D-05  0.00D+00 EMaxC= 1.00D-01 BMatC= 2.51D-07 BMatP= 9.82D-07
 IDIUse=1 WtCom= 1.00D+00 WtEn= 0.00D+00
 Coeff-Com: -0.173D-02 0.223D-02 0.523D-02 0.928D-02 0.193D-01-0.130D-02
 Coeff-Com: -0.115D+00-0.453D+00-0.152D+00 0.169D+01
 Coeff:     -0.173D-02 0.223D-02 0.523D-02 0.928D-02 0.193D-01-0.130D-02
 Coeff:     -0.115D+00-0.453D+00-0.152D+00 0.169D+01
 Gap=     0.162 Goal=   None    Shift=    0.000
 Gap=     0.100 Goal=   None    Shift=    0.000
 RMSDP=1.13D-05 MaxDP=6.77D-04 DE=-1.73D-06 OVMax= 2.17D-03

 Cycle  11  Pass 1  IDiag  1:
 RMSU=  4.60D-06    CP:  1.18D+00  2.06D+00  1.04D+00  6.33D-01  7.36D-01
                    CP:  1.31D+00  1.39D+00  1.65D+00  1.81D+00  1.85D+00
 E= -191.193301984657     Delta-E=       -0.000000975581 Rises=F Damp=F
 DIIS: error= 1.59D-05 at cycle  11 NSaved=  11.
 NSaved=11 IEnMin=11 EnMin= -191.193301984657     IErMin=11 ErrMin= 1.59D-05
 ErrMax= 1.59D-05  0.00D+00 EMaxC= 1.00D-01 BMatC= 3.21D-08 BMatP= 2.51D-07
 IDIUse=1 WtCom= 1.00D+00 WtEn= 0.00D+00
 Coeff-Com: -0.154D-03 0.113D-03 0.233D-03 0.685D-03 0.155D-02 0.202D-01
 Coeff-Com:  0.112D-01-0.764D-01-0.157D+00 0.703D-01 0.113D+01
 Coeff:     -0.154D-03 0.113D-03 0.233D-03 0.685D-03 0.155D-02 0.202D-01
 Coeff:      0.112D-01-0.764D-01-0.157D+00 0.703D-01 0.113D+01
 Gap=     0.162 Goal=   None    Shift=    0.000
 Gap=     0.100 Goal=   None    Shift=    0.000
 RMSDP=3.71D-06 MaxDP=1.82D-04 DE=-9.76D-07 OVMax= 6.83D-04

 Cycle  12  Pass 1  IDiag  1:
 RMSU=  1.62D-06    CP:  1.18D+00  2.06D+00  1.04D+00  6.32D-01  7.37D-01
                    CP:  1.31D+00  1.39D+00  1.66D+00  1.92D+00  2.19D+00
                    CP:  1.31D+00
 E= -191.193302078892     Delta-E=       -0.000000094235 Rises=F Damp=F
 DIIS: error= 4.13D-06 at cycle  12 NSaved=  12.
 NSaved=12 IEnMin=12 EnMin= -191.193302078892     IErMin=12 ErrMin= 4.13D-06
 ErrMax= 4.13D-06  0.00D+00 EMaxC= 1.00D-01 BMatC= 6.28D-09 BMatP= 3.21D-08
 IDIUse=1 WtCom= 1.00D+00 WtEn= 0.00D+00
 Coeff-Com:  0.327D-03-0.425D-03-0.114D-02-0.195D-02-0.417D-02 0.508D-02
 Coeff-Com:  0.270D-01 0.823D-01 0.300D-03-0.350D+00 0.233D+00 0.101D+01
 Coeff:      0.327D-03-0.425D-03-0.114D-02-0.195D-02-0.417D-02 0.508D-02
 Coeff:      0.270D-01 0.823D-01 0.300D-03-0.350D+00 0.233D+00 0.101D+01
 Gap=     0.162 Goal=   None    Shift=    0.000
 Gap=     0.100 Goal=   None    Shift=    0.000
 RMSDP=1.60D-06 MaxDP=8.95D-05 DE=-9.42D-08 OVMax= 2.12D-04

 Cycle  13  Pass 1  IDiag  1:
 RMSU=  6.31D-07    CP:  1.18D+00  2.06D+00  1.04D+00  6.31D-01  7.37D-01
                    CP:  1.30D+00  1.39D+00  1.65D+00  1.90D+00  2.30D+00
                    CP:  1.54D+00  1.07D+00
 E= -191.193302090474     Delta-E=       -0.000000011581 Rises=F Damp=F
 DIIS: error= 1.74D-06 at cycle  13 NSaved=  13.
 NSaved=13 IEnMin=13 EnMin= -191.193302090474     IErMin=13 ErrMin= 1.74D-06
 ErrMax= 1.74D-06  0.00D+00 EMaxC= 1.00D-01 BMatC= 6.50D-10 BMatP= 6.28D-09
 IDIUse=1 WtCom= 1.00D+00 WtEn= 0.00D+00
 Coeff-Com:  0.436D-04-0.508D-04-0.739D-05 0.398D-05-0.529D-04-0.292D-02
 Coeff-Com: -0.182D-02 0.122D-01 0.247D-01-0.115D-01-0.176D+00-0.148D-01
 Coeff-Com:  0.117D+01
 Coeff:      0.436D-04-0.508D-04-0.739D-05 0.398D-05-0.529D-04-0.292D-02
 Coeff:     -0.182D-02 0.122D-01 0.247D-01-0.115D-01-0.176D+00-0.148D-01
 Coeff:      0.117D+01
 Gap=     0.162 Goal=   None    Shift=    0.000
 Gap=     0.100 Goal=   None    Shift=    0.000
 RMSDP=3.61D-07 MaxDP=1.84D-05 DE=-1.16D-08 OVMax= 4.88D-05

 Cycle  14  Pass 1  IDiag  1:
 RMSU=  1.50D-07    CP:  1.18D+00  2.06D+00  1.04D+00  6.31D-01  7.37D-01
                    CP:  1.30D+00  1.39D+00  1.64D+00  1.90D+00  2.32D+00
                    CP:  1.58D+00  1.17D+00  1.15D+00
 E= -191.193302091716     Delta-E=       -0.000000001242 Rises=F Damp=F
 DIIS: error= 6.10D-07 at cycle  14 NSaved=  14.
 NSaved=14 IEnMin=14 EnMin= -191.193302091716     IErMin=14 ErrMin= 6.10D-07
 ErrMax= 6.10D-07  0.00D+00 EMaxC= 1.00D-01 BMatC= 5.81D-11 BMatP= 6.50D-10
 IDIUse=1 WtCom= 1.00D+00 WtEn= 0.00D+00
 Coeff-Com: -0.401D-04 0.511D-04 0.103D-03 0.168D-03 0.347D-03 0.573D-03
 Coeff-Com: -0.161D-02-0.101D-01-0.768D-02 0.325D-01 0.293D-01-0.702D-01
 Coeff-Com: -0.361D+00 0.139D+01
 Coeff:     -0.401D-04 0.511D-04 0.103D-03 0.168D-03 0.347D-03 0.573D-03
 Coeff:     -0.161D-02-0.101D-01-0.768D-02 0.325D-01 0.293D-01-0.702D-01
 Coeff:     -0.361D+00 0.139D+01
 Gap=     0.162 Goal=   None    Shift=    0.000
 Gap=     0.100 Goal=   None    Shift=    0.000
 RMSDP=1.66D-07 MaxDP=1.38D-05 DE=-1.24D-09 OVMax= 1.59D-05

 Cycle  15  Pass 1  IDiag  1:
 RMSU=  7.90D-08    CP:  1.18D+00  2.06D+00  1.04D+00  6.31D-01  7.37D-01
                    CP:  1.30D+00  1.39D+00  1.65D+00  1.90D+00  2.32D+00
                    CP:  1.57D+00  1.16D+00  1.16D+00  1.43D+00
 E= -191.193302091834     Delta-E=       -0.000000000118 Rises=F Damp=F
 DIIS: error= 1.69D-07 at cycle  15 NSaved=  15.
 NSaved=15 IEnMin=15 EnMin= -191.193302091834     IErMin=15 ErrMin= 1.69D-07
 ErrMax= 1.69D-07  0.00D+00 EMaxC= 1.00D-01 BMatC= 5.49D-12 BMatP= 5.81D-11
 IDIUse=1 WtCom= 1.00D+00 WtEn= 0.00D+00
 Coeff-Com: -0.935D-05 0.117D-04 0.624D-05 0.712D-05 0.257D-04 0.229D-03
 Coeff-Com: -0.854D-05-0.192D-02-0.261D-02 0.353D-02 0.188D-01-0.634D-02
 Coeff-Com: -0.137D+00 0.795D-01 0.105D+01
 Coeff:     -0.935D-05 0.117D-04 0.624D-05 0.712D-05 0.257D-04 0.229D-03
 Coeff:     -0.854D-05-0.192D-02-0.261D-02 0.353D-02 0.188D-01-0.634D-02
 Coeff:     -0.137D+00 0.795D-01 0.105D+01
 Gap=     0.162 Goal=   None    Shift=    0.000
 Gap=     0.100 Goal=   None    Shift=    0.000
 RMSDP=5.67D-08 MaxDP=4.23D-06 DE=-1.18D-10 OVMax= 3.62D-06

 Cycle  16  Pass 1  IDiag  1:
 RMSU=  2.23D-08    CP:  1.18D+00  2.06D+00  1.04D+00  6.31D-01  7.38D-01
                    CP:  1.30D+00  1.39D+00  1.65D+00  1.91D+00  2.32D+00
                    CP:  1.57D+00  1.16D+00  1.15D+00  1.57D+00  1.04D+00
 E= -191.193302091843     Delta-E=       -0.000000000009 Rises=F Damp=F
 DIIS: error= 4.46D-08 at cycle  16 NSaved=  16.
 NSaved=16 IEnMin=16 EnMin= -191.193302091843     IErMin=16 ErrMin= 4.46D-08
 ErrMax= 4.46D-08  0.00D+00 EMaxC= 1.00D-01 BMatC= 4.97D-13 BMatP= 5.49D-12
 IDIUse=1 WtCom= 1.00D+00 WtEn= 0.00D+00
 Coeff-Com:  0.279D-05-0.355D-05-0.691D-05-0.127D-04-0.219D-04-0.353D-04
 Coeff-Com:  0.917D-04 0.731D-03 0.344D-03-0.223D-02-0.158D-02 0.473D-02
 Coeff-Com:  0.233D-01-0.106D+00 0.458D-01 0.103D+01
 Coeff:      0.279D-05-0.355D-05-0.691D-05-0.127D-04-0.219D-04-0.353D-04
 Coeff:      0.917D-04 0.731D-03 0.344D-03-0.223D-02-0.158D-02 0.473D-02
 Coeff:      0.233D-01-0.106D+00 0.458D-01 0.103D+01
 Gap=     0.162 Goal=   None    Shift=    0.000
 Gap=     0.100 Goal=   None    Shift=    0.000
 RMSDP=1.15D-08 MaxDP=8.61D-07 DE=-9.32D-12 OVMax= 1.09D-06

 Cycle  17  Pass 1  IDiag  1:
 RMSU=  4.69D-09    CP:  1.18D+00  2.06D+00  1.04D+00  6.31D-01  7.38D-01
                    CP:  1.30D+00  1.39D+00  1.65D+00  1.91D+00  2.32D+00
                    CP:  1.57D+00  1.16D+00  1.15D+00  1.58D+00  1.13D+00
                    CP:  1.08D+00
 E= -191.193302091843     Delta-E=        0.000000000000 Rises=F Damp=F
 DIIS: error= 1.88D-08 at cycle  17 NSaved=  17.
 NSaved=17 IEnMin=16 EnMin= -191.193302091843     IErMin=17 ErrMin= 1.88D-08
 ErrMax= 1.88D-08  0.00D+00 EMaxC= 1.00D-01 BMatC= 6.59D-14 BMatP= 4.97D-13
 IDIUse=1 WtCom= 1.00D+00 WtEn= 0.00D+00
 Coeff-Com:  0.608D-06-0.753D-06 0.730D-06 0.101D-05 0.309D-05-0.175D-04
 Coeff-Com: -0.164D-04 0.111D-03 0.148D-03 0.565D-05-0.186D-02 0.147D-03
 Coeff-Com:  0.113D-01 0.391D-02-0.116D+00-0.934D-01 0.120D+01
 Coeff:      0.608D-06-0.753D-06 0.730D-06 0.101D-05 0.309D-05-0.175D-04
 Coeff:     -0.164D-04 0.111D-03 0.148D-03 0.565D-05-0.186D-02 0.147D-03
 Coeff:      0.113D-01 0.391D-02-0.116D+00-0.934D-01 0.120D+01
 Gap=     0.162 Goal=   None    Shift=    0.000
 Gap=     0.100 Goal=   None    Shift=    0.000
 RMSDP=4.19D-09 MaxDP=2.58D-07 DE= 0.00D+00 OVMax= 4.63D-07

 SCF Done:  E(UB3LYP) =  -191.193302092     A.U. after   17 cycles
            NFock= 17  Conv=0.42D-08     -V/T= 2.0045
 <Sx>= 0.0000 <Sy>= 0.0000 <Sz>= 0.5000 <S**2>= 0.7566 S= 0.5033
 <L.S>= 0.000000000000E+00
 KE= 1.903420531261D+02 PE=-6.632774695748D+02 EE= 1.607197853095D+02
 Annihilation of the first spin contaminant:
 S**2 before annihilation     0.7566,   after     0.7500
 Leave Link  502 at Wed Jul 20 00:41:52 2016, MaxMem=    33554432 cpu:       810.6
 (Enter /home/proyectos/fulerenos/M3C-v2.0/M3C-deps_CCC/g09-AM64L-G09RevC.01/l801.exe)
 DoSCS=F DFT=T ScalE2(SS,OS)=  1.000000  1.000000
 Range of M.O.s used for correlation:     1   235
 NBasis=   235 NAE=    16 NBE=    15 NFC=     0 NFV=     0
 NROrb=    235 NOA=    16 NOB=    15 NVA=   219 NVB=   220

 **** Warning!!: The largest alpha MO coefficient is  0.19219408D+03


 **** Warning!!: The largest beta MO coefficient is  0.19095474D+03

 Leave Link  801 at Wed Jul 20 00:41:52 2016, MaxMem=    33554432 cpu:         0.1
 (Enter /home/proyectos/fulerenos/M3C-v2.0/M3C-deps_CCC/g09-AM64L-G09RevC.01/l1101.exe)
 Using compressed storage, NAtomX=     9.
 Will process     10 centers per pass.
 Leave Link 1101 at Wed Jul 20 00:41:53 2016, MaxMem=    33554432 cpu:         1.0
 (Enter /home/proyectos/fulerenos/M3C-v2.0/M3C-deps_CCC/g09-AM64L-G09RevC.01/l1102.exe)
 Symmetrizing basis deriv contribution to polar:
 IMax=3 JMax=2 DiffMx= 0.00D+00
 Leave Link 1102 at Wed Jul 20 00:41:54 2016, MaxMem=    33554432 cpu:         0.2
 (Enter /home/proyectos/fulerenos/M3C-v2.0/M3C-deps_CCC/g09-AM64L-G09RevC.01/l1110.exe)
 Forming Gx(P) for the SCF density, NAtomX=     9.
 Integral derivatives from FoFJK, PRISM(SPDF).
 Do as many integral derivatives as possible in FoFJK.
 G2DrvN: MDV=      33554256.
 G2DrvN: will do    10 centers at a time, making    1 passes.
 Calling FoFCou, ICntrl=  3107 FMM=F I1Cent=   0 AccDes= 0.00D+00.
 FoFJK:  IHMeth= 1 ICntrl=    3107 DoSepK=F KAlg= 0 I1Cent=   0 FoldK=F
 IRaf=         0 NMat=   1 IRICut=       1 DoRegI=T DoRafI=F ISym2E= 1.
 FoFCou: FMM=F IPFlag=           0 FMFlag=      100000 FMFlg1=           0
         NFxFlg=           0 DoJE=F BraDBF=F KetDBF=F FulRan=T
         wScrn=  0.000000 ICntrl=    3107 IOpCl=  1 I1Cent=           0 NGrid=           0
         NMat0=    1 NMatS0=      1 NMatT0=    0 NMatD0=    1 NMtDS0=    0 NMtDT0=    0
 Petite list used in FoFCou.
 End of G2Drv F.D. properties file   721 does not exist.
 End of G2Drv F.D. properties file   722 does not exist.
 End of G2Drv F.D. properties file   788 does not exist.
 Leave Link 1110 at Wed Jul 20 00:53:47 2016, MaxMem=    33554432 cpu:       711.7
 (Enter /home/proyectos/fulerenos/M3C-v2.0/M3C-deps_CCC/g09-AM64L-G09RevC.01/l1002.exe)
 Minotr:  UHF open shell wavefunction.
          IDoAtm=111111111
          Direct CPHF calculation.
          Differentiating once with respect to electric field.
                with respect to dipole field.
          Differentiating once with respect to nuclear coordinates.
          Using symmetry in CPHF.
          Requested convergence is 1.0D-08 RMS, and 1.0D-07 maximum.
          Secondary convergence is 1.0D-12 RMS, and 1.0D-12 maximum.
          NewPWx=T KeepS1=F KeepF1=F KeepIn=T MapXYZ=F SortEE=F KeepMc=T.
          MDV=      33553868 using IRadAn=       2.
 Generate precomputed XC quadrature information.
          Solving linear equations simultaneously, MaxMat=       0.
 FoFJK:  IHMeth= 1 ICntrl=       0 DoSepK=F KAlg= 0 I1Cent=   0 FoldK=F
 IRaf= 940000000 NMat=  30 IRICut=      75 DoRegI=T DoRafI=T ISym2E= 2.
 FoFCou: FMM=F IPFlag=           0 FMFlag=      100000 FMFlg1=           0
         NFxFlg=           0 DoJE=F BraDBF=F KetDBF=F FulRan=T
         wScrn=  0.000000 ICntrl=       0 IOpCl=  1 I1Cent=           0 NGrid=           0
         NMat0=   30 NMatS0=     30 NMatT0=    0 NMatD0=   30 NMtDS0=    0 NMtDT0=    0
 Integrals replicated using symmetry in FoFCou.
          There are    30 degrees of freedom in the 1st order CPHF.  IDoFFX=6 NUNeed=     3.
     27 vectors produced by pass  0 Test12= 2.27D-14 3.33D-09 XBig12= 5.72D+02 1.61D+01.
 AX will form    27 AO Fock derivatives at one time.
     27 vectors produced by pass  1 Test12= 2.27D-14 3.33D-09 XBig12= 6.78D+01 1.68D+00.
     27 vectors produced by pass  2 Test12= 2.27D-14 3.33D-09 XBig12= 1.13D+00 2.46D-01.
     27 vectors produced by pass  3 Test12= 2.27D-14 3.33D-09 XBig12= 2.14D-02 5.05D-02.
     27 vectors produced by pass  4 Test12= 2.27D-14 3.33D-09 XBig12= 2.57D-04 3.22D-03.
     27 vectors produced by pass  5 Test12= 2.27D-14 3.33D-09 XBig12= 7.78D-07 1.01D-04.
     24 vectors produced by pass  6 Test12= 2.27D-14 3.33D-09 XBig12= 2.85D-09 7.13D-06.
      7 vectors produced by pass  7 Test12= 2.27D-14 3.33D-09 XBig12= 2.07D-11 6.11D-07.
      6 vectors produced by pass  8 Test12= 2.27D-14 3.33D-09 XBig12= 8.04D-13 1.52D-07.
      5 vectors produced by pass  9 Test12= 2.27D-14 3.33D-09 XBig12= 8.57D-14 4.94D-08.
      4 vectors produced by pass 10 Test12= 2.27D-14 3.33D-09 XBig12= 5.49D-15 1.08D-08.
      2 vectors produced by pass 11 Test12= 2.27D-14 3.33D-09 XBig12= 1.52D-15 7.71D-09.
      2 vectors produced by pass 12 Test12= 2.27D-14 3.33D-09 XBig12= 2.52D-15 8.13D-09.
      2 vectors produced by pass 13 Test12= 2.27D-14 3.33D-09 XBig12= 1.21D-15 5.53D-09.
      2 vectors produced by pass 14 Test12= 2.27D-14 3.33D-09 XBig12= 6.58D-16 4.11D-09.
      1 vectors produced by pass 15 Test12= 2.27D-14 3.33D-09 XBig12= 1.60D-15 5.78D-09.
 InvSVY:  IOpt=1 It=  1 EMax= 7.11D-15
 Solved reduced A of dimension   217 with    30 vectors.
 FullF1:  Do perturbations    1 to     3.
 Isotropic polarizability for W=    0.000000       54.91 Bohr**3.
 End of Minotr F.D. properties file   721 does not exist.
 End of Minotr F.D. properties file   722 does not exist.
 End of Minotr F.D. properties file   788 does not exist.
 Leave Link 1002 at Wed Jul 20 01:34:58 2016, MaxMem=    33554432 cpu:      2468.2
 (Enter /home/proyectos/fulerenos/M3C-v2.0/M3C-deps_CCC/g09-AM64L-G09RevC.01/l601.exe)
 Copying SCF densities to generalized density rwf, IOpCl= 1 IROHF=0.

 **********************************************************************

            Population analysis using the SCF density.

 **********************************************************************

 Orbital symmetries:
 Alpha Orbitals:
       Occupied  (A') (A') (A') (A') (A') (A') (A') (A') (A') (A')
                 (A') (A') (A') (A") (A') (A")
       Virtual   (A") (A') (A') (A") (A") (A') (A') (A') (A') (A')
                 (A') (A') (A") (A') (A") (A') (A') (A") (A') (A')
                 (A") (A') (A") (A') (A') (A') (A") (A') (A') (A")
                 (A') (A') (A') (A') (A") (A') (A') (A') (A') (A')
                 (A") (A') (A') (A") (A') (A') (A") (A') (A') (A")
                 (A') (A") (A') (A') (A") (A") (A') (A') (A') (A")
                 (A') (A') (A') (A') (A') (A') (A') (A') (A") (A')
                 (A') (A") (A") (A") (A') (A') (A') (A") (A') (A')
                 (A") (A") (A') (A') (A') (A') (A') (A") (A') (A')
                 (A') (A') (A") (A') (A') (A') (A') (A") (A') (A")
                 (A') (A") (A') (A') (A") (A') (A") (A') (A") (A")
                 (A') (A') (A') (A') (A') (A") (A') (A") (A') (A')
                 (A") (A') (A") (A') (A") (A') (A') (A") (A") (A')
                 (A') (A") (A') (A") (A') (A') (A") (A') (A') (A")
                 (A') (A") (A') (A') (A") (A') (A') (A") (A") (A')
                 (A') (A") (A') (A') (A') (A') (A') (A') (A") (A')
                 (A") (A') (A') (A') (A") (A') (A') (A") (A") (A')
                 (A') (A') (A") (A') (A") (A') (A') (A") (A') (A')
                 (A') (A") (A') (A') (A") (A') (A') (A') (A') (A")
                 (A') (A") (A') (A") (A') (A") (A") (A') (A") (A')
                 (A") (A") (A') (A') (A") (A') (A') (A") (A') (A')
                 (A') (A') (A') (A') (A') (A') (A') (A') (A')
 Beta  Orbitals:
       Occupied  (A') (A') (A') (A') (A') (A') (A') (A') (A') (A')
                 (A') (A') (A') (A") (A")
       Virtual   (A') (A") (A') (A") (A') (A") (A') (A') (A') (A')
                 (A') (A') (A') (A") (A') (A") (A') (A") (A') (A')
                 (A') (A") (A') (A") (A') (A') (A') (A") (A') (A')
                 (A') (A") (A') (A') (A') (A") (A') (A') (A') (A')
                 (A') (A") (A') (A") (A') (A') (A') (A") (A') (A')
                 (A") (A') (A") (A') (A") (A') (A") (A') (A') (A')
                 (A") (A') (A') (A') (A') (A') (A') (A') (A') (A")
                 (A') (A') (A") (A") (A") (A') (A') (A') (A") (A')
                 (A') (A") (A") (A') (A') (A') (A') (A') (A") (A')
                 (A') (A') (A') (A') (A") (A') (A') (A') (A") (A')
                 (A") (A') (A") (A') (A') (A") (A") (A') (A") (A')
                 (A") (A') (A') (A') (A') (A') (A") (A') (A") (A')
                 (A') (A") (A') (A") (A') (A") (A') (A') (A") (A")
                 (A') (A') (A") (A") (A') (A') (A') (A") (A') (A")
                 (A') (A') (A") (A') (A') (A") (A') (A') (A") (A")
                 (A') (A') (A") (A') (A') (A') (A') (A') (A') (A")
                 (A') (A") (A') (A') (A') (A") (A') (A') (A") (A")
                 (A') (A') (A') (A") (A') (A") (A') (A') (A") (A')
                 (A') (A') (A") (A') (A') (A") (A') (A') (A') (A')
                 (A") (A') (A") (A') (A") (A') (A") (A") (A') (A")
                 (A") (A') (A") (A') (A") (A') (A') (A') (A") (A')
                 (A') (A') (A') (A') (A') (A') (A') (A') (A') (A')
 The electronic state is 2-A'.
 Alpha  occ. eigenvalues --  -10.98610 -10.97923 -10.97377 -10.96506 -10.92140
 Alpha  occ. eigenvalues --   -1.55330  -1.49755  -1.43480  -1.31134  -1.19481
 Alpha  occ. eigenvalues --   -1.17961  -1.16103  -1.09365  -1.06459  -1.02210
 Alpha  occ. eigenvalues --   -0.98861
 Alpha virt. eigenvalues --   -0.82672  -0.79203  -0.70316  -0.66928  -0.56128
 Alpha virt. eigenvalues --   -0.53348  -0.48875  -0.46197  -0.45374  -0.42171
 Alpha virt. eigenvalues --   -0.41981  -0.40335  -0.39678  -0.38675  -0.37565
 Alpha virt. eigenvalues --   -0.35640  -0.34501  -0.34295  -0.33232  -0.30985
 Alpha virt. eigenvalues --   -0.29041  -0.28857  -0.28425  -0.27408  -0.26575
 Alpha virt. eigenvalues --   -0.24729  -0.23498  -0.22462  -0.21974  -0.20647
 Alpha virt. eigenvalues --   -0.20462  -0.19807  -0.18930  -0.17817  -0.17647
 Alpha virt. eigenvalues --   -0.17086  -0.15298  -0.14116  -0.12291  -0.12051
 Alpha virt. eigenvalues --   -0.09660  -0.09417  -0.07947  -0.07851  -0.06650
 Alpha virt. eigenvalues --   -0.05268  -0.04177  -0.03635  -0.03239  -0.02811
 Alpha virt. eigenvalues --   -0.00828  -0.00181   0.00492   0.01117   0.01578
 Alpha virt. eigenvalues --    0.02287   0.02646   0.04439   0.05898   0.09017
 Alpha virt. eigenvalues --    0.09263   0.10286   0.11676   0.12062   0.17944
 Alpha virt. eigenvalues --    0.19723   0.19935   0.23141   0.24530   0.25547
 Alpha virt. eigenvalues --    0.27215   0.28202   0.29739   0.30806   0.32996
 Alpha virt. eigenvalues --    0.36326   0.40663   0.41447   0.43865   0.47478
 Alpha virt. eigenvalues --    0.49027   0.56362   0.56388   0.59269   0.60361
 Alpha virt. eigenvalues --    0.62786   0.64680   0.65409   0.67369   0.73246
 Alpha virt. eigenvalues --    0.74562   0.77997   0.78428   0.78999   0.81140
 Alpha virt. eigenvalues --    0.82641   0.84470   0.85003   0.86274   0.90903
 Alpha virt. eigenvalues --    0.91604   0.95096   0.95791   0.97291   1.01559
 Alpha virt. eigenvalues --    1.05698   1.06447   1.11599   1.11879   1.12568
 Alpha virt. eigenvalues --    1.16443   1.24209   1.33097   1.38082   1.49083
 Alpha virt. eigenvalues --    1.50228   1.50902   1.70069   1.70262   1.83426
 Alpha virt. eigenvalues --    1.90931   1.92564   1.93766   1.94306   1.97277
 Alpha virt. eigenvalues --    1.98037   1.99545   2.00861   2.03785   2.05064
 Alpha virt. eigenvalues --    2.06750   2.11937   2.13329   2.14236   2.14570
 Alpha virt. eigenvalues --    2.17008   2.19497   2.20722   2.22337   2.24139
 Alpha virt. eigenvalues --    2.26813   2.29113   2.31321   2.33148   2.34603
 Alpha virt. eigenvalues --    2.34920   2.43022   2.43462   2.47147   2.50519
 Alpha virt. eigenvalues --    2.53577   2.55310   2.55502   2.58783   2.66127
 Alpha virt. eigenvalues --    2.79998   2.85781   2.90831   3.00242   3.04618
 Alpha virt. eigenvalues --    3.06449   3.11334   3.18669   3.24559   3.26228
 Alpha virt. eigenvalues --    3.29582   3.44684   3.45990   3.47456   3.58205
 Alpha virt. eigenvalues --    3.60775   3.62273   3.64923   3.70776   3.73042
 Alpha virt. eigenvalues --    3.85982   3.92997   3.95096   4.20142   4.26263
 Alpha virt. eigenvalues --    4.68535   4.74117   4.74617   4.84715   4.94790
 Alpha virt. eigenvalues --    5.08606   5.26748   5.33597   5.98501   6.18963
 Alpha virt. eigenvalues --    6.20643   6.25560   6.30413   6.31796   6.32368
 Alpha virt. eigenvalues --    6.36535   6.41161   6.46863   6.54626   6.56010
 Alpha virt. eigenvalues --    6.56541   6.61932   6.71523   6.78859   6.80461
 Alpha virt. eigenvalues --    6.85277   6.92878   6.95933   7.14485   7.20450
 Alpha virt. eigenvalues --    7.29153   7.44185   7.70264   7.83882  23.12271
 Alpha virt. eigenvalues --   23.88739  24.99014  25.23825  25.60765
  Beta  occ. eigenvalues --  -10.97876 -10.97710 -10.97424 -10.95719 -10.92181
  Beta  occ. eigenvalues --   -1.54387  -1.47511  -1.42291  -1.30384  -1.18458
  Beta  occ. eigenvalues --   -1.17139  -1.15815  -1.09203  -1.06187  -0.98077
  Beta virt. eigenvalues --   -0.88032  -0.82450  -0.78981  -0.66415  -0.63932
  Beta virt. eigenvalues --   -0.55736  -0.52482  -0.47683  -0.45920  -0.45128
  Beta virt. eigenvalues --   -0.41961  -0.41688  -0.40202  -0.39680  -0.38123
  Beta virt. eigenvalues --   -0.37425  -0.35291  -0.34248  -0.33947  -0.33112
  Beta virt. eigenvalues --   -0.30831  -0.29000  -0.28516  -0.28067  -0.26876
  Beta virt. eigenvalues --   -0.26159  -0.24351  -0.23440  -0.22329  -0.21682
  Beta virt. eigenvalues --   -0.20256  -0.20074  -0.19619  -0.18763  -0.17585
  Beta virt. eigenvalues --   -0.17513  -0.17054  -0.15187  -0.13881  -0.12080
  Beta virt. eigenvalues --   -0.11895  -0.09565  -0.09262  -0.07834  -0.07621
  Beta virt. eigenvalues --   -0.06420  -0.04767  -0.04132  -0.03494  -0.02602
  Beta virt. eigenvalues --   -0.02594  -0.00537  -0.00071   0.00802   0.01720
  Beta virt. eigenvalues --    0.01841   0.02536   0.03231   0.04802   0.06293
  Beta virt. eigenvalues --    0.09253   0.09662   0.10696   0.12013   0.12465
  Beta virt. eigenvalues --    0.18128   0.19918   0.20539   0.23490   0.24604
  Beta virt. eigenvalues --    0.25987   0.27806   0.28277   0.29878   0.30875
  Beta virt. eigenvalues --    0.33643   0.36534   0.41269   0.41439   0.44155
  Beta virt. eigenvalues --    0.47773   0.49193   0.56480   0.56809   0.59703
  Beta virt. eigenvalues --    0.60835   0.63052   0.64987   0.65368   0.67624
  Beta virt. eigenvalues --    0.73626   0.74869   0.78420   0.79268   0.80846
  Beta virt. eigenvalues --    0.81589   0.83099   0.84846   0.85605   0.89433
  Beta virt. eigenvalues --    0.91630   0.91908   0.95028   0.95889   0.97882
  Beta virt. eigenvalues --    1.01934   1.07306   1.08609   1.12074   1.12968
  Beta virt. eigenvalues --    1.14325   1.17309   1.25438   1.33681   1.38683
  Beta virt. eigenvalues --    1.49230   1.50453   1.51174   1.70457   1.71610
  Beta virt. eigenvalues --    1.85118   1.91841   1.94406   1.95957   1.96869
  Beta virt. eigenvalues --    1.98269   1.99646   2.01105   2.01840   2.04499
  Beta virt. eigenvalues --    2.05339   2.07954   2.12408   2.14318   2.14319
  Beta virt. eigenvalues --    2.15122   2.18640   2.20371   2.21748   2.24263
  Beta virt. eigenvalues --    2.24423   2.28669   2.31298   2.31911   2.34576
  Beta virt. eigenvalues --    2.35338   2.37393   2.43140   2.43859   2.47777
  Beta virt. eigenvalues --    2.51002   2.54213   2.55608   2.55866   2.59641
  Beta virt. eigenvalues --    2.67103   2.80302   2.86757   2.91530   3.00401
  Beta virt. eigenvalues --    3.05061   3.08016   3.13330   3.19116   3.24965
  Beta virt. eigenvalues --    3.26490   3.30057   3.44851   3.46279   3.47597
  Beta virt. eigenvalues --    3.58973   3.61365   3.62394   3.65376   3.71343
  Beta virt. eigenvalues --    3.72985   3.86890   3.93502   3.95190   4.21031
  Beta virt. eigenvalues --    4.26788   4.69062   4.74156   4.75242   4.85341
  Beta virt. eigenvalues --    4.95244   5.09268   5.28062   5.34254   5.99182
  Beta virt. eigenvalues --    6.23258   6.25081   6.25582   6.30677   6.35358
  Beta virt. eigenvalues --    6.36437   6.36684   6.41402   6.47072   6.55162
  Beta virt. eigenvalues --    6.56588   6.60196   6.61880   6.72428   6.80642
  Beta virt. eigenvalues --    6.81265   6.85738   6.92918   6.95944   7.14912
  Beta virt. eigenvalues --    7.20919   7.29430   7.44851   7.71129   7.84536
  Beta virt. eigenvalues --   23.12755  23.89230  24.99104  25.23835  25.61810
          Condensed to atoms (all electrons):
               1          2          3          4          5          6
     1  C    9.254292  -1.918930  -1.583140   0.263321   0.124629  -0.523196
     2  C   -1.918930   8.489681   0.181865   0.018760  -0.096932  -0.464754
     3  C   -1.583140   0.181865   8.862641   0.002779   0.179289   0.317080
     4  H    0.263321   0.018760   0.002779   0.222072   0.000325   0.000313
     5  H    0.124629  -0.096932   0.179289   0.000325   0.377941  -0.042870
     6  C   -0.523196  -0.464754   0.317080   0.000313  -0.042870   8.447973
     7  C   -0.125045  -0.460602  -2.122255   0.000745   0.138025  -2.399847
     8  H   -0.002604  -0.000315   0.044488  -0.000013   0.000919  -0.056656
     9  H   -0.002815  -0.003422  -0.001543  -0.000015  -0.001332  -0.048218
               7          8          9
     1  C   -0.125045  -0.002604  -0.002815
     2  C   -0.460602  -0.000315  -0.003422
     3  C   -2.122255   0.044488  -0.001543
     4  H    0.000745  -0.000013  -0.000015
     5  H    0.138025   0.000919  -0.001332
     6  C   -2.399847  -0.056656  -0.048218
     7  C   10.484572   0.336137   0.381177
     8  H    0.336137   0.284395   0.004466
     9  H    0.381177   0.004466   0.296802
          Atomic-Atomic Spin Densities.
               1          2          3          4          5          6
     1  C    0.769296   0.379832  -0.310681   0.001746  -0.014117  -0.199730
     2  C    0.379832   1.208988  -0.266826  -0.000802  -0.017168  -0.372234
     3  C   -0.310681  -0.266826   0.394902  -0.003695   0.009491   0.261099
     4  H    0.001746  -0.000802  -0.003695  -0.011513  -0.000098  -0.000374
     5  H   -0.014117  -0.017168   0.009491  -0.000098   0.018313   0.013779
     6  C   -0.199730  -0.372234   0.261099  -0.000374   0.013779   0.297662
     7  C   -0.131038  -0.424023  -0.004613  -0.000307   0.017501  -0.047032
     8  H   -0.001589  -0.008787  -0.004614  -0.000003   0.000613  -0.006106
     9  H    0.001705   0.006579   0.002029   0.000005  -0.000320   0.006992
               7          8          9
     1  C   -0.131038  -0.001589   0.001705
     2  C   -0.424023  -0.008787   0.006579
     3  C   -0.004613  -0.004614   0.002029
     4  H   -0.000307  -0.000003   0.000005
     5  H    0.017501   0.000613  -0.000320
     6  C   -0.047032  -0.006106   0.006992
     7  C    0.540343   0.019964  -0.017094
     8  H    0.019964   0.002129  -0.000637
     9  H   -0.017094  -0.000637   0.000989
 Mulliken charges and spin densities:
               1          2
     1  C    0.513489   0.495423
     2  C    0.254650   0.505558
     3  C    0.118795   0.077091
     4  H    0.491711  -0.015042
     5  H    0.320006   0.027995
     6  C    0.770174  -0.045944
     7  C   -0.232908  -0.046298
     8  H    0.389182   0.000969
     9  H    0.374901   0.000249
 Sum of Mulliken charges =   3.00000   1.00000
 Mulliken charges and spin densities with hydrogens summed into heavy atoms:
               1          2
     1  C    1.005200   0.480381
     2  C    0.254650   0.505558
     3  C    0.438801   0.105086
     6  C    0.770174  -0.045944
     7  C    0.531174  -0.045081
 APT charges:
               1
     1  C    0.801506
     2  C   -0.349191
     3  C    0.646332
     4  H    0.497385
     5  H    0.367294
     6  C   -0.158184
     7  C    0.236065
     8  H    0.486552
     9  H    0.472243
 Sum of APT charges =   3.00000
 APT charges with hydrogens summed into heavy atoms:
               1
     1  C    1.298890
     2  C   -0.349191
     3  C    1.013626
     6  C   -0.158184
     7  C    1.194859
 Electronic spatial extent (au):  <R**2>=            463.0341
 Charge=              3.0000 electrons
 Dipole moment (field-independent basis, Debye):
    X=             -0.1451    Y=             -0.4536    Z=             -0.0000  Tot=              0.4762
 Quadrupole moment (field-independent basis, Debye-Ang):
   XX=             57.7854   YY=            -11.1827   ZZ=            -23.8996
   XY=             -7.9462   XZ=             -0.0000   YZ=              0.0000
 Traceless Quadrupole moment (field-independent basis, Debye-Ang):
   XX=             50.2177   YY=            -18.7503   ZZ=            -31.4673
   XY=             -7.9462   XZ=             -0.0000   YZ=              0.0000
 Octapole moment (field-independent basis, Debye-Ang**2):
  XXX=            -30.7692  YYY=             -0.9374  ZZZ=             -0.0000  XYY=             14.8124
  XXY=            -27.1212  XXZ=             -0.0000  XZZ=              0.5933  YZZ=             -0.3146
  YYZ=             -0.0000  XYZ=              0.0000
 Hexadecapole moment (field-independent basis, Debye-Ang**3):
 XXXX=            301.8217 YYYY=            -17.6138 ZZZZ=            -21.4445 XXXY=            -10.5283
 XXXZ=             -0.0000 YYYX=              4.0116 YYYZ=              0.0000 ZZZX=              0.0000
 ZZZY=             -0.0000 XXYY=            -48.0939 XXZZ=            -85.0924 YYZZ=            -12.7086
 XXYZ=              0.0000 YYXZ=             -0.0000 ZZXY=              9.4521
 N-N= 1.210223290473D+02 E-N=-6.632774694223D+02  KE= 1.903420531261D+02
 Symmetry A'   KE= 1.853913579128D+02
 Symmetry A"   KE= 4.950695213299D+00
  Exact polarizability: 108.220 -10.227  33.664   0.000   0.000  22.842
 Approx polarizability: 219.104 -23.267  54.898  -0.000   0.000  31.692
                          Isotropic Fermi Contact Couplings
        Atom                 a.u.       MegaHertz       Gauss      10(-4) cm-1
     1  C(13)              0.01876      21.09167       7.52603       7.03543
     2  C(13)              0.00434       4.87724       1.74032       1.62687
     3  C(13)             -0.02057     -23.12372      -8.25112      -7.71324
     4  H(1)              -0.01098     -49.07374     -17.51073     -16.36924
     5  H(1)               0.01903      85.05068      30.34820      28.36985
     6  C(13)              0.02990      33.61813      11.99578      11.21380
     7  C(13)             -0.00045      -0.50929      -0.18173      -0.16988
     8  H(1)               0.00064       2.85007       1.01697       0.95068
     9  H(1)              -0.00002      -0.07209      -0.02572      -0.02405
 --------------------------------------------------------
       Center         ----  Spin Dipole Couplings  ----
                      3XX-RR        3YY-RR        3ZZ-RR
 --------------------------------------------------------
     1   Atom       -0.335167      0.668319     -0.333152
     2   Atom       -0.274879      0.661745     -0.386866
     3   Atom        0.015764      0.024235     -0.039999
     4   Atom        0.051744     -0.013034     -0.038709
     5   Atom        0.003372      0.007022     -0.010394
     6   Atom        0.038308     -0.017275     -0.021033
     7   Atom        0.026048      0.012618     -0.038665
     8   Atom        0.000990     -0.000058     -0.000933
     9   Atom        0.003801     -0.002655     -0.001145
 --------------------------------------------------------
                        XY            XZ            YZ
 --------------------------------------------------------
     1   Atom       -0.151434      0.000000      0.000000
     2   Atom       -0.175238      0.000000     -0.000000
     3   Atom        0.007791      0.000000      0.000000
     4   Atom        0.010866      0.000000      0.000000
     5   Atom        0.008472      0.000000      0.000000
     6   Atom        0.000767     -0.000000      0.000000
     7   Atom       -0.001267     -0.000000      0.000000
     8   Atom       -0.001733     -0.000000      0.000000
     9   Atom       -0.000638     -0.000000      0.000000
 --------------------------------------------------------


 ---------------------------------------------------------------------------------
              Anisotropic Spin Dipole Couplings in Principal Axis System
 ---------------------------------------------------------------------------------

       Atom             a.u.   MegaHertz   Gauss  10(-4) cm-1        Axes

              Baa    -0.3575   -47.976   -17.119   -16.003  0.9893  0.1460  0.0000
     1 C(13)  Bbb    -0.3332   -44.706   -15.952   -14.912  0.0000  0.0000  1.0000
              Bcc     0.6907    92.682    33.071    30.915 -0.1460  0.9893 -0.0000
 
              Baa    -0.3869   -51.914   -18.524   -17.317  0.0000  0.0000  1.0000
     2 C(13)  Bbb    -0.3066   -41.142   -14.680   -13.723  0.9840  0.1781  0.0000
              Bcc     0.6935    93.055    33.204    31.040 -0.1781  0.9840 -0.0000
 
              Baa    -0.0400    -5.367    -1.915    -1.790  0.0000  0.0000  1.0000
     3 C(13)  Bbb     0.0111     1.494     0.533     0.498  0.8595 -0.5111 -0.0000
              Bcc     0.0289     3.874     1.382     1.292  0.5111  0.8595 -0.0000
 
              Baa    -0.0387   -20.654    -7.370    -6.889  0.0000  0.0000  1.0000
     4 H(1)   Bbb    -0.0148    -7.901    -2.819    -2.636 -0.1611  0.9869 -0.0000
              Bcc     0.0535    28.555    10.189     9.525  0.9869  0.1611 -0.0000
 
              Baa    -0.0104    -5.546    -1.979    -1.850  0.0000  0.0000  1.0000
     5 H(1)   Bbb    -0.0035    -1.851    -0.660    -0.617  0.7780 -0.6283  0.0000
              Bcc     0.0139     7.397     2.639     2.467  0.6283  0.7780 -0.0000
 
              Baa    -0.0210    -2.822    -1.007    -0.941  0.0000  0.0000  1.0000
     6 C(13)  Bbb    -0.0173    -2.320    -0.828    -0.774 -0.0138  0.9999 -0.0000
              Bcc     0.0383     5.142     1.835     1.715  0.9999  0.0138  0.0000
 
              Baa    -0.0387    -5.189    -1.851    -1.731  0.0000  0.0000  1.0000
     7 C(13)  Bbb     0.0125     1.677     0.598     0.559  0.0931  0.9957 -0.0000
              Bcc     0.0262     3.511     1.253     1.171  0.9957 -0.0931  0.0000
 
              Baa    -0.0013    -0.717    -0.256    -0.239  0.5961  0.8029 -0.0000
     8 H(1)   Bbb    -0.0009    -0.498    -0.178    -0.166  0.0000  0.0000  1.0000
              Bcc     0.0023     1.215     0.434     0.405  0.8029 -0.5961  0.0000
 
              Baa    -0.0027    -1.450    -0.517    -0.484  0.0975  0.9952 -0.0000
     9 H(1)   Bbb    -0.0011    -0.611    -0.218    -0.204  0.0000  0.0000  1.0000
              Bcc     0.0039     2.061     0.735     0.688  0.9952 -0.0975  0.0000
 

 ---------------------------------------------------------------------------------

 No NMR shielding tensors so no spin-rotation constants.
 Leave Link  601 at Wed Jul 20 01:35:00 2016, MaxMem=    33554432 cpu:         1.1
 (Enter /home/proyectos/fulerenos/M3C-v2.0/M3C-deps_CCC/g09-AM64L-G09RevC.01/l701.exe)
 Compute integral second derivatives.
 ... and contract with generalized density number  0.
 Leave Link  701 at Wed Jul 20 01:35:05 2016, MaxMem=    33554432 cpu:         4.9
 (Enter /home/proyectos/fulerenos/M3C-v2.0/M3C-deps_CCC/g09-AM64L-G09RevC.01/l702.exe)
 L702 exits ... SP integral derivatives will be done elsewhere.
 Leave Link  702 at Wed Jul 20 01:35:06 2016, MaxMem=    33554432 cpu:         0.1
 (Enter /home/proyectos/fulerenos/M3C-v2.0/M3C-deps_CCC/g09-AM64L-G09RevC.01/l703.exe)
 Compute integral second derivatives, UseDBF=F ICtDFT=           0.
 Integral derivatives from FoFJK, PRISM(SPDF).
 Calling FoFJK, ICntrl=    100127 FMM=F ISym2X=1 I1Cent= 0 IOpClX= 1 NMat=1 NMatS=1 NMatT=0.
 FoFJK:  IHMeth= 1 ICntrl=  100127 DoSepK=F KAlg= 0 I1Cent=   0 FoldK=F
 IRaf=         0 NMat=   1 IRICut=       1 DoRegI=T DoRafI=F ISym2E= 1.
 FoFCou: FMM=F IPFlag=           0 FMFlag=      100000 FMFlg1=         800
         NFxFlg=           0 DoJE=F BraDBF=F KetDBF=F FulRan=T
         wScrn=  0.000000 ICntrl=  100127 IOpCl=  1 I1Cent=           0 NGrid=           0
         NMat0=    1 NMatS0=      1 NMatT0=    0 NMatD0=    1 NMtDS0=    0 NMtDT0=    0
 Petite list used in FoFCou.
 Leave Link  703 at Wed Jul 20 02:04:06 2016, MaxMem=    33554432 cpu:      1737.6
 (Enter /home/proyectos/fulerenos/M3C-v2.0/M3C-deps_CCC/g09-AM64L-G09RevC.01/l716.exe)
 Dipole        =-5.70672101D-02-1.78454689D-01-1.00031194D-20
 Polarizability= 1.08220487D+02-1.02269504D+01 3.36638918D+01
                 8.88459216D-08 8.92482029D-09 2.28422517D+01
 Full mass-weighted force constant matrix:
 Low frequencies ---  -14.4908   -0.0006   -0.0004    0.0006    6.9321   13.5000
 Low frequencies ---  151.9409  232.4795  295.3753
 Diagonal vibrational polarizability:
       21.8006054      26.4960129      32.0411862
 Harmonic frequencies (cm**-1), IR intensities (KM/Mole), Raman scattering
 activities (A**4/AMU), depolarization ratios for plane and unpolarized
 incident light, reduced masses (AMU), force constants (mDyne/A),
 and normal coordinates:
                      1                      2                      3
                     A'                     A"                     A"
 Frequencies --    151.9409               232.4794               295.3750
 Red. masses --      3.2550                 1.9754                 4.9656
 Frc consts  --      0.0443                 0.0629                 0.2553
 IR Inten    --     16.1517                56.7391                 0.4741
  Atom  AN      X      Y      Z        X      Y      Z        X      Y      Z
     1   6     0.12  -0.23  -0.00     0.00  -0.00   0.13    -0.00   0.00   0.12
     2   6     0.06   0.11   0.00    -0.00   0.00  -0.18     0.00  -0.00  -0.37
     3   6     0.03   0.23   0.00     0.00   0.00  -0.01    -0.00   0.00  -0.02
     4   1     0.17  -0.52  -0.00     0.00  -0.00   0.38    -0.00   0.00   0.52
     5   1     0.02   0.23  -0.00     0.00   0.00   0.49    -0.00   0.00  -0.11
     6   6    -0.03   0.12   0.00    -0.00  -0.00  -0.16     0.00   0.00   0.44
     7   6    -0.16  -0.16  -0.00    -0.00  -0.00   0.11    -0.00  -0.00  -0.13
     8   1     0.02  -0.43  -0.00    -0.00   0.00   0.69     0.00  -0.00  -0.32
     9   1    -0.46  -0.22   0.00     0.00   0.00  -0.21    -0.00  -0.00  -0.50
                      4                      5                      6
                     A'                     A'                     A"
 Frequencies --    331.7831               474.7869               563.1358
 Red. masses --      2.2770                 2.5204                 1.5540
 Frc consts  --      0.1477                 0.3348                 0.2903
 IR Inten    --      5.1458                18.8789                11.0972
  Atom  AN      X      Y      Z        X      Y      Z        X      Y      Z
     1   6     0.02  -0.08  -0.00    -0.11  -0.05  -0.00     0.00   0.00   0.01
     2   6    -0.03   0.24  -0.00    -0.14   0.21   0.00     0.00  -0.00  -0.13
     3   6     0.03   0.01  -0.00    -0.01  -0.15  -0.00    -0.00   0.00   0.16
     4   1     0.08  -0.39   0.00    -0.06  -0.37  -0.00     0.00   0.00   0.09
     5   1     0.30  -0.04  -0.00     0.15  -0.16  -0.00    -0.00   0.00   0.22
     6   6    -0.09  -0.20   0.00     0.11   0.04   0.00    -0.00   0.00  -0.08
     7   6     0.01   0.02  -0.00     0.15   0.04  -0.00    -0.00   0.00   0.00
     8   1    -0.29   0.49  -0.00     0.47  -0.48  -0.00    -0.00   0.00  -0.64
     9   1     0.55   0.13  -0.00    -0.47  -0.09   0.00    -0.00   0.00   0.70
                      7                      8                      9
                     A'                     A'                     A"
 Frequencies --    716.1611               736.2416               796.0113
 Red. masses --      2.7426                 1.3788                 1.3032
 Frc consts  --      0.8288                 0.4403                 0.4865
 IR Inten    --      1.4440                14.3213                22.9686
  Atom  AN      X      Y      Z        X      Y      Z        X      Y      Z
     1   6     0.17  -0.01  -0.00    -0.01  -0.16  -0.00     0.00   0.00  -0.15
     2   6     0.12   0.02   0.00    -0.04   0.07   0.00     0.00  -0.00   0.06
     3   6    -0.01  -0.11  -0.00     0.01   0.03  -0.00    -0.00  -0.00   0.01
     4   1     0.14   0.24   0.00    -0.20   0.96   0.00     0.00  -0.00   0.99
     5   1     0.33  -0.14   0.00     0.07   0.02   0.00    -0.00   0.00  -0.00
     6   6    -0.17  -0.12   0.00     0.02  -0.00   0.00     0.00   0.00  -0.00
     7   6    -0.10   0.22  -0.00     0.03  -0.02  -0.00    -0.00  -0.00   0.00
     8   1     0.19  -0.26  -0.00     0.02  -0.01  -0.00    -0.00   0.00  -0.01
     9   1    -0.72   0.09   0.00     0.05  -0.01   0.00     0.00  -0.00   0.01
                     10                     11                     12
                     A"                     A'                     A"
 Frequencies --    830.8207               875.7844               960.9805
 Red. masses --      1.4712                 4.1919                 1.3699
 Frc consts  --      0.5983                 1.8943                 0.7454
 IR Inten    --     12.5162                10.4367                42.4812
  Atom  AN      X      Y      Z        X      Y      Z        X      Y      Z
     1   6     0.00   0.00  -0.00    -0.16   0.01  -0.00    -0.00  -0.00  -0.00
     2   6     0.00   0.00   0.06    -0.06  -0.16   0.00    -0.00  -0.00  -0.00
     3   6    -0.00  -0.00  -0.19     0.07   0.34  -0.00     0.00   0.00   0.00
     4   1     0.00  -0.00  -0.03    -0.15  -0.14   0.00    -0.00  -0.00   0.00
     5   1    -0.00  -0.00   0.92     0.42   0.25   0.00    -0.00   0.00   0.00
     6   6     0.00   0.00   0.06    -0.07  -0.26   0.00     0.00  -0.00   0.06
     7   6    -0.00  -0.00   0.00     0.18   0.09   0.00     0.00   0.00  -0.17
     8   1    -0.00   0.00  -0.26     0.48  -0.38  -0.00    -0.00  -0.00   0.68
     9   1     0.00  -0.00   0.20    -0.21  -0.01   0.00    -0.00  -0.00   0.71
                     13                     14                     15
                     A'                     A'                     A'
 Frequencies --   1035.8021              1168.1465              1306.2681
 Red. masses --      1.3622                 1.1117                 4.2266
 Frc consts  --      0.8611                 0.8938                 4.2492
 IR Inten    --      1.5865               198.6623                63.6312
  Atom  AN      X      Y      Z        X      Y      Z        X      Y      Z
     1   6    -0.07  -0.00   0.00     0.01   0.00   0.00    -0.17  -0.03  -0.00
     2   6    -0.02  -0.06   0.00     0.00  -0.01   0.00     0.01   0.03  -0.00
     3   6     0.10  -0.02  -0.00    -0.02  -0.01  -0.00     0.38  -0.04   0.00
     4   1    -0.08  -0.03   0.00     0.01   0.00   0.00    -0.24  -0.04  -0.00
     5   1     0.91  -0.14   0.00     0.23  -0.05   0.00    -0.76   0.10  -0.00
     6   6     0.02   0.09  -0.00    -0.02   0.03  -0.00     0.13  -0.10   0.00
     7   6    -0.06  -0.01   0.00    -0.08   0.03   0.00    -0.26   0.14  -0.00
     8   1    -0.23   0.22   0.00     0.34  -0.57   0.00    -0.06  -0.15  -0.00
     9   1    -0.13  -0.00   0.00     0.69   0.15   0.00    -0.05   0.18  -0.00
                     16                     17                     18
                     A'                     A'                     A'
 Frequencies --   1669.7256              1871.3989              2606.4692
 Red. masses --      8.5737                 6.0347                 1.0714
 Frc consts  --     14.0834                12.4519                 4.2887
 IR Inten    --    495.4251               793.4490               567.4448
  Atom  AN      X      Y      Z        X      Y      Z        X      Y      Z
     1   6     0.03   0.01  -0.00    -0.34  -0.06  -0.00    -0.00  -0.00  -0.00
     2   6     0.05   0.01   0.00     0.55   0.10   0.00    -0.00  -0.00   0.00
     3   6    -0.40   0.12   0.00    -0.14  -0.03  -0.00    -0.01  -0.07   0.00
     4   1     0.01   0.00  -0.00    -0.73  -0.11   0.00     0.01   0.00  -0.00
     5   1     0.42  -0.08  -0.00     0.04  -0.03   0.00     0.14   0.96  -0.00
     6   6     0.60  -0.26   0.00    -0.07   0.03  -0.00     0.01  -0.01   0.00
     7   6    -0.27   0.12  -0.00     0.05  -0.03   0.00     0.01   0.00  -0.00
     8   1    -0.25   0.06  -0.00     0.02  -0.00   0.00    -0.17  -0.12  -0.00
     9   1    -0.21   0.14  -0.00     0.02  -0.02   0.00    -0.01   0.13  -0.00
                     19                     20                     21
                     A'                     A'                     A'
 Frequencies --   2699.4552              2740.3056              2977.4694
 Red. masses --      1.0681                 1.0951                 1.1727
 Frc consts  --      4.5857                 4.8452                 6.1256
 IR Inten    --    940.6537               481.8070               499.1876
  Atom  AN      X      Y      Z        X      Y      Z        X      Y      Z
     1   6    -0.00  -0.00  -0.00     0.00   0.00   0.00    -0.12  -0.02  -0.00
     2   6     0.00   0.00   0.00    -0.00  -0.00  -0.00     0.04   0.01   0.00
     3   6    -0.00  -0.02   0.00    -0.00   0.00  -0.00    -0.00   0.00   0.00
     4   1     0.02   0.00   0.00    -0.01  -0.00   0.00     0.98   0.17  -0.00
     5   1     0.05   0.23  -0.00    -0.01  -0.06   0.00    -0.00  -0.02  -0.00
     6   6     0.00  -0.00  -0.00    -0.00   0.00  -0.00    -0.00   0.00   0.00
     7   6    -0.07  -0.02   0.00    -0.00  -0.09   0.00     0.00  -0.00  -0.00
     8   1     0.77   0.53   0.00     0.24   0.13   0.00    -0.01  -0.01  -0.00
     9   1     0.02  -0.27  -0.00    -0.18   0.94   0.00    -0.00   0.02  -0.00

 -------------------
 - Thermochemistry -
 -------------------
 Temperature   298.150 Kelvin.  Pressure   1.00000 Atm.
 Atom     1 has atomic number  6 and mass  12.00000
 Atom     2 has atomic number  6 and mass  12.00000
 Atom     3 has atomic number  6 and mass  12.00000
 Atom     4 has atomic number  1 and mass   1.00783
 Atom     5 has atomic number  1 and mass   1.00783
 Atom     6 has atomic number  6 and mass  12.00000
 Atom     7 has atomic number  6 and mass  12.00000
 Atom     8 has atomic number  1 and mass   1.00783
 Atom     9 has atomic number  1 and mass   1.00783
 Molecular mass:    64.03130 amu.
 Principal axes and moments of inertia in atomic units:
                           1         2         3
     Eigenvalues --    43.09184 785.01546 828.10730
           X            0.99180   0.12782   0.00000
           Y           -0.12782   0.99180   0.00000
           Z            0.00000  -0.00000   1.00000
 This molecule is an asymmetric top.
 Rotational symmetry number  1.
 Rotational temperatures (Kelvin)      2.00998     0.11033     0.10459
 Rotational constants (GHZ):          41.88128     2.29899     2.17936
 Zero-point vibrational energy     149775.7 (Joules/Mol)
                                   35.79725 (Kcal/Mol)
 Warning -- explicit consideration of   6 degrees of freedom as
           vibrations may cause significant error
 Vibrational temperatures:    218.61   334.49   424.98   477.36   683.11
          (Kelvin)            810.23  1030.39  1059.29  1145.28  1195.36
                             1260.06  1382.63  1490.29  1680.70  1879.43
                             2402.36  2692.52  3750.12  3883.91  3942.68
                             4283.91
 
 Zero-point correction=                           0.057047 (Hartree/Particle)
 Thermal correction to Energy=                    0.062786
 Thermal correction to Enthalpy=                  0.063730
 Thermal correction to Gibbs Free Energy=         0.028368
 Sum of electronic and zero-point Energies=           -191.136256
 Sum of electronic and thermal Energies=              -191.130516
 Sum of electronic and thermal Enthalpies=            -191.129572
 Sum of electronic and thermal Free Energies=         -191.164934
 
                     E (Thermal)             CV                S
                      KCal/Mol        Cal/Mol-Kelvin    Cal/Mol-Kelvin
 Total                   39.399             19.914             74.426
 Electronic               0.000              0.000              1.377
 Translational            0.889              2.981             38.389
 Rotational               0.889              2.981             24.841
 Vibrational             37.621             13.952              9.818
 Vibration     1          0.619              1.901              2.648
 Vibration     2          0.653              1.791              1.860
 Vibration     3          0.690              1.682              1.443
 Vibration     4          0.714              1.612              1.251
 Vibration     5          0.832              1.306              0.724
 Vibration     6          0.919              1.111              0.518
                       Q            Log10(Q)             Ln(Q)
 Total Bot       0.894828D-13        -13.048260        -30.044729
 Total V=0       0.155337D+14         13.191276         30.374035
 Vib (Bot)       0.370800D-25        -25.430860        -58.556720
 Vib (Bot)    1  0.133377D+01          0.125082          0.288012
 Vib (Bot)    2  0.846285D+00         -0.072483         -0.166899
 Vib (Bot)    3  0.645515D+00         -0.190094         -0.437707
 Vib (Bot)    4  0.562539D+00         -0.249847         -0.575294
 Vib (Bot)    5  0.353827D+00         -0.451209         -1.038947
 Vib (Bot)    6  0.275151D+00         -0.560429         -1.290435
 Vib (V=0)       0.643688D+01          0.808676          1.862045
 Vib (V=0)    1  0.192441D+01          0.284298          0.654621
 Vib (V=0)    2  0.148295D+01          0.171128          0.394036
 Vib (V=0)    3  0.131651D+01          0.119424          0.274985
 Vib (V=0)    4  0.125263D+01          0.097822          0.225245
 Vib (V=0)    5  0.111253D+01          0.046312          0.106637
 Vib (V=0)    6  0.107071D+01          0.029671          0.068321
 Electronic      0.200000D+01          0.301030          0.693147
 Translational   0.201393D+08          7.304044         16.818182
 Rotational      0.599137D+05          4.777526         11.000661
 
                                                              b3lyp opt
                                                             IR Spectrum
 
     2          22   2                               1       1               1     1    1                                            
     9          76   6                               8       6               3     1    0   9  8 8 7 77     5   4     3 2  2  1      
     7          49   0                               7       7               0     6    3   6  7 3 9 31     6   7     3 9  3  5      
     7          09   6                               1       0               6     8    6   1  6 1 6 66     3   5     2 5  2  2      
 
     X          XX   X                               X       X               X     X    X   X  X X X XX     X   X     X X  X  X      
     X          XX   X                               X       X                     X                                                 
     X          XX   X                               X       X                     X                                                 
     X          XX   X                               X       X                     X                                                 
     X          XX   X                               X       X                                                                       
     X          XX   X                               X       X                                                                       
     X          XX   X                               X       X                                                                       
     X          XX   X                               X       X                                                                       
     X          XX   X                               X       X                                                                       
     X          XX   X                               X       X                                                                       
     X           X   X                               X       X                                                                       
                 X   X                               X                                                                               
                 X                                   X                                                                               
                 X                                   X                                                                               
                 X                                   X                                                                               
                 X                                   X                                                                               
                 X                                   X                                                                               
                 X                                                                                                                   
                 X                                                                                                                   
                 X                                                                                                                   
 
 ***** Axes restored to original set *****
 -------------------------------------------------------------------
 Center     Atomic                   Forces (Hartrees/Bohr)
 Number     Number              X              Y              Z
 -------------------------------------------------------------------
      1        6           0.000017565    0.000012674   -0.000000008
      2        6          -0.000017087   -0.000016591    0.000000011
      3        6          -0.000002402   -0.000018866    0.000000015
      4        1          -0.000006195   -0.000000776   -0.000000000
      5        1           0.000011733    0.000001679    0.000000000
      6        6          -0.000003134    0.000035606   -0.000000029
      7        6          -0.000009446   -0.000014750    0.000000011
      8        1           0.000003178    0.000001280   -0.000000001
      9        1           0.000005788   -0.000000256    0.000000001
 -------------------------------------------------------------------
 Cartesian Forces:  Max     0.000035606 RMS     0.000010899
 Z-matrix is all fixed cartesians, so copy forces.
 Force constants in Cartesian coordinates: 
                1             2             3             4             5 
      1  0.100395D+01
      2  0.288291D+00  0.147742D+00
      3 -0.119016D-03 -0.319044D-04  0.649077D-01
      4 -0.677226D+00 -0.191634D+00  0.769241D-04  0.979604D+00
      5 -0.189718D+00 -0.986708D-01  0.281910D-04  0.289090D+00  0.181285D+00
      6  0.753567D-04  0.279540D-04 -0.353481D-01 -0.121442D-03 -0.673961D-04
      7 -0.458318D-01 -0.186806D-01  0.960913D-05 -0.263020D+00 -0.847768D-01
      8 -0.667470D-02  0.453747D-02 -0.477767D-05 -0.908535D-01 -0.833558D-01
      9  0.000000D+00 -0.626790D-05 -0.300371D-03  0.474487D-04  0.189296D-04
     10 -0.292591D+00 -0.817713D-01  0.344612D-04  0.210390D-01  0.395263D-02
     11 -0.828122D-01 -0.523565D-01  0.642481D-05  0.505015D-02  0.104742D-01
     12  0.353115D-04  0.655390D-05 -0.319170D-01 -0.274303D-05  0.000000D+00
     13 -0.219952D-02  0.597957D-03  0.000000D+00  0.349636D-02 -0.225651D-01
     14 -0.189238D-02  0.796620D-04  0.000000D+00 -0.119279D-01 -0.136574D-01
     15  0.118662D-05  0.000000D+00  0.708775D-03  0.925207D-05  0.144218D-04
     16  0.270136D-01  0.681707D-02 -0.239476D-05 -0.989514D-01 -0.632724D-02
     17 -0.114061D-01 -0.268318D-02  0.192463D-05  0.609737D-02  0.730223D-02
     18  0.124874D-04  0.418726D-05  0.140333D-02 -0.183492D-04  0.000000D+00
     19 -0.108690D-01 -0.293432D-02  0.000000D+00  0.323270D-01  0.824964D-02
     20  0.357566D-02  0.858525D-03  0.000000D+00 -0.285899D-02 -0.330653D-02
     21 -0.433299D-05  0.000000D+00  0.529748D-03  0.607097D-05  0.551038D-05
     22 -0.154701D-02 -0.498231D-03  0.000000D+00  0.246994D-02  0.114596D-02
     23 -0.126846D-02 -0.290448D-03  0.000000D+00  0.107748D-02  0.910437D-03
     24  0.000000D+00  0.000000D+00  0.464594D-03 -0.102348D-05  0.235974D-05
     25 -0.703004D-03 -0.187029D-03  0.000000D+00  0.261031D-03  0.948603D-03
     26  0.190537D-02  0.783539D-03  0.000000D+00 -0.404058D-02 -0.981232D-03
     27 -0.158806D-05 -0.102858D-05 -0.448649D-03  0.386210D-05 -0.256850D-05
                6             7             8             9            10 
      6  0.548702D-01
      7  0.424901D-04  0.732094D+00
      8  0.181750D-04 -0.863486D-02  0.375856D+00
      9 -0.473080D-01  0.830858D-04 -0.210993D-03  0.118801D+00
     10 -0.184658D-05 -0.521093D-02 -0.702656D-05 -0.115632D-05  0.275188D+00
     11  0.000000D+00 -0.237020D-02  0.176744D-02  0.166513D-05  0.798378D-01
     12  0.989700D-02  0.000000D+00  0.195715D-05  0.416559D-02 -0.333884D-04
     13  0.179412D-04 -0.501930D-01  0.400438D-03 -0.235690D-05  0.189503D-03
     14  0.157340D-04 -0.357357D-02 -0.212496D+00  0.145468D-03 -0.154148D-02
     15  0.741993D-02  0.000000D+00  0.145955D-03 -0.338241D-01  0.130639D-05
     16 -0.820625D-05 -0.302329D+00  0.707753D-01 -0.896625D-04  0.541575D-02
     17  0.208092D-05  0.839762D-01 -0.103745D+00  0.581614D-04 -0.163193D-02
     18  0.892513D-02 -0.100448D-03  0.565336D-04 -0.452706D-01  0.206864D-05
     19 -0.300091D-05 -0.633912D-01  0.435710D-01 -0.434227D-04 -0.218398D-02
     20  0.413394D-05  0.363074D-01  0.238442D-01 -0.151083D-04  0.639481D-03
     21  0.218948D-02 -0.374873D-04 -0.142104D-04 -0.172139D-03  0.000000D+00
     22 -0.107900D-05 -0.440855D-04 -0.269921D-02  0.207808D-05 -0.119140D-02
     23  0.234920D-05 -0.185228D-02 -0.685382D-02  0.615607D-05 -0.694169D-03
     24  0.362349D-02  0.138755D-05  0.604935D-05  0.965827D-03  0.000000D+00
     25  0.000000D+00 -0.207345D-02 -0.587747D-02  0.417779D-05 -0.655261D-03
     26 -0.318610D-05 -0.395264D-03  0.446239D-03  0.198899D-05  0.121602D-02
     27 -0.426917D-02  0.000000D+00  0.131078D-05  0.294257D-02 -0.112770D-05
               11            12            13            14            15 
     11  0.402344D-01
     12 -0.777285D-05  0.185961D-01
     13  0.315241D-03  0.000000D+00  0.419497D-01
     14 -0.184247D-03  0.000000D+00  0.321099D-02  0.243437D+00
     15  0.000000D+00 -0.188680D-03  0.000000D+00 -0.185329D-03  0.160084D-01
     16  0.117834D-02  0.000000D+00  0.144525D-01  0.187273D-01 -0.146618D-04
     17 -0.407503D-03  0.000000D+00  0.213277D-01 -0.193115D-01  0.261246D-04
     18  0.000000D+00 -0.528132D-03 -0.167953D-04  0.258062D-04  0.944775D-02
     19 -0.633775D-03  0.000000D+00 -0.102438D-01 -0.655349D-02  0.394622D-05
     20  0.265953D-03  0.000000D+00 -0.487724D-02  0.243112D-02 -0.173982D-05
     21  0.000000D+00 -0.126291D-03  0.258527D-05 -0.195602D-05  0.103122D-02
     22 -0.359055D-03  0.000000D+00  0.958825D-03  0.223403D-02 -0.108307D-05
     23 -0.210855D-03  0.000000D+00  0.198107D-02  0.178766D-02 -0.532676D-05
     24  0.000000D+00 -0.328741D-03  0.000000D+00 -0.529481D-05 -0.503568D-02
     25 -0.206261D-03  0.000000D+00  0.158950D-02  0.131642D-02 -0.142767D-05
     26  0.417187D-03  0.000000D+00 -0.390987D-03 -0.208647D-02  0.527331D-05
     27  0.000000D+00  0.430154D-03  0.000000D+00  0.548656D-05  0.443240D-02
               16            17            18            19            20 
     16  0.790935D+00
     17 -0.196523D+00  0.223908D+00
     18  0.252187D-03 -0.165434D-03  0.511556D-01
     19 -0.382211D+00  0.781989D-01 -0.105784D-03  0.603517D+00
     20  0.900848D-01 -0.106764D+00  0.624421D-04 -0.749532D-01  0.418895D+00
     21 -0.115503D-03  0.609802D-04 -0.439649D-01  0.122020D-03 -0.259085D-03
     22 -0.316860D-01 -0.498396D-02 -0.116277D-05 -0.133733D+00 -0.112067D+00
     23  0.809848D-02  0.562776D-02  0.501921D-05 -0.104605D+00 -0.114038D+00
     24 -0.118443D-04  0.339476D-05  0.105442D-01  0.732181D-04  0.504139D-04
     25 -0.226398D-01  0.249446D-01 -0.242048D-04 -0.332126D-01  0.641491D-01
     26  0.716861D-02 -0.392687D-02  0.108662D-04  0.596602D-01 -0.222185D+00
     27 -0.969032D-05  0.130684D-04  0.828775D-02 -0.482242D-04  0.159011D-03
               21            22            23            24            25 
     21  0.113018D+00
     22  0.793155D-04  0.159399D+00
     23  0.513361D-04  0.113541D+00  0.128782D+00
     24 -0.352963D-01 -0.750686D-04 -0.772141D-04  0.169954D-01
     25 -0.518914D-04  0.537407D-02 -0.162777D-01  0.129590D-04  0.520596D-01
     26  0.158456D-03  0.368699D-02 -0.157146D-01  0.198775D-04 -0.688103D-01
     27 -0.372093D-01 -0.334448D-05  0.174033D-04  0.806720D-02  0.604449D-04
               26            27 
     26  0.243248D+00
     27 -0.192668D-03  0.177670D-01
 Leave Link  716 at Wed Jul 20 02:04:06 2016, MaxMem=    33554432 cpu:         0.2
 (Enter /home/proyectos/fulerenos/M3C-v2.0/M3C-deps_CCC/g09-AM64L-G09RevC.01/l103.exe)

 GradGradGradGradGradGradGradGradGradGradGradGradGradGradGradGradGradGrad
 Berny optimization.
 Search for a local minimum.
 Step number   1 out of a maximum of    2
 All quantities printed in internal units (Hartrees-Bohrs-Radians)
 Second derivative matrix not updated -- analytic derivatives used.
 ITU=  0
     Eigenvalues ---    0.00280   0.00524   0.01116   0.01781   0.02228
     Eigenvalues ---    0.03003   0.04384   0.06323   0.08964   0.12837
     Eigenvalues ---    0.13293   0.14166   0.17373   0.19858   0.28697
     Eigenvalues ---    0.43796   0.57330   0.60845   0.85668   1.26603
     Eigenvalues ---    1.88275
 Angle between quadratic step and forces=  75.53 degrees.
 ClnCor:  largest displacement from symmetrization is 8.42D-11 for atom     8.
 Linear search not attempted -- first point.
 ClnCor:  largest displacement from symmetrization is 2.09D-15 for atom     4.
 B after Tr=    -0.000007   -0.000045    0.000000
         Rot=    1.000000   -0.000000    0.000000    0.000003 Ang=   0.00 deg.
 Variable       Old X    -DE/DX   Delta X   Delta X   Delta X     New X
                                 (Linear)    (Quad)   (Total)
    X1        4.85631   0.00002   0.00000  -0.00016  -0.00016   4.85615
    Y1        0.62756   0.00001   0.00000   0.00018   0.00011   0.62768
    Z1        0.00078  -0.00000   0.00000  -0.00000  -0.00000   0.00078
    X2        2.54376  -0.00002   0.00000  -0.00003  -0.00004   2.54372
    Y2       -0.06135  -0.00002   0.00000  -0.00031  -0.00037  -0.06171
    Z2        0.00105   0.00000   0.00000   0.00000   0.00000   0.00105
    X3        0.13948  -0.00000   0.00000  -0.00003  -0.00004   0.13944
    Y3       -1.07543  -0.00002   0.00000  -0.00031  -0.00035  -1.07578
    Z3        0.00158   0.00000   0.00000   0.00000   0.00000   0.00158
    X4        6.86755  -0.00001   0.00000  -0.00030  -0.00030   6.86726
    Y4        1.24367  -0.00000   0.00000   0.00056   0.00048   1.24415
    Z4        0.00052  -0.00000   0.00000  -0.00000  -0.00000   0.00052
    X5        0.08577   0.00001   0.00000   0.00005   0.00003   0.08580
    Y5       -3.23197   0.00000   0.00000  -0.00029  -0.00033  -3.23230
    Z5        0.00334   0.00000   0.00000   0.00000   0.00000   0.00334
    X6       -2.21391  -0.00000   0.00000   0.00007   0.00007  -2.21385
    Y6       -0.08495   0.00004   0.00000   0.00005   0.00002  -0.08493
    Z6        0.00048  -0.00000   0.00000  -0.00000  -0.00000   0.00048
    X7       -4.58201  -0.00001   0.00000   0.00010   0.00010  -4.58191
    Y7        0.61569  -0.00001   0.00000   0.00012   0.00010   0.61578
    Z7       -0.00038   0.00000   0.00000  -0.00000  -0.00000  -0.00038
    X8       -6.18550   0.00000   0.00000   0.00005   0.00004  -6.18546
    Y8       -0.80395   0.00000   0.00000   0.00020   0.00019  -0.80376
    Z8        0.00058  -0.00000   0.00000  -0.00000  -0.00000   0.00058
    X9       -5.23115   0.00001   0.00000   0.00031   0.00031  -5.23084
    Y9        2.64856  -0.00000   0.00000   0.00018   0.00016   2.64872
    Z9       -0.00212   0.00000   0.00000  -0.00000  -0.00000  -0.00212
         Item               Value     Threshold  Converged?
 Maximum Force            0.000036     0.000450     YES
 RMS     Force            0.000011     0.000300     YES
 Maximum Displacement     0.000477     0.001800     YES
 RMS     Displacement     0.000184     0.001200     YES
 Predicted change in Energy=-6.738043D-09
 Optimization completed.
    -- Stationary point found.
 GradGradGradGradGradGradGradGradGradGradGradGradGradGradGradGradGradGrad

 Leave Link  103 at Wed Jul 20 02:04:06 2016, MaxMem=    33554432 cpu:         0.1
 (Enter /home/proyectos/fulerenos/M3C-v2.0/M3C-deps_CCC/g09-AM64L-G09RevC.01/l9999.exe)
 1\1\GINC-EINSTENIO\Freq\UB3LYP\6-311++G(3df,2p)\C5H4(3+,2)\ROOT\20-Jul
 -2016\0\\#p b3lyp/6-311++G(3df,2p) freq symmetry=Loose\\b3lyp opt\\3,2
 \C,2.569849,0.332093,0.0004109999\C,1.346102,-0.032463,0.0005570001\C,
 0.073811981,-0.569093877,0.0008375059\H,3.63415299,0.658124065,0.00027
 66942\H,0.045388917,-1.710283455,0.001765927\C,-1.171552996,-0.0449510
 26,0.0002550761\C,-2.424694982,0.325806882,-0.0002030572\H,-3.27322511
 2,-0.425430262,0.0003052404\H,-2.768204833,1.401559901,-0.0011241497\\
 Version=EM64L-G09RevE.01\State=2-A'\HF=-191.1933021\S2=0.756551\S2-1=0
 .\S2A=0.750024\RMSD=4.194e-09\RMSF=1.090e-05\ZeroPoint=0.0570466\Therm
 al=0.0627856\Dipole=0.0336229,0.1843155,-0.0001464\DipoleDeriv=1.22205
 43,0.0342746,0.0000487,0.1887385,0.578666,0.0000439,-0.0000775,0.00002
 48,0.6037964,-1.6404958,-0.2152794,-0.0000588,-0.6911928,0.3415007,-0.
 0001592,0.0003299,-0.0001003,0.2514209,1.699856,0.0308267,0.0001283,0.
 0544445,-0.2223222,0.0005651,0.0001091,0.0005622,0.461462,0.9729095,0.
 1595403,-0.0000409,0.2300291,0.267475,0.0000157,-0.0000984,0.000007,0.
 2517696,0.1501247,0.0045182,-0.000013,-0.0387754,0.7263249,-0.0004138,
 0.0000224,-0.0004085,0.2254338,-1.2522719,0.0647813,-0.0002428,0.60508
 48,0.497838,-0.000103,-0.0006841,-0.00017,0.2798816,0.4185437,-0.00657
 36,-0.0000024,-0.2453488,-0.1909741,0.0005181,0.0001927,0.0005476,0.48
 06239,0.8734825,0.0858747,0.0000122,0.3671169,0.3766108,-0.0000909,-0.
 0002175,-0.0001258,0.2095615,0.5557969,-0.1579629,0.0001686,-0.4700966
 ,0.624881,-0.0003758,0.0004235,-0.0003371,0.2360503\Polar=109.5960884,
 -0.3714289,32.2882826,0.0110584,-0.0077601,22.8422594\PG=CS [SG(C5H4)]
 \NImag=0\\1.00395296,0.28829080,0.14774178,-0.00011902,-0.00003190,0.0
 6490767,-0.67722560,-0.19163436,0.00007692,0.97960409,-0.18971793,-0.0
 9867082,0.00002819,0.28909028,0.18128496,0.00007536,0.00002795,-0.0353
 4806,-0.00012144,-0.00006740,0.05487023,-0.04583181,-0.01868057,0.0000
 0961,-0.26302050,-0.08477679,0.00004249,0.73209418,-0.00667470,0.00453
 747,-0.00000478,-0.09085350,-0.08335583,0.00001818,-0.00863486,0.37585
 550,-0.00000019,-0.00000627,-0.00030037,0.00004745,0.00001893,-0.04730
 802,0.00008309,-0.00021099,0.11880131,-0.29259066,-0.08177131,0.000034
 46,0.02103899,0.00395263,-0.00000185,-0.00521093,-0.00000703,-0.000001
 16,0.27518797,-0.08281224,-0.05235652,0.00000642,0.00505015,0.01047416
 ,0.00000016,-0.00237020,0.00176744,0.00000167,0.07983780,0.04023439,0.
 00003531,0.00000655,-0.03191703,-0.00000274,0.00000002,0.00989700,0.00
 000077,0.00000196,0.00416559,-0.00003339,-0.00000777,0.01859613,-0.002
 19952,0.00059796,-0.00000085,0.00349636,-0.02256515,0.00001794,-0.0501
 9303,0.00040044,-0.00000236,0.00018950,0.00031524,-0.00000021,0.041949
 69,-0.00189238,0.00007966,0.00000028,-0.01192785,-0.01365737,0.0000157
 3,-0.00357357,-0.21249604,0.00014547,-0.00154148,-0.00018425,-0.000000
 19,0.00321099,0.24343717,0.00000119,0.00000058,0.00070878,0.00000925,0
 .00001442,0.00741993,0.00000089,0.00014596,-0.03382414,0.00000131,0.00
 000004,-0.00018868,0.00000059,-0.00018533,0.01600841,0.02701362,0.0068
 1707,-0.00000239,-0.09895137,-0.00632724,-0.00000821,-0.30232922,0.070
 77530,-0.00008966,0.00541575,0.00117834,-0.00000022,0.01445248,0.01872
 733,-0.00001466,0.79093538,-0.01140612,-0.00268318,0.00000192,0.006097
 37,0.00730223,0.00000208,0.08397616,-0.10374517,0.00005816,-0.00163193
 ,-0.00040750,-0.00000030,0.02132767,-0.01931148,0.00002612,-0.19652270
 ,0.22390813,0.00001249,0.00000419,0.00140333,-0.00001835,0.00000053,0.
 00892513,-0.00010045,0.00005653,-0.04527062,0.00000207,0.00000005,-0.0
 0052813,-0.00001680,0.00002581,0.00944775,0.00025219,-0.00016543,0.051
 15556,-0.01086897,-0.00293432,0.00000098,0.03232705,0.00824964,-0.0000
 0300,-0.06339117,0.04357102,-0.00004342,-0.00218398,-0.00063377,0.0000
 0026,-0.01024381,-0.00655349,0.00000395,-0.38221087,0.07819887,-0.0001
 0578,0.60351741,0.00357566,0.00085852,0.00000017,-0.00285899,-0.003306
 53,0.00000413,0.03630738,0.02384420,-0.00001511,0.00063948,0.00026595,
 -0.00000024,-0.00487724,0.00243112,-0.00000174,0.09008482,-0.10676392,
 0.00006244,-0.07495319,0.41889459,-0.00000433,-0.00000063,0.00052975,0
 .00000607,0.00000551,0.00218948,-0.00003749,-0.00001421,-0.00017214,-0
 .00000078,-0.00000040,-0.00012629,0.00000259,-0.00000196,0.00103122,-0
 .00011550,0.00006098,-0.04396491,0.00012202,-0.00025909,0.11301840,-0.
 00154701,-0.00049823,0.00000016,0.00246994,0.00114596,-0.00000108,-0.0
 0004409,-0.00269921,0.00000208,-0.00119140,-0.00035905,0.00000019,0.00
 095882,0.00223403,-0.00000108,-0.03168597,-0.00498396,-0.00000116,-0.1
 3373303,-0.11206704,0.00007932,0.15939865,-0.00126846,-0.00029045,0.00
 000046,0.00107748,0.00091044,0.00000235,-0.00185228,-0.00685382,0.0000
 0616,-0.00069417,-0.00021086,-0.00000018,0.00198107,0.00178766,-0.0000
 0533,0.00809848,0.00562776,0.00000502,-0.10460494,-0.11403846,0.000051
 34,0.11354052,0.12878229,0.00000079,0.00000055,0.00046459,-0.00000102,
 0.00000236,0.00362349,0.00000139,0.00000605,0.00096583,0.00000046,-0.0
 0000014,-0.00032874,-0.00000088,-0.00000529,-0.00503568,-0.00001184,0.
 00000339,0.01054415,0.00007322,0.00005041,-0.03529626,-0.00007507,-0.0
 0007721,0.01699541,-0.00070300,-0.00018703,0.00000012,0.00026103,0.000
 94860,-0.00000021,-0.00207345,-0.00587747,0.00000418,-0.00065526,-0.00
 020626,0.00000003,0.00158950,0.00131642,-0.00000143,-0.02263981,0.0249
 4465,-0.00002420,-0.03321264,0.06414912,-0.00005189,0.00537407,-0.0162
 7768,0.00001296,0.05205956,0.00190537,0.00078354,-0.00000077,-0.004040
 58,-0.00098123,-0.00000319,-0.00039526,0.00044624,0.00000199,0.0012160
 2,0.00041719,0.00000016,-0.00039099,-0.00208647,0.00000527,0.00716861,
 -0.00392687,0.00001087,0.05966019,-0.22218549,0.00015846,0.00368699,-0
 .01571456,0.00001988,-0.06881034,0.24324766,-0.00000159,-0.00000103,-0
 .00044865,0.00000386,-0.00000257,-0.00426917,-0.00000030,0.00000131,0.
 00294257,-0.00000113,-0.00000002,0.00043015,-0.00000003,0.00000549,0.0
 0443240,-0.00000969,0.00001307,0.00828775,-0.00004822,0.00015901,-0.03
 720925,-0.00000334,0.00001740,0.00806720,0.00006044,-0.00019267,0.0177
 6699\\-0.00001756,-0.00001267,0.,0.00001709,0.00001659,-0.00000001,0.0
 0000240,0.00001887,-0.00000002,0.00000619,0.00000078,0.,-0.00001173,-0
 .00000168,0.,0.00000313,-0.00003561,0.00000003,0.00000945,0.00001475,-
 0.00000001,-0.00000318,-0.00000128,0.,-0.00000579,0.00000026,0.\\\@


 The most important thing in communication is to hear what isn't being said.
 -- Peter F. Drucker
 Job cpu time:       0 days  1 hours 37 minutes 42.3 seconds.
 File lengths (MBytes):  RWF=     80 Int=      0 D2E=      0 Chk=      5 Scr=      1
 Normal termination of Gaussian 09 at Wed Jul 20 02:04:07 2016.
