 Entering Gaussian System, Link 0=/home/proyectos/fulerenos/M3C-v1.9/M3C-deps_CCC/g09-AM64L-G09RevC.01/g09
 Initial command:
 /home/proyectos/fulerenos/M3C-v1.9/M3C-deps_CCC/g09-AM64L-G09RevC.01/l1.exe "/scratch/naguirre/gaussian/Gau-10986.inp" -scrdir="/scratch/naguirre/gaussian/"
 Entering Link 1 = /home/proyectos/fulerenos/M3C-v1.9/M3C-deps_CCC/g09-AM64L-G09RevC.01/l1.exe PID=     10992.
  
 Copyright (c) 1988,1990,1992,1993,1995,1998,2003,2009,2015,
            Gaussian, Inc.  All Rights Reserved.
  
 This is part of the Gaussian(R) 09 program.  It is based on
 the Gaussian(R) 03 system (copyright 2003, Gaussian, Inc.),
 the Gaussian(R) 98 system (copyright 1998, Gaussian, Inc.),
 the Gaussian(R) 94 system (copyright 1995, Gaussian, Inc.),
 the Gaussian 92(TM) system (copyright 1992, Gaussian, Inc.),
 the Gaussian 90(TM) system (copyright 1990, Gaussian, Inc.),
 the Gaussian 88(TM) system (copyright 1988, Gaussian, Inc.),
 the Gaussian 86(TM) system (copyright 1986, Carnegie Mellon
 University), and the Gaussian 82(TM) system (copyright 1983,
 Carnegie Mellon University). Gaussian is a federally registered
 trademark of Gaussian, Inc.
  
 This software contains proprietary and confidential information,
 including trade secrets, belonging to Gaussian, Inc.
  
 This software is provided under written license and may be
 used, copied, transmitted, or stored only in accord with that
 written license.
  
 The following legend is applicable only to US Government
 contracts under FAR:
  
                    RESTRICTED RIGHTS LEGEND
  
 Use, reproduction and disclosure by the US Government is
 subject to restrictions as set forth in subparagraphs (a)
 and (c) of the Commercial Computer Software - Restricted
 Rights clause in FAR 52.227-19.
  
 Gaussian, Inc.
 340 Quinnipiac St., Bldg. 40, Wallingford CT 06492
  
  
 ---------------------------------------------------------------
 Warning -- This program may not be used in any manner that
 competes with the business of Gaussian, Inc. or will provide
 assistance to any competitor of Gaussian, Inc.  The licensee
 of this program is prohibited from giving any competitor of
 Gaussian, Inc. access to this program.  By using this program,
 the user acknowledges that Gaussian, Inc. is engaged in the
 business of creating and licensing software in the field of
 computational chemistry and represents and warrants to the
 licensee that it is not a competitor of Gaussian, Inc. and that
 it will not use this program in any manner prohibited above.
 ---------------------------------------------------------------
  

 Cite this work as:
 Gaussian 09, Revision E.01,
 M. J. Frisch, G. W. Trucks, H. B. Schlegel, G. E. Scuseria, 
 M. A. Robb, J. R. Cheeseman, G. Scalmani, V. Barone, B. Mennucci, 
 G. A. Petersson, H. Nakatsuji, M. Caricato, X. Li, H. P. Hratchian, 
 A. F. Izmaylov, J. Bloino, G. Zheng, J. L. Sonnenberg, M. Hada, 
 M. Ehara, K. Toyota, R. Fukuda, J. Hasegawa, M. Ishida, T. Nakajima, 
 Y. Honda, O. Kitao, H. Nakai, T. Vreven, J. A. Montgomery, Jr., 
 J. E. Peralta, F. Ogliaro, M. Bearpark, J. J. Heyd, E. Brothers, 
 K. N. Kudin, V. N. Staroverov, T. Keith, R. Kobayashi, J. Normand, 
 K. Raghavachari, A. Rendell, J. C. Burant, S. S. Iyengar, J. Tomasi, 
 M. Cossi, N. Rega, J. M. Millam, M. Klene, J. E. Knox, J. B. Cross, 
 V. Bakken, C. Adamo, J. Jaramillo, R. Gomperts, R. E. Stratmann, 
 O. Yazyev, A. J. Austin, R. Cammi, C. Pomelli, J. W. Ochterski, 
 R. L. Martin, K. Morokuma, V. G. Zakrzewski, G. A. Voth, 
 P. Salvador, J. J. Dannenberg, S. Dapprich, A. D. Daniels, 
 O. Farkas, J. B. Foresman, J. V. Ortiz, J. Cioslowski, 
 and D. J. Fox, Gaussian, Inc., Wallingford CT, 2013.
 
 ******************************************
 Gaussian 09:  EM64L-G09RevE.01 30-Nov-2015
                20-Jun-2016 
 ******************************************
 %NProcShared=4
 Will use up to    4 processors via shared memory.
 ---------------------------------------------
 #p b3lyp/6-311++G(3df,2p) freq symmetry=Loose
 ---------------------------------------------
 1/10=4,30=1,38=1/1,3;
 2/12=2,17=4,18=3,40=1/2;
 3/5=4,6=6,7=1216,11=2,16=1,25=1,30=1,71=2,74=-5,140=1/1,2,3;
 4//1;
 5/5=2,38=5,98=1/2;
 8/6=4,10=90,11=11/1;
 11/6=1,8=1,9=11,15=111,16=1/1,2,10;
 10/6=1/2;
 6/7=2,8=2,9=2,10=2,18=1,28=1/1;
 7/8=1,10=1,25=1/1,2,3,16;
 1/10=4,30=1/3;
 99//99;
 Leave Link    1 at Mon Jun 20 10:13:24 2016, MaxMem=           0 cpu:         0.3
 (Enter /home/proyectos/fulerenos/M3C-v1.9/M3C-deps_CCC/g09-AM64L-G09RevC.01/l101.exe)
 ---------
 b3lyp opt
 ---------
 Symbolic Z-matrix:
 Charge =  3 Multiplicity = 2
 C                     2.76239   0.00029   0.00017 
 C                     0.19371  -0.00329  -0.00008 
 H                     3.87937   0.00475   0.00002 
 C                    -1.13258   0.00203   0.0001 
 C                     1.46685  -0.0052    0.0001 
 C                    -2.46062   0.05961   0.00001 
 H                    -2.94368   1.0749   -0.00191 
 H                    -2.95634  -0.69778  -0.76627 
 H                    -2.95841  -0.69327   0.76948 
 
 NAtoms=      9 NQM=        9 NQMF=       0 NMMI=      0 NMMIF=      0
                NMic=       0 NMicF=      0.
                    Isotopes and Nuclear Properties:
 (Nuclear quadrupole moments (NQMom) in fm**2, nuclear magnetic moments (NMagM)
  in nuclear magnetons)

  Atom         1           2           3           4           5           6           7           8           9
 IAtWgt=          12          12           1          12          12          12           1           1           1
 AtmWgt=  12.0000000  12.0000000   1.0078250  12.0000000  12.0000000  12.0000000   1.0078250   1.0078250   1.0078250
 NucSpn=           0           0           1           0           0           0           1           1           1
 AtZEff=   0.0000000   0.0000000   0.0000000   0.0000000   0.0000000   0.0000000   0.0000000   0.0000000   0.0000000
 NQMom=    0.0000000   0.0000000   0.0000000   0.0000000   0.0000000   0.0000000   0.0000000   0.0000000   0.0000000
 NMagM=    0.0000000   0.0000000   2.7928460   0.0000000   0.0000000   0.0000000   2.7928460   2.7928460   2.7928460
 AtZNuc=   6.0000000   6.0000000   1.0000000   6.0000000   6.0000000   6.0000000   1.0000000   1.0000000   1.0000000
 Leave Link  101 at Mon Jun 20 10:13:24 2016, MaxMem=    33554432 cpu:         0.2
 (Enter /home/proyectos/fulerenos/M3C-v1.9/M3C-deps_CCC/g09-AM64L-G09RevC.01/l103.exe)

 GradGradGradGradGradGradGradGradGradGradGradGradGradGradGradGradGradGrad
 Berny optimization.
 Initialization pass.
 Trust Radius=3.00D-01 FncErr=1.00D-07 GrdErr=1.00D-07
 Number of steps in this run=      2 maximum allowed number of steps=      2.
 GradGradGradGradGradGradGradGradGradGradGradGradGradGradGradGradGradGrad

 Leave Link  103 at Mon Jun 20 10:13:24 2016, MaxMem=    33554432 cpu:         0.1
 (Enter /home/proyectos/fulerenos/M3C-v1.9/M3C-deps_CCC/g09-AM64L-G09RevC.01/l202.exe)
                          Input orientation:                          
 ---------------------------------------------------------------------
 Center     Atomic      Atomic             Coordinates (Angstroms)
 Number     Number       Type             X           Y           Z
 ---------------------------------------------------------------------
      1          6           0        2.762386    0.000286    0.000173
      2          6           0        0.193712   -0.003294   -0.000079
      3          1           0        3.879365    0.004749    0.000019
      4          6           0       -1.132579    0.002028    0.000103
      5          6           0        1.466851   -0.005199    0.000095
      6          6           0       -2.460624    0.059611    0.000008
      7          1           0       -2.943683    1.074901   -0.001909
      8          1           0       -2.956338   -0.697780   -0.766266
      9          1           0       -2.958410   -0.693270    0.769475
 ---------------------------------------------------------------------
                    Distance matrix (angstroms):
                    1          2          3          4          5
     1  C    0.000000
     2  C    2.568677   0.000000
     3  H    1.116988   3.685662   0.000000
     4  C    3.894965   1.326302   5.011945   0.000000
     5  C    1.295547   1.273140   2.412535   2.599440   0.000000
     6  C    5.223347   2.655081   6.340226   1.329293   3.928010
     7  H    5.806378   3.317492   6.906462   2.105032   4.540862
     8  H    5.811930   3.315444   6.914302   2.098368   4.542200
     9  H    5.813807   3.317251   6.916246   2.099769   4.544042
                    6          7          8          9
     6  C    0.000000
     7  H    1.124350   0.000000
     8  H    1.185980   1.930492   0.000000
     9  H    1.186044   1.929165   1.535749   0.000000
 Stoichiometry    C5H4(3+,2)
 Framework group  C1[X(C5H4)]
 Deg. of freedom    21
 Full point group                 C1      NOp   1
 Largest Abelian subgroup         C1      NOp   1
 Largest concise Abelian subgroup C1      NOp   1
                         Standard orientation:                         
 ---------------------------------------------------------------------
 Center     Atomic      Atomic             Coordinates (Angstroms)
 Number     Number       Type             X           Y           Z
 ---------------------------------------------------------------------
      1          6           0        2.762403   -0.000556    0.000131
      2          6           0        0.193729   -0.003604   -0.000170
      3          1           0        3.879383    0.003676    0.000001
      4          6           0       -1.132561    0.001992   -0.000008
      5          6           0        1.466867   -0.005773    0.000025
      6          6           0       -2.460594    0.059850   -0.000078
      7          1           0       -2.943443    1.075241   -0.001143
      8          1           0       -2.956451   -0.696789   -0.767002
      9          1           0       -2.958550   -0.693580    0.768742
 ---------------------------------------------------------------------
 Rotational constants (GHZ):    150.1415100      2.0359415      2.0278616
 Leave Link  202 at Mon Jun 20 10:13:24 2016, MaxMem=    33554432 cpu:         0.0
 (Enter /home/proyectos/fulerenos/M3C-v1.9/M3C-deps_CCC/g09-AM64L-G09RevC.01/l301.exe)
 Standard basis: 6-311++G(3df,2p) (5D, 7F)
 Ernie: Thresh=  0.10000D-02 Tol=  0.10000D-05 Strict=F.
 There are   265 symmetry adapted cartesian basis functions of A   symmetry.
 There are   235 symmetry adapted basis functions of A   symmetry.
   235 basis functions,   338 primitive gaussians,   265 cartesian basis functions
    16 alpha electrons       15 beta electrons
       nuclear repulsion energy       120.2674508580 Hartrees.
 IExCor=  402 DFT=T Ex+Corr=B3LYP ExCW=0 ScaHFX=  0.200000
 ScaDFX=  0.800000  0.720000  1.000000  0.810000 ScalE2=  1.000000  1.000000
 IRadAn=      0 IRanWt=     -1 IRanGd=            0 ICorTp=0 IEmpDi=  4
 NAtoms=    9 NActive=    9 NUniq=    9 SFac= 1.00D+00 NAtFMM=   60 NAOKFM=F Big=F
 Integral buffers will be    131072 words long.
 Raffenetti 2 integral format.
 Two-electron integral symmetry is turned on.
 Leave Link  301 at Mon Jun 20 10:13:24 2016, MaxMem=    33554432 cpu:         0.2
 (Enter /home/proyectos/fulerenos/M3C-v1.9/M3C-deps_CCC/g09-AM64L-G09RevC.01/l302.exe)
 NPDir=0 NMtPBC=     1 NCelOv=     1 NCel=       1 NClECP=     1 NCelD=      1
         NCelK=      1 NCelE2=     1 NClLst=     1 CellRange=     0.0.
 One-electron integrals computed using PRISM.
 NBasis=   235 RedAO= T EigKep=  1.44D-06  NBF=   235
 NBsUse=   233 1.00D-06 EigRej=  2.73D-08 NBFU=   233
 Precomputing XC quadrature grid using
 IXCGrd= 4 IRadAn=           0 IRanWt=          -1 IRanGd=           0 AccXCQ= 0.00D+00.
 Generated NRdTot=       0 NPtTot=           0 NUsed=           0 NTot=          32
 NSgBfM=   265   265   265   265   265 MxSgAt=     9 MxSgA2=     9.
 Leave Link  302 at Mon Jun 20 10:13:24 2016, MaxMem=    33554432 cpu:         1.2
 (Enter /home/proyectos/fulerenos/M3C-v1.9/M3C-deps_CCC/g09-AM64L-G09RevC.01/l303.exe)
 DipDrv:  MaxL=1.
 Leave Link  303 at Mon Jun 20 10:13:24 2016, MaxMem=    33554432 cpu:         0.1
 (Enter /home/proyectos/fulerenos/M3C-v1.9/M3C-deps_CCC/g09-AM64L-G09RevC.01/l401.exe)
 ExpMin= 3.60D-02 ExpMax= 4.56D+03 ExpMxC= 6.82D+02 IAcc=3 IRadAn=         5 AccDes= 0.00D+00
 Harris functional with IExCor=  402 and IRadAn=       5 diagonalized for initial guess.
 HarFok:  IExCor=  402 AccDes= 0.00D+00 IRadAn=         5 IDoV= 1 UseB2=F ITyADJ=14
 ICtDFT=  3500011 ScaDFX=  1.000000  1.000000  1.000000  1.000000
 FoFCou: FMM=F IPFlag=           0 FMFlag=      100000 FMFlg1=           0
         NFxFlg=           0 DoJE=T BraDBF=F KetDBF=T FulRan=T
         wScrn=  0.000000 ICntrl=     500 IOpCl=  0 I1Cent=   200000004 NGrid=           0
         NMat0=    1 NMatS0=      1 NMatT0=    0 NMatD0=    1 NMtDS0=    0 NMtDT0=    0
 Petite list used in FoFCou.
 Harris En= -191.955859411671    
 JPrj=0 DoOrth=F DoCkMO=F.
 Initial guess <Sx>= 0.0000 <Sy>= 0.0000 <Sz>= 0.5000 <S**2>= 0.7500 S= 0.5000
 Leave Link  401 at Mon Jun 20 10:13:27 2016, MaxMem=    33554432 cpu:         9.7
 (Enter /home/proyectos/fulerenos/M3C-v1.9/M3C-deps_CCC/g09-AM64L-G09RevC.01/l502.exe)
 UHF open shell SCF:
 Using DIIS extrapolation, IDIIS=  1040.
 Integral symmetry usage will be decided dynamically.
 IVT=      232727 IEndB=      232727 NGot=    33554432 MDV=    33408836
 LenX=    33408836 LenY=    33338170
 Requested convergence on RMS density matrix=1.00D-08 within 128 cycles.
 Requested convergence on MAX density matrix=1.00D-06.
 Requested convergence on             energy=1.00D-06.
 No special actions if energy rises.
 Fock matrices will be formed incrementally for  20 cycles.

 Cycle   1  Pass 1  IDiag  1:
 FoFJK:  IHMeth= 1 ICntrl=       0 DoSepK=F KAlg= 0 I1Cent=   0 FoldK=F
 IRaf= 930000000 NMat=   1 IRICut=       1 DoRegI=T DoRafI=F ISym2E= 0.
 FoFCou: FMM=F IPFlag=           0 FMFlag=      100000 FMFlg1=           0
         NFxFlg=           0 DoJE=F BraDBF=F KetDBF=F FulRan=T
         wScrn=  0.000000 ICntrl=       0 IOpCl=  1 I1Cent=           0 NGrid=           0
         NMat0=    1 NMatS0=      1 NMatT0=    0 NMatD0=    1 NMtDS0=    0 NMtDT0=    0
 Symmetry not used in FoFCou.
 E= -191.068087320283    
 DIIS: error= 2.15D-02 at cycle   1 NSaved=   1.
 NSaved= 1 IEnMin= 1 EnMin= -191.068087320283     IErMin= 1 ErrMin= 2.15D-02
 ErrMax= 2.15D-02  0.00D+00 EMaxC= 1.00D-01 BMatC= 3.48D-01 BMatP= 3.48D-01
 IDIUse=3 WtCom= 7.85D-01 WtEn= 2.15D-01
 Coeff-Com:  0.100D+01
 Coeff-En:   0.100D+01
 Coeff:      0.100D+01
 Gap=     0.089 Goal=   None    Shift=    0.000
 Gap=     0.102 Goal=   None    Shift=    0.000
 GapD=    0.089 DampG=0.500 DampE=0.500 DampFc=0.2500 IDamp=-1.
 Damping current iteration by 2.50D-01
 RMSDP=6.25D-03 MaxDP=2.96D-01              OVMax= 5.41D-01

 Cycle   2  Pass 1  IDiag  1:
 RMSU=  1.55D-03    CP:  9.91D-01
 E= -191.089059708163     Delta-E=       -0.020972387880 Rises=F Damp=T
 DIIS: error= 8.06D-03 at cycle   2 NSaved=   2.
 NSaved= 2 IEnMin= 2 EnMin= -191.089059708163     IErMin= 2 ErrMin= 8.06D-03
 ErrMax= 8.06D-03  0.00D+00 EMaxC= 1.00D-01 BMatC= 6.23D-02 BMatP= 3.48D-01
 IDIUse=3 WtCom= 9.19D-01 WtEn= 8.06D-02
 Coeff-Com: -0.194D+00 0.119D+01
 Coeff-En:   0.294D+00 0.706D+00
 Coeff:     -0.155D+00 0.115D+01
 Gap=     0.128 Goal=   None    Shift=    0.000
 Gap=     0.141 Goal=   None    Shift=    0.000
 RMSDP=3.39D-03 MaxDP=1.58D-01 DE=-2.10D-02 OVMax= 3.99D-01

 Cycle   3  Pass 1  IDiag  1:
 RMSU=  2.79D-03    CP:  1.09D+00  1.22D+00
 E= -191.125345011289     Delta-E=       -0.036285303126 Rises=F Damp=F
 DIIS: error= 3.08D-02 at cycle   3 NSaved=   3.
 NSaved= 3 IEnMin= 3 EnMin= -191.125345011289     IErMin= 2 ErrMin= 8.06D-03
 ErrMax= 3.08D-02  0.00D+00 EMaxC= 1.00D-01 BMatC= 1.02D-01 BMatP= 6.23D-02
 IDIUse=2 WtCom= 0.00D+00 WtEn= 1.00D+00
 Coeff-En:   0.000D+00 0.109D+00 0.891D+00
 Coeff:      0.000D+00 0.109D+00 0.891D+00
 Gap=     0.107 Goal=   None    Shift=    0.000
 Gap=     0.149 Goal=   None    Shift=    0.000
 RMSDP=4.04D-03 MaxDP=1.52D-01 DE=-3.63D-02 OVMax= 4.37D-01

 Cycle   4  Pass 1  IDiag  1:
 RMSU=  3.08D-03    CP:  1.05D+00  2.59D+00  5.27D-01
 E= -190.805860568997     Delta-E=        0.319484442293 Rises=F Damp=F
 DIIS: error= 8.94D-02 at cycle   4 NSaved=   4.
 NSaved= 4 IEnMin= 3 EnMin= -191.125345011289     IErMin= 2 ErrMin= 8.06D-03
 ErrMax= 8.94D-02  0.00D+00 EMaxC= 1.00D-01 BMatC= 9.27D-01 BMatP= 6.23D-02
 IDIUse=2 WtCom= 0.00D+00 WtEn= 1.00D+00
 Coeff-En:   0.000D+00 0.000D+00 0.822D+00 0.178D+00
 Coeff:      0.000D+00 0.000D+00 0.822D+00 0.178D+00
 Gap=     0.085 Goal=   None    Shift=    0.000
 Gap=     0.136 Goal=   None    Shift=    0.000
 RMSDP=1.98D-03 MaxDP=6.50D-02 DE= 3.19D-01 OVMax= 2.81D-01

 Cycle   5  Pass 1  IDiag  1:
 RMSU=  6.67D-04    CP:  1.07D+00  1.95D+00  7.71D-01  5.45D-01
 E= -191.130592135408     Delta-E=       -0.324731566412 Rises=F Damp=F
 DIIS: error= 2.82D-02 at cycle   5 NSaved=   5.
 NSaved= 5 IEnMin= 5 EnMin= -191.130592135408     IErMin= 2 ErrMin= 8.06D-03
 ErrMax= 2.82D-02  0.00D+00 EMaxC= 1.00D-01 BMatC= 1.02D-01 BMatP= 6.23D-02
 IDIUse=2 WtCom= 0.00D+00 WtEn= 1.00D+00
 Coeff-En:   0.000D+00 0.000D+00 0.478D+00 0.000D+00 0.522D+00
 Coeff:      0.000D+00 0.000D+00 0.478D+00 0.000D+00 0.522D+00
 Gap=     0.083 Goal=   None    Shift=    0.000
 Gap=     0.145 Goal=   None    Shift=    0.000
 RMSDP=1.07D-03 MaxDP=4.19D-02 DE=-3.25D-01 OVMax= 1.27D-01

 Cycle   6  Pass 1  IDiag  1:
 RMSU=  3.27D-04    CP:  1.07D+00  1.69D+00  8.85D-01  2.59D-01  8.15D-01
 E= -191.167095395361     Delta-E=       -0.036503259953 Rises=F Damp=F
 DIIS: error= 4.06D-03 at cycle   6 NSaved=   6.
 NSaved= 6 IEnMin= 6 EnMin= -191.167095395361     IErMin= 6 ErrMin= 4.06D-03
 ErrMax= 4.06D-03  0.00D+00 EMaxC= 1.00D-01 BMatC= 4.65D-03 BMatP= 6.23D-02
 IDIUse=3 WtCom= 9.59D-01 WtEn= 4.06D-02
 Coeff-Com:  0.553D-01-0.852D-01 0.108D+00-0.298D-01 0.287D+00 0.664D+00
 Coeff-En:   0.000D+00 0.000D+00 0.000D+00 0.000D+00 0.000D+00 0.100D+01
 Coeff:      0.530D-01-0.818D-01 0.104D+00-0.286D-01 0.276D+00 0.678D+00
 Gap=     0.082 Goal=   None    Shift=    0.000
 Gap=     0.143 Goal=   None    Shift=    0.000
 RMSDP=3.12D-04 MaxDP=1.72D-02 DE=-3.65D-02 OVMax= 2.41D-02

 Cycle   7  Pass 1  IDiag  1:
 RMSU=  1.81D-04    CP:  1.07D+00  1.63D+00  9.10D-01  3.06D-01  7.59D-01
                    CP:  8.56D-01
 E= -191.167917927938     Delta-E=       -0.000822532577 Rises=F Damp=F
 DIIS: error= 2.28D-03 at cycle   7 NSaved=   7.
 NSaved= 7 IEnMin= 7 EnMin= -191.167917927938     IErMin= 7 ErrMin= 2.28D-03
 ErrMax= 2.28D-03  0.00D+00 EMaxC= 1.00D-01 BMatC= 1.48D-03 BMatP= 4.65D-03
 IDIUse=3 WtCom= 9.77D-01 WtEn= 2.28D-02
 Coeff-Com:  0.285D-01-0.408D-01 0.525D-01-0.297D-01 0.172D+00 0.450D+00
 Coeff-Com:  0.367D+00
 Coeff-En:   0.000D+00 0.000D+00 0.000D+00 0.000D+00 0.000D+00 0.269D+00
 Coeff-En:   0.731D+00
 Coeff:      0.278D-01-0.398D-01 0.513D-01-0.290D-01 0.168D+00 0.446D+00
 Coeff:      0.375D+00
 Gap=     0.082 Goal=   None    Shift=    0.000
 Gap=     0.144 Goal=   None    Shift=    0.000
 RMSDP=1.32D-04 MaxDP=6.69D-03 DE=-8.23D-04 OVMax= 1.20D-02

 Cycle   8  Pass 1  IDiag  1:
 RMSU=  7.58D-05    CP:  1.07D+00  1.64D+00  9.03D-01  2.94D-01  8.35D-01
                    CP:  8.41D-01  5.97D-01
 E= -191.168364922827     Delta-E=       -0.000446994889 Rises=F Damp=F
 DIIS: error= 6.44D-04 at cycle   8 NSaved=   8.
 NSaved= 8 IEnMin= 8 EnMin= -191.168364922827     IErMin= 8 ErrMin= 6.44D-04
 ErrMax= 6.44D-04  0.00D+00 EMaxC= 1.00D-01 BMatC= 7.61D-05 BMatP= 1.48D-03
 IDIUse=3 WtCom= 9.94D-01 WtEn= 6.44D-03
 Coeff-Com:  0.145D-02-0.236D-02 0.133D-03-0.202D-03-0.196D-01-0.143D-01
 Coeff-Com:  0.160D+00 0.875D+00
 Coeff-En:   0.000D+00 0.000D+00 0.000D+00 0.000D+00 0.000D+00 0.000D+00
 Coeff-En:   0.000D+00 0.100D+01
 Coeff:      0.144D-02-0.235D-02 0.132D-03-0.201D-03-0.194D-01-0.142D-01
 Coeff:      0.159D+00 0.876D+00
 Gap=     0.082 Goal=   None    Shift=    0.000
 Gap=     0.144 Goal=   None    Shift=    0.000
 RMSDP=5.39D-05 MaxDP=2.37D-03 DE=-4.47D-04 OVMax= 6.21D-03

 Cycle   9  Pass 1  IDiag  1:
 RMSU=  4.53D-05    CP:  1.07D+00  1.63D+00  9.03D-01  2.89D-01  8.27D-01
                    CP:  8.64D-01  6.96D-01  9.48D-01
 E= -191.168420232347     Delta-E=       -0.000055309520 Rises=F Damp=F
 DIIS: error= 3.09D-04 at cycle   9 NSaved=   9.
 NSaved= 9 IEnMin= 9 EnMin= -191.168420232347     IErMin= 9 ErrMin= 3.09D-04
 ErrMax= 3.09D-04  0.00D+00 EMaxC= 1.00D-01 BMatC= 1.25D-05 BMatP= 7.61D-05
 IDIUse=3 WtCom= 9.97D-01 WtEn= 3.09D-03
 Coeff-Com: -0.286D-04-0.540D-03-0.123D-01 0.460D-02-0.289D-01-0.689D-01
 Coeff-Com: -0.296D-01 0.209D+00 0.927D+00
 Coeff-En:   0.000D+00 0.000D+00 0.000D+00 0.000D+00 0.000D+00 0.000D+00
 Coeff-En:   0.000D+00 0.000D+00 0.100D+01
 Coeff:     -0.285D-04-0.539D-03-0.123D-01 0.459D-02-0.288D-01-0.687D-01
 Coeff:     -0.296D-01 0.208D+00 0.927D+00
 Gap=     0.083 Goal=   None    Shift=    0.000
 Gap=     0.145 Goal=   None    Shift=    0.000
 RMSDP=3.76D-05 MaxDP=1.74D-03 DE=-5.53D-05 OVMax= 5.39D-03

 Cycle  10  Pass 1  IDiag  1:
 RMSU=  2.11D-05    CP:  1.07D+00  1.63D+00  9.05D-01  2.91D-01  8.31D-01
                    CP:  8.82D-01  7.47D-01  1.21D+00  1.37D+00
 E= -191.168442761481     Delta-E=       -0.000022529133 Rises=F Damp=F
 DIIS: error= 3.10D-04 at cycle  10 NSaved=  10.
 NSaved=10 IEnMin=10 EnMin= -191.168442761481     IErMin= 9 ErrMin= 3.09D-04
 ErrMax= 3.10D-04  0.00D+00 EMaxC= 1.00D-01 BMatC= 5.66D-06 BMatP= 1.25D-05
 IDIUse=3 WtCom= 9.97D-01 WtEn= 3.09D-03
 Coeff-Com: -0.159D-02 0.272D-02 0.274D-03-0.632D-03 0.911D-02-0.137D-01
 Coeff-Com: -0.445D-01-0.212D+00 0.491D-01 0.121D+01
 Coeff-En:   0.000D+00 0.000D+00 0.000D+00 0.000D+00 0.000D+00 0.000D+00
 Coeff-En:   0.000D+00 0.000D+00 0.000D+00 0.100D+01
 Coeff:     -0.159D-02 0.271D-02 0.273D-03-0.630D-03 0.908D-02-0.137D-01
 Coeff:     -0.444D-01-0.212D+00 0.489D-01 0.121D+01
 Gap=     0.083 Goal=   None    Shift=    0.000
 Gap=     0.145 Goal=   None    Shift=    0.000
 RMSDP=3.71D-05 MaxDP=2.48D-03 DE=-2.25D-05 OVMax= 7.27D-03

 Cycle  11  Pass 1  IDiag  1:
 RMSU=  1.20D-05    CP:  1.07D+00  1.63D+00  9.04D-01  2.92D-01  8.40D-01
                    CP:  8.88D-01  7.78D-01  1.39D+00  1.96D+00  1.70D+00
 E= -191.168460926611     Delta-E=       -0.000018165130 Rises=F Damp=F
 DIIS: error= 1.89D-04 at cycle  11 NSaved=  11.
 NSaved=11 IEnMin=11 EnMin= -191.168460926611     IErMin=11 ErrMin= 1.89D-04
 ErrMax= 1.89D-04  0.00D+00 EMaxC= 1.00D-01 BMatC= 2.40D-06 BMatP= 5.66D-06
 IDIUse=3 WtCom= 9.98D-01 WtEn= 1.89D-03
 Coeff-Com:  0.155D-02-0.235D-02 0.504D-02-0.138D-02 0.735D-02 0.259D-01
 Coeff-Com:  0.265D-01 0.131D-01-0.374D+00-0.358D+00 0.166D+01
 Coeff-En:   0.000D+00 0.000D+00 0.000D+00 0.000D+00 0.000D+00 0.000D+00
 Coeff-En:   0.000D+00 0.000D+00 0.000D+00 0.000D+00 0.100D+01
 Coeff:      0.155D-02-0.235D-02 0.503D-02-0.138D-02 0.734D-02 0.259D-01
 Coeff:      0.264D-01 0.131D-01-0.373D+00-0.357D+00 0.165D+01
 Gap=     0.083 Goal=   None    Shift=    0.000
 Gap=     0.145 Goal=   None    Shift=    0.000
 RMSDP=4.17D-05 MaxDP=2.61D-03 DE=-1.82D-05 OVMax= 7.91D-03

 Cycle  12  Pass 1  IDiag  1:
 RMSU=  7.34D-06    CP:  1.07D+00  1.63D+00  9.05D-01  2.93D-01  8.41D-01
                    CP:  8.94D-01  8.15D-01  1.56D+00  2.51D+00  2.79D+00
                    CP:  2.36D+00
 E= -191.168475856423     Delta-E=       -0.000014929812 Rises=F Damp=F
 DIIS: error= 1.46D-04 at cycle  12 NSaved=  12.
 NSaved=12 IEnMin=12 EnMin= -191.168475856423     IErMin=12 ErrMin= 1.46D-04
 ErrMax= 1.46D-04  0.00D+00 EMaxC= 1.00D-01 BMatC= 1.32D-06 BMatP= 2.40D-06
 IDIUse=3 WtCom= 9.99D-01 WtEn= 1.46D-03
 Coeff-Com:  0.124D-02-0.145D-02 0.184D-02 0.230D-03-0.671D-02 0.105D-01
 Coeff-Com:  0.302D-01 0.178D+00-0.276D-02-0.101D+01-0.213D+00 0.202D+01
 Coeff-En:   0.000D+00 0.000D+00 0.000D+00 0.000D+00 0.000D+00 0.000D+00
 Coeff-En:   0.000D+00 0.000D+00 0.000D+00 0.000D+00 0.000D+00 0.100D+01
 Coeff:      0.124D-02-0.145D-02 0.184D-02 0.230D-03-0.670D-02 0.105D-01
 Coeff:      0.302D-01 0.178D+00-0.275D-02-0.101D+01-0.213D+00 0.201D+01
 Gap=     0.082 Goal=   None    Shift=    0.000
 Gap=     0.145 Goal=   None    Shift=    0.000
 RMSDP=6.08D-05 MaxDP=3.85D-03 DE=-1.49D-05 OVMax= 1.15D-02

 Cycle  13  Pass 1  IDiag  1:
 RMSU=  3.81D-05    CP:  1.07D+00  1.63D+00  9.04D-01  2.93D-01  8.44D-01
                    CP:  8.95D-01  8.60D-01  1.80D+00  3.00D+00  3.00D+00
                    CP:  3.00D+00  2.25D+00
 E= -191.168487618241     Delta-E=       -0.000011761818 Rises=F Damp=F
 DIIS: error= 4.93D-05 at cycle  13 NSaved=  13.
 NSaved=13 IEnMin=13 EnMin= -191.168487618241     IErMin=13 ErrMin= 4.93D-05
 ErrMax= 4.93D-05  0.00D+00 EMaxC= 1.00D-01 BMatC= 2.20D-07 BMatP= 1.32D-06
 IDIUse=1 WtCom= 1.00D+00 WtEn= 0.00D+00
 Coeff-Com:  0.284D-03-0.454D-03-0.142D-02 0.565D-03-0.486D-02-0.336D-02
 Coeff-Com:  0.185D-02 0.524D-01 0.119D+00-0.192D+00-0.623D+00 0.646D+00
 Coeff-Com:  0.100D+01
 Coeff:      0.284D-03-0.454D-03-0.142D-02 0.565D-03-0.486D-02-0.336D-02
 Coeff:      0.185D-02 0.524D-01 0.119D+00-0.192D+00-0.623D+00 0.646D+00
 Coeff:      0.100D+01
 Gap=     0.082 Goal=   None    Shift=    0.000
 Gap=     0.146 Goal=   None    Shift=    0.000
 RMSDP=2.33D-05 MaxDP=1.45D-03 DE=-1.18D-05 OVMax= 4.23D-03

 Cycle  14  Pass 1  IDiag  1:
 RMSU=  6.31D-06    CP:  1.07D+00  1.63D+00  9.05D-01  2.93D-01  8.43D-01
                    CP:  9.00D-01  8.79D-01  1.89D+00  3.00D+00  3.00D+00
                    CP:  3.00D+00  3.00D+00  1.52D+00
 E= -191.168488806302     Delta-E=       -0.000001188061 Rises=F Damp=F
 DIIS: error= 1.17D-05 at cycle  14 NSaved=  14.
 NSaved=14 IEnMin=14 EnMin= -191.168488806302     IErMin=14 ErrMin= 1.17D-05
 ErrMax= 1.17D-05  0.00D+00 EMaxC= 1.00D-01 BMatC= 1.81D-08 BMatP= 2.20D-07
 IDIUse=1 WtCom= 1.00D+00 WtEn= 0.00D+00
 Coeff-Com: -0.680D-04 0.939D-04-0.347D-03-0.813D-04 0.134D-02-0.125D-03
 Coeff-Com: -0.407D-02-0.263D-01-0.589D-02 0.141D+00 0.452D-01-0.262D+00
 Coeff-Com: -0.388D-01 0.115D+01
 Coeff:     -0.680D-04 0.939D-04-0.347D-03-0.813D-04 0.134D-02-0.125D-03
 Coeff:     -0.407D-02-0.263D-01-0.589D-02 0.141D+00 0.452D-01-0.262D+00
 Coeff:     -0.388D-01 0.115D+01
 Gap=     0.082 Goal=   None    Shift=    0.000
 Gap=     0.146 Goal=   None    Shift=    0.000
 RMSDP=2.96D-06 MaxDP=1.67D-04 DE=-1.19D-06 OVMax= 4.42D-04

 Cycle  15  Pass 1  IDiag  1:
 RMSU=  1.48D-06    CP:  1.07D+00  1.63D+00  9.05D-01  2.93D-01  8.44D-01
                    CP:  8.99D-01  8.78D-01  1.90D+00  3.00D+00  3.00D+00
                    CP:  3.00D+00  3.00D+00  1.58D+00  1.08D+00
 E= -191.168488842176     Delta-E=       -0.000000035874 Rises=F Damp=F
 DIIS: error= 5.58D-06 at cycle  15 NSaved=  15.
 NSaved=15 IEnMin=15 EnMin= -191.168488842176     IErMin=15 ErrMin= 5.58D-06
 ErrMax= 5.58D-06  0.00D+00 EMaxC= 1.00D-01 BMatC= 4.99D-09 BMatP= 1.81D-08
 IDIUse=1 WtCom= 1.00D+00 WtEn= 0.00D+00
 Coeff-Com:  0.420D-04-0.563D-04 0.935D-04-0.255D-04 0.384D-03 0.946D-03
 Coeff-Com: -0.384D-03-0.724D-02-0.173D-01 0.282D-01 0.881D-01-0.925D-01
 Coeff-Com: -0.144D+00 0.274D-01 0.112D+01
 Coeff:      0.420D-04-0.563D-04 0.935D-04-0.255D-04 0.384D-03 0.946D-03
 Coeff:     -0.384D-03-0.724D-02-0.173D-01 0.282D-01 0.881D-01-0.925D-01
 Coeff:     -0.144D+00 0.274D-01 0.112D+01
 Gap=     0.082 Goal=   None    Shift=    0.000
 Gap=     0.146 Goal=   None    Shift=    0.000
 RMSDP=7.77D-07 MaxDP=4.46D-05 DE=-3.59D-08 OVMax= 1.16D-04

 Cycle  16  Pass 1  IDiag  1:
 RMSU=  4.35D-07    CP:  1.07D+00  1.63D+00  9.05D-01  2.93D-01  8.44D-01
                    CP:  8.99D-01  8.78D-01  1.90D+00  3.00D+00  3.00D+00
                    CP:  3.00D+00  3.00D+00  1.59D+00  1.09D+00  1.31D+00
 E= -191.168488847734     Delta-E=       -0.000000005558 Rises=F Damp=F
 DIIS: error= 1.76D-06 at cycle  16 NSaved=  16.
 NSaved=16 IEnMin=16 EnMin= -191.168488847734     IErMin=16 ErrMin= 1.76D-06
 ErrMax= 1.76D-06  0.00D+00 EMaxC= 1.00D-01 BMatC= 3.89D-10 BMatP= 4.99D-09
 IDIUse=1 WtCom= 1.00D+00 WtEn= 0.00D+00
 Coeff-Com:  0.291D-05-0.273D-05 0.473D-04 0.454D-05-0.132D-03 0.187D-03
 Coeff-Com:  0.451D-03 0.258D-02 0.381D-03-0.144D-01-0.718D-02 0.304D-01
 Coeff-Com:  0.425D-02-0.135D+00-0.432D-01 0.116D+01
 Coeff:      0.291D-05-0.273D-05 0.473D-04 0.454D-05-0.132D-03 0.187D-03
 Coeff:      0.451D-03 0.258D-02 0.381D-03-0.144D-01-0.718D-02 0.304D-01
 Coeff:      0.425D-02-0.135D+00-0.432D-01 0.116D+01
 Gap=     0.082 Goal=   None    Shift=    0.000
 Gap=     0.146 Goal=   None    Shift=    0.000
 RMSDP=2.70D-07 MaxDP=1.38D-05 DE=-5.56D-09 OVMax= 4.36D-05

 Cycle  17  Pass 1  IDiag  1:
 RMSU=  1.09D-07    CP:  1.07D+00  1.63D+00  9.05D-01  2.93D-01  8.44D-01
                    CP:  8.99D-01  8.78D-01  1.90D+00  3.00D+00  3.00D+00
                    CP:  3.00D+00  3.00D+00  1.59D+00  1.09D+00  1.42D+00
                    CP:  1.26D+00
 E= -191.168488848430     Delta-E=       -0.000000000696 Rises=F Damp=F
 DIIS: error= 6.63D-07 at cycle  17 NSaved=  17.
 NSaved=17 IEnMin=17 EnMin= -191.168488848430     IErMin=17 ErrMin= 6.63D-07
 ErrMax= 6.63D-07  0.00D+00 EMaxC= 1.00D-01 BMatC= 5.05D-11 BMatP= 3.89D-10
 IDIUse=1 WtCom= 1.00D+00 WtEn= 0.00D+00
 Coeff-Com: -0.133D-05 0.116D-05-0.123D-04 0.228D-05-0.272D-04-0.904D-04
 Coeff-Com: -0.425D-04 0.355D-03 0.145D-02-0.790D-03-0.674D-02 0.492D-02
 Coeff-Com:  0.115D-01 0.114D-01-0.907D-01-0.134D+00 0.120D+01
 Coeff:     -0.133D-05 0.116D-05-0.123D-04 0.228D-05-0.272D-04-0.904D-04
 Coeff:     -0.425D-04 0.355D-03 0.145D-02-0.790D-03-0.674D-02 0.492D-02
 Coeff:      0.115D-01 0.114D-01-0.907D-01-0.134D+00 0.120D+01
 Gap=     0.082 Goal=   None    Shift=    0.000
 Gap=     0.146 Goal=   None    Shift=    0.000
 RMSDP=7.34D-08 MaxDP=2.41D-06 DE=-6.96D-10 OVMax= 1.36D-05

 Cycle  18  Pass 1  IDiag  1:
 RMSU=  3.23D-08    CP:  1.07D+00  1.63D+00  9.05D-01  2.93D-01  8.44D-01
                    CP:  8.99D-01  8.78D-01  1.90D+00  3.00D+00  3.00D+00
                    CP:  3.00D+00  3.00D+00  1.59D+00  1.09D+00  1.43D+00
                    CP:  1.33D+00  1.46D+00
 E= -191.168488848539     Delta-E=       -0.000000000109 Rises=F Damp=F
 DIIS: error= 3.11D-07 at cycle  18 NSaved=  18.
 NSaved=18 IEnMin=18 EnMin= -191.168488848539     IErMin=18 ErrMin= 3.11D-07
 ErrMax= 3.11D-07  0.00D+00 EMaxC= 1.00D-01 BMatC= 1.13D-11 BMatP= 5.05D-11
 IDIUse=1 WtCom= 1.00D+00 WtEn= 0.00D+00
 Coeff-Com: -0.302D-05 0.434D-05-0.851D-05 0.466D-06 0.129D-04-0.628D-04
 Coeff-Com: -0.913D-04-0.430D-03 0.192D-03 0.222D-02 0.105D-02-0.511D-02
 Coeff-Com: -0.406D-04 0.261D-01 0.102D-01-0.252D+00-0.225D-01 0.124D+01
 Coeff:     -0.302D-05 0.434D-05-0.851D-05 0.466D-06 0.129D-04-0.628D-04
 Coeff:     -0.913D-04-0.430D-03 0.192D-03 0.222D-02 0.105D-02-0.511D-02
 Coeff:     -0.406D-04 0.261D-01 0.102D-01-0.252D+00-0.225D-01 0.124D+01
 Gap=     0.082 Goal=   None    Shift=    0.000
 Gap=     0.146 Goal=   None    Shift=    0.000
 RMSDP=4.29D-08 MaxDP=1.51D-06 DE=-1.09D-10 OVMax= 8.70D-06

 Cycle  19  Pass 1  IDiag  1:
 RMSU=  1.84D-08    CP:  1.07D+00  1.63D+00  9.05D-01  2.93D-01  8.44D-01
                    CP:  8.99D-01  8.78D-01  1.90D+00  3.00D+00  3.00D+00
                    CP:  3.00D+00  3.00D+00  1.59D+00  1.09D+00  1.44D+00
                    CP:  1.37D+00  1.68D+00  1.62D+00
 E= -191.168488848562     Delta-E=       -0.000000000023 Rises=F Damp=F
 DIIS: error= 1.41D-07 at cycle  19 NSaved=  19.
 NSaved=19 IEnMin=19 EnMin= -191.168488848562     IErMin=19 ErrMin= 1.41D-07
 ErrMax= 1.41D-07  0.00D+00 EMaxC= 1.00D-01 BMatC= 2.59D-12 BMatP= 1.13D-11
 IDIUse=1 WtCom= 1.00D+00 WtEn= 0.00D+00
 Coeff-Com: -0.131D-05 0.176D-05 0.370D-05-0.961D-06 0.654D-05 0.275D-04
 Coeff-Com:  0.309D-04-0.175D-04-0.332D-03-0.247D-03 0.118D-02-0.193D-03
 Coeff-Com: -0.216D-02-0.667D-02 0.177D-01 0.723D-01-0.238D+00-0.214D+00
 Coeff-Com:  0.137D+01
 Coeff:     -0.131D-05 0.176D-05 0.370D-05-0.961D-06 0.654D-05 0.275D-04
 Coeff:      0.309D-04-0.175D-04-0.332D-03-0.247D-03 0.118D-02-0.193D-03
 Coeff:     -0.216D-02-0.667D-02 0.177D-01 0.723D-01-0.238D+00-0.214D+00
 Coeff:      0.137D+01
 Gap=     0.082 Goal=   None    Shift=    0.000
 Gap=     0.146 Goal=   None    Shift=    0.000
 RMSDP=2.53D-08 MaxDP=1.35D-06 DE=-2.30D-11 OVMax= 3.67D-06

 Cycle  20  Pass 1  IDiag  1:
 RMSU=  7.75D-09    CP:  1.07D+00  1.63D+00  9.05D-01  2.93D-01  8.44D-01
                    CP:  8.99D-01  8.78D-01  1.90D+00  3.00D+00  3.00D+00
                    CP:  3.00D+00  3.00D+00  1.59D+00  1.09D+00  1.44D+00
                    CP:  1.37D+00  1.74D+00  2.01D+00  1.65D+00
 E= -191.168488848568     Delta-E=       -0.000000000006 Rises=F Damp=F
 DIIS: error= 3.51D-08 at cycle  20 NSaved=  20.
 NSaved=20 IEnMin=20 EnMin= -191.168488848568     IErMin=20 ErrMin= 3.51D-08
 ErrMax= 3.51D-08  0.00D+00 EMaxC= 1.00D-01 BMatC= 2.03D-13 BMatP= 2.59D-12
 IDIUse=1 WtCom= 1.00D+00 WtEn= 0.00D+00
 Coeff-Com:  0.152D-05-0.209D-05 0.171D-06 0.117D-06-0.212D-05 0.377D-05
 Coeff-Com:  0.452D-05 0.454D-04-0.431D-06-0.120D-03-0.316D-03 0.508D-03
 Coeff-Com:  0.476D-03-0.119D-02-0.472D-02 0.749D-02 0.547D-01-0.599D-01
 Coeff-Com: -0.343D+00 0.135D+01
 Coeff:      0.152D-05-0.209D-05 0.171D-06 0.117D-06-0.212D-05 0.377D-05
 Coeff:      0.452D-05 0.454D-04-0.431D-06-0.120D-03-0.316D-03 0.508D-03
 Coeff:      0.476D-03-0.119D-02-0.472D-02 0.749D-02 0.547D-01-0.599D-01
 Coeff:     -0.343D+00 0.135D+01
 Gap=     0.082 Goal=   None    Shift=    0.000
 Gap=     0.146 Goal=   None    Shift=    0.000
 RMSDP=7.85D-09 MaxDP=2.48D-07 DE=-6.20D-12 OVMax= 1.43D-06

 SCF Done:  E(UB3LYP) =  -191.168488849     A.U. after   20 cycles
            NFock= 20  Conv=0.79D-08     -V/T= 2.0045
 <Sx>= 0.0000 <Sy>= 0.0000 <Sz>= 0.5000 <S**2>= 0.7860 S= 0.5178
 <L.S>= 0.000000000000E+00
 KE= 1.903050121935D+02 PE=-6.618581795754D+02 EE= 1.601172276754D+02
 Annihilation of the first spin contaminant:
 S**2 before annihilation     0.7860,   after     0.7508
 Leave Link  502 at Mon Jun 20 10:16:46 2016, MaxMem=    33554432 cpu:       794.2
 (Enter /home/proyectos/fulerenos/M3C-v1.9/M3C-deps_CCC/g09-AM64L-G09RevC.01/l801.exe)
 DoSCS=F DFT=T ScalE2(SS,OS)=  1.000000  1.000000
 Range of M.O.s used for correlation:     1   233
 NBasis=   235 NAE=    16 NBE=    15 NFC=     0 NFV=     0
 NROrb=    233 NOA=    16 NOB=    15 NVA=   217 NVB=   218

 **** Warning!!: The largest alpha MO coefficient is  0.21823237D+03


 **** Warning!!: The smallest alpha delta epsilon is  0.82482644D-01


 **** Warning!!: The largest beta MO coefficient is  0.25168663D+03

 Leave Link  801 at Mon Jun 20 10:16:46 2016, MaxMem=    33554432 cpu:         0.1
 (Enter /home/proyectos/fulerenos/M3C-v1.9/M3C-deps_CCC/g09-AM64L-G09RevC.01/l1101.exe)
 Using compressed storage, NAtomX=     9.
 Will process     10 centers per pass.
 Leave Link 1101 at Mon Jun 20 10:16:46 2016, MaxMem=    33554432 cpu:         1.2
 (Enter /home/proyectos/fulerenos/M3C-v1.9/M3C-deps_CCC/g09-AM64L-G09RevC.01/l1102.exe)
 Symmetrizing basis deriv contribution to polar:
 IMax=3 JMax=2 DiffMx= 0.00D+00
 Leave Link 1102 at Mon Jun 20 10:16:46 2016, MaxMem=    33554432 cpu:         0.1
 (Enter /home/proyectos/fulerenos/M3C-v1.9/M3C-deps_CCC/g09-AM64L-G09RevC.01/l1110.exe)
 Forming Gx(P) for the SCF density, NAtomX=     9.
 Integral derivatives from FoFJK, PRISM(SPDF).
 Do as many integral derivatives as possible in FoFJK.
 G2DrvN: MDV=      33554256.
 G2DrvN: will do    10 centers at a time, making    1 passes.
 Calling FoFCou, ICntrl=  3107 FMM=F I1Cent=   0 AccDes= 0.00D+00.
 FoFJK:  IHMeth= 1 ICntrl=    3107 DoSepK=F KAlg= 0 I1Cent=   0 FoldK=F
 IRaf=         0 NMat=   1 IRICut=       1 DoRegI=T DoRafI=F ISym2E= 0.
 FoFCou: FMM=F IPFlag=           0 FMFlag=      100000 FMFlg1=           0
         NFxFlg=           0 DoJE=F BraDBF=F KetDBF=F FulRan=T
         wScrn=  0.000000 ICntrl=    3107 IOpCl=  1 I1Cent=           0 NGrid=           0
         NMat0=    1 NMatS0=      1 NMatT0=    0 NMatD0=    1 NMtDS0=    0 NMtDT0=    0
 Symmetry not used in FoFCou.
 End of G2Drv F.D. properties file   721 does not exist.
 End of G2Drv F.D. properties file   722 does not exist.
 End of G2Drv F.D. properties file   788 does not exist.
 Leave Link 1110 at Mon Jun 20 10:18:35 2016, MaxMem=    33554432 cpu:       426.0
 (Enter /home/proyectos/fulerenos/M3C-v1.9/M3C-deps_CCC/g09-AM64L-G09RevC.01/l1002.exe)
 Minotr:  UHF open shell wavefunction.
          IDoAtm=111111111
          Direct CPHF calculation.
          Differentiating once with respect to electric field.
                with respect to dipole field.
          Differentiating once with respect to nuclear coordinates.
          Requested convergence is 1.0D-08 RMS, and 1.0D-07 maximum.
          Secondary convergence is 1.0D-12 RMS, and 1.0D-12 maximum.
          NewPWx=T KeepS1=F KeepF1=F KeepIn=T MapXYZ=F SortEE=F KeepMc=T.
          MDV=      33553872 using IRadAn=       2.
 Generate precomputed XC quadrature information.
          Solving linear equations simultaneously, MaxMat=       0.
 FoFJK:  IHMeth= 1 ICntrl=       0 DoSepK=F KAlg= 0 I1Cent=   0 FoldK=F
 IRaf= 930000000 NMat=  30 IRICut=      75 DoRegI=T DoRafI=T ISym2E= 2.
 FoFCou: FMM=F IPFlag=           0 FMFlag=      100000 FMFlg1=           0
         NFxFlg=           0 DoJE=F BraDBF=F KetDBF=F FulRan=T
         wScrn=  0.000000 ICntrl=       0 IOpCl=  1 I1Cent=           0 NGrid=           0
         NMat0=   30 NMatS0=     30 NMatT0=    0 NMatD0=   30 NMtDS0=    0 NMtDT0=    0
 Integrals replicated using symmetry in FoFCou.
          There are    30 degrees of freedom in the 1st order CPHF.  IDoFFX=6 NUNeed=     3.
     28 vectors produced by pass  0 Test12= 2.25D-14 3.33D-09 XBig12= 1.15D+03 2.05D+01.
 AX will form    28 AO Fock derivatives at one time.
     27 vectors produced by pass  1 Test12= 2.25D-14 3.33D-09 XBig12= 2.88D+02 4.60D+00.
     27 vectors produced by pass  2 Test12= 2.25D-14 3.33D-09 XBig12= 1.23D+01 1.06D+00.
     27 vectors produced by pass  3 Test12= 2.25D-14 3.33D-09 XBig12= 2.33D-01 1.16D-01.
     27 vectors produced by pass  4 Test12= 2.25D-14 3.33D-09 XBig12= 3.37D-03 1.54D-02.
     27 vectors produced by pass  5 Test12= 2.25D-14 3.33D-09 XBig12= 1.56D-05 7.95D-04.
     25 vectors produced by pass  6 Test12= 2.25D-14 3.33D-09 XBig12= 3.89D-08 3.16D-05.
      7 vectors produced by pass  7 Test12= 2.25D-14 3.33D-09 XBig12= 1.69D-10 2.16D-06.
      5 vectors produced by pass  8 Test12= 2.25D-14 3.33D-09 XBig12= 1.04D-12 1.54D-07.
      3 vectors produced by pass  9 Test12= 2.25D-14 3.33D-09 XBig12= 2.23D-13 1.16D-07.
      3 vectors produced by pass 10 Test12= 2.25D-14 3.33D-09 XBig12= 5.88D-15 1.42D-08.
      3 vectors produced by pass 11 Test12= 2.25D-14 3.33D-09 XBig12= 5.34D-16 5.13D-09.
      3 vectors produced by pass 12 Test12= 2.25D-14 3.33D-09 XBig12= 9.16D-16 7.03D-09.
      2 vectors produced by pass 13 Test12= 2.25D-14 3.33D-09 XBig12= 9.53D-16 4.60D-09.
 InvSVY:  IOpt=1 It=  1 EMax= 7.11D-15
 Solved reduced A of dimension   214 with    30 vectors.
 FullF1:  Do perturbations    1 to     3.
 Isotropic polarizability for W=    0.000000       63.78 Bohr**3.
 End of Minotr F.D. properties file   721 does not exist.
 End of Minotr F.D. properties file   722 does not exist.
 End of Minotr F.D. properties file   788 does not exist.
 Leave Link 1002 at Mon Jun 20 10:25:45 2016, MaxMem=    33554432 cpu:      1704.2
 (Enter /home/proyectos/fulerenos/M3C-v1.9/M3C-deps_CCC/g09-AM64L-G09RevC.01/l601.exe)
 Copying SCF densities to generalized density rwf, IOpCl= 1 IROHF=0.

 **********************************************************************

            Population analysis using the SCF density.

 **********************************************************************

 Orbital symmetries:
 Alpha Orbitals:
       Occupied  (A) (A) (A) (A) (A) (A) (A) (A) (A) (A) (A) (A)
                 (A) (A) (A) (A)
       Virtual   (A) (A) (A) (A) (A) (A) (A) (A) (A) (A) (A) (A)
                 (A) (A) (A) (A) (A) (A) (A) (A) (A) (A) (A) (A)
                 (A) (A) (A) (A) (A) (A) (A) (A) (A) (A) (A) (A)
                 (A) (A) (A) (A) (A) (A) (A) (A) (A) (A) (A) (A)
                 (A) (A) (A) (A) (A) (A) (A) (A) (A) (A) (A) (A)
                 (A) (A) (A) (A) (A) (A) (A) (A) (A) (A) (A) (A)
                 (A) (A) (A) (A) (A) (A) (A) (A) (A) (A) (A) (A)
                 (A) (A) (A) (A) (A) (A) (A) (A) (A) (A) (A) (A)
                 (A) (A) (A) (A) (A) (A) (A) (A) (A) (A) (A) (A)
                 (A) (A) (A) (A) (A) (A) (A) (A) (A) (A) (A) (A)
                 (A) (A) (A) (A) (A) (A) (A) (A) (A) (A) (A) (A)
                 (A) (A) (A) (A) (A) (A) (A) (A) (A) (A) (A) (A)
                 (A) (A) (A) (A) (A) (A) (A) (A) (A) (A) (A) (A)
                 (A) (A) (A) (A) (A) (A) (A) (A) (A) (A) (A) (A)
                 (A) (A) (A) (A) (A) (A) (A) (A) (A) (A) (A) (A)
                 (A) (A) (A) (A) (A) (A) (A) (A) (A) (A) (A) (A)
                 (A) (A) (A) (A) (A) (A) (A) (A) (A) (A) (A) (A)
                 (A) (A) (A) (A) (A) (A) (A) (A) (A) (A) (A) (A)
                 (A)
 Beta  Orbitals:
       Occupied  (A) (A) (A) (A) (A) (A) (A) (A) (A) (A) (A) (A)
                 (A) (A) (A)
       Virtual   (A) (A) (A) (A) (A) (A) (A) (A) (A) (A) (A) (A)
                 (A) (A) (A) (A) (A) (A) (A) (A) (A) (A) (A) (A)
                 (A) (A) (A) (A) (A) (A) (A) (A) (A) (A) (A) (A)
                 (A) (A) (A) (A) (A) (A) (A) (A) (A) (A) (A) (A)
                 (A) (A) (A) (A) (A) (A) (A) (A) (A) (A) (A) (A)
                 (A) (A) (A) (A) (A) (A) (A) (A) (A) (A) (A) (A)
                 (A) (A) (A) (A) (A) (A) (A) (A) (A) (A) (A) (A)
                 (A) (A) (A) (A) (A) (A) (A) (A) (A) (A) (A) (A)
                 (A) (A) (A) (A) (A) (A) (A) (A) (A) (A) (A) (A)
                 (A) (A) (A) (A) (A) (A) (A) (A) (A) (A) (A) (A)
                 (A) (A) (A) (A) (A) (A) (A) (A) (A) (A) (A) (A)
                 (A) (A) (A) (A) (A) (A) (A) (A) (A) (A) (A) (A)
                 (A) (A) (A) (A) (A) (A) (A) (A) (A) (A) (A) (A)
                 (A) (A) (A) (A) (A) (A) (A) (A) (A) (A) (A) (A)
                 (A) (A) (A) (A) (A) (A) (A) (A) (A) (A) (A) (A)
                 (A) (A) (A) (A) (A) (A) (A) (A) (A) (A) (A) (A)
                 (A) (A) (A) (A) (A) (A) (A) (A) (A) (A) (A) (A)
                 (A) (A) (A) (A) (A) (A) (A) (A) (A) (A) (A) (A)
                 (A) (A)
 The electronic state is 2-A.
 Alpha  occ. eigenvalues --  -11.00963 -11.00380 -10.97293 -10.94081 -10.87198
 Alpha  occ. eigenvalues --   -1.54401  -1.49898  -1.42964  -1.34927  -1.19653
 Alpha  occ. eigenvalues --   -1.17474  -1.11837  -1.07874  -1.05710  -1.01901
 Alpha  occ. eigenvalues --   -0.96299
 Alpha virt. eigenvalues --   -0.88051  -0.76508  -0.73888  -0.56599  -0.55784
 Alpha virt. eigenvalues --   -0.52099  -0.50009  -0.46839  -0.45062  -0.44767
 Alpha virt. eigenvalues --   -0.41004  -0.39924  -0.39270  -0.38415  -0.36609
 Alpha virt. eigenvalues --   -0.35454  -0.34967  -0.34704  -0.32071  -0.31836
 Alpha virt. eigenvalues --   -0.30186  -0.29599  -0.26642  -0.26046  -0.24999
 Alpha virt. eigenvalues --   -0.23557  -0.22354  -0.20856  -0.20669  -0.20170
 Alpha virt. eigenvalues --   -0.19064  -0.18417  -0.18141  -0.17639  -0.15851
 Alpha virt. eigenvalues --   -0.14300  -0.12954  -0.12063  -0.11161  -0.09059
 Alpha virt. eigenvalues --   -0.09043  -0.07539  -0.07087  -0.06932  -0.04614
 Alpha virt. eigenvalues --   -0.04591  -0.03517  -0.03170  -0.02913  -0.00777
 Alpha virt. eigenvalues --    0.00287   0.00892   0.04455   0.07625   0.08653
 Alpha virt. eigenvalues --    0.08712   0.09355   0.09588   0.11258   0.11306
 Alpha virt. eigenvalues --    0.12582   0.13587   0.17744   0.18468   0.18748
 Alpha virt. eigenvalues --    0.21763   0.23104   0.24805   0.30044   0.31010
 Alpha virt. eigenvalues --    0.34029   0.42230   0.42559   0.44062   0.49137
 Alpha virt. eigenvalues --    0.50682   0.53204   0.54430   0.56784   0.56841
 Alpha virt. eigenvalues --    0.57197   0.62519   0.63909   0.64784   0.66707
 Alpha virt. eigenvalues --    0.67066   0.68375   0.72494   0.72567   0.73470
 Alpha virt. eigenvalues --    0.77079   0.78313   0.80728   0.82454   0.82516
 Alpha virt. eigenvalues --    0.85771   0.92202   0.93883   0.95468   0.98219
 Alpha virt. eigenvalues --    0.99070   1.02453   1.03092   1.13436   1.15745
 Alpha virt. eigenvalues --    1.15968   1.18505   1.18600   1.23361   1.26242
 Alpha virt. eigenvalues --    1.37679   1.42145   1.42771   1.52886   1.55569
 Alpha virt. eigenvalues --    1.76377   1.81627   1.82686   1.86945   1.86969
 Alpha virt. eigenvalues --    1.94277   1.95157   1.97492   1.97695   1.99098
 Alpha virt. eigenvalues --    2.00020   2.02854   2.02917   2.03015   2.09311
 Alpha virt. eigenvalues --    2.15065   2.15168   2.17849   2.18161   2.21176
 Alpha virt. eigenvalues --    2.22771   2.26644   2.26855   2.29478   2.32470
 Alpha virt. eigenvalues --    2.37952   2.38602   2.39935   2.41889   2.43575
 Alpha virt. eigenvalues --    2.44056   2.47397   2.49791   2.52470   2.59898
 Alpha virt. eigenvalues --    2.60456   2.62903   2.70917   2.72620   2.81257
 Alpha virt. eigenvalues --    2.91997   2.97085   2.99412   3.07604   3.09942
 Alpha virt. eigenvalues --    3.12350   3.33682   3.34503   3.48506   3.48654
 Alpha virt. eigenvalues --    3.53958   3.58589   3.58825   3.61020   3.63302
 Alpha virt. eigenvalues --    3.66236   3.84498   3.86110   3.88641   4.04907
 Alpha virt. eigenvalues --    4.12943   4.18540   4.51334   4.63827   4.65457
 Alpha virt. eigenvalues --    4.78563   4.81950   4.83616   5.30183   5.83037
 Alpha virt. eigenvalues --    5.83657   6.15243   6.15486   6.20410   6.21996
 Alpha virt. eigenvalues --    6.22165   6.31145   6.31198   6.39374   6.39416
 Alpha virt. eigenvalues --    6.48331   6.55649   6.56719   6.57414   6.62631
 Alpha virt. eigenvalues --    6.65495   6.71705   6.76386   6.76920   6.98421
 Alpha virt. eigenvalues --    6.98941   6.99765   7.39418   7.41124   7.50714
 Alpha virt. eigenvalues --    7.93216   7.97748  23.07838  24.82069  25.07075
 Alpha virt. eigenvalues --   25.43650  25.69730
  Beta  occ. eigenvalues --  -10.99959 -10.99778 -10.97224 -10.94021 -10.87269
  Beta  occ. eigenvalues --   -1.53232  -1.48246  -1.41837  -1.34147  -1.18702
  Beta  occ. eigenvalues --   -1.17176  -1.09908  -1.07747  -1.02854  -1.01710
  Beta virt. eigenvalues --   -0.87149  -0.86376  -0.72909  -0.71829  -0.55398
  Beta virt. eigenvalues --   -0.53845  -0.51109  -0.49484  -0.46351  -0.45137
  Beta virt. eigenvalues --   -0.44220  -0.40713  -0.39632  -0.39234  -0.38026
  Beta virt. eigenvalues --   -0.36398  -0.35195  -0.34889  -0.34317  -0.31774
  Beta virt. eigenvalues --   -0.30987  -0.29878  -0.29446  -0.26394  -0.25941
  Beta virt. eigenvalues --   -0.24917  -0.23427  -0.22076  -0.20402  -0.19983
  Beta virt. eigenvalues --   -0.19868  -0.18892  -0.18323  -0.17912  -0.17659
  Beta virt. eigenvalues --   -0.15684  -0.14168  -0.12817  -0.12004  -0.11020
  Beta virt. eigenvalues --   -0.08945  -0.08723  -0.07106  -0.06825  -0.06140
  Beta virt. eigenvalues --   -0.04416  -0.04225  -0.03220  -0.02789  -0.02596
  Beta virt. eigenvalues --   -0.00437   0.00354   0.01437   0.04495   0.07950
  Beta virt. eigenvalues --    0.08893   0.09437   0.09699   0.10160   0.11353
  Beta virt. eigenvalues --    0.11576   0.12776   0.13851   0.18055   0.18620
  Beta virt. eigenvalues --    0.19204   0.22059   0.23196   0.25065   0.30576
  Beta virt. eigenvalues --    0.31014   0.34574   0.42645   0.42702   0.44353
  Beta virt. eigenvalues --    0.49518   0.51011   0.54084   0.55035   0.56785
  Beta virt. eigenvalues --    0.57036   0.57825   0.62657   0.63966   0.65251
  Beta virt. eigenvalues --    0.67051   0.67584   0.68561   0.73445   0.73627
  Beta virt. eigenvalues --    0.73852   0.77428   0.78340   0.81402   0.84822
  Beta virt. eigenvalues --    0.84960   0.86106   0.92440   0.94470   0.95727
  Beta virt. eigenvalues --    1.00107   1.00942   1.02602   1.03805   1.13750
  Beta virt. eigenvalues --    1.16079   1.16848   1.19435   1.19897   1.23837
  Beta virt. eigenvalues --    1.27329   1.38355   1.42610   1.43007   1.52993
  Beta virt. eigenvalues --    1.56885   1.77304   1.82728   1.83831   1.88023
  Beta virt. eigenvalues --    1.88046   1.94920   1.95352   1.97967   1.99645
  Beta virt. eigenvalues --    2.01004   2.02039   2.03725   2.04215   2.05482
  Beta virt. eigenvalues --    2.10439   2.15933   2.16539   2.18570   2.19555
  Beta virt. eigenvalues --    2.22610   2.24169   2.27166   2.28075   2.30054
  Beta virt. eigenvalues --    2.33851   2.38580   2.39587   2.40303   2.42949
  Beta virt. eigenvalues --    2.44744   2.45776   2.47932   2.50394   2.52950
  Beta virt. eigenvalues --    2.60092   2.60969   2.63803   2.71583   2.73276
  Beta virt. eigenvalues --    2.81869   2.92732   2.97521   3.00031   3.08783
  Beta virt. eigenvalues --    3.10194   3.13520   3.34339   3.34437   3.49014
  Beta virt. eigenvalues --    3.49078   3.54576   3.58797   3.59156   3.61396
  Beta virt. eigenvalues --    3.63860   3.66711   3.84681   3.86587   3.89330
  Beta virt. eigenvalues --    4.05020   4.13767   4.19084   4.51660   4.64425
  Beta virt. eigenvalues --    4.65484   4.80052   4.82060   4.84526   5.30543
  Beta virt. eigenvalues --    5.83157   5.85008   6.17566   6.17857   6.21018
  Beta virt. eigenvalues --    6.25606   6.25721   6.33316   6.33388   6.40263
  Beta virt. eigenvalues --    6.40296   6.48156   6.57321   6.57591   6.59385
  Beta virt. eigenvalues --    6.64163   6.65303   6.72134   6.77193   6.77457
  Beta virt. eigenvalues --    6.99357   6.99801   7.00094   7.39657   7.40791
  Beta virt. eigenvalues --    7.51419   7.93665   7.98126  23.08278  24.82373
  Beta virt. eigenvalues --   25.07582  25.44315  25.69895
          Condensed to atoms (all electrons):
               1          2          3          4          5          6
     1  C    7.513159  -0.104621   0.258035  -0.326713  -1.533255  -0.382995
     2  C   -0.104621   7.425186   0.007589   0.315629  -0.408908  -0.876783
     3  H    0.258035   0.007589   0.217493   0.003620   0.018025  -0.000350
     4  C   -0.326713   0.315629   0.003620   7.218672  -0.063842  -1.706392
     5  C   -1.533255  -0.408908   0.018025  -0.063842   7.470848  -0.157867
     6  C   -0.382995  -0.876783  -0.000350  -1.706392  -0.157867   8.236910
     7  H    0.001468  -0.000003  -0.000005  -0.080855   0.002946   0.413207
     8  H   -0.000205   0.007880  -0.000001  -0.020184   0.002688   0.301905
     9  H   -0.000245   0.007795  -0.000002  -0.021015   0.002618   0.302926
               7          8          9
     1  C    0.001468  -0.000205  -0.000245
     2  C   -0.000003   0.007880   0.007795
     3  H   -0.000005  -0.000001  -0.000002
     4  C   -0.080855  -0.020184  -0.021015
     5  C    0.002946   0.002688   0.002618
     6  C    0.413207   0.301905   0.302926
     7  H    0.317777  -0.000826  -0.000826
     8  H   -0.000826   0.325886   0.013739
     9  H   -0.000826   0.013739   0.325708
          Atomic-Atomic Spin Densities.
               1          2          3          4          5          6
     1  C    0.380294  -0.019660  -0.002518  -0.001417   0.049772  -0.002305
     2  C   -0.019660   0.268682  -0.000497   0.028463   0.022228  -0.028860
     3  H   -0.002518  -0.000497  -0.011750  -0.000267  -0.001477  -0.000014
     4  C   -0.001417   0.028463  -0.000267   0.174718  -0.066159  -0.020569
     5  C    0.049772   0.022228  -0.001477  -0.066159   0.257225  -0.014729
     6  C   -0.002305  -0.028860  -0.000014  -0.020569  -0.014729   0.011009
     7  H   -0.000163  -0.003705  -0.000001  -0.014100  -0.000281   0.031586
     8  H   -0.000014  -0.000952   0.000001   0.000557  -0.000056  -0.004720
     9  H   -0.000014  -0.000945   0.000001   0.000573  -0.000054  -0.004765
               7          8          9
     1  C   -0.000163  -0.000014  -0.000014
     2  C   -0.003705  -0.000952  -0.000945
     3  H   -0.000001   0.000001   0.000001
     4  C   -0.014100   0.000557   0.000573
     5  C   -0.000281  -0.000056  -0.000054
     6  C    0.031586  -0.004720  -0.004765
     7  H    0.033183  -0.001092  -0.001086
     8  H   -0.001092  -0.003485   0.004086
     9  H   -0.001086   0.004086  -0.003571
 Mulliken charges and spin densities:
               1          2
     1  C    0.575371   0.403976
     2  C   -0.373765   0.264754
     3  H    0.495595  -0.016522
     4  C    0.681080   0.101799
     5  C    0.666745   0.246470
     6  C   -0.130562  -0.033366
     7  H    0.347117   0.044341
     8  H    0.369118  -0.005676
     9  H    0.369299  -0.005775
 Sum of Mulliken charges =   3.00000   1.00000
 Mulliken charges and spin densities with hydrogens summed into heavy atoms:
               1          2
     1  C    1.070967   0.387454
     2  C   -0.373765   0.264754
     4  C    0.681080   0.101799
     5  C    0.666745   0.246470
     6  C    0.954973  -0.000477
 APT charges:
               1
     1  C    0.955104
     2  C    0.272931
     3  H    0.542035
     4  C    0.890881
     5  C   -0.377746
     6  C   -0.906090
     7  H    0.419766
     8  H    0.600775
     9  H    0.602343
 Sum of APT charges =   3.00000
 APT charges with hydrogens summed into heavy atoms:
               1
     1  C    1.497139
     2  C    0.272931
     4  C    0.890881
     5  C   -0.377746
     6  C    0.716794
 Electronic spatial extent (au):  <R**2>=            501.5440
 Charge=              3.0000 electrons
 Dipole moment (field-independent basis, Debye):
    X=             -0.0854    Y=             -0.8030    Z=              0.0017  Tot=              0.8075
 Quadrupole moment (field-independent basis, Debye-Ang):
   XX=             74.1425   YY=            -19.7922   ZZ=            -20.5926
   XY=              2.6236   XZ=             -0.0076   YZ=              0.0007
 Traceless Quadrupole moment (field-independent basis, Debye-Ang):
   XX=             62.8899   YY=            -31.0447   ZZ=            -31.8452
   XY=              2.6236   XZ=             -0.0076   YZ=              0.0007
 Octapole moment (field-independent basis, Debye-Ang**2):
  XXX=             38.6746  YYY=              0.6921  ZZZ=              0.0089  XYY=            -11.5248
  XXY=             -8.2750  XXZ=              0.0437  XZZ=             -5.7922  YZZ=             -2.0944
  YYZ=             -0.0085  XYZ=              0.0027
 Hexadecapole moment (field-independent basis, Debye-Ang**3):
 XXXX=            432.9107 YYYY=            -22.2388 ZZZZ=            -21.2029 XXXY=             27.2123
 XXXZ=             -0.1487 YYYX=             -1.9215 YYYZ=              0.0055 ZZZX=             -0.0301
 ZZZY=             -0.0019 XXYY=            -63.4428 XXZZ=            -73.8100 YYZZ=             -6.7029
 XXYZ=             -0.0131 YYXZ=              0.0237 ZZXY=              6.5276
 N-N= 1.202674508580D+02 E-N=-6.618581799232D+02  KE= 1.903050121935D+02
  Exact polarizability: 139.994   2.036  26.261  -0.003   0.002  25.098
 Approx polarizability: 371.507   7.910  37.655   0.001   0.005  36.836
                          Isotropic Fermi Contact Couplings
        Atom                 a.u.       MegaHertz       Gauss      10(-4) cm-1
     1  C(13)              0.03944      44.33406      15.81950      14.78825
     2  C(13)             -0.01705     -19.16756      -6.83946      -6.39361
     3  H(1)              -0.01111     -49.65567     -17.71838     -16.56335
     4  C(13)              0.01702      19.13147       6.82658       6.38157
     5  C(13)             -0.02545     -28.60739     -10.20783      -9.54240
     6  C(13)             -0.01345     -15.11992      -5.39516      -5.04346
     7  H(1)               0.02566     114.69583      40.92632      38.25841
     8  H(1)              -0.00296     -13.23634      -4.72306      -4.41517
     9  H(1)              -0.00302     -13.47907      -4.80967      -4.49613
 --------------------------------------------------------
       Center         ----  Spin Dipole Couplings  ----
                      3XX-RR        3YY-RR        3ZZ-RR
 --------------------------------------------------------
     1   Atom       -0.411300      0.703561     -0.292260
     2   Atom       -0.020847      0.219096     -0.198249
     3   Atom        0.050725     -0.013460     -0.037265
     4   Atom       -0.250255      0.422859     -0.172605
     5   Atom       -0.008678      0.035604     -0.026925
     6   Atom        0.024987      0.080074     -0.105061
     7   Atom        0.006077      0.002476     -0.008553
     8   Atom        0.004811     -0.009314      0.004503
     9   Atom        0.004772     -0.009267      0.004495
 --------------------------------------------------------
                        XY            XZ            YZ
 --------------------------------------------------------
     1   Atom       -0.005473      0.000013     -0.000508
     2   Atom       -0.004680      0.000017     -0.000209
     3   Atom        0.000248     -0.000010     -0.000012
     4   Atom        0.004846      0.000001     -0.000321
     5   Atom       -0.000108     -0.000007     -0.000025
     6   Atom       -0.011336     -0.000050     -0.000066
     7   Atom       -0.008887      0.000018     -0.000025
     8   Atom       -0.002149      0.002778     -0.001345
     9   Atom       -0.002189     -0.002766      0.001404
 --------------------------------------------------------


 ---------------------------------------------------------------------------------
              Anisotropic Spin Dipole Couplings in Principal Axis System
 ---------------------------------------------------------------------------------

       Atom             a.u.   MegaHertz   Gauss  10(-4) cm-1        Axes

              Baa    -0.4113   -55.196   -19.695   -18.411  1.0000  0.0049 -0.0001
     1 C(13)  Bbb    -0.2923   -39.219   -13.994   -13.082  0.0001  0.0005  1.0000
              Bcc     0.7036    94.415    33.690    31.493 -0.0049  1.0000 -0.0005
 
              Baa    -0.1982   -26.603    -9.493    -8.874 -0.0001  0.0005  1.0000
     2 C(13)  Bbb    -0.0209    -2.810    -1.003    -0.937  0.9998  0.0195  0.0001
              Bcc     0.2192    29.413    10.495     9.811 -0.0195  0.9998 -0.0005
 
              Baa    -0.0373   -19.883    -7.095    -6.632  0.0001  0.0005  1.0000
     3 H(1)   Bbb    -0.0135    -7.182    -2.563    -2.396 -0.0039  1.0000 -0.0005
              Bcc     0.0507    27.065     9.657     9.028  1.0000  0.0039 -0.0001
 
              Baa    -0.2503   -33.586   -11.984   -11.203  1.0000 -0.0072 -0.0000
     4 C(13)  Bbb    -0.1726   -23.162    -8.265    -7.726  0.0000  0.0005  1.0000
              Bcc     0.4229    56.748    20.249    18.929  0.0072  1.0000 -0.0005
 
              Baa    -0.0269    -3.613    -1.289    -1.205  0.0004  0.0004  1.0000
     5 C(13)  Bbb    -0.0087    -1.165    -0.416    -0.388  1.0000  0.0024 -0.0004
              Bcc     0.0356     4.778     1.705     1.594 -0.0024  1.0000 -0.0004
 
              Baa    -0.1051   -14.098    -5.031    -4.703  0.0004  0.0004  1.0000
     6 C(13)  Bbb     0.0227     3.052     1.089     1.018  0.9810  0.1940 -0.0005
              Bcc     0.0823    11.046     3.941     3.685 -0.1940  0.9810 -0.0003
 
              Baa    -0.0086    -4.564    -1.628    -1.522  0.0003  0.0025  1.0000
     7 H(1)   Bbb    -0.0048    -2.556    -0.912    -0.853  0.6330  0.7741 -0.0022
              Bcc     0.0133     7.120     2.541     2.375  0.7741 -0.6330  0.0013
 
              Baa    -0.0097    -5.173    -1.846    -1.726  0.1335  0.9887  0.0675
     8 H(1)   Bbb     0.0019     1.011     0.361     0.337 -0.6734  0.0405  0.7382
              Bcc     0.0078     4.163     1.485     1.388  0.7271 -0.1440  0.6712
 
              Baa    -0.0097    -5.159    -1.841    -1.721  0.1361  0.9881 -0.0714
     9 H(1)   Bbb     0.0019     1.005     0.359     0.335  0.6752 -0.0398  0.7365
              Bcc     0.0078     4.154     1.482     1.386  0.7250 -0.1484 -0.6726
 

 ---------------------------------------------------------------------------------

 No NMR shielding tensors so no spin-rotation constants.
 Leave Link  601 at Mon Jun 20 10:25:45 2016, MaxMem=    33554432 cpu:         1.9
 (Enter /home/proyectos/fulerenos/M3C-v1.9/M3C-deps_CCC/g09-AM64L-G09RevC.01/l701.exe)
 Compute integral second derivatives.
 ... and contract with generalized density number  0.
 Leave Link  701 at Mon Jun 20 10:25:46 2016, MaxMem=    33554432 cpu:         1.6
 (Enter /home/proyectos/fulerenos/M3C-v1.9/M3C-deps_CCC/g09-AM64L-G09RevC.01/l702.exe)
 L702 exits ... SP integral derivatives will be done elsewhere.
 Leave Link  702 at Mon Jun 20 10:25:46 2016, MaxMem=    33554432 cpu:         0.1
 (Enter /home/proyectos/fulerenos/M3C-v1.9/M3C-deps_CCC/g09-AM64L-G09RevC.01/l703.exe)
 Compute integral second derivatives, UseDBF=F ICtDFT=           0.
 Integral derivatives from FoFJK, PRISM(SPDF).
 Calling FoFJK, ICntrl=    100127 FMM=F ISym2X=0 I1Cent= 0 IOpClX= 1 NMat=1 NMatS=1 NMatT=0.
 FoFJK:  IHMeth= 1 ICntrl=  100127 DoSepK=F KAlg= 0 I1Cent=   0 FoldK=F
 IRaf=         0 NMat=   1 IRICut=       1 DoRegI=T DoRafI=F ISym2E= 0.
 FoFCou: FMM=F IPFlag=           0 FMFlag=      100000 FMFlg1=         800
         NFxFlg=           0 DoJE=F BraDBF=F KetDBF=F FulRan=T
         wScrn=  0.000000 ICntrl=  100127 IOpCl=  1 I1Cent=           0 NGrid=           0
         NMat0=    1 NMatS0=      1 NMatT0=    0 NMatD0=    1 NMtDS0=    0 NMtDT0=    0
 Symmetry not used in FoFCou.
 Leave Link  703 at Mon Jun 20 10:28:55 2016, MaxMem=    33554432 cpu:       756.3
 (Enter /home/proyectos/fulerenos/M3C-v1.9/M3C-deps_CCC/g09-AM64L-G09RevC.01/l716.exe)
 Dipole        =-3.35872603D-02-3.15922466D-01 6.84854877D-04
 Polarizability= 1.39994013D+02 2.03605837D+00 2.62612667D+01
                -3.14634867D-03 1.95471409D-03 2.50978101D+01
 Full mass-weighted force constant matrix:
 Low frequencies ---  -18.2590   -2.0369   -0.0006   -0.0004    0.0005    2.6768
 Low frequencies ---  146.0612  150.2560  302.2534
 Diagonal vibrational polarizability:
      137.6887808      70.5945736      66.3343334
 Harmonic frequencies (cm**-1), IR intensities (KM/Mole), Raman scattering
 activities (A**4/AMU), depolarization ratios for plane and unpolarized
 incident light, reduced masses (AMU), force constants (mDyne/A),
 and normal coordinates:
                      1                      2                      3
                      A                      A                      A
 Frequencies --    146.0608               150.2554               302.2533
 Red. masses --      3.2624                 3.4071                 2.2378
 Frc consts  --      0.0410                 0.0453                 0.1205
 IR Inten    --     40.5797                37.9965                 1.0821
  Atom  AN      X      Y      Z        X      Y      Z        X      Y      Z
     1   6     0.00   0.00  -0.24     0.00  -0.25  -0.00     0.00  -0.00  -0.07
     2   6    -0.00  -0.00   0.27     0.00   0.29   0.00     0.00  -0.00   0.00
     3   1     0.00   0.00  -0.60     0.01  -0.58  -0.00    -0.00  -0.00  -0.41
     4   6    -0.00  -0.00   0.14    -0.00   0.13   0.00     0.00  -0.00  -0.22
     5   6     0.00  -0.00   0.15     0.00   0.14   0.00    -0.00   0.00   0.24
     6   6     0.00   0.00  -0.19    -0.02  -0.19  -0.00    -0.00   0.00   0.01
     7   1     0.00   0.00  -0.30    -0.28  -0.32  -0.00    -0.00  -0.00   0.24
     8   1     0.24  -0.00  -0.34     0.20  -0.30  -0.03    -0.50   0.09   0.27
     9   1    -0.24   0.00  -0.34     0.20  -0.30   0.03     0.50  -0.09   0.28
                      4                      5                      6
                      A                      A                      A
 Frequencies --    336.9140               406.6681               468.0231
 Red. masses --      2.8574                 1.1091                 2.0820
 Frc consts  --      0.1911                 0.1081                 0.2687
 IR Inten    --     37.4870               716.6335                40.0106
  Atom  AN      X      Y      Z        X      Y      Z        X      Y      Z
     1   6     0.00   0.08  -0.00     0.02  -0.00   0.00     0.00   0.00   0.02
     2   6     0.00  -0.05   0.00     0.01  -0.01   0.00     0.00   0.00   0.21
     3   1     0.00   0.41  -0.00     0.03  -0.03   0.00     0.00   0.00   0.30
     4   6    -0.01   0.30  -0.00    -0.03  -0.01   0.00     0.00  -0.00   0.02
     5   6    -0.00  -0.26   0.00    -0.01   0.02  -0.00     0.00  -0.00  -0.19
     6   6    -0.02  -0.06   0.00    -0.03  -0.08  -0.00    -0.00   0.00  -0.13
     7   1    -0.45  -0.26  -0.00     0.14   0.05   0.00    -0.00  -0.00   0.12
     8   1     0.39  -0.17  -0.13     0.17   0.43  -0.52    -0.59   0.14   0.19
     9   1     0.39  -0.17   0.13     0.17   0.43   0.52     0.59  -0.14   0.19
                      7                      8                      9
                      A                      A                      A
 Frequencies --    520.5750               673.5575               702.6527
 Red. masses --      4.3600                 1.4003                 4.0149
 Frc consts  --      0.6962                 0.3743                 1.1679
 IR Inten    --     13.1104                24.4255                 3.2893
  Atom  AN      X      Y      Z        X      Y      Z        X      Y      Z
     1   6     0.01   0.03  -0.00     0.00  -0.16   0.00    -0.30   0.00  -0.00
     2   6     0.01   0.42  -0.00    -0.00  -0.02   0.00    -0.05   0.02   0.06
     3   1     0.00   0.56  -0.00    -0.00   0.98  -0.00    -0.32  -0.00   0.05
     4   6    -0.00  -0.16   0.00    -0.00   0.00  -0.00     0.15  -0.04  -0.07
     5   6     0.01  -0.32   0.00    -0.00   0.09  -0.00    -0.20  -0.00  -0.02
     6   6     0.00  -0.05  -0.00     0.00   0.00   0.00     0.32   0.02   0.06
     7   1     0.37   0.14   0.00    -0.02  -0.00  -0.00     0.34   0.03  -0.16
     8   1    -0.30   0.15   0.00     0.02  -0.00  -0.00     0.54   0.02  -0.12
     9   1    -0.30   0.16  -0.00     0.02  -0.00   0.00     0.42  -0.06   0.00
                     10                     11                     12
                      A                      A                      A
 Frequencies --    703.0537               772.3762               820.3079
 Red. masses --      3.4845                 1.2062                 1.7990
 Frc consts  --      1.0148                 0.4240                 0.7132
 IR Inten    --     50.4593                94.7382               138.0921
  Atom  AN      X      Y      Z        X      Y      Z        X      Y      Z
     1   6    -0.06  -0.00   0.01    -0.00  -0.00  -0.01    -0.04  -0.00   0.00
     2   6    -0.01   0.00  -0.24    -0.00  -0.00   0.08     0.00  -0.06  -0.00
     3   1    -0.07   0.00  -0.19    -0.00   0.00   0.07    -0.05   0.00  -0.00
     4   6     0.03  -0.01   0.30     0.00   0.00  -0.09     0.05   0.19   0.00
     5   6    -0.04  -0.00   0.09    -0.00   0.00  -0.03    -0.02   0.01   0.00
     6   6     0.07   0.00  -0.24     0.00  -0.00  -0.05     0.06  -0.17   0.00
     7   1     0.07   0.01   0.66     0.01   0.00   0.70     0.53   0.08  -0.02
     8   1    -0.15  -0.15   0.22     0.32  -0.33   0.15    -0.55   0.13   0.09
     9   1     0.35   0.14   0.24    -0.34   0.34   0.15    -0.53   0.12  -0.10
                     13                     14                     15
                      A                      A                      A
 Frequencies --    874.1054              1211.0382              1345.7097
 Red. masses --      1.4267                 1.2230                 4.8294
 Frc consts  --      0.6423                 1.0568                 5.1528
 IR Inten    --      7.8406               198.5629                68.1534
  Atom  AN      X      Y      Z        X      Y      Z        X      Y      Z
     1   6     0.00  -0.00  -0.17     0.08   0.00   0.00    -0.31  -0.00  -0.00
     2   6     0.00  -0.00  -0.02    -0.07  -0.00   0.00     0.35  -0.00   0.00
     3   1     0.00   0.00   0.98     0.10   0.00   0.00    -0.44  -0.00   0.00
     4   6     0.00   0.00   0.01    -0.08   0.02  -0.00     0.12   0.00  -0.00
     5   6    -0.00   0.00   0.10    -0.01  -0.00   0.00     0.13   0.00  -0.00
     6   6     0.00  -0.00  -0.00    -0.04  -0.00  -0.00    -0.31   0.01  -0.00
     7   1     0.00   0.00  -0.01     0.73   0.35   0.00     0.40   0.35   0.00
     8   1    -0.01   0.01  -0.00     0.29  -0.26   0.05     0.13  -0.25  -0.08
     9   1     0.01  -0.01  -0.00     0.29  -0.26  -0.05     0.13  -0.25   0.08
                     16                     17                     18
                      A                      A                      A
 Frequencies --   1734.2067              2068.1718              2143.5785
 Red. masses --      8.9842                 7.1910                 1.0457
 Frc consts  --     15.9195                18.1223                 2.8310
 IR Inten    --    839.5337               377.3017               422.7406
  Atom  AN      X      Y      Z        X      Y      Z        X      Y      Z
     1   6     0.21   0.00   0.00    -0.15  -0.00  -0.00     0.00  -0.00   0.00
     2   6    -0.17   0.00   0.00    -0.49   0.00  -0.00     0.00  -0.00  -0.00
     3   1     0.44   0.00  -0.00    -0.43  -0.00   0.00     0.00   0.00   0.00
     4   6     0.64  -0.02  -0.00     0.21  -0.00  -0.00    -0.00  -0.00  -0.01
     5   6    -0.38  -0.00  -0.00     0.50   0.00   0.00    -0.00   0.00   0.00
     6   6    -0.33   0.02  -0.00    -0.03   0.02  -0.00     0.00  -0.00  -0.06
     7   1    -0.03   0.09  -0.00     0.00  -0.03  -0.00     0.00  -0.00  -0.08
     8   1    -0.06  -0.09  -0.16    -0.07  -0.11  -0.33     0.31   0.47   0.42
     9   1    -0.06  -0.09   0.16    -0.07  -0.11   0.33    -0.31  -0.47   0.43
                     19                     20                     21
                      A                      A                      A
 Frequencies --   2371.2094              2742.9254              2933.3791
 Red. masses --      1.1179                 1.0786                 1.1565
 Frc consts  --      3.7034                 4.7811                 5.8631
 IR Inten    --   2102.2432               737.8366               618.0342
  Atom  AN      X      Y      Z        X      Y      Z        X      Y      Z
     1   6     0.01  -0.00   0.00     0.00   0.00  -0.00    -0.11  -0.00   0.00
     2   6     0.03   0.00  -0.00    -0.01  -0.00   0.00    -0.01  -0.00  -0.00
     3   1     0.02  -0.00  -0.00    -0.04   0.00   0.00     0.99   0.00  -0.00
     4   6    -0.02   0.00   0.00     0.01  -0.00   0.00    -0.00   0.00   0.00
     5   6    -0.03  -0.00  -0.00     0.00  -0.00  -0.00     0.03   0.00   0.00
     6   6     0.06   0.06  -0.00     0.03  -0.07   0.00     0.00  -0.00   0.00
     7   1    -0.02   0.07   0.00    -0.43   0.90  -0.00    -0.02   0.04  -0.00
     8   1    -0.28  -0.42  -0.49     0.01  -0.00   0.04    -0.00  -0.01  -0.01
     9   1    -0.28  -0.42   0.49     0.01  -0.01  -0.04    -0.00  -0.01   0.01

 -------------------
 - Thermochemistry -
 -------------------
 Temperature   298.150 Kelvin.  Pressure   1.00000 Atm.
 Atom     1 has atomic number  6 and mass  12.00000
 Atom     2 has atomic number  6 and mass  12.00000
 Atom     3 has atomic number  1 and mass   1.00783
 Atom     4 has atomic number  6 and mass  12.00000
 Atom     5 has atomic number  6 and mass  12.00000
 Atom     6 has atomic number  6 and mass  12.00000
 Atom     7 has atomic number  1 and mass   1.00783
 Atom     8 has atomic number  1 and mass   1.00783
 Atom     9 has atomic number  1 and mass   1.00783
 Molecular mass:    64.03130 amu.
 Principal axes and moments of inertia in atomic units:
                           1         2         3
     Eigenvalues --    12.02027 886.44062 889.97256
           X            0.99999   0.00399  -0.00001
           Y           -0.00399   0.99999   0.00001
           Z            0.00001  -0.00001   1.00000
 This molecule is an asymmetric top.
 Rotational symmetry number  1.
 Rotational temperatures (Kelvin)      7.20565     0.09771     0.09732
 Rotational constants (GHZ):         150.14151     2.03594     2.02786
 Zero-point vibrational energy     140124.7 (Joules/Mol)
                                   33.49061 (Kcal/Mol)
 Warning -- explicit consideration of   7 degrees of freedom as
           vibrations may cause significant error
 Vibrational temperatures:    210.15   216.18   434.87   484.74   585.10
          (Kelvin)            673.38   748.99   969.10  1010.96  1011.54
                             1111.28  1180.24  1257.64  1742.41  1936.17
                             2495.13  2975.63  3084.13  3411.64  3946.45
                             4220.47
 
 Zero-point correction=                           0.053371 (Hartree/Particle)
 Thermal correction to Energy=                    0.059645
 Thermal correction to Enthalpy=                  0.060589
 Thermal correction to Gibbs Free Energy=         0.024747
 Sum of electronic and zero-point Energies=           -191.115118
 Sum of electronic and thermal Energies=              -191.108844
 Sum of electronic and thermal Enthalpies=            -191.107900
 Sum of electronic and thermal Free Energies=         -191.143742
 
                     E (Thermal)             CV                S
                      KCal/Mol        Cal/Mol-Kelvin    Cal/Mol-Kelvin
 Total                   37.428             21.780             75.435
 Electronic               0.000              0.000              1.377
 Translational            0.889              2.981             38.389
 Rotational               0.889              2.981             23.765
 Vibrational             35.650             15.818             11.903
 Vibration     1          0.617              1.907              2.723
 Vibration     2          0.618              1.902              2.669
 Vibration     3          0.694              1.669              1.404
 Vibration     4          0.718              1.602              1.227
 Vibration     5          0.771              1.456              0.938
 Vibration     6          0.825              1.321              0.743
 Vibration     7          0.876              1.204              0.609
                       Q            Log10(Q)             Ln(Q)
 Total Bot       0.414109D-11        -11.382886        -26.210063
 Total V=0       0.146512D+14         13.165872         30.315540
 Vib (Bot)       0.294933D-23        -23.530276        -54.180463
 Vib (Bot)    1  0.138981D+01          0.142955          0.329166
 Vib (Bot)    2  0.134940D+01          0.130139          0.299657
 Vib (Bot)    3  0.628396D+00         -0.201766         -0.464584
 Vib (Bot)    4  0.552206D+00         -0.257899         -0.593834
 Vib (Bot)    5  0.436135D+00         -0.360379         -0.829803
 Vib (Bot)    6  0.360997D+00         -0.442497         -1.018886
 Vib (Bot)    7  0.309905D+00         -0.508772         -1.171490
 Vib (V=0)       0.104347D+02          1.018481          2.345140
 Vib (V=0)    1  0.197701D+01          0.296010          0.681587
 Vib (V=0)    2  0.193905D+01          0.287589          0.662199
 Vib (V=0)    3  0.130305D+01          0.114960          0.264704
 Vib (V=0)    4  0.124494D+01          0.095148          0.219085
 Vib (V=0)    5  0.116349D+01          0.065761          0.151421
 Vib (V=0)    6  0.111670D+01          0.047936          0.110378
 Vib (V=0)    7  0.108825D+01          0.036730          0.084573
 Electronic      0.200000D+01          0.301030          0.693147
 Translational   0.201393D+08          7.304044         16.818182
 Rotational      0.348591D+05          4.542317         10.459071
 
                                                              b3lyp opt
                                                             IR Spectrum
 
     2        2               2         2  2             1                1     1                                                    
     9        7               3         1  0             7                3     2              8 8 7 776      5 4  4  33     11      
     3        4               7         4  6             3                4     1              7 2 7 007      2 6  0  30     54      
     3        3               1         4  8             4                6     1              4 0 2 334      1 8  7  72     06      
 
     X        X               X         X  X             X                X     X              X X X XXX      X X  X  XX     XX      
     X        X               X         X  X             X                      X                                  X                 
     X        X               X         X  X             X                                                         X                 
     X        X               X         X  X             X                                                         X                 
     X        X               X                          X                                                         X                 
     X        X               X                          X                                                         X                 
              X               X                          X                                                         X                 
                              X                          X                                                                           
                              X                                                                                                      
                              X                                                                                                      
                              X                                                                                                      
                              X                                                                                                      
                              X                                                                                                      
                              X                                                                                                      
                              X                                                                                                      
                              X                                                                                                      
                              X                                                                                                      
                              X                                                                                                      
                              X                                                                                                      
                              X                                                                                                      
 
 ***** Axes restored to original set *****
 -------------------------------------------------------------------
 Center     Atomic                   Forces (Hartrees/Bohr)
 Number     Number              X              Y              Z
 -------------------------------------------------------------------
      1        6           0.000008244   -0.000028260   -0.000014716
      2        6           0.000011352   -0.000005099    0.000006585
      3        1          -0.000004396    0.000010804    0.000008756
      4        6          -0.000004230    0.000025611    0.000026353
      5        6          -0.000009385    0.000014920   -0.000003252
      6        6          -0.000010274   -0.000034648    0.000019200
      7        1           0.000002182    0.000003028   -0.000026316
      8        1          -0.000022380    0.000016901   -0.000011185
      9        1           0.000028887   -0.000003257   -0.000005425
 -------------------------------------------------------------------
 Cartesian Forces:  Max     0.000034648 RMS     0.000016500
 Z-matrix is all fixed cartesians, so copy forces.
 Force constants in Cartesian coordinates: 
                1             2             3             4             5 
      1  0.958862D+00
      2  0.363131D-02  0.500860D-01
      3  0.000000D+00  0.462028D-04  0.833634D-01
      4 -0.417113D-01 -0.287887D-04  0.302539D-05  0.114314D+01
      5  0.632812D-03  0.710253D-02  0.000000D+00 -0.491402D-02  0.702621D-01
      6 -0.341457D-05  0.000000D+00  0.694422D-02  0.427329D-04  0.332315D-04
      7 -0.310723D+00 -0.113762D-02  0.270250D-04  0.597578D-03 -0.420835D-04
      8 -0.107949D-02 -0.220831D-01 -0.230838D-04 -0.406984D-04  0.258977D-02
      9  0.377293D-04 -0.230357D-04 -0.389070D-01 -0.220258D-05 -0.197684D-05
     10 -0.119275D-01 -0.150391D-04 -0.732287D-05 -0.429097D+00  0.236937D-02
     11 -0.102062D-02  0.878323D-03  0.240269D-05  0.559951D-02 -0.466593D-01
     12 -0.180114D-04  0.144231D-05  0.224376D-02  0.000000D+00 -0.447366D-04
     13 -0.590469D+00 -0.233776D-02 -0.254909D-04 -0.616258D+00  0.101135D-04
     14 -0.278609D-02 -0.359377D-01 -0.249779D-04  0.130872D-02 -0.460650D-01
     15 -0.303793D-04 -0.249381D-04 -0.533730D-01 -0.881039D-04 -0.578393D-05
     16  0.875497D-02 -0.139264D-04  0.566532D-05 -0.323477D-01  0.145175D-02
     17  0.167486D-01 -0.493479D-03  0.000000D+00  0.362636D-01  0.138109D-01
     18 -0.457484D-04  0.536975D-05 -0.673028D-03 -0.121557D-03  0.134553D-04
     19 -0.103779D-02  0.880550D-04  0.000000D+00  0.250124D-02 -0.118371D-02
     20  0.102362D-02  0.244620D-03  0.000000D+00 -0.856136D-02 -0.189533D-02
     21  0.171320D-04 -0.399670D-05 -0.235043D-04  0.734204D-04  0.456376D-05
     22 -0.585704D-02 -0.948329D-04 -0.200188D-03 -0.133792D-01  0.849099D-03
     23 -0.858154D-02  0.101253D-03  0.180277D-03 -0.148154D-01  0.416333D-03
     24  0.115732D-02  0.634245D-04  0.211452D-03  0.760575D-02 -0.156255D-02
     25 -0.589119D-02 -0.914017D-04  0.198810D-03 -0.134489D-01  0.826676D-03
     26 -0.856857D-02  0.101543D-03 -0.181495D-03 -0.148116D-01  0.437942D-03
     27 -0.111381D-02 -0.646974D-04  0.213789D-03 -0.751210D-02  0.156364D-02
                6             7             8             9            10 
      6  0.958419D-01
      7  0.000000D+00  0.292527D+00
      8 -0.208380D-05  0.110025D-02  0.131038D-01
      9  0.129182D-02 -0.318792D-04  0.104654D-04  0.208259D-01
     10  0.910203D-04 -0.498718D-02  0.150510D-04  0.252100D-05  0.989660D+00
     11 -0.417032D-04  0.472336D-03  0.895279D-04 -0.162148D-05 -0.210806D-01
     12 -0.758557D-01 -0.375409D-05 -0.136562D-05 -0.108204D-02 -0.628792D-04
     13 -0.928311D-04  0.212522D-01  0.571166D-05 -0.484439D-05 -0.585159D-01
     14 -0.580550D-05  0.650517D-04  0.645729D-02  0.155399D-04 -0.503198D-03
     15 -0.516152D-01  0.507718D-05  0.156416D-04  0.175969D-01 -0.705031D-05
     16 -0.633444D-04  0.504873D-02  0.148703D-04 -0.186605D-05 -0.450736D+00
     17 -0.230006D-04  0.162354D-02 -0.249837D-03  0.000000D+00 -0.266017D-01
     18  0.199714D-01 -0.647476D-05 -0.178949D-05  0.170482D-03  0.262848D-03
     19  0.694831D-05 -0.684759D-03  0.224915D-04  0.000000D+00 -0.265326D-01
     20  0.155458D-04  0.160060D-02  0.530617D-04  0.000000D+00  0.184390D-01
     21  0.332532D-02  0.000000D+00  0.159006D-05  0.728189D-04 -0.106682D-03
     22  0.405874D-02 -0.151071D-02 -0.184825D-04  0.715383D-04 -0.396586D-02
     23 -0.291945D-02 -0.184535D-02  0.199441D-04 -0.403987D-04  0.136551D-01
     24  0.650366D-04 -0.786289D-03  0.693201D-05  0.159240D-04 -0.829306D-02
     25 -0.403972D-02 -0.152037D-02 -0.196974D-04 -0.711456D-04 -0.389801D-02
     26  0.294304D-02 -0.183672D-02  0.194639D-04  0.409490D-04  0.137220D-01
     27  0.312978D-04  0.795557D-03 -0.630630D-05  0.152206D-04  0.812061D-02
               11            12            13            14            15 
     11  0.104036D+00
     12  0.125080D-04  0.108195D+00
     13  0.135613D-02  0.342203D-04  0.121945D+01
     14  0.528270D-02  0.165663D-04  0.168669D-02  0.663939D-01
     15  0.148810D-04  0.176782D-01  0.113321D-03  0.736907D-05  0.716062D-01
     16  0.140151D-01  0.875120D-04  0.379324D-02 -0.355539D-04  0.113854D-04
     17 -0.627657D-01  0.104271D-03 -0.312315D-01  0.363891D-02 -0.285668D-05
     18  0.120774D-03 -0.410342D-01  0.991753D-04 -0.155987D-04 -0.166170D-02
     19  0.227961D-01 -0.515737D-04 -0.996802D-04 -0.672243D-03  0.000000D+00
     20  0.302257D-02 -0.242714D-05  0.110815D-02 -0.737584D-04 -0.234610D-05
     21 -0.320941D-04 -0.117071D-02 -0.409600D-04  0.339017D-05 -0.497387D-03
     22 -0.111391D-01 -0.140862D-01  0.103945D-01  0.469860D-03 -0.376589D-03
     23 -0.193797D-02 -0.194245D-02  0.147083D-01  0.153427D-03  0.590769D-03
     24  0.315635D-02 -0.450226D-02 -0.341068D-02 -0.107559D-03  0.130925D-03
     25 -0.109989D-01  0.141017D-01  0.104535D-01  0.466756D-03  0.372204D-03
     26 -0.194641D-02  0.185619D-02  0.146942D-01  0.150266D-03 -0.592736D-03
     27 -0.323150D-02 -0.447175D-02  0.332809D-02  0.111076D-03  0.135211D-03
               16            17            18            19            20 
     16  0.621459D+00
     17 -0.193980D-01  0.378434D+00
     18 -0.881620D-04 -0.573209D-03  0.145153D+00
     19 -0.696616D-01  0.805684D-01 -0.216808D-03  0.818836D-01
     20  0.688170D-01 -0.201657D+00  0.359591D-03 -0.890170D-01  0.225048D+00
     21 -0.195384D-03  0.485787D-03 -0.957863D-02  0.198819D-03 -0.440259D-03
     22 -0.430996D-01 -0.289307D-01 -0.325171D-01  0.683443D-02  0.327816D-02
     23 -0.324702D-01 -0.657957D-01 -0.496609D-01 -0.630509D-02 -0.123547D-01
     24 -0.482680D-01 -0.819218D-01 -0.559152D-01 -0.367948D-03  0.211724D-02
     25 -0.432106D-01 -0.290422D-01  0.326338D-01  0.679723D-02  0.331182D-02
     26 -0.323810D-01 -0.649218D-01  0.497523D-01 -0.629710D-02 -0.123875D-01
     27  0.485122D-01  0.819300D-01 -0.564319D-01  0.430991D-03 -0.204716D-02
               21            22            23            24            25 
     21  0.131475D-01
     22 -0.121931D-02  0.457480D-01
     23 -0.112337D-01  0.400843D-01  0.791374D-01
     24 -0.261674D-02  0.482678D-01  0.717154D-01  0.828637D-01
     25  0.127209D-02  0.483541D-02 -0.443013D-02  0.409514D-02  0.458829D-01
     26  0.112147D-01 -0.449822D-02  0.260055D-03  0.653253D-02  0.399771D-01
     27 -0.265871D-02 -0.399868D-02 -0.668953D-02 -0.202528D-01 -0.485629D-01
               26            27 
     26  0.782864D-01
     27 -0.715655D-01  0.834196D-01
 Leave Link  716 at Mon Jun 20 10:28:55 2016, MaxMem=    33554432 cpu:         0.1
 (Enter /home/proyectos/fulerenos/M3C-v1.9/M3C-deps_CCC/g09-AM64L-G09RevC.01/l103.exe)

 GradGradGradGradGradGradGradGradGradGradGradGradGradGradGradGradGradGrad
 Berny optimization.
 Search for a local minimum.
 Step number   1 out of a maximum of    2
 All quantities printed in internal units (Hartrees-Bohrs-Radians)
 Second derivative matrix not updated -- analytic derivatives used.
 ITU=  0
     Eigenvalues ---    0.00288   0.00317   0.00758   0.00882   0.01518
     Eigenvalues ---    0.02917   0.04975   0.05324   0.05623   0.10768
     Eigenvalues ---    0.13206   0.14628   0.16045   0.20228   0.25096
     Eigenvalues ---    0.26369   0.48332   0.55723   1.02611   1.46660
     Eigenvalues ---    2.03536
 Angle between quadratic step and forces=  55.34 degrees.
 Linear search not attempted -- first point.
 B after Tr=    -0.000076    0.000069    0.000030
         Rot=    1.000000    0.000001    0.000002    0.000002 Ang=   0.00 deg.
 Variable       Old X    -DE/DX   Delta X   Delta X   Delta X     New X
                                 (Linear)    (Quad)   (Total)
    X1        5.22015   0.00001   0.00000  -0.00003  -0.00010   5.22005
    Y1        0.00054  -0.00003   0.00000  -0.00067  -0.00061  -0.00007
    Z1        0.00033  -0.00001   0.00000  -0.00010  -0.00005   0.00028
    X2        0.36606   0.00001   0.00000  -0.00004  -0.00012   0.36595
    Y2       -0.00622  -0.00001   0.00000   0.00069   0.00076  -0.00547
    Z2       -0.00015   0.00001   0.00000   0.00036   0.00039   0.00024
    X3        7.33094  -0.00000   0.00000  -0.00003  -0.00010   7.33084
    Y3        0.00897   0.00001   0.00000  -0.00060  -0.00055   0.00842
    Z3        0.00004   0.00001   0.00000   0.00019   0.00025   0.00028
    X4       -2.14026  -0.00000   0.00000  -0.00013  -0.00021  -2.14047
    Y4        0.00383   0.00003   0.00000   0.00063   0.00071   0.00454
    Z4        0.00019   0.00003   0.00000  -0.00003  -0.00001   0.00019
    X5        2.77195  -0.00001   0.00000  -0.00009  -0.00016   2.77178
    Y5       -0.00982   0.00001   0.00000   0.00036   0.00042  -0.00940
    Z5        0.00018  -0.00000   0.00000   0.00005   0.00010   0.00028
    X6       -4.64991  -0.00001   0.00000  -0.00018  -0.00026  -4.65016
    Y6        0.11265  -0.00003   0.00000  -0.00058  -0.00050   0.11215
    Z6        0.00002   0.00002   0.00000  -0.00012  -0.00011  -0.00009
    X7       -5.56275   0.00000   0.00000  -0.00068  -0.00075  -5.56350
    Y7        2.03127   0.00000   0.00000  -0.00071  -0.00062   2.03065
    Z7       -0.00361  -0.00003   0.00000  -0.00098  -0.00097  -0.00458
    X8       -5.58667  -0.00002   0.00000  -0.00102  -0.00109  -5.58776
    Y8       -1.31861   0.00002   0.00000   0.00098   0.00107  -1.31755
    Z8       -1.44803  -0.00001   0.00000  -0.00095  -0.00094  -1.44897
    X9       -5.59058   0.00003   0.00000   0.00288   0.00279  -5.58779
    Y9       -1.31009  -0.00000   0.00000  -0.00076  -0.00067  -1.31076
    Z9        1.45410  -0.00001   0.00000   0.00133   0.00134   1.45544
         Item               Value     Threshold  Converged?
 Maximum Force            0.000035     0.000450     YES
 RMS     Force            0.000017     0.000300     YES
 Maximum Displacement     0.002793     0.001800     NO 
 RMS     Displacement     0.000811     0.001200     YES
 Predicted change in Energy=-1.030548D-07
 GradGradGradGradGradGradGradGradGradGradGradGradGradGradGradGradGradGrad

 Leave Link  103 at Mon Jun 20 10:28:55 2016, MaxMem=    33554432 cpu:         0.1
 (Enter /home/proyectos/fulerenos/M3C-v1.9/M3C-deps_CCC/g09-AM64L-G09RevC.01/l9999.exe)
 1\1\GINC-BELVIS17\Freq\UB3LYP\6-311++G(3df,2p)\C5H4(3+,2)\ROOT\20-Jun-
 2016\0\\#p b3lyp/6-311++G(3df,2p) freq symmetry=Loose\\b3lyp opt\\3,2\
 C,2.762386,0.000286,0.000173\C,0.193712,-0.003294,-0.000079\H,3.879365
 ,0.004749,0.000019\C,-1.132579,0.002028,0.000103\C,1.466851,-0.005199,
 0.000095\C,-2.460624,0.059611,0.000008\H,-2.943683,1.074901,-0.001909\
 H,-2.956338,-0.69778,-0.766266\H,-2.95841,-0.69327,0.769475\\Version=E
 M64L-G09RevE.01\State=2-A\HF=-191.1684888\S2=0.786005\S2-1=0.\S2A=0.75
 085\RMSD=7.850e-09\RMSF=1.650e-05\ZeroPoint=0.0533707\Thermal=0.059644
 6\Dipole=-0.0335218,-0.3159287,0.0009532\DipoleDeriv=1.5522777,0.03495
 03,0.0000973,0.0043489,0.606012,0.0001531,0.0001788,0.000141,0.7070231
 ,0.0609701,0.0707257,-0.0001295,0.0022982,0.3216011,0.0001329,-0.00001
 77,0.0000716,0.4362226,1.1484199,0.0067631,-0.0000798,0.0040689,0.2631
 822,-0.0000746,-0.0000914,-0.0000701,0.2145032,1.7064965,-0.0318481,0.
 0001101,-0.1378089,0.47727,0.0002259,0.0014564,0.0001556,0.488876,-1.7
 224516,-0.0654258,-0.0000268,-0.0083278,0.3521987,-0.0001673,-0.000107
 5,-0.000142,0.2370162,-1.9296678,-0.1102667,0.0012498,-0.7181505,-0.40
 5636,-0.000626,0.0030829,-0.0006241,-0.3829649,0.4835976,-0.1515416,0.
 0001094,-0.5773079,0.4928847,-0.0004343,-0.000526,-0.0001136,0.2828148
 ,0.8480503,0.1237624,0.1392767,0.7168416,0.4466728,0.1696541,0.2535898
 ,0.0488785,0.5076006,0.8523072,0.1228808,-0.1406073,0.7140375,0.445814
 4,-0.1688638,-0.2575654,-0.048297,0.5089083\Polar=139.9931653,2.059599
 6,26.262117,-0.0069571,0.0009303,25.0978078\PG=C01 [X(C5H4)]\NImag=0\\
 0.95886218,0.00363131,0.05008601,-0.00000081,0.00004620,0.08336337,-0.
 04171132,-0.00002879,0.00000303,1.14314385,0.00063281,0.00710253,0.000
 00015,-0.00491402,0.07026212,-0.00000341,0.00000023,0.00694422,0.00004
 273,0.00003323,0.09584188,-0.31072298,-0.00113762,0.00002703,0.0005975
 8,-0.00004208,-0.00000014,0.29252748,-0.00107949,-0.02208305,-0.000023
 08,-0.00004070,0.00258977,-0.00000208,0.00110025,0.01310383,0.00003773
 ,-0.00002304,-0.03890703,-0.00000220,-0.00000198,0.00129182,-0.0000318
 8,0.00001047,0.02082589,-0.01192752,-0.00001504,-0.00000732,-0.4290971
 5,0.00236937,0.00009102,-0.00498718,0.00001505,0.00000252,0.98966038,-
 0.00102062,0.00087832,0.00000240,0.00559951,-0.04665926,-0.00004170,0.
 00047234,0.00008953,-0.00000162,-0.02108057,0.10403620,-0.00001801,0.0
 0000144,0.00224376,-0.00000096,-0.00004474,-0.07585571,-0.00000375,-0.
 00000137,-0.00108204,-0.00006288,0.00001251,0.10819479,-0.59046932,-0.
 00233776,-0.00002549,-0.61625839,0.00001011,-0.00009283,0.02125221,0.0
 0000571,-0.00000484,-0.05851587,0.00135613,0.00003422,1.21944976,-0.00
 278609,-0.03593775,-0.00002498,0.00130872,-0.04606500,-0.00000581,0.00
 006505,0.00645729,0.00001554,-0.00050320,0.00528270,0.00001657,0.00168
 669,0.06639391,-0.00003038,-0.00002494,-0.05337303,-0.00008810,-0.0000
 0578,-0.05161525,0.00000508,0.00001564,0.01759691,-0.00000705,0.000014
 88,0.01767815,0.00011332,0.00000737,0.07160617,0.00875497,-0.00001393,
 0.00000567,-0.03234771,0.00145175,-0.00006334,0.00504873,0.00001487,-0
 .00000187,-0.45073617,0.01401509,0.00008751,0.00379324,-0.00003555,0.0
 0001139,0.62145875,0.01674856,-0.00049348,0.00000069,0.03626364,0.0138
 1090,-0.00002300,0.00162354,-0.00024984,0.00000010,-0.02660168,-0.0627
 6567,0.00010427,-0.03123154,0.00363891,-0.00000286,-0.01939805,0.37843
 387,-0.00004575,0.00000537,-0.00067303,-0.00012156,0.00001346,0.019971
 39,-0.00000647,-0.00000179,0.00017048,0.00026285,0.00012077,-0.0410342
 3,0.00009918,-0.00001560,-0.00166170,-0.00008816,-0.00057321,0.1451528
 1,-0.00103779,0.00008806,-0.00000071,0.00250124,-0.00118371,0.00000695
 ,-0.00068476,0.00002249,0.00000015,-0.02653261,0.02279614,-0.00005157,
 -0.00009968,-0.00067224,0.00000014,-0.06966165,0.08056844,-0.00021681,
 0.08188358,0.00102362,0.00024462,-0.00000017,-0.00856136,-0.00189533,0
 .00001555,0.00160060,0.00005306,-0.00000002,0.01843896,0.00302257,-0.0
 0000243,0.00110815,-0.00007376,-0.00000235,0.06881703,-0.20165716,0.00
 035959,-0.08901699,0.22504815,0.00001713,-0.00000400,-0.00002350,0.000
 07342,0.00000456,0.00332532,0.00000087,0.00000159,0.00007282,-0.000106
 68,-0.00003209,-0.00117071,-0.00004096,0.00000339,-0.00049739,-0.00019
 538,0.00048579,-0.00957863,0.00019882,-0.00044026,0.01314754,-0.005857
 04,-0.00009483,-0.00020019,-0.01337919,0.00084910,0.00405874,-0.001510
 71,-0.00001848,0.00007154,-0.00396586,-0.01113914,-0.01408622,0.010394
 51,0.00046986,-0.00037659,-0.04309959,-0.02893069,-0.03251709,0.006834
 43,0.00327816,-0.00121931,0.04574803,-0.00858154,0.00010125,0.00018028
 ,-0.01481537,0.00041633,-0.00291945,-0.00184535,0.00001994,-0.00004040
 ,0.01365511,-0.00193797,-0.00194245,0.01470832,0.00015343,0.00059077,-
 0.03247021,-0.06579570,-0.04966093,-0.00630509,-0.01235470,-0.01123368
 ,0.04008425,0.07913736,0.00115732,0.00006342,0.00021145,0.00760575,-0.
 00156255,0.00006504,-0.00078629,0.00000693,0.00001592,-0.00829306,0.00
 315635,-0.00450226,-0.00341068,-0.00010756,0.00013092,-0.04826801,-0.0
 8192176,-0.05591523,-0.00036795,0.00211724,-0.00261674,0.04826780,0.07
 171539,0.08286372,-0.00589119,-0.00009140,0.00019881,-0.01344891,0.000
 82668,-0.00403972,-0.00152037,-0.00001970,-0.00007115,-0.00389801,-0.0
 1099887,0.01410167,0.01045354,0.00046676,0.00037220,-0.04321056,-0.029
 04223,0.03263382,0.00679723,0.00331182,0.00127209,0.00483541,-0.004430
 13,0.00409514,0.04588288,-0.00856857,0.00010154,-0.00018149,-0.0148116
 3,0.00043794,0.00294304,-0.00183672,0.00001946,0.00004095,0.01372199,-
 0.00194641,0.00185619,0.01469418,0.00015027,-0.00059274,-0.03238100,-0
 .06492183,0.04975233,-0.00629710,-0.01238746,0.01121470,-0.00449822,0.
 00026005,0.00653253,0.03997708,0.07828643,-0.00111381,-0.00006470,0.00
 021379,-0.00751210,0.00156364,0.00003130,0.00079556,-0.00000631,0.0000
 1522,0.00812061,-0.00323150,-0.00447175,0.00332809,0.00011108,0.000135
 21,0.04851221,0.08192998,-0.05643187,0.00043099,-0.00204716,-0.0026587
 1,-0.00399868,-0.00668953,-0.02025282,-0.04856286,-0.07156551,0.083419
 64\\-0.00000824,0.00002826,0.00001472,-0.00001135,0.00000510,-0.000006
 58,0.00000440,-0.00001080,-0.00000876,0.00000423,-0.00002561,-0.000026
 35,0.00000938,-0.00001492,0.00000325,0.00001027,0.00003465,-0.00001920
 ,-0.00000218,-0.00000303,0.00002632,0.00002238,-0.00001690,0.00001119,
 -0.00002889,0.00000326,0.00000542\\\@


      LET US REMEMBER, PLEASE, THAT THE SEARCH FOR THE CONSTITUTION
      OF THE WORLD IS ONE OF THE GREATEST AND NOBLEST PROBLEMS PRESENTED 
      BY NATURE.

                                                  -- GALILEO
 Job cpu time:       0 days  1 hours  1 minutes 38.3 seconds.
 File lengths (MBytes):  RWF=     79 Int=      0 D2E=      0 Chk=      5 Scr=      1
 Normal termination of Gaussian 09 at Mon Jun 20 10:28:55 2016.
