 Entering Gaussian System, Link 0=/home/proyectos/fulerenos/M3C-v2.0/M3C-deps_CCC/g09-AM64L-G09RevC.01/g09
 Initial command:
 /home/proyectos/fulerenos/M3C-v2.0/M3C-deps_CCC/g09-AM64L-G09RevC.01/l1.exe "/scratch/naguirre/gaussian/Gau-30779.inp" -scrdir="/scratch/naguirre/gaussian/"
 Entering Link 1 = /home/proyectos/fulerenos/M3C-v2.0/M3C-deps_CCC/g09-AM64L-G09RevC.01/l1.exe PID=     30783.
  
 Copyright (c) 1988,1990,1992,1993,1995,1998,2003,2009,2015,
            Gaussian, Inc.  All Rights Reserved.
  
 This is part of the Gaussian(R) 09 program.  It is based on
 the Gaussian(R) 03 system (copyright 2003, Gaussian, Inc.),
 the Gaussian(R) 98 system (copyright 1998, Gaussian, Inc.),
 the Gaussian(R) 94 system (copyright 1995, Gaussian, Inc.),
 the Gaussian 92(TM) system (copyright 1992, Gaussian, Inc.),
 the Gaussian 90(TM) system (copyright 1990, Gaussian, Inc.),
 the Gaussian 88(TM) system (copyright 1988, Gaussian, Inc.),
 the Gaussian 86(TM) system (copyright 1986, Carnegie Mellon
 University), and the Gaussian 82(TM) system (copyright 1983,
 Carnegie Mellon University). Gaussian is a federally registered
 trademark of Gaussian, Inc.
  
 This software contains proprietary and confidential information,
 including trade secrets, belonging to Gaussian, Inc.
  
 This software is provided under written license and may be
 used, copied, transmitted, or stored only in accord with that
 written license.
  
 The following legend is applicable only to US Government
 contracts under FAR:
  
                    RESTRICTED RIGHTS LEGEND
  
 Use, reproduction and disclosure by the US Government is
 subject to restrictions as set forth in subparagraphs (a)
 and (c) of the Commercial Computer Software - Restricted
 Rights clause in FAR 52.227-19.
  
 Gaussian, Inc.
 340 Quinnipiac St., Bldg. 40, Wallingford CT 06492
  
  
 ---------------------------------------------------------------
 Warning -- This program may not be used in any manner that
 competes with the business of Gaussian, Inc. or will provide
 assistance to any competitor of Gaussian, Inc.  The licensee
 of this program is prohibited from giving any competitor of
 Gaussian, Inc. access to this program.  By using this program,
 the user acknowledges that Gaussian, Inc. is engaged in the
 business of creating and licensing software in the field of
 computational chemistry and represents and warrants to the
 licensee that it is not a competitor of Gaussian, Inc. and that
 it will not use this program in any manner prohibited above.
 ---------------------------------------------------------------
  

 Cite this work as:
 Gaussian 09, Revision E.01,
 M. J. Frisch, G. W. Trucks, H. B. Schlegel, G. E. Scuseria, 
 M. A. Robb, J. R. Cheeseman, G. Scalmani, V. Barone, B. Mennucci, 
 G. A. Petersson, H. Nakatsuji, M. Caricato, X. Li, H. P. Hratchian, 
 A. F. Izmaylov, J. Bloino, G. Zheng, J. L. Sonnenberg, M. Hada, 
 M. Ehara, K. Toyota, R. Fukuda, J. Hasegawa, M. Ishida, T. Nakajima, 
 Y. Honda, O. Kitao, H. Nakai, T. Vreven, J. A. Montgomery, Jr., 
 J. E. Peralta, F. Ogliaro, M. Bearpark, J. J. Heyd, E. Brothers, 
 K. N. Kudin, V. N. Staroverov, T. Keith, R. Kobayashi, J. Normand, 
 K. Raghavachari, A. Rendell, J. C. Burant, S. S. Iyengar, J. Tomasi, 
 M. Cossi, N. Rega, J. M. Millam, M. Klene, J. E. Knox, J. B. Cross, 
 V. Bakken, C. Adamo, J. Jaramillo, R. Gomperts, R. E. Stratmann, 
 O. Yazyev, A. J. Austin, R. Cammi, C. Pomelli, J. W. Ochterski, 
 R. L. Martin, K. Morokuma, V. G. Zakrzewski, G. A. Voth, 
 P. Salvador, J. J. Dannenberg, S. Dapprich, A. D. Daniels, 
 O. Farkas, J. B. Foresman, J. V. Ortiz, J. Cioslowski, 
 and D. J. Fox, Gaussian, Inc., Wallingford CT, 2013.
 
 ******************************************
 Gaussian 09:  EM64L-G09RevE.01 30-Nov-2015
                20-Jul-2016 
 ******************************************
 %NProcShared=1
 Will use up to    1 processors via shared memory.
 ---------------------------------------------
 #p b3lyp/6-311++G(3df,2p) freq symmetry=Loose
 ---------------------------------------------
 1/10=4,30=1,38=1/1,3;
 2/12=2,17=4,18=3,40=1/2;
 3/5=4,6=6,7=1216,11=2,16=1,25=1,30=1,71=2,74=-5,140=1/1,2,3;
 4//1;
 5/5=2,38=5,98=1/2;
 8/6=4,10=90,11=11/1;
 11/6=1,8=1,9=11,15=111,16=1/1,2,10;
 10/6=1/2;
 6/7=2,8=2,9=2,10=2,18=1,28=1/1;
 7/8=1,10=1,25=1/1,2,3,16;
 1/10=4,30=1/3;
 99//99;
 Leave Link    1 at Wed Jul 20 06:02:43 2016, MaxMem=           0 cpu:         0.1
 (Enter /home/proyectos/fulerenos/M3C-v2.0/M3C-deps_CCC/g09-AM64L-G09RevC.01/l101.exe)
 ---------
 b3lyp opt
 ---------
 Symbolic Z-matrix:
 Charge =  0 Multiplicity = 3
 C                    -2.69721  -0.13147  -0.00061 
 C                    -1.45025  -0.03699  -0.00041 
 C                     2.2593    0.05276   0.00015 
 H                     3.09809  -0.62754   0.00025 
 H                     2.47998   1.11223   0.00022 
 C                     0.98198  -0.40542  -0.00006 
 H                     0.80745  -1.47531  -0.00013 
 C                    -0.15605   0.43439  -0.0002 
 H                    -0.01512   1.51038  -0.00014 
 
 NAtoms=      9 NQM=        9 NQMF=       0 NMMI=      0 NMMIF=      0
                NMic=       0 NMicF=      0.
                    Isotopes and Nuclear Properties:
 (Nuclear quadrupole moments (NQMom) in fm**2, nuclear magnetic moments (NMagM)
  in nuclear magnetons)

  Atom         1           2           3           4           5           6           7           8           9
 IAtWgt=          12          12          12           1           1          12           1          12           1
 AtmWgt=  12.0000000  12.0000000  12.0000000   1.0078250   1.0078250  12.0000000   1.0078250  12.0000000   1.0078250
 NucSpn=           0           0           0           1           1           0           1           0           1
 AtZEff=   0.0000000   0.0000000   0.0000000   0.0000000   0.0000000   0.0000000   0.0000000   0.0000000   0.0000000
 NQMom=    0.0000000   0.0000000   0.0000000   0.0000000   0.0000000   0.0000000   0.0000000   0.0000000   0.0000000
 NMagM=    0.0000000   0.0000000   0.0000000   2.7928460   2.7928460   0.0000000   2.7928460   0.0000000   2.7928460
 AtZNuc=   6.0000000   6.0000000   6.0000000   1.0000000   1.0000000   6.0000000   1.0000000   6.0000000   1.0000000
 Leave Link  101 at Wed Jul 20 06:02:44 2016, MaxMem=    33554432 cpu:         0.3
 (Enter /home/proyectos/fulerenos/M3C-v2.0/M3C-deps_CCC/g09-AM64L-G09RevC.01/l103.exe)

 GradGradGradGradGradGradGradGradGradGradGradGradGradGradGradGradGradGrad
 Berny optimization.
 Initialization pass.
 Trust Radius=3.00D-01 FncErr=1.00D-07 GrdErr=1.00D-07
 Number of steps in this run=      2 maximum allowed number of steps=      2.
 GradGradGradGradGradGradGradGradGradGradGradGradGradGradGradGradGradGrad

 Leave Link  103 at Wed Jul 20 06:02:44 2016, MaxMem=    33554432 cpu:         0.1
 (Enter /home/proyectos/fulerenos/M3C-v2.0/M3C-deps_CCC/g09-AM64L-G09RevC.01/l202.exe)
                          Input orientation:                          
 ---------------------------------------------------------------------
 Center     Atomic      Atomic             Coordinates (Angstroms)
 Number     Number       Type             X           Y           Z
 ---------------------------------------------------------------------
      1          6           0       -2.697207   -0.131467   -0.000606
      2          6           0       -1.450246   -0.036985   -0.000415
      3          6           0        2.259300    0.052758    0.000146
      4          1           0        3.098090   -0.627541    0.000246
      5          1           0        2.479982    1.112229    0.000219
      6          6           0        0.981978   -0.405417   -0.000063
      7          1           0        0.807452   -1.475307   -0.000130
      8          6           0       -0.156051    0.434387   -0.000203
      9          1           0       -0.015120    1.510383   -0.000141
 ---------------------------------------------------------------------
                    Distance matrix (angstroms):
                    1          2          3          4          5
     1  C    0.000000
     2  C    1.250535   0.000000
     3  C    4.959929   3.710632   0.000000
     4  H    5.816490   4.586515   1.079989   0.000000
     5  H    5.324478   4.094800   1.082210   1.846309   0.000000
     6  C    3.689370   2.459971   1.357010   2.127738   2.132432
     7  H    3.753470   2.676933   2.107806   2.442484   3.081023
     8  C    2.603395   1.377364   2.445314   3.423029   2.721790
     9  H    3.144720   2.110435   2.701418   3.776612   2.526670
                    6          7          8          9
     6  C    0.000000
     7  H    1.084031   0.000000
     8  C    1.414348   2.138988   0.000000
     9  H    2.159744   3.096929   1.085186   0.000000
 Stoichiometry    C5H4(3)
 Framework group  C1[X(C5H4)]
 Deg. of freedom    21
 Full point group                 C1      NOp   1
 Largest Abelian subgroup         C1      NOp   1
 Largest concise Abelian subgroup C1      NOp   1
                         Standard orientation:                         
 ---------------------------------------------------------------------
 Center     Atomic      Atomic             Coordinates (Angstroms)
 Number     Number       Type             X           Y           Z
 ---------------------------------------------------------------------
      1          6           0       -2.697080   -0.132272   -0.000410
      2          6           0       -1.450148   -0.037410   -0.000219
      3          6           0        2.259371    0.053464    0.000341
      4          1           0        3.098368   -0.626579    0.000442
      5          1           0        2.479730    1.113002    0.000414
      6          6           0        0.982188   -0.405100    0.000132
      7          1           0        0.807989   -1.475044    0.000066
      8          6           0       -0.156097    0.434356   -0.000007
      9          1           0       -0.015494    1.510395    0.000055
 ---------------------------------------------------------------------
 Rotational constants (GHZ):     47.5625042      2.5073519      2.3817911
 Leave Link  202 at Wed Jul 20 06:02:44 2016, MaxMem=    33554432 cpu:         0.0
 (Enter /home/proyectos/fulerenos/M3C-v2.0/M3C-deps_CCC/g09-AM64L-G09RevC.01/l301.exe)
 Standard basis: 6-311++G(3df,2p) (5D, 7F)
 Ernie: Thresh=  0.10000D-02 Tol=  0.10000D-05 Strict=F.
 There are   265 symmetry adapted cartesian basis functions of A   symmetry.
 There are   235 symmetry adapted basis functions of A   symmetry.
   235 basis functions,   338 primitive gaussians,   265 cartesian basis functions
    18 alpha electrons       16 beta electrons
       nuclear repulsion energy       124.3546906477 Hartrees.
 IExCor=  402 DFT=T Ex+Corr=B3LYP ExCW=0 ScaHFX=  0.200000
 ScaDFX=  0.800000  0.720000  1.000000  0.810000 ScalE2=  1.000000  1.000000
 IRadAn=      0 IRanWt=     -1 IRanGd=            0 ICorTp=0 IEmpDi=  4
 NAtoms=    9 NActive=    9 NUniq=    9 SFac= 1.00D+00 NAtFMM=   60 NAOKFM=F Big=F
 Integral buffers will be    131072 words long.
 Raffenetti 2 integral format.
 Two-electron integral symmetry is turned on.
 Leave Link  301 at Wed Jul 20 06:02:44 2016, MaxMem=    33554432 cpu:         0.3
 (Enter /home/proyectos/fulerenos/M3C-v2.0/M3C-deps_CCC/g09-AM64L-G09RevC.01/l302.exe)
 NPDir=0 NMtPBC=     1 NCelOv=     1 NCel=       1 NClECP=     1 NCelD=      1
         NCelK=      1 NCelE2=     1 NClLst=     1 CellRange=     0.0.
 One-electron integrals computed using PRISM.
 NBasis=   235 RedAO= T EigKep=  6.52D-06  NBF=   235
 NBsUse=   234 1.00D-06 EigRej=  7.81D-07 NBFU=   234
 Precomputing XC quadrature grid using
 IXCGrd= 4 IRadAn=           0 IRanWt=          -1 IRanGd=           0 AccXCQ= 0.00D+00.
 Generated NRdTot=       0 NPtTot=           0 NUsed=           0 NTot=          32
 NSgBfM=   265   265   265   265   265 MxSgAt=     9 MxSgA2=     9.
 Leave Link  302 at Wed Jul 20 06:02:45 2016, MaxMem=    33554432 cpu:         0.7
 (Enter /home/proyectos/fulerenos/M3C-v2.0/M3C-deps_CCC/g09-AM64L-G09RevC.01/l303.exe)
 DipDrv:  MaxL=1.
 Leave Link  303 at Wed Jul 20 06:02:45 2016, MaxMem=    33554432 cpu:         0.2
 (Enter /home/proyectos/fulerenos/M3C-v2.0/M3C-deps_CCC/g09-AM64L-G09RevC.01/l401.exe)
 ExpMin= 3.60D-02 ExpMax= 4.56D+03 ExpMxC= 6.82D+02 IAcc=3 IRadAn=         5 AccDes= 0.00D+00
 Harris functional with IExCor=  402 and IRadAn=       5 diagonalized for initial guess.
 HarFok:  IExCor=  402 AccDes= 0.00D+00 IRadAn=         5 IDoV= 1 UseB2=F ITyADJ=14
 ICtDFT=  3500011 ScaDFX=  1.000000  1.000000  1.000000  1.000000
 FoFCou: FMM=F IPFlag=           0 FMFlag=      100000 FMFlg1=           0
         NFxFlg=           0 DoJE=T BraDBF=F KetDBF=T FulRan=T
         wScrn=  0.000000 ICntrl=     500 IOpCl=  0 I1Cent=   200000004 NGrid=           0
         NMat0=    1 NMatS0=      1 NMatT0=    0 NMatD0=    1 NMtDS0=    0 NMtDT0=    0
 Petite list used in FoFCou.
 Harris En= -192.769639296444    
 JPrj=0 DoOrth=F DoCkMO=F.
 Initial guess <Sx>= 0.0000 <Sy>= 0.0000 <Sz>= 1.0000 <S**2>= 2.0000 S= 1.0000
 Leave Link  401 at Wed Jul 20 06:02:59 2016, MaxMem=    33554432 cpu:        13.3
 (Enter /home/proyectos/fulerenos/M3C-v2.0/M3C-deps_CCC/g09-AM64L-G09RevC.01/l502.exe)
 UHF open shell SCF:
 Using DIIS extrapolation, IDIIS=  1040.
 Integral symmetry usage will be decided dynamically.
 IVT=      232727 IEndB=      232727 NGot=    33554432 MDV=    33408836
 LenX=    33408836 LenY=    33338170
 Requested convergence on RMS density matrix=1.00D-08 within 128 cycles.
 Requested convergence on MAX density matrix=1.00D-06.
 Requested convergence on             energy=1.00D-06.
 No special actions if energy rises.
 Fock matrices will be formed incrementally for  20 cycles.

 Cycle   1  Pass 1  IDiag  1:
 FoFJK:  IHMeth= 1 ICntrl=       0 DoSepK=F KAlg= 0 I1Cent=   0 FoldK=F
 IRaf= 970000000 NMat=   1 IRICut=       1 DoRegI=T DoRafI=F ISym2E= 0.
 FoFCou: FMM=F IPFlag=           0 FMFlag=      100000 FMFlg1=           0
         NFxFlg=           0 DoJE=F BraDBF=F KetDBF=F FulRan=T
         wScrn=  0.000000 ICntrl=       0 IOpCl=  1 I1Cent=           0 NGrid=           0
         NMat0=    1 NMatS0=      1 NMatT0=    0 NMatD0=    1 NMtDS0=    0 NMtDT0=    0
 Symmetry not used in FoFCou.
 E= -192.612067194921    
 DIIS: error= 2.94D-02 at cycle   1 NSaved=   1.
 NSaved= 1 IEnMin= 1 EnMin= -192.612067194921     IErMin= 1 ErrMin= 2.94D-02
 ErrMax= 2.94D-02  0.00D+00 EMaxC= 1.00D-01 BMatC= 6.03D-01 BMatP= 6.03D-01
 IDIUse=3 WtCom= 7.06D-01 WtEn= 2.94D-01
 Coeff-Com:  0.100D+01
 Coeff-En:   0.100D+01
 Coeff:      0.100D+01
 Gap=     0.209 Goal=   None    Shift=    0.000
 Gap=     0.046 Goal=   None    Shift=    0.000
 GapD=    0.046 DampG=0.250 DampE=0.500 DampFc=0.2500 IDamp=-1.
 Damping current iteration by 2.50D-01
 RMSDP=7.16D-03 MaxDP=6.32D-01              OVMax= 9.07D-01

 Cycle   2  Pass 1  IDiag  1:
 RMSU=  1.53D-03    CP:  9.47D-01
 E= -192.643702671244     Delta-E=       -0.031635476323 Rises=F Damp=T
 DIIS: error= 1.56D-02 at cycle   2 NSaved=   2.
 NSaved= 2 IEnMin= 2 EnMin= -192.643702671244     IErMin= 2 ErrMin= 1.56D-02
 ErrMax= 1.56D-02  0.00D+00 EMaxC= 1.00D-01 BMatC= 1.58D-01 BMatP= 6.03D-01
 IDIUse=3 WtCom= 8.44D-01 WtEn= 1.56D-01
 Coeff-Com: -0.340D+00 0.134D+01
 Coeff-En:   0.218D+00 0.782D+00
 Coeff:     -0.253D+00 0.125D+01
 Gap=     0.217 Goal=   None    Shift=    0.000
 Gap=    -0.112 Goal=   None    Shift=    0.000
 RMSDP=4.89D-03 MaxDP=5.05D-01 DE=-3.16D-02 OVMax= 7.76D-01

 Cycle   3  Pass 1  IDiag  1:
 RMSU=  3.76D-03    CP:  7.85D-01  1.67D-01
 E= -192.623276734502     Delta-E=        0.020425936742 Rises=F Damp=F
 DIIS: error= 4.30D-02 at cycle   3 NSaved=   3.
 NSaved= 3 IEnMin= 2 EnMin= -192.643702671244     IErMin= 2 ErrMin= 1.56D-02
 ErrMax= 4.30D-02  0.00D+00 EMaxC= 1.00D-01 BMatC= 3.76D-01 BMatP= 1.58D-01
 IDIUse=2 WtCom= 0.00D+00 WtEn= 1.00D+00
 Coeff-En:   0.000D+00 0.561D+00 0.439D+00
 Coeff:      0.000D+00 0.561D+00 0.439D+00
 Gap=     0.230 Goal=   None    Shift=    0.000
 Gap=     0.046 Goal=   None    Shift=    0.000
 RMSDP=7.09D-03 MaxDP=9.95D-01 DE= 2.04D-02 OVMax= 9.35D-01

 Cycle   4  Pass 1  IDiag  1:
 RMSU=  2.04D-03    CP:  8.51D-01  3.00D+00 -8.77D-02
 E= -192.370094386390     Delta-E=        0.253182348112 Rises=F Damp=F
 DIIS: error= 5.96D-02 at cycle   4 NSaved=   4.
 NSaved= 4 IEnMin= 2 EnMin= -192.643702671244     IErMin= 2 ErrMin= 1.56D-02
 ErrMax= 5.96D-02  0.00D+00 EMaxC= 1.00D-01 BMatC= 1.03D+00 BMatP= 1.58D-01
 IDIUse=2 WtCom= 0.00D+00 WtEn= 1.00D+00
 Coeff-En:   0.000D+00 0.000D+00 0.670D+00 0.330D+00
 Coeff:      0.000D+00 0.000D+00 0.670D+00 0.330D+00
 Gap=     0.205 Goal=   None    Shift=    0.000
 Gap=    -0.030 Goal=   None    Shift=    0.000
 RMSDP=5.19D-03 MaxDP=8.55D-01 DE= 2.53D-01 OVMax= 9.65D-01

 Cycle   5  Pass 1  IDiag  1:
 RMSU=  1.60D-03    CP:  8.46D-01  9.39D-01  2.82D-01 -1.71D-01
 E= -192.755216455337     Delta-E=       -0.385122068947 Rises=F Damp=F
 DIIS: error= 8.09D-03 at cycle   5 NSaved=   5.
 NSaved= 5 IEnMin= 5 EnMin= -192.755216455337     IErMin= 5 ErrMin= 8.09D-03
 ErrMax= 8.09D-03  0.00D+00 EMaxC= 1.00D-01 BMatC= 3.86D-02 BMatP= 1.58D-01
 IDIUse=3 WtCom= 9.19D-01 WtEn= 8.09D-02
 Coeff-Com: -0.375D+00 0.671D+00 0.287D+00-0.117D-01 0.428D+00
 Coeff-En:   0.000D+00 0.000D+00 0.000D+00 0.000D+00 0.100D+01
 Coeff:     -0.344D+00 0.617D+00 0.264D+00-0.107D-01 0.475D+00
 Gap=     0.192 Goal=   None    Shift=    0.000
 Gap=     0.062 Goal=   None    Shift=    0.000
 RMSDP=8.13D-04 MaxDP=3.01D-02 DE=-3.85D-01 OVMax= 4.84D-02

 Cycle   6  Pass 1  IDiag  1:
 RMSU=  6.41D-04    CP:  8.31D-01  1.02D+00  3.69D-01 -2.61D-01  9.07D-01
 E= -192.762637117207     Delta-E=       -0.007420661870 Rises=F Damp=F
 DIIS: error= 6.56D-03 at cycle   6 NSaved=   6.
 NSaved= 6 IEnMin= 6 EnMin= -192.762637117207     IErMin= 6 ErrMin= 6.56D-03
 ErrMax= 6.56D-03  0.00D+00 EMaxC= 1.00D-01 BMatC= 1.11D-02 BMatP= 3.86D-02
 IDIUse=3 WtCom= 9.34D-01 WtEn= 6.56D-02
 Coeff-Com: -0.184D+00 0.257D+00 0.628D-01-0.527D-02 0.301D+00 0.568D+00
 Coeff-En:   0.000D+00 0.000D+00 0.000D+00 0.000D+00 0.124D+00 0.876D+00
 Coeff:     -0.172D+00 0.240D+00 0.587D-01-0.493D-02 0.289D+00 0.588D+00
 Gap=     0.194 Goal=   None    Shift=    0.000
 Gap=     0.076 Goal=   None    Shift=    0.000
 RMSDP=5.86D-04 MaxDP=4.32D-02 DE=-7.42D-03 OVMax= 4.20D-02

 Cycle   7  Pass 1  IDiag  1:
 RMSU=  3.37D-04    CP:  8.33D-01  1.24D+00  2.96D-01 -3.02D-01  1.01D+00
                    CP:  1.13D+00
 E= -192.765709897742     Delta-E=       -0.003072780535 Rises=F Damp=F
 DIIS: error= 2.38D-03 at cycle   7 NSaved=   7.
 NSaved= 7 IEnMin= 7 EnMin= -192.765709897742     IErMin= 7 ErrMin= 2.38D-03
 ErrMax= 2.38D-03  0.00D+00 EMaxC= 1.00D-01 BMatC= 1.91D-03 BMatP= 1.11D-02
 IDIUse=3 WtCom= 9.76D-01 WtEn= 2.38D-02
 Coeff-Com: -0.169D-01 0.234D-01-0.292D-01 0.104D-02-0.235D-01 0.342D+00
 Coeff-Com:  0.703D+00
 Coeff-En:   0.000D+00 0.000D+00 0.000D+00 0.000D+00 0.000D+00 0.487D-01
 Coeff-En:   0.951D+00
 Coeff:     -0.165D-01 0.229D-01-0.285D-01 0.102D-02-0.230D-01 0.335D+00
 Coeff:      0.709D+00
 Gap=     0.196 Goal=   None    Shift=    0.000
 Gap=     0.086 Goal=   None    Shift=    0.000
 RMSDP=1.99D-04 MaxDP=1.12D-02 DE=-3.07D-03 OVMax= 2.07D-02

 Cycle   8  Pass 1  IDiag  1:
 RMSU=  1.24D-04    CP:  8.38D-01  1.25D+00  2.84D-01 -3.14D-01  1.01D+00
                    CP:  1.32D+00  1.04D+00
 E= -192.766378502322     Delta-E=       -0.000668604580 Rises=F Damp=F
 DIIS: error= 6.97D-04 at cycle   8 NSaved=   8.
 NSaved= 8 IEnMin= 8 EnMin= -192.766378502322     IErMin= 8 ErrMin= 6.97D-04
 ErrMax= 6.97D-04  0.00D+00 EMaxC= 1.00D-01 BMatC= 1.71D-04 BMatP= 1.91D-03
 IDIUse=3 WtCom= 9.93D-01 WtEn= 6.97D-03
 Coeff-Com:  0.956D-02-0.961D-02-0.157D-01 0.455D-03-0.472D-01 0.506D-01
 Coeff-Com:  0.258D+00 0.754D+00
 Coeff-En:   0.000D+00 0.000D+00 0.000D+00 0.000D+00 0.000D+00 0.000D+00
 Coeff-En:   0.000D+00 0.100D+01
 Coeff:      0.949D-02-0.955D-02-0.156D-01 0.451D-03-0.469D-01 0.502D-01
 Coeff:      0.256D+00 0.756D+00
 Gap=     0.196 Goal=   None    Shift=    0.000
 Gap=     0.089 Goal=   None    Shift=    0.000
 RMSDP=9.65D-05 MaxDP=8.83D-03 DE=-6.69D-04 OVMax= 1.21D-02

 Cycle   9  Pass 1  IDiag  1:
 RMSU=  7.01D-05    CP:  8.39D-01  1.26D+00  2.80D-01 -3.13D-01  9.88D-01
                    CP:  1.34D+00  1.17D+00  1.21D+00
 E= -192.766471191058     Delta-E=       -0.000092688737 Rises=F Damp=F
 DIIS: error= 4.18D-04 at cycle   9 NSaved=   9.
 NSaved= 9 IEnMin= 9 EnMin= -192.766471191058     IErMin= 9 ErrMin= 4.18D-04
 ErrMax= 4.18D-04  0.00D+00 EMaxC= 1.00D-01 BMatC= 6.55D-05 BMatP= 1.71D-04
 IDIUse=3 WtCom= 9.96D-01 WtEn= 4.18D-03
 Coeff-Com:  0.267D-02-0.521D-02 0.881D-02-0.456D-03 0.125D-01-0.777D-01
 Coeff-Com: -0.182D+00 0.332D+00 0.910D+00
 Coeff-En:   0.000D+00 0.000D+00 0.000D+00 0.000D+00 0.000D+00 0.000D+00
 Coeff-En:   0.000D+00 0.000D+00 0.100D+01
 Coeff:      0.266D-02-0.519D-02 0.878D-02-0.455D-03 0.124D-01-0.773D-01
 Coeff:     -0.182D+00 0.331D+00 0.910D+00
 Gap=     0.196 Goal=   None    Shift=    0.000
 Gap=     0.089 Goal=   None    Shift=    0.000
 RMSDP=1.01D-04 MaxDP=9.65D-03 DE=-9.27D-05 OVMax= 1.21D-02

 Cycle  10  Pass 1  IDiag  1:
 RMSU=  4.55D-05    CP:  8.41D-01  1.27D+00  2.77D-01 -3.08D-01  9.60D-01
                    CP:  1.32D+00  1.23D+00  1.51D+00  1.77D+00
 E= -192.766520413356     Delta-E=       -0.000049222298 Rises=F Damp=F
 DIIS: error= 2.94D-04 at cycle  10 NSaved=  10.
 NSaved=10 IEnMin=10 EnMin= -192.766520413356     IErMin=10 ErrMin= 2.94D-04
 ErrMax= 2.94D-04  0.00D+00 EMaxC= 1.00D-01 BMatC= 2.21D-05 BMatP= 6.55D-05
 IDIUse=3 WtCom= 9.97D-01 WtEn= 2.94D-03
 Coeff-Com: -0.102D-02 0.638D-03 0.567D-02-0.981D-03 0.129D-01 0.375D-03
 Coeff-Com: -0.847D-01-0.638D-01 0.602D-01 0.107D+01
 Coeff-En:   0.000D+00 0.000D+00 0.000D+00 0.000D+00 0.000D+00 0.000D+00
 Coeff-En:   0.000D+00 0.000D+00 0.000D+00 0.100D+01
 Coeff:     -0.102D-02 0.636D-03 0.565D-02-0.978D-03 0.128D-01 0.374D-03
 Coeff:     -0.845D-01-0.636D-01 0.600D-01 0.107D+01
 Gap=     0.196 Goal=   None    Shift=    0.000
 Gap=     0.089 Goal=   None    Shift=    0.000
 RMSDP=8.78D-05 MaxDP=7.96D-03 DE=-4.92D-05 OVMax= 1.02D-02

 Cycle  11  Pass 1  IDiag  1:
 RMSU=  1.90D-05    CP:  8.42D-01  1.27D+00  2.78D-01 -3.02D-01  9.30D-01
                    CP:  1.29D+00  1.26D+00  1.68D+00  2.51D+00  1.75D+00
 E= -192.766544755819     Delta-E=       -0.000024342463 Rises=F Damp=F
 DIIS: error= 2.22D-04 at cycle  11 NSaved=  11.
 NSaved=11 IEnMin=11 EnMin= -192.766544755819     IErMin=11 ErrMin= 2.22D-04
 ErrMax= 2.22D-04  0.00D+00 EMaxC= 1.00D-01 BMatC= 1.31D-05 BMatP= 2.21D-05
 IDIUse=3 WtCom= 9.98D-01 WtEn= 2.22D-03
 Coeff-Com: -0.274D-02 0.426D-02 0.307D-02-0.957D-03 0.840D-02 0.234D-01
 Coeff-Com: -0.253D-01-0.733D-01-0.164D+00 0.237D+00 0.990D+00
 Coeff-En:   0.000D+00 0.000D+00 0.000D+00 0.000D+00 0.000D+00 0.000D+00
 Coeff-En:   0.000D+00 0.000D+00 0.000D+00 0.000D+00 0.100D+01
 Coeff:     -0.273D-02 0.425D-02 0.307D-02-0.955D-03 0.838D-02 0.233D-01
 Coeff:     -0.253D-01-0.732D-01-0.164D+00 0.237D+00 0.990D+00
 Gap=     0.196 Goal=   None    Shift=    0.000
 Gap=     0.089 Goal=   None    Shift=    0.000
 RMSDP=7.80D-05 MaxDP=7.92D-03 DE=-2.43D-05 OVMax= 9.51D-03

 Cycle  12  Pass 1  IDiag  1:
 RMSU=  1.36D-05    CP:  8.42D-01  1.28D+00  2.77D-01 -2.97D-01  9.03D-01
                    CP:  1.27D+00  1.28D+00  1.80D+00  3.00D+00  2.47D+00
                    CP:  1.80D+00
 E= -192.766562443770     Delta-E=       -0.000017687951 Rises=F Damp=F
 DIIS: error= 1.92D-04 at cycle  12 NSaved=  12.
 NSaved=12 IEnMin=12 EnMin= -192.766562443770     IErMin=12 ErrMin= 1.92D-04
 ErrMax= 1.92D-04  0.00D+00 EMaxC= 1.00D-01 BMatC= 1.03D-05 BMatP= 1.31D-05
 IDIUse=3 WtCom= 9.98D-01 WtEn= 1.92D-03
 Coeff-Com: -0.167D-02 0.293D-02 0.198D-02-0.756D-03 0.509D-02 0.148D-01
 Coeff-Com: -0.218D-01-0.119D-01-0.893D-01-0.199D+00 0.778D+00 0.522D+00
 Coeff-En:   0.000D+00 0.000D+00 0.000D+00 0.000D+00 0.000D+00 0.000D+00
 Coeff-En:   0.000D+00 0.000D+00 0.000D+00 0.000D+00 0.000D+00 0.100D+01
 Coeff:     -0.166D-02 0.292D-02 0.198D-02-0.755D-03 0.508D-02 0.148D-01
 Coeff:     -0.217D-01-0.119D-01-0.892D-01-0.199D+00 0.776D+00 0.523D+00
 Gap=     0.196 Goal=   None    Shift=    0.000
 Gap=     0.089 Goal=   None    Shift=    0.000
 RMSDP=4.67D-05 MaxDP=4.67D-03 DE=-1.77D-05 OVMax= 5.60D-03

 Cycle  13  Pass 1  IDiag  1:
 RMSU=  1.54D-05    CP:  8.43D-01  1.28D+00  2.76D-01 -2.93D-01  8.87D-01
                    CP:  1.25D+00  1.30D+00  1.88D+00  3.00D+00  2.89D+00
                    CP:  2.41D+00  2.49D+00
 E= -192.766572351699     Delta-E=       -0.000009907928 Rises=F Damp=F
 DIIS: error= 1.68D-04 at cycle  13 NSaved=  13.
 NSaved=13 IEnMin=13 EnMin= -192.766572351699     IErMin=13 ErrMin= 1.68D-04
 ErrMax= 1.68D-04  0.00D+00 EMaxC= 1.00D-01 BMatC= 6.87D-06 BMatP= 1.03D-05
 IDIUse=3 WtCom= 9.98D-01 WtEn= 1.68D-03
 Coeff-Com: -0.214D-02 0.323D-02 0.250D-02-0.414D-03 0.437D-02-0.259D-01
 Coeff-Com: -0.530D-01 0.155D+00 0.320D+00-0.727D+00-0.803D+00-0.115D+01
 Coeff-Com:  0.327D+01
 Coeff-En:   0.000D+00 0.000D+00 0.000D+00 0.000D+00 0.000D+00 0.000D+00
 Coeff-En:   0.000D+00 0.000D+00 0.000D+00 0.000D+00 0.000D+00 0.000D+00
 Coeff-En:   0.100D+01
 Coeff:     -0.214D-02 0.323D-02 0.249D-02-0.413D-03 0.436D-02-0.259D-01
 Coeff:     -0.529D-01 0.155D+00 0.319D+00-0.726D+00-0.802D+00-0.115D+01
 Coeff:      0.327D+01
 Gap=     0.195 Goal=   None    Shift=    0.000
 Gap=     0.089 Goal=   None    Shift=    0.000
 RMSDP=2.09D-04 MaxDP=2.19D-02 DE=-9.91D-06 OVMax= 2.57D-02

 Cycle  14  Pass 1  IDiag  1:
 RMSU=  1.30D-04    CP:  8.45D-01  1.29D+00  2.74D-01 -2.78D-01  8.13D-01
                    CP:  1.20D+00  1.38D+00  2.20D+00  3.00D+00  3.00D+00
                    CP:  3.00D+00  3.00D+00  3.00D+00
 E= -192.766605280297     Delta-E=       -0.000032928598 Rises=F Damp=F
 DIIS: error= 9.90D-05 at cycle  14 NSaved=  14.
 NSaved=14 IEnMin=14 EnMin= -192.766605280297     IErMin=14 ErrMin= 9.90D-05
 ErrMax= 9.90D-05  0.00D+00 EMaxC= 1.00D-01 BMatC= 2.95D-06 BMatP= 6.87D-06
 IDIUse=1 WtCom= 1.00D+00 WtEn= 0.00D+00
 Coeff-Com: -0.981D-03 0.116D-02 0.107D-02-0.127D-03 0.208D-02-0.215D-02
 Coeff-Com: -0.156D-01-0.132D-01 0.452D-01 0.316D+00-0.242D+00-0.150D+01
 Coeff-Com:  0.427D+00 0.199D+01
 Coeff:     -0.981D-03 0.116D-02 0.107D-02-0.127D-03 0.208D-02-0.215D-02
 Coeff:     -0.156D-01-0.132D-01 0.452D-01 0.316D+00-0.242D+00-0.150D+01
 Coeff:      0.427D+00 0.199D+01
 Gap=     0.195 Goal=   None    Shift=    0.000
 Gap=     0.089 Goal=   None    Shift=    0.000
 RMSDP=2.45D-04 MaxDP=2.60D-02 DE=-3.29D-05 OVMax= 2.97D-02

 Cycle  15  Pass 1  IDiag  1:
 RMSU=  3.13D-05    CP:  8.48D-01  1.31D+00  2.71D-01 -2.59D-01  7.24D-01
                    CP:  1.13D+00  1.46D+00  2.57D+00  3.00D+00  3.00D+00
                    CP:  3.00D+00  3.00D+00  3.00D+00  2.32D+00
 E= -192.766622367404     Delta-E=       -0.000017087107 Rises=F Damp=F
 DIIS: error= 3.26D-05 at cycle  15 NSaved=  15.
 NSaved=15 IEnMin=15 EnMin= -192.766622367404     IErMin=15 ErrMin= 3.26D-05
 ErrMax= 3.26D-05  0.00D+00 EMaxC= 1.00D-01 BMatC= 3.16D-07 BMatP= 2.95D-06
 IDIUse=1 WtCom= 1.00D+00 WtEn= 0.00D+00
 Coeff-Com: -0.202D-03 0.299D-03 0.715D-04-0.726D-04 0.932D-03 0.102D-01
 Coeff-Com:  0.761D-02-0.354D-01-0.713D-01 0.945D-01 0.276D+00 0.180D+00
 Coeff-Com: -0.446D+00-0.268D+00 0.125D+01
 Coeff:     -0.202D-03 0.299D-03 0.715D-04-0.726D-04 0.932D-03 0.102D-01
 Coeff:      0.761D-02-0.354D-01-0.713D-01 0.945D-01 0.276D+00 0.180D+00
 Coeff:     -0.446D+00-0.268D+00 0.125D+01
 Gap=     0.195 Goal=   None    Shift=    0.000
 Gap=     0.089 Goal=   None    Shift=    0.000
 RMSDP=2.65D-05 MaxDP=2.52D-03 DE=-1.71D-05 OVMax= 2.79D-03

 Cycle  16  Pass 1  IDiag  1:
 RMSU=  4.27D-06    CP:  8.49D-01  1.31D+00  2.71D-01 -2.57D-01  7.13D-01
                    CP:  1.12D+00  1.46D+00  2.61D+00  3.00D+00  3.00D+00
                    CP:  3.00D+00  3.00D+00  3.00D+00  2.45D+00  1.12D+00
 E= -192.766622875008     Delta-E=       -0.000000507605 Rises=F Damp=F
 DIIS: error= 8.13D-06 at cycle  16 NSaved=  16.
 NSaved=16 IEnMin=16 EnMin= -192.766622875008     IErMin=16 ErrMin= 8.13D-06
 ErrMax= 8.13D-06  0.00D+00 EMaxC= 1.00D-01 BMatC= 3.34D-08 BMatP= 3.16D-07
 IDIUse=1 WtCom= 1.00D+00 WtEn= 0.00D+00
 Coeff-Com:  0.373D-03-0.469D-03-0.112D-03 0.466D-04-0.468D-03 0.966D-03
 Coeff-Com:  0.318D-02-0.481D-02-0.137D-01-0.271D-02 0.441D-01 0.153D+00
 Coeff-Com: -0.134D+00-0.238D+00 0.269D+00 0.924D+00
 Coeff:      0.373D-03-0.469D-03-0.112D-03 0.466D-04-0.468D-03 0.966D-03
 Coeff:      0.318D-02-0.481D-02-0.137D-01-0.271D-02 0.441D-01 0.153D+00
 Coeff:     -0.134D+00-0.238D+00 0.269D+00 0.924D+00
 Gap=     0.195 Goal=   None    Shift=    0.000
 Gap=     0.089 Goal=   None    Shift=    0.000
 RMSDP=2.75D-05 MaxDP=2.92D-03 DE=-5.08D-07 OVMax= 3.35D-03

 Cycle  17  Pass 1  IDiag  1:
 RMSU=  1.26D-06    CP:  8.49D-01  1.31D+00  2.70D-01 -2.55D-01  7.03D-01
                    CP:  1.12D+00  1.47D+00  2.65D+00  3.00D+00  3.00D+00
                    CP:  3.00D+00  3.00D+00  3.00D+00  2.60D+00  1.23D+00
                    CP:  1.08D+00
 E= -192.766623022019     Delta-E=       -0.000000147011 Rises=F Damp=F
 DIIS: error= 2.01D-06 at cycle  17 NSaved=  17.
 NSaved=17 IEnMin=17 EnMin= -192.766623022019     IErMin=17 ErrMin= 2.01D-06
 ErrMax= 2.01D-06  0.00D+00 EMaxC= 1.00D-01 BMatC= 2.98D-09 BMatP= 3.34D-08
 IDIUse=1 WtCom= 1.00D+00 WtEn= 0.00D+00
 Coeff-Com: -0.396D-04 0.381D-04-0.542D-06-0.652D-06 0.632D-04-0.420D-03
 Coeff-Com: -0.225D-03 0.258D-02 0.350D-02-0.180D-01-0.114D-01 0.550D-01
 Coeff-Com:  0.987D-02-0.422D-01-0.719D-01 0.724D-02 0.107D+01
 Coeff:     -0.396D-04 0.381D-04-0.542D-06-0.652D-06 0.632D-04-0.420D-03
 Coeff:     -0.225D-03 0.258D-02 0.350D-02-0.180D-01-0.114D-01 0.550D-01
 Coeff:      0.987D-02-0.422D-01-0.719D-01 0.724D-02 0.107D+01
 Gap=     0.195 Goal=   None    Shift=    0.000
 Gap=     0.089 Goal=   None    Shift=    0.000
 RMSDP=3.75D-06 MaxDP=4.23D-04 DE=-1.47D-07 OVMax= 4.55D-04

 Cycle  18  Pass 1  IDiag  1:
 RMSU=  2.50D-07    CP:  8.49D-01  1.31D+00  2.71D-01 -2.55D-01  7.05D-01
                    CP:  1.12D+00  1.47D+00  2.64D+00  3.00D+00  3.00D+00
                    CP:  3.00D+00  3.00D+00  3.00D+00  2.58D+00  1.22D+00
                    CP:  1.16D+00  1.02D+00
 E= -192.766623023623     Delta-E=       -0.000000001604 Rises=F Damp=F
 DIIS: error= 9.89D-07 at cycle  18 NSaved=  18.
 NSaved=18 IEnMin=18 EnMin= -192.766623023623     IErMin=18 ErrMin= 9.89D-07
 ErrMax= 9.89D-07  0.00D+00 EMaxC= 1.00D-01 BMatC= 5.16D-10 BMatP= 2.98D-09
 IDIUse=1 WtCom= 1.00D+00 WtEn= 0.00D+00
 Coeff-Com: -0.123D-04 0.129D-04-0.190D-04 0.195D-06-0.137D-04 0.379D-04
 Coeff-Com: -0.426D-04-0.203D-03-0.274D-03 0.249D-02 0.528D-03-0.601D-03
 Coeff-Com: -0.624D-02 0.579D-02 0.126D-01-0.930D-01 0.903D-01 0.989D+00
 Coeff:     -0.123D-04 0.129D-04-0.190D-04 0.195D-06-0.137D-04 0.379D-04
 Coeff:     -0.426D-04-0.203D-03-0.274D-03 0.249D-02 0.528D-03-0.601D-03
 Coeff:     -0.624D-02 0.579D-02 0.126D-01-0.930D-01 0.903D-01 0.989D+00
 Gap=     0.195 Goal=   None    Shift=    0.000
 Gap=     0.089 Goal=   None    Shift=    0.000
 RMSDP=1.99D-06 MaxDP=2.22D-04 DE=-1.60D-09 OVMax= 2.53D-04

 Cycle  19  Pass 1  IDiag  1:
 RMSU=  8.80D-08    CP:  8.49D-01  1.31D+00  2.71D-01 -2.55D-01  7.04D-01
                    CP:  1.12D+00  1.47D+00  2.64D+00  3.00D+00  3.00D+00
                    CP:  3.00D+00  3.00D+00  3.00D+00  2.59D+00  1.23D+00
                    CP:  1.15D+00  1.12D+00  1.06D+00
 E= -192.766623024517     Delta-E=       -0.000000000894 Rises=F Damp=F
 DIIS: error= 2.18D-07 at cycle  19 NSaved=  19.
 NSaved=19 IEnMin=19 EnMin= -192.766623024517     IErMin=19 ErrMin= 2.18D-07
 ErrMax= 2.18D-07  0.00D+00 EMaxC= 1.00D-01 BMatC= 2.37D-11 BMatP= 5.16D-10
 IDIUse=1 WtCom= 1.00D+00 WtEn= 0.00D+00
 Coeff-Com:  0.234D-06 0.161D-05-0.381D-05-0.129D-06-0.414D-05 0.395D-04
 Coeff-Com:  0.130D-04-0.127D-03-0.361D-03 0.569D-03 0.175D-02 0.584D-03
 Coeff-Com: -0.172D-02-0.298D-02 0.825D-02-0.785D-02-0.705D-01 0.800D-01
 Coeff-Com:  0.992D+00
 Coeff:      0.234D-06 0.161D-05-0.381D-05-0.129D-06-0.414D-05 0.395D-04
 Coeff:      0.130D-04-0.127D-03-0.361D-03 0.569D-03 0.175D-02 0.584D-03
 Coeff:     -0.172D-02-0.298D-02 0.825D-02-0.785D-02-0.705D-01 0.800D-01
 Coeff:      0.992D+00
 Gap=     0.195 Goal=   None    Shift=    0.000
 Gap=     0.089 Goal=   None    Shift=    0.000
 RMSDP=2.14D-07 MaxDP=2.18D-05 DE=-8.94D-10 OVMax= 2.43D-05

 Cycle  20  Pass 1  IDiag  1:
 RMSU=  2.20D-08    CP:  8.49D-01  1.31D+00  2.71D-01 -2.55D-01  7.04D-01
                    CP:  1.12D+00  1.47D+00  2.64D+00  3.00D+00  3.00D+00
                    CP:  3.00D+00  3.00D+00  3.00D+00  2.59D+00  1.23D+00
                    CP:  1.16D+00  1.13D+00  1.13D+00  1.08D+00
 E= -192.766623024542     Delta-E=       -0.000000000025 Rises=F Damp=F
 DIIS: error= 7.14D-08 at cycle  20 NSaved=  20.
 NSaved=20 IEnMin=20 EnMin= -192.766623024542     IErMin=20 ErrMin= 7.14D-08
 ErrMax= 7.14D-08  0.00D+00 EMaxC= 1.00D-01 BMatC= 2.51D-12 BMatP= 2.37D-11
 IDIUse=1 WtCom= 1.00D+00 WtEn= 0.00D+00
 Coeff-Com:  0.237D-05-0.282D-05 0.243D-06 0.264D-06 0.466D-06 0.688D-05
 Coeff-Com:  0.605D-05 0.916D-06-0.767D-04-0.132D-03 0.383D-03 0.607D-03
 Coeff-Com: -0.561D-04-0.171D-02 0.138D-02 0.706D-02-0.205D-01-0.836D-01
 Coeff-Com:  0.169D+00 0.928D+00
 Coeff:      0.237D-05-0.282D-05 0.243D-06 0.264D-06 0.466D-06 0.688D-05
 Coeff:      0.605D-05 0.916D-06-0.767D-04-0.132D-03 0.383D-03 0.607D-03
 Coeff:     -0.561D-04-0.171D-02 0.138D-02 0.706D-02-0.205D-01-0.836D-01
 Coeff:      0.169D+00 0.928D+00
 Gap=     0.195 Goal=   None    Shift=    0.000
 Gap=     0.089 Goal=   None    Shift=    0.000
 RMSDP=1.35D-08 MaxDP=9.71D-07 DE=-2.52D-11 OVMax= 1.39D-06

 Cycle  21  Pass 1  IDiag  1:
 Restarting incremental Fock formation.
 E= -192.766623024538     Delta-E=        0.000000000004 Rises=F Damp=F
 DIIS: error= 3.58D-08 at cycle  21 NSaved=  20.
 NSaved=20 IEnMin=19 EnMin= -192.766623024542     IErMin=20 ErrMin= 3.58D-08
 ErrMax= 3.58D-08  0.00D+00 EMaxC= 1.00D-01 BMatC= 2.68D-13 BMatP= 2.51D-12
 IDIUse=1 WtCom= 1.00D+00 WtEn= 0.00D+00
 Coeff-Com: -0.338D-07-0.155D-06 0.349D-06 0.127D-05 0.154D-05 0.295D-05
 Coeff-Com:  0.122D-04 0.156D-05-0.149D-03-0.244D-04 0.411D-03-0.210D-04
 Coeff-Com: -0.302D-03-0.296D-03 0.892D-03 0.980D-02-0.142D-01-0.113D+00
 Coeff-Com: -0.576D-01 0.117D+01
 Coeff:     -0.338D-07-0.155D-06 0.349D-06 0.127D-05 0.154D-05 0.295D-05
 Coeff:      0.122D-04 0.156D-05-0.149D-03-0.244D-04 0.411D-03-0.210D-04
 Coeff:     -0.302D-03-0.296D-03 0.892D-03 0.980D-02-0.142D-01-0.113D+00
 Coeff:     -0.576D-01 0.117D+01
 Gap=     0.195 Goal=   None    Shift=    0.000
 Gap=     0.089 Goal=   None    Shift=    0.000
 RMSDP=9.71D-09 MaxDP=9.86D-07 DE= 3.98D-12 OVMax= 9.71D-07

 SCF Done:  E(UB3LYP) =  -192.766623025     A.U. after   21 cycles
            NFock= 21  Conv=0.97D-08     -V/T= 2.0047
 <Sx>= 0.0000 <Sy>= 0.0000 <Sz>= 1.0000 <S**2>= 2.0446 S= 1.0148
 <L.S>= 0.000000000000E+00
 KE= 1.918641604517D+02 PE=-6.953531771760D+02 EE= 1.863677030521D+02
 Annihilation of the first spin contaminant:
 S**2 before annihilation     2.0446,   after     2.0008
 Leave Link  502 at Wed Jul 20 06:21:16 2016, MaxMem=    33554432 cpu:      1087.9
 (Enter /home/proyectos/fulerenos/M3C-v2.0/M3C-deps_CCC/g09-AM64L-G09RevC.01/l801.exe)
 DoSCS=F DFT=T ScalE2(SS,OS)=  1.000000  1.000000
 Range of M.O.s used for correlation:     1   234
 NBasis=   235 NAE=    18 NBE=    16 NFC=     0 NFV=     0
 NROrb=    234 NOA=    18 NOB=    16 NVA=   216 NVB=   218

 **** Warning!!: The largest alpha MO coefficient is  0.15738158D+03


 **** Warning!!: The largest beta MO coefficient is  0.14218336D+03


 **** Warning!!: The smallest beta delta epsilon is  0.89429649D-01

 Leave Link  801 at Wed Jul 20 06:21:16 2016, MaxMem=    33554432 cpu:         0.1
 (Enter /home/proyectos/fulerenos/M3C-v2.0/M3C-deps_CCC/g09-AM64L-G09RevC.01/l1101.exe)
 Using compressed storage, NAtomX=     9.
 Will process     10 centers per pass.
 Leave Link 1101 at Wed Jul 20 06:21:17 2016, MaxMem=    33554432 cpu:         1.0
 (Enter /home/proyectos/fulerenos/M3C-v2.0/M3C-deps_CCC/g09-AM64L-G09RevC.01/l1102.exe)
 Symmetrizing basis deriv contribution to polar:
 IMax=3 JMax=2 DiffMx= 0.00D+00
 Leave Link 1102 at Wed Jul 20 06:21:17 2016, MaxMem=    33554432 cpu:         0.2
 (Enter /home/proyectos/fulerenos/M3C-v2.0/M3C-deps_CCC/g09-AM64L-G09RevC.01/l1110.exe)
 Forming Gx(P) for the SCF density, NAtomX=     9.
 Integral derivatives from FoFJK, PRISM(SPDF).
 Do as many integral derivatives as possible in FoFJK.
 G2DrvN: MDV=      33554256.
 G2DrvN: will do    10 centers at a time, making    1 passes.
 Calling FoFCou, ICntrl=  3107 FMM=F I1Cent=   0 AccDes= 0.00D+00.
 FoFJK:  IHMeth= 1 ICntrl=    3107 DoSepK=F KAlg= 0 I1Cent=   0 FoldK=F
 IRaf=         0 NMat=   1 IRICut=       1 DoRegI=T DoRafI=F ISym2E= 0.
 FoFCou: FMM=F IPFlag=           0 FMFlag=      100000 FMFlg1=           0
         NFxFlg=           0 DoJE=F BraDBF=F KetDBF=F FulRan=T
         wScrn=  0.000000 ICntrl=    3107 IOpCl=  1 I1Cent=           0 NGrid=           0
         NMat0=    1 NMatS0=      1 NMatT0=    0 NMatD0=    1 NMtDS0=    0 NMtDT0=    0
 Symmetry not used in FoFCou.
 End of G2Drv F.D. properties file   721 does not exist.
 End of G2Drv F.D. properties file   722 does not exist.
 End of G2Drv F.D. properties file   788 does not exist.
 Leave Link 1110 at Wed Jul 20 06:36:19 2016, MaxMem=    33554432 cpu:       900.9
 (Enter /home/proyectos/fulerenos/M3C-v2.0/M3C-deps_CCC/g09-AM64L-G09RevC.01/l1002.exe)
 Minotr:  UHF open shell wavefunction.
          IDoAtm=111111111
          Direct CPHF calculation.
          Differentiating once with respect to electric field.
                with respect to dipole field.
          Differentiating once with respect to nuclear coordinates.
          Requested convergence is 1.0D-08 RMS, and 1.0D-07 maximum.
          Secondary convergence is 1.0D-12 RMS, and 1.0D-12 maximum.
          NewPWx=T KeepS1=F KeepF1=F KeepIn=T MapXYZ=F SortEE=F KeepMc=T.
          MDV=      33553870 using IRadAn=       2.
 Generate precomputed XC quadrature information.
          Solving linear equations simultaneously, MaxMat=       0.
 FoFJK:  IHMeth= 1 ICntrl=       0 DoSepK=F KAlg= 0 I1Cent=   0 FoldK=F
 IRaf= 970000000 NMat=  30 IRICut=      75 DoRegI=T DoRafI=T ISym2E= 2.
 FoFCou: FMM=F IPFlag=           0 FMFlag=      100000 FMFlg1=           0
         NFxFlg=           0 DoJE=F BraDBF=F KetDBF=F FulRan=T
         wScrn=  0.000000 ICntrl=       0 IOpCl=  1 I1Cent=           0 NGrid=           0
         NMat0=   30 NMatS0=     30 NMatT0=    0 NMatD0=   30 NMtDS0=    0 NMtDT0=    0
 Integrals replicated using symmetry in FoFCou.
          There are    30 degrees of freedom in the 1st order CPHF.  IDoFFX=6 NUNeed=     3.
     27 vectors produced by pass  0 Test12= 2.46D-14 3.33D-09 XBig12= 5.45D+02 1.38D+01.
 AX will form    27 AO Fock derivatives at one time.
     27 vectors produced by pass  1 Test12= 2.46D-14 3.33D-09 XBig12= 1.98D+02 4.11D+00.
     27 vectors produced by pass  2 Test12= 2.46D-14 3.33D-09 XBig12= 2.70D+01 1.21D+00.
     27 vectors produced by pass  3 Test12= 2.46D-14 3.33D-09 XBig12= 8.74D-01 1.90D-01.
     27 vectors produced by pass  4 Test12= 2.46D-14 3.33D-09 XBig12= 8.58D-03 1.28D-02.
     27 vectors produced by pass  5 Test12= 2.46D-14 3.33D-09 XBig12= 5.41D-05 9.62D-04.
     24 vectors produced by pass  6 Test12= 2.46D-14 3.33D-09 XBig12= 2.21D-07 5.10D-05.
     10 vectors produced by pass  7 Test12= 2.46D-14 3.33D-09 XBig12= 9.21D-10 4.28D-06.
      3 vectors produced by pass  8 Test12= 2.46D-14 3.33D-09 XBig12= 3.60D-12 2.71D-07.
      2 vectors produced by pass  9 Test12= 2.46D-14 3.33D-09 XBig12= 2.29D-13 1.28D-07.
      1 vectors produced by pass 10 Test12= 2.46D-14 3.33D-09 XBig12= 4.49D-15 2.19D-08.
 InvSVY:  IOpt=1 It=  1 EMax= 4.56D-15
 Solved reduced A of dimension   202 with    30 vectors.
 FullF1:  Do perturbations    1 to     3.
 Isotropic polarizability for W=    0.000000       83.71 Bohr**3.
 End of Minotr F.D. properties file   721 does not exist.
 End of Minotr F.D. properties file   722 does not exist.
 End of Minotr F.D. properties file   788 does not exist.
 Leave Link 1002 at Wed Jul 20 07:22:23 2016, MaxMem=    33554432 cpu:      2763.0
 (Enter /home/proyectos/fulerenos/M3C-v2.0/M3C-deps_CCC/g09-AM64L-G09RevC.01/l601.exe)
 Copying SCF densities to generalized density rwf, IOpCl= 1 IROHF=0.

 **********************************************************************

            Population analysis using the SCF density.

 **********************************************************************

 Orbital symmetries:
 Alpha Orbitals:
       Occupied  (A) (A) (A) (A) (A) (A) (A) (A) (A) (A) (A) (A)
                 (A) (A) (A) (A) (A) (A)
       Virtual   (A) (A) (A) (A) (A) (A) (A) (A) (A) (A) (A) (A)
                 (A) (A) (A) (A) (A) (A) (A) (A) (A) (A) (A) (A)
                 (A) (A) (A) (A) (A) (A) (A) (A) (A) (A) (A) (A)
                 (A) (A) (A) (A) (A) (A) (A) (A) (A) (A) (A) (A)
                 (A) (A) (A) (A) (A) (A) (A) (A) (A) (A) (A) (A)
                 (A) (A) (A) (A) (A) (A) (A) (A) (A) (A) (A) (A)
                 (A) (A) (A) (A) (A) (A) (A) (A) (A) (A) (A) (A)
                 (A) (A) (A) (A) (A) (A) (A) (A) (A) (A) (A) (A)
                 (A) (A) (A) (A) (A) (A) (A) (A) (A) (A) (A) (A)
                 (A) (A) (A) (A) (A) (A) (A) (A) (A) (A) (A) (A)
                 (A) (A) (A) (A) (A) (A) (A) (A) (A) (A) (A) (A)
                 (A) (A) (A) (A) (A) (A) (A) (A) (A) (A) (A) (A)
                 (A) (A) (A) (A) (A) (A) (A) (A) (A) (A) (A) (A)
                 (A) (A) (A) (A) (A) (A) (A) (A) (A) (A) (A) (A)
                 (A) (A) (A) (A) (A) (A) (A) (A) (A) (A) (A) (A)
                 (A) (A) (A) (A) (A) (A) (A) (A) (A) (A) (A) (A)
                 (A) (A) (A) (A) (A) (A) (A) (A) (A) (A) (A) (A)
                 (A) (A) (A) (A) (A) (A) (A) (A) (A) (A) (A) (A)
 Beta  Orbitals:
       Occupied  (A) (A) (A) (A) (A) (A) (A) (A) (A) (A) (A) (A)
                 (A) (A) (A) (A)
       Virtual   (A) (A) (A) (A) (A) (A) (A) (A) (A) (A) (A) (A)
                 (A) (A) (A) (A) (A) (A) (A) (A) (A) (A) (A) (A)
                 (A) (A) (A) (A) (A) (A) (A) (A) (A) (A) (A) (A)
                 (A) (A) (A) (A) (A) (A) (A) (A) (A) (A) (A) (A)
                 (A) (A) (A) (A) (A) (A) (A) (A) (A) (A) (A) (A)
                 (A) (A) (A) (A) (A) (A) (A) (A) (A) (A) (A) (A)
                 (A) (A) (A) (A) (A) (A) (A) (A) (A) (A) (A) (A)
                 (A) (A) (A) (A) (A) (A) (A) (A) (A) (A) (A) (A)
                 (A) (A) (A) (A) (A) (A) (A) (A) (A) (A) (A) (A)
                 (A) (A) (A) (A) (A) (A) (A) (A) (A) (A) (A) (A)
                 (A) (A) (A) (A) (A) (A) (A) (A) (A) (A) (A) (A)
                 (A) (A) (A) (A) (A) (A) (A) (A) (A) (A) (A) (A)
                 (A) (A) (A) (A) (A) (A) (A) (A) (A) (A) (A) (A)
                 (A) (A) (A) (A) (A) (A) (A) (A) (A) (A) (A) (A)
                 (A) (A) (A) (A) (A) (A) (A) (A) (A) (A) (A) (A)
                 (A) (A) (A) (A) (A) (A) (A) (A) (A) (A) (A) (A)
                 (A) (A) (A) (A) (A) (A) (A) (A) (A) (A) (A) (A)
                 (A) (A) (A) (A) (A) (A) (A) (A) (A) (A) (A) (A)
                 (A) (A)
 The electronic state is 3-A.
 Alpha  occ. eigenvalues --  -10.23753 -10.22010 -10.21889 -10.20229 -10.19310
 Alpha  occ. eigenvalues --   -0.84787  -0.79153  -0.71825  -0.59781  -0.54200
 Alpha  occ. eigenvalues --   -0.47686  -0.43996  -0.39210  -0.38411  -0.37710
 Alpha  occ. eigenvalues --   -0.31421  -0.31163  -0.21664
 Alpha virt. eigenvalues --   -0.02158  -0.01812  -0.00085   0.00865   0.02444
 Alpha virt. eigenvalues --    0.04532   0.04533   0.05084   0.05701   0.07347
 Alpha virt. eigenvalues --    0.08245   0.08369   0.08912   0.10952   0.11133
 Alpha virt. eigenvalues --    0.12082   0.12558   0.13537   0.13970   0.14160
 Alpha virt. eigenvalues --    0.15100   0.15732   0.17886   0.18415   0.20430
 Alpha virt. eigenvalues --    0.21698   0.22299   0.24612   0.25054   0.28098
 Alpha virt. eigenvalues --    0.28280   0.29772   0.33591   0.34315   0.35203
 Alpha virt. eigenvalues --    0.36411   0.37701   0.38218   0.39359   0.40592
 Alpha virt. eigenvalues --    0.40922   0.42821   0.43806   0.46251   0.47412
 Alpha virt. eigenvalues --    0.47432   0.49996   0.50022   0.50609   0.51261
 Alpha virt. eigenvalues --    0.54071   0.55741   0.56054   0.56165   0.57853
 Alpha virt. eigenvalues --    0.59013   0.60023   0.64023   0.65746   0.67166
 Alpha virt. eigenvalues --    0.68059   0.69840   0.70308   0.72428   0.73229
 Alpha virt. eigenvalues --    0.74593   0.77443   0.82439   0.84885   0.87050
 Alpha virt. eigenvalues --    0.88234   0.95631   0.97416   0.97866   0.99543
 Alpha virt. eigenvalues --    1.02897   1.03644   1.05910   1.09451   1.13305
 Alpha virt. eigenvalues --    1.14432   1.15677   1.15814   1.19878   1.22430
 Alpha virt. eigenvalues --    1.24852   1.26234   1.32320   1.33623   1.37228
 Alpha virt. eigenvalues --    1.38188   1.38672   1.40001   1.42118   1.45032
 Alpha virt. eigenvalues --    1.47939   1.50713   1.52612   1.55466   1.61178
 Alpha virt. eigenvalues --    1.65581   1.66453   1.68605   1.71363   1.76479
 Alpha virt. eigenvalues --    1.78901   1.85244   1.91309   1.94327   2.00380
 Alpha virt. eigenvalues --    2.06220   2.09300   2.11647   2.14229   2.30734
 Alpha virt. eigenvalues --    2.32836   2.39636   2.42976   2.52750   2.60273
 Alpha virt. eigenvalues --    2.61224   2.62853   2.63498   2.65825   2.70292
 Alpha virt. eigenvalues --    2.71449   2.72376   2.76412   2.78665   2.83007
 Alpha virt. eigenvalues --    2.84839   2.85773   2.86510   2.88819   2.90196
 Alpha virt. eigenvalues --    2.91390   2.93055   2.94636   2.95092   2.99815
 Alpha virt. eigenvalues --    3.01465   3.02733   3.11524   3.11796   3.15776
 Alpha virt. eigenvalues --    3.18873   3.23997   3.27515   3.30952   3.36656
 Alpha virt. eigenvalues --    3.47113   3.49832   3.52292   3.54909   3.57568
 Alpha virt. eigenvalues --    3.61826   3.68121   3.77036   3.80765   3.89259
 Alpha virt. eigenvalues --    3.96660   4.00389   4.06930   4.11810   4.12057
 Alpha virt. eigenvalues --    4.16603   4.18862   4.25533   4.26346   4.30386
 Alpha virt. eigenvalues --    4.39544   4.41120   4.43494   4.54551   4.60187
 Alpha virt. eigenvalues --    4.66019   4.76403   5.00183   5.18366   5.37755
 Alpha virt. eigenvalues --    5.38051   5.60201   5.72354   5.81548   6.03661
 Alpha virt. eigenvalues --    6.17134   6.91943   6.94149   7.02646   7.05698
 Alpha virt. eigenvalues --    7.06935   7.10459   7.12309   7.16079   7.20940
 Alpha virt. eigenvalues --    7.25129   7.25679   7.28751   7.33528   7.40360
 Alpha virt. eigenvalues --    7.48787   7.56857   7.68042   7.69479   7.79786
 Alpha virt. eigenvalues --    7.90042   7.97009   8.09634   8.27133   8.31611
 Alpha virt. eigenvalues --    8.54019  23.88606  24.45724  25.37792  25.64459
 Alpha virt. eigenvalues --   26.37463
  Beta  occ. eigenvalues --  -10.21802 -10.21631 -10.21194 -10.20467 -10.18668
  Beta  occ. eigenvalues --   -0.83382  -0.76970  -0.68852  -0.58978  -0.53394
  Beta  occ. eigenvalues --   -0.46999  -0.43252  -0.38811  -0.35738  -0.29473
  Beta  occ. eigenvalues --   -0.28633
  Beta virt. eigenvalues --   -0.19690  -0.11201  -0.00869  -0.00025   0.00475
  Beta virt. eigenvalues --    0.01266   0.03190   0.04671   0.05008   0.05770
  Beta virt. eigenvalues --    0.06555   0.07494   0.08401   0.09272   0.09727
  Beta virt. eigenvalues --    0.11361   0.11987   0.12275   0.12704   0.13808
  Beta virt. eigenvalues --    0.14569   0.15223   0.15437   0.15918   0.17916
  Beta virt. eigenvalues --    0.18465   0.20688   0.22019   0.22511   0.25180
  Beta virt. eigenvalues --    0.25553   0.28452   0.28913   0.30439   0.34527
  Beta virt. eigenvalues --    0.34941   0.35503   0.36901   0.38410   0.38482
  Beta virt. eigenvalues --    0.40521   0.41483   0.41858   0.43876   0.44900
  Beta virt. eigenvalues --    0.47662   0.48959   0.49053   0.50267   0.51416
  Beta virt. eigenvalues --    0.51751   0.52063   0.55334   0.56464   0.56719
  Beta virt. eigenvalues --    0.57416   0.58857   0.59329   0.60739   0.64676
  Beta virt. eigenvalues --    0.66095   0.67782   0.69226   0.70273   0.70837
  Beta virt. eigenvalues --    0.72869   0.73536   0.75241   0.78006   0.82837
  Beta virt. eigenvalues --    0.85540   0.88153   0.89598   0.96667   0.98039
  Beta virt. eigenvalues --    0.98232   1.00204   1.03670   1.04184   1.06140
  Beta virt. eigenvalues --    1.11285   1.14003   1.15069   1.16027   1.16260
  Beta virt. eigenvalues --    1.20580   1.23448   1.26031   1.26818   1.32664
  Beta virt. eigenvalues --    1.35007   1.38565   1.38924   1.39302   1.41748
  Beta virt. eigenvalues --    1.42616   1.46072   1.48425   1.52928   1.55086
  Beta virt. eigenvalues --    1.56923   1.62900   1.68241   1.68415   1.71848
  Beta virt. eigenvalues --    1.73428   1.78437   1.80575   1.85850   1.92396
  Beta virt. eigenvalues --    1.96341   2.01510   2.08949   2.10778   2.13868
  Beta virt. eigenvalues --    2.17636   2.33323   2.33557   2.40774   2.43712
  Beta virt. eigenvalues --    2.54075   2.60937   2.63495   2.65339   2.66785
  Beta virt. eigenvalues --    2.67784   2.72112   2.72449   2.74007   2.77912
  Beta virt. eigenvalues --    2.80821   2.85501   2.86217   2.87346   2.88604
  Beta virt. eigenvalues --    2.89120   2.91795   2.93715   2.95023   2.96812
  Beta virt. eigenvalues --    2.97673   3.00567   3.03402   3.05168   3.12420
  Beta virt. eigenvalues --    3.14248   3.17459   3.19623   3.25588   3.29209
  Beta virt. eigenvalues --    3.32249   3.38043   3.47611   3.51890   3.53532
  Beta virt. eigenvalues --    3.56692   3.58676   3.62830   3.69195   3.79068
  Beta virt. eigenvalues --    3.81917   3.90693   3.97630   4.04418   4.07339
  Beta virt. eigenvalues --    4.12783   4.12840   4.18082   4.18841   4.25802
  Beta virt. eigenvalues --    4.26993   4.30804   4.39910   4.41433   4.44358
  Beta virt. eigenvalues --    4.55654   4.60436   4.66995   4.76796   5.01902
  Beta virt. eigenvalues --    5.19136   5.38716   5.40020   5.60416   5.72704
  Beta virt. eigenvalues --    5.82054   6.04206   6.17941   6.95476   6.98129
  Beta virt. eigenvalues --    7.05299   7.08006   7.08816   7.11845   7.14009
  Beta virt. eigenvalues --    7.18804   7.23526   7.27938   7.30502   7.32080
  Beta virt. eigenvalues --    7.37343   7.42049   7.51982   7.57909   7.70935
  Beta virt. eigenvalues --    7.71262   7.80200   7.91036   7.97125   8.10381
  Beta virt. eigenvalues --    8.28128   8.31910   8.55419  23.89597  24.46250
  Beta virt. eigenvalues --   25.38599  25.64721  26.39061
          Condensed to atoms (all electrons):
               1          2          3          4          5          6
     1  C    8.928379  -2.649861   0.064408   0.000227  -0.004963  -0.161672
     2  C   -2.649861   9.080520   0.005617  -0.004779   0.015238  -0.146302
     3  C    0.064408   0.005617   6.483636   0.458007   0.467014  -0.671117
     4  H    0.000227  -0.004779   0.458007   0.484805  -0.022282  -0.084257
     5  H   -0.004963   0.015238   0.467014  -0.022282   0.496609  -0.070122
     6  C   -0.161672  -0.146302  -0.671117  -0.084257  -0.070122   6.583910
     7  H   -0.022712   0.041218  -0.146121   0.001043   0.000992   0.512636
     8  C    0.198650  -0.746651  -0.204116   0.000410  -0.012490   0.237758
     9  H    0.062895  -0.096757   0.059070  -0.000996  -0.005624  -0.201488
               7          8          9
     1  C   -0.022712   0.198650   0.062895
     2  C    0.041218  -0.746651  -0.096757
     3  C   -0.146121  -0.204116   0.059070
     4  H    0.001043   0.000410  -0.000996
     5  H    0.000992  -0.012490  -0.005624
     6  C    0.512636   0.237758  -0.201488
     7  H    0.521006  -0.059860   0.001237
     8  C   -0.059860   6.254615   0.499385
     9  H    0.001237   0.499385   0.539251
          Atomic-Atomic Spin Densities.
               1          2          3          4          5          6
     1  C    1.590886  -0.143696  -0.000260   0.000135   0.000389   0.021174
     2  C   -0.143696   0.017467   0.010101  -0.000907   0.002126  -0.060454
     3  C   -0.000260   0.010101   0.565080   0.005188   0.009503  -0.029609
     4  H    0.000135  -0.000907   0.005188  -0.023955   0.003986  -0.001448
     5  H    0.000389   0.002126   0.009503   0.003986  -0.020254  -0.006257
     6  C    0.021174  -0.060454  -0.029609  -0.001448  -0.006257  -0.189203
     7  H   -0.001839  -0.000073  -0.003310   0.000244  -0.000256   0.006851
     8  C   -0.243845   0.178006  -0.057365   0.000054  -0.001189   0.021977
     9  H   -0.012120   0.001142  -0.005985   0.000375  -0.000231   0.012069
               7          8          9
     1  C   -0.001839  -0.243845  -0.012120
     2  C   -0.000073   0.178006   0.001142
     3  C   -0.003310  -0.057365  -0.005985
     4  H    0.000244   0.000054   0.000375
     5  H   -0.000256  -0.001189  -0.000231
     6  C    0.006851   0.021977   0.012069
     7  H    0.005300  -0.002476  -0.000140
     8  C   -0.002476   0.642976   0.014499
     9  H   -0.000140   0.014499  -0.021015
 Mulliken charges and spin densities:
               1          2
     1  C   -0.415350   1.210825
     2  C    0.501757   0.003713
     3  C   -0.516398   0.493343
     4  H    0.167822  -0.016329
     5  H    0.135628  -0.012184
     6  C    0.000654  -0.224900
     7  H    0.150560   0.004301
     8  C   -0.167701   0.552637
     9  H    0.143028  -0.011406
 Sum of Mulliken charges =  -0.00000   2.00000
 Mulliken charges and spin densities with hydrogens summed into heavy atoms:
               1          2
     1  C   -0.415350   1.210825
     2  C    0.501757   0.003713
     3  C   -0.212948   0.464830
     6  C    0.151214  -0.220599
     8  C   -0.024673   0.541231
 APT charges:
               1
     1  C   -1.540236
     2  C    1.451478
     3  C   -0.039373
     4  H    0.031138
     5  H    0.038191
     6  C   -0.043904
     7  H    0.044872
     8  C    0.027398
     9  H    0.030436
 Sum of APT charges =   0.00000
 APT charges with hydrogens summed into heavy atoms:
               1
     1  C   -1.540236
     2  C    1.451478
     3  C    0.029956
     6  C    0.000967
     8  C    0.057834
 Electronic spatial extent (au):  <R**2>=            489.0989
 Charge=             -0.0000 electrons
 Dipole moment (field-independent basis, Debye):
    X=              2.1405    Y=             -0.1070    Z=              0.0003  Tot=              2.1431
 Quadrupole moment (field-independent basis, Debye-Ang):
   XX=            -32.8282   YY=            -27.3366   ZZ=            -33.0084
   XY=              1.2879   XZ=              0.0001   YZ=              0.0004
 Traceless Quadrupole moment (field-independent basis, Debye-Ang):
   XX=             -1.7705   YY=              3.7211   ZZ=             -1.9506
   XY=              1.2879   XZ=              0.0001   YZ=              0.0004
 Octapole moment (field-independent basis, Debye-Ang**2):
  XXX=             30.2792  YYY=              1.2816  ZZZ=              0.0007  XYY=              5.3333
  XXY=             -5.6006  XXZ=              0.0039  XZZ=              1.5959  YZZ=             -0.0041
  YYZ=              0.0008  XYZ=             -0.0007
 Hexadecapole moment (field-independent basis, Debye-Ang**3):
 XXXX=           -652.3705 YYYY=            -63.8875 ZZZZ=            -40.8151 XXXY=             12.5497
 XXXZ=             -0.0420 YYYX=              1.0281 YYYZ=             -0.0000 ZZZX=             -0.0493
 ZZZY=             -0.0005 XXYY=           -111.9202 XXZZ=           -123.0756 YYZZ=            -19.4927
 XXYZ=              0.0022 YYXZ=             -0.0139 ZZXY=              0.4375
 N-N= 1.243546906477D+02 E-N=-6.953531779254D+02  KE= 1.918641604517D+02
  Exact polarizability: 162.135   0.305  46.938   0.018   0.000  42.064
 Approx polarizability: 216.635   3.412  67.377   0.024   0.001  56.819
                          Isotropic Fermi Contact Couplings
        Atom                 a.u.       MegaHertz       Gauss      10(-4) cm-1
     1  C(13)              0.57491     323.15650     115.31027     107.79341
     2  C(13)              0.03989      22.42106       8.00039       7.47886
     3  C(13)              0.02844      15.98802       5.70492       5.33303
     4  H(1)              -0.00573     -12.81695      -4.57341      -4.27528
     5  H(1)              -0.00585     -13.06640      -4.66242      -4.35848
     6  C(13)             -0.01628      -9.14928      -3.26469      -3.05187
     7  H(1)               0.00194       4.33002       1.54506       1.44434
     8  C(13)              0.03551      19.96085       7.12253       6.65822
     9  H(1)              -0.00352      -7.87155      -2.80876      -2.62567
 --------------------------------------------------------
       Center         ----  Spin Dipole Couplings  ----
                      3XX-RR        3YY-RR        3ZZ-RR
 --------------------------------------------------------
     1   Atom        0.114660     -0.221172      0.106511
     2   Atom        0.300915      0.083022     -0.383937
     3   Atom       -0.254409     -0.264932      0.519341
     4   Atom        0.007817     -0.007709     -0.000108
     5   Atom       -0.023590      0.026599     -0.003009
     6   Atom        0.134378      0.069195     -0.203573
     7   Atom        0.015296     -0.003103     -0.012193
     8   Atom       -0.297318     -0.337970      0.635289
     9   Atom       -0.029436      0.037475     -0.008039
 --------------------------------------------------------
                        XY            XZ            YZ
 --------------------------------------------------------
     1   Atom        0.617868      0.000025      0.000080
     2   Atom       -0.249216      0.000093     -0.000020
     3   Atom       -0.003359     -0.000116     -0.000030
     4   Atom       -0.033343     -0.000000     -0.000005
     5   Atom        0.012982     -0.000003      0.000003
     6   Atom       -0.018508      0.000050      0.000008
     7   Atom       -0.006132      0.000004     -0.000001
     8   Atom       -0.004058     -0.000140     -0.000037
     9   Atom        0.018038     -0.000003      0.000004
 --------------------------------------------------------


 ---------------------------------------------------------------------------------
              Anisotropic Spin Dipole Couplings in Principal Axis System
 ---------------------------------------------------------------------------------

       Atom             a.u.   MegaHertz   Gauss  10(-4) cm-1        Axes

              Baa    -0.6935   -93.066   -33.208   -31.043 -0.6073  0.7944 -0.0001
     1 C(13)  Bbb     0.1065    14.293     5.100     4.768 -0.0002 -0.0000  1.0000
              Bcc     0.5870    78.773    28.108    26.276  0.7944  0.6073  0.0001
 
              Baa    -0.3839   -51.521   -18.384   -17.185 -0.0002 -0.0000  1.0000
     2 C(13)  Bbb    -0.0800   -10.738    -3.832    -3.582  0.5475  0.8368  0.0001
              Bcc     0.4640    62.259    22.215    20.767  0.8368 -0.5475  0.0001
 
              Baa    -0.2659   -35.683   -12.733   -11.903  0.2803  0.9599  0.0001
     3 C(13)  Bbb    -0.2534   -34.008   -12.135   -11.344  0.9599 -0.2803  0.0001
              Bcc     0.5193    69.691    24.867    23.246 -0.0002 -0.0000  1.0000
 
              Baa    -0.0342   -18.237    -6.507    -6.083  0.6218  0.7832  0.0001
     4 H(1)   Bbb    -0.0001    -0.058    -0.021    -0.019 -0.0002 -0.0000  1.0000
              Bcc     0.0343    18.295     6.528     6.102  0.7832 -0.6218  0.0001
 
              Baa    -0.0267   -14.272    -5.093    -4.761  0.9716 -0.2364  0.0001
     5 H(1)   Bbb    -0.0030    -1.605    -0.573    -0.535 -0.0002 -0.0000  1.0000
              Bcc     0.0298    15.877     5.665     5.296  0.2364  0.9716  0.0001
 
              Baa    -0.2036   -27.318    -9.748    -9.112 -0.0002 -0.0000  1.0000
     6 C(13)  Bbb     0.0643     8.629     3.079     2.878  0.2554  0.9668  0.0001
              Bcc     0.1393    18.688     6.668     6.234  0.9668 -0.2554  0.0001
 
              Baa    -0.0122    -6.506    -2.321    -2.170 -0.0002 -0.0000  1.0000
     7 H(1)   Bbb    -0.0050    -2.646    -0.944    -0.883  0.2898  0.9571  0.0001
              Bcc     0.0172     9.152     3.266     3.053  0.9571 -0.2898  0.0001
 
              Baa    -0.3384   -45.406   -16.202   -15.146  0.0984  0.9952  0.0001
     8 C(13)  Bbb    -0.2969   -39.843   -14.217   -13.290  0.9952 -0.0984  0.0001
              Bcc     0.6353    85.250    30.419    28.436 -0.0002 -0.0000  1.0000
 
              Baa    -0.0340   -18.135    -6.471    -6.049  0.9696 -0.2447  0.0001
     9 H(1)   Bbb    -0.0080    -4.289    -1.531    -1.431 -0.0002 -0.0000  1.0000
              Bcc     0.0420    22.424     8.002     7.480  0.2447  0.9696  0.0001
 

 ---------------------------------------------------------------------------------

 No NMR shielding tensors so no spin-rotation constants.
 Leave Link  601 at Wed Jul 20 07:22:24 2016, MaxMem=    33554432 cpu:         0.9
 (Enter /home/proyectos/fulerenos/M3C-v2.0/M3C-deps_CCC/g09-AM64L-G09RevC.01/l701.exe)
 Compute integral second derivatives.
 ... and contract with generalized density number  0.
 Leave Link  701 at Wed Jul 20 07:22:26 2016, MaxMem=    33554432 cpu:         1.5
 (Enter /home/proyectos/fulerenos/M3C-v2.0/M3C-deps_CCC/g09-AM64L-G09RevC.01/l702.exe)
 L702 exits ... SP integral derivatives will be done elsewhere.
 Leave Link  702 at Wed Jul 20 07:22:26 2016, MaxMem=    33554432 cpu:         0.1
 (Enter /home/proyectos/fulerenos/M3C-v2.0/M3C-deps_CCC/g09-AM64L-G09RevC.01/l703.exe)
 Compute integral second derivatives, UseDBF=F ICtDFT=           0.
 Integral derivatives from FoFJK, PRISM(SPDF).
 Calling FoFJK, ICntrl=    100127 FMM=F ISym2X=0 I1Cent= 0 IOpClX= 1 NMat=1 NMatS=1 NMatT=0.
 FoFJK:  IHMeth= 1 ICntrl=  100127 DoSepK=F KAlg= 0 I1Cent=   0 FoldK=F
 IRaf=         0 NMat=   1 IRICut=       1 DoRegI=T DoRafI=F ISym2E= 0.
 FoFCou: FMM=F IPFlag=           0 FMFlag=      100000 FMFlg1=         800
         NFxFlg=           0 DoJE=F BraDBF=F KetDBF=F FulRan=T
         wScrn=  0.000000 ICntrl=  100127 IOpCl=  1 I1Cent=           0 NGrid=           0
         NMat0=    1 NMatS0=      1 NMatT0=    0 NMatD0=    1 NMtDS0=    0 NMtDT0=    0
 Symmetry not used in FoFCou.
 Leave Link  703 at Wed Jul 20 07:53:12 2016, MaxMem=    33554432 cpu:      1845.6
 (Enter /home/proyectos/fulerenos/M3C-v2.0/M3C-deps_CCC/g09-AM64L-G09RevC.01/l716.exe)
 Dipole        = 8.42117928D-01-4.21024390D-02 1.24862560D-04
 Polarizability= 1.62134768D+02 3.04625524D-01 4.69375406D+01
                 1.80807176D-02 2.21247387D-04 4.20640865D+01
 Full mass-weighted force constant matrix:
 Low frequencies ---   -4.9156   -0.0004    0.0004    0.0008    3.9508   14.3491
 Low frequencies ---  153.2953  160.1118  385.5069
 Diagonal vibrational polarizability:
      116.0235423       0.9603703       2.7275084
 Harmonic frequencies (cm**-1), IR intensities (KM/Mole), Raman scattering
 activities (A**4/AMU), depolarization ratios for plane and unpolarized
 incident light, reduced masses (AMU), force constants (mDyne/A),
 and normal coordinates:
                      1                      2                      3
                      A                      A                      A
 Frequencies --    153.2930               160.1117               385.5066
 Red. masses --      4.1190                 5.2542                 5.8945
 Frc consts  --      0.0570                 0.0794                 0.5161
 IR Inten    --      0.0483                32.7863                 0.2159
  Atom  AN      X      Y      Z        X      Y      Z        X      Y      Z
     1   6     0.00   0.00  -0.28    -0.14   0.39  -0.00     0.00   0.00  -0.28
     2   6    -0.00   0.00   0.08    -0.02  -0.23  -0.00    -0.00  -0.00   0.56
     3   6     0.00   0.00  -0.27     0.02   0.21   0.00     0.00  -0.00   0.06
     4   1     0.00   0.00  -0.39     0.20   0.44   0.00    -0.00  -0.00  -0.04
     5   1     0.00   0.00  -0.57    -0.26   0.27  -0.00     0.00  -0.00   0.34
     6   6    -0.00  -0.00   0.21     0.13  -0.11   0.00     0.00   0.00  -0.15
     7   1    -0.00  -0.00   0.43     0.37  -0.14   0.00     0.00   0.00  -0.22
     8   6    -0.00  -0.00   0.28    -0.01  -0.29  -0.00    -0.00   0.00  -0.15
     9   1    -0.00  -0.00   0.23    -0.10  -0.27  -0.00    -0.00   0.00  -0.62
                      4                      5                      6
                      A                      A                      A
 Frequencies --    387.2340               527.8608               597.7355
 Red. masses --      2.9822                 6.3262                 1.1748
 Frc consts  --      0.2635                 1.0386                 0.2473
 IR Inten    --     60.1333                11.3954                 5.6224
  Atom  AN      X      Y      Z        X      Y      Z        X      Y      Z
     1   6     0.11  -0.07  -0.00     0.25   0.15   0.00     0.00   0.00  -0.02
     2   6    -0.01   0.25   0.00     0.34  -0.33   0.00    -0.00  -0.00   0.04
     3   6    -0.16   0.11  -0.00    -0.30  -0.01  -0.00    -0.00  -0.00   0.01
     4   1     0.11   0.45   0.00    -0.22   0.11  -0.00    -0.00  -0.00   0.74
     5   1    -0.59   0.20  -0.00    -0.48   0.03  -0.00     0.00   0.00  -0.51
     6   6    -0.03  -0.22  -0.00    -0.23  -0.01  -0.00     0.00   0.00  -0.11
     7   1     0.04  -0.23  -0.00    -0.43   0.02  -0.00    -0.00  -0.00   0.15
     8   6     0.09  -0.08  -0.00     0.04   0.17   0.00    -0.00  -0.00   0.02
     9   1     0.39  -0.12  -0.00    -0.10   0.18  -0.00    -0.00  -0.00   0.39
                      7                      8                      9
                      A                      A                      A
 Frequencies --    757.7777               870.8071               883.0277
 Red. masses --      1.6112                 3.1213                 1.3901
 Frc consts  --      0.5451                 1.3946                 0.6386
 IR Inten    --      3.2309               766.1921                44.1493
  Atom  AN      X      Y      Z        X      Y      Z        X      Y      Z
     1   6     0.00   0.00  -0.01     0.29   0.04   0.00     0.00   0.00  -0.00
     2   6    -0.00  -0.00   0.06    -0.06   0.07  -0.00    -0.00   0.00   0.01
     3   6    -0.00  -0.00   0.01    -0.06   0.07  -0.00     0.00   0.00  -0.17
     4   1     0.00   0.00  -0.31    -0.46  -0.42  -0.00    -0.00  -0.00   0.61
     5   1     0.00   0.00  -0.09     0.54  -0.06   0.00    -0.00  -0.00   0.76
     6   6    -0.00  -0.00   0.11    -0.08   0.12  -0.00    -0.00  -0.00   0.07
     7   1     0.00   0.00  -0.05     0.20   0.07   0.00    -0.00  -0.00   0.04
     8   6     0.00   0.00  -0.20    -0.09  -0.24  -0.00     0.00  -0.00  -0.03
     9   1    -0.00  -0.00   0.92    -0.15  -0.25  -0.00    -0.00  -0.00   0.13
                     10                     11                     12
                      A                      A                      A
 Frequencies --   1006.4570              1015.0506              1182.6050
 Red. masses --      1.1513                 1.7025                 1.8891
 Frc consts  --      0.6871                 1.0335                 1.5566
 IR Inten    --     20.1189               684.8796                97.7486
  Atom  AN      X      Y      Z        X      Y      Z        X      Y      Z
     1   6    -0.00  -0.00   0.00     0.15   0.03   0.00    -0.01   0.00  -0.00
     2   6     0.00   0.00  -0.00    -0.08   0.01  -0.00    -0.10  -0.06  -0.00
     3   6    -0.00  -0.00   0.02     0.10  -0.09   0.00     0.07   0.01   0.00
     4   1     0.00   0.00  -0.26     0.50   0.39   0.00     0.18   0.14   0.00
     5   1    -0.00  -0.00   0.31    -0.46   0.03  -0.00    -0.03   0.04  -0.00
     6   6     0.00   0.00  -0.11     0.00   0.03   0.00    -0.14   0.12  -0.00
     7   1    -0.00  -0.00   0.89    -0.29   0.06  -0.00    -0.58   0.19  -0.00
     8   6     0.00   0.00   0.00    -0.11  -0.01  -0.00     0.15  -0.08   0.00
     9   1    -0.00  -0.00   0.16    -0.49   0.04  -0.00     0.68  -0.16   0.00
                     13                     14                     15
                      A                      A                      A
 Frequencies --   1263.5704              1297.4418              1386.3658
 Red. masses --      2.6393                 1.5123                 3.3489
 Frc consts  --      2.4827                 1.4999                 3.7923
 IR Inten    --    674.4777                16.2309               804.1714
  Atom  AN      X      Y      Z        X      Y      Z        X      Y      Z
     1   6     0.13   0.04   0.00     0.01   0.00   0.00    -0.08  -0.02  -0.00
     2   6    -0.17  -0.12  -0.00    -0.01  -0.02  -0.00     0.30   0.09   0.00
     3   6     0.07   0.06   0.00    -0.07  -0.12  -0.00     0.08  -0.01   0.00
     4   1     0.13   0.10   0.00     0.01   0.00   0.00     0.42   0.38   0.00
     5   1     0.42  -0.01   0.00    -0.52  -0.03  -0.00     0.37  -0.05   0.00
     6   6    -0.04  -0.15  -0.00     0.05   0.15   0.00    -0.11   0.01  -0.00
     7   1     0.38  -0.24   0.00     0.67   0.06   0.00    -0.07  -0.00  -0.00
     8   6    -0.12   0.19  -0.00    -0.04  -0.01  -0.00    -0.29  -0.09  -0.00
     9   1     0.66   0.07   0.00     0.48  -0.08   0.00     0.53  -0.20   0.00
                     16                     17                     18
                      A                      A                      A
 Frequencies --   1455.6134              1554.9543              3134.1041
 Red. masses --      1.5098                 2.0009                 1.0815
 Frc consts  --      1.8848                 2.8504                 6.2591
 IR Inten    --     22.7440                44.1496                 2.2204
  Atom  AN      X      Y      Z        X      Y      Z        X      Y      Z
     1   6    -0.02  -0.01  -0.00    -0.02  -0.00  -0.00     0.00  -0.00   0.00
     2   6    -0.00   0.01  -0.00     0.05   0.01   0.00    -0.00  -0.00  -0.00
     3   6    -0.02  -0.04  -0.00     0.21   0.06   0.00     0.02   0.01   0.00
     4   1     0.36   0.41   0.00    -0.25  -0.53  -0.00    -0.15   0.13  -0.00
     5   1     0.35  -0.11   0.00    -0.60   0.24  -0.00    -0.04  -0.22  -0.00
     6   6    -0.16   0.02  -0.00    -0.19  -0.04  -0.00     0.00   0.02   0.00
     7   1     0.60  -0.10   0.00     0.33  -0.14   0.00    -0.04  -0.27  -0.00
     8   6     0.13  -0.01   0.00     0.00   0.00   0.00    -0.01  -0.08  -0.00
     9   1    -0.37   0.05  -0.00    -0.12   0.02  -0.00     0.12   0.90   0.00
                     19                     20                     21
                      A                      A                      A
 Frequencies --   3141.2263              3153.4663              3234.3501
 Red. masses --      1.0594                 1.0894                 1.1161
 Frc consts  --      6.1593                 6.3829                 6.8793
 IR Inten    --      4.5564                 4.5842                 5.6694
  Atom  AN      X      Y      Z        X      Y      Z        X      Y      Z
     1   6     0.00  -0.00   0.00     0.00   0.00   0.00    -0.00  -0.00  -0.00
     2   6    -0.00  -0.00  -0.00    -0.00  -0.00  -0.00    -0.00  -0.00  -0.00
     3   6    -0.05  -0.03  -0.00     0.00   0.01   0.00    -0.04   0.09  -0.00
     4   1     0.44  -0.37   0.00     0.04  -0.03   0.00     0.62  -0.50   0.00
     5   1     0.15   0.75   0.00    -0.03  -0.13  -0.00    -0.13  -0.57  -0.00
     6   6     0.00   0.00   0.00    -0.02  -0.08  -0.00     0.00   0.01   0.00
     7   1    -0.00  -0.00  -0.00     0.15   0.94   0.00    -0.02  -0.12  -0.00
     8   6    -0.00  -0.03  -0.00    -0.00  -0.02  -0.00     0.00   0.00   0.00
     9   1     0.04   0.30   0.00     0.03   0.26   0.00     0.00  -0.01  -0.00

 -------------------
 - Thermochemistry -
 -------------------
 Temperature   298.150 Kelvin.  Pressure   1.00000 Atm.
 Atom     1 has atomic number  6 and mass  12.00000
 Atom     2 has atomic number  6 and mass  12.00000
 Atom     3 has atomic number  6 and mass  12.00000
 Atom     4 has atomic number  1 and mass   1.00783
 Atom     5 has atomic number  1 and mass   1.00783
 Atom     6 has atomic number  6 and mass  12.00000
 Atom     7 has atomic number  1 and mass   1.00783
 Atom     8 has atomic number  6 and mass  12.00000
 Atom     9 has atomic number  1 and mass   1.00783
 Molecular mass:    64.03130 amu.
 Principal axes and moments of inertia in atomic units:
                           1         2         3
     Eigenvalues --    37.94462 719.77977 757.72440
           X            1.00000  -0.00179  -0.00015
           Y            0.00179   1.00000  -0.00004
           Z            0.00015   0.00004   1.00000
 This molecule is an asymmetric top.
 Rotational symmetry number  1.
 Rotational temperatures (Kelvin)      2.28264     0.12033     0.11431
 Rotational constants (GHZ):          47.56250     2.50735     2.38179
 Zero-point vibrational energy     164777.0 (Joules/Mol)
                                   39.38264 (Kcal/Mol)
 Warning -- explicit consideration of   6 degrees of freedom as
           vibrations may cause significant error
 Vibrational temperatures:    220.55   230.36   554.66   557.14   759.47
          (Kelvin)            860.01  1090.27  1252.90  1270.48  1448.07
                             1460.43  1701.50  1817.99  1866.73  1994.67
                             2094.30  2237.23  4509.27  4519.52  4537.13
                             4653.50
 
 Zero-point correction=                           0.062760 (Hartree/Particle)
 Thermal correction to Energy=                    0.068208
 Thermal correction to Enthalpy=                  0.069152
 Thermal correction to Gibbs Free Energy=         0.033877
 Sum of electronic and zero-point Energies=           -192.703863
 Sum of electronic and thermal Energies=              -192.698415
 Sum of electronic and thermal Enthalpies=            -192.697471
 Sum of electronic and thermal Free Energies=         -192.732746
 
                     E (Thermal)             CV                S
                      KCal/Mol        Cal/Mol-Kelvin    Cal/Mol-Kelvin
 Total                   42.801             18.287             74.242
 Electronic               0.000              0.000              2.183
 Translational            0.889              2.981             38.389
 Rotational               0.889              2.981             24.541
 Vibrational             41.023             12.326              9.130
 Vibration     1          0.619              1.899              2.631
 Vibration     2          0.622              1.891              2.548
 Vibration     3          0.754              1.501              1.017
 Vibration     4          0.756              1.497              1.011
 Vibration     5          0.883              1.188              0.592
 Vibration     6          0.956              1.037              0.454
                       Q            Log10(Q)             Ln(Q)
 Total Bot       0.261711D-15        -15.582178        -35.879291
 Total V=0       0.192959D+14         13.285465         30.590913
 Vib (Bot)       0.841163D-28        -28.075120        -64.645353
 Vib (Bot)    1  0.132148D+01          0.121062          0.278756
 Vib (Bot)    2  0.126261D+01          0.101269          0.233181
 Vib (Bot)    3  0.467194D+00         -0.330503         -0.761011
 Vib (Bot)    4  0.464540D+00         -0.332977         -0.766707
 Vib (Bot)    5  0.303579D+00         -0.517728         -1.192113
 Vib (Bot)    6  0.250391D+00         -0.601382         -1.384733
 Vib (V=0)       0.620187D+01          0.792523          1.824851
 Vib (V=0)    1  0.191291D+01          0.281695          0.648627
 Vib (V=0)    2  0.185801D+01          0.269048          0.619505
 Vib (V=0)    3  0.118430D+01          0.073463          0.169154
 Vib (V=0)    4  0.118249D+01          0.072799          0.167625
 Vib (V=0)    5  0.108494D+01          0.035408          0.081529
 Vib (V=0)    6  0.105919D+01          0.024975          0.057506
 Electronic      0.300000D+01          0.477121          1.098612
 Translational   0.201393D+08          7.304044         16.818182
 Rotational      0.514964D+05          4.711777         10.849267
 
                                                              b3lyp opt
                                                             IR Spectrum
 
     3 333                                                             1   1  1   11  1     11                                       
     2 111                                                             5   4  3   22  1     00   88    7     5  5   33       11      
     3 543                                                             5   5  8   96  8     10   87    5     9  2   88       65      
     4 314                                                             5   6  6   74  3     56   31    8     8  8   76       03      
 
     X XXX                                                             X   X  X   XX  X     XX   XX    X     X  X   XX       X       
                                                                              X    X  X     X     X                                  
                                                                              X    X        X     X                                  
                                                                              X    X        X     X                                  
                                                                              X    X        X     X                                  
                                                                              X    X        X     X                                  
                                                                              X    X        X     X                                  
                                                                              X    X        X     X                                  
                                                                              X    X        X     X                                  
                                                                              X    X        X     X                                  
                                                                              X    X        X     X                                  
                                                                              X    X        X     X                                  
                                                                              X    X        X     X                                  
                                                                              X    X        X     X                                  
                                                                              X    X        X     X                                  
                                                                              X    X        X     X                                  
                                                                              X    X        X     X                                  
                                                                              X                   X                                  
                                                                              X                   X                                  
                                                                              X                                                      
 
 ***** Axes restored to original set *****
 -------------------------------------------------------------------
 Center     Atomic                   Forces (Hartrees/Bohr)
 Number     Number              X              Y              Z
 -------------------------------------------------------------------
      1        6           0.000005818   -0.000011016   -0.000000003
      2        6          -0.000010691    0.000014765    0.000000010
      3        6          -0.000010618    0.000002971   -0.000000031
      4        1          -0.000004827    0.000003308    0.000000000
      5        1          -0.000001723    0.000002869   -0.000000001
      6        6           0.000026851   -0.000013137    0.000000006
      7        1           0.000006278    0.000005978   -0.000000006
      8        6          -0.000008797    0.000004612    0.000000020
      9        1          -0.000002291   -0.000010351    0.000000006
 -------------------------------------------------------------------
 Cartesian Forces:  Max     0.000026851 RMS     0.000008242
 Z-matrix is all fixed cartesians, so copy forces.
 Force constants in Cartesian coordinates: 
                1             2             3             4             5 
      1  0.290212D+00
      2  0.591234D-01  0.222833D-01
      3  0.438862D-04  0.916756D-05  0.138679D-01
      4 -0.198402D+00 -0.409753D-01 -0.278382D-04  0.484060D+00
      5 -0.614594D-01 -0.368692D-01 -0.967056D-05  0.149178D+00  0.143235D+00
      6 -0.283813D-04 -0.656771D-05 -0.244445D-01  0.704078D-04  0.257962D-04
      7 -0.982524D-02 -0.227394D-02 -0.161066D-05  0.259797D-01  0.121131D-01
      8  0.322160D-02  0.526437D-03  0.000000D+00  0.688442D-02  0.561969D-03
      9 -0.134046D-05  0.000000D+00  0.319850D-03  0.378512D-05  0.175624D-05
     10 -0.274775D-02 -0.327488D-03  0.000000D+00  0.218801D-02  0.104735D-02
     11 -0.127863D-02 -0.212658D-03  0.000000D+00  0.133432D-02  0.720796D-03
     12  0.000000D+00  0.000000D+00 -0.116592D-02  0.000000D+00  0.000000D+00
     13  0.315565D-03  0.153911D-04  0.000000D+00 -0.457884D-04  0.262725D-03
     14 -0.904879D-03 -0.781871D-04  0.000000D+00  0.918756D-03  0.285325D-03
     15  0.000000D+00  0.000000D+00  0.374709D-03  0.000000D+00  0.000000D+00
     16  0.207822D-01  0.217512D-02  0.247309D-05 -0.952881D-01 -0.554727D-02
     17 -0.185936D-01 -0.381377D-02 -0.311735D-05  0.152403D-01  0.161955D-01
     18  0.177959D-05  0.000000D+00  0.487144D-02 -0.134166D-04  0.000000D+00
     19  0.137187D-02 -0.193405D-04  0.000000D+00 -0.345841D-03  0.599900D-03
     20  0.196456D-02  0.171412D-03  0.000000D+00 -0.286746D-02  0.428092D-03
     21  0.000000D+00  0.000000D+00  0.190191D-03  0.000000D+00  0.000000D+00
     22 -0.992318D-01 -0.198349D-01 -0.166223D-04 -0.212106D+00 -0.662856D-01
     23  0.908039D-02  0.171486D-01  0.176371D-05 -0.115503D+00 -0.115912D+00
     24 -0.158344D-04 -0.260996D-05  0.653374D-02 -0.310693D-04 -0.130756D-04
     25 -0.247427D-02  0.211705D-02  0.000000D+00 -0.603881D-02 -0.299091D-01
     26  0.884664D-02  0.844102D-03  0.138080D-05 -0.142099D-01 -0.864481D-02
     27  0.000000D+00  0.000000D+00 -0.547415D-03 -0.231820D-05 -0.507418D-05
                6             7             8             9            10 
      6  0.521750D-01
      7  0.403438D-05  0.715708D+00
      8  0.000000D+00  0.166227D-01  0.647997D+00
      9  0.211137D-02  0.940081D-04  0.235180D-04  0.943845D-01
     10  0.000000D+00 -0.225246D+00  0.138314D+00 -0.243661D-04  0.238641D+00
     11  0.000000D+00  0.143253D+00 -0.175409D+00  0.160126D-04 -0.150838D+00
     12  0.206956D-02 -0.241266D-04  0.152641D-04 -0.280253D-01  0.274252D-04
     13  0.000000D+00 -0.683016D-01 -0.493233D-01 -0.754307D-05  0.742972D-02
     14  0.000000D+00 -0.532862D-01 -0.325340D+00 -0.191836D-04 -0.565296D-02
     15 -0.581163D-03 -0.763183D-05 -0.185210D-04 -0.309692D-01  0.000000D+00
     16 -0.140853D-04 -0.339603D+00 -0.875193D-01 -0.469795D-04 -0.175720D-01
     17  0.300870D-05 -0.133399D+00 -0.161922D+00 -0.244012D-04  0.203688D-01
     18 -0.280825D-02 -0.486955D-04 -0.175068D-04 -0.493937D-01 -0.263772D-05
     19  0.000000D+00 -0.196270D-02 -0.317438D-01 -0.225885D-05  0.106767D-02
     20  0.000000D+00 -0.108134D-02 -0.810966D-02  0.000000D+00 -0.793455D-04
     21 -0.270125D-02 -0.117846D-05 -0.533015D-05  0.532023D-02  0.101419D-05
     22 -0.295737D-04 -0.976712D-01  0.308443D-02 -0.158707D-04 -0.386343D-02
     23 -0.205203D-04  0.198188D-01  0.199602D-01  0.338527D-05 -0.286822D-02
     24 -0.320090D-01 -0.152973D-04  0.000000D+00  0.897574D-02 -0.170669D-05
     25 -0.293432D-05  0.921790D-03  0.458941D-03  0.000000D+00  0.103140D-03
     26 -0.269458D-05 -0.176709D-02  0.173509D-02  0.000000D+00  0.357297D-04
     27  0.618818D-02  0.000000D+00  0.000000D+00 -0.272339D-02  0.000000D+00
               11            12            13            14            15 
     11  0.175892D+00
     12 -0.167669D-04  0.180440D-01
     13  0.213388D-01  0.144205D-05  0.655444D-01
     14 -0.122810D-01 -0.143312D-05  0.605146D-01  0.343257D+00
     15  0.261780D-05  0.325219D-02  0.929443D-05  0.213775D-04  0.190287D-01
     16 -0.108764D-01 -0.385337D-05 -0.182628D-02 -0.872228D-03 -0.112225D-05
     17  0.967102D-02  0.324860D-05 -0.313545D-01 -0.869618D-02 -0.528747D-05
     18 -0.145998D-05  0.499874D-02 -0.214273D-05  0.000000D+00  0.483284D-02
     19  0.412397D-03  0.101512D-05 -0.458958D-02 -0.148943D-02 -0.210598D-05
     20  0.120273D-02  0.000000D+00 -0.126533D-02  0.115658D-02  0.000000D+00
     21  0.000000D+00 -0.575530D-02 -0.209396D-05  0.000000D+00  0.909255D-02
     22 -0.306355D-02 -0.172121D-05  0.168128D-02  0.161094D-02  0.108694D-05
     23  0.157165D-03  0.000000D+00 -0.107282D-02  0.128774D-02  0.000000D+00
     24  0.000000D+00  0.678115D-02  0.000000D+00  0.000000D+00 -0.508719D-02
     25 -0.281924D-03  0.000000D+00 -0.207680D-03 -0.838646D-03  0.000000D+00
     26  0.259344D-03  0.000000D+00  0.884443D-03  0.408167D-03  0.000000D+00
     27  0.000000D+00 -0.199112D-03  0.000000D+00  0.000000D+00  0.566195D-04
               16            17            18            19            20 
     16  0.619416D+00
     17  0.715349D-01  0.672963D+00
     18  0.774221D-04  0.316718D-04  0.122152D+00
     19 -0.654713D-01 -0.420232D-01 -0.504695D-05  0.684378D-01
     20 -0.422046D-01 -0.321881D+00 -0.168950D-04  0.454831D-01  0.343550D+00
     21 -0.498938D-05 -0.168164D-04 -0.423896D-01  0.784240D-05  0.187551D-04
     22 -0.127683D+00  0.922144D-01 -0.839665D-05  0.501474D-02 -0.235583D-02
     23  0.764549D-01 -0.184641D+00  0.631557D-05  0.262930D-01 -0.160748D-01
     24 -0.899241D-05  0.871391D-05 -0.481651D-01  0.118235D-05 -0.110446D-05
     25  0.724431D-02  0.260124D-01  0.113441D-05 -0.352265D-02  0.240627D-02
     26 -0.314505D-02 -0.178750D-01 -0.138505D-05  0.248744D-02 -0.443177D-03
     27  0.000000D+00  0.297947D-05  0.590119D-02 -0.118873D-05  0.000000D+00
               21            22            23            24            25 
     21  0.274646D-01
     22  0.000000D+00  0.589714D+00
     23  0.319691D-05  0.266320D-01  0.597064D+00
     24  0.375789D-02  0.762652D-04  0.231759D-04  0.877436D-01
     25 -0.119285D-05 -0.558544D-01 -0.388346D-01 -0.554670D-05  0.598286D-01
     26  0.000000D+00 -0.320019D-01 -0.318990D+00 -0.157245D-04  0.388697D-01
     27  0.502063D-02 -0.528081D-05 -0.167301D-04 -0.285309D-01  0.815621D-05
               26            27 
     26  0.342706D+00
     27  0.181879D-04  0.148342D-01
 Leave Link  716 at Wed Jul 20 07:53:13 2016, MaxMem=    33554432 cpu:         0.2
 (Enter /home/proyectos/fulerenos/M3C-v2.0/M3C-deps_CCC/g09-AM64L-G09RevC.01/l103.exe)

 GradGradGradGradGradGradGradGradGradGradGradGradGradGradGradGradGradGrad
 Berny optimization.
 Search for a local minimum.
 Step number   1 out of a maximum of    2
 All quantities printed in internal units (Hartrees-Bohrs-Radians)
 Second derivative matrix not updated -- analytic derivatives used.
 ITU=  0
     Eigenvalues ---    0.00402   0.00560   0.01553   0.01854   0.04414
     Eigenvalues ---    0.04890   0.06907   0.07264   0.08769   0.10707
     Eigenvalues ---    0.14012   0.15711   0.18213   0.23401   0.39502
     Eigenvalues ---    0.59836   0.61849   0.80767   0.87840   1.01009
     Eigenvalues ---    1.18795
 Angle between quadratic step and forces=  62.30 degrees.
 Linear search not attempted -- first point.
 B after Tr=    -0.000011    0.000010   -0.000000
         Rot=    1.000000   -0.000000    0.000000    0.000003 Ang=  -0.00 deg.
 Variable       Old X    -DE/DX   Delta X   Delta X   Delta X     New X
                                 (Linear)    (Quad)   (Total)
    X1       -5.09698   0.00001   0.00000   0.00002   0.00000  -5.09698
    Y1       -0.24844  -0.00001   0.00000  -0.00004  -0.00000  -0.24844
    Z1       -0.00114  -0.00000   0.00000  -0.00000  -0.00000  -0.00115
    X2       -2.74057  -0.00001   0.00000  -0.00008  -0.00009  -2.74066
    Y2       -0.06989   0.00001   0.00000   0.00022   0.00024  -0.06965
    Z2       -0.00078   0.00000   0.00000   0.00000  -0.00000  -0.00078
    X3        4.26946  -0.00001   0.00000  -0.00005  -0.00006   4.26940
    Y3        0.09970   0.00000   0.00000   0.00003   0.00002   0.09972
    Z3        0.00028  -0.00000   0.00000  -0.00000  -0.00000   0.00027
    X4        5.85454  -0.00000   0.00000   0.00000  -0.00001   5.85453
    Y4       -1.18588   0.00000   0.00000   0.00012   0.00010  -1.18578
    Z4        0.00046   0.00000   0.00000  -0.00000  -0.00000   0.00046
    X5        4.68649  -0.00000   0.00000  -0.00018  -0.00018   4.68630
    Y5        2.10181   0.00000   0.00000   0.00006   0.00004   2.10185
    Z5        0.00041  -0.00000   0.00000  -0.00000  -0.00000   0.00041
    X6        1.85567   0.00003   0.00000   0.00004   0.00002   1.85569
    Y6       -0.76613  -0.00001   0.00000  -0.00012  -0.00012  -0.76625
    Z6       -0.00012   0.00000   0.00000   0.00000   0.00000  -0.00012
    X7        1.52586   0.00001   0.00000   0.00015   0.00012   1.52599
    Y7       -2.78793   0.00001   0.00000  -0.00012  -0.00012  -2.78804
    Z7       -0.00025  -0.00000   0.00000   0.00000   0.00000  -0.00024
    X8       -0.29489  -0.00001   0.00000   0.00001   0.00001  -0.29489
    Y8        0.82087   0.00000   0.00000  -0.00007  -0.00005   0.82082
    Z8       -0.00038   0.00000   0.00000   0.00000   0.00000  -0.00038
    X9       -0.02857  -0.00000   0.00000   0.00019   0.00020  -0.02838
    Y9        2.85421  -0.00001   0.00000  -0.00012  -0.00011   2.85410
    Z9       -0.00027   0.00000   0.00000   0.00000   0.00000  -0.00026
         Item               Value     Threshold  Converged?
 Maximum Force            0.000027     0.000450     YES
 RMS     Force            0.000008     0.000300     YES
 Maximum Displacement     0.000240     0.001800     YES
 RMS     Displacement     0.000089     0.001200     YES
 Predicted change in Energy=-4.134884D-09
 Optimization completed.
    -- Stationary point found.
 GradGradGradGradGradGradGradGradGradGradGradGradGradGradGradGradGradGrad

 Leave Link  103 at Wed Jul 20 07:53:13 2016, MaxMem=    33554432 cpu:         0.1
 (Enter /home/proyectos/fulerenos/M3C-v2.0/M3C-deps_CCC/g09-AM64L-G09RevC.01/l9999.exe)
 1\1\GINC-CALIFORNIO\Freq\UB3LYP\6-311++G(3df,2p)\C5H4(3)\ROOT\20-Jul-2
 016\0\\#p b3lyp/6-311++G(3df,2p) freq symmetry=Loose\\b3lyp opt\\0,3\C
 ,-2.697206857,-0.131466964,-0.000605503\C,-1.450246077,-0.036985019,-0
 .000414703\C,2.259299994,0.052757999,0.00014569\H,3.09809,-0.627541,0.
 000246\H,2.479982017,1.112229004,0.000218758\C,0.981977956,-0.40541701
 1,-0.000063375\H,0.807451885,-1.475307029,-0.000129905\C,-0.15605101,0
 .434386997,-0.000202606\H,-0.015119971,1.510383007,-0.000140891\\Versi
 on=EM64L-G09RevE.01\State=3-A\HF=-192.766623\S2=2.044595\S2-1=0.\S2A=2
 .000804\RMSD=9.707e-09\RMSF=8.242e-06\ZeroPoint=0.0627602\Thermal=0.06
 82075\Dipole=0.8421051,-0.0423592,0.0001249\DipoleDeriv=-4.448598,0.05
 91927,-0.0006556,-0.2863287,-0.0746505,-0.0000427,-0.0006636,0.0000097
 ,-0.0974584,4.4022159,0.0078359,0.0006556,0.2698413,-0.117679,0.000033
 9,0.000662,-0.0000059,0.0698975,0.019143,-0.0350634,0.0000383,0.124936
 9,0.1077952,0.0000319,0.0000451,0.0000078,-0.245058,-0.0336628,0.03143
 28,-0.0000226,0.0493347,0.0026596,0.0000028,-0.0000225,0.0000001,0.124
 4182,0.0433749,0.0251373,-0.0000146,-0.044226,-0.075826,-0.000015,-0.0
 000169,-0.0000045,0.147025,-0.151919,0.0182521,-0.0000144,-0.1979675,0
 .0733752,-0.0000251,-0.0000216,0.0000077,-0.0531693,0.0530528,-0.03633
 63,-0.0000139,0.0139167,-0.0567649,-0.0000052,-0.0000121,-0.0000128,0.
 1383268,0.1353853,-0.0530758,0.0000465,0.0157829,0.1364694,0.0000148,0
 .0000466,0.0000043,-0.1896598,-0.018992,-0.0173752,-0.0000192,0.054709
 8,0.0046211,0.0000046,-0.0000171,-0.0000065,0.1056779\Polar=162.134942
 9,0.2694971,46.9373655,0.0180808,0.0002157,42.0640865\PG=C01 [X(C5H4)]
 \NImag=0\\0.29021156,0.05912338,0.02228332,0.00004389,0.00000917,0.013
 86795,-0.19840217,-0.04097528,-0.00002784,0.48405954,-0.06145942,-0.03
 686922,-0.00000967,0.14917831,0.14323470,-0.00002838,-0.00000657,-0.02
 444454,0.00007041,0.00002580,0.05217503,-0.00982524,-0.00227394,-0.000
 00161,0.02597966,0.01211315,0.00000403,0.71570799,0.00322160,0.0005264
 4,0.00000049,0.00688442,0.00056197,0.00000097,0.01662269,0.64799707,-0
 .00000134,-0.00000033,0.00031985,0.00000379,0.00000176,0.00211137,0.00
 009401,0.00002352,0.09438447,-0.00274775,-0.00032749,-0.00000025,0.002
 18801,0.00104735,0.00000006,-0.22524608,0.13831437,-0.00002437,0.23864
 070,-0.00127863,-0.00021266,-0.00000016,0.00133432,0.00072080,0.000000
 15,0.14325330,-0.17540907,0.00001601,-0.15083828,0.17589166,-0.0000003
 2,-0.00000002,-0.00116592,0.00000011,0.00000011,0.00206956,-0.00002413
 ,0.00001526,-0.02802530,0.00002743,-0.00001677,0.01804399,0.00031557,0
 .00001539,0.,-0.00004579,0.00026273,0.00000009,-0.06830160,-0.04932330
 ,-0.00000754,0.00742972,0.02133880,0.00000144,0.06554436,-0.00090488,-
 0.00007819,-0.00000015,0.00091876,0.00028532,0.00000017,-0.05328615,-0
 .32533990,-0.00001918,-0.00565296,-0.01228099,-0.00000143,0.06051459,0
 .34325744,-0.00000003,-0.00000001,0.00037471,0.00000011,0.00000007,-0.
 00058116,-0.00000763,-0.00001852,-0.03096925,0.00000042,0.00000262,0.0
 0325219,0.00000929,0.00002138,0.01902869,0.02078218,0.00217512,0.00000
 247,-0.09528813,-0.00554727,-0.00001409,-0.33960257,-0.08751934,-0.000
 04698,-0.01757198,-0.01087644,-0.00000385,-0.00182628,-0.00087223,-0.0
 0000112,0.61941649,-0.01859364,-0.00381377,-0.00000312,0.01524029,0.01
 619546,0.00000301,-0.13339946,-0.16192216,-0.00002440,0.02036884,0.009
 67102,0.00000325,-0.03135450,-0.00869618,-0.00000529,0.07153494,0.6729
 6296,0.00000178,0.,0.00487144,-0.00001342,-0.00000013,-0.00280825,-0.0
 0004870,-0.00001751,-0.04939372,-0.00000264,-0.00000146,0.00499874,-0.
 00000214,-0.00000062,0.00483284,0.00007742,0.00003167,0.12215245,0.001
 37187,-0.00001934,0.00000018,-0.00034584,0.00059990,0.00000038,-0.0019
 6270,-0.03174383,-0.00000226,0.00106767,0.00041240,0.00000102,-0.00458
 958,-0.00148943,-0.00000211,-0.06547131,-0.04202320,-0.00000505,0.0684
 3780,0.00196456,0.00017141,0.00000029,-0.00286746,0.00042809,-0.000000
 31,-0.00108134,-0.00810966,-0.00000065,-0.00007935,0.00120273,0.000000
 25,-0.00126533,0.00115658,-0.00000049,-0.04220461,-0.32188149,-0.00001
 690,0.04548309,0.34355030,0.00000025,0.,0.00019019,0.00000024,0.000000
 21,-0.00270125,-0.00000118,-0.00000533,0.00532023,0.00000101,0.0000003
 4,-0.00575530,-0.00000209,-0.00000052,0.00909255,-0.00000499,-0.000016
 82,-0.04238956,0.00000784,0.00001876,0.02746462,-0.09923175,-0.0198348
 9,-0.00001662,-0.21210648,-0.06628562,-0.00002957,-0.09767125,0.003084
 43,-0.00001587,-0.00386343,-0.00306355,-0.00000172,0.00168128,0.001610
 94,0.00000109,-0.12768270,0.09221436,-0.00000840,0.00501474,-0.0023558
 3,0.00000011,0.58971398,0.00908039,0.01714856,0.00000176,-0.11550345,-
 0.11591232,-0.00002052,0.01981885,0.01996022,0.00000339,-0.00286822,0.
 00015716,-0.00000068,-0.00107282,0.00128774,0.00000009,0.07645487,-0.1
 8464088,0.00000632,0.02629298,-0.01607480,0.00000320,0.02663201,0.5970
 6429,-0.00001583,-0.00000261,0.00653374,-0.00003107,-0.00001308,-0.032
 00895,-0.00001530,0.00000085,0.00897574,-0.00000171,-0.00000071,0.0067
 8115,0.00000100,0.00000048,-0.00508719,-0.00000899,0.00000871,-0.04816
 512,0.00000118,-0.00000110,0.00375789,0.00007627,0.00002318,0.08774363
 ,-0.00247427,0.00211705,-0.00000021,-0.00603881,-0.02990912,-0.0000029
 3,0.00092179,0.00045894,0.00000057,0.00010314,-0.00028192,0.00000004,-
 0.00020768,-0.00083865,-0.00000001,0.00724431,0.02601238,0.00000113,-0
 .00352265,0.00240627,-0.00000119,-0.05585440,-0.03883461,-0.00000555,0
 .05982857,0.00884664,0.00084410,0.00000138,-0.01420992,-0.00864481,-0.
 00000269,-0.00176709,0.00173509,-0.00000011,0.00003573,0.00025934,0.00
 000003,0.00088444,0.00040817,0.00000015,-0.00314505,-0.01787496,-0.000
 00139,0.00248744,-0.00044318,0.00000017,-0.03200186,-0.31898997,-0.000
 01572,0.03886966,0.34270622,0.,0.00000036,-0.00054742,-0.00000232,-0.0
 0000507,0.00618818,0.00000050,0.00000026,-0.00272339,0.00000005,-0.000
 00003,-0.00019911,-0.00000004,-0.00000012,0.00005662,0.00000013,0.0000
 0298,0.00590119,-0.00000119,0.00000015,0.00502063,-0.00000528,-0.00001
 673,-0.02853089,0.00000816,0.00001819,0.01483419\\-0.00000582,0.000011
 02,0.,0.00001069,-0.00001477,0.,0.00001062,-0.00000297,0.00000003,0.00
 000483,-0.00000331,0.,0.00000172,-0.00000287,0.,-0.00002685,0.00001314
 ,0.,-0.00000628,-0.00000598,0.,0.00000880,-0.00000461,-0.00000002,0.00
 000229,0.00001035,0.\\\@


 TIME IS IN FACT THE HERO OF THE PLOT. THE TIME
 WITH WHICH WE HAVE TO DEAL IS OF THE ORDER OF TWO
 BILLION YEARS...GIVEN SO MUCH TIME, THE "IMPOSSIBLE"
 BECOMES POSSIBLE, THE POSSIBLE PROBABLE, THE PROBABLE
 VIRTUALLY CERTAIN.  ONE HAS ONLY TO WAIT, TIME
 ITSELF PERFORMS THE MIRACLES.
 "ORIGIN OF LIFE" LECTURES, GEORGE WALD, 1954
 Job cpu time:       0 days  1 hours 50 minutes 18.0 seconds.
 File lengths (MBytes):  RWF=     80 Int=      0 D2E=      0 Chk=      5 Scr=      1
 Normal termination of Gaussian 09 at Wed Jul 20 07:53:13 2016.
