 Entering Gaussian System, Link 0=/home/proyectos/fulerenos/M3C-v1.9/M3C-deps_CCC/g09-AM64L-G09RevC.01/g09
 Initial command:
 /home/proyectos/fulerenos/M3C-v1.9/M3C-deps_CCC/g09-AM64L-G09RevC.01/l1.exe "/scratch/naguirre/gaussian/Gau-28075.inp" -scrdir="/scratch/naguirre/gaussian/"
 Entering Link 1 = /home/proyectos/fulerenos/M3C-v1.9/M3C-deps_CCC/g09-AM64L-G09RevC.01/l1.exe PID=     28081.
  
 Copyright (c) 1988,1990,1992,1993,1995,1998,2003,2009,2015,
            Gaussian, Inc.  All Rights Reserved.
  
 This is part of the Gaussian(R) 09 program.  It is based on
 the Gaussian(R) 03 system (copyright 2003, Gaussian, Inc.),
 the Gaussian(R) 98 system (copyright 1998, Gaussian, Inc.),
 the Gaussian(R) 94 system (copyright 1995, Gaussian, Inc.),
 the Gaussian 92(TM) system (copyright 1992, Gaussian, Inc.),
 the Gaussian 90(TM) system (copyright 1990, Gaussian, Inc.),
 the Gaussian 88(TM) system (copyright 1988, Gaussian, Inc.),
 the Gaussian 86(TM) system (copyright 1986, Carnegie Mellon
 University), and the Gaussian 82(TM) system (copyright 1983,
 Carnegie Mellon University). Gaussian is a federally registered
 trademark of Gaussian, Inc.
  
 This software contains proprietary and confidential information,
 including trade secrets, belonging to Gaussian, Inc.
  
 This software is provided under written license and may be
 used, copied, transmitted, or stored only in accord with that
 written license.
  
 The following legend is applicable only to US Government
 contracts under FAR:
  
                    RESTRICTED RIGHTS LEGEND
  
 Use, reproduction and disclosure by the US Government is
 subject to restrictions as set forth in subparagraphs (a)
 and (c) of the Commercial Computer Software - Restricted
 Rights clause in FAR 52.227-19.
  
 Gaussian, Inc.
 340 Quinnipiac St., Bldg. 40, Wallingford CT 06492
  
  
 ---------------------------------------------------------------
 Warning -- This program may not be used in any manner that
 competes with the business of Gaussian, Inc. or will provide
 assistance to any competitor of Gaussian, Inc.  The licensee
 of this program is prohibited from giving any competitor of
 Gaussian, Inc. access to this program.  By using this program,
 the user acknowledges that Gaussian, Inc. is engaged in the
 business of creating and licensing software in the field of
 computational chemistry and represents and warrants to the
 licensee that it is not a competitor of Gaussian, Inc. and that
 it will not use this program in any manner prohibited above.
 ---------------------------------------------------------------
  

 Cite this work as:
 Gaussian 09, Revision E.01,
 M. J. Frisch, G. W. Trucks, H. B. Schlegel, G. E. Scuseria, 
 M. A. Robb, J. R. Cheeseman, G. Scalmani, V. Barone, B. Mennucci, 
 G. A. Petersson, H. Nakatsuji, M. Caricato, X. Li, H. P. Hratchian, 
 A. F. Izmaylov, J. Bloino, G. Zheng, J. L. Sonnenberg, M. Hada, 
 M. Ehara, K. Toyota, R. Fukuda, J. Hasegawa, M. Ishida, T. Nakajima, 
 Y. Honda, O. Kitao, H. Nakai, T. Vreven, J. A. Montgomery, Jr., 
 J. E. Peralta, F. Ogliaro, M. Bearpark, J. J. Heyd, E. Brothers, 
 K. N. Kudin, V. N. Staroverov, T. Keith, R. Kobayashi, J. Normand, 
 K. Raghavachari, A. Rendell, J. C. Burant, S. S. Iyengar, J. Tomasi, 
 M. Cossi, N. Rega, J. M. Millam, M. Klene, J. E. Knox, J. B. Cross, 
 V. Bakken, C. Adamo, J. Jaramillo, R. Gomperts, R. E. Stratmann, 
 O. Yazyev, A. J. Austin, R. Cammi, C. Pomelli, J. W. Ochterski, 
 R. L. Martin, K. Morokuma, V. G. Zakrzewski, G. A. Voth, 
 P. Salvador, J. J. Dannenberg, S. Dapprich, A. D. Daniels, 
 O. Farkas, J. B. Foresman, J. V. Ortiz, J. Cioslowski, 
 and D. J. Fox, Gaussian, Inc., Wallingford CT, 2013.
 
 ******************************************
 Gaussian 09:  EM64L-G09RevE.01 30-Nov-2015
                22-Jun-2016 
 ******************************************
 %NProcShared=4
 Will use up to    4 processors via shared memory.
 ---------------------------------------------
 #p b3lyp/6-311++G(3df,2p) freq symmetry=Loose
 ---------------------------------------------
 1/10=4,30=1,38=1/1,3;
 2/12=2,17=4,18=3,40=1/2;
 3/5=4,6=6,7=1216,11=2,16=1,25=1,30=1,71=2,74=-5,140=1/1,2,3;
 4//1;
 5/5=2,38=5,98=1/2;
 8/6=4,10=90,11=11/1;
 11/6=1,8=1,9=11,15=111,16=1/1,2,10;
 10/6=1/2;
 6/7=2,8=2,9=2,10=2,18=1,28=1/1;
 7/8=1,10=1,25=1/1,2,3,16;
 1/10=4,30=1/3;
 99//99;
 Leave Link    1 at Wed Jun 22 02:28:52 2016, MaxMem=           0 cpu:         0.2
 (Enter /home/proyectos/fulerenos/M3C-v1.9/M3C-deps_CCC/g09-AM64L-G09RevC.01/l101.exe)
 ---------
 b3lyp opt
 ---------
 Symbolic Z-matrix:
 Charge =  0 Multiplicity = 1
 H                    -1.60069  -0.89609   0.87665 
 H                     0.71773  -2.06151   0.00065 
 C                    -0.88551   0.97026   0.00031 
 H                     2.31062   0.06355   0.00019 
 C                     0.41017  -1.02284   0.00005 
 C                     0.32136   1.18368  -0.00142 
 C                     1.23358   0.0517   -0.00043 
 C                    -1.051    -0.55213  -0.00097 
 H                    -1.59794  -0.89355  -0.88135 
 
 NAtoms=      9 NQM=        9 NQMF=       0 NMMI=      0 NMMIF=      0
                NMic=       0 NMicF=      0.
                    Isotopes and Nuclear Properties:
 (Nuclear quadrupole moments (NQMom) in fm**2, nuclear magnetic moments (NMagM)
  in nuclear magnetons)

  Atom         1           2           3           4           5           6           7           8           9
 IAtWgt=           1           1          12           1          12          12          12          12           1
 AtmWgt=   1.0078250   1.0078250  12.0000000   1.0078250  12.0000000  12.0000000  12.0000000  12.0000000   1.0078250
 NucSpn=           1           1           0           1           0           0           0           0           1
 AtZEff=   0.0000000   0.0000000   0.0000000   0.0000000   0.0000000   0.0000000   0.0000000   0.0000000   0.0000000
 NQMom=    0.0000000   0.0000000   0.0000000   0.0000000   0.0000000   0.0000000   0.0000000   0.0000000   0.0000000
 NMagM=    2.7928460   2.7928460   0.0000000   2.7928460   0.0000000   0.0000000   0.0000000   0.0000000   2.7928460
 AtZNuc=   1.0000000   1.0000000   6.0000000   1.0000000   6.0000000   6.0000000   6.0000000   6.0000000   1.0000000
 Leave Link  101 at Wed Jun 22 02:28:52 2016, MaxMem=    33554432 cpu:         0.3
 (Enter /home/proyectos/fulerenos/M3C-v1.9/M3C-deps_CCC/g09-AM64L-G09RevC.01/l103.exe)

 GradGradGradGradGradGradGradGradGradGradGradGradGradGradGradGradGradGrad
 Berny optimization.
 Initialization pass.
 Trust Radius=3.00D-01 FncErr=1.00D-07 GrdErr=1.00D-07
 Number of steps in this run=      2 maximum allowed number of steps=      2.
 GradGradGradGradGradGradGradGradGradGradGradGradGradGradGradGradGradGrad

 Leave Link  103 at Wed Jun 22 02:28:52 2016, MaxMem=    33554432 cpu:         0.1
 (Enter /home/proyectos/fulerenos/M3C-v1.9/M3C-deps_CCC/g09-AM64L-G09RevC.01/l202.exe)
                          Input orientation:                          
 ---------------------------------------------------------------------
 Center     Atomic      Atomic             Coordinates (Angstroms)
 Number     Number       Type             X           Y           Z
 ---------------------------------------------------------------------
      1          1           0       -1.600693   -0.896085    0.876650
      2          1           0        0.717728   -2.061513    0.000650
      3          6           0       -0.885509    0.970263    0.000309
      4          1           0        2.310623    0.063545    0.000190
      5          6           0        0.410173   -1.022844    0.000047
      6          6           0        0.321358    1.183682   -0.001415
      7          6           0        1.233583    0.051701   -0.000429
      8          6           0       -1.051003   -0.552134   -0.000972
      9          1           0       -1.597938   -0.893551   -0.881345
 ---------------------------------------------------------------------
                    Distance matrix (angstroms):
                    1          2          3          4          5
     1  H    0.000000
     2  H    2.738736   0.000000
     3  C    2.182365   3.429582   0.000000
     4  H    4.121585   2.655784   3.322258   0.000000
     5  C    2.197290   1.083247   2.377239   2.189053   0.000000
     6  C    2.964913   3.269312   1.225593   2.282955   2.208313
     7  C    3.114592   2.175266   2.309612   1.077105   1.353754
     8  C    1.091184   2.325218   1.531366   3.417542   1.535124
     9  H    1.757999   2.739409   2.181438   4.119464   2.196834
                    6          7          8          9
     6  C    0.000000
     7  C    1.453801   0.000000
     8  C    2.212788   2.363038   0.000000
     9  H    2.961903   3.112399   1.091220   0.000000
 Stoichiometry    C5H4
 Framework group  C1[X(C5H4)]
 Deg. of freedom    21
 Full point group                 C1      NOp   1
 Largest Abelian subgroup         C1      NOp   1
 Largest concise Abelian subgroup C1      NOp   1
                         Standard orientation:                         
 ---------------------------------------------------------------------
 Center     Atomic      Atomic             Coordinates (Angstroms)
 Number     Number       Type             X           Y           Z
 ---------------------------------------------------------------------
      1          1           0       -1.601287    0.894914   -0.877273
      2          1           0        0.716112    2.061956   -0.000716
      3          6           0       -0.884806   -0.971046   -0.001165
      4          1           0        2.310632   -0.061883   -0.000405
      5          6           0        0.409351    1.023052   -0.000348
      6          6           0        0.322224   -1.183542    0.000700
      7          6           0        1.233583   -0.050863    0.000056
      8          6           0       -1.051464    0.551224    0.000368
      9          1           0       -1.598791    0.892063    0.880722
 ---------------------------------------------------------------------
 Rotational constants (GHZ):      9.8740951      8.8341173      4.8005533
 Leave Link  202 at Wed Jun 22 02:28:52 2016, MaxMem=    33554432 cpu:         0.0
 (Enter /home/proyectos/fulerenos/M3C-v1.9/M3C-deps_CCC/g09-AM64L-G09RevC.01/l301.exe)
 Standard basis: 6-311++G(3df,2p) (5D, 7F)
 Ernie: Thresh=  0.10000D-02 Tol=  0.10000D-05 Strict=F.
 There are   265 symmetry adapted cartesian basis functions of A   symmetry.
 There are   235 symmetry adapted basis functions of A   symmetry.
   235 basis functions,   338 primitive gaussians,   265 cartesian basis functions
    17 alpha electrons       17 beta electrons
       nuclear repulsion energy       141.4021391760 Hartrees.
 IExCor=  402 DFT=T Ex+Corr=B3LYP ExCW=0 ScaHFX=  0.200000
 ScaDFX=  0.800000  0.720000  1.000000  0.810000 ScalE2=  1.000000  1.000000
 IRadAn=      0 IRanWt=     -1 IRanGd=            0 ICorTp=0 IEmpDi=  4
 NAtoms=    9 NActive=    9 NUniq=    9 SFac= 1.00D+00 NAtFMM=   60 NAOKFM=F Big=F
 Integral buffers will be    131072 words long.
 Raffenetti 2 integral format.
 Two-electron integral symmetry is turned on.
 Leave Link  301 at Wed Jun 22 02:28:52 2016, MaxMem=    33554432 cpu:         0.3
 (Enter /home/proyectos/fulerenos/M3C-v1.9/M3C-deps_CCC/g09-AM64L-G09RevC.01/l302.exe)
 NPDir=0 NMtPBC=     1 NCelOv=     1 NCel=       1 NClECP=     1 NCelD=      1
         NCelK=      1 NCelE2=     1 NClLst=     1 CellRange=     0.0.
 One-electron integrals computed using PRISM.
 NBasis=   235 RedAO= T EigKep=  6.37D-06  NBF=   235
 NBsUse=   235 1.00D-06 EigRej= -1.00D+00 NBFU=   235
 Precomputing XC quadrature grid using
 IXCGrd= 4 IRadAn=           0 IRanWt=          -1 IRanGd=           0 AccXCQ= 0.00D+00.
 Generated NRdTot=       0 NPtTot=           0 NUsed=           0 NTot=          32
 NSgBfM=   265   265   265   265   265 MxSgAt=     9 MxSgA2=     9.
 Leave Link  302 at Wed Jun 22 02:28:52 2016, MaxMem=    33554432 cpu:         1.8
 (Enter /home/proyectos/fulerenos/M3C-v1.9/M3C-deps_CCC/g09-AM64L-G09RevC.01/l303.exe)
 DipDrv:  MaxL=1.
 Leave Link  303 at Wed Jun 22 02:28:53 2016, MaxMem=    33554432 cpu:         0.1
 (Enter /home/proyectos/fulerenos/M3C-v1.9/M3C-deps_CCC/g09-AM64L-G09RevC.01/l401.exe)
 ExpMin= 3.60D-02 ExpMax= 4.56D+03 ExpMxC= 6.82D+02 IAcc=3 IRadAn=         5 AccDes= 0.00D+00
 Harris functional with IExCor=  402 and IRadAn=       5 diagonalized for initial guess.
 HarFok:  IExCor=  402 AccDes= 0.00D+00 IRadAn=         5 IDoV= 1 UseB2=F ITyADJ=14
 ICtDFT=  3500011 ScaDFX=  1.000000  1.000000  1.000000  1.000000
 FoFCou: FMM=F IPFlag=           0 FMFlag=      100000 FMFlg1=           0
         NFxFlg=           0 DoJE=T BraDBF=F KetDBF=T FulRan=T
         wScrn=  0.000000 ICntrl=     500 IOpCl=  0 I1Cent=   200000004 NGrid=           0
         NMat0=    1 NMatS0=      1 NMatT0=    0 NMatD0=    1 NMtDS0=    0 NMtDT0=    0
 Petite list used in FoFCou.
 Harris En= -192.845305866451    
 JPrj=0 DoOrth=F DoCkMO=F.
 Leave Link  401 at Wed Jun 22 02:28:57 2016, MaxMem=    33554432 cpu:        16.0
 (Enter /home/proyectos/fulerenos/M3C-v1.9/M3C-deps_CCC/g09-AM64L-G09RevC.01/l502.exe)
 Closed shell SCF:
 Using DIIS extrapolation, IDIIS=  1040.
 Integral symmetry usage will be decided dynamically.
 IVT=      232727 IEndB=      232727 NGot=    33554432 MDV=    33408836
 LenX=    33408836 LenY=    33338170
 Requested convergence on RMS density matrix=1.00D-08 within 128 cycles.
 Requested convergence on MAX density matrix=1.00D-06.
 Requested convergence on             energy=1.00D-06.
 No special actions if energy rises.
 Fock matrices will be formed incrementally for  20 cycles.

 Cycle   1  Pass 1  IDiag  1:
 FoFJK:  IHMeth= 1 ICntrl=       0 DoSepK=F KAlg= 0 I1Cent=   0 FoldK=F
 IRaf= 990000000 NMat=   1 IRICut=       1 DoRegI=T DoRafI=F ISym2E= 0.
 FoFCou: FMM=F IPFlag=           0 FMFlag=      100000 FMFlg1=           0
         NFxFlg=           0 DoJE=F BraDBF=F KetDBF=F FulRan=T
         wScrn=  0.000000 ICntrl=       0 IOpCl=  0 I1Cent=           0 NGrid=           0
         NMat0=    1 NMatS0=      1 NMatT0=    0 NMatD0=    1 NMtDS0=    0 NMtDT0=    0
 Symmetry not used in FoFCou.
 E= -192.649024492977    
 DIIS: error= 3.16D-02 at cycle   1 NSaved=   1.
 NSaved= 1 IEnMin= 1 EnMin= -192.649024492977     IErMin= 1 ErrMin= 3.16D-02
 ErrMax= 3.16D-02  0.00D+00 EMaxC= 1.00D-01 BMatC= 1.52D-01 BMatP= 1.52D-01
 IDIUse=3 WtCom= 6.84D-01 WtEn= 3.16D-01
 Coeff-Com:  0.100D+01
 Coeff-En:   0.100D+01
 Coeff:      0.100D+01
 Gap=     0.096 Goal=   None    Shift=    0.000
 GapD=    0.096 DampG=0.500 DampE=0.500 DampFc=0.2500 IDamp=-1.
 Damping current iteration by 2.50D-01
 RMSDP=5.92D-03 MaxDP=3.38D-01              OVMax= 2.19D-01

 Cycle   2  Pass 1  IDiag  1:
 RMSU=  1.29D-03    CP:  9.50D-01
 E= -192.701106742109     Delta-E=       -0.052082249133 Rises=F Damp=T
 DIIS: error= 1.23D-02 at cycle   2 NSaved=   2.
 NSaved= 2 IEnMin= 2 EnMin= -192.701106742109     IErMin= 2 ErrMin= 1.23D-02
 ErrMax= 1.23D-02  0.00D+00 EMaxC= 1.00D-01 BMatC= 4.04D-02 BMatP= 1.52D-01
 IDIUse=3 WtCom= 8.77D-01 WtEn= 1.23D-01
 Coeff-Com: -0.870D+00 0.187D+01
 Coeff-En:   0.000D+00 0.100D+01
 Coeff:     -0.763D+00 0.176D+01
 Gap=     0.132 Goal=   None    Shift=    0.000
 RMSDP=2.19D-03 MaxDP=8.51D-02 DE=-5.21D-02 OVMax= 1.75D-01

 Cycle   3  Pass 1  IDiag  1:
 RMSU=  1.68D-03    CP:  8.71D-01  1.61D+00
 E= -192.781285215614     Delta-E=       -0.080178473504 Rises=F Damp=F
 DIIS: error= 1.07D-02 at cycle   3 NSaved=   3.
 NSaved= 3 IEnMin= 3 EnMin= -192.781285215614     IErMin= 3 ErrMin= 1.07D-02
 ErrMax= 1.07D-02  0.00D+00 EMaxC= 1.00D-01 BMatC= 1.40D-02 BMatP= 4.04D-02
 IDIUse=3 WtCom= 8.93D-01 WtEn= 1.07D-01
 Coeff-Com: -0.546D+00 0.109D+01 0.452D+00
 Coeff-En:   0.000D+00 0.000D+00 0.100D+01
 Coeff:     -0.487D+00 0.977D+00 0.511D+00
 Gap=     0.124 Goal=   None    Shift=    0.000
 RMSDP=2.16D-03 MaxDP=2.19D-01 DE=-8.02D-02 OVMax= 1.41D-01

 Cycle   4  Pass 1  IDiag  1:
 RMSU=  1.80D-03    CP:  7.98D-01  1.81D+00  7.08D-01
 E= -192.777177127366     Delta-E=        0.004108088248 Rises=F Damp=F
 DIIS: error= 1.16D-02 at cycle   4 NSaved=   4.
 NSaved= 4 IEnMin= 3 EnMin= -192.781285215614     IErMin= 3 ErrMin= 1.07D-02
 ErrMax= 1.16D-02  0.00D+00 EMaxC= 1.00D-01 BMatC= 1.78D-02 BMatP= 1.40D-02
 IDIUse=2 WtCom= 0.00D+00 WtEn= 1.00D+00
 Coeff-En:   0.000D+00 0.000D+00 0.542D+00 0.458D+00
 Coeff:      0.000D+00 0.000D+00 0.542D+00 0.458D+00
 Gap=     0.125 Goal=   None    Shift=    0.000
 RMSDP=1.25D-03 MaxDP=1.31D-01 DE= 4.11D-03 OVMax= 7.90D-02

 Cycle   5  Pass 1  IDiag  1:
 RMSU=  3.21D-04    CP:  8.40D-01  1.80D+00  7.98D-01  4.23D-01
 E= -192.794744735299     Delta-E=       -0.017567607933 Rises=F Damp=F
 DIIS: error= 3.63D-03 at cycle   5 NSaved=   5.
 NSaved= 5 IEnMin= 5 EnMin= -192.794744735299     IErMin= 5 ErrMin= 3.63D-03
 ErrMax= 3.63D-03  0.00D+00 EMaxC= 1.00D-01 BMatC= 1.08D-03 BMatP= 1.40D-02
 IDIUse=3 WtCom= 9.64D-01 WtEn= 3.63D-02
 Coeff-Com:  0.220D-01-0.178D-01 0.261D+00 0.220D+00 0.516D+00
 Coeff-En:   0.000D+00 0.000D+00 0.000D+00 0.000D+00 0.100D+01
 Coeff:      0.212D-01-0.172D-01 0.251D+00 0.212D+00 0.533D+00
 Gap=     0.129 Goal=   None    Shift=    0.000
 RMSDP=2.65D-04 MaxDP=1.99D-02 DE=-1.76D-02 OVMax= 9.30D-03

 Cycle   6  Pass 1  IDiag  1:
 RMSU=  9.50D-05    CP:  8.33D-01  1.73D+00  8.53D-01  4.78D-01  5.18D-01
 E= -192.795738381184     Delta-E=       -0.000993645885 Rises=F Damp=F
 DIIS: error= 6.80D-04 at cycle   6 NSaved=   6.
 NSaved= 6 IEnMin= 6 EnMin= -192.795738381184     IErMin= 6 ErrMin= 6.80D-04
 ErrMax= 6.80D-04  0.00D+00 EMaxC= 1.00D-01 BMatC= 4.62D-05 BMatP= 1.08D-03
 IDIUse=3 WtCom= 9.93D-01 WtEn= 6.80D-03
 Coeff-Com:  0.352D-01-0.508D-01 0.104D+00 0.926D-01 0.324D+00 0.495D+00
 Coeff-En:   0.000D+00 0.000D+00 0.000D+00 0.000D+00 0.000D+00 0.100D+01
 Coeff:      0.350D-01-0.504D-01 0.103D+00 0.920D-01 0.322D+00 0.499D+00
 Gap=     0.128 Goal=   None    Shift=    0.000
 RMSDP=6.20D-05 MaxDP=5.74D-03 DE=-9.94D-04 OVMax= 3.83D-03

 Cycle   7  Pass 1  IDiag  1:
 RMSU=  2.09D-05    CP:  8.35D-01  1.73D+00  8.46D-01  4.66D-01  5.87D-01
                    CP:  6.12D-01
 E= -192.795785893938     Delta-E=       -0.000047512754 Rises=F Damp=F
 DIIS: error= 1.73D-04 at cycle   7 NSaved=   7.
 NSaved= 7 IEnMin= 7 EnMin= -192.795785893938     IErMin= 7 ErrMin= 1.73D-04
 ErrMax= 1.73D-04  0.00D+00 EMaxC= 1.00D-01 BMatC= 3.52D-06 BMatP= 4.62D-05
 IDIUse=3 WtCom= 9.98D-01 WtEn= 1.73D-03
 Coeff-Com:  0.178D-01-0.258D-01 0.421D-01 0.384D-01 0.143D+00 0.289D+00
 Coeff-Com:  0.495D+00
 Coeff-En:   0.000D+00 0.000D+00 0.000D+00 0.000D+00 0.000D+00 0.000D+00
 Coeff-En:   0.100D+01
 Coeff:      0.178D-01-0.258D-01 0.420D-01 0.384D-01 0.143D+00 0.289D+00
 Coeff:      0.496D+00
 Gap=     0.128 Goal=   None    Shift=    0.000
 RMSDP=9.43D-06 MaxDP=3.54D-04 DE=-4.75D-05 OVMax= 1.18D-03

 Cycle   8  Pass 1  IDiag  1:
 RMSU=  7.34D-06    CP:  8.35D-01  1.73D+00  8.46D-01  4.67D-01  5.80D-01
                    CP:  6.39D-01  8.03D-01
 E= -192.795789309543     Delta-E=       -0.000003415605 Rises=F Damp=F
 DIIS: error= 4.30D-05 at cycle   8 NSaved=   8.
 NSaved= 8 IEnMin= 8 EnMin= -192.795789309543     IErMin= 8 ErrMin= 4.30D-05
 ErrMax= 4.30D-05  0.00D+00 EMaxC= 1.00D-01 BMatC= 3.55D-07 BMatP= 3.52D-06
 IDIUse=1 WtCom= 1.00D+00 WtEn= 0.00D+00
 Coeff-Com:  0.280D-02-0.395D-02 0.183D-02 0.253D-02 0.974D-02 0.595D-01
 Coeff-Com:  0.266D+00 0.662D+00
 Coeff:      0.280D-02-0.395D-02 0.183D-02 0.253D-02 0.974D-02 0.595D-01
 Coeff:      0.266D+00 0.662D+00
 Gap=     0.128 Goal=   None    Shift=    0.000
 RMSDP=3.04D-06 MaxDP=1.54D-04 DE=-3.42D-06 OVMax= 1.54D-04

 Cycle   9  Pass 1  IDiag  1:
 RMSU=  1.68D-06    CP:  8.35D-01  1.73D+00  8.47D-01  4.67D-01  5.78D-01
                    CP:  6.43D-01  7.99D-01  7.40D-01
 E= -192.795789639749     Delta-E=       -0.000000330206 Rises=F Damp=F
 DIIS: error= 4.98D-06 at cycle   9 NSaved=   9.
 NSaved= 9 IEnMin= 9 EnMin= -192.795789639749     IErMin= 9 ErrMin= 4.98D-06
 ErrMax= 4.98D-06  0.00D+00 EMaxC= 1.00D-01 BMatC= 5.65D-09 BMatP= 3.55D-07
 IDIUse=1 WtCom= 1.00D+00 WtEn= 0.00D+00
 Coeff-Com:  0.253D-03-0.332D-03-0.737D-03-0.176D-03-0.173D-02 0.798D-02
 Coeff-Com:  0.658D-01 0.173D+00 0.756D+00
 Coeff:      0.253D-03-0.332D-03-0.737D-03-0.176D-03-0.173D-02 0.798D-02
 Coeff:      0.658D-01 0.173D+00 0.756D+00
 Gap=     0.128 Goal=   None    Shift=    0.000
 RMSDP=6.38D-07 MaxDP=3.92D-05 DE=-3.30D-07 OVMax= 2.29D-05

 Cycle  10  Pass 1  IDiag  1:
 RMSU=  4.92D-07    CP:  8.35D-01  1.73D+00  8.47D-01  4.67D-01  5.78D-01
                    CP:  6.41D-01  8.06D-01  7.51D-01  1.02D+00
 E= -192.795789643749     Delta-E=       -0.000000004000 Rises=F Damp=F
 DIIS: error= 3.45D-06 at cycle  10 NSaved=  10.
 NSaved=10 IEnMin=10 EnMin= -192.795789643749     IErMin=10 ErrMin= 3.45D-06
 ErrMax= 3.45D-06  0.00D+00 EMaxC= 1.00D-01 BMatC= 1.42D-09 BMatP= 5.65D-09
 IDIUse=1 WtCom= 1.00D+00 WtEn= 0.00D+00
 Coeff-Com: -0.837D-04 0.117D-03-0.604D-03-0.283D-03-0.179D-02-0.948D-03
 Coeff-Com:  0.135D-01 0.328D-01 0.375D+00 0.582D+00
 Coeff:     -0.837D-04 0.117D-03-0.604D-03-0.283D-03-0.179D-02-0.948D-03
 Coeff:      0.135D-01 0.328D-01 0.375D+00 0.582D+00
 Gap=     0.128 Goal=   None    Shift=    0.000
 RMSDP=2.29D-07 MaxDP=8.62D-06 DE=-4.00D-09 OVMax= 1.39D-05

 Cycle  11  Pass 1  IDiag  1:
 RMSU=  1.62D-07    CP:  8.35D-01  1.73D+00  8.47D-01  4.67D-01  5.78D-01
                    CP:  6.42D-01  8.05D-01  7.48D-01  1.08D+00  8.03D-01
 E= -192.795789645170     Delta-E=       -0.000000001421 Rises=F Damp=F
 DIIS: error= 7.24D-07 at cycle  11 NSaved=  11.
 NSaved=11 IEnMin=11 EnMin= -192.795789645170     IErMin=11 ErrMin= 7.24D-07
 ErrMax= 7.24D-07  0.00D+00 EMaxC= 1.00D-01 BMatC= 1.07D-10 BMatP= 1.42D-09
 IDIUse=1 WtCom= 1.00D+00 WtEn= 0.00D+00
 Coeff-Com: -0.370D-04 0.492D-04-0.920D-04-0.213D-04-0.260D-03-0.814D-03
 Coeff-Com: -0.106D-02-0.624D-02-0.220D-02 0.182D+00 0.829D+00
 Coeff:     -0.370D-04 0.492D-04-0.920D-04-0.213D-04-0.260D-03-0.814D-03
 Coeff:     -0.106D-02-0.624D-02-0.220D-02 0.182D+00 0.829D+00
 Gap=     0.128 Goal=   None    Shift=    0.000
 RMSDP=9.05D-08 MaxDP=8.13D-06 DE=-1.42D-09 OVMax= 3.42D-06

 Cycle  12  Pass 1  IDiag  1:
 RMSU=  4.28D-08    CP:  8.35D-01  1.73D+00  8.47D-01  4.67D-01  5.78D-01
                    CP:  6.41D-01  8.05D-01  7.50D-01  1.09D+00  8.90D-01
                    CP:  9.46D-01
 E= -192.795789645288     Delta-E=       -0.000000000118 Rises=F Damp=F
 DIIS: error= 2.04D-07 at cycle  12 NSaved=  12.
 NSaved=12 IEnMin=12 EnMin= -192.795789645288     IErMin=12 ErrMin= 2.04D-07
 ErrMax= 2.04D-07  0.00D+00 EMaxC= 1.00D-01 BMatC= 4.10D-12 BMatP= 1.07D-10
 IDIUse=1 WtCom= 1.00D+00 WtEn= 0.00D+00
 Coeff-Com: -0.570D-05 0.815D-05 0.708D-06 0.330D-05 0.895D-05-0.983D-04
 Coeff-Com: -0.748D-03-0.234D-02-0.211D-01-0.140D-01 0.283D-01 0.101D+01
 Coeff:     -0.570D-05 0.815D-05 0.708D-06 0.330D-05 0.895D-05-0.983D-04
 Coeff:     -0.748D-03-0.234D-02-0.211D-01-0.140D-01 0.283D-01 0.101D+01
 Gap=     0.128 Goal=   None    Shift=    0.000
 RMSDP=2.70D-08 MaxDP=1.88D-06 DE=-1.18D-10 OVMax= 1.54D-06

 Cycle  13  Pass 1  IDiag  1:
 RMSU=  1.16D-08    CP:  8.35D-01  1.73D+00  8.47D-01  4.67D-01  5.78D-01
                    CP:  6.41D-01  8.05D-01  7.50D-01  1.10D+00  9.04D-01
                    CP:  9.82D-01  1.22D+00
 E= -192.795789645289     Delta-E=       -0.000000000001 Rises=F Damp=F
 DIIS: error= 4.56D-08 at cycle  13 NSaved=  13.
 NSaved=13 IEnMin=13 EnMin= -192.795789645289     IErMin=13 ErrMin= 4.56D-08
 ErrMax= 4.56D-08  0.00D+00 EMaxC= 1.00D-01 BMatC= 1.81D-13 BMatP= 4.10D-12
 IDIUse=1 WtCom= 1.00D+00 WtEn= 0.00D+00
 Coeff-Com: -0.740D-07 0.289D-06 0.112D-05 0.103D-05 0.663D-05-0.243D-06
 Coeff-Com: -0.191D-04-0.616D-04-0.250D-02-0.957D-02-0.408D-01 0.193D+00
 Coeff-Com:  0.860D+00
 Coeff:     -0.740D-07 0.289D-06 0.112D-05 0.103D-05 0.663D-05-0.243D-06
 Coeff:     -0.191D-04-0.616D-04-0.250D-02-0.957D-02-0.408D-01 0.193D+00
 Coeff:      0.860D+00
 Gap=     0.128 Goal=   None    Shift=    0.000
 RMSDP=3.78D-09 MaxDP=2.50D-07 DE=-1.31D-12 OVMax= 2.32D-07

 SCF Done:  E(RB3LYP) =  -192.795789645     A.U. after   13 cycles
            NFock= 13  Conv=0.38D-08     -V/T= 2.0047
 KE= 1.918926216798D+02 PE=-7.297147623460D+02 EE= 2.036242118449D+02
 Leave Link  502 at Wed Jun 22 02:31:31 2016, MaxMem=    33554432 cpu:       596.0
 (Enter /home/proyectos/fulerenos/M3C-v1.9/M3C-deps_CCC/g09-AM64L-G09RevC.01/l801.exe)
 DoSCS=F DFT=T ScalE2(SS,OS)=  1.000000  1.000000
 Range of M.O.s used for correlation:     1   235
 NBasis=   235 NAE=    17 NBE=    17 NFC=     0 NFV=     0
 NROrb=    235 NOA=    17 NOB=    17 NVA=   218 NVB=   218

 **** Warning!!: The largest alpha MO coefficient is  0.10651377D+03

 Leave Link  801 at Wed Jun 22 02:31:31 2016, MaxMem=    33554432 cpu:         0.1
 (Enter /home/proyectos/fulerenos/M3C-v1.9/M3C-deps_CCC/g09-AM64L-G09RevC.01/l1101.exe)
 Using compressed storage, NAtomX=     9.
 Will process     10 centers per pass.
 Leave Link 1101 at Wed Jun 22 02:31:31 2016, MaxMem=    33554432 cpu:         1.6
 (Enter /home/proyectos/fulerenos/M3C-v1.9/M3C-deps_CCC/g09-AM64L-G09RevC.01/l1102.exe)
 Symmetrizing basis deriv contribution to polar:
 IMax=3 JMax=2 DiffMx= 0.00D+00
 Leave Link 1102 at Wed Jun 22 02:31:31 2016, MaxMem=    33554432 cpu:         0.2
 (Enter /home/proyectos/fulerenos/M3C-v1.9/M3C-deps_CCC/g09-AM64L-G09RevC.01/l1110.exe)
 Forming Gx(P) for the SCF density, NAtomX=     9.
 Integral derivatives from FoFJK, PRISM(SPDF).
 Do as many integral derivatives as possible in FoFJK.
 G2DrvN: MDV=      33554256.
 G2DrvN: will do    10 centers at a time, making    1 passes.
 Calling FoFCou, ICntrl=  3107 FMM=F I1Cent=   0 AccDes= 0.00D+00.
 FoFJK:  IHMeth= 1 ICntrl=    3107 DoSepK=F KAlg= 0 I1Cent=   0 FoldK=F
 IRaf=         0 NMat=   1 IRICut=       1 DoRegI=T DoRafI=F ISym2E= 0.
 FoFCou: FMM=F IPFlag=           0 FMFlag=      100000 FMFlg1=           0
         NFxFlg=           0 DoJE=F BraDBF=F KetDBF=F FulRan=T
         wScrn=  0.000000 ICntrl=    3107 IOpCl=  0 I1Cent=           0 NGrid=           0
         NMat0=    1 NMatS0=      1 NMatT0=    0 NMatD0=    1 NMtDS0=    0 NMtDT0=    0
 Symmetry not used in FoFCou.
 End of G2Drv F.D. properties file   721 does not exist.
 End of G2Drv F.D. properties file   722 does not exist.
 End of G2Drv F.D. properties file   788 does not exist.
 Leave Link 1110 at Wed Jun 22 02:33:53 2016, MaxMem=    33554432 cpu:       559.8
 (Enter /home/proyectos/fulerenos/M3C-v1.9/M3C-deps_CCC/g09-AM64L-G09RevC.01/l1002.exe)
 Minotr:  Closed shell wavefunction.
          IDoAtm=111111111
          Direct CPHF calculation.
          Differentiating once with respect to electric field.
                with respect to dipole field.
          Differentiating once with respect to nuclear coordinates.
          Requested convergence is 1.0D-08 RMS, and 1.0D-07 maximum.
          Secondary convergence is 1.0D-12 RMS, and 1.0D-12 maximum.
          NewPWx=T KeepS1=F KeepF1=F KeepIn=T MapXYZ=F SortEE=F KeepMc=T.
          MDV=      33554103 using IRadAn=       2.
 Generate precomputed XC quadrature information.
          Solving linear equations simultaneously, MaxMat=       0.
 FoFJK:  IHMeth= 1 ICntrl=       0 DoSepK=F KAlg= 0 I1Cent=   0 FoldK=F
 IRaf= 990000000 NMat=  30 IRICut=      75 DoRegI=T DoRafI=T ISym2E= 2.
 FoFCou: FMM=F IPFlag=           0 FMFlag=      100000 FMFlg1=           0
         NFxFlg=           0 DoJE=F BraDBF=F KetDBF=F FulRan=T
         wScrn=  0.000000 ICntrl=       0 IOpCl=  0 I1Cent=           0 NGrid=           0
         NMat0=   30 NMatS0=     30 NMatT0=    0 NMatD0=   30 NMtDS0=    0 NMtDT0=    0
 Integrals replicated using symmetry in FoFCou.
          There are    30 degrees of freedom in the 1st order CPHF.  IDoFFX=6 NUNeed=     3.
     27 vectors produced by pass  0 Test12= 1.24D-14 3.33D-09 XBig12= 1.26D+02 8.26D+00.
 AX will form    27 AO Fock derivatives at one time.
     27 vectors produced by pass  1 Test12= 1.24D-14 3.33D-09 XBig12= 1.14D+02 2.72D+00.
     27 vectors produced by pass  2 Test12= 1.24D-14 3.33D-09 XBig12= 1.70D+00 2.47D-01.
     27 vectors produced by pass  3 Test12= 1.24D-14 3.33D-09 XBig12= 4.12D-03 1.23D-02.
     27 vectors produced by pass  4 Test12= 1.24D-14 3.33D-09 XBig12= 1.27D-05 6.54D-04.
     27 vectors produced by pass  5 Test12= 1.24D-14 3.33D-09 XBig12= 2.72D-08 2.98D-05.
      6 vectors produced by pass  6 Test12= 1.24D-14 3.33D-09 XBig12= 3.56D-11 7.75D-07.
      3 vectors produced by pass  7 Test12= 1.24D-14 3.33D-09 XBig12= 1.28D-13 1.01D-07.
      3 vectors produced by pass  8 Test12= 1.24D-14 3.33D-09 XBig12= 1.89D-14 2.78D-08.
      2 vectors produced by pass  9 Test12= 1.24D-14 3.33D-09 XBig12= 2.12D-15 2.04D-08.
      1 vectors produced by pass 10 Test12= 1.24D-14 3.33D-09 XBig12= 2.23D-16 5.69D-09.
 InvSVY:  IOpt=1 It=  1 EMax= 8.88D-15
 Solved reduced A of dimension   177 with    30 vectors.
 FullF1:  Do perturbations    1 to     3.
 Isotropic polarizability for W=    0.000000       55.40 Bohr**3.
 End of Minotr F.D. properties file   721 does not exist.
 End of Minotr F.D. properties file   722 does not exist.
 End of Minotr F.D. properties file   788 does not exist.
 Leave Link 1002 at Wed Jun 22 02:40:35 2016, MaxMem=    33554432 cpu:      1606.1
 (Enter /home/proyectos/fulerenos/M3C-v1.9/M3C-deps_CCC/g09-AM64L-G09RevC.01/l601.exe)
 Copying SCF densities to generalized density rwf, IOpCl= 0 IROHF=0.

 **********************************************************************

            Population analysis using the SCF density.

 **********************************************************************

 Orbital symmetries:
       Occupied  (A) (A) (A) (A) (A) (A) (A) (A) (A) (A) (A) (A)
                 (A) (A) (A) (A) (A)
       Virtual   (A) (A) (A) (A) (A) (A) (A) (A) (A) (A) (A) (A)
                 (A) (A) (A) (A) (A) (A) (A) (A) (A) (A) (A) (A)
                 (A) (A) (A) (A) (A) (A) (A) (A) (A) (A) (A) (A)
                 (A) (A) (A) (A) (A) (A) (A) (A) (A) (A) (A) (A)
                 (A) (A) (A) (A) (A) (A) (A) (A) (A) (A) (A) (A)
                 (A) (A) (A) (A) (A) (A) (A) (A) (A) (A) (A) (A)
                 (A) (A) (A) (A) (A) (A) (A) (A) (A) (A) (A) (A)
                 (A) (A) (A) (A) (A) (A) (A) (A) (A) (A) (A) (A)
                 (A) (A) (A) (A) (A) (A) (A) (A) (A) (A) (A) (A)
                 (A) (A) (A) (A) (A) (A) (A) (A) (A) (A) (A) (A)
                 (A) (A) (A) (A) (A) (A) (A) (A) (A) (A) (A) (A)
                 (A) (A) (A) (A) (A) (A) (A) (A) (A) (A) (A) (A)
                 (A) (A) (A) (A) (A) (A) (A) (A) (A) (A) (A) (A)
                 (A) (A) (A) (A) (A) (A) (A) (A) (A) (A) (A) (A)
                 (A) (A) (A) (A) (A) (A) (A) (A) (A) (A) (A) (A)
                 (A) (A) (A) (A) (A) (A) (A) (A) (A) (A) (A) (A)
                 (A) (A) (A) (A) (A) (A) (A) (A) (A) (A) (A) (A)
                 (A) (A) (A) (A) (A) (A) (A) (A) (A) (A) (A) (A)
                 (A) (A)
 The electronic state is 1-A.
 Alpha  occ. eigenvalues --  -10.22206 -10.21284 -10.19599 -10.18751 -10.17205
 Alpha  occ. eigenvalues --   -0.88465  -0.72630  -0.71363  -0.57469  -0.50753
 Alpha  occ. eigenvalues --   -0.48244  -0.46101  -0.40066  -0.38958  -0.33342
 Alpha  occ. eigenvalues --   -0.26882  -0.24623
 Alpha virt. eigenvalues --   -0.11790  -0.03488  -0.00726   0.01365   0.02259
 Alpha virt. eigenvalues --    0.02447   0.05650   0.05884   0.06663   0.06747
 Alpha virt. eigenvalues --    0.07783   0.09458   0.10070   0.11385   0.11549
 Alpha virt. eigenvalues --    0.12712   0.12815   0.13568   0.13647   0.14699
 Alpha virt. eigenvalues --    0.14898   0.15461   0.15942   0.16217   0.19816
 Alpha virt. eigenvalues --    0.20127   0.20357   0.21722   0.22850   0.23301
 Alpha virt. eigenvalues --    0.25924   0.29162   0.31796   0.33281   0.34382
 Alpha virt. eigenvalues --    0.36028   0.37756   0.39422   0.40166   0.42373
 Alpha virt. eigenvalues --    0.42740   0.44755   0.45147   0.46021   0.46734
 Alpha virt. eigenvalues --    0.47318   0.48875   0.51527   0.52621   0.53594
 Alpha virt. eigenvalues --    0.57337   0.57817   0.58449   0.58480   0.61064
 Alpha virt. eigenvalues --    0.63352   0.64068   0.64927   0.65211   0.66175
 Alpha virt. eigenvalues --    0.66554   0.67138   0.70956   0.72499   0.78705
 Alpha virt. eigenvalues --    0.80893   0.81237   0.82996   0.85042   0.86268
 Alpha virt. eigenvalues --    0.86365   0.92259   0.93646   0.97165   0.97934
 Alpha virt. eigenvalues --    1.02701   1.03504   1.06314   1.07653   1.10218
 Alpha virt. eigenvalues --    1.11072   1.15818   1.18203   1.20567   1.20724
 Alpha virt. eigenvalues --    1.23046   1.23549   1.23586   1.28309   1.29472
 Alpha virt. eigenvalues --    1.32377   1.37011   1.37108   1.38546   1.39746
 Alpha virt. eigenvalues --    1.41834   1.45580   1.47226   1.47266   1.51027
 Alpha virt. eigenvalues --    1.53864   1.58672   1.71919   1.73370   1.74514
 Alpha virt. eigenvalues --    1.80169   1.83730   1.85861   1.92032   1.97222
 Alpha virt. eigenvalues --    1.97713   2.03605   2.04867   2.10641   2.15232
 Alpha virt. eigenvalues --    2.18472   2.28344   2.29223   2.37308   2.47415
 Alpha virt. eigenvalues --    2.48986   2.53152   2.55400   2.60397   2.65947
 Alpha virt. eigenvalues --    2.74836   2.76215   2.76323   2.80442   2.81417
 Alpha virt. eigenvalues --    2.84959   2.86633   2.89746   2.91693   2.96447
 Alpha virt. eigenvalues --    2.96794   3.00348   3.03726   3.05338   3.07334
 Alpha virt. eigenvalues --    3.13799   3.19349   3.22778   3.24021   3.25432
 Alpha virt. eigenvalues --    3.26033   3.29356   3.32188   3.34816   3.37861
 Alpha virt. eigenvalues --    3.44888   3.45878   3.57558   3.65011   3.67791
 Alpha virt. eigenvalues --    3.70643   3.74184   3.83606   3.85624   3.91231
 Alpha virt. eigenvalues --    3.93291   3.96680   4.00641   4.08279   4.16355
 Alpha virt. eigenvalues --    4.19497   4.25785   4.26525   4.28979   4.32973
 Alpha virt. eigenvalues --    4.35317   4.45730   4.53584   4.53926   4.59347
 Alpha virt. eigenvalues --    4.62422   4.63063   4.68852   4.76052   4.80356
 Alpha virt. eigenvalues --    4.85184   4.97822   5.38874   5.51779   5.63146
 Alpha virt. eigenvalues --    5.71500   5.79173   6.17943   7.01406   7.03396
 Alpha virt. eigenvalues --    7.10203   7.11330   7.17462   7.23545   7.24257
 Alpha virt. eigenvalues --    7.30360   7.37756   7.42413   7.43227   7.48729
 Alpha virt. eigenvalues --    7.53680   7.54936   7.63619   7.70773   7.71449
 Alpha virt. eigenvalues --    7.79934   7.94674   8.12717   8.15067   8.22604
 Alpha virt. eigenvalues --    8.38620   8.64391   9.19890  23.77547  24.41508
 Alpha virt. eigenvalues --   24.58846  25.58960  26.61401
          Condensed to atoms (all electrons):
               1          2          3          4          5          6
     1  H    0.516554   0.000592  -0.094794  -0.000091  -0.065876   0.025141
     2  H    0.000592   0.530838  -0.005856   0.005009   0.445687   0.006240
     3  C   -0.094794  -0.005856   8.511134  -0.003985   0.200222  -1.639386
     4  H   -0.000091   0.005009  -0.003985   0.491785  -0.071494  -0.105269
     5  C   -0.065876   0.445687   0.200222  -0.071494   5.985580  -0.218236
     6  C    0.025141   0.006240  -1.639386  -0.105269  -0.218236   7.282934
     7  C    0.012878  -0.102214  -0.437453   0.471333   0.070899   0.189267
     8  C    0.494834  -0.042533  -0.048334   0.018371  -0.073131  -0.018723
     9  H   -0.034897   0.000643  -0.094532  -0.000118  -0.065350   0.024994
               7          8          9
     1  H    0.012878   0.494834  -0.034897
     2  H   -0.102214  -0.042533   0.000643
     3  C   -0.437453  -0.048334  -0.094532
     4  H    0.471333   0.018371  -0.000118
     5  C    0.070899  -0.073131  -0.065350
     6  C    0.189267  -0.018723   0.024994
     7  C    5.916183   0.037552   0.012741
     8  C    0.037552   5.471589   0.494558
     9  H    0.012741   0.494558   0.516031
 Mulliken charges:
               1
     1  H    0.145659
     2  H    0.161594
     3  C   -0.387015
     4  H    0.194460
     5  C   -0.208300
     6  C    0.453038
     7  C   -0.171185
     8  C   -0.334183
     9  H    0.145931
 Sum of Mulliken charges =  -0.00000
 Mulliken charges with hydrogens summed into heavy atoms:
               1
     3  C   -0.387015
     5  C   -0.046705
     6  C    0.453038
     7  C    0.023275
     8  C   -0.042593
 APT charges:
               1
     1  H    0.039577
     2  H    0.044069
     3  C   -0.466798
     4  H    0.065444
     5  C   -0.048980
     6  C   -0.172879
     7  C    0.217611
     8  C    0.282064
     9  H    0.039891
 Sum of APT charges =  -0.00000
 APT charges with hydrogens summed into heavy atoms:
               1
     3  C   -0.466798
     5  C   -0.004910
     6  C   -0.172879
     7  C    0.283055
     8  C    0.361533
 Electronic spatial extent (au):  <R**2>=            290.1654
 Charge=             -0.0000 electrons
 Dipole moment (field-independent basis, Debye):
    X=              0.5802    Y=              2.1000    Z=              0.0022  Tot=              2.1787
 Quadrupole moment (field-independent basis, Debye-Ang):
   XX=            -27.3153   YY=            -30.6981   ZZ=            -31.3981
   XY=             -2.5489   XZ=             -0.0075   YZ=             -0.0019
 Traceless Quadrupole moment (field-independent basis, Debye-Ang):
   XX=              2.4885   YY=             -0.8943   ZZ=             -1.5943
   XY=             -2.5489   XZ=             -0.0075   YZ=             -0.0019
 Octapole moment (field-independent basis, Debye-Ang**2):
  XXX=              6.8187  YYY=             11.8495  ZZZ=              0.0099  XYY=              2.7531
  XXY=              4.5517  XXZ=              0.0032  XZZ=             -2.2587  YZZ=              2.6935
  YYZ=             -0.0046  XYZ=              0.0064
 Hexadecapole moment (field-independent basis, Debye-Ang**3):
 XXXX=           -185.7489 YYYY=           -187.3545 ZZZZ=            -44.9899 XXXY=             -9.4189
 XXXZ=             -0.0195 YYYX=             -4.5560 YYYZ=             -0.0077 ZZZX=             -0.0201
 ZZZY=              0.0016 XXYY=            -66.1628 XXZZ=            -40.7046 YYZZ=            -41.5240
 XXYZ=             -0.0131 YYXZ=             -0.0092 ZZXY=             -4.2422
 N-N= 1.414021391760D+02 E-N=-7.297147627161D+02  KE= 1.918926216798D+02
  Exact polarizability:  65.419  -0.916  61.601   0.013   0.001  39.183
 Approx polarizability: 132.392 -10.526  98.584   0.075  -0.007  57.344
 No NMR shielding tensors so no spin-rotation constants.
 Leave Link  601 at Wed Jun 22 02:40:35 2016, MaxMem=    33554432 cpu:         1.3
 (Enter /home/proyectos/fulerenos/M3C-v1.9/M3C-deps_CCC/g09-AM64L-G09RevC.01/l701.exe)
 Compute integral second derivatives.
 ... and contract with generalized density number  0.
 Leave Link  701 at Wed Jun 22 02:40:36 2016, MaxMem=    33554432 cpu:         2.0
 (Enter /home/proyectos/fulerenos/M3C-v1.9/M3C-deps_CCC/g09-AM64L-G09RevC.01/l702.exe)
 L702 exits ... SP integral derivatives will be done elsewhere.
 Leave Link  702 at Wed Jun 22 02:40:36 2016, MaxMem=    33554432 cpu:         0.1
 (Enter /home/proyectos/fulerenos/M3C-v1.9/M3C-deps_CCC/g09-AM64L-G09RevC.01/l703.exe)
 Compute integral second derivatives, UseDBF=F ICtDFT=           0.
 Integral derivatives from FoFJK, PRISM(SPDF).
 Calling FoFJK, ICntrl=    100127 FMM=F ISym2X=0 I1Cent= 0 IOpClX= 0 NMat=1 NMatS=1 NMatT=0.
 FoFJK:  IHMeth= 1 ICntrl=  100127 DoSepK=F KAlg= 0 I1Cent=   0 FoldK=F
 IRaf=         0 NMat=   1 IRICut=       1 DoRegI=T DoRafI=F ISym2E= 0.
 FoFCou: FMM=F IPFlag=           0 FMFlag=      100000 FMFlg1=         800
         NFxFlg=           0 DoJE=F BraDBF=F KetDBF=F FulRan=T
         wScrn=  0.000000 ICntrl=  100127 IOpCl=  0 I1Cent=           0 NGrid=           0
         NMat0=    1 NMatS0=      1 NMatT0=    0 NMatD0=    1 NMtDS0=    0 NMtDT0=    0
 Symmetry not used in FoFCou.
 Leave Link  703 at Wed Jun 22 02:46:17 2016, MaxMem=    33554432 cpu:      1361.9
 (Enter /home/proyectos/fulerenos/M3C-v1.9/M3C-deps_CCC/g09-AM64L-G09RevC.01/l716.exe)
 Dipole        = 2.28276194D-01 8.26208772D-01 8.84898066D-04
 Polarizability= 6.54189663D+01-9.15756022D-01 6.16009382D+01
                 1.28415905D-02 7.08973834D-04 3.91829653D+01
 Full mass-weighted force constant matrix:
 Low frequencies ---  -11.7825   -0.0006   -0.0004    0.0003   19.9894   21.3088
 Low frequencies ---  161.2486  252.8221  425.4427
 Diagonal vibrational polarizability:
       70.3773211       2.0097021      11.2371819
 Harmonic frequencies (cm**-1), IR intensities (KM/Mole), Raman scattering
 activities (A**4/AMU), depolarization ratios for plane and unpolarized
 incident light, reduced masses (AMU), force constants (mDyne/A),
 and normal coordinates:
                      1                      2                      3
                      A                      A                      A
 Frequencies --    161.2434               252.8164               425.4423
 Red. masses --      3.0467                 9.8693                 2.3353
 Frc consts  --      0.0467                 0.3717                 0.2490
 IR Inten    --      7.6757               166.4141                 4.0084
  Atom  AN      X      Y      Z        X      Y      Z        X      Y      Z
     1   1     0.33  -0.32  -0.43     0.19  -0.19   0.00    -0.40   0.11   0.33
     2   1     0.00   0.00   0.15     0.07   0.05  -0.00    -0.00  -0.00  -0.25
     3   6    -0.00  -0.00   0.30    -0.39  -0.46  -0.00     0.00   0.00   0.06
     4   1     0.00  -0.00  -0.01     0.16  -0.12   0.00    -0.00   0.00   0.51
     5   6     0.00   0.00   0.10     0.14   0.03  -0.00    -0.00  -0.00  -0.18
     6   6    -0.00   0.00  -0.27    -0.18   0.54   0.00     0.00  -0.00  -0.19
     7   6     0.00   0.00   0.03     0.17   0.08   0.00    -0.00  -0.00   0.22
     8   6     0.00  -0.00  -0.10     0.21  -0.15   0.00    -0.00   0.00   0.02
     9   1    -0.32   0.32  -0.43     0.20  -0.20   0.01     0.41  -0.11   0.32
                      4                      5                      6
                      A                      A                      A
 Frequencies --    715.1050               771.6177               863.6123
 Red. masses --      1.2136                 7.2647                 1.6095
 Frc consts  --      0.3657                 2.5484                 0.7073
 IR Inten    --     43.7536                 4.6611                 8.3284
  Atom  AN      X      Y      Z        X      Y      Z        X      Y      Z
     1   1    -0.22  -0.01   0.07     0.31  -0.05   0.00     0.33  -0.37  -0.18
     2   1     0.00   0.00   0.82    -0.04   0.31   0.00     0.00   0.00   0.03
     3   6     0.00   0.00   0.05    -0.03  -0.25   0.00     0.00  -0.00  -0.08
     4   1     0.00   0.00   0.46    -0.36   0.03   0.00     0.00   0.00   0.62
     5   6    -0.00  -0.00  -0.03     0.00   0.31   0.00     0.00   0.00  -0.11
     6   6     0.00   0.00   0.03    -0.03  -0.31   0.00     0.00  -0.00  -0.01
     7   6     0.00  -0.00  -0.10    -0.36   0.13  -0.00    -0.00   0.00  -0.03
     8   6    -0.00  -0.00  -0.07     0.39   0.10  -0.00    -0.00   0.00   0.19
     9   1     0.22   0.01   0.07     0.31  -0.05  -0.00    -0.33   0.37  -0.18
                      7                      8                      9
                      A                      A                      A
 Frequencies --    893.8333               937.1650               950.2527
 Red. masses --      2.6152                 1.4192                 4.6301
 Frc consts  --      1.2310                 0.7344                 2.4633
 IR Inten    --      1.9137                 0.0550                44.5461
  Atom  AN      X      Y      Z        X      Y      Z        X      Y      Z
     1   1     0.34   0.23   0.02    -0.05   0.16   0.05     0.01   0.44  -0.06
     2   1    -0.67  -0.06  -0.00     0.00  -0.00  -0.63     0.07  -0.21   0.00
     3   6    -0.02   0.11  -0.00     0.00  -0.00   0.03     0.00  -0.32  -0.00
     4   1     0.03   0.26   0.00     0.00   0.00   0.71     0.08   0.47  -0.00
     5   6    -0.21  -0.19  -0.00     0.00  -0.00   0.13    -0.08  -0.17  -0.00
     6   6    -0.03   0.02   0.00     0.00   0.00   0.00     0.10  -0.04   0.00
     7   6     0.03   0.03  -0.00    -0.00  -0.00  -0.13     0.07   0.02   0.00
     8   6     0.22  -0.03   0.00    -0.00   0.00  -0.05    -0.11   0.41  -0.00
     9   1     0.34   0.23  -0.03     0.05  -0.16   0.05     0.02   0.44   0.06
                     10                     11                     12
                      A                      A                      A
 Frequencies --   1069.1387              1113.9621              1124.6578
 Red. masses --      5.7306                 1.1495                 1.0943
 Frc consts  --      3.8594                 0.8404                 0.8155
 IR Inten    --     15.4610                 2.4045                 4.5093
  Atom  AN      X      Y      Z        X      Y      Z        X      Y      Z
     1   1     0.00   0.14   0.02     0.00  -0.08   0.01    -0.40  -0.56   0.02
     2   1    -0.37   0.25  -0.00     0.61  -0.24  -0.00    -0.00   0.00  -0.14
     3   6    -0.19   0.01  -0.00    -0.02   0.04  -0.00     0.00  -0.00  -0.05
     4   1     0.39   0.42   0.00    -0.04   0.74  -0.00    -0.00  -0.00  -0.09
     5   6     0.11   0.09   0.00     0.02  -0.06   0.00    -0.00   0.00   0.07
     6   6    -0.19  -0.35   0.00    -0.02  -0.00   0.00     0.00   0.00   0.01
     7   6     0.36   0.26  -0.00    -0.05   0.04   0.00    -0.00  -0.00  -0.00
     8   6    -0.10  -0.08  -0.00     0.03  -0.05  -0.00    -0.00  -0.00  -0.02
     9   1     0.01   0.15  -0.02     0.00  -0.08  -0.01     0.40   0.57   0.02
                     13                     14                     15
                      A                      A                      A
 Frequencies --   1209.0058              1318.7605              1413.4674
 Red. masses --      1.3211                 1.5377                 1.1033
 Frc consts  --      1.1377                 1.5756                 1.2988
 IR Inten    --      0.2423                 5.5048                 6.5296
  Atom  AN      X      Y      Z        X      Y      Z        X      Y      Z
     1   1     0.34   0.59   0.01     0.01   0.07   0.00     0.47  -0.29  -0.44
     2   1     0.20  -0.02   0.00    -0.61   0.27  -0.00    -0.06   0.00   0.00
     3   6     0.02  -0.03   0.00     0.00  -0.01   0.00     0.00   0.01   0.00
     4   1    -0.06  -0.11   0.00    -0.04   0.70  -0.00    -0.02  -0.01  -0.00
     5   6     0.02   0.03  -0.00     0.13   0.05  -0.00     0.02  -0.02   0.00
     6   6     0.02   0.01  -0.00     0.01   0.03  -0.00    -0.01   0.00  -0.00
     7   6    -0.05   0.02  -0.00    -0.05  -0.16   0.00    -0.02   0.03  -0.00
     8   6    -0.08  -0.12   0.00    -0.04  -0.02  -0.00    -0.07   0.03   0.00
     9   1     0.34   0.58  -0.01     0.01   0.07  -0.00     0.47  -0.29   0.44
                     16                     17                     18
                      A                      A                      A
 Frequencies --   1549.6953              2036.2618              3051.5155
 Red. masses --      4.7582                11.5594                 1.0583
 Frc consts  --      6.7326                28.2393                 5.8061
 IR Inten    --      1.7607                 0.8830                 9.2731
  Atom  AN      X      Y      Z        X      Y      Z        X      Y      Z
     1   1    -0.25   0.01   0.15    -0.01  -0.06  -0.04    -0.34   0.21  -0.58
     2   1    -0.56  -0.11   0.00    -0.04  -0.01  -0.00    -0.01  -0.04   0.00
     3   6     0.04   0.01   0.00    -0.65   0.16  -0.00     0.00  -0.00  -0.00
     4   1    -0.28  -0.30   0.00    -0.09  -0.14  -0.00    -0.01   0.00  -0.00
     5   6     0.32  -0.31   0.00     0.03  -0.02   0.00     0.00   0.00  -0.00
     6   6    -0.02   0.02  -0.00     0.70  -0.10   0.00    -0.00  -0.00   0.00
     7   6    -0.21   0.31  -0.00    -0.06   0.00   0.00    -0.00   0.00  -0.00
     8   6    -0.02   0.00  -0.00    -0.01  -0.02  -0.00     0.06  -0.04  -0.00
     9   1    -0.25   0.01  -0.15    -0.01  -0.06   0.04    -0.34   0.21   0.58
                     19                     20                     21
                      A                      A                      A
 Frequencies --   3088.2274              3165.7735              3238.4006
 Red. masses --      1.1022                 1.0910                 1.0982
 Frc consts  --      6.1933                 6.4422                 6.7856
 IR Inten    --      1.2319                11.4995                12.7607
  Atom  AN      X      Y      Z        X      Y      Z        X      Y      Z
     1   1     0.37  -0.22   0.56    -0.02   0.01  -0.02    -0.00   0.00  -0.01
     2   1     0.00   0.00   0.00     0.27   0.94  -0.00     0.04   0.14  -0.00
     3   6    -0.00  -0.00  -0.00     0.00   0.00   0.00    -0.00   0.00   0.00
     4   1     0.00  -0.00  -0.00    -0.15  -0.00   0.00     0.98  -0.02  -0.00
     5   6    -0.00  -0.00  -0.00    -0.02  -0.08   0.00     0.00  -0.02   0.00
     6   6     0.00   0.00   0.00     0.00   0.00   0.00     0.00   0.00  -0.00
     7   6     0.00  -0.00  -0.00     0.01   0.00  -0.00    -0.09   0.00   0.00
     8   6    -0.00   0.00  -0.09     0.00  -0.00   0.00     0.00  -0.00  -0.00
     9   1    -0.36   0.22   0.56    -0.02   0.01   0.02    -0.00   0.00   0.01

 -------------------
 - Thermochemistry -
 -------------------
 Temperature   298.150 Kelvin.  Pressure   1.00000 Atm.
 Atom     1 has atomic number  1 and mass   1.00783
 Atom     2 has atomic number  1 and mass   1.00783
 Atom     3 has atomic number  6 and mass  12.00000
 Atom     4 has atomic number  1 and mass   1.00783
 Atom     5 has atomic number  6 and mass  12.00000
 Atom     6 has atomic number  6 and mass  12.00000
 Atom     7 has atomic number  6 and mass  12.00000
 Atom     8 has atomic number  6 and mass  12.00000
 Atom     9 has atomic number  1 and mass   1.00783
 Molecular mass:    64.03130 amu.
 Principal axes and moments of inertia in atomic units:
                           1         2         3
     Eigenvalues --   182.77535 204.29219 375.94442
           X            0.96505  -0.26206  -0.00009
           Y            0.26206   0.96505  -0.00001
           Z            0.00009  -0.00001   1.00000
 This molecule is an asymmetric top.
 Rotational symmetry number  1.
 Rotational temperatures (Kelvin)      0.47388     0.42397     0.23039
 Rotational constants (GHZ):           9.87410     8.83412     4.80055
 Zero-point vibrational energy     175551.7 (Joules/Mol)
                                   41.95787 (Kcal/Mol)
 Warning -- explicit consideration of   3 degrees of freedom as
           vibrations may cause significant error
 Vibrational temperatures:    231.99   363.75   612.12  1028.88  1110.18
          (Kelvin)           1242.54  1286.03  1348.37  1367.20  1538.25
                             1602.74  1618.13  1739.49  1897.40  2033.66
                             2229.66  2929.72  4390.44  4443.26  4554.84
                             4659.33
 
 Zero-point correction=                           0.066864 (Hartree/Particle)
 Thermal correction to Energy=                    0.071603
 Thermal correction to Enthalpy=                  0.072548
 Thermal correction to Gibbs Free Energy=         0.039763
 Sum of electronic and zero-point Energies=           -192.728926
 Sum of electronic and thermal Energies=              -192.724186
 Sum of electronic and thermal Enthalpies=            -192.723242
 Sum of electronic and thermal Free Energies=         -192.756027
 
                     E (Thermal)             CV                S
                      KCal/Mol        Cal/Mol-Kelvin    Cal/Mol-Kelvin
 Total                   44.932             15.818             69.002
 Electronic               0.000              0.000              0.000
 Translational            0.889              2.981             38.389
 Rotational               0.889              2.981             24.155
 Vibrational             43.154              9.857              6.458
 Vibration     1          0.622              1.890              2.535
 Vibration     2          0.664              1.758              1.711
 Vibration     3          0.787              1.415              0.874
                       Q            Log10(Q)             Ln(Q)
 Total Bot       0.513463D-18        -18.289491        -42.113108
 Total V=0       0.292282D+13         12.465802         28.703571
 Vib (Bot)       0.601136D-30        -30.221027        -69.586487
 Vib (Bot)    1  0.125331D+01          0.098059          0.225788
 Vib (Bot)    2  0.770955D+00         -0.112971         -0.260125
 Vib (Bot)    3  0.410999D+00         -0.386159         -0.889164
 Vib (V=0)       0.342189D+01          0.534266          1.230192
 Vib (V=0)    1  0.184937D+01          0.267023          0.614842
 Vib (V=0)    2  0.141890D+01          0.151951          0.349880
 Vib (V=0)    3  0.114724D+01          0.059655          0.137360
 Electronic      0.100000D+01          0.000000          0.000000
 Translational   0.201393D+08          7.304044         16.818182
 Rotational      0.424124D+05          4.627493         10.655196
 
                                                              b3lyp opt
                                                             IR Spectrum
 
     3  3  3 3                                       2                  1    1   1   1  11 1                                         
     2  1  0 0                                       0                  5    4   3   2  11 0   998 8  7 7           4      2  1      
     3  6  8 5                                       3                  5    1   1   0  21 6   539 6  7 1           2      5  6      
     8  6  8 2                                       6                  0    3   9   9  54 9   074 4  2 5           5      3  1      
 
     X  X  X X                                       X                  X    X   X   X  XX X   XXX X  X X           X      X  X      
     X                                                                                     X   X        X                  X         
                                                                                               X        X                  X         
                                                                                               X        X                  X         
                                                                                               X        X                  X         
                                                                                                                           X         
                                                                                                                           X         
                                                                                                                           X         
                                                                                                                           X         
                                                                                                                           X         
                                                                                                                           X         
                                                                                                                           X         
                                                                                                                           X         
                                                                                                                           X         
                                                                                                                           X         
                                                                                                                           X         
                                                                                                                           X         
                                                                                                                           X         
                                                                                                                           X         
                                                                                                                           X         
 
 ***** Axes restored to original set *****
 -------------------------------------------------------------------
 Center     Atomic                   Forces (Hartrees/Bohr)
 Number     Number              X              Y              Z
 -------------------------------------------------------------------
      1        1           0.000007397    0.000003985   -0.000007053
      2        1           0.000012165   -0.000008742   -0.000008501
      3        6          -0.000176492    0.000048439   -0.000016242
      4        1          -0.000019316   -0.000005625   -0.000028267
      5        6           0.000018311   -0.000058717   -0.000024523
      6        6           0.000077344    0.000033599    0.000001074
      7        6           0.000075679    0.000018979    0.000068195
      8        6          -0.000000779   -0.000012264   -0.000004441
      9        1           0.000005691   -0.000019652    0.000019759
 -------------------------------------------------------------------
 Cartesian Forces:  Max     0.000176492 RMS     0.000046585
 Z-matrix is all fixed cartesians, so copy forces.
 Force constants in Cartesian coordinates: 
                1             2             3             4             5 
      1  0.117668D+00
      2  0.439323D-01  0.721044D-01
      3 -0.118244D+00 -0.728608D-01  0.232487D+00
      4  0.994078D-05 -0.199507D-03  0.787753D-03  0.734181D-01
      5  0.582640D-03 -0.221738D-03  0.442153D-05 -0.813112D-01  0.329474D+00
      6 -0.103123D-02  0.620991D-03  0.100464D-03  0.565281D-04 -0.178175D-03
      7 -0.870580D-04 -0.102375D-01 -0.934257D-04  0.235363D-02  0.920875D-03
      8 -0.276302D-02 -0.233283D-01 -0.180111D-02  0.336282D-02 -0.221469D-02
      9 -0.691008D-03  0.213292D-01  0.207861D-02  0.000000D+00  0.671706D-05
     10 -0.232127D-03 -0.305321D-04 -0.770192D-04  0.359749D-03 -0.431810D-03
     11 -0.877652D-03  0.208471D-03 -0.138563D-03  0.794753D-03  0.252790D-03
     12 -0.204822D-02  0.868703D-03 -0.415830D-03  0.000000D+00 -0.362522D-05
     13 -0.155718D-01  0.209564D-02 -0.124195D-02 -0.861329D-01  0.716033D-01
     14 -0.102513D-01  0.515494D-02 -0.126841D-02  0.756737D-01 -0.311769D+00
     15  0.222010D-01 -0.793115D-02  0.195173D-02 -0.525566D-04  0.173019D-03
     16  0.925112D-03 -0.321912D-02 -0.157085D-02  0.432767D-03  0.855852D-03
     17  0.434974D-03  0.870723D-03  0.744624D-03  0.159802D-02 -0.330763D-02
     18 -0.759865D-05 -0.182433D-02 -0.949313D-04 -0.153549D-05  0.565943D-05
     19 -0.382536D-02  0.320054D-02 -0.925707D-03  0.624410D-02  0.113638D-01
     20  0.289425D-02 -0.310288D-04 -0.826586D-03 -0.150700D-01 -0.110796D-01
     21  0.433913D-04 -0.174214D-02 -0.577439D-03  0.665788D-05  0.546925D-05
     22 -0.107328D+00 -0.406912D-01  0.108185D+00  0.330495D-02 -0.416577D-02
     23 -0.391103D-01 -0.590645D-01  0.679244D-01  0.153476D-01 -0.910211D-03
     24  0.112848D+00  0.696708D-01 -0.213764D+00 -0.979416D-05 -0.979319D-05
     25  0.844091D-02  0.514946D-02  0.131800D-01  0.960183D-05  0.582343D-03
     26  0.515810D-02  0.430709D-02  0.822207D-02 -0.196195D-03 -0.224199D-03
     27 -0.130701D-01 -0.813124D-02 -0.217655D-01 -0.787389D-03 -0.369222D-05
                6             7             8             9            10 
      6  0.213078D-01
      7 -0.361992D-04  0.882371D+00
      8 -0.231419D-04  0.212028D+00  0.228987D+00
      9  0.479378D-02 -0.757810D-03 -0.416993D-04  0.413118D-01
     10  0.308965D-05 -0.158129D-02  0.267617D-03 -0.460646D-05  0.368048D+00
     11 -0.164520D-05  0.322898D-02 -0.104734D-02 -0.116792D-05  0.453123D-02
     12 -0.418558D-02 -0.188641D-04  0.406649D-05  0.356691D-02  0.180733D-03
     13 -0.468800D-04 -0.213576D-01  0.466102D-03  0.000000D+00 -0.801823D-02
     14  0.151738D-03  0.586681D-02 -0.486450D-01  0.403575D-04  0.397926D-02
     15 -0.323119D-01  0.245046D-04 -0.427389D-04  0.598501D-02 -0.104390D-04
     16  0.255212D-04 -0.848462D+00 -0.179731D+00  0.713705D-03 -0.724406D-02
     17 -0.159736D-04 -0.195987D+00  0.484472D-02  0.899050D-04 -0.130814D-03
     18  0.575385D-02  0.803105D-03  0.107928D-03 -0.511989D-02  0.000000D+00
     19  0.336681D-05 -0.121102D-01  0.329230D-02  0.556725D-04 -0.351489D+00
     20  0.244095D-04  0.304454D-01  0.741437D-02 -0.178662D-04 -0.761932D-02
     21  0.577569D-02  0.241453D-03  0.110824D-03 -0.122459D-01 -0.166498D-03
     22 -0.631498D-05 -0.105018D-02 -0.341596D-01  0.221835D-04  0.392035D-03
     23  0.478029D-04 -0.360068D-01 -0.142691D+00  0.242686D-05 -0.534629D-03
     24 -0.133515D-02 -0.215709D-03 -0.138233D-04 -0.423977D-01 -0.170590D-05
     25  0.103212D-02 -0.761462D-04 -0.276360D-02  0.660871D-03 -0.234830D-03
     26 -0.626005D-03 -0.102592D-01 -0.233197D-01 -0.214079D-01 -0.310071D-04
     27  0.101045D-03  0.529449D-04  0.169969D-02  0.202732D-02  0.759259D-04
               11            12            13            14            15 
     11  0.503017D-01
     12 -0.168125D-04  0.233511D-01
     13 -0.212816D-01  0.147372D-04  0.518655D+00
     14  0.894657D-02  0.608410D-05  0.619262D-01  0.807097D+00
     15 -0.892649D-05  0.366004D-02  0.102446D-03 -0.323951D-03  0.137253D+00
     16  0.255526D-01  0.126167D-04  0.120362D-01  0.340071D-01 -0.427877D-04
     17 -0.336104D-02 -0.361662D-04  0.688994D-02 -0.772759D-01  0.584441D-04
     18  0.151281D-04 -0.127474D-02 -0.562883D-04  0.455316D-04  0.161695D-01
     19 -0.730212D-02 -0.195562D-03 -0.232200D+00 -0.178711D+00  0.545999D-04
     20 -0.527546D-01  0.382767D-04 -0.180718D+00 -0.311339D+00  0.414230D-04
     21  0.805006D-05 -0.346815D-01  0.615544D-04  0.720811D-04 -0.602696D-01
     22 -0.377636D-02 -0.292950D-05 -0.151869D+00  0.177039D-01 -0.516030D-05
     23 -0.275116D-02  0.778578D-05  0.568685D-01 -0.773024D-01  0.977462D-04
     24  0.959915D-05  0.103941D-01  0.479424D-05  0.346039D-04 -0.743477D-01
     25 -0.869839D-03  0.205760D-02 -0.155426D-01 -0.101950D-01 -0.222716D-01
     26  0.204539D-03 -0.868313D-03  0.214988D-02  0.513308D-02  0.793614D-02
     27  0.134338D-03 -0.414479D-03  0.116104D-02  0.124196D-02  0.190979D-02
               16            17            18            19            20 
     16  0.102610D+01
     17  0.621279D-01  0.219922D+00
     18 -0.577963D-03 -0.237056D-03  0.214133D-01
     19 -0.150841D+00  0.110688D+00 -0.163839D-03  0.799633D+00
     20  0.837440D-01 -0.131642D+00  0.144646D-03  0.899559D-01  0.515776D+00
     21 -0.405927D-03  0.646364D-04 -0.253272D-01  0.289788D-03 -0.242186D-03
     22 -0.338393D-01  0.139205D-01  0.263735D-05 -0.516040D-01 -0.649786D-02
     23 -0.201621D-01 -0.109330D-01 -0.822336D-04 -0.356818D-01 -0.162630D-01
     24  0.252217D-03  0.771121D-04 -0.114279D-01 -0.382916D-04 -0.373171D-04
     25  0.887797D-03  0.458208D-03  0.000000D+00 -0.380733D-02  0.286542D-02
     26 -0.317539D-02  0.882832D-03  0.182473D-02  0.319384D-02 -0.803746D-04
     27  0.159347D-02 -0.745526D-03 -0.919568D-04  0.919972D-03  0.875200D-03
               21            22            23            24            25 
     21  0.100880D+00
     22 -0.377345D-04  0.448552D+00
     23 -0.325897D-04  0.979025D-01  0.368474D+00
     24  0.270202D-01 -0.231238D-03 -0.363932D-03  0.520648D+00
     25 -0.326864D-04 -0.106559D+00 -0.386230D-01 -0.112608D+00  0.116882D+00
     26  0.175586D-02 -0.402360D-01 -0.585583D-01 -0.693672D-01  0.433960D-01
     27 -0.573881D-03 -0.107927D+00 -0.676014D-01 -0.214790D+00  0.117981D+00
               26            27 
     26  0.716550D-01
     27  0.725306D-01  0.233597D+00
 Leave Link  716 at Wed Jun 22 02:46:17 2016, MaxMem=    33554432 cpu:         0.1
 (Enter /home/proyectos/fulerenos/M3C-v1.9/M3C-deps_CCC/g09-AM64L-G09RevC.01/l103.exe)

 GradGradGradGradGradGradGradGradGradGradGradGradGradGradGradGradGradGrad
 Berny optimization.
 Search for a local minimum.
 Step number   1 out of a maximum of    2
 All quantities printed in internal units (Hartrees-Bohrs-Radians)
 Second derivative matrix not updated -- analytic derivatives used.
 ITU=  0
     Eigenvalues ---    0.00362   0.02193   0.02400   0.03434   0.04536
     Eigenvalues ---    0.05779   0.07618   0.08427   0.08672   0.13529
     Eigenvalues ---    0.16281   0.20753   0.23752   0.32455   0.42151
     Eigenvalues ---    0.65791   0.73742   0.74310   0.91712   1.29223
     Eigenvalues ---    1.88336
 Angle between quadratic step and forces=  73.91 degrees.
 Linear search not attempted -- first point.
 B after Tr=    -0.000106   -0.000035   -0.000102
         Rot=    1.000000   -0.000026    0.000084   -0.000005 Ang=  -0.01 deg.
 Variable       Old X    -DE/DX   Delta X   Delta X   Delta X     New X
                                 (Linear)    (Quad)   (Total)
    X1       -3.02487   0.00001   0.00000   0.00228   0.00191  -3.02296
    Y1       -1.69336   0.00000   0.00000   0.00270   0.00255  -1.69081
    Z1        1.65663  -0.00001   0.00000   0.00171   0.00101   1.65764
    X2        1.35631   0.00001   0.00000   0.00022   0.00015   1.35646
    Y2       -3.89569  -0.00001   0.00000  -0.00031  -0.00033  -3.89603
    Z2        0.00123  -0.00001   0.00000  -0.00199  -0.00206  -0.00084
    X3       -1.67337  -0.00018   0.00000  -0.00137  -0.00150  -1.67487
    Y3        1.83353   0.00005   0.00000   0.00143   0.00138   1.83491
    Z3        0.00058  -0.00002   0.00000  -0.00239  -0.00268  -0.00210
    X4        4.36644  -0.00002   0.00000   0.00038   0.00027   4.36672
    Y4        0.12008  -0.00001   0.00000   0.00004   0.00004   0.12013
    Z4        0.00036  -0.00003   0.00000   0.00059   0.00123   0.00159
    X5        0.77511   0.00002   0.00000   0.00036   0.00027   0.77538
    Y5       -1.93290  -0.00006   0.00000  -0.00025  -0.00027  -1.93317
    Z5        0.00009  -0.00002   0.00000  -0.00098  -0.00105  -0.00096
    X6        0.60728   0.00008   0.00000  -0.00058  -0.00071   0.60657
    Y6        2.23683   0.00003   0.00000  -0.00148  -0.00151   2.23533
    Z6       -0.00267   0.00000   0.00000   0.00200   0.00212  -0.00056
    X7        2.33113   0.00008   0.00000   0.00047   0.00036   2.33149
    Y7        0.09770   0.00002   0.00000  -0.00029  -0.00030   0.09740
    Z7       -0.00081   0.00007   0.00000   0.00079   0.00109   0.00028
    X8       -1.98611  -0.00000   0.00000   0.00052   0.00042  -1.98569
    Y8       -1.04338  -0.00001   0.00000   0.00036   0.00031  -1.04307
    Z8       -0.00184  -0.00000   0.00000  -0.00030  -0.00079  -0.00263
    X9       -3.01967   0.00001   0.00000  -0.00137  -0.00118  -3.02084
    Y9       -1.68857  -0.00002   0.00000  -0.00189  -0.00187  -1.69043
    Z9       -1.66550   0.00002   0.00000   0.00184   0.00114  -1.66436
         Item               Value     Threshold  Converged?
 Maximum Force            0.000176     0.000450     YES
 RMS     Force            0.000047     0.000300     YES
 Maximum Displacement     0.002681     0.001800     NO 
 RMS     Displacement     0.001297     0.001200     NO 
 Predicted change in Energy=-2.333216D-07
 GradGradGradGradGradGradGradGradGradGradGradGradGradGradGradGradGradGrad

 Leave Link  103 at Wed Jun 22 02:46:17 2016, MaxMem=    33554432 cpu:         0.1
 (Enter /home/proyectos/fulerenos/M3C-v1.9/M3C-deps_CCC/g09-AM64L-G09RevC.01/l9999.exe)
 1\1\GINC-BLADI10\Freq\RB3LYP\6-311++G(3df,2p)\C5H4\ROOT\22-Jun-2016\0\
 \#p b3lyp/6-311++G(3df,2p) freq symmetry=Loose\\b3lyp opt\\0,1\H,-1.60
 0693,-0.896085,0.87665\H,0.717728,-2.061513,0.00065\C,-0.885509,0.9702
 63,0.000309\H,2.310623,0.063545,0.00019\C,0.410173,-1.022844,0.000047\
 C,0.321358,1.183682,-0.001415\C,1.233583,0.051701,-0.000429\C,-1.05100
 3,-0.552134,-0.000972\H,-1.597938,-0.893551,-0.881345\\Version=EM64L-G
 09RevE.01\State=1-A\HF=-192.7957896\RMSD=3.782e-09\RMSF=4.659e-05\Zero
 Point=0.0668641\Thermal=0.0716035\Dipole=0.2289082,-0.8260341,-0.00070
 08\DipoleDeriv=0.0506699,-0.027895,0.0362766,0.0077822,0.0474186,0.045
 5733,0.0711321,0.0543811,0.0206425,0.0631798,0.0775969,-0.0000833,0.07
 97258,-0.0980686,0.0001366,-0.000164,0.0001497,0.1670964,-0.7677154,0.
 1174509,0.0001311,0.6775164,-0.4504076,-0.0004343,0.0011898,-0.0019166
 ,-0.1822708,-0.0435353,0.0330903,-0.000072,0.0086605,0.0698115,0.00002
 98,-0.0002234,0.0001753,0.1700546,0.1198079,-0.0033921,0.0006916,0.095
 387,-0.0245334,-0.000065,0.0004162,-0.00027,-0.2422134,-0.2794466,0.03
 59814,-0.0001241,-0.7891878,-0.2682691,0.0008967,-0.0001248,0.0016046,
 0.0290781,0.5321416,-0.271461,0.0000586,-0.1919766,0.2591599,-0.000677
 7,0.0001468,-0.0008622,-0.1384673,0.2737322,0.0663613,-0.0008793,0.104
 177,0.416684,-0.0001315,-0.0018435,0.0008563,0.1557769,0.0511659,-0.02
 77328,-0.0359991,0.0079154,0.0482047,-0.0453279,-0.0705293,-0.0541183,
 0.020303\Polar=65.4175664,0.9186736,61.6023409,-0.0091016,-0.0032342,3
 9.1829625\PG=C01 [X(C5H4)]\NImag=0\\0.11766815,0.04393228,0.07210437,-
 0.11824414,-0.07286082,0.23248693,0.00000994,-0.00019951,0.00078775,0.
 07341812,0.00058264,-0.00022174,0.00000442,-0.08131120,0.32947404,-0.0
 0103123,0.00062099,0.00010046,0.00005653,-0.00017818,0.02130781,-0.000
 08706,-0.01023753,-0.00009343,0.00235363,0.00092087,-0.00003620,0.8823
 7096,-0.00276302,-0.02332830,-0.00180111,0.00336282,-0.00221469,-0.000
 02314,0.21202827,0.22898694,-0.00069101,0.02132923,0.00207861,0.000000
 45,0.00000672,0.00479378,-0.00075781,-0.00004170,0.04131182,-0.0002321
 3,-0.00003053,-0.00007702,0.00035975,-0.00043181,0.00000309,-0.0015812
 9,0.00026762,-0.00000461,0.36804808,-0.00087765,0.00020847,-0.00013856
 ,0.00079475,0.00025279,-0.00000165,0.00322898,-0.00104734,-0.00000117,
 0.00453123,0.05030175,-0.00204822,0.00086870,-0.00041583,-0.00000011,-
 0.00000363,-0.00418558,-0.00001886,0.00000407,0.00356691,0.00018073,-0
 .00001681,0.02335113,-0.01557184,0.00209564,-0.00124195,-0.08613286,0.
 07160326,-0.00004688,-0.02135756,0.00046610,0.00000055,-0.00801823,-0.
 02128162,0.00001474,0.51865511,-0.01025128,0.00515494,-0.00126841,0.07
 567369,-0.31176873,0.00015174,0.00586681,-0.04864497,0.00004036,0.0039
 7926,0.00894657,0.00000608,0.06192616,0.80709665,0.02220102,-0.0079311
 5,0.00195173,-0.00005256,0.00017302,-0.03231192,0.00002450,-0.00004274
 ,0.00598501,-0.00001044,-0.00000893,0.00366004,0.00010245,-0.00032395,
 0.13725322,0.00092511,-0.00321912,-0.00157085,0.00043277,0.00085585,0.
 00002552,-0.84846212,-0.17973090,0.00071370,-0.00724406,0.02555263,0.0
 0001262,0.01203621,0.03400711,-0.00004279,1.02610497,0.00043497,0.0008
 7072,0.00074462,0.00159802,-0.00330763,-0.00001597,-0.19598687,0.00484
 472,0.00008991,-0.00013081,-0.00336104,-0.00003617,0.00688994,-0.07727
 588,0.00005844,0.06212789,0.21992161,-0.00000760,-0.00182433,-0.000094
 93,-0.00000154,0.00000566,0.00575385,0.00080310,0.00010793,-0.00511989
 ,0.00000052,0.00001513,-0.00127474,-0.00005629,0.00004553,0.01616948,-
 0.00057796,-0.00023706,0.02141331,-0.00382536,0.00320054,-0.00092571,0
 .00624410,0.01136381,0.00000337,-0.01211024,0.00329230,0.00005567,-0.3
 5148933,-0.00730212,-0.00019556,-0.23219963,-0.17871061,0.00005460,-0.
 15084134,0.11068814,-0.00016384,0.79963309,0.00289425,-0.00003103,-0.0
 0082659,-0.01506999,-0.01107963,0.00002441,0.03044541,0.00741437,-0.00
 001787,-0.00761932,-0.05275458,0.00003828,-0.18071784,-0.31133922,0.00
 004142,0.08374400,-0.13164234,0.00014465,0.08995592,0.51577583,0.00004
 339,-0.00174214,-0.00057744,0.00000666,0.00000547,0.00577569,0.0002414
 5,0.00011082,-0.01224589,-0.00016650,0.00000805,-0.03468154,0.00006155
 ,0.00007208,-0.06026961,-0.00040593,0.00006464,-0.02532724,0.00028979,
 -0.00024219,0.10087967,-0.10732773,-0.04069123,0.10818530,0.00330495,-
 0.00416577,-0.00000631,-0.00105018,-0.03415959,0.00002218,0.00039204,-
 0.00377636,-0.00000293,-0.15186862,0.01770386,-0.00000516,-0.03383934,
 0.01392051,0.00000264,-0.05160396,-0.00649786,-0.00003773,0.44855187,-
 0.03911029,-0.05906453,0.06792437,0.01534762,-0.00091021,0.00004780,-0
 .03600675,-0.14269108,0.00000243,-0.00053463,-0.00275116,0.00000779,0.
 05686849,-0.07730243,0.00009775,-0.02016207,-0.01093300,-0.00008223,-0
 .03568182,-0.01626303,-0.00003259,0.09790247,0.36847372,0.11284787,0.0
 6967076,-0.21376404,-0.00000979,-0.00000979,-0.00133515,-0.00021571,-0
 .00001382,-0.04239769,-0.00000171,0.00000960,0.01039409,0.00000479,0.0
 0003460,-0.07434775,0.00025222,0.00007711,-0.01142788,-0.00003829,-0.0
 0003732,0.02702025,-0.00023124,-0.00036393,0.52064799,0.00844091,0.005
 14946,0.01318004,0.00000960,0.00058234,0.00103212,-0.00007615,-0.00276
 360,0.00066087,-0.00023483,-0.00086984,0.00205760,-0.01554257,-0.01019
 499,-0.02227163,0.00088780,0.00045821,0.00000096,-0.00380733,0.0028654
 2,-0.00003269,-0.10655902,-0.03862300,-0.11260815,0.11688159,0.0051581
 0,0.00430709,0.00822207,-0.00019620,-0.00022420,-0.00062600,-0.0102591
 8,-0.02331966,-0.02140791,-0.00003101,0.00020454,-0.00086831,0.0021498
 8,0.00513308,0.00793614,-0.00317539,0.00088283,0.00182473,0.00319384,-
 0.00008037,0.00175586,-0.04023604,-0.05855828,-0.06936721,0.04339600,0
 .07165497,-0.01307009,-0.00813124,-0.02176550,-0.00078739,-0.00000369,
 0.00010104,0.00005294,0.00169969,0.00202732,0.00007593,0.00013434,-0.0
 0041448,0.00116104,0.00124196,0.00190979,0.00159347,-0.00074553,-0.000
 09196,0.00091997,0.00087520,-0.00057388,-0.10792674,-0.06760138,-0.214
 78983,0.11798087,0.07253064,0.23359749\\-0.00000740,-0.00000399,0.0000
 0705,-0.00001217,0.00000874,0.00000850,0.00017649,-0.00004844,0.000016
 24,0.00001932,0.00000562,0.00002827,-0.00001831,0.00005872,0.00002452,
 -0.00007734,-0.00003360,-0.00000107,-0.00007568,-0.00001898,-0.0000682
 0,0.00000078,0.00001226,0.00000444,-0.00000569,0.00001965,-0.00001976\
 \\@


 10 WHATSOEVER THY HAND FINDETH TO DO, DO IT WITH THY  
 MIGHT. FOR THERE IS NO WORK, NOR DEVICE, NOR KNOWLEDGE, NOR  
 WISDOM, IN THE GRAVE, WHITHER THOU GOEST.                    
 11 I RETURNED AND SAW UNDER THE SUN, THAT THE RACE IS NOT TO 
 THE SWIFT, NOR THE BATTLE TO THE STRONG, NEITHER YET BREAD TO
 THE WISE, NOR YET RICHES TO MEN OF UNDERSTANDING, NOR YET    
 FAVOR TO MEN OF SKILL. BUT TIME AND CHANCE HAPPEN TO THEM ALL.
 12 FOR MAN ALSO KNOWETH NOT HIS TIME. AS THE FISHES   
 THAT ARE TAKEN IN AN EVIL NET, AND AS THE BIRDS THAT ARE     
 CAUGHT IN THE SNARE. SO ARE THE SONS OF MEN SNARED IN AN EVIL
 TIME, WHEN IT FALLETH SUDDENLY UPON THEM.
                                         ECCLESIASTES 9
 Job cpu time:       0 days  1 hours  9 minutes  8.6 seconds.
 File lengths (MBytes):  RWF=     45 Int=      0 D2E=      0 Chk=      4 Scr=      1
 Normal termination of Gaussian 09 at Wed Jun 22 02:46:17 2016.
