 Entering Gaussian System, Link 0=/home/proyectos/fulerenos/M3C-v1.9/M3C-deps_CCC/g09-AM64L-G09RevC.01/g09
 Initial command:
 /home/proyectos/fulerenos/M3C-v1.9/M3C-deps_CCC/g09-AM64L-G09RevC.01/l1.exe "/scratch/naguirre/gaussian/Gau-13508.inp" -scrdir="/scratch/naguirre/gaussian/"
 Entering Link 1 = /home/proyectos/fulerenos/M3C-v1.9/M3C-deps_CCC/g09-AM64L-G09RevC.01/l1.exe PID=     13516.
  
 Copyright (c) 1988,1990,1992,1993,1995,1998,2003,2009,2015,
            Gaussian, Inc.  All Rights Reserved.
  
 This is part of the Gaussian(R) 09 program.  It is based on
 the Gaussian(R) 03 system (copyright 2003, Gaussian, Inc.),
 the Gaussian(R) 98 system (copyright 1998, Gaussian, Inc.),
 the Gaussian(R) 94 system (copyright 1995, Gaussian, Inc.),
 the Gaussian 92(TM) system (copyright 1992, Gaussian, Inc.),
 the Gaussian 90(TM) system (copyright 1990, Gaussian, Inc.),
 the Gaussian 88(TM) system (copyright 1988, Gaussian, Inc.),
 the Gaussian 86(TM) system (copyright 1986, Carnegie Mellon
 University), and the Gaussian 82(TM) system (copyright 1983,
 Carnegie Mellon University). Gaussian is a federally registered
 trademark of Gaussian, Inc.
  
 This software contains proprietary and confidential information,
 including trade secrets, belonging to Gaussian, Inc.
  
 This software is provided under written license and may be
 used, copied, transmitted, or stored only in accord with that
 written license.
  
 The following legend is applicable only to US Government
 contracts under FAR:
  
                    RESTRICTED RIGHTS LEGEND
  
 Use, reproduction and disclosure by the US Government is
 subject to restrictions as set forth in subparagraphs (a)
 and (c) of the Commercial Computer Software - Restricted
 Rights clause in FAR 52.227-19.
  
 Gaussian, Inc.
 340 Quinnipiac St., Bldg. 40, Wallingford CT 06492
  
  
 ---------------------------------------------------------------
 Warning -- This program may not be used in any manner that
 competes with the business of Gaussian, Inc. or will provide
 assistance to any competitor of Gaussian, Inc.  The licensee
 of this program is prohibited from giving any competitor of
 Gaussian, Inc. access to this program.  By using this program,
 the user acknowledges that Gaussian, Inc. is engaged in the
 business of creating and licensing software in the field of
 computational chemistry and represents and warrants to the
 licensee that it is not a competitor of Gaussian, Inc. and that
 it will not use this program in any manner prohibited above.
 ---------------------------------------------------------------
  

 Cite this work as:
 Gaussian 09, Revision E.01,
 M. J. Frisch, G. W. Trucks, H. B. Schlegel, G. E. Scuseria, 
 M. A. Robb, J. R. Cheeseman, G. Scalmani, V. Barone, B. Mennucci, 
 G. A. Petersson, H. Nakatsuji, M. Caricato, X. Li, H. P. Hratchian, 
 A. F. Izmaylov, J. Bloino, G. Zheng, J. L. Sonnenberg, M. Hada, 
 M. Ehara, K. Toyota, R. Fukuda, J. Hasegawa, M. Ishida, T. Nakajima, 
 Y. Honda, O. Kitao, H. Nakai, T. Vreven, J. A. Montgomery, Jr., 
 J. E. Peralta, F. Ogliaro, M. Bearpark, J. J. Heyd, E. Brothers, 
 K. N. Kudin, V. N. Staroverov, T. Keith, R. Kobayashi, J. Normand, 
 K. Raghavachari, A. Rendell, J. C. Burant, S. S. Iyengar, J. Tomasi, 
 M. Cossi, N. Rega, J. M. Millam, M. Klene, J. E. Knox, J. B. Cross, 
 V. Bakken, C. Adamo, J. Jaramillo, R. Gomperts, R. E. Stratmann, 
 O. Yazyev, A. J. Austin, R. Cammi, C. Pomelli, J. W. Ochterski, 
 R. L. Martin, K. Morokuma, V. G. Zakrzewski, G. A. Voth, 
 P. Salvador, J. J. Dannenberg, S. Dapprich, A. D. Daniels, 
 O. Farkas, J. B. Foresman, J. V. Ortiz, J. Cioslowski, 
 and D. J. Fox, Gaussian, Inc., Wallingford CT, 2013.
 
 ******************************************
 Gaussian 09:  EM64L-G09RevE.01 30-Nov-2015
                20-Jun-2016 
 ******************************************
 %NProcShared=4
 Will use up to    4 processors via shared memory.
 ---------------------------------------------
 #p b3lyp/6-311++G(3df,2p) freq symmetry=Loose
 ---------------------------------------------
 1/10=4,30=1,38=1/1,3;
 2/12=2,17=4,18=3,40=1/2;
 3/5=4,6=6,7=1216,11=2,16=1,25=1,30=1,71=2,74=-5,140=1/1,2,3;
 4//1;
 5/5=2,38=5,98=1/2;
 8/6=4,10=90,11=11/1;
 11/6=1,8=1,9=11,15=111,16=1/1,2,10;
 10/6=1/2;
 6/7=2,8=2,9=2,10=2,18=1,28=1/1;
 7/8=1,10=1,25=1/1,2,3,16;
 1/10=4,30=1/3;
 99//99;
 Leave Link    1 at Mon Jun 20 11:08:50 2016, MaxMem=           0 cpu:         0.3
 (Enter /home/proyectos/fulerenos/M3C-v1.9/M3C-deps_CCC/g09-AM64L-G09RevC.01/l101.exe)
 ---------
 b3lyp opt
 ---------
 Symbolic Z-matrix:
 Charge =  3 Multiplicity = 2
 C                     0.75098  -0.04979   0.28785 
 H                     1.01277  -0.1082    1.4104 
 C                     2.14454  -0.01875  -0.31345 
 C                    -0.36221  -1.05077  -0.08145 
 H                    -2.29901  -0.18927   0.71902 
 C                    -0.42837   0.93643   0.01629 
 H                    -0.4194    2.03349  -0.19308 
 C                    -1.45366  -0.10075  -0.07608 
 H                    -2.24739  -0.08526  -0.91491 
 
 NAtoms=      9 NQM=        9 NQMF=       0 NMMI=      0 NMMIF=      0
                NMic=       0 NMicF=      0.
                    Isotopes and Nuclear Properties:
 (Nuclear quadrupole moments (NQMom) in fm**2, nuclear magnetic moments (NMagM)
  in nuclear magnetons)

  Atom         1           2           3           4           5           6           7           8           9
 IAtWgt=          12           1          12          12           1          12           1          12           1
 AtmWgt=  12.0000000   1.0078250  12.0000000  12.0000000   1.0078250  12.0000000   1.0078250  12.0000000   1.0078250
 NucSpn=           0           1           0           0           1           0           1           0           1
 AtZEff=   0.0000000   0.0000000   0.0000000   0.0000000   0.0000000   0.0000000   0.0000000   0.0000000   0.0000000
 NQMom=    0.0000000   0.0000000   0.0000000   0.0000000   0.0000000   0.0000000   0.0000000   0.0000000   0.0000000
 NMagM=    0.0000000   2.7928460   0.0000000   0.0000000   2.7928460   0.0000000   2.7928460   0.0000000   2.7928460
 AtZNuc=   6.0000000   1.0000000   6.0000000   6.0000000   1.0000000   6.0000000   1.0000000   6.0000000   1.0000000
 Leave Link  101 at Mon Jun 20 11:08:50 2016, MaxMem=    33554432 cpu:         0.2
 (Enter /home/proyectos/fulerenos/M3C-v1.9/M3C-deps_CCC/g09-AM64L-G09RevC.01/l103.exe)

 GradGradGradGradGradGradGradGradGradGradGradGradGradGradGradGradGradGrad
 Berny optimization.
 Initialization pass.
 Trust Radius=3.00D-01 FncErr=1.00D-07 GrdErr=1.00D-07
 Number of steps in this run=      2 maximum allowed number of steps=      2.
 GradGradGradGradGradGradGradGradGradGradGradGradGradGradGradGradGradGrad

 Leave Link  103 at Mon Jun 20 11:08:50 2016, MaxMem=    33554432 cpu:         0.1
 (Enter /home/proyectos/fulerenos/M3C-v1.9/M3C-deps_CCC/g09-AM64L-G09RevC.01/l202.exe)
                          Input orientation:                          
 ---------------------------------------------------------------------
 Center     Atomic      Atomic             Coordinates (Angstroms)
 Number     Number       Type             X           Y           Z
 ---------------------------------------------------------------------
      1          6           0        0.750977   -0.049794    0.287852
      2          1           0        1.012766   -0.108197    1.410404
      3          6           0        2.144544   -0.018750   -0.313451
      4          6           0       -0.362212   -1.050771   -0.081451
      5          1           0       -2.299006   -0.189271    0.719024
      6          6           0       -0.428373    0.936433    0.016293
      7          1           0       -0.419398    2.033490   -0.193076
      8          6           0       -1.453657   -0.100746   -0.076081
      9          1           0       -2.247387   -0.085263   -0.914910
 ---------------------------------------------------------------------
                    Distance matrix (angstroms):
                    1          2          3          4          5
     1  C    0.000000
     2  H    1.154152   0.000000
     3  C    1.518077   2.064122   0.000000
     4  C    1.541924   2.237106   2.720793   0.000000
     5  H    3.083465   3.384141   4.565109   2.265858   0.000000
     6  C    1.561171   2.260902   2.764237   1.990706   2.293536
     7  H    2.437446   3.034644   3.286332   3.086810   3.050495
     8  C    2.235051   2.879746   3.606954   1.447007   1.163892
     9  H    3.230802   4.004524   4.433422   2.276125   1.638054
                    6          7          8          9
     6  C    0.000000
     7  H    1.116893   0.000000
     8  C    1.461328   2.374519   0.000000
     9  H    2.284691   2.889931   1.154938   0.000000
 Stoichiometry    C5H4(3+,2)
 Framework group  C1[X(C5H4)]
 Deg. of freedom    21
 Full point group                 C1      NOp   1
 Largest Abelian subgroup         C1      NOp   1
 Largest concise Abelian subgroup C1      NOp   1
                         Standard orientation:                         
 ---------------------------------------------------------------------
 Center     Atomic      Atomic             Coordinates (Angstroms)
 Number     Number       Type             X           Y           Z
 ---------------------------------------------------------------------
      1          6           0        0.752228   -0.047524    0.287597
      2          1           0        1.013548   -0.105922    1.410259
      3          6           0        2.146045   -0.014763   -0.313034
      4          6           0       -0.359662   -1.049654   -0.082492
      5          1           0       -2.297802   -0.190532    0.717282
      6          6           0       -0.428098    0.937450    0.015730
      7          1           0       -0.420254    2.034570   -0.193353
      8          6           0       -1.452174   -0.100855   -0.077398
      9          1           0       -2.245522   -0.086046   -0.916601
 ---------------------------------------------------------------------
 Rotational constants (GHZ):     14.9595945      4.6710548      3.8683666
 Leave Link  202 at Mon Jun 20 11:08:50 2016, MaxMem=    33554432 cpu:         0.0
 (Enter /home/proyectos/fulerenos/M3C-v1.9/M3C-deps_CCC/g09-AM64L-G09RevC.01/l301.exe)
 Standard basis: 6-311++G(3df,2p) (5D, 7F)
 Ernie: Thresh=  0.10000D-02 Tol=  0.10000D-05 Strict=F.
 There are   265 symmetry adapted cartesian basis functions of A   symmetry.
 There are   235 symmetry adapted basis functions of A   symmetry.
   235 basis functions,   338 primitive gaussians,   265 cartesian basis functions
    16 alpha electrons       15 beta electrons
       nuclear repulsion energy       131.8831327200 Hartrees.
 IExCor=  402 DFT=T Ex+Corr=B3LYP ExCW=0 ScaHFX=  0.200000
 ScaDFX=  0.800000  0.720000  1.000000  0.810000 ScalE2=  1.000000  1.000000
 IRadAn=      0 IRanWt=     -1 IRanGd=            0 ICorTp=0 IEmpDi=  4
 NAtoms=    9 NActive=    9 NUniq=    9 SFac= 1.00D+00 NAtFMM=   60 NAOKFM=F Big=F
 Integral buffers will be    131072 words long.
 Raffenetti 2 integral format.
 Two-electron integral symmetry is turned on.
 Leave Link  301 at Mon Jun 20 11:08:50 2016, MaxMem=    33554432 cpu:         0.2
 (Enter /home/proyectos/fulerenos/M3C-v1.9/M3C-deps_CCC/g09-AM64L-G09RevC.01/l302.exe)
 NPDir=0 NMtPBC=     1 NCelOv=     1 NCel=       1 NClECP=     1 NCelD=      1
         NCelK=      1 NCelE2=     1 NClLst=     1 CellRange=     0.0.
 One-electron integrals computed using PRISM.
 NBasis=   235 RedAO= T EigKep=  8.78D-06  NBF=   235
 NBsUse=   235 1.00D-06 EigRej= -1.00D+00 NBFU=   235
 Precomputing XC quadrature grid using
 IXCGrd= 4 IRadAn=           0 IRanWt=          -1 IRanGd=           0 AccXCQ= 0.00D+00.
 Generated NRdTot=       0 NPtTot=           0 NUsed=           0 NTot=          32
 NSgBfM=   265   265   265   265   265 MxSgAt=     9 MxSgA2=     9.
 Leave Link  302 at Mon Jun 20 11:08:50 2016, MaxMem=    33554432 cpu:         1.2
 (Enter /home/proyectos/fulerenos/M3C-v1.9/M3C-deps_CCC/g09-AM64L-G09RevC.01/l303.exe)
 DipDrv:  MaxL=1.
 Leave Link  303 at Mon Jun 20 11:08:50 2016, MaxMem=    33554432 cpu:         0.1
 (Enter /home/proyectos/fulerenos/M3C-v1.9/M3C-deps_CCC/g09-AM64L-G09RevC.01/l401.exe)
 ExpMin= 3.60D-02 ExpMax= 4.56D+03 ExpMxC= 6.82D+02 IAcc=3 IRadAn=         5 AccDes= 0.00D+00
 Harris functional with IExCor=  402 and IRadAn=       5 diagonalized for initial guess.
 HarFok:  IExCor=  402 AccDes= 0.00D+00 IRadAn=         5 IDoV= 1 UseB2=F ITyADJ=14
 ICtDFT=  3500011 ScaDFX=  1.000000  1.000000  1.000000  1.000000
 FoFCou: FMM=F IPFlag=           0 FMFlag=      100000 FMFlg1=           0
         NFxFlg=           0 DoJE=T BraDBF=F KetDBF=T FulRan=T
         wScrn=  0.000000 ICntrl=     500 IOpCl=  0 I1Cent=   200000004 NGrid=           0
         NMat0=    1 NMatS0=      1 NMatT0=    0 NMatD0=    1 NMtDS0=    0 NMtDT0=    0
 Petite list used in FoFCou.
 Harris En= -191.815679912499    
 JPrj=0 DoOrth=F DoCkMO=F.
 Initial guess <Sx>= 0.0000 <Sy>= 0.0000 <Sz>= 0.5000 <S**2>= 0.7500 S= 0.5000
 Leave Link  401 at Mon Jun 20 11:08:53 2016, MaxMem=    33554432 cpu:        10.8
 (Enter /home/proyectos/fulerenos/M3C-v1.9/M3C-deps_CCC/g09-AM64L-G09RevC.01/l502.exe)
 UHF open shell SCF:
 Using DIIS extrapolation, IDIIS=  1040.
 Integral symmetry usage will be decided dynamically.
 IVT=      232727 IEndB=      232727 NGot=    33554432 MDV=    33408836
 LenX=    33408836 LenY=    33338170
 Requested convergence on RMS density matrix=1.00D-08 within 128 cycles.
 Requested convergence on MAX density matrix=1.00D-06.
 Requested convergence on             energy=1.00D-06.
 No special actions if energy rises.
 Fock matrices will be formed incrementally for  20 cycles.

 Cycle   1  Pass 1  IDiag  1:
 FoFJK:  IHMeth= 1 ICntrl=       0 DoSepK=F KAlg= 0 I1Cent=   0 FoldK=F
 IRaf= 990000000 NMat=   1 IRICut=       1 DoRegI=T DoRafI=F ISym2E= 0.
 FoFCou: FMM=F IPFlag=           0 FMFlag=      100000 FMFlg1=           0
         NFxFlg=           0 DoJE=F BraDBF=F KetDBF=F FulRan=T
         wScrn=  0.000000 ICntrl=       0 IOpCl=  1 I1Cent=           0 NGrid=           0
         NMat0=    1 NMatS0=      1 NMatT0=    0 NMatD0=    1 NMtDS0=    0 NMtDT0=    0
 Symmetry not used in FoFCou.
 E= -190.811018372242    
 DIIS: error= 1.59D-02 at cycle   1 NSaved=   1.
 NSaved= 1 IEnMin= 1 EnMin= -190.811018372242     IErMin= 1 ErrMin= 1.59D-02
 ErrMax= 1.59D-02  0.00D+00 EMaxC= 1.00D-01 BMatC= 4.42D-01 BMatP= 4.42D-01
 IDIUse=3 WtCom= 8.41D-01 WtEn= 1.59D-01
 Coeff-Com:  0.100D+01
 Coeff-En:   0.100D+01
 Coeff:      0.100D+01
 Gap=     0.168 Goal=   None    Shift=    0.000
 Gap=     0.185 Goal=   None    Shift=    0.000
 GapD=    0.168 DampG=1.000 DampE=0.500 DampFc=0.5000 IDamp=-1.
 Damping current iteration by 5.00D-01
 RMSDP=5.70D-03 MaxDP=2.92D-01              OVMax= 4.31D-01

 Cycle   2  Pass 1  IDiag  1:
 RMSU=  2.83D-03    CP:  1.03D+00
 E= -190.848551002626     Delta-E=       -0.037532630383 Rises=F Damp=T
 DIIS: error= 8.32D-03 at cycle   2 NSaved=   2.
 NSaved= 2 IEnMin= 2 EnMin= -190.848551002626     IErMin= 2 ErrMin= 8.32D-03
 ErrMax= 8.32D-03  0.00D+00 EMaxC= 1.00D-01 BMatC= 6.84D-02 BMatP= 4.42D-01
 IDIUse=3 WtCom= 9.17D-01 WtEn= 8.32D-02
 Coeff-Com:  0.158D+00 0.842D+00
 Coeff-En:   0.315D+00 0.685D+00
 Coeff:      0.171D+00 0.829D+00
 Gap=     0.174 Goal=   None    Shift=    0.000
 Gap=     0.228 Goal=   None    Shift=    0.000
 RMSDP=2.62D-03 MaxDP=1.94D-01 DE=-3.75D-02 OVMax= 3.05D-01

 Cycle   3  Pass 1  IDiag  1:
 RMSU=  2.17D-03    CP:  1.11D+00  1.36D+00
 E= -190.938666453784     Delta-E=       -0.090115451158 Rises=F Damp=F
 DIIS: error= 7.60D-03 at cycle   3 NSaved=   3.
 NSaved= 3 IEnMin= 3 EnMin= -190.938666453784     IErMin= 3 ErrMin= 7.60D-03
 ErrMax= 7.60D-03  0.00D+00 EMaxC= 1.00D-01 BMatC= 4.27D-02 BMatP= 6.84D-02
 IDIUse=3 WtCom= 9.24D-01 WtEn= 7.60D-02
 Coeff-Com: -0.585D-01 0.424D+00 0.634D+00
 Coeff-En:   0.000D+00 0.000D+00 0.100D+01
 Coeff:     -0.540D-01 0.392D+00 0.662D+00
 Gap=     0.149 Goal=   None    Shift=    0.000
 Gap=     0.180 Goal=   None    Shift=    0.000
 RMSDP=8.76D-04 MaxDP=5.92D-02 DE=-9.01D-02 OVMax= 5.62D-02

 Cycle   4  Pass 1  IDiag  1:
 RMSU=  8.54D-04    CP:  1.11D+00  1.42D+00  1.02D+00
 E= -190.949482365883     Delta-E=       -0.010815912099 Rises=F Damp=F
 DIIS: error= 3.19D-03 at cycle   4 NSaved=   4.
 NSaved= 4 IEnMin= 4 EnMin= -190.949482365883     IErMin= 4 ErrMin= 3.19D-03
 ErrMax= 3.19D-03  0.00D+00 EMaxC= 1.00D-01 BMatC= 8.53D-03 BMatP= 4.27D-02
 IDIUse=3 WtCom= 9.68D-01 WtEn= 3.19D-02
 Coeff-Com: -0.614D-01 0.133D+00 0.362D+00 0.566D+00
 Coeff-En:   0.000D+00 0.000D+00 0.785D-01 0.921D+00
 Coeff:     -0.594D-01 0.129D+00 0.353D+00 0.577D+00
 Gap=     0.139 Goal=   None    Shift=    0.000
 Gap=     0.160 Goal=   None    Shift=    0.000
 RMSDP=2.75D-04 MaxDP=1.36D-02 DE=-1.08D-02 OVMax= 2.46D-02

 Cycle   5  Pass 1  IDiag  1:
 RMSU=  2.35D-04    CP:  1.11D+00  1.44D+00  1.07D+00  9.35D-01
 E= -190.951637917514     Delta-E=       -0.002155551631 Rises=F Damp=F
 DIIS: error= 9.03D-04 at cycle   5 NSaved=   5.
 NSaved= 5 IEnMin= 5 EnMin= -190.951637917514     IErMin= 5 ErrMin= 9.03D-04
 ErrMax= 9.03D-04  0.00D+00 EMaxC= 1.00D-01 BMatC= 6.55D-04 BMatP= 8.53D-03
 IDIUse=3 WtCom= 9.91D-01 WtEn= 9.03D-03
 Coeff-Com: -0.226D-01 0.295D-01 0.102D+00 0.272D+00 0.619D+00
 Coeff-En:   0.000D+00 0.000D+00 0.000D+00 0.000D+00 0.100D+01
 Coeff:     -0.224D-01 0.292D-01 0.101D+00 0.269D+00 0.623D+00
 Gap=     0.138 Goal=   None    Shift=    0.000
 Gap=     0.161 Goal=   None    Shift=    0.000
 RMSDP=1.16D-04 MaxDP=5.12D-03 DE=-2.16D-03 OVMax= 1.04D-02

 Cycle   6  Pass 1  IDiag  1:
 RMSU=  8.37D-05    CP:  1.11D+00  1.45D+00  1.06D+00  9.75D-01  8.37D-01
 E= -190.951848064445     Delta-E=       -0.000210146931 Rises=F Damp=F
 DIIS: error= 3.29D-04 at cycle   6 NSaved=   6.
 NSaved= 6 IEnMin= 6 EnMin= -190.951848064445     IErMin= 6 ErrMin= 3.29D-04
 ErrMax= 3.29D-04  0.00D+00 EMaxC= 1.00D-01 BMatC= 7.86D-05 BMatP= 6.55D-04
 IDIUse=3 WtCom= 9.97D-01 WtEn= 3.29D-03
 Coeff-Com: -0.183D-02-0.353D-02-0.508D-02 0.307D-01 0.277D+00 0.703D+00
 Coeff-En:   0.000D+00 0.000D+00 0.000D+00 0.000D+00 0.000D+00 0.100D+01
 Coeff:     -0.183D-02-0.352D-02-0.506D-02 0.306D-01 0.276D+00 0.704D+00
 Gap=     0.139 Goal=   None    Shift=    0.000
 Gap=     0.161 Goal=   None    Shift=    0.000
 RMSDP=4.22D-05 MaxDP=1.92D-03 DE=-2.10D-04 OVMax= 5.46D-03

 Cycle   7  Pass 1  IDiag  1:
 RMSU=  3.53D-05    CP:  1.11D+00  1.45D+00  1.06D+00  9.82D-01  9.16D-01
                    CP:  9.81D-01
 E= -190.951879563645     Delta-E=       -0.000031499200 Rises=F Damp=F
 DIIS: error= 9.75D-05 at cycle   7 NSaved=   7.
 NSaved= 7 IEnMin= 7 EnMin= -190.951879563645     IErMin= 7 ErrMin= 9.75D-05
 ErrMax= 9.75D-05  0.00D+00 EMaxC= 1.00D-01 BMatC= 1.52D-05 BMatP= 7.86D-05
 IDIUse=1 WtCom= 1.00D+00 WtEn= 0.00D+00
 Coeff-Com:  0.191D-02-0.645D-02-0.161D-01-0.235D-01 0.419D-01 0.338D+00
 Coeff-Com:  0.664D+00
 Coeff:      0.191D-02-0.645D-02-0.161D-01-0.235D-01 0.419D-01 0.338D+00
 Coeff:      0.664D+00
 Gap=     0.139 Goal=   None    Shift=    0.000
 Gap=     0.160 Goal=   None    Shift=    0.000
 RMSDP=2.05D-05 MaxDP=1.15D-03 DE=-3.15D-05 OVMax= 3.13D-03

 Cycle   8  Pass 1  IDiag  1:
 RMSU=  1.35D-05    CP:  1.11D+00  1.46D+00  1.06D+00  9.84D-01  9.40D-01
                    CP:  1.13D+00  1.12D+00
 E= -190.951887172500     Delta-E=       -0.000007608855 Rises=F Damp=F
 DIIS: error= 4.63D-05 at cycle   8 NSaved=   8.
 NSaved= 8 IEnMin= 8 EnMin= -190.951887172500     IErMin= 8 ErrMin= 4.63D-05
 ErrMax= 4.63D-05  0.00D+00 EMaxC= 1.00D-01 BMatC= 2.63D-06 BMatP= 1.52D-05
 IDIUse=1 WtCom= 1.00D+00 WtEn= 0.00D+00
 Coeff-Com:  0.119D-02-0.163D-02-0.476D-02-0.140D-01-0.414D-01-0.897D-02
 Coeff-Com:  0.265D+00 0.804D+00
 Coeff:      0.119D-02-0.163D-02-0.476D-02-0.140D-01-0.414D-01-0.897D-02
 Coeff:      0.265D+00 0.804D+00
 Gap=     0.139 Goal=   None    Shift=    0.000
 Gap=     0.160 Goal=   None    Shift=    0.000
 RMSDP=1.36D-05 MaxDP=6.03D-04 DE=-7.61D-06 OVMax= 2.02D-03

 Cycle   9  Pass 1  IDiag  1:
 RMSU=  8.13D-06    CP:  1.11D+00  1.46D+00  1.06D+00  9.85D-01  9.50D-01
                    CP:  1.20D+00  1.34D+00  1.34D+00
 E= -190.951890174001     Delta-E=       -0.000003001501 Rises=F Damp=F
 DIIS: error= 3.10D-05 at cycle   9 NSaved=   9.
 NSaved= 9 IEnMin= 9 EnMin= -190.951890174001     IErMin= 9 ErrMin= 3.10D-05
 ErrMax= 3.10D-05  0.00D+00 EMaxC= 1.00D-01 BMatC= 7.69D-07 BMatP= 2.63D-06
 IDIUse=1 WtCom= 1.00D+00 WtEn= 0.00D+00
 Coeff-Com:  0.453D-04 0.355D-03 0.190D-02 0.210D-02-0.148D-01-0.518D-01
 Coeff-Com: -0.606D-01 0.147D+00 0.976D+00
 Coeff:      0.453D-04 0.355D-03 0.190D-02 0.210D-02-0.148D-01-0.518D-01
 Coeff:     -0.606D-01 0.147D+00 0.976D+00
 Gap=     0.139 Goal=   None    Shift=    0.000
 Gap=     0.160 Goal=   None    Shift=    0.000
 RMSDP=1.08D-05 MaxDP=6.53D-04 DE=-3.00D-06 OVMax= 1.51D-03

 Cycle  10  Pass 1  IDiag  1:
 RMSU=  5.42D-06    CP:  1.11D+00  1.46D+00  1.06D+00  9.85D-01  9.57D-01
                    CP:  1.22D+00  1.46D+00  1.73D+00  1.69D+00
 E= -190.951892282599     Delta-E=       -0.000002108597 Rises=F Damp=F
 DIIS: error= 2.97D-05 at cycle  10 NSaved=  10.
 NSaved=10 IEnMin=10 EnMin= -190.951892282599     IErMin=10 ErrMin= 2.97D-05
 ErrMax= 2.97D-05  0.00D+00 EMaxC= 1.00D-01 BMatC= 5.68D-07 BMatP= 7.69D-07
 IDIUse=1 WtCom= 1.00D+00 WtEn= 0.00D+00
 Coeff-Com: -0.963D-04 0.319D-03 0.145D-02 0.267D-02-0.294D-03-0.187D-01
 Coeff-Com: -0.513D-01-0.459D-01 0.385D+00 0.726D+00
 Coeff:     -0.963D-04 0.319D-03 0.145D-02 0.267D-02-0.294D-03-0.187D-01
 Coeff:     -0.513D-01-0.459D-01 0.385D+00 0.726D+00
 Gap=     0.139 Goal=   None    Shift=    0.000
 Gap=     0.160 Goal=   None    Shift=    0.000
 RMSDP=7.69D-06 MaxDP=5.25D-04 DE=-2.11D-06 OVMax= 1.21D-03

 Cycle  11  Pass 1  IDiag  1:
 RMSU=  2.18D-06    CP:  1.11D+00  1.46D+00  1.06D+00  9.85D-01  9.60D-01
                    CP:  1.24D+00  1.51D+00  1.96D+00  2.30D+00  1.72D+00
 E= -190.951893841641     Delta-E=       -0.000001559042 Rises=F Damp=F
 DIIS: error= 3.14D-05 at cycle  11 NSaved=  11.
 NSaved=11 IEnMin=11 EnMin= -190.951893841641     IErMin=10 ErrMin= 2.97D-05
 ErrMax= 3.14D-05  0.00D+00 EMaxC= 1.00D-01 BMatC= 5.77D-07 BMatP= 5.68D-07
 IDIUse=1 WtCom= 1.00D+00 WtEn= 0.00D+00
 Coeff-Com: -0.163D-03 0.484D-03 0.219D-02 0.418D-02 0.218D-03-0.272D-01
 Coeff-Com: -0.825D-01-0.796D-01 0.563D+00 0.112D+01-0.499D+00
 Coeff:     -0.163D-03 0.484D-03 0.219D-02 0.418D-02 0.218D-03-0.272D-01
 Coeff:     -0.825D-01-0.796D-01 0.563D+00 0.112D+01-0.499D+00
 Gap=     0.139 Goal=   None    Shift=    0.000
 Gap=     0.160 Goal=   None    Shift=    0.000
 RMSDP=4.17D-06 MaxDP=3.07D-04 DE=-1.56D-06 OVMax= 6.87D-04

 Cycle  12  Pass 1  IDiag  1:
 RMSU=  5.98D-07    CP:  1.11D+00  1.46D+00  1.06D+00  9.85D-01  9.59D-01
                    CP:  1.24D+00  1.49D+00  1.86D+00  2.00D+00  1.23D+00
                    CP:  4.16D-01
 E= -190.951892973405     Delta-E=        0.000000868236 Rises=F Damp=F
 DIIS: error= 3.05D-05 at cycle  12 NSaved=  12.
 NSaved=12 IEnMin=11 EnMin= -190.951893841641     IErMin=10 ErrMin= 2.97D-05
 ErrMax= 3.05D-05  0.00D+00 EMaxC= 1.00D-01 BMatC= 5.51D-07 BMatP= 5.68D-07
 IDIUse=1 WtCom= 1.00D+00 WtEn= 0.00D+00
 Coeff-Com: -0.246D-03 0.524D-03 0.175D-02 0.436D-02 0.126D-01-0.126D-02
 Coeff-Com: -0.673D-01-0.267D+00 0.186D+00 0.204D+01-0.840D+01 0.749D+01
 Coeff:     -0.246D-03 0.524D-03 0.175D-02 0.436D-02 0.126D-01-0.126D-02
 Coeff:     -0.673D-01-0.267D+00 0.186D+00 0.204D+01-0.840D+01 0.749D+01
 Gap=     0.139 Goal=   None    Shift=    0.000
 Gap=     0.160 Goal=   None    Shift=    0.000
 RMSDP=3.13D-05 MaxDP=2.34D-03 DE= 8.68D-07 OVMax= 5.20D-03

 Cycle  13  Pass 1  IDiag  1:
 RMSU=  5.88D-06    CP:  1.11D+00  1.46D+00  1.06D+00  9.83D-01  9.54D-01
                    CP:  1.21D+00  1.38D+00  1.16D+00 -1.86D-01 -2.43D+00
                    CP: -3.00D+00  3.00D+00
 E= -190.951887431566     Delta-E=        0.000005541840 Rises=F Damp=F
 DIIS: error= 2.69D-05 at cycle  13 NSaved=  13.
 NSaved=13 IEnMin=11 EnMin= -190.951893841641     IErMin=13 ErrMin= 2.69D-05
 ErrMax= 2.69D-05  0.00D+00 EMaxC= 1.00D-01 BMatC= 4.34D-07 BMatP= 5.51D-07
 IDIUse=1 WtCom= 1.00D+00 WtEn= 0.00D+00
 Large coefficients: NSaved= 13 BigCof=   10.80 CofMax=   10.00 Det=-1.65D-09
 Inversion failed.  Reducing to 12 matrices.
 Large coefficients: NSaved= 12 BigCof=   10.53 CofMax=   10.00 Det=-1.69D-09
 Inversion failed.  Reducing to 11 matrices.
 Large coefficients: NSaved= 11 BigCof=   10.51 CofMax=   10.00 Det=-1.69D-09
 Inversion failed.  Reducing to 10 matrices.
 Large coefficients: NSaved= 10 BigCof=   10.03 CofMax=   10.00 Det=-1.73D-09
 Inversion failed.  Reducing to  9 matrices.
 Coeff-Com:  0.800D-02 0.112D-01 0.461D-02-0.208D+00-0.331D+00 0.121D+01
 Coeff-Com: -0.988D+01 0.909D+01 0.110D+01
 Coeff:      0.800D-02 0.112D-01 0.461D-02-0.208D+00-0.331D+00 0.121D+01
 Coeff:     -0.988D+01 0.909D+01 0.110D+01
 Gap=     0.139 Goal=   None    Shift=    0.000
 Gap=     0.160 Goal=   None    Shift=    0.000
 RMSDP=3.71D-05 MaxDP=2.82D-03 DE= 5.54D-06 OVMax= 6.21D-03

 Cycle  14  Pass 1  IDiag  1:
 RMSU=  2.28D-05    CP:  1.11D+00  1.46D+00  1.06D+00  9.81D-01  9.47D-01
                    CP:  1.19D+00  1.25D+00  4.09D-01 -2.57D+00 -3.00D+00
                    CP: -3.00D+00  3.00D+00  3.00D+00
 E= -190.951883242273     Delta-E=        0.000004189292 Rises=F Damp=F
 DIIS: error= 1.39D-05 at cycle  14 NSaved=  10.
 NSaved=10 IEnMin= 7 EnMin= -190.951893841641     IErMin=10 ErrMin= 1.39D-05
 ErrMax= 1.39D-05  0.00D+00 EMaxC= 1.00D-01 BMatC= 2.08D-07 BMatP= 4.34D-07
 IDIUse=1 WtCom= 1.00D+00 WtEn= 0.00D+00
 Coeff-Com:  0.810D-02 0.284D-01 0.362D-01-0.592D-01-0.467D+00-0.531D+00
 Coeff-Com:  0.610D-01 0.656D-01 0.639D+00 0.122D+01
 Coeff:      0.810D-02 0.284D-01 0.362D-01-0.592D-01-0.467D+00-0.531D+00
 Coeff:      0.610D-01 0.656D-01 0.639D+00 0.122D+01
 Gap=     0.139 Goal=   None    Shift=    0.000
 Gap=     0.161 Goal=   None    Shift=    0.000
 RMSDP=2.72D-05 MaxDP=2.12D-03 DE= 4.19D-06 OVMax= 4.56D-03

 Cycle  15  Pass 1  IDiag  1:
 RMSU=  1.53D-05    CP:  1.11D+00  1.46D+00  1.06D+00  9.79D-01  9.44D-01
                    CP:  1.18D+00  1.17D+00 -6.12D-02 -3.00D+00 -3.00D+00
                    CP: -3.00D+00  3.00D+00  3.00D+00  1.85D+00
 E= -190.951881963319     Delta-E=        0.000001278955 Rises=F Damp=F
 DIIS: error= 1.04D-05 at cycle  15 NSaved=  11.
 NSaved=11 IEnMin= 7 EnMin= -190.951893841641     IErMin=11 ErrMin= 1.04D-05
 ErrMax= 1.04D-05  0.00D+00 EMaxC= 1.00D-01 BMatC= 7.65D-08 BMatP= 2.08D-07
 IDIUse=1 WtCom= 1.00D+00 WtEn= 0.00D+00
 Coeff-Com: -0.633D-02-0.127D-01-0.692D-02 0.811D-01 0.193D+00-0.333D+00
 Coeff-Com:  0.302D+01-0.299D+01-0.213D+00 0.225D-01 0.124D+01
 Coeff:     -0.633D-02-0.127D-01-0.692D-02 0.811D-01 0.193D+00-0.333D+00
 Coeff:      0.302D+01-0.299D+01-0.213D+00 0.225D-01 0.124D+01
 Gap=     0.139 Goal=   None    Shift=    0.000
 Gap=     0.161 Goal=   None    Shift=    0.000
 RMSDP=8.36D-06 MaxDP=6.05D-04 DE= 1.28D-06 OVMax= 1.29D-03

 Cycle  16  Pass 1  IDiag  1:
 RMSU=  3.63D-06    CP:  1.11D+00  1.46D+00  1.06D+00  9.79D-01  9.45D-01
                    CP:  1.18D+00  1.17D+00 -1.36D-01 -3.00D+00 -3.00D+00
                    CP: -3.00D+00  3.00D+00  3.00D+00  2.05D+00  1.38D+00
 E= -190.951882038643     Delta-E=       -0.000000075325 Rises=F Damp=F
 DIIS: error= 1.05D-05 at cycle  16 NSaved=  12.
 NSaved=12 IEnMin= 7 EnMin= -190.951893841641     IErMin=11 ErrMin= 1.04D-05
 ErrMax= 1.05D-05  0.00D+00 EMaxC= 1.00D-01 BMatC= 5.97D-08 BMatP= 7.65D-08
 IDIUse=1 WtCom= 1.00D+00 WtEn= 0.00D+00
 Coeff-Com: -0.230D-02-0.540D-02-0.571D-02 0.239D-01 0.101D+00-0.191D-01
 Coeff-Com:  0.869D+00-0.848D+00-0.165D+00-0.203D+00 0.475D+00 0.779D+00
 Coeff:     -0.230D-02-0.540D-02-0.571D-02 0.239D-01 0.101D+00-0.191D-01
 Coeff:      0.869D+00-0.848D+00-0.165D+00-0.203D+00 0.475D+00 0.779D+00
 Gap=     0.139 Goal=   None    Shift=    0.000
 Gap=     0.161 Goal=   None    Shift=    0.000
 RMSDP=3.69D-06 MaxDP=1.64D-04 DE=-7.53D-08 OVMax= 4.43D-04

 Cycle  17  Pass 1  IDiag  1:
 RMSU=  5.82D-07    CP:  1.11D+00  1.46D+00  1.06D+00  9.79D-01  9.45D-01
                    CP:  1.18D+00  1.18D+00 -1.16D-01 -3.00D+00 -3.00D+00
                    CP: -3.00D+00  3.00D+00  3.00D+00  2.07D+00  1.47D+00
                    CP:  1.91D+00
 E= -190.951882194737     Delta-E=       -0.000000156094 Rises=F Damp=F
 DIIS: error= 1.02D-05 at cycle  17 NSaved=  13.
 NSaved=13 IEnMin= 7 EnMin= -190.951893841641     IErMin=13 ErrMin= 1.02D-05
 ErrMax= 1.02D-05  0.00D+00 EMaxC= 1.00D-01 BMatC= 5.69D-08 BMatP= 5.97D-08
 IDIUse=1 WtCom= 1.00D+00 WtEn= 0.00D+00
 Coeff-Com: -0.246D-02-0.587D-02-0.623D-02 0.256D-01 0.111D+00-0.189D-01
 Coeff-Com:  0.943D+00-0.920D+00-0.180D+00-0.223D+00 0.517D+00 0.861D+00
 Coeff-Com: -0.100D+00
 Coeff:     -0.246D-02-0.587D-02-0.623D-02 0.256D-01 0.111D+00-0.189D-01
 Coeff:      0.943D+00-0.920D+00-0.180D+00-0.223D+00 0.517D+00 0.861D+00
 Coeff:     -0.100D+00
 Gap=     0.139 Goal=   None    Shift=    0.000
 Gap=     0.161 Goal=   None    Shift=    0.000
 RMSDP=3.66D-07 MaxDP=1.95D-05 DE=-1.56D-07 OVMax= 4.28D-05

 Cycle  18  Pass 1  IDiag  1:
 RMSU=  2.98D-08    CP:  1.11D+00  1.46D+00  1.06D+00  9.79D-01  9.45D-01
                    CP:  1.18D+00  1.17D+00 -1.20D-01 -3.00D+00 -3.00D+00
                    CP: -3.00D+00  3.00D+00  3.00D+00  2.07D+00  1.47D+00
                    CP:  1.81D+00  8.78D-01
 E= -190.951882177295     Delta-E=        0.000000017443 Rises=F Damp=F
 DIIS: error= 1.02D-05 at cycle  18 NSaved=  14.
 NSaved=14 IEnMin= 7 EnMin= -190.951893841641     IErMin=14 ErrMin= 1.02D-05
 ErrMax= 1.02D-05  0.00D+00 EMaxC= 1.00D-01 BMatC= 5.67D-08 BMatP= 5.69D-08
 IDIUse=1 WtCom= 1.00D+00 WtEn= 0.00D+00
 Large coefficients: NSaved= 14 BigCof=   57.98 CofMax=   10.00 Det=-1.26D-12
 Inversion failed.  Reducing to 13 matrices.
 Large coefficients: NSaved= 13 BigCof=   50.54 CofMax=   10.00 Det=-1.35D-12
 Inversion failed.  Reducing to 12 matrices.
 Large coefficients: NSaved= 12 BigCof=   49.64 CofMax=   10.00 Det=-1.37D-12
 Inversion failed.  Reducing to 11 matrices.
 Large coefficients: NSaved= 11 BigCof=   47.11 CofMax=   10.00 Det=-1.42D-12
 Inversion failed.  Reducing to 10 matrices.
 Large coefficients: NSaved= 10 BigCof=   43.97 CofMax=   10.00 Det=-1.69D-12
 Inversion failed.  Reducing to  9 matrices.
 Large coefficients: NSaved=  9 BigCof=   37.41 CofMax=   10.00 Det=-1.89D-12
 Inversion failed.  Reducing to  8 matrices.
 Large coefficients: NSaved=  8 BigCof=   37.36 CofMax=   10.00 Det=-1.89D-12
 Inversion failed.  Reducing to  7 matrices.
 Large coefficients: NSaved=  7 BigCof=   36.80 CofMax=   10.00 Det=-1.93D-12
 Inversion failed.  Reducing to  6 matrices.
 Large coefficients: NSaved=  6 BigCof=   36.67 CofMax=   10.00 Det=-1.93D-12
 Inversion failed.  Reducing to  5 matrices.
 Large coefficients: NSaved=  5 BigCof=   36.46 CofMax=   10.00 Det=-1.93D-12
 Inversion failed.  Reducing to  4 matrices.
 Large coefficients: NSaved=  4 BigCof=   35.93 CofMax=   10.00 Det=-1.96D-12
 Inversion failed.  Reducing to  3 matrices.
 Large coefficients: NSaved=  3 BigCof=   35.08 CofMax=   10.00 Det=-1.99D-12
 Inversion failed.  Reducing to  2 matrices.
 Large coefficients: NSaved=  2 BigCof=   35.09 CofMax=   10.00 Det=-1.99D-12
 Coeff-Com: -0.341D+02 0.351D+02
 Coeff:     -0.341D+02 0.351D+02
 Gap=     0.139 Goal=   None    Shift=    0.000
 Gap=     0.161 Goal=   None    Shift=    0.000
 RMSDP=8.89D-06 MaxDP=4.73D-04 DE= 1.74D-08 OVMax= 1.04D-03

 Cycle  19  Pass 1  IDiag  1:
 RMSU=  8.31D-07    CP:  1.11D+00  1.46D+00  1.06D+00  9.79D-01  9.44D-01
                    CP:  1.18D+00  1.16D+00 -2.02D-01 -3.00D+00 -3.00D+00
                    CP: -3.00D+00  3.00D+00  3.00D+00  2.14D+00  1.39D+00
                    CP: -4.85D-01 -2.04D+00  3.00D+00
 E= -190.951881761870     Delta-E=        0.000000415425 Rises=F Damp=F
 DIIS: error= 1.01D-05 at cycle  19 NSaved=   3.
 NSaved= 3 IEnMin= 1 EnMin= -190.951882194737     IErMin= 3 ErrMin= 1.01D-05
 ErrMax= 1.01D-05  0.00D+00 EMaxC= 1.00D-01 BMatC= 5.54D-08 BMatP= 5.67D-08
 IDIUse=1 WtCom= 1.00D+00 WtEn= 0.00D+00
 Large coefficients: NSaved=  3 BigCof=   93.56 CofMax=   10.00 Det=-1.14D-12
 Inversion failed.  Reducing to  2 matrices.
 Coeff-Com:  0.340D+00 0.660D+00
 Coeff:      0.340D+00 0.660D+00
 Gap=     0.139 Goal=   None    Shift=    0.000
 Gap=     0.161 Goal=   None    Shift=    0.000
 RMSDP=6.73D-06 MaxDP=3.59D-04 DE= 4.15D-07 OVMax= 7.86D-04

 Cycle  20  Pass 1  IDiag  1:
 RMSU=  7.67D-08    CP:  1.11D+00  1.46D+00  1.06D+00  9.79D-01  9.45D-01
                    CP:  1.18D+00  1.17D+00 -1.40D-01 -3.00D+00 -3.00D+00
                    CP: -3.00D+00  3.00D+00  3.00D+00  2.09D+00  1.45D+00
                    CP:  1.26D+00  1.69D-01  3.00D+00  3.47D-01
 E= -190.951882073560     Delta-E=       -0.000000311690 Rises=F Damp=F
 DIIS: error= 1.02D-05 at cycle  20 NSaved=   3.
 NSaved= 3 IEnMin= 1 EnMin= -190.951882177295     IErMin= 2 ErrMin= 1.01D-05
 ErrMax= 1.02D-05  0.00D+00 EMaxC= 1.00D-01 BMatC= 5.82D-08 BMatP= 5.54D-08
 IDIUse=1 WtCom= 1.00D+00 WtEn= 0.00D+00
 Coeff-Com: -0.618D+01 0.319D+01 0.399D+01
 Coeff:     -0.618D+01 0.319D+01 0.399D+01
 Gap=     0.139 Goal=   None    Shift=    0.000
 Gap=     0.161 Goal=   None    Shift=    0.000
 RMSDP=3.17D-05 MaxDP=1.69D-03 DE=-3.12D-07 OVMax= 3.72D-03

 Cycle  21  Pass 1  IDiag  1:
 Restarting incremental Fock formation.
 E= -190.951880684903     Delta-E=        0.000001388656 Rises=F Damp=F
 DIIS: error= 9.59D-06 at cycle  21 NSaved=   4.
 NSaved= 4 IEnMin= 1 EnMin= -190.951882177295     IErMin= 4 ErrMin= 9.59D-06
 ErrMax= 9.59D-06  0.00D+00 EMaxC= 1.00D-01 BMatC= 4.48D-08 BMatP= 5.54D-08
 IDIUse=1 WtCom= 1.00D+00 WtEn= 0.00D+00
 Large coefficients: NSaved=  4 BigCof=   13.02 CofMax=   10.00 Det=-1.39D-10
 Inversion failed.  Reducing to  3 matrices.
 Coeff-Com: -0.190D+01 0.939D+00 0.196D+01
 Coeff:     -0.190D+01 0.939D+00 0.196D+01
 Gap=     0.139 Goal=   None    Shift=    0.000
 Gap=     0.161 Goal=   None    Shift=    0.000
 RMSDP=3.18D-05 MaxDP=1.70D-03 DE= 1.39D-06 OVMax= 3.74D-03

 Cycle  22  Pass 1  IDiag  1:
 RMSU=  3.18D-05    CP:  1.00D+00
 E= -190.951879495341     Delta-E=        0.000001189562 Rises=F Damp=F
 DIIS: error= 8.76D-06 at cycle  22 NSaved=   4.
 NSaved= 4 IEnMin= 1 EnMin= -190.951882177295     IErMin= 4 ErrMin= 8.76D-06
 ErrMax= 8.76D-06  0.00D+00 EMaxC= 1.00D-01 BMatC= 4.85D-08 BMatP= 4.48D-08
 IDIUse=1 WtCom= 1.00D+00 WtEn= 0.00D+00
 Coeff-Com: -0.439D+01 0.147D+01 0.286D+01 0.106D+01
 Coeff:     -0.439D+01 0.147D+01 0.286D+01 0.106D+01
 Gap=     0.139 Goal=   None    Shift=    0.000
 Gap=     0.161 Goal=   None    Shift=    0.000
 RMSDP=1.03D-04 MaxDP=5.53D-03 DE= 1.19D-06 OVMax= 1.21D-02

 Cycle  23  Pass 1  IDiag  1:
 RMSU=  3.95D-05    CP:  1.00D+00  3.00D+00
 E= -190.951877051709     Delta-E=        0.000002443632 Rises=F Damp=F
 DIIS: error= 3.84D-06 at cycle  23 NSaved=   5.
 NSaved= 5 IEnMin= 1 EnMin= -190.951882177295     IErMin= 5 ErrMin= 3.84D-06
 ErrMax= 3.84D-06  0.00D+00 EMaxC= 1.00D-01 BMatC= 1.80D-08 BMatP= 4.48D-08
 IDIUse=1 WtCom= 1.00D+00 WtEn= 0.00D+00
 Coeff-Com: -0.295D+01 0.971D+00 0.182D+01 0.712D+00 0.457D+00
 Coeff:     -0.295D+01 0.971D+00 0.182D+01 0.712D+00 0.457D+00
 Gap=     0.139 Goal=   None    Shift=    0.000
 Gap=     0.161 Goal=   None    Shift=    0.000
 RMSDP=1.79D-05 MaxDP=9.58D-04 DE= 2.44D-06 OVMax= 2.10D-03

 Cycle  24  Pass 1  IDiag  1:
 RMSU=  8.38D-07    CP:  1.00D+00  3.00D+00  1.45D+00
 E= -190.951876838025     Delta-E=        0.000000213684 Rises=F Damp=F
 DIIS: error= 2.77D-06 at cycle  24 NSaved=   6.
 NSaved= 6 IEnMin= 1 EnMin= -190.951882177295     IErMin= 6 ErrMin= 2.77D-06
 ErrMax= 2.77D-06  0.00D+00 EMaxC= 1.00D-01 BMatC= 9.87D-09 BMatP= 1.80D-08
 IDIUse=1 WtCom= 1.00D+00 WtEn= 0.00D+00
 Coeff-Com: -0.249D+00 0.125D+00 0.167D+00-0.642D-01-0.652D+00 0.167D+01
 Coeff:     -0.249D+00 0.125D+00 0.167D+00-0.642D-01-0.652D+00 0.167D+01
 Gap=     0.139 Goal=   None    Shift=    0.000
 Gap=     0.161 Goal=   None    Shift=    0.000
 RMSDP=1.69D-05 MaxDP=8.90D-04 DE= 2.14D-07 OVMax= 1.98D-03

 Cycle  25  Pass 1  IDiag  1:
 RMSU=  6.78D-07    CP:  1.00D+00  3.00D+00  1.88D+00  2.25D+00
 E= -190.951876698265     Delta-E=        0.000000139760 Rises=F Damp=F
 DIIS: error= 2.86D-06 at cycle  25 NSaved=   7.
 NSaved= 7 IEnMin= 1 EnMin= -190.951882177295     IErMin= 6 ErrMin= 2.77D-06
 ErrMax= 2.86D-06  0.00D+00 EMaxC= 1.00D-01 BMatC= 6.16D-09 BMatP= 9.87D-09
 IDIUse=1 WtCom= 1.00D+00 WtEn= 0.00D+00
 Coeff-Com: -0.187D+00 0.244D-01 0.131D+00-0.972D-02-0.495D+00 0.722D+00
 Coeff-Com:  0.814D+00
 Coeff:     -0.187D+00 0.244D-01 0.131D+00-0.972D-02-0.495D+00 0.722D+00
 Coeff:      0.814D+00
 Gap=     0.139 Goal=   None    Shift=    0.000
 Gap=     0.161 Goal=   None    Shift=    0.000
 RMSDP=1.70D-05 MaxDP=9.07D-04 DE= 1.40D-07 OVMax= 1.99D-03

 Cycle  26  Pass 1  IDiag  1:
 RMSU=  5.02D-07    CP:  1.00D+00  3.00D+00  2.31D+00  3.00D+00  1.47D+00
 E= -190.951876607294     Delta-E=        0.000000090971 Rises=F Damp=F
 DIIS: error= 2.94D-06 at cycle  26 NSaved=   8.
 NSaved= 8 IEnMin= 1 EnMin= -190.951882177295     IErMin= 6 ErrMin= 2.77D-06
 ErrMax= 2.94D-06  0.00D+00 EMaxC= 1.00D-01 BMatC= 5.68D-09 BMatP= 6.16D-09
 IDIUse=1 WtCom= 1.00D+00 WtEn= 0.00D+00
 Coeff-Com: -0.960D-03-0.450D-01 0.235D-01-0.724D-01-0.656D+00 0.101D+01
 Coeff-Com:  0.948D+00-0.211D+00
 Coeff:     -0.960D-03-0.450D-01 0.235D-01-0.724D-01-0.656D+00 0.101D+01
 Coeff:      0.948D+00-0.211D+00
 Gap=     0.139 Goal=   None    Shift=    0.000
 Gap=     0.161 Goal=   None    Shift=    0.000
 RMSDP=1.88D-07 MaxDP=1.20D-05 DE= 9.10D-08 OVMax= 2.98D-05

 Cycle  27  Pass 1  IDiag  1:
 RMSU=  4.06D-08    CP:  1.00D+00  3.00D+00  2.31D+00  3.00D+00  1.30D+00
                    CP:  8.09D-01
 E= -190.951876603712     Delta-E=        0.000000003583 Rises=F Damp=F
 DIIS: error= 2.92D-06 at cycle  27 NSaved=   9.
 NSaved= 9 IEnMin= 1 EnMin= -190.951882177295     IErMin= 6 ErrMin= 2.77D-06
 ErrMax= 2.92D-06  0.00D+00 EMaxC= 1.00D-01 BMatC= 5.56D-09 BMatP= 5.68D-09
 IDIUse=1 WtCom= 1.00D+00 WtEn= 0.00D+00
 Large coefficients: NSaved=  9 BigCof=   13.94 CofMax=   10.00 Det=-6.53D-12
 Inversion failed.  Reducing to  8 matrices.
 Coeff-Com: -0.133D+01 0.455D+00 0.754D+00 0.358D+00 0.364D+00-0.572D+00
 Coeff-Com: -0.496D+01 0.593D+01
 Coeff:     -0.133D+01 0.455D+00 0.754D+00 0.358D+00 0.364D+00-0.572D+00
 Coeff:     -0.496D+01 0.593D+01
 Gap=     0.139 Goal=   None    Shift=    0.000
 Gap=     0.161 Goal=   None    Shift=    0.000
 RMSDP=2.53D-06 MaxDP=1.28D-04 DE= 3.58D-09 OVMax= 2.94D-04

 Cycle  28  Pass 1  IDiag  1:
 RMSU=  1.67D-07    CP:  1.00D+00  3.00D+00  2.25D+00  2.88D+00  7.80D-01
                    CP:  6.00D-01  2.58D+00
 E= -190.951876608269     Delta-E=       -0.000000004558 Rises=F Damp=F
 DIIS: error= 3.10D-06 at cycle  28 NSaved=   9.
 NSaved= 9 IEnMin= 1 EnMin= -190.951882177295     IErMin= 6 ErrMin= 2.77D-06
 ErrMax= 3.10D-06  0.00D+00 EMaxC= 1.00D-01 BMatC= 7.00D-09 BMatP= 5.56D-09
 IDIUse=1 WtCom= 1.00D+00 WtEn= 0.00D+00
 Large coefficients: NSaved=  9 BigCof=   50.88 CofMax=   10.00 Det=-1.52D-12
 Inversion failed.  Reducing to  8 matrices.
 Coeff-Com: -0.101D+01 0.344D+00 0.614D+00 0.269D+00 0.274D+00-0.649D+00
 Coeff-Com:  0.941D+00 0.219D+00
 Coeff:     -0.101D+01 0.344D+00 0.614D+00 0.269D+00 0.274D+00-0.649D+00
 Coeff:      0.941D+00 0.219D+00
 Gap=     0.139 Goal=   None    Shift=    0.000
 Gap=     0.161 Goal=   None    Shift=    0.000
 RMSDP=1.57D-06 MaxDP=9.29D-05 DE=-4.56D-09 OVMax= 2.18D-04

 Cycle  29  Pass 1  IDiag  1:
 RMSU=  3.62D-08    CP:  1.00D+00  3.00D+00  2.28D+00  3.00D+00  2.13D+00
                    CP:  1.64D+00 -3.00D+00  2.40D-02
 E= -190.951876625091     Delta-E=       -0.000000016822 Rises=F Damp=F
 DIIS: error= 3.12D-06 at cycle  29 NSaved=   9.
 NSaved= 9 IEnMin= 1 EnMin= -190.951882177295     IErMin= 6 ErrMin= 2.77D-06
 ErrMax= 3.12D-06  0.00D+00 EMaxC= 1.00D-01 BMatC= 6.16D-09 BMatP= 5.56D-09
 IDIUse=1 WtCom= 1.00D+00 WtEn= 0.00D+00
 Coeff-Com: -0.812D-01 0.391D-01 0.315D-01 0.577D-01 0.169D+00-0.671D+00
 Coeff-Com:  0.513D+01 0.218D+01-0.585D+01
 Coeff:     -0.812D-01 0.391D-01 0.315D-01 0.577D-01 0.169D+00-0.671D+00
 Coeff:      0.513D+01 0.218D+01-0.585D+01
 Gap=     0.139 Goal=   None    Shift=    0.000
 Gap=     0.161 Goal=   None    Shift=    0.000
 RMSDP=1.34D-05 MaxDP=7.32D-04 DE=-1.68D-08 OVMax= 1.72D-03

 Cycle  30  Pass 1  IDiag  1:
 RMSU=  1.15D-06    CP:  1.00D+00  3.00D+00  2.59D+00  2.31D+00 -3.00D+00
                    CP: -3.00D+00  3.00D+00 -7.88D-01 -3.00D+00
 E= -190.951876494729     Delta-E=        0.000000130362 Rises=F Damp=F
 DIIS: error= 2.02D-06 at cycle  30 NSaved=  10.
 NSaved=10 IEnMin= 1 EnMin= -190.951882177295     IErMin=10 ErrMin= 2.02D-06
 ErrMax= 2.02D-06  0.00D+00 EMaxC= 1.00D-01 BMatC= 3.57D-09 BMatP= 5.56D-09
 IDIUse=1 WtCom= 1.00D+00 WtEn= 0.00D+00
 Coeff-Com:  0.397D+00-0.219D+00-0.200D+00-0.608D-01-0.114D-01-0.877D-01
 Coeff-Com:  0.455D+01 0.244D+01-0.693D+01 0.112D+01
 Coeff:      0.397D+00-0.219D+00-0.200D+00-0.608D-01-0.114D-01-0.877D-01
 Coeff:      0.455D+01 0.244D+01-0.693D+01 0.112D+01
 Gap=     0.139 Goal=   None    Shift=    0.000
 Gap=     0.161 Goal=   None    Shift=    0.000
 RMSDP=1.68D-05 MaxDP=9.25D-04 DE= 1.30D-07 OVMax= 2.17D-03

 Cycle  31  Pass 1  IDiag  1:
 RMSU=  5.07D-06    CP:  1.00D+00  3.00D+00  2.99D+00  8.66D-01 -3.00D+00
                    CP: -3.00D+00  3.00D+00 -1.76D+00 -3.00D+00  3.00D+00
 E= -190.951876413743     Delta-E=        0.000000080986 Rises=F Damp=F
 DIIS: error= 6.99D-07 at cycle  31 NSaved=  11.
 NSaved=11 IEnMin= 1 EnMin= -190.951882177295     IErMin=11 ErrMin= 6.99D-07
 ErrMax= 6.99D-07  0.00D+00 EMaxC= 1.00D-01 BMatC= 6.41D-10 BMatP= 3.57D-09
 IDIUse=1 WtCom= 1.00D+00 WtEn= 0.00D+00
 Coeff-Com:  0.473D+00-0.192D+00-0.256D+00-0.125D+00-0.139D+00 0.191D+00
 Coeff-Com:  0.121D+01 0.855D+00-0.227D+01 0.514D+00 0.732D+00
 Coeff:      0.473D+00-0.192D+00-0.256D+00-0.125D+00-0.139D+00 0.191D+00
 Coeff:      0.121D+01 0.855D+00-0.227D+01 0.514D+00 0.732D+00
 Gap=     0.139 Goal=   None    Shift=    0.000
 Gap=     0.161 Goal=   None    Shift=    0.000
 RMSDP=5.06D-06 MaxDP=2.79D-04 DE= 8.10D-08 OVMax= 6.20D-04

 Cycle  32  Pass 1  IDiag  1:
 RMSU=  4.61D-06    CP:  1.00D+00  3.00D+00  3.00D+00  6.76D-01 -3.00D+00
                    CP: -3.00D+00  3.00D+00 -2.18D+00 -3.00D+00  3.00D+00
                    CP:  1.20D+00
 E= -190.951876407689     Delta-E=        0.000000006054 Rises=F Damp=F
 DIIS: error= 5.76D-07 at cycle  32 NSaved=  12.
 NSaved=12 IEnMin= 1 EnMin= -190.951882177295     IErMin=12 ErrMin= 5.76D-07
 ErrMax= 5.76D-07  0.00D+00 EMaxC= 1.00D-01 BMatC= 2.29D-10 BMatP= 6.41D-10
 IDIUse=1 WtCom= 1.00D+00 WtEn= 0.00D+00
 Coeff-Com: -0.197D-01 0.188D-01 0.142D-01-0.197D-01-0.519D-01 0.203D+00
 Coeff-Com: -0.246D+01-0.109D+01 0.340D+01-0.504D+00 0.294D+00 0.122D+01
 Coeff:     -0.197D-01 0.188D-01 0.142D-01-0.197D-01-0.519D-01 0.203D+00
 Coeff:     -0.246D+01-0.109D+01 0.340D+01-0.504D+00 0.294D+00 0.122D+01
 Gap=     0.139 Goal=   None    Shift=    0.000
 Gap=     0.161 Goal=   None    Shift=    0.000
 RMSDP=3.59D-06 MaxDP=1.98D-04 DE= 6.05D-09 OVMax= 4.35D-04

 Cycle  33  Pass 1  IDiag  1:
 RMSU=  1.51D-07    CP:  1.00D+00  3.00D+00  3.00D+00  5.77D-01 -3.00D+00
                    CP: -3.00D+00  3.00D+00 -2.15D+00 -3.00D+00  3.00D+00
                    CP:  1.32D+00  1.77D+00
 E= -190.951876406578     Delta-E=        0.000000001110 Rises=F Damp=F
 DIIS: error= 1.99D-07 at cycle  33 NSaved=  13.
 NSaved=13 IEnMin= 1 EnMin= -190.951882177295     IErMin=13 ErrMin= 1.99D-07
 ErrMax= 1.99D-07  0.00D+00 EMaxC= 1.00D-01 BMatC= 2.65D-11 BMatP= 2.29D-10
 IDIUse=1 WtCom= 1.00D+00 WtEn= 0.00D+00
 Coeff-Com: -0.652D-01 0.142D-01 0.483D-01 0.184D-01 0.318D-01-0.891D-02
 Coeff-Com: -0.798D+00-0.379D+00 0.119D+01-0.219D+00-0.100D+00 0.280D+00
 Coeff-Com:  0.984D+00
 Coeff:     -0.652D-01 0.142D-01 0.483D-01 0.184D-01 0.318D-01-0.891D-02
 Coeff:     -0.798D+00-0.379D+00 0.119D+01-0.219D+00-0.100D+00 0.280D+00
 Coeff:      0.984D+00
 Gap=     0.139 Goal=   None    Shift=    0.000
 Gap=     0.161 Goal=   None    Shift=    0.000
 RMSDP=5.30D-07 MaxDP=2.88D-05 DE= 1.11D-09 OVMax= 6.39D-05

 Cycle  34  Pass 1  IDiag  1:
 RMSU=  5.35D-08    CP:  1.00D+00  3.00D+00  3.00D+00  5.44D-01 -3.00D+00
                    CP: -3.00D+00  3.00D+00 -2.11D+00 -3.00D+00  3.00D+00
                    CP:  1.33D+00  1.88D+00  1.32D+00
 E= -190.951876406609     Delta-E=       -0.000000000030 Rises=F Damp=F
 DIIS: error= 6.22D-08 at cycle  34 NSaved=  14.
 NSaved=14 IEnMin= 1 EnMin= -190.951882177295     IErMin=14 ErrMin= 6.22D-08
 ErrMax= 6.22D-08  0.00D+00 EMaxC= 1.00D-01 BMatC= 3.11D-12 BMatP= 2.65D-11
 IDIUse=1 WtCom= 1.00D+00 WtEn= 0.00D+00
 Coeff-Com: -0.207D-01 0.137D-02 0.169D-01 0.921D-02 0.207D-01-0.527D-01
 Coeff-Com:  0.385D+00 0.154D+00-0.529D+00 0.103D+00-0.295D-01-0.154D+00
 Coeff-Com: -0.184D+00 0.128D+01
 Coeff:     -0.207D-01 0.137D-02 0.169D-01 0.921D-02 0.207D-01-0.527D-01
 Coeff:      0.385D+00 0.154D+00-0.529D+00 0.103D+00-0.295D-01-0.154D+00
 Coeff:     -0.184D+00 0.128D+01
 Gap=     0.139 Goal=   None    Shift=    0.000
 Gap=     0.161 Goal=   None    Shift=    0.000
 RMSDP=2.36D-07 MaxDP=1.27D-05 DE=-3.05D-11 OVMax= 2.78D-05

 Cycle  35  Pass 1  IDiag  1:
 RMSU=  1.91D-08    CP:  1.00D+00  3.00D+00  3.00D+00  5.35D-01 -3.00D+00
                    CP: -3.00D+00  3.00D+00 -2.13D+00 -3.00D+00  3.00D+00
                    CP:  1.33D+00  1.83D+00  1.37D+00  1.56D+00
 E= -190.951876406612     Delta-E=       -0.000000000003 Rises=F Damp=F
 DIIS: error= 2.59D-08 at cycle  35 NSaved=  15.
 NSaved=15 IEnMin= 1 EnMin= -190.951882177295     IErMin=15 ErrMin= 2.59D-08
 ErrMax= 2.59D-08  0.00D+00 EMaxC= 1.00D-01 BMatC= 9.71D-13 BMatP= 3.11D-12
 IDIUse=1 WtCom= 1.00D+00 WtEn= 0.00D+00
 Coeff-Com: -0.454D-02 0.455D-02 0.733D-03 0.591D-03-0.104D-02-0.151D-01
 Coeff-Com:  0.148D+00 0.603D-01-0.212D+00 0.494D-01 0.147D-01-0.492D-01
 Coeff-Com: -0.178D+00 0.736D-01 0.111D+01
 Coeff:     -0.454D-02 0.455D-02 0.733D-03 0.591D-03-0.104D-02-0.151D-01
 Coeff:      0.148D+00 0.603D-01-0.212D+00 0.494D-01 0.147D-01-0.492D-01
 Coeff:     -0.178D+00 0.736D-01 0.111D+01
 Gap=     0.139 Goal=   None    Shift=    0.000
 Gap=     0.161 Goal=   None    Shift=    0.000
 RMSDP=5.54D-08 MaxDP=2.99D-06 DE=-2.96D-12 OVMax= 6.58D-06

 Cycle  36  Pass 1  IDiag  1:
 RMSU=  7.60D-09    CP:  1.00D+00  3.00D+00  3.00D+00  5.35D-01 -3.00D+00
                    CP: -3.00D+00  3.00D+00 -2.14D+00 -3.00D+00  3.00D+00
                    CP:  1.33D+00  1.84D+00  1.38D+00  1.62D+00  1.26D+00
 E= -190.951876406611     Delta-E=        0.000000000001 Rises=F Damp=F
 DIIS: error= 6.91D-09 at cycle  36 NSaved=  16.
 NSaved=16 IEnMin= 1 EnMin= -190.951882177295     IErMin=16 ErrMin= 6.91D-09
 ErrMax= 6.91D-09  0.00D+00 EMaxC= 1.00D-01 BMatC= 5.00D-14 BMatP= 9.71D-13
 IDIUse=1 WtCom= 1.00D+00 WtEn= 0.00D+00
 Coeff-Com: -0.455D-02 0.263D-02 0.184D-02 0.881D-03-0.509D-03-0.353D-02
 Coeff-Com:  0.256D-01 0.102D-01-0.372D-01 0.986D-02 0.487D-02-0.792D-02
 Coeff-Com: -0.372D-01-0.642D-01 0.288D+00 0.811D+00
 Coeff:     -0.455D-02 0.263D-02 0.184D-02 0.881D-03-0.509D-03-0.353D-02
 Coeff:      0.256D-01 0.102D-01-0.372D-01 0.986D-02 0.487D-02-0.792D-02
 Coeff:     -0.372D-01-0.642D-01 0.288D+00 0.811D+00
 Gap=     0.139 Goal=   None    Shift=    0.000
 Gap=     0.161 Goal=   None    Shift=    0.000
 RMSDP=1.94D-08 MaxDP=1.08D-06 DE= 7.96D-13 OVMax= 2.33D-06

 Cycle  37  Pass 1  IDiag  1:
 RMSU=  1.30D-09    CP:  1.00D+00  3.00D+00  3.00D+00  5.35D-01 -3.00D+00
                    CP: -3.00D+00  3.00D+00 -2.14D+00 -3.00D+00  3.00D+00
                    CP:  1.33D+00  1.85D+00  1.39D+00  1.62D+00  1.25D+00
                    CP:  1.11D+00
 E= -190.951876406614     Delta-E=       -0.000000000003 Rises=F Damp=F
 DIIS: error= 3.99D-09 at cycle  37 NSaved=  17.
 NSaved=17 IEnMin= 1 EnMin= -190.951882177295     IErMin=17 ErrMin= 3.99D-09
 ErrMax= 3.99D-09  0.00D+00 EMaxC= 1.00D-01 BMatC= 2.12D-14 BMatP= 5.00D-14
 IDIUse=1 WtCom= 1.00D+00 WtEn= 0.00D+00
 Coeff-Com:  0.440D-03-0.320D-03-0.668D-04-0.107D-03-0.358D-03 0.952D-03
 Coeff-Com: -0.151D-01-0.631D-02 0.218D-01-0.443D-02-0.128D-02 0.584D-02
 Coeff-Com:  0.207D-01-0.211D-01-0.142D+00 0.146D+00 0.996D+00
 Coeff:      0.440D-03-0.320D-03-0.668D-04-0.107D-03-0.358D-03 0.952D-03
 Coeff:     -0.151D-01-0.631D-02 0.218D-01-0.443D-02-0.128D-02 0.584D-02
 Coeff:      0.207D-01-0.211D-01-0.142D+00 0.146D+00 0.996D+00
 Gap=     0.139 Goal=   None    Shift=    0.000
 Gap=     0.161 Goal=   None    Shift=    0.000
 RMSDP=3.35D-08 MaxDP=1.82D-06 DE=-2.96D-12 OVMax= 3.97D-06

 Cycle  38  Pass 1  IDiag  1:
 RMSU=  5.46D-10    CP:  1.00D+00  3.00D+00  3.00D+00  5.35D-01 -3.00D+00
                    CP: -3.00D+00  3.00D+00 -2.14D+00 -3.00D+00  3.00D+00
                    CP:  1.33D+00  1.85D+00  1.39D+00  1.60D+00  1.24D+00
                    CP:  1.35D+00  1.17D+00
 E= -190.951876406611     Delta-E=        0.000000000003 Rises=F Damp=F
 DIIS: error= 9.87D-10 at cycle  38 NSaved=  18.
 NSaved=18 IEnMin= 1 EnMin= -190.951882177295     IErMin=18 ErrMin= 9.87D-10
 ErrMax= 9.87D-10  0.00D+00 EMaxC= 1.00D-01 BMatC= 8.01D-16 BMatP= 2.12D-14
 IDIUse=1 WtCom= 1.00D+00 WtEn= 0.00D+00
 Large coefficients: NSaved= 18 BigCof=    0.00 CofMax=   10.00 Det=-2.42D-15
 Inversion failed.  Reducing to 17 matrices.
 Large coefficients: NSaved= 17 BigCof=    0.00 CofMax=   10.00 Det=-3.70D-15
 Inversion failed.  Reducing to 16 matrices.
 Large coefficients: NSaved= 16 BigCof=    0.00 CofMax=   10.00 Det=-3.72D-15
 Inversion failed.  Reducing to 15 matrices.
 Coeff-Com: -0.528D-03 0.159D-03 0.300D-03 0.176D-03 0.142D-03-0.269D-03
 Coeff-Com:  0.770D-03 0.319D-03-0.104D-02 0.118D-03 0.136D-03-0.488D-03
 Coeff-Com: -0.618D-02 0.107D+00 0.899D+00
 Coeff:     -0.528D-03 0.159D-03 0.300D-03 0.176D-03 0.142D-03-0.269D-03
 Coeff:      0.770D-03 0.319D-03-0.104D-02 0.118D-03 0.136D-03-0.488D-03
 Coeff:     -0.618D-02 0.107D+00 0.899D+00
 Gap=     0.139 Goal=   None    Shift=    0.000
 Gap=     0.161 Goal=   None    Shift=    0.000
 RMSDP=5.15D-09 MaxDP=2.82D-07 DE= 2.90D-12 OVMax= 6.14D-07

 SCF Done:  E(UB3LYP) =  -190.951876407     A.U. after   38 cycles
            NFock= 38  Conv=0.52D-08     -V/T= 2.0042
 <Sx>= 0.0000 <Sy>= 0.0000 <Sz>= 0.5000 <S**2>= 0.7597 S= 0.5048
 <L.S>= 0.000000000000E+00
 KE= 1.901597982464D+02 PE=-6.834500446732D+02 EE= 1.704552373002D+02
 Annihilation of the first spin contaminant:
 S**2 before annihilation     0.7597,   after     0.7501
 Leave Link  502 at Mon Jun 20 11:16:35 2016, MaxMem=    33554432 cpu:      1819.9
 (Enter /home/proyectos/fulerenos/M3C-v1.9/M3C-deps_CCC/g09-AM64L-G09RevC.01/l801.exe)
 DoSCS=F DFT=T ScalE2(SS,OS)=  1.000000  1.000000
 Range of M.O.s used for correlation:     1   235
 NBasis=   235 NAE=    16 NBE=    15 NFC=     0 NFV=     0
 NROrb=    235 NOA=    16 NOB=    15 NVA=   219 NVB=   220

 **** Warning!!: The largest alpha MO coefficient is  0.60465776D+02


 **** Warning!!: The largest beta MO coefficient is  0.67723573D+02

 Leave Link  801 at Mon Jun 20 11:16:35 2016, MaxMem=    33554432 cpu:         0.1
 (Enter /home/proyectos/fulerenos/M3C-v1.9/M3C-deps_CCC/g09-AM64L-G09RevC.01/l1101.exe)
 Using compressed storage, NAtomX=     9.
 Will process     10 centers per pass.
 Leave Link 1101 at Mon Jun 20 11:16:35 2016, MaxMem=    33554432 cpu:         1.3
 (Enter /home/proyectos/fulerenos/M3C-v1.9/M3C-deps_CCC/g09-AM64L-G09RevC.01/l1102.exe)
 Symmetrizing basis deriv contribution to polar:
 IMax=3 JMax=2 DiffMx= 0.00D+00
 Leave Link 1102 at Mon Jun 20 11:16:35 2016, MaxMem=    33554432 cpu:         0.1
 (Enter /home/proyectos/fulerenos/M3C-v1.9/M3C-deps_CCC/g09-AM64L-G09RevC.01/l1110.exe)
 Forming Gx(P) for the SCF density, NAtomX=     9.
 Integral derivatives from FoFJK, PRISM(SPDF).
 Do as many integral derivatives as possible in FoFJK.
 G2DrvN: MDV=      33554256.
 G2DrvN: will do    10 centers at a time, making    1 passes.
 Calling FoFCou, ICntrl=  3107 FMM=F I1Cent=   0 AccDes= 0.00D+00.
 FoFJK:  IHMeth= 1 ICntrl=    3107 DoSepK=F KAlg= 0 I1Cent=   0 FoldK=F
 IRaf=         0 NMat=   1 IRICut=       1 DoRegI=T DoRafI=F ISym2E= 0.
 FoFCou: FMM=F IPFlag=           0 FMFlag=      100000 FMFlg1=           0
         NFxFlg=           0 DoJE=F BraDBF=F KetDBF=F FulRan=T
         wScrn=  0.000000 ICntrl=    3107 IOpCl=  1 I1Cent=           0 NGrid=           0
         NMat0=    1 NMatS0=      1 NMatT0=    0 NMatD0=    1 NMtDS0=    0 NMtDT0=    0
 Symmetry not used in FoFCou.
 End of G2Drv F.D. properties file   721 does not exist.
 End of G2Drv F.D. properties file   722 does not exist.
 End of G2Drv F.D. properties file   788 does not exist.
 Leave Link 1110 at Mon Jun 20 11:18:48 2016, MaxMem=    33554432 cpu:       531.1
 (Enter /home/proyectos/fulerenos/M3C-v1.9/M3C-deps_CCC/g09-AM64L-G09RevC.01/l1002.exe)
 Minotr:  UHF open shell wavefunction.
          IDoAtm=111111111
          Direct CPHF calculation.
          Differentiating once with respect to electric field.
                with respect to dipole field.
          Differentiating once with respect to nuclear coordinates.
          Requested convergence is 1.0D-08 RMS, and 1.0D-07 maximum.
          Secondary convergence is 1.0D-12 RMS, and 1.0D-12 maximum.
          NewPWx=T KeepS1=F KeepF1=F KeepIn=T MapXYZ=F SortEE=F KeepMc=T.
          MDV=      33553868 using IRadAn=       2.
 Generate precomputed XC quadrature information.
          Solving linear equations simultaneously, MaxMat=       0.
 FoFJK:  IHMeth= 1 ICntrl=       0 DoSepK=F KAlg= 0 I1Cent=   0 FoldK=F
 IRaf= 990000000 NMat=  30 IRICut=      75 DoRegI=T DoRafI=T ISym2E= 2.
 FoFCou: FMM=F IPFlag=           0 FMFlag=      100000 FMFlg1=           0
         NFxFlg=           0 DoJE=F BraDBF=F KetDBF=F FulRan=T
         wScrn=  0.000000 ICntrl=       0 IOpCl=  1 I1Cent=           0 NGrid=           0
         NMat0=   30 NMatS0=     30 NMatT0=    0 NMatD0=   30 NMtDS0=    0 NMtDT0=    0
 Integrals replicated using symmetry in FoFCou.
          There are    30 degrees of freedom in the 1st order CPHF.  IDoFFX=6 NUNeed=     3.
     27 vectors produced by pass  0 Test12= 2.27D-14 3.33D-09 XBig12= 2.31D+02 6.41D+00.
 AX will form    27 AO Fock derivatives at one time.
     27 vectors produced by pass  1 Test12= 2.27D-14 3.33D-09 XBig12= 2.11D+01 9.49D-01.
     27 vectors produced by pass  2 Test12= 2.27D-14 3.33D-09 XBig12= 5.69D-01 2.33D-01.
     27 vectors produced by pass  3 Test12= 2.27D-14 3.33D-09 XBig12= 1.97D-02 2.71D-02.
     27 vectors produced by pass  4 Test12= 2.27D-14 3.33D-09 XBig12= 1.72D-04 2.21D-03.
     27 vectors produced by pass  5 Test12= 2.27D-14 3.33D-09 XBig12= 1.51D-06 1.81D-04.
     27 vectors produced by pass  6 Test12= 2.27D-14 3.33D-09 XBig12= 8.18D-09 1.37D-05.
      9 vectors produced by pass  7 Test12= 2.27D-14 3.33D-09 XBig12= 2.78D-11 6.01D-07.
      3 vectors produced by pass  8 Test12= 2.27D-14 3.33D-09 XBig12= 1.70D-13 5.37D-08.
      3 vectors produced by pass  9 Test12= 2.27D-14 3.33D-09 XBig12= 6.53D-15 1.67D-08.
 InvSVY:  IOpt=1 It=  1 EMax= 4.44D-15
 Solved reduced A of dimension   204 with    30 vectors.
 FullF1:  Do perturbations    1 to     3.
 Isotropic polarizability for W=    0.000000       44.05 Bohr**3.
 End of Minotr F.D. properties file   721 does not exist.
 End of Minotr F.D. properties file   722 does not exist.
 End of Minotr F.D. properties file   788 does not exist.
 Leave Link 1002 at Mon Jun 20 11:27:21 2016, MaxMem=    33554432 cpu:      2051.8
 (Enter /home/proyectos/fulerenos/M3C-v1.9/M3C-deps_CCC/g09-AM64L-G09RevC.01/l601.exe)
 Copying SCF densities to generalized density rwf, IOpCl= 1 IROHF=0.

 **********************************************************************

            Population analysis using the SCF density.

 **********************************************************************

 Orbital symmetries:
 Alpha Orbitals:
       Occupied  (A) (A) (A) (A) (A) (A) (A) (A) (A) (A) (A) (A)
                 (A) (A) (A) (A)
       Virtual   (A) (A) (A) (A) (A) (A) (A) (A) (A) (A) (A) (A)
                 (A) (A) (A) (A) (A) (A) (A) (A) (A) (A) (A) (A)
                 (A) (A) (A) (A) (A) (A) (A) (A) (A) (A) (A) (A)
                 (A) (A) (A) (A) (A) (A) (A) (A) (A) (A) (A) (A)
                 (A) (A) (A) (A) (A) (A) (A) (A) (A) (A) (A) (A)
                 (A) (A) (A) (A) (A) (A) (A) (A) (A) (A) (A) (A)
                 (A) (A) (A) (A) (A) (A) (A) (A) (A) (A) (A) (A)
                 (A) (A) (A) (A) (A) (A) (A) (A) (A) (A) (A) (A)
                 (A) (A) (A) (A) (A) (A) (A) (A) (A) (A) (A) (A)
                 (A) (A) (A) (A) (A) (A) (A) (A) (A) (A) (A) (A)
                 (A) (A) (A) (A) (A) (A) (A) (A) (A) (A) (A) (A)
                 (A) (A) (A) (A) (A) (A) (A) (A) (A) (A) (A) (A)
                 (A) (A) (A) (A) (A) (A) (A) (A) (A) (A) (A) (A)
                 (A) (A) (A) (A) (A) (A) (A) (A) (A) (A) (A) (A)
                 (A) (A) (A) (A) (A) (A) (A) (A) (A) (A) (A) (A)
                 (A) (A) (A) (A) (A) (A) (A) (A) (A) (A) (A) (A)
                 (A) (A) (A) (A) (A) (A) (A) (A) (A) (A) (A) (A)
                 (A) (A) (A) (A) (A) (A) (A) (A) (A) (A) (A) (A)
                 (A) (A) (A)
 Beta  Orbitals:
       Occupied  (A) (A) (A) (A) (A) (A) (A) (A) (A) (A) (A) (A)
                 (A) (A) (A)
       Virtual   (A) (A) (A) (A) (A) (A) (A) (A) (A) (A) (A) (A)
                 (A) (A) (A) (A) (A) (A) (A) (A) (A) (A) (A) (A)
                 (A) (A) (A) (A) (A) (A) (A) (A) (A) (A) (A) (A)
                 (A) (A) (A) (A) (A) (A) (A) (A) (A) (A) (A) (A)
                 (A) (A) (A) (A) (A) (A) (A) (A) (A) (A) (A) (A)
                 (A) (A) (A) (A) (A) (A) (A) (A) (A) (A) (A) (A)
                 (A) (A) (A) (A) (A) (A) (A) (A) (A) (A) (A) (A)
                 (A) (A) (A) (A) (A) (A) (A) (A) (A) (A) (A) (A)
                 (A) (A) (A) (A) (A) (A) (A) (A) (A) (A) (A) (A)
                 (A) (A) (A) (A) (A) (A) (A) (A) (A) (A) (A) (A)
                 (A) (A) (A) (A) (A) (A) (A) (A) (A) (A) (A) (A)
                 (A) (A) (A) (A) (A) (A) (A) (A) (A) (A) (A) (A)
                 (A) (A) (A) (A) (A) (A) (A) (A) (A) (A) (A) (A)
                 (A) (A) (A) (A) (A) (A) (A) (A) (A) (A) (A) (A)
                 (A) (A) (A) (A) (A) (A) (A) (A) (A) (A) (A) (A)
                 (A) (A) (A) (A) (A) (A) (A) (A) (A) (A) (A) (A)
                 (A) (A) (A) (A) (A) (A) (A) (A) (A) (A) (A) (A)
                 (A) (A) (A) (A) (A) (A) (A) (A) (A) (A) (A) (A)
                 (A) (A) (A) (A)
 The electronic state is 2-A.
 Alpha  occ. eigenvalues --  -11.11060 -11.06371 -11.03582 -10.96776 -10.92455
 Alpha  occ. eigenvalues --   -1.65451  -1.48758  -1.36753  -1.33886  -1.22430
 Alpha  occ. eigenvalues --   -1.18905  -1.15730  -1.14185  -1.10733  -1.02461
 Alpha  occ. eigenvalues --   -1.00576
 Alpha virt. eigenvalues --   -0.86640  -0.85088  -0.83128  -0.83023  -0.57180
 Alpha virt. eigenvalues --   -0.54790  -0.53098  -0.51373  -0.49079  -0.47087
 Alpha virt. eigenvalues --   -0.46388  -0.45708  -0.44656  -0.41382  -0.41260
 Alpha virt. eigenvalues --   -0.38966  -0.37444  -0.36073  -0.34993  -0.33470
 Alpha virt. eigenvalues --   -0.32891  -0.31140  -0.30139  -0.29877  -0.29038
 Alpha virt. eigenvalues --   -0.28304  -0.27590  -0.27140  -0.25685  -0.24673
 Alpha virt. eigenvalues --   -0.23236  -0.23145  -0.22355  -0.21219  -0.20400
 Alpha virt. eigenvalues --   -0.18391  -0.17497  -0.17291  -0.16263  -0.14572
 Alpha virt. eigenvalues --   -0.13968  -0.13651  -0.12270  -0.11383  -0.09664
 Alpha virt. eigenvalues --   -0.08621  -0.07550  -0.06732  -0.05488  -0.04866
 Alpha virt. eigenvalues --   -0.04172  -0.03743  -0.02202  -0.01226  -0.00251
 Alpha virt. eigenvalues --    0.00619   0.00861   0.01905   0.03724   0.04434
 Alpha virt. eigenvalues --    0.06122   0.06321   0.06479   0.07920   0.09886
 Alpha virt. eigenvalues --    0.10606   0.12358   0.15094   0.16457   0.19114
 Alpha virt. eigenvalues --    0.20333   0.20746   0.22043   0.24934   0.33226
 Alpha virt. eigenvalues --    0.34125   0.36778   0.39414   0.43864   0.45100
 Alpha virt. eigenvalues --    0.48119   0.49832   0.51227   0.52814   0.55243
 Alpha virt. eigenvalues --    0.57149   0.57823   0.60096   0.63984   0.65301
 Alpha virt. eigenvalues --    0.66156   0.69162   0.72497   0.72712   0.75193
 Alpha virt. eigenvalues --    0.76751   0.78077   0.78982   0.81511   0.84587
 Alpha virt. eigenvalues --    0.85888   0.87179   0.90489   0.94166   0.95425
 Alpha virt. eigenvalues --    0.98209   0.99283   1.02879   1.08317   1.12071
 Alpha virt. eigenvalues --    1.17941   1.19058   1.22600   1.29443   1.30816
 Alpha virt. eigenvalues --    1.35652   1.40007   1.41118   1.46769   1.49053
 Alpha virt. eigenvalues --    1.54959   1.58824   1.72900   1.79652   1.90248
 Alpha virt. eigenvalues --    1.95121   1.96017   1.99857   2.02324   2.05334
 Alpha virt. eigenvalues --    2.08344   2.08713   2.10736   2.13376   2.15368
 Alpha virt. eigenvalues --    2.16341   2.18677   2.20536   2.22299   2.23859
 Alpha virt. eigenvalues --    2.27536   2.28620   2.29620   2.31228   2.36530
 Alpha virt. eigenvalues --    2.39614   2.45827   2.50137   2.51998   2.54937
 Alpha virt. eigenvalues --    2.56163   2.58993   2.63303   2.64932   2.66820
 Alpha virt. eigenvalues --    2.72924   2.75128   2.76696   2.81852   2.84300
 Alpha virt. eigenvalues --    2.98802   3.03985   3.09921   3.10912   3.17420
 Alpha virt. eigenvalues --    3.23851   3.29109   3.34019   3.34794   3.39620
 Alpha virt. eigenvalues --    3.56082   3.59431   3.64286   3.70076   3.72176
 Alpha virt. eigenvalues --    3.74126   3.74947   3.87399   3.87582   3.94221
 Alpha virt. eigenvalues --    3.96232   4.04250   4.15050   4.36916   4.58981
 Alpha virt. eigenvalues --    4.65447   4.71685   4.81331   5.04853   6.15956
 Alpha virt. eigenvalues --    6.17045   6.22676   6.27529   6.29419   6.34652
 Alpha virt. eigenvalues --    6.38404   6.44250   6.44916   6.49498   6.59336
 Alpha virt. eigenvalues --    6.62028   6.66841   6.75847   6.76816   6.88996
 Alpha virt. eigenvalues --    6.92424   6.96121   7.06384   7.20728   7.25922
 Alpha virt. eigenvalues --    7.37022   7.50802   7.68323   8.25557  23.04541
 Alpha virt. eigenvalues --   23.21349  23.67644  23.82191  24.08715
  Beta  occ. eigenvalues --  -11.11024 -11.04624 -11.03453 -10.96633 -10.92349
  Beta  occ. eigenvalues --   -1.64418  -1.48357  -1.34998  -1.33483  -1.21920
  Beta  occ. eigenvalues --   -1.16087  -1.14555  -1.13809  -1.10525  -1.02444
  Beta virt. eigenvalues --   -0.86362  -0.85202  -0.83788  -0.81843  -0.80510
  Beta virt. eigenvalues --   -0.56416  -0.54061  -0.52760  -0.51120  -0.48701
  Beta virt. eigenvalues --   -0.46275  -0.45680  -0.45147  -0.44536  -0.41065
  Beta virt. eigenvalues --   -0.40819  -0.38252  -0.36937  -0.35700  -0.34957
  Beta virt. eigenvalues --   -0.33083  -0.32696  -0.30991  -0.30010  -0.29692
  Beta virt. eigenvalues --   -0.28904  -0.27985  -0.27458  -0.27040  -0.25216
  Beta virt. eigenvalues --   -0.24582  -0.23151  -0.23055  -0.22162  -0.21084
  Beta virt. eigenvalues --   -0.20208  -0.18286  -0.17187  -0.17143  -0.16148
  Beta virt. eigenvalues --   -0.14385  -0.13757  -0.13506  -0.12083  -0.10891
  Beta virt. eigenvalues --   -0.09395  -0.08214  -0.07082  -0.06258  -0.05331
  Beta virt. eigenvalues --   -0.04074  -0.03761  -0.03492  -0.01684  -0.00750
  Beta virt. eigenvalues --   -0.00014   0.00714   0.01229   0.02495   0.04074
  Beta virt. eigenvalues --    0.04537   0.06417   0.06787   0.06845   0.08327
  Beta virt. eigenvalues --    0.10063   0.10804   0.12624   0.15577   0.16706
  Beta virt. eigenvalues --    0.19331   0.20531   0.21002   0.22523   0.25212
  Beta virt. eigenvalues --    0.33633   0.34525   0.37028   0.39560   0.44159
  Beta virt. eigenvalues --    0.45334   0.48490   0.50063   0.51553   0.53057
  Beta virt. eigenvalues --    0.55459   0.57678   0.58089   0.60608   0.64361
  Beta virt. eigenvalues --    0.65530   0.66448   0.69499   0.72878   0.73727
  Beta virt. eigenvalues --    0.75358   0.77153   0.79246   0.79385   0.82241
  Beta virt. eigenvalues --    0.85747   0.86451   0.87877   0.91498   0.94360
  Beta virt. eigenvalues --    0.95904   0.98815   1.00627   1.03777   1.09556
  Beta virt. eigenvalues --    1.12826   1.19406   1.20465   1.23055   1.30907
  Beta virt. eigenvalues --    1.31796   1.37084   1.41318   1.42478   1.48905
  Beta virt. eigenvalues --    1.50048   1.56279   1.59548   1.74164   1.80495
  Beta virt. eigenvalues --    1.91073   1.96057   1.96923   2.00631   2.02972
  Beta virt. eigenvalues --    2.05454   2.08533   2.09076   2.11176   2.14067
  Beta virt. eigenvalues --    2.16091   2.16981   2.19361   2.21090   2.22846
  Beta virt. eigenvalues --    2.24978   2.28270   2.29474   2.30667   2.32337
  Beta virt. eigenvalues --    2.38133   2.40853   2.46687   2.50741   2.52743
  Beta virt. eigenvalues --    2.56551   2.57231   2.59717   2.64212   2.65823
  Beta virt. eigenvalues --    2.67827   2.74312   2.75475   2.77406   2.82392
  Beta virt. eigenvalues --    2.84969   2.99681   3.04682   3.10642   3.11496
  Beta virt. eigenvalues --    3.18523   3.24373   3.30089   3.34627   3.35446
  Beta virt. eigenvalues --    3.40698   3.56986   3.59852   3.64976   3.70366
  Beta virt. eigenvalues --    3.72460   3.75045   3.75421   3.87624   3.88016
  Beta virt. eigenvalues --    3.95136   3.96834   4.04780   4.15913   4.37641
  Beta virt. eigenvalues --    4.59323   4.65571   4.72822   4.81551   5.05284
  Beta virt. eigenvalues --    6.16238   6.17321   6.23427   6.28992   6.31154
  Beta virt. eigenvalues --    6.36286   6.41321   6.45542   6.46711   6.51134
  Beta virt. eigenvalues --    6.60468   6.62917   6.67955   6.76721   6.77779
  Beta virt. eigenvalues --    6.89986   6.93185   6.96842   7.08445   7.23405
  Beta virt. eigenvalues --    7.26815   7.37318   7.50995   7.69139   8.26694
  Beta virt. eigenvalues --   23.04721  23.22082  23.67877  23.83138  24.09156
          Condensed to atoms (all electrons):
               1          2          3          4          5          6
     1  C    8.105507   0.475682  -1.567005  -0.959693  -0.001190  -0.641180
     2  H    0.475682   0.290483  -0.048920  -0.053544   0.002631  -0.049994
     3  C   -1.567005  -0.048920   6.834488   0.245881  -0.007805   0.196211
     4  C   -0.959693  -0.053544   0.245881   6.597604  -0.027738   0.383467
     5  H   -0.001190   0.002631  -0.007805  -0.027738   0.332055  -0.034451
     6  C   -0.641180  -0.049994   0.196211   0.383467  -0.034451   5.888048
     7  H   -0.026012   0.002431  -0.009569  -0.008975  -0.000046   0.352763
     8  C    0.445866   0.030835  -0.141830  -0.727641   0.394983  -0.489489
     9  H   -0.016452  -0.001019   0.008230  -0.018186  -0.012831  -0.011958
               7          8          9
     1  C   -0.026012   0.445866  -0.016452
     2  H    0.002431   0.030835  -0.001019
     3  C   -0.009569  -0.141830   0.008230
     4  C   -0.008975  -0.727641  -0.018186
     5  H   -0.000046   0.394983  -0.012831
     6  C    0.352763  -0.489489  -0.011958
     7  H    0.326958  -0.031801   0.001105
     8  C   -0.031801   6.236308   0.368194
     9  H    0.001105   0.368194   0.346644
          Atomic-Atomic Spin Densities.
               1          2          3          4          5          6
     1  C    0.356137  -0.006064  -0.001620  -0.377560  -0.000111  -0.130492
     2  H   -0.006064  -0.001466  -0.000315   0.006784   0.000014   0.002702
     3  C   -0.001620  -0.000315   0.024350   0.008539   0.000024   0.009009
     4  C   -0.377560   0.006784   0.008539   1.438828   0.000763   0.117138
     5  H   -0.000111   0.000014   0.000024   0.000763  -0.004286  -0.000670
     6  C   -0.130492   0.002702   0.009009   0.117138  -0.000670   0.145009
     7  H    0.012855  -0.000717  -0.001700  -0.010537   0.000124  -0.006591
     8  C    0.152919  -0.002070  -0.007343  -0.294561  -0.002062  -0.082122
     9  H    0.000593  -0.000041  -0.000039  -0.002779   0.000371  -0.000469
               7          8          9
     1  C    0.012855   0.152919   0.000593
     2  H   -0.000717  -0.002070  -0.000041
     3  C   -0.001700  -0.007343  -0.000039
     4  C   -0.010537  -0.294561  -0.002779
     5  H    0.000124  -0.002062   0.000371
     6  C   -0.006591  -0.082122  -0.000469
     7  H    0.036651   0.001961   0.000036
     8  C    0.001961   0.236558   0.000305
     9  H    0.000036   0.000305  -0.004331
 Mulliken charges and spin densities:
               1          2
     1  C    0.184476   0.006657
     2  H    0.351415  -0.001172
     3  C    0.490317   0.030905
     4  C    0.568825   0.886614
     5  H    0.354391  -0.005833
     6  C    0.406582   0.053515
     7  H    0.393145   0.032082
     8  C   -0.085426   0.003586
     9  H    0.336274  -0.006355
 Sum of Mulliken charges =   3.00000   1.00000
 Mulliken charges and spin densities with hydrogens summed into heavy atoms:
               1          2
     1  C    0.535892   0.005485
     3  C    0.490317   0.030905
     4  C    0.568825   0.886614
     6  C    0.799727   0.085598
     8  C    0.605239  -0.008602
 APT charges:
               1
     1  C   -0.571230
     2  H    0.365850
     3  C    1.079886
     4  C    0.749550
     5  H    0.574531
     6  C    0.573022
     7  H    0.327324
     8  C   -0.612127
     9  H    0.513195
 Sum of APT charges =   3.00000
 APT charges with hydrogens summed into heavy atoms:
               1
     1  C   -0.205380
     3  C    1.079886
     4  C    0.749550
     6  C    0.900346
     8  C    0.475598
 Electronic spatial extent (au):  <R**2>=            289.5647
 Charge=              3.0000 electrons
 Dipole moment (field-independent basis, Debye):
    X=             -0.8410    Y=              1.0694    Z=              0.6100  Tot=              1.4910
 Quadrupole moment (field-independent basis, Debye-Ang):
   XX=             12.0003   YY=            -11.4538   ZZ=            -16.4276
   XY=             -0.1751   XZ=              1.3179   YZ=             -0.7246
 Traceless Quadrupole moment (field-independent basis, Debye-Ang):
   XX=             17.2940   YY=             -6.1601   ZZ=            -11.1339
   XY=             -0.1751   XZ=              1.3179   YZ=             -0.7246
 Octapole moment (field-independent basis, Debye-Ang**2):
  XXX=            -15.2599  YYY=             13.0949  ZZZ=              4.7741  XYY=             -4.6411
  XXY=             -2.6006  XXZ=             -0.7061  XZZ=             -2.1194  YZZ=             -0.2844
  YYZ=             -1.0225  XYZ=              0.2410
 Hexadecapole moment (field-independent basis, Debye-Ang**3):
 XXXX=            -92.8769 YYYY=            -42.4493 ZZZZ=            -22.1982 XXXY=              5.0606
 XXXZ=              3.4277 YYYX=             -5.6124 YYYZ=             -3.7401 ZZZX=              8.0499
 ZZZY=             -0.9757 XXYY=            -50.2921 XXZZ=            -26.2626 YYZZ=            -17.7322
 XXYZ=             -1.1468 YYXZ=              0.2140 ZZXY=              0.1762
 N-N= 1.318831327200D+02 E-N=-6.834500446969D+02  KE= 1.901597982464D+02
  Exact polarizability:  64.817   0.627  37.382   1.059  -0.234  29.936
 Approx polarizability: 121.149   2.133  67.392  -0.485   0.384  50.553
                          Isotropic Fermi Contact Couplings
        Atom                 a.u.       MegaHertz       Gauss      10(-4) cm-1
     1  C(13)              0.01732      19.47608       6.94955       6.49652
     2  H(1)              -0.00120      -5.34461      -1.90709      -1.78277
     3  C(13)             -0.00129      -1.44901      -0.51704      -0.48334
     4  C(13)              0.59032     663.63742     236.80232     221.36561
     5  H(1)              -0.00324     -14.46985      -5.16320      -4.82662
     6  C(13)              0.03851      43.29532      15.44885      14.44176
     7  H(1)               0.01699      75.95218      27.10163      25.33492
     8  C(13)              0.01649      18.53807       6.61484       6.18363
     9  H(1)              -0.00371     -16.57597      -5.91472      -5.52915
 --------------------------------------------------------
       Center         ----  Spin Dipole Couplings  ----
                      3XX-RR        3YY-RR        3ZZ-RR
 --------------------------------------------------------
     1   Atom       -0.039688      0.111298     -0.071609
     2   Atom       -0.003792     -0.003479      0.007270
     3   Atom       -0.084877      0.046265      0.038612
     4   Atom       -0.519682      0.891115     -0.371433
     5   Atom        0.008680     -0.003281     -0.005399
     6   Atom       -0.039220      0.003527      0.035692
     7   Atom       -0.008318      0.017895     -0.009577
     8   Atom       -0.022622      0.120749     -0.098128
     9   Atom        0.006605     -0.002165     -0.004440
 --------------------------------------------------------
                        XY            XZ            YZ
 --------------------------------------------------------
     1   Atom        0.061625      0.004900      0.023642
     2   Atom        0.005406      0.012991      0.007894
     3   Atom       -0.027192     -0.075655      0.012373
     4   Atom       -0.190320     -0.068534      0.467811
     5   Atom       -0.008284     -0.010489      0.004844
     6   Atom        0.046248     -0.039488     -0.120205
     7   Atom       -0.003463     -0.000217      0.004997
     8   Atom       -0.063830     -0.000757      0.001252
     9   Atom       -0.009545      0.009268     -0.004034
 --------------------------------------------------------


 ---------------------------------------------------------------------------------
              Anisotropic Spin Dipole Couplings in Principal Axis System
 ---------------------------------------------------------------------------------

       Atom             a.u.   MegaHertz   Gauss  10(-4) cm-1        Axes

              Baa    -0.0752   -10.087    -3.599    -3.365  0.1860 -0.1839  0.9652
     1 C(13)  Bbb    -0.0608    -8.165    -2.913    -2.723  0.9249 -0.2988 -0.2352
              Bcc     0.1360    18.251     6.513     6.088  0.3316  0.9364  0.1145
 
              Baa    -0.0124    -6.608    -2.358    -2.204  0.8390 -0.0276 -0.5434
     2 H(1)   Bbb    -0.0074    -3.952    -1.410    -1.318 -0.1853  0.9245 -0.3332
              Bcc     0.0198    10.560     3.768     3.522  0.5116  0.3802  0.7705
 
              Baa    -0.1230   -16.507    -5.890    -5.506  0.9030  0.1148  0.4139
     3 C(13)  Bbb     0.0353     4.741     1.692     1.581  0.1189  0.8591 -0.4978
              Bcc     0.0877    11.766     4.198     3.925 -0.4128  0.4987  0.7622
 
              Baa    -0.5468   -73.371   -26.180   -24.474  0.9608  0.0378  0.2747
     4 C(13)  Bbb    -0.5245   -70.382   -25.114   -23.477 -0.2470 -0.3338  0.9097
              Bcc     1.0713   143.753    51.295    47.951 -0.1261  0.9419  0.3114
 
              Baa    -0.0110    -5.883    -2.099    -1.962  0.4378 -0.0912  0.8945
     5 H(1)   Bbb    -0.0075    -3.986    -1.422    -1.329  0.4002  0.9106 -0.1030
              Bcc     0.0185     9.869     3.521     3.292  0.8051 -0.4031 -0.4351
 
              Baa    -0.1032   -13.854    -4.943    -4.621 -0.1759  0.7686  0.6150
     6 C(13)  Bbb    -0.0559    -7.505    -2.678    -2.503  0.9405 -0.0532  0.3355
              Bcc     0.1592    21.358     7.621     7.124 -0.2906 -0.6375  0.7136
 
              Baa    -0.0105    -5.624    -2.007    -1.876 -0.2084 -0.1938  0.9586
     7 H(1)   Bbb    -0.0087    -4.624    -1.650    -1.543  0.9701  0.0836  0.2278
              Bcc     0.0192    10.248     3.657     3.418 -0.1243  0.9775  0.1706
 
              Baa    -0.0981   -13.169    -4.699    -4.393  0.0069 -0.0037  1.0000
     8 C(13)  Bbb    -0.0469    -6.296    -2.247    -2.100  0.9345  0.3558 -0.0051
              Bcc     0.1451    19.465     6.946     6.493 -0.3558  0.9346  0.0059
 
              Baa    -0.0102    -5.423    -1.935    -1.809 -0.5977 -0.3494  0.7216
     9 H(1)   Bbb    -0.0072    -3.819    -1.363    -1.274  0.1915  0.8118  0.5516
              Bcc     0.0173     9.242     3.298     3.083  0.7785 -0.4679  0.4183
 

 ---------------------------------------------------------------------------------

 No NMR shielding tensors so no spin-rotation constants.
 Leave Link  601 at Mon Jun 20 11:27:21 2016, MaxMem=    33554432 cpu:         1.9
 (Enter /home/proyectos/fulerenos/M3C-v1.9/M3C-deps_CCC/g09-AM64L-G09RevC.01/l701.exe)
 Compute integral second derivatives.
 ... and contract with generalized density number  0.
 Leave Link  701 at Mon Jun 20 11:27:22 2016, MaxMem=    33554432 cpu:         1.4
 (Enter /home/proyectos/fulerenos/M3C-v1.9/M3C-deps_CCC/g09-AM64L-G09RevC.01/l702.exe)
 L702 exits ... SP integral derivatives will be done elsewhere.
 Leave Link  702 at Mon Jun 20 11:27:22 2016, MaxMem=    33554432 cpu:         0.0
 (Enter /home/proyectos/fulerenos/M3C-v1.9/M3C-deps_CCC/g09-AM64L-G09RevC.01/l703.exe)
 Compute integral second derivatives, UseDBF=F ICtDFT=           0.
 Integral derivatives from FoFJK, PRISM(SPDF).
 Calling FoFJK, ICntrl=    100127 FMM=F ISym2X=0 I1Cent= 0 IOpClX= 1 NMat=1 NMatS=1 NMatT=0.
 FoFJK:  IHMeth= 1 ICntrl=  100127 DoSepK=F KAlg= 0 I1Cent=   0 FoldK=F
 IRaf=         0 NMat=   1 IRICut=       1 DoRegI=T DoRafI=F ISym2E= 0.
 FoFCou: FMM=F IPFlag=           0 FMFlag=      100000 FMFlg1=         800
         NFxFlg=           0 DoJE=F BraDBF=F KetDBF=F FulRan=T
         wScrn=  0.000000 ICntrl=  100127 IOpCl=  1 I1Cent=           0 NGrid=           0
         NMat0=    1 NMatS0=      1 NMatT0=    0 NMatD0=    1 NMtDS0=    0 NMtDT0=    0
 Symmetry not used in FoFCou.
 Leave Link  703 at Mon Jun 20 11:29:25 2016, MaxMem=    33554432 cpu:       492.3
 (Enter /home/proyectos/fulerenos/M3C-v1.9/M3C-deps_CCC/g09-AM64L-G09RevC.01/l716.exe)
 Dipole        =-3.30879473D-01 4.20746373D-01 2.40003995D-01
 Polarizability= 6.48172548D+01 6.27449622D-01 3.73816458D+01
                 1.05938027D+00-2.34029848D-01 2.99364017D+01
 Full mass-weighted force constant matrix:
 Low frequencies ---  -13.0901   -9.1372   -0.0004   -0.0003    0.0002    2.0464
 Low frequencies ---  136.2587  270.3867  367.9845
 Diagonal vibrational polarizability:
       62.8958401       9.0571783      25.8386591
 Harmonic frequencies (cm**-1), IR intensities (KM/Mole), Raman scattering
 activities (A**4/AMU), depolarization ratios for plane and unpolarized
 incident light, reduced masses (AMU), force constants (mDyne/A),
 and normal coordinates:
                      1                      2                      3
                      A                      A                      A
 Frequencies --    136.2532               270.3865               367.9844
 Red. masses --      2.1037                 5.5256                 3.9960
 Frc consts  --      0.0230                 0.2380                 0.3188
 IR Inten    --     12.4516                 1.1423                 9.7766
  Atom  AN      X      Y      Z        X      Y      Z        X      Y      Z
     1   6     0.01   0.01   0.04    -0.00  -0.29   0.00    -0.01  -0.01   0.36
     2   1     0.20   0.08   0.01     0.02  -0.34  -0.00    -0.03  -0.08   0.35
     3   6    -0.09  -0.01  -0.13    -0.03   0.42   0.00    -0.26  -0.01  -0.16
     4   6     0.01  -0.07   0.17    -0.21  -0.14   0.11     0.10   0.09  -0.10
     5   1    -0.26   0.09  -0.49    -0.06   0.43  -0.01     0.31  -0.19   0.21
     6   6    -0.00   0.03   0.10     0.21  -0.11  -0.09     0.08  -0.03  -0.02
     7   1    -0.05   0.11   0.52     0.41  -0.15  -0.25     0.22  -0.14  -0.57
     8   6     0.06   0.01  -0.15    -0.01   0.11   0.00     0.04  -0.01  -0.09
[...]
      X             X  X    X                                                     X             X                                    
                    X  X    X                                                     X             X                                    
                    X  X    X                                                                   X                                    
                    X  X    X                                                                                                        
                    X  X                                                                                                             
                    X  X                                                                                                             
                    X  X                                                                                                             
                    X  X                                                                                                             
                    X  X                                                                                                             
                    X  X                                                                                                             
                       X                                                                                                             
                       X                                                                                                             
                       X                                                                                                             
                       X                                                                                                             
 
 ***** Axes restored to original set *****
 -------------------------------------------------------------------
 Center     Atomic                   Forces (Hartrees/Bohr)
 Number     Number              X              Y              Z
 -------------------------------------------------------------------
      1        6           0.000017949    0.000001265   -0.000003269
      2        1           0.000002082   -0.000001438    0.000002714
      3        6           0.000008900   -0.000001574   -0.000002282
      4        6          -0.000025049    0.000015953   -0.000015487
      5        1          -0.000013920    0.000001643   -0.000028172
      6        6          -0.000006913   -0.000003707   -0.000008492
      7        1          -0.000002107    0.000003946   -0.000001789
      8        6           0.000027871   -0.000019617    0.000066164
      9        1          -0.000008812    0.000003530   -0.000009386
 -------------------------------------------------------------------
 Cartesian Forces:  Max     0.000066164 RMS     0.000017661
 Z-matrix is all fixed cartesians, so copy forces.
 Force constants in Cartesian coordinates: 
                1             2             3             4             5 
      1  0.411192D+00
      2  0.571510D-02  0.159465D+00
      3  0.196600D-01 -0.380650D-02  0.300205D+00
      4 -0.376814D-01  0.951522D-03 -0.200930D-01  0.400133D-01
      5  0.346677D-02 -0.261276D-01  0.682713D-02 -0.189647D-02  0.265629D-01
      6 -0.373431D-01  0.886680D-02 -0.194059D+00  0.360954D-01 -0.940527D-02
      7 -0.128227D+00  0.844069D-03  0.425886D-01  0.960115D-02 -0.837704D-03
      8 -0.278799D-02 -0.154554D-01  0.188915D-02 -0.306357D-03  0.137065D-02
      9  0.490703D-01 -0.496012D-03 -0.303637D-01  0.854988D-02  0.136962D-02
     10 -0.864852D-01 -0.431831D-01 -0.196045D-01 -0.520377D-02 -0.632170D-02
     11 -0.282217D-01 -0.577990D-01 -0.287846D-01 -0.611016D-03 -0.280053D-03
     12 -0.895680D-02 -0.897231D-02 -0.441472D-01 -0.160990D-01 -0.154566D-01
     13  0.628262D-02 -0.383621D-03  0.279444D-02  0.740739D-03  0.229540D-03
     14  0.187613D-02 -0.889440D-03 -0.128391D-02  0.274491D-03  0.109074D-02
     15 -0.515586D-02 -0.542444D-03 -0.535637D-02 -0.181245D-02 -0.529503D-04
     16 -0.716254D-01  0.875758D-02 -0.605357D-02 -0.491623D-02  0.537557D-02
     17  0.387450D-01 -0.762937D-01  0.230505D-01  0.204011D-02  0.753733D-03
     18  0.502886D-02 -0.105887D-02 -0.755680D-01 -0.166250D-01  0.210002D-01
     19 -0.329635D-02  0.189526D-01 -0.298762D-02 -0.161099D-03  0.497945D-03
     20 -0.743504D-02  0.348111D-02  0.294646D-02  0.510114D-03 -0.632750D-03
     21 -0.249382D-02  0.188285D-02  0.139285D-01  0.167056D-03 -0.245810D-02
     22 -0.945241D-01  0.903714D-02 -0.168016D-01 -0.279733D-02 -0.881344D-03
     23 -0.109649D-01  0.909831D-02 -0.240195D-02 -0.992446D-03 -0.144819D-02
     24 -0.266169D-01  0.305408D-02  0.373772D-01  0.109815D-01 -0.177847D-02
     25  0.436556D-02 -0.691302D-03  0.497296D-03  0.404660D-03  0.367399D-03
     26 -0.393358D-03  0.452073D-02  0.156378D-02  0.300585D-04 -0.128941D-02
     27  0.680738D-02  0.107242D-02 -0.201597D-02 -0.116431D-02 -0.456212D-04
                6             7             8             9            10 
      6  0.215174D+00
      7  0.130821D-01  0.156699D+00
      8  0.101553D-02  0.403118D-02  0.135680D-01
      9 -0.168897D-01 -0.566297D-01 -0.204049D-02  0.426124D-01
     10 -0.920744D-02 -0.203063D-01 -0.872011D-02  0.486326D-03  0.259791D+00
     11 -0.442826D-02 -0.105419D-01 -0.709857D-03  0.305391D-02 -0.541075D-01
     12 -0.310896D-02  0.340622D-02  0.332850D-02 -0.496973D-03  0.256974D-01
     13 -0.290815D-02 -0.598785D-02 -0.609987D-04  0.258193D-02 -0.174051D-01
     14 -0.285736D-03 -0.732475D-03 -0.243591D-03  0.401422D-03  0.807802D-02
     15  0.156917D-02  0.291383D-02  0.520485D-04 -0.139682D-02 -0.446042D-02
     16 -0.746916D-02 -0.204115D-01  0.495203D-02  0.233028D-02  0.496988D-01
     17  0.341599D-02  0.297674D-02 -0.224666D-03 -0.388084D-03  0.407498D-02
     18 -0.123498D-02  0.126042D-02 -0.546255D-02  0.240675D-03  0.460144D-02
     19 -0.640499D-05  0.309627D-02  0.191591D-02 -0.190533D-02 -0.381627D-02
     20  0.101369D-02  0.474787D-02  0.855663D-03 -0.193608D-02 -0.114465D-04
     21  0.223097D-03  0.101565D-02  0.555883D-03 -0.741971D-04 -0.151016D-03
     22  0.109602D-01  0.100040D-01  0.108728D-02 -0.631339D-02 -0.159780D+00
     23 -0.878379D-05 -0.390542D-03  0.132200D-03 -0.323359D-04  0.947958D-01
     24 -0.123375D-02 -0.598287D-02  0.675298D-03  0.559774D-02 -0.123114D-02
     25 -0.320334D-02 -0.446711D-02 -0.110944D-03  0.182973D-02 -0.164939D-01
     26 -0.183960D-03 -0.971997D-04  0.706994D-03  0.680430D-04  0.539505D-02
     27 -0.439989D-03 -0.165427D-02 -0.133703D-04  0.770592D-03  0.386940D-02
               11            12            13            14            15 
     11  0.255479D+00
     12  0.497311D-01  0.643621D-01
     13  0.108982D-01  0.361974D-02  0.114502D+00
     14  0.356828D-02 -0.766551D-02  0.984532D-02  0.238959D-01
     15 -0.293940D-02  0.943172D-03 -0.953112D-01 -0.951403D-02  0.108727D+00
     16  0.136684D-01  0.864153D-02 -0.166087D-01 -0.965804D-02 -0.745575D-02
     17 -0.874638D-01 -0.237434D-01 -0.114604D-01  0.272063D-02  0.215989D-02
     18 -0.142803D-01  0.208105D-01  0.226256D-02  0.163321D-01  0.166234D-02
     19 -0.525369D-02 -0.133340D-02  0.199567D-03  0.284372D-03  0.201084D-03
     20 -0.182929D-02 -0.388579D-03 -0.215040D-02 -0.878734D-03  0.654020D-03
     21  0.154033D-01 -0.143329D-02 -0.387127D-04 -0.366658D-02  0.300195D-03
     22  0.630966D-01 -0.818708D-02 -0.797494D-01 -0.939641D-02  0.111702D+00
     23 -0.113804D+00 -0.810414D-02 -0.647583D-02 -0.334258D-01  0.866586D-02
     24 -0.199603D-01 -0.383165D-01  0.882343D-01  0.337299D-02 -0.804753D-01
     25  0.110727D-01 -0.678855D-02 -0.197352D-02 -0.571401D-03 -0.621518D-03
     26  0.283812D-02  0.112709D-01 -0.441852D-03  0.416201D-02  0.151701D-02
     27  0.220458D-02  0.138704D-02 -0.123497D-02  0.230924D-02 -0.259739D-01
               16            17            18            19            20 
     16  0.266930D+00
     17  0.495698D-01  0.584475D+00
     18  0.504038D-02 -0.544043D-01  0.190025D+00
     19 -0.467108D-01 -0.537288D-02  0.151494D-02  0.413075D-01
     20 -0.310976D-02 -0.283658D+00  0.451447D-01  0.437079D-02  0.280307D+00
     21  0.684314D-02  0.441380D-01 -0.585310D-01  0.207761D-02 -0.503334D-01
     22 -0.141140D+00 -0.710320D-01  0.646619D-02  0.905120D-02  0.474914D-02
     23 -0.634703D-01 -0.142640D+00  0.898748D-02 -0.147828D-01  0.143681D-02
     24 -0.659828D-02  0.640365D-02 -0.773335D-01  0.238269D-02  0.358267D-02
     25 -0.152164D-01 -0.954130D-02 -0.954975D-02  0.329963D-03 -0.167127D-02
     26 -0.608524D-02  0.233059D-02 -0.162585D-01 -0.612248D-03  0.919065D-03
     27  0.472143D-02 -0.632282D-03 -0.709313D-04  0.564269D-04 -0.683449D-03
               21            22            23            24            25 
     21  0.285188D-01
     22 -0.893958D-02  0.537993D+00
     23 -0.747037D-02 -0.173671D-02  0.326471D+00
     24  0.164674D-01  0.211736D-01  0.217873D-02  0.242504D+00
     25  0.151967D-02 -0.790576D-01  0.401762D-02 -0.823429D-01  0.112108D+00
     26  0.194844D-02  0.507631D-02 -0.458212D-01  0.247134D-02 -0.287152D-02
     27  0.600509D-03 -0.110060D+00 -0.181449D-02 -0.104587D+00  0.986594D-01
               26            27 
     26  0.316331D-01
     27 -0.239703D-02  0.130330D+00
 Leave Link  716 at Mon Jun 20 11:29:25 2016, MaxMem=    33554432 cpu:         0.1
 (Enter /home/proyectos/fulerenos/M3C-v1.9/M3C-deps_CCC/g09-AM64L-G09RevC.01/l103.exe)

 GradGradGradGradGradGradGradGradGradGradGradGradGradGradGradGradGradGrad
 Berny optimization.
 Search for a local minimum.
 Step number   1 out of a maximum of    2
 All quantities printed in internal units (Hartrees-Bohrs-Radians)
 Second derivative matrix not updated -- analytic derivatives used.
 ITU=  0
     Eigenvalues ---    0.00179   0.01341   0.01651   0.02662   0.03056
     Eigenvalues ---    0.03538   0.03808   0.04827   0.06236   0.12526
     Eigenvalues ---    0.13248   0.17436   0.20356   0.25844   0.27123
     Eigenvalues ---    0.37797   0.44405   0.48636   0.53341   0.70111
     Eigenvalues ---    0.85707
 Angle between quadratic step and forces=  69.98 degrees.
 Linear search not attempted -- first point.
 B after Tr=     0.000012   -0.000071    0.000122
         Rot=    1.000000    0.000037   -0.000059    0.000008 Ang=   0.01 deg.
 Variable       Old X    -DE/DX   Delta X   Delta X   Delta X     New X
                                 (Linear)    (Quad)   (Total)
    X1        1.41914   0.00002   0.00000   0.00027   0.00035   1.41949
    Y1       -0.09410   0.00000   0.00000   0.00006   0.00001  -0.09409
    Z1        0.54396  -0.00000   0.00000  -0.00013  -0.00017   0.54379
    X2        1.91385   0.00000   0.00000   0.00098   0.00131   1.91516
    Y2       -0.20446  -0.00000   0.00000   0.00038   0.00048  -0.20398
    Z2        2.66528   0.00000   0.00000  -0.00027  -0.00036   2.66491
    X3        4.05260   0.00001   0.00000  -0.00011  -0.00017   4.05243
    Y3       -0.03543  -0.00000   0.00000  -0.00015  -0.00033  -0.03576
    Z3       -0.59234  -0.00000   0.00000  -0.00091  -0.00127  -0.59360
    X4       -0.68448  -0.00003   0.00000  -0.00008  -0.00012  -0.68460
    Y4       -1.98567   0.00002   0.00000  -0.00015  -0.00022  -1.98589
    Z4       -0.15392  -0.00002   0.00000   0.00098   0.00133  -0.15259
    X5       -4.34449  -0.00001   0.00000  -0.00271  -0.00254  -4.34703
    Y5       -0.35767   0.00000   0.00000   0.00035   0.00045  -0.35722
    Z5        1.35876  -0.00003   0.00000  -0.00254  -0.00187   1.35688
    X6       -0.80951  -0.00001   0.00000  -0.00007  -0.00002  -0.80953
    Y6        1.76960  -0.00000   0.00000   0.00002  -0.00004   1.76956
    Z6        0.03079  -0.00001   0.00000   0.00048   0.00056   0.03135
    X7       -0.79255  -0.00000   0.00000  -0.00036  -0.00033  -0.79288
    Y7        3.84274   0.00000   0.00000   0.00013   0.00004   3.84278
    Z7       -0.36486  -0.00000   0.00000   0.00102   0.00095  -0.36391
    X8       -2.74701   0.00003   0.00000   0.00023   0.00022  -2.74679
    Y8       -0.19038  -0.00002   0.00000  -0.00007  -0.00011  -0.19049
    Z8       -0.14377   0.00007   0.00000   0.00072   0.00118  -0.14259
    X9       -4.24695  -0.00001   0.00000   0.00150   0.00130  -4.24564
    Y9       -0.16112   0.00000   0.00000  -0.00016  -0.00029  -0.16141
    Z9       -1.72893  -0.00001   0.00000  -0.00099  -0.00035  -1.72928
         Item               Value     Threshold  Converged?
 Maximum Force            0.000066     0.000450     YES
 RMS     Force            0.000018     0.000300     YES
 Maximum Displacement     0.002538     0.001800     NO 
 RMS     Displacement     0.000875     0.001200     YES
 Predicted change in Energy=-7.523426D-08
 GradGradGradGradGradGradGradGradGradGradGradGradGradGradGradGradGradGrad

 Leave Link  103 at Mon Jun 20 11:29:25 2016, MaxMem=    33554432 cpu:         0.1
 (Enter /home/proyectos/fulerenos/M3C-v1.9/M3C-deps_CCC/g09-AM64L-G09RevC.01/l9999.exe)
 1\1\GINC-BELVIS17\Freq\UB3LYP\6-311++G(3df,2p)\C5H4(3+,2)\ROOT\20-Jun-
 2016\0\\#p b3lyp/6-311++G(3df,2p) freq symmetry=Loose\\b3lyp opt\\3,2\
 C,0.750977,-0.049794,0.287852\H,1.012766,-0.108197,1.410404\C,2.144544
 ,-0.01875,-0.313451\C,-0.362212,-1.050771,-0.081451\H,-2.299006,-0.189
 271,0.719024\C,-0.428373,0.936433,0.016293\H,-0.419398,2.03349,-0.1930
 76\C,-1.453657,-0.100746,-0.076081\H,-2.247387,-0.085263,-0.91491\\Ver
 sion=EM64L-G09RevE.01\State=2-A\HF=-190.9518764\S2=0.75969\S2-1=0.\S2A
 =0.750067\RMSD=5.155e-09\RMSF=1.766e-05\ZeroPoint=0.0536267\Thermal=0.
 058977\Dipole=-0.3302932,0.4211788,0.2400532\DipoleDeriv=-1.8271377,0.
 0673682,0.1878693,-0.1001098,0.2472119,-0.0067283,0.3198706,-0.0073144
 ,-0.1337633,0.2013465,-0.006603,0.088793,-0.0111142,0.2370068,-0.00805
 71,0.1663493,-0.0203335,0.6591954,2.0917873,0.0021364,-0.4426882,0.009
 4049,0.4505298,-0.0138694,-0.6966879,-0.0069621,0.6973399,1.0558567,-0
 .0364755,0.1112165,-0.055026,0.7987171,0.0769122,0.1122,0.0417648,0.39
 40775,0.9682498,0.0542221,-0.1579006,0.051537,0.27211,-0.0042342,-0.20
 61687,-0.027332,0.4832319,0.8940092,0.0256722,0.063209,0.1473763,0.339
 4611,0.0004954,0.168702,0.1054912,0.4855957,0.1645019,-0.0037542,0.004
 6408,-0.0632878,0.6388479,-0.050202,-0.0232749,-0.0471494,0.1786219,-1
 .4091715,-0.1335185,-0.0869809,0.0104098,-0.1938677,0.0162936,-0.05198
 5,-0.0412032,-0.2333425,0.8605578,0.0309524,0.2318411,0.0108097,0.2099
 832,-0.0106101,0.2109946,0.0030387,0.4690435\Polar=64.8196278,0.596837
 6,37.3801517,1.0423613,-0.2374116,29.9355228\PG=C01 [X(C5H4)]\NImag=0\
 \0.41119171,0.00571510,0.15946493,0.01966000,-0.00380650,0.30020488,-0
 .03768144,0.00095152,-0.02009304,0.04001332,0.00346677,-0.02612759,0.0
 0682713,-0.00189647,0.02656286,-0.03734310,0.00886680,-0.19405936,0.03
 609537,-0.00940527,0.21517442,-0.12822732,0.00084407,0.04258864,0.0096
 0115,-0.00083770,0.01308207,0.15669868,-0.00278799,-0.01545538,0.00188
 915,-0.00030636,0.00137065,0.00101553,0.00403118,0.01356798,0.04907027
 ,-0.00049601,-0.03036373,0.00854988,0.00136962,-0.01688966,-0.05662969
 ,-0.00204049,0.04261238,-0.08648524,-0.04318307,-0.01960451,-0.0052037
 7,-0.00632170,-0.00920744,-0.02030635,-0.00872011,0.00048633,0.2597914
 4,-0.02822170,-0.05779897,-0.02878462,-0.00061102,-0.00028005,-0.00442
 826,-0.01054193,-0.00070986,0.00305391,-0.05410754,0.25547905,-0.00895
 680,-0.00897231,-0.04414718,-0.01609902,-0.01545657,-0.00310896,0.0034
 0622,0.00332850,-0.00049697,0.02569737,0.04973110,0.06436212,0.0062826
 2,-0.00038362,0.00279444,0.00074074,0.00022954,-0.00290815,-0.00598785
 ,-0.00006100,0.00258193,-0.01740507,0.01089821,0.00361974,0.11450158,0
 .00187613,-0.00088944,-0.00128391,0.00027449,0.00109074,-0.00028574,-0
 .00073248,-0.00024359,0.00040142,0.00807802,0.00356828,-0.00766551,0.0
 0984532,0.02389591,-0.00515586,-0.00054244,-0.00535637,-0.00181245,-0.
 00005295,0.00156917,0.00291383,0.00005205,-0.00139682,-0.00446042,-0.0
 0293940,0.00094317,-0.09531116,-0.00951403,0.10872745,-0.07162543,0.00
 875758,-0.00605357,-0.00491623,0.00537557,-0.00746916,-0.02041151,0.00
 495203,0.00233028,0.04969885,0.01366835,0.00864153,-0.01660871,-0.0096
 5804,-0.00745575,0.26693013,0.03874496,-0.07629369,0.02305047,0.002040
 11,0.00075373,0.00341599,0.00297674,-0.00022467,-0.00038808,0.00407498
 ,-0.08746377,-0.02374339,-0.01146038,0.00272063,0.00215989,0.04956980,
 0.58447548,0.00502886,-0.00105887,-0.07556800,-0.01662504,0.02100024,-
 0.00123498,0.00126042,-0.00546255,0.00024068,0.00460144,-0.01428029,0.
 02081053,0.00226256,0.01633212,0.00166234,0.00504038,-0.05440426,0.190
 02482,-0.00329635,0.01895258,-0.00298762,-0.00016110,0.00049794,-0.000
 00640,0.00309627,0.00191591,-0.00190533,-0.00381627,-0.00525369,-0.001
 33340,0.00019957,0.00028437,0.00020108,-0.04671079,-0.00537288,0.00151
 494,0.04130751,-0.00743504,0.00348111,0.00294646,0.00051011,-0.0006327
 5,0.00101369,0.00474787,0.00085566,-0.00193608,-0.00001145,-0.00182929
 ,-0.00038858,-0.00215040,-0.00087873,0.00065402,-0.00310976,-0.2836584
 2,0.04514466,0.00437079,0.28030654,-0.00249382,0.00188285,0.01392850,0
 .00016706,-0.00245810,0.00022310,0.00101565,0.00055588,-0.00007420,-0.
 00015102,0.01540326,-0.00143329,-0.00003871,-0.00366658,0.00030020,0.0
 0684314,0.04413801,-0.05853098,0.00207761,-0.05033339,0.02851876,-0.09
 452410,0.00903714,-0.01680165,-0.00279733,-0.00088134,0.01096017,0.010
 00403,0.00108728,-0.00631339,-0.15977969,0.06309661,-0.00818708,-0.079
 74936,-0.00939641,0.11170225,-0.14113988,-0.07103201,0.00646619,0.0090
 5120,0.00474914,-0.00893958,0.53799275,-0.01096486,0.00909831,-0.00240
 195,-0.00099245,-0.00144819,-0.00000878,-0.00039054,0.00013220,-0.0000
 3234,0.09479582,-0.11380350,-0.00810414,-0.00647583,-0.03342581,0.0086
 6586,-0.06347029,-0.14263989,0.00898748,-0.01478277,0.00143681,-0.0074
 7037,-0.00173671,0.32647128,-0.02661693,0.00305408,0.03737722,0.010981
 55,-0.00177847,-0.00123375,-0.00598287,0.00067530,0.00559774,-0.001231
 14,-0.01996029,-0.03831647,0.08823433,0.00337299,-0.08047527,-0.006598
 28,0.00640365,-0.07733348,0.00238269,0.00358267,0.01646741,0.02117359,
 0.00217873,0.24250387,0.00436556,-0.00069130,0.00049730,0.00040466,0.0
 0036740,-0.00320334,-0.00446711,-0.00011094,0.00182973,-0.01649390,0.0
 1107272,-0.00678855,-0.00197352,-0.00057140,-0.00062152,-0.01521644,-0
 .00954130,-0.00954975,0.00032996,-0.00167127,0.00151967,-0.07905764,0.
 00401762,-0.08234294,0.11210842,-0.00039336,0.00452073,0.00156378,0.00
 003006,-0.00128941,-0.00018396,-0.00009720,0.00070699,0.00006804,0.005
 39505,0.00283812,0.01127089,-0.00044185,0.00416201,0.00151701,-0.00608
 524,0.00233059,-0.01625852,-0.00061225,0.00091906,0.00194844,0.0050763
 1,-0.04582122,0.00247134,-0.00287152,0.03163312,0.00680738,0.00107242,
 -0.00201597,-0.00116431,-0.00004562,-0.00043999,-0.00165427,-0.0000133
 7,0.00077059,0.00386940,0.00220458,0.00138704,-0.00123497,0.00230924,-
 0.02597387,0.00472143,-0.00063228,-0.00007093,0.00005643,-0.00068345,0
 .00060051,-0.11006049,-0.00181449,-0.10458727,0.09865940,-0.00239703,0
 .13032989\\-0.00001795,-0.00000126,0.00000327,-0.00000208,0.00000144,-
 0.00000271,-0.00000890,0.00000157,0.00000228,0.00002505,-0.00001595,0.
 00001549,0.00001392,-0.00000164,0.00002817,0.00000691,0.00000371,0.000
 00849,0.00000211,-0.00000395,0.00000179,-0.00002787,0.00001962,-0.0000
 6616,0.00000881,-0.00000353,0.00000939\\\@


 THEORY:  SUPPOSITION WHICH HAS SCIENTIFIC BASIS,
          BUT NOT EXPERIMENTALLY PROVEN.
 FACT:    A THEORY WHICH HAS BEEN PROVEN BY ENOUGH 
          MONEY TO PAY FOR THE EXPERIMENTS.

                          --  THE WIZARD OF ID
 Job cpu time:       0 days  1 hours 21 minutes 53.5 seconds.
 File lengths (MBytes):  RWF=     79 Int=      0 D2E=      0 Chk=      5 Scr=      1
 Normal termination of Gaussian 09 at Mon Jun 20 11:29:25 2016.
