 Entering Gaussian System, Link 0=/home/proyectos/fulerenos/M3C-v2.0/M3C-deps_CCC/g09-AM64L-G09RevC.01/g09
 Initial command:
 /home/proyectos/fulerenos/M3C-v2.0/M3C-deps_CCC/g09-AM64L-G09RevC.01/l1.exe "/scratch/naguirre/gaussian/Gau-28868.inp" -scrdir="/scratch/naguirre/gaussian/"
 Entering Link 1 = /home/proyectos/fulerenos/M3C-v2.0/M3C-deps_CCC/g09-AM64L-G09RevC.01/l1.exe PID=     28871.
  
 Copyright (c) 1988,1990,1992,1993,1995,1998,2003,2009,2015,
            Gaussian, Inc.  All Rights Reserved.
  
 This is part of the Gaussian(R) 09 program.  It is based on
 the Gaussian(R) 03 system (copyright 2003, Gaussian, Inc.),
 the Gaussian(R) 98 system (copyright 1998, Gaussian, Inc.),
 the Gaussian(R) 94 system (copyright 1995, Gaussian, Inc.),
 the Gaussian 92(TM) system (copyright 1992, Gaussian, Inc.),
 the Gaussian 90(TM) system (copyright 1990, Gaussian, Inc.),
 the Gaussian 88(TM) system (copyright 1988, Gaussian, Inc.),
 the Gaussian 86(TM) system (copyright 1986, Carnegie Mellon
 University), and the Gaussian 82(TM) system (copyright 1983,
 Carnegie Mellon University). Gaussian is a federally registered
 trademark of Gaussian, Inc.
  
 This software contains proprietary and confidential information,
 including trade secrets, belonging to Gaussian, Inc.
  
 This software is provided under written license and may be
 used, copied, transmitted, or stored only in accord with that
 written license.
  
 The following legend is applicable only to US Government
 contracts under FAR:
  
                    RESTRICTED RIGHTS LEGEND
  
 Use, reproduction and disclosure by the US Government is
 subject to restrictions as set forth in subparagraphs (a)
 and (c) of the Commercial Computer Software - Restricted
 Rights clause in FAR 52.227-19.
  
 Gaussian, Inc.
 340 Quinnipiac St., Bldg. 40, Wallingford CT 06492
  
  
 ---------------------------------------------------------------
 Warning -- This program may not be used in any manner that
 competes with the business of Gaussian, Inc. or will provide
 assistance to any competitor of Gaussian, Inc.  The licensee
 of this program is prohibited from giving any competitor of
 Gaussian, Inc. access to this program.  By using this program,
 the user acknowledges that Gaussian, Inc. is engaged in the
 business of creating and licensing software in the field of
 computational chemistry and represents and warrants to the
 licensee that it is not a competitor of Gaussian, Inc. and that
 it will not use this program in any manner prohibited above.
 ---------------------------------------------------------------
  

 Cite this work as:
 Gaussian 09, Revision E.01,
 M. J. Frisch, G. W. Trucks, H. B. Schlegel, G. E. Scuseria, 
 M. A. Robb, J. R. Cheeseman, G. Scalmani, V. Barone, B. Mennucci, 
 G. A. Petersson, H. Nakatsuji, M. Caricato, X. Li, H. P. Hratchian, 
 A. F. Izmaylov, J. Bloino, G. Zheng, J. L. Sonnenberg, M. Hada, 
 M. Ehara, K. Toyota, R. Fukuda, J. Hasegawa, M. Ishida, T. Nakajima, 
 Y. Honda, O. Kitao, H. Nakai, T. Vreven, J. A. Montgomery, Jr., 
 J. E. Peralta, F. Ogliaro, M. Bearpark, J. J. Heyd, E. Brothers, 
 K. N. Kudin, V. N. Staroverov, T. Keith, R. Kobayashi, J. Normand, 
 K. Raghavachari, A. Rendell, J. C. Burant, S. S. Iyengar, J. Tomasi, 
 M. Cossi, N. Rega, J. M. Millam, M. Klene, J. E. Knox, J. B. Cross, 
 V. Bakken, C. Adamo, J. Jaramillo, R. Gomperts, R. E. Stratmann, 
 O. Yazyev, A. J. Austin, R. Cammi, C. Pomelli, J. W. Ochterski, 
 R. L. Martin, K. Morokuma, V. G. Zakrzewski, G. A. Voth, 
 P. Salvador, J. J. Dannenberg, S. Dapprich, A. D. Daniels, 
 O. Farkas, J. B. Foresman, J. V. Ortiz, J. Cioslowski, 
 and D. J. Fox, Gaussian, Inc., Wallingford CT, 2013.
 
 ******************************************
 Gaussian 09:  EM64L-G09RevE.01 30-Nov-2015
                19-Jul-2016 
 ******************************************
 %NProcShared=1
 Will use up to    1 processors via shared memory.
 ---------------------------------------------
 #p b3lyp/6-311++G(3df,2p) freq symmetry=Loose
 ---------------------------------------------
 1/10=4,30=1,38=1/1,3;
 2/12=2,17=4,18=3,40=1/2;
 3/5=4,6=6,7=1216,11=2,16=1,25=1,30=1,71=2,74=-5,140=1/1,2,3;
 4//1;
 5/5=2,38=5,98=1/2;
 8/6=4,10=90,11=11/1;
 11/6=1,8=1,9=11,15=111,16=1/1,2,10;
 10/6=1/2;
 6/7=2,8=2,9=2,10=2,18=1,28=1/1;
 7/8=1,10=1,25=1/1,2,3,16;
 1/10=4,30=1/3;
 99//99;
 Leave Link    1 at Tue Jul 19 21:08:12 2016, MaxMem=           0 cpu:         0.1
 (Enter /home/proyectos/fulerenos/M3C-v2.0/M3C-deps_CCC/g09-AM64L-G09RevC.01/l101.exe)
 ---------
 b3lyp opt
 ---------
 Symbolic Z-matrix:
 Charge =  2 Multiplicity = 1
 C                     1.79042   0.00009  -0.11102 
 H                     2.34392  -0.93833  -0.13626 
 H                     2.34381   0.93856  -0.1366 
 C                     0.41171   0.00004   0.08542 
 C                    -0.66483   0.97503   0.18495 
 H                    -0.88901   1.9107    0.70481 
 C                    -0.66472  -0.97503   0.18531 
 H                    -0.88879  -1.91054   0.7055 
 C                    -1.35758  -0.00017  -0.53424 
 
 NAtoms=      9 NQM=        9 NQMF=       0 NMMI=      0 NMMIF=      0
                NMic=       0 NMicF=      0.
                    Isotopes and Nuclear Properties:
 (Nuclear quadrupole moments (NQMom) in fm**2, nuclear magnetic moments (NMagM)
  in nuclear magnetons)

  Atom         1           2           3           4           5           6           7           8           9
 IAtWgt=          12           1           1          12          12           1          12           1          12
 AtmWgt=  12.0000000   1.0078250   1.0078250  12.0000000  12.0000000   1.0078250  12.0000000   1.0078250  12.0000000
 NucSpn=           0           1           1           0           0           1           0           1           0
 AtZEff=   0.0000000   0.0000000   0.0000000   0.0000000   0.0000000   0.0000000   0.0000000   0.0000000   0.0000000
 NQMom=    0.0000000   0.0000000   0.0000000   0.0000000   0.0000000   0.0000000   0.0000000   0.0000000   0.0000000
 NMagM=    0.0000000   2.7928460   2.7928460   0.0000000   0.0000000   2.7928460   0.0000000   2.7928460   0.0000000
 AtZNuc=   6.0000000   1.0000000   1.0000000   6.0000000   6.0000000   1.0000000   6.0000000   1.0000000   6.0000000
 Leave Link  101 at Tue Jul 19 21:08:12 2016, MaxMem=    33554432 cpu:         0.3
 (Enter /home/proyectos/fulerenos/M3C-v2.0/M3C-deps_CCC/g09-AM64L-G09RevC.01/l103.exe)

 GradGradGradGradGradGradGradGradGradGradGradGradGradGradGradGradGradGrad
 Berny optimization.
 Initialization pass.
 Trust Radius=3.00D-01 FncErr=1.00D-07 GrdErr=1.00D-07
 Number of steps in this run=      2 maximum allowed number of steps=      2.
 GradGradGradGradGradGradGradGradGradGradGradGradGradGradGradGradGradGrad

 Leave Link  103 at Tue Jul 19 21:08:12 2016, MaxMem=    33554432 cpu:         0.1
 (Enter /home/proyectos/fulerenos/M3C-v2.0/M3C-deps_CCC/g09-AM64L-G09RevC.01/l202.exe)
                          Input orientation:                          
 ---------------------------------------------------------------------
 Center     Atomic      Atomic             Coordinates (Angstroms)
 Number     Number       Type             X           Y           Z
 ---------------------------------------------------------------------
      1          6           0        1.790421    0.000088   -0.111018
      2          1           0        2.343920   -0.938325   -0.136262
      3          1           0        2.343813    0.938556   -0.136601
      4          6           0        0.411711    0.000045    0.085421
      5          6           0       -0.664827    0.975028    0.184953
      6          1           0       -0.889013    1.910702    0.704809
      7          6           0       -0.664715   -0.975025    0.185306
      8          1           0       -0.888794   -1.910537    0.705501
      9          6           0       -1.357578   -0.000169   -0.534237
 ---------------------------------------------------------------------
                    Distance matrix (angstroms):
                    1          2          3          4          5
     1  C    0.000000
     2  H    1.089779   0.000000
     3  H    1.089779   1.876881   0.000000
     4  C    1.392634   2.159424   2.159424   0.000000
     5  C    2.658260   3.580036   3.025994   1.455827   0.000000
     6  H    3.390484   4.390468   3.479109   2.392934   1.093616
     7  C    2.658260   3.025994   3.580036   1.455827   1.950053
     8  H    3.390484   3.479109   4.390468   2.392934   2.940683
     9  C    3.176320   3.839220   3.839220   1.874662   1.395760
                    6          7          8          9
     6  H    0.000000
     7  C    2.940683   0.000000
     8  H    3.821239   1.093616   0.000000
     9  C    2.325127   1.395760   2.325127   0.000000
 Stoichiometry    C5H4(2+)
 Framework group  C1[X(C5H4)]
 Deg. of freedom    21
 Full point group                 C1      NOp   1
 Largest Abelian subgroup         C1      NOp   1
 Largest concise Abelian subgroup C1      NOp   1
                         Standard orientation:                         
 ---------------------------------------------------------------------
 Center     Atomic      Atomic             Coordinates (Angstroms)
 Number     Number       Type             X           Y           Z
 ---------------------------------------------------------------------
      1          6           0       -1.790421   -0.000020    0.111018
      2          1           0       -2.343867   -0.938465    0.136262
      3          1           0       -2.343867    0.938416    0.136601
      4          6           0       -0.411711    0.000015   -0.085421
      5          6           0        0.664771    0.975060   -0.184953
      6          1           0        0.888903    1.910747   -0.704809
      7          6           0        0.664771   -0.974993   -0.185306
      8          1           0        0.888903   -1.910492   -0.705501
      9          6           0        1.357578   -0.000097    0.534237
 ---------------------------------------------------------------------
 Rotational constants (GHZ):     13.5089601      5.5376497      4.2919455
 Leave Link  202 at Tue Jul 19 21:08:12 2016, MaxMem=    33554432 cpu:         0.0
 (Enter /home/proyectos/fulerenos/M3C-v2.0/M3C-deps_CCC/g09-AM64L-G09RevC.01/l301.exe)
 Standard basis: 6-311++G(3df,2p) (5D, 7F)
 Ernie: Thresh=  0.10000D-02 Tol=  0.10000D-05 Strict=F.
 There are   265 symmetry adapted cartesian basis functions of A   symmetry.
 There are   235 symmetry adapted basis functions of A   symmetry.
   235 basis functions,   338 primitive gaussians,   265 cartesian basis functions
    16 alpha electrons       16 beta electrons
       nuclear repulsion energy       137.8931763428 Hartrees.
 IExCor=  402 DFT=T Ex+Corr=B3LYP ExCW=0 ScaHFX=  0.200000
 ScaDFX=  0.800000  0.720000  1.000000  0.810000 ScalE2=  1.000000  1.000000
 IRadAn=      0 IRanWt=     -1 IRanGd=            0 ICorTp=0 IEmpDi=  4
 NAtoms=    9 NActive=    9 NUniq=    9 SFac= 1.00D+00 NAtFMM=   60 NAOKFM=F Big=F
 Integral buffers will be    131072 words long.
 Raffenetti 2 integral format.
 Two-electron integral symmetry is turned on.
 Leave Link  301 at Tue Jul 19 21:08:13 2016, MaxMem=    33554432 cpu:         0.2
 (Enter /home/proyectos/fulerenos/M3C-v2.0/M3C-deps_CCC/g09-AM64L-G09RevC.01/l302.exe)
 NPDir=0 NMtPBC=     1 NCelOv=     1 NCel=       1 NClECP=     1 NCelD=      1
         NCelK=      1 NCelE2=     1 NClLst=     1 CellRange=     0.0.
 One-electron integrals computed using PRISM.
 NBasis=   235 RedAO= T EigKep=  1.15D-05  NBF=   235
 NBsUse=   235 1.00D-06 EigRej= -1.00D+00 NBFU=   235
 Precomputing XC quadrature grid using
 IXCGrd= 4 IRadAn=           0 IRanWt=          -1 IRanGd=           0 AccXCQ= 0.00D+00.
 Generated NRdTot=       0 NPtTot=           0 NUsed=           0 NTot=          32
 NSgBfM=   265   265   265   265   265 MxSgAt=     9 MxSgA2=     9.
 Leave Link  302 at Tue Jul 19 21:08:14 2016, MaxMem=    33554432 cpu:         0.7
 (Enter /home/proyectos/fulerenos/M3C-v2.0/M3C-deps_CCC/g09-AM64L-G09RevC.01/l303.exe)
 DipDrv:  MaxL=1.
 Leave Link  303 at Tue Jul 19 21:08:15 2016, MaxMem=    33554432 cpu:         0.2
 (Enter /home/proyectos/fulerenos/M3C-v2.0/M3C-deps_CCC/g09-AM64L-G09RevC.01/l401.exe)
 ExpMin= 3.60D-02 ExpMax= 4.56D+03 ExpMxC= 6.82D+02 IAcc=3 IRadAn=         5 AccDes= 0.00D+00
 Harris functional with IExCor=  402 and IRadAn=       5 diagonalized for initial guess.
 HarFok:  IExCor=  402 AccDes= 0.00D+00 IRadAn=         5 IDoV= 1 UseB2=F ITyADJ=14
 ICtDFT=  3500011 ScaDFX=  1.000000  1.000000  1.000000  1.000000
 FoFCou: FMM=F IPFlag=           0 FMFlag=      100000 FMFlg1=           0
         NFxFlg=           0 DoJE=T BraDBF=F KetDBF=T FulRan=T
         wScrn=  0.000000 ICntrl=     500 IOpCl=  0 I1Cent=   200000004 NGrid=           0
         NMat0=    1 NMatS0=      1 NMatT0=    0 NMatD0=    1 NMtDS0=    0 NMtDT0=    0
 Petite list used in FoFCou.
 Harris En= -192.247290107631    
 JPrj=0 DoOrth=F DoCkMO=F.
 Leave Link  401 at Tue Jul 19 21:08:36 2016, MaxMem=    33554432 cpu:        12.8
 (Enter /home/proyectos/fulerenos/M3C-v2.0/M3C-deps_CCC/g09-AM64L-G09RevC.01/l502.exe)
 Closed shell SCF:
 Using DIIS extrapolation, IDIIS=  1040.
 Integral symmetry usage will be decided dynamically.
 IVT=      232727 IEndB=      232727 NGot=    33554432 MDV=    33408836
 LenX=    33408836 LenY=    33338170
 Requested convergence on RMS density matrix=1.00D-08 within 128 cycles.
 Requested convergence on MAX density matrix=1.00D-06.
 Requested convergence on             energy=1.00D-06.
 No special actions if energy rises.
 Fock matrices will be formed incrementally for  20 cycles.

 Cycle   1  Pass 1  IDiag  1:
 FoFJK:  IHMeth= 1 ICntrl=       0 DoSepK=F KAlg= 0 I1Cent=   0 FoldK=F
 IRaf= 990000000 NMat=   1 IRICut=       1 DoRegI=T DoRafI=F ISym2E= 0.
 FoFCou: FMM=F IPFlag=           0 FMFlag=      100000 FMFlg1=           0
         NFxFlg=           0 DoJE=F BraDBF=F KetDBF=F FulRan=T
         wScrn=  0.000000 ICntrl=       0 IOpCl=  0 I1Cent=           0 NGrid=           0
         NMat0=    1 NMatS0=      1 NMatT0=    0 NMatD0=    1 NMtDS0=    0 NMtDT0=    0
 Symmetry not used in FoFCou.
 E= -191.862727745816    
 DIIS: error= 2.54D-02 at cycle   1 NSaved=   1.
 NSaved= 1 IEnMin= 1 EnMin= -191.862727745816     IErMin= 1 ErrMin= 2.54D-02
 ErrMax= 2.54D-02  0.00D+00 EMaxC= 1.00D-01 BMatC= 5.83D-02 BMatP= 5.83D-02
 IDIUse=3 WtCom= 7.46D-01 WtEn= 2.54D-01
 Coeff-Com:  0.100D+01
 Coeff-En:   0.100D+01
 Coeff:      0.100D+01
 Gap=     0.088 Goal=   None    Shift=    0.000
 GapD=    0.088 DampG=0.500 DampE=0.500 DampFc=0.2500 IDamp=-1.
 Damping current iteration by 2.50D-01
 RMSDP=7.65D-03 MaxDP=5.77D-01              OVMax= 4.80D-01

 Cycle   2  Pass 1  IDiag  1:
 RMSU=  1.86D-03    CP:  1.04D+00
 E= -191.885854918368     Delta-E=       -0.023127172552 Rises=F Damp=T
 DIIS: error= 6.82D-03 at cycle   2 NSaved=   2.
 NSaved= 2 IEnMin= 2 EnMin= -191.885854918368     IErMin= 2 ErrMin= 6.82D-03
 ErrMax= 6.82D-03  0.00D+00 EMaxC= 1.00D-01 BMatC= 1.44D-02 BMatP= 5.83D-02
 IDIUse=3 WtCom= 9.32D-01 WtEn= 6.82D-02
 Coeff-Com: -0.928D-01 0.109D+01
 Coeff-En:   0.167D+00 0.833D+00
 Coeff:     -0.750D-01 0.108D+01
 Gap=     0.222 Goal=   None    Shift=    0.000
 RMSDP=2.58D-03 MaxDP=1.88D-01 DE=-2.31D-02 OVMax= 4.31D-01

 Cycle   3  Pass 1  IDiag  1:
 RMSU=  2.08D-03    CP:  1.15D+00  1.15D+00
 E= -191.922095393689     Delta-E=       -0.036240475321 Rises=F Damp=F
 DIIS: error= 8.80D-03 at cycle   3 NSaved=   3.
 NSaved= 3 IEnMin= 3 EnMin= -191.922095393689     IErMin= 2 ErrMin= 6.82D-03
 ErrMax= 8.80D-03  0.00D+00 EMaxC= 1.00D-01 BMatC= 1.26D-02 BMatP= 1.44D-02
 IDIUse=3 WtCom= 9.12D-01 WtEn= 8.80D-02
 Coeff-Com: -0.135D+00 0.599D+00 0.536D+00
 Coeff-En:   0.000D+00 0.000D+00 0.100D+01
 Coeff:     -0.123D+00 0.546D+00 0.577D+00
 Gap=     0.113 Goal=   None    Shift=    0.000
 RMSDP=1.17D-03 MaxDP=5.32D-02 DE=-3.62D-02 OVMax= 6.89D-02

 Cycle   4  Pass 1  IDiag  1:
 RMSU=  8.77D-04    CP:  1.13D+00  1.34D+00  6.92D-01
 E= -191.931180437961     Delta-E=       -0.009085044272 Rises=F Damp=F
 DIIS: error= 3.77D-03 at cycle   4 NSaved=   4.
 NSaved= 4 IEnMin= 4 EnMin= -191.931180437961     IErMin= 4 ErrMin= 3.77D-03
 ErrMax= 3.77D-03  0.00D+00 EMaxC= 1.00D-01 BMatC= 3.50D-03 BMatP= 1.26D-02
 IDIUse=3 WtCom= 9.62D-01 WtEn= 3.77D-02
 Coeff-Com: -0.302D-01 0.796D-01 0.345D+00 0.606D+00
 Coeff-En:   0.000D+00 0.000D+00 0.249D+00 0.751D+00
 Coeff:     -0.291D-01 0.766D-01 0.341D+00 0.611D+00
 Gap=     0.118 Goal=   None    Shift=    0.000
 RMSDP=3.69D-04 MaxDP=1.66D-02 DE=-9.09D-03 OVMax= 2.64D-02

 Cycle   5  Pass 1  IDiag  1:
 RMSU=  1.63D-04    CP:  1.13D+00  1.27D+00  7.65D-01  6.99D-01
 E= -191.934542930764     Delta-E=       -0.003362492803 Rises=F Damp=F
 DIIS: error= 4.73D-04 at cycle   5 NSaved=   5.
 NSaved= 5 IEnMin= 5 EnMin= -191.934542930764     IErMin= 5 ErrMin= 4.73D-04
 ErrMax= 4.73D-04  0.00D+00 EMaxC= 1.00D-01 BMatC= 4.08D-05 BMatP= 3.50D-03
 IDIUse=3 WtCom= 9.95D-01 WtEn= 4.73D-03
 Coeff-Com: -0.772D-02 0.901D-02 0.621D-01 0.171D+00 0.766D+00
 Coeff-En:   0.000D+00 0.000D+00 0.000D+00 0.000D+00 0.100D+01
 Coeff:     -0.769D-02 0.897D-02 0.618D-01 0.170D+00 0.767D+00
 Gap=     0.119 Goal=   None    Shift=    0.000
 RMSDP=9.30D-05 MaxDP=5.73D-03 DE=-3.36D-03 OVMax= 5.21D-03

 Cycle   6  Pass 1  IDiag  1:
 RMSU=  4.56D-05    CP:  1.13D+00  1.30D+00  7.49D-01  7.51D-01  9.95D-01
 E= -191.934578767125     Delta-E=       -0.000035836361 Rises=F Damp=F
 DIIS: error= 2.00D-04 at cycle   6 NSaved=   6.
 NSaved= 6 IEnMin= 6 EnMin= -191.934578767125     IErMin= 6 ErrMin= 2.00D-04
 ErrMax= 2.00D-04  0.00D+00 EMaxC= 1.00D-01 BMatC= 9.02D-06 BMatP= 4.08D-05
 IDIUse=3 WtCom= 9.98D-01 WtEn= 2.00D-03
 Coeff-Com:  0.404D-02-0.843D-02 0.663D-02 0.455D-01 0.373D+00 0.579D+00
 Coeff-En:   0.000D+00 0.000D+00 0.000D+00 0.000D+00 0.979D-01 0.902D+00
 Coeff:      0.403D-02-0.841D-02 0.662D-02 0.455D-01 0.372D+00 0.580D+00
 Gap=     0.119 Goal=   None    Shift=    0.000
 RMSDP=2.28D-05 MaxDP=1.42D-03 DE=-3.58D-05 OVMax= 8.85D-04

 Cycle   7  Pass 1  IDiag  1:
 RMSU=  1.33D-05    CP:  1.13D+00  1.29D+00  7.52D-01  7.44D-01  1.01D+00
                    CP:  7.84D-01
 E= -191.934587328281     Delta-E=       -0.000008561156 Rises=F Damp=F
 DIIS: error= 7.44D-05 at cycle   7 NSaved=   7.
 NSaved= 7 IEnMin= 7 EnMin= -191.934587328281     IErMin= 7 ErrMin= 7.44D-05
 ErrMax= 7.44D-05  0.00D+00 EMaxC= 1.00D-01 BMatC= 7.94D-07 BMatP= 9.02D-06
 IDIUse=1 WtCom= 1.00D+00 WtEn= 0.00D+00
 Coeff-Com:  0.515D-02-0.775D-02-0.604D-02-0.399D-02 0.556D-01 0.213D+00
 Coeff-Com:  0.744D+00
 Coeff:      0.515D-02-0.775D-02-0.604D-02-0.399D-02 0.556D-01 0.213D+00
 Coeff:      0.744D+00
 Gap=     0.119 Goal=   None    Shift=    0.000
 RMSDP=8.44D-06 MaxDP=4.48D-04 DE=-8.56D-06 OVMax= 5.00D-04

 Cycle   8  Pass 1  IDiag  1:
 RMSU=  6.05D-06    CP:  1.13D+00  1.29D+00  7.52D-01  7.45D-01  1.02D+00
                    CP:  7.84D-01  8.51D-01
 E= -191.934588308443     Delta-E=       -0.000000980163 Rises=F Damp=F
 DIIS: error= 1.15D-05 at cycle   8 NSaved=   8.
 NSaved= 8 IEnMin= 8 EnMin= -191.934588308443     IErMin= 8 ErrMin= 1.15D-05
 ErrMax= 1.15D-05  0.00D+00 EMaxC= 1.00D-01 BMatC= 3.33D-08 BMatP= 7.94D-07
 IDIUse=1 WtCom= 1.00D+00 WtEn= 0.00D+00
 Coeff-Com:  0.138D-02-0.198D-02-0.158D-02-0.319D-02-0.384D-02 0.313D-01
 Coeff-Com:  0.257D+00 0.721D+00
 Coeff:      0.138D-02-0.198D-02-0.158D-02-0.319D-02-0.384D-02 0.313D-01
 Coeff:      0.257D+00 0.721D+00
 Gap=     0.119 Goal=   None    Shift=    0.000
 RMSDP=1.91D-06 MaxDP=7.88D-05 DE=-9.80D-07 OVMax= 7.67D-05

 Cycle   9  Pass 1  IDiag  1:
 RMSU=  1.34D-06    CP:  1.13D+00  1.29D+00  7.52D-01  7.45D-01  1.02D+00
                    CP:  7.82D-01  9.24D-01  8.59D-01
 E= -191.934588343018     Delta-E=       -0.000000034575 Rises=F Damp=F
 DIIS: error= 4.34D-06 at cycle   9 NSaved=   9.
 NSaved= 9 IEnMin= 9 EnMin= -191.934588343018     IErMin= 9 ErrMin= 4.34D-06
 ErrMax= 4.34D-06  0.00D+00 EMaxC= 1.00D-01 BMatC= 2.34D-09 BMatP= 3.33D-08
 IDIUse=1 WtCom= 1.00D+00 WtEn= 0.00D+00
 Coeff-Com:  0.226D-04 0.716D-05 0.243D-04-0.775D-03-0.394D-02 0.748D-04
 Coeff-Com:  0.220D-01 0.194D+00 0.788D+00
 Coeff:      0.226D-04 0.716D-05 0.243D-04-0.775D-03-0.394D-02 0.748D-04
 Coeff:      0.220D-01 0.194D+00 0.788D+00
 Gap=     0.119 Goal=   None    Shift=    0.000
 RMSDP=6.12D-07 MaxDP=2.64D-05 DE=-3.46D-08 OVMax= 4.87D-05

 Cycle  10  Pass 1  IDiag  1:
 RMSU=  2.58D-07    CP:  1.13D+00  1.29D+00  7.52D-01  7.45D-01  1.02D+00
                    CP:  7.86D-01  9.16D-01  8.86D-01  8.88D-01
 E= -191.934588345953     Delta-E=       -0.000000002935 Rises=F Damp=F
 DIIS: error= 1.51D-06 at cycle  10 NSaved=  10.
 NSaved=10 IEnMin=10 EnMin= -191.934588345953     IErMin=10 ErrMin= 1.51D-06
 ErrMax= 1.51D-06  0.00D+00 EMaxC= 1.00D-01 BMatC= 2.89D-10 BMatP= 2.34D-09
 IDIUse=1 WtCom= 1.00D+00 WtEn= 0.00D+00
 Coeff-Com: -0.160D-07 0.177D-05 0.738D-04-0.996D-05-0.614D-03-0.174D-02
 Coeff-Com: -0.109D-01-0.106D-01 0.114D+00 0.910D+00
 Coeff:     -0.160D-07 0.177D-05 0.738D-04-0.996D-05-0.614D-03-0.174D-02
 Coeff:     -0.109D-01-0.106D-01 0.114D+00 0.910D+00
 Gap=     0.119 Goal=   None    Shift=    0.000
 RMSDP=2.08D-07 MaxDP=1.24D-05 DE=-2.94D-09 OVMax= 1.10D-05

 Cycle  11  Pass 1  IDiag  1:
 RMSU=  5.57D-08    CP:  1.13D+00  1.29D+00  7.52D-01  7.45D-01  1.02D+00
                    CP:  7.85D-01  9.18D-01  8.94D-01  9.49D-01  9.97D-01
 E= -191.934588346364     Delta-E=       -0.000000000411 Rises=F Damp=F
 DIIS: error= 1.70D-07 at cycle  11 NSaved=  11.
 NSaved=11 IEnMin=11 EnMin= -191.934588346364     IErMin=11 ErrMin= 1.70D-07
 ErrMax= 1.70D-07  0.00D+00 EMaxC= 1.00D-01 BMatC= 4.06D-12 BMatP= 2.89D-10
 IDIUse=1 WtCom= 1.00D+00 WtEn= 0.00D+00
 Coeff-Com: -0.312D-06-0.147D-05 0.191D-04 0.465D-04 0.163D-03-0.771D-04
 Coeff-Com: -0.337D-02-0.120D-01-0.270D-01 0.155D+00 0.888D+00
 Coeff:     -0.312D-06-0.147D-05 0.191D-04 0.465D-04 0.163D-03-0.771D-04
 Coeff:     -0.337D-02-0.120D-01-0.270D-01 0.155D+00 0.888D+00
 Gap=     0.119 Goal=   None    Shift=    0.000
 RMSDP=2.54D-08 MaxDP=1.36D-06 DE=-4.11D-10 OVMax= 1.70D-06

 Cycle  12  Pass 1  IDiag  1:
 RMSU=  1.31D-08    CP:  1.13D+00  1.29D+00  7.52D-01  7.45D-01  1.02D+00
                    CP:  7.85D-01  9.18D-01  8.95D-01  9.54D-01  1.05D+00
                    CP:  9.85D-01
 E= -191.934588346366     Delta-E=       -0.000000000002 Rises=F Damp=F
 DIIS: error= 3.87D-08 at cycle  12 NSaved=  12.
 NSaved=12 IEnMin=12 EnMin= -191.934588346366     IErMin=12 ErrMin= 3.87D-08
 ErrMax= 3.87D-08  0.00D+00 EMaxC= 1.00D-01 BMatC= 3.23D-13 BMatP= 4.06D-12
 IDIUse=1 WtCom= 1.00D+00 WtEn= 0.00D+00
 Coeff-Com:  0.787D-06-0.141D-05 0.391D-05 0.119D-04 0.681D-04 0.637D-04
 Coeff-Com: -0.517D-03-0.231D-02-0.112D-01 0.880D-02 0.254D+00 0.751D+00
 Coeff:      0.787D-06-0.141D-05 0.391D-05 0.119D-04 0.681D-04 0.637D-04
 Coeff:     -0.517D-03-0.231D-02-0.112D-01 0.880D-02 0.254D+00 0.751D+00
 Gap=     0.119 Goal=   None    Shift=    0.000
 RMSDP=5.43D-09 MaxDP=3.63D-07 DE=-2.27D-12 OVMax= 3.74D-07

 SCF Done:  E(RB3LYP) =  -191.934588346     A.U. after   12 cycles
            NFock= 12  Conv=0.54D-08     -V/T= 2.0045
 KE= 1.910705124760D+02 PE=-7.046033043100D+02 EE= 1.837050271449D+02
 Leave Link  502 at Tue Jul 19 21:16:50 2016, MaxMem=    33554432 cpu:       485.1
 (Enter /home/proyectos/fulerenos/M3C-v2.0/M3C-deps_CCC/g09-AM64L-G09RevC.01/l801.exe)
 DoSCS=F DFT=T ScalE2(SS,OS)=  1.000000  1.000000
 Range of M.O.s used for correlation:     1   235
 NBasis=   235 NAE=    16 NBE=    16 NFC=     0 NFV=     0
 NROrb=    235 NOA=    16 NOB=    16 NVA=   219 NVB=   219

 **** Warning!!: The largest alpha MO coefficient is  0.11284932D+03

 Leave Link  801 at Tue Jul 19 21:16:50 2016, MaxMem=    33554432 cpu:         0.1
 (Enter /home/proyectos/fulerenos/M3C-v2.0/M3C-deps_CCC/g09-AM64L-G09RevC.01/l1101.exe)
 Using compressed storage, NAtomX=     9.
 Will process     10 centers per pass.
 Leave Link 1101 at Tue Jul 19 21:16:51 2016, MaxMem=    33554432 cpu:         0.9
 (Enter /home/proyectos/fulerenos/M3C-v2.0/M3C-deps_CCC/g09-AM64L-G09RevC.01/l1102.exe)
 Symmetrizing basis deriv contribution to polar:
 IMax=3 JMax=2 DiffMx= 0.00D+00
 Leave Link 1102 at Tue Jul 19 21:16:51 2016, MaxMem=    33554432 cpu:         0.1
 (Enter /home/proyectos/fulerenos/M3C-v2.0/M3C-deps_CCC/g09-AM64L-G09RevC.01/l1110.exe)
 Forming Gx(P) for the SCF density, NAtomX=     9.
 Integral derivatives from FoFJK, PRISM(SPDF).
 Do as many integral derivatives as possible in FoFJK.
 G2DrvN: MDV=      33554256.
 G2DrvN: will do    10 centers at a time, making    1 passes.
 Calling FoFCou, ICntrl=  3107 FMM=F I1Cent=   0 AccDes= 0.00D+00.
 FoFJK:  IHMeth= 1 ICntrl=    3107 DoSepK=F KAlg= 0 I1Cent=   0 FoldK=F
 IRaf=         0 NMat=   1 IRICut=       1 DoRegI=T DoRafI=F ISym2E= 0.
 FoFCou: FMM=F IPFlag=           0 FMFlag=      100000 FMFlg1=           0
         NFxFlg=           0 DoJE=F BraDBF=F KetDBF=F FulRan=T
         wScrn=  0.000000 ICntrl=    3107 IOpCl=  0 I1Cent=           0 NGrid=           0
         NMat0=    1 NMatS0=      1 NMatT0=    0 NMatD0=    1 NMtDS0=    0 NMtDT0=    0
 Symmetry not used in FoFCou.
 End of G2Drv F.D. properties file   721 does not exist.
 End of G2Drv F.D. properties file   722 does not exist.
 End of G2Drv F.D. properties file   788 does not exist.
 Leave Link 1110 at Tue Jul 19 21:28:49 2016, MaxMem=    33554432 cpu:       717.5
 (Enter /home/proyectos/fulerenos/M3C-v2.0/M3C-deps_CCC/g09-AM64L-G09RevC.01/l1002.exe)
 Minotr:  Closed shell wavefunction.
          IDoAtm=111111111
          Direct CPHF calculation.
          Differentiating once with respect to electric field.
                with respect to dipole field.
          Differentiating once with respect to nuclear coordinates.
          Requested convergence is 1.0D-08 RMS, and 1.0D-07 maximum.
          Secondary convergence is 1.0D-12 RMS, and 1.0D-12 maximum.
          NewPWx=T KeepS1=F KeepF1=F KeepIn=T MapXYZ=F SortEE=F KeepMc=T.
          MDV=      33554103 using IRadAn=       2.
 Generate precomputed XC quadrature information.
          Solving linear equations simultaneously, MaxMat=       0.
 FoFJK:  IHMeth= 1 ICntrl=       0 DoSepK=F KAlg= 0 I1Cent=   0 FoldK=F
 IRaf= 990000000 NMat=  30 IRICut=      75 DoRegI=T DoRafI=T ISym2E= 2.
 FoFCou: FMM=F IPFlag=           0 FMFlag=      100000 FMFlg1=           0
         NFxFlg=           0 DoJE=F BraDBF=F KetDBF=F FulRan=T
         wScrn=  0.000000 ICntrl=       0 IOpCl=  0 I1Cent=           0 NGrid=           0
         NMat0=   30 NMatS0=     30 NMatT0=    0 NMatD0=   30 NMtDS0=    0 NMtDT0=    0
 Integrals replicated using symmetry in FoFCou.
          There are    30 degrees of freedom in the 1st order CPHF.  IDoFFX=6 NUNeed=     3.
     28 vectors produced by pass  0 Test12= 1.17D-14 3.33D-09 XBig12= 3.46D+02 1.76D+01.
 AX will form    28 AO Fock derivatives at one time.
     27 vectors produced by pass  1 Test12= 1.17D-14 3.33D-09 XBig12= 1.02D+02 2.01D+00.
     27 vectors produced by pass  2 Test12= 1.17D-14 3.33D-09 XBig12= 9.53D-01 1.89D-01.
     27 vectors produced by pass  3 Test12= 1.17D-14 3.33D-09 XBig12= 4.13D-03 1.43D-02.
     27 vectors produced by pass  4 Test12= 1.17D-14 3.33D-09 XBig12= 1.14D-05 7.87D-04.
     26 vectors produced by pass  5 Test12= 1.17D-14 3.33D-09 XBig12= 2.73D-08 2.35D-05.
      4 vectors produced by pass  6 Test12= 1.17D-14 3.33D-09 XBig12= 3.20D-11 6.55D-07.
      3 vectors produced by pass  7 Test12= 1.17D-14 3.33D-09 XBig12= 4.48D-14 4.40D-08.
      2 vectors produced by pass  8 Test12= 1.17D-14 3.33D-09 XBig12= 2.39D-15 1.00D-08.
 InvSVY:  IOpt=1 It=  1 EMax= 4.44D-15
 Solved reduced A of dimension   171 with    30 vectors.
 FullF1:  Do perturbations    1 to     3.
 Isotropic polarizability for W=    0.000000       47.30 Bohr**3.
 End of Minotr F.D. properties file   721 does not exist.
 End of Minotr F.D. properties file   722 does not exist.
 End of Minotr F.D. properties file   788 does not exist.
 Leave Link 1002 at Tue Jul 19 21:50:21 2016, MaxMem=    33554432 cpu:      1289.4
 (Enter /home/proyectos/fulerenos/M3C-v2.0/M3C-deps_CCC/g09-AM64L-G09RevC.01/l601.exe)
 Copying SCF densities to generalized density rwf, IOpCl= 0 IROHF=0.

 **********************************************************************

            Population analysis using the SCF density.

 **********************************************************************

 Orbital symmetries:
       Occupied  (A) (A) (A) (A) (A) (A) (A) (A) (A) (A) (A) (A)
                 (A) (A) (A) (A)
       Virtual   (A) (A) (A) (A) (A) (A) (A) (A) (A) (A) (A) (A)
                 (A) (A) (A) (A) (A) (A) (A) (A) (A) (A) (A) (A)
                 (A) (A) (A) (A) (A) (A) (A) (A) (A) (A) (A) (A)
                 (A) (A) (A) (A) (A) (A) (A) (A) (A) (A) (A) (A)
                 (A) (A) (A) (A) (A) (A) (A) (A) (A) (A) (A) (A)
                 (A) (A) (A) (A) (A) (A) (A) (A) (A) (A) (A) (A)
                 (A) (A) (A) (A) (A) (A) (A) (A) (A) (A) (A) (A)
                 (A) (A) (A) (A) (A) (A) (A) (A) (A) (A) (A) (A)
                 (A) (A) (A) (A) (A) (A) (A) (A) (A) (A) (A) (A)
                 (A) (A) (A) (A) (A) (A) (A) (A) (A) (A) (A) (A)
                 (A) (A) (A) (A) (A) (A) (A) (A) (A) (A) (A) (A)
                 (A) (A) (A) (A) (A) (A) (A) (A) (A) (A) (A) (A)
                 (A) (A) (A) (A) (A) (A) (A) (A) (A) (A) (A) (A)
                 (A) (A) (A) (A) (A) (A) (A) (A) (A) (A) (A) (A)
                 (A) (A) (A) (A) (A) (A) (A) (A) (A) (A) (A) (A)
                 (A) (A) (A) (A) (A) (A) (A) (A) (A) (A) (A) (A)
                 (A) (A) (A) (A) (A) (A) (A) (A) (A) (A) (A) (A)
                 (A) (A) (A) (A) (A) (A) (A) (A) (A) (A) (A) (A)
                 (A) (A) (A)
 The electronic state is 1-A.
 Alpha  occ. eigenvalues --  -10.76396 -10.76394 -10.75880 -10.72935 -10.70816
 Alpha  occ. eigenvalues --   -1.46862  -1.23318  -1.15951  -1.06457  -1.03005
 Alpha  occ. eigenvalues --   -0.94305  -0.93818  -0.91648  -0.87706  -0.84948
 Alpha  occ. eigenvalues --   -0.74910
 Alpha virt. eigenvalues --   -0.62983  -0.56476  -0.50443  -0.44569  -0.32349
 Alpha virt. eigenvalues --   -0.31301  -0.30827  -0.29927  -0.28644  -0.26642
 Alpha virt. eigenvalues --   -0.25447  -0.23391  -0.22814  -0.22788  -0.20991
 Alpha virt. eigenvalues --   -0.20482  -0.18922  -0.18519  -0.17678  -0.15780
 Alpha virt. eigenvalues --   -0.15330  -0.15183  -0.14352  -0.13890  -0.12327
 Alpha virt. eigenvalues --   -0.11606  -0.11497  -0.09721  -0.08762  -0.07984
 Alpha virt. eigenvalues --   -0.07856  -0.07550  -0.05830  -0.05715  -0.03424
 Alpha virt. eigenvalues --   -0.02161   0.01288   0.02094   0.02957   0.03679
 Alpha virt. eigenvalues --    0.04817   0.05813   0.06183   0.07590   0.07607
 Alpha virt. eigenvalues --    0.09292   0.09374   0.11307   0.11938   0.13057
 Alpha virt. eigenvalues --    0.14338   0.15222   0.16683   0.17753   0.19272
 Alpha virt. eigenvalues --    0.19914   0.20356   0.23145   0.24668   0.26031
 Alpha virt. eigenvalues --    0.27072   0.28503   0.29631   0.30538   0.32969
 Alpha virt. eigenvalues --    0.33966   0.35968   0.37015   0.37223   0.38765
 Alpha virt. eigenvalues --    0.40247   0.44060   0.47877   0.48248   0.54400
 Alpha virt. eigenvalues --    0.56917   0.58769   0.60578   0.64632   0.64884
 Alpha virt. eigenvalues --    0.68406   0.69088   0.71045   0.74364   0.75198
 Alpha virt. eigenvalues --    0.75780   0.78574   0.78599   0.81876   0.82409
 Alpha virt. eigenvalues --    0.84857   0.89930   0.91205   0.92144   0.93153
 Alpha virt. eigenvalues --    0.95112   1.00641   1.00798   1.07509   1.09003
 Alpha virt. eigenvalues --    1.10581   1.12788   1.16854   1.21352   1.28202
 Alpha virt. eigenvalues --    1.30540   1.35107   1.37152   1.42746   1.42873
 Alpha virt. eigenvalues --    1.44825   1.56019   1.61100   1.61150   1.63490
 Alpha virt. eigenvalues --    1.66358   1.68343   1.71547   1.76090   1.87382
 Alpha virt. eigenvalues --    1.88046   2.02313   2.08324   2.14528   2.18345
 Alpha virt. eigenvalues --    2.22614   2.25807   2.26516   2.28068   2.31045
 Alpha virt. eigenvalues --    2.32184   2.35041   2.39759   2.40365   2.41013
 Alpha virt. eigenvalues --    2.46838   2.49043   2.49468   2.55761   2.55787
 Alpha virt. eigenvalues --    2.56242   2.56392   2.62382   2.65179   2.66764
 Alpha virt. eigenvalues --    2.69871   2.75441   2.80060   2.84661   2.87245
 Alpha virt. eigenvalues --    2.91592   2.95872   3.03584   3.08505   3.09726
 Alpha virt. eigenvalues --    3.16357   3.16410   3.18239   3.22839   3.25172
 Alpha virt. eigenvalues --    3.28482   3.34847   3.38312   3.41375   3.57811
 Alpha virt. eigenvalues --    3.67182   3.68893   3.76157   3.77493   3.78211
 Alpha virt. eigenvalues --    3.80255   3.87109   3.94942   3.95632   4.01688
 Alpha virt. eigenvalues --    4.06181   4.14684   4.15186   4.20246   4.25928
 Alpha virt. eigenvalues --    4.29040   4.35996   4.58436   4.76249   5.13157
 Alpha virt. eigenvalues --    5.44282   5.44698   5.59962   5.88665   6.54007
 Alpha virt. eigenvalues --    6.55626   6.59140   6.59705   6.61243   6.61501
 Alpha virt. eigenvalues --    6.67427   6.73436   6.77625   6.80384   6.90464
 Alpha virt. eigenvalues --    6.90569   6.96112   7.08252   7.19869   7.25944
 Alpha virt. eigenvalues --    7.26491   7.36843   7.41026   7.53289   7.55033
 Alpha virt. eigenvalues --    7.72569   7.78812   7.80066   8.41341  23.63155
 Alpha virt. eigenvalues --   24.03289  24.62659  24.69098  24.90483
          Condensed to atoms (all electrons):
               1          2          3          4          5          6
     1  C    6.894396   0.441959   0.441959  -0.919761  -0.398280  -0.013952
     2  H    0.441959   0.342837   0.001538  -0.080553   0.006690  -0.000274
     3  H    0.441959   0.001538   0.342837  -0.080553  -0.002210   0.000123
     4  C   -0.919761  -0.080553  -0.080553   6.942797  -0.072216  -0.023494
     5  C   -0.398280   0.006690  -0.002210  -0.072216   6.921496   0.396893
     6  H   -0.013952  -0.000274   0.000123  -0.023494   0.396893   0.336691
     7  C   -0.398281  -0.002210   0.006690  -0.072217   0.023624   0.021936
     8  H   -0.013953   0.000123  -0.000274  -0.023495   0.021937  -0.002302
     9  C    0.183153   0.000495   0.000495  -0.016590  -1.091499  -0.086292
               7          8          9
     1  C   -0.398281  -0.013953   0.183153
     2  H   -0.002210   0.000123   0.000495
     3  H    0.006690  -0.000274   0.000495
     4  C   -0.072217  -0.023495  -0.016590
     5  C    0.023624   0.021937  -1.091499
     6  H    0.021936  -0.002302  -0.086292
     7  C    6.921496   0.396894  -1.091497
     8  H    0.396894   0.336692  -0.086291
     9  C   -1.091497  -0.086291   8.024132
 Mulliken charges:
               1
     1  C   -0.217240
     2  H    0.289395
     3  H    0.289395
     4  C    0.346083
     5  C    0.193566
     6  H    0.370670
     7  C    0.193566
     8  H    0.370670
     9  C    0.163895
 Sum of Mulliken charges =   2.00000
 Mulliken charges with hydrogens summed into heavy atoms:
               1
     1  C    0.361551
     4  C    0.346083
     5  C    0.564236
     7  C    0.564236
     9  C    0.163895
 APT charges:
               1
     1  C    0.597956
     2  H    0.209705
     3  H    0.209713
     4  C   -0.450459
     5  C    0.483680
     6  H    0.278617
     7  C    0.483602
     8  H    0.278640
     9  C   -0.091454
 Sum of APT charges =   2.00000
 APT charges with hydrogens summed into heavy atoms:
               1
     1  C    1.017375
     4  C   -0.450459
     5  C    0.762296
     7  C    0.762242
     9  C   -0.091454
 Electronic spatial extent (au):  <R**2>=            287.9856
 Charge=              2.0000 electrons
 Dipole moment (field-independent basis, Debye):
    X=             -0.8855    Y=              0.0002    Z=             -1.1805  Tot=              1.4757
 Quadrupole moment (field-independent basis, Debye-Ang):
   XX=             -3.5470   YY=            -10.1809   ZZ=            -23.3579
   XY=              0.0005   XZ=             -2.5052   YZ=              0.0024
 Traceless Quadrupole moment (field-independent basis, Debye-Ang):
   XX=              8.8149   YY=              2.1810   ZZ=            -10.9959
   XY=              0.0005   XZ=             -2.5052   YZ=              0.0024
 Octapole moment (field-independent basis, Debye-Ang**2):
  XXX=            -27.1779  YYY=              0.0043  ZZZ=             -2.5726  XYY=              5.4724
  XXY=             -0.0002  XXZ=              0.8622  XZZ=              0.4516  YZZ=             -0.0024
  YYZ=             -7.9032  XYZ=              0.0009
 Hexadecapole moment (field-independent basis, Debye-Ang**3):
 XXXX=           -137.7733 YYYY=            -49.5597 ZZZZ=            -36.3243 XXXY=              0.0013
 XXXZ=             -7.1635 YYYX=              0.0051 YYYZ=             -0.0001 ZZZX=             -4.5737
 ZZZY=             -0.0023 XXYY=            -32.2882 XXZZ=            -42.2726 YYZZ=            -16.4081
 XXYZ=              0.0018 YYXZ=             -9.3540 ZZXY=             -0.0026
 N-N= 1.378931763428D+02 E-N=-7.046033072795D+02  KE= 1.910705124760D+02
  Exact polarizability:  72.985  -0.003  40.615   4.369  -0.001  28.296
 Approx polarizability: 207.834  -0.005  67.848  29.852   0.003  50.103
 No NMR shielding tensors so no spin-rotation constants.
 Leave Link  601 at Tue Jul 19 21:50:22 2016, MaxMem=    33554432 cpu:         0.5
 (Enter /home/proyectos/fulerenos/M3C-v2.0/M3C-deps_CCC/g09-AM64L-G09RevC.01/l701.exe)
 Compute integral second derivatives.
 ... and contract with generalized density number  0.
 Leave Link  701 at Tue Jul 19 21:50:23 2016, MaxMem=    33554432 cpu:         1.3
 (Enter /home/proyectos/fulerenos/M3C-v2.0/M3C-deps_CCC/g09-AM64L-G09RevC.01/l702.exe)
 L702 exits ... SP integral derivatives will be done elsewhere.
 Leave Link  702 at Tue Jul 19 21:50:23 2016, MaxMem=    33554432 cpu:         0.1
 (Enter /home/proyectos/fulerenos/M3C-v2.0/M3C-deps_CCC/g09-AM64L-G09RevC.01/l703.exe)
 Compute integral second derivatives, UseDBF=F ICtDFT=           0.
 Integral derivatives from FoFJK, PRISM(SPDF).
 Calling FoFJK, ICntrl=    100127 FMM=F ISym2X=0 I1Cent= 0 IOpClX= 0 NMat=1 NMatS=1 NMatT=0.
 FoFJK:  IHMeth= 1 ICntrl=  100127 DoSepK=F KAlg= 0 I1Cent=   0 FoldK=F
 IRaf=         0 NMat=   1 IRICut=       1 DoRegI=T DoRafI=F ISym2E= 0.
 FoFCou: FMM=F IPFlag=           0 FMFlag=      100000 FMFlg1=         800
         NFxFlg=           0 DoJE=F BraDBF=F KetDBF=F FulRan=T
         wScrn=  0.000000 ICntrl=  100127 IOpCl=  0 I1Cent=           0 NGrid=           0
         NMat0=    1 NMatS0=      1 NMatT0=    0 NMatD0=    1 NMtDS0=    0 NMtDT0=    0
 Symmetry not used in FoFCou.
 Leave Link  703 at Tue Jul 19 22:17:05 2016, MaxMem=    33554432 cpu:      1601.4
 (Enter /home/proyectos/fulerenos/M3C-v2.0/M3C-deps_CCC/g09-AM64L-G09RevC.01/l716.exe)
 Dipole        =-3.48394271D-01 8.40360457D-05-4.64442064D-01
 Polarizability= 7.29847055D+01-3.48089985D-03 4.06152833D+01
                 4.36869517D+00-7.65955911D-04 2.82963796D+01
 Full mass-weighted force constant matrix:
 Low frequencies ---   -5.1429   -0.0007   -0.0006   -0.0003    8.9827   12.2587
 Low frequencies ---  283.2750  289.3540  387.3124
 Diagonal vibrational polarizability:
       16.2058826       2.9299428       5.8114173
 Harmonic frequencies (cm**-1), IR intensities (KM/Mole), Raman scattering
 activities (A**4/AMU), depolarization ratios for plane and unpolarized
 incident light, reduced masses (AMU), force constants (mDyne/A),
 and normal coordinates:
                      1                      2                      3
                      A                      A                      A
 Frequencies --    283.2750               289.3540               387.3121
 Red. masses --      1.3632                 4.6815                 2.0705
 Frc consts  --      0.0644                 0.2309                 0.1830
 IR Inten    --      1.5712                 7.3949                 0.6328
  Atom  AN      X      Y      Z        X      Y      Z        X      Y      Z
     1   6    -0.00   0.06  -0.00    -0.08   0.00  -0.21    -0.00   0.14   0.00
     2   1    -0.23   0.18  -0.60    -0.09  -0.00  -0.49    -0.23   0.29   0.45
     3   1     0.23   0.18   0.60    -0.09   0.00  -0.49     0.23   0.29  -0.45
     4   6    -0.00  -0.15  -0.00    -0.01  -0.00   0.37    -0.00  -0.09  -0.00
     5   6    -0.01  -0.01   0.01    -0.06   0.01   0.07    -0.18  -0.05   0.02
     6   1    -0.15  -0.04  -0.11    -0.29   0.04   0.03    -0.27   0.06   0.19
     7   6     0.01  -0.01  -0.01    -0.06  -0.01   0.07     0.18  -0.05  -0.02
     8   1     0.15  -0.04   0.11    -0.29  -0.04   0.03     0.27   0.06  -0.19
     9   6     0.00   0.08   0.00     0.27   0.00  -0.23     0.00  -0.01   0.00
                      4                      5                      6
                      A                      A                      A
 Frequencies --    420.3696               672.4646               746.4759
 Red. masses --      2.4572                 6.1006                 2.8516
 Frc consts  --      0.2558                 1.6254                 0.9362
 IR Inten    --     37.8864                50.6689                 0.9757
  Atom  AN      X      Y      Z        X      Y      Z        X      Y      Z
     1   6    -0.10  -0.00  -0.00    -0.30  -0.00   0.03     0.00   0.05   0.00
     2   1    -0.09  -0.01  -0.01    -0.31   0.00   0.27     0.26  -0.12  -0.54
     3   1    -0.09   0.01  -0.01    -0.31  -0.00   0.27    -0.26  -0.12   0.54
     4   6    -0.05  -0.00   0.10    -0.15   0.00  -0.36     0.00   0.24   0.00
     5   6     0.03  -0.17  -0.09     0.03  -0.06   0.14    -0.17  -0.06  -0.11
     6   1     0.15  -0.42  -0.48     0.09   0.01   0.30    -0.11   0.06   0.14
     7   6     0.03   0.17  -0.09     0.03   0.06   0.14     0.17  -0.06   0.11
     8   1     0.15   0.42  -0.48     0.09  -0.01   0.30     0.11   0.06  -0.14
     9   6     0.07  -0.00   0.16     0.42  -0.00  -0.03    -0.00  -0.14  -0.00
                      7                      8                      9
                      A                      A                      A
 Frequencies --    838.2966               937.1191               986.2738
 Red. masses --      2.3948                 1.7395                 1.3947
 Frc consts  --      0.9916                 0.9000                 0.7993
 IR Inten    --     65.6422                79.7673                 0.3649
  Atom  AN      X      Y      Z        X      Y      Z        X      Y      Z
     1   6    -0.17  -0.00   0.04    -0.10  -0.00   0.02    -0.00  -0.06  -0.00
     2   1    -0.20   0.01  -0.12    -0.12   0.01  -0.04    -0.29   0.11  -0.03
     3   1    -0.20  -0.01  -0.12    -0.12  -0.01  -0.04     0.29   0.11   0.03
     4   6    -0.07  -0.00   0.09     0.03  -0.00   0.06    -0.00   0.03   0.00
     5   6     0.14   0.09   0.01     0.07  -0.04  -0.12    -0.10   0.06   0.03
     6   1     0.62  -0.02  -0.01    -0.24   0.38   0.50     0.47  -0.26  -0.31
     7   6     0.14  -0.09   0.01     0.07   0.04  -0.12     0.10   0.06  -0.03
     8   1     0.62   0.02  -0.01    -0.24  -0.38   0.50    -0.47  -0.26   0.31
     9   6    -0.12   0.00  -0.11    -0.00  -0.00   0.09    -0.00  -0.06  -0.00
                     10                     11                     12
                      A                      A                      A
 Frequencies --   1010.5069              1092.3020              1110.2032
 Red. masses --      1.2961                 1.4006                 1.4498
 Frc consts  --      0.7798                 0.9845                 1.0528
 IR Inten    --      0.0935                 1.3391                52.4357
  Atom  AN      X      Y      Z        X      Y      Z        X      Y      Z
     1   6    -0.00  -0.09  -0.00     0.00  -0.09  -0.00     0.07   0.00  -0.08
     2   1    -0.39   0.13  -0.04    -0.37   0.12   0.04     0.14  -0.03   0.26
     3   1     0.39   0.13   0.04     0.37   0.12  -0.04     0.14   0.03   0.26
     4   6     0.00   0.01   0.00    -0.00   0.11   0.00    -0.03  -0.00   0.05
     5   6     0.02  -0.00  -0.09     0.04   0.03   0.00    -0.08  -0.08  -0.02
     6   1     0.23   0.25   0.44    -0.52   0.03  -0.24     0.49   0.00   0.39
     7   6    -0.02  -0.00   0.09    -0.04   0.03  -0.00    -0.08   0.08  -0.02
     8   1    -0.23   0.25  -0.44     0.52   0.03   0.24     0.49  -0.00   0.39
     9   6    -0.00   0.02   0.00     0.00  -0.10  -0.00     0.01   0.00  -0.04
                     13                     14                     15
                      A                      A                      A
 Frequencies --   1127.6234              1289.3284              1336.7333
 Red. masses --      1.4398                 4.9755                 6.0408
 Frc consts  --      1.0787                 4.8732                 6.3597
 IR Inten    --      1.8747                56.4739                78.2202
  Atom  AN      X      Y      Z        X      Y      Z        X      Y      Z
     1   6    -0.05   0.00  -0.15    -0.07  -0.00   0.02     0.00  -0.08  -0.00
     2   1    -0.01  -0.00   0.65    -0.20   0.06  -0.02    -0.27   0.08   0.02
     3   1    -0.01   0.00   0.65    -0.20  -0.06  -0.02     0.27   0.08  -0.02
     4   6     0.00  -0.00   0.06     0.16  -0.00   0.03    -0.00   0.31   0.00
     5   6     0.05   0.05   0.00    -0.17   0.26  -0.13     0.00  -0.28   0.15
     6   1    -0.18   0.03  -0.14     0.47   0.15  -0.17     0.02  -0.43   0.08
     7   6     0.05  -0.05   0.00    -0.17  -0.26  -0.13    -0.00  -0.28  -0.16
     8   1    -0.18  -0.03  -0.14     0.47  -0.15  -0.17    -0.02  -0.43  -0.08
     9   6    -0.02  -0.00   0.01     0.21  -0.00   0.24     0.00   0.38   0.00
                     16                     17                     18
                      A                      A                      A
 Frequencies --   1453.0821              1547.5589              3086.7633
 Red. masses --      1.2862                 4.6864                 1.0569
 Frc consts  --      1.6001                 6.6127                 5.9331
 IR Inten    --     87.5122               192.3161               102.6712
  Atom  AN      X      Y      Z        X      Y      Z        X      Y      Z
     1   6    -0.05  -0.00   0.01    -0.30  -0.00   0.02     0.07   0.00  -0.00
     2   1     0.59  -0.37  -0.06     0.35  -0.43   0.03    -0.35  -0.61   0.02
     3   1     0.59   0.37  -0.06     0.35   0.43   0.03    -0.35   0.61   0.02
     4   6    -0.12  -0.00   0.01     0.45   0.00  -0.03    -0.01   0.00   0.00
     5   6     0.02   0.04  -0.02    -0.06  -0.07   0.05     0.00   0.00  -0.00
     6   1    -0.01   0.06  -0.03     0.02  -0.16   0.02    -0.01  -0.03   0.02
     7   6     0.02  -0.04  -0.02    -0.06   0.07   0.05     0.00  -0.00  -0.00
     8   1    -0.01  -0.06  -0.03     0.02   0.16   0.02    -0.01   0.03   0.02
     9   6     0.04  -0.00   0.04    -0.10   0.00  -0.09     0.00   0.00   0.00
                     19                     20                     21
                      A                      A                      A
 Frequencies --   3119.7992              3126.2783              3198.3566
 Red. masses --      1.1083                 1.1110                 1.1254
 Frc consts  --      6.3555                 6.3978                 6.7831
 IR Inten    --    299.7170                84.3045                73.3125
  Atom  AN      X      Y      Z        X      Y      Z        X      Y      Z
     1   6    -0.00  -0.00   0.00     0.00   0.00  -0.00    -0.00  -0.10  -0.00
     2   1     0.00   0.01   0.00    -0.02  -0.04   0.00     0.35   0.61  -0.02
     3   1    -0.00   0.01  -0.00    -0.02   0.04   0.00    -0.35   0.61   0.02
     4   6    -0.00   0.01   0.00     0.01   0.00  -0.00     0.00   0.00   0.00
     5   6    -0.01  -0.06   0.03    -0.01  -0.06   0.03     0.00   0.00  -0.00
     6   1     0.14   0.60  -0.34     0.14   0.60  -0.33    -0.00  -0.00   0.00
     7   6     0.01  -0.06  -0.03    -0.01   0.06   0.03    -0.00   0.00   0.00
     8   1    -0.14   0.60   0.34     0.14  -0.60  -0.33     0.00  -0.00  -0.00
     9   6     0.00   0.01   0.00    -0.00   0.00  -0.01    -0.00   0.00  -0.00

 -------------------
 - Thermochemistry -
 -------------------
 Temperature   298.150 Kelvin.  Pressure   1.00000 Atm.
 Atom     1 has atomic number  6 and mass  12.00000
 Atom     2 has atomic number  1 and mass   1.00783
 Atom     3 has atomic number  1 and mass   1.00783
 Atom     4 has atomic number  6 and mass  12.00000
 Atom     5 has atomic number  6 and mass  12.00000
 Atom     6 has atomic number  1 and mass   1.00783
 Atom     7 has atomic number  6 and mass  12.00000
 Atom     8 has atomic number  1 and mass   1.00783
 Atom     9 has atomic number  6 and mass  12.00000
 Molecular mass:    64.03130 amu.
 Principal axes and moments of inertia in atomic units:
                           1         2         3
     Eigenvalues --   133.59586 325.90382 420.49490
           X            0.99974   0.00000  -0.02275
           Y           -0.00000   1.00000  -0.00018
           Z            0.02275   0.00018   0.99974
 This molecule is an asymmetric top.
 Rotational symmetry number  1.
 Rotational temperatures (Kelvin)      0.64833     0.26576     0.20598
 Rotational constants (GHZ):          13.50896     5.53765     4.29195
 Zero-point vibrational energy     167832.9 (Joules/Mol)
                                   40.11303 (Kcal/Mol)
 Warning -- explicit consideration of   4 degrees of freedom as
           vibrations may cause significant error
 Vibrational temperatures:    407.57   416.32   557.26   604.82   967.53
          (Kelvin)           1074.01  1206.12  1348.30  1419.03  1453.89
                             1571.58  1597.33  1622.40  1855.05  1923.26
                             2090.66  2226.59  4441.16  4488.69  4498.01
                             4601.72
 
 Zero-point correction=                           0.063924 (Hartree/Particle)
 Thermal correction to Energy=                    0.068756
 Thermal correction to Enthalpy=                  0.069700
 Thermal correction to Gibbs Free Energy=         0.036897
 Sum of electronic and zero-point Energies=           -191.870664
 Sum of electronic and thermal Energies=              -191.865832
 Sum of electronic and thermal Enthalpies=            -191.864888
 Sum of electronic and thermal Free Energies=         -191.897691
 
                     E (Thermal)             CV                S
                      KCal/Mol        Cal/Mol-Kelvin    Cal/Mol-Kelvin
 Total                   43.145             16.960             69.040
 Electronic               0.000              0.000              0.000
 Translational            0.889              2.981             38.389
 Rotational               0.889              2.981             24.419
 Vibrational             41.368             10.998              6.232
 Vibration     1          0.682              1.705              1.514
 Vibration     2          0.686              1.694              1.478
 Vibration     3          0.756              1.497              1.010
 Vibration     4          0.783              1.426              0.891
                       Q            Log10(Q)             Ln(Q)
 Total Bot       0.106799D-16        -16.971431        -39.078164
 Total V=0       0.270142D+13         12.431592         28.624799
 Vib (Bot)       0.109486D-28        -28.960643        -66.684344
 Vib (Bot)    1  0.677533D+00         -0.169070         -0.389297
 Vib (Bot)    2  0.661130D+00         -0.179713         -0.413805
 Vib (Bot)    3  0.464421D+00         -0.333089         -0.766965
 Vib (Bot)    4  0.417584D+00         -0.379256         -0.873268
 Vib (V=0)       0.276937D+01          0.442381          1.018619
 Vib (V=0)    1  0.134205D+01          0.127769          0.294200
 Vib (V=0)    2  0.132891D+01          0.123496          0.284360
 Vib (V=0)    3  0.118241D+01          0.072769          0.167557
 Vib (V=0)    4  0.115144D+01          0.061242          0.141015
 Electronic      0.100000D+01          0.000000          0.000000
 Translational   0.201393D+08          7.304044         16.818182
 Rotational      0.484360D+05          4.685168         10.787998
 
                                                              b3lyp opt
                                                             IR Spectrum
 
     3  333                                                            1   1   1 1     111  1                                        
     1  110                                                            5   4   3 2     110  09 9   8   7  6         43  22           
     9  228                                                            4   5   3 8     219  18 3   3   4  7         28  88           
     8  607                                                            8   3   7 9     802  16 7   8   6  2         07  93           
 
     X  XXX                                                            X   X   X X     XXX  XX X   X   X  X         XX  XX           
     X  XXX                                                            X   X   X X      X      X   X      X         X                
     X  XXX                                                            X   X   X X      X      X   X      X         X                
     X  XXX                                                            X   X   X X             X   X                                 
     X  XXX                                                            X   X   X               X                                     
        XXX                                                            X   X                                                         
         XX                                                            X                                                             
         X                                                             X                                                             
         X                                                             X                                                             
         X                                                             X                                                             
         X                                                             X                                                             
         X                                                             X                                                             
         X                                                             X                                                             
         X                                                                                                                           
         X                                                                                                                           
         X                                                                                                                           
         X                                                                                                                           
         X                                                                                                                           
         X                                                                                                                           
         X                                                                                                                           
 
 ***** Axes restored to original set *****
 -------------------------------------------------------------------
 Center     Atomic                   Forces (Hartrees/Bohr)
 Number     Number              X              Y              Z
 -------------------------------------------------------------------
      1        6           0.000043702    0.000000020    0.000005180
      2        1          -0.000010960   -0.000002706   -0.000002752
      3        1          -0.000010978    0.000002701   -0.000002747
      4        6          -0.000014660   -0.000000012   -0.000014444
      5        6          -0.000013261   -0.000059587   -0.000021220
      6        1          -0.000004309    0.000025135    0.000010137
      7        6          -0.000013227    0.000059601   -0.000021214
      8        1          -0.000004310   -0.000025161    0.000010139
      9        6           0.000028003    0.000000009    0.000036922
 -------------------------------------------------------------------
 Cartesian Forces:  Max     0.000059601 RMS     0.000023285
 Z-matrix is all fixed cartesians, so copy forces.
 Force constants in Cartesian coordinates: 
                1             2             3             4             5 
      1  0.639393D+00
      2 -0.758956D-05  0.640525D+00
      3 -0.414295D-01 -0.915692D-04  0.152054D+00
      4 -0.125497D+00  0.117171D+00  0.512706D-02  0.126315D+00
      5  0.125242D+00 -0.272267D+00 -0.649165D-02 -0.128333D+00  0.272221D+00
      6 -0.141927D-03 -0.664597D-02 -0.486901D-01 -0.617207D-02  0.579869D-02
      7 -0.125469D+00 -0.117152D+00  0.516916D-02  0.131932D-01  0.121988D-01
      8 -0.125225D+00 -0.272289D+00  0.657354D-02 -0.121961D-01 -0.100377D-01
      9 -0.973423D-04  0.672709D-02 -0.486954D-01  0.992451D-05 -0.545760D-03
     10 -0.343441D+00 -0.986164D-05  0.285801D-01 -0.112267D-01 -0.672625D-02
     11 -0.949547D-05 -0.969872D-01  0.849132D-05  0.238415D-01  0.767049D-02
     12  0.243222D-01  0.835179D-05 -0.625246D-01 -0.478737D-03  0.106158D-02
     13 -0.346038D-01  0.273704D-01 -0.991454D-03 -0.370000D-02 -0.232055D-02
     14  0.206491D-01  0.380791D-02  0.243861D-02 -0.873097D-04  0.226968D-03
     15 -0.462962D-02 -0.646217D-02 -0.256264D-02  0.503873D-03  0.120380D-02
     16 -0.387361D-03  0.319788D-03  0.231302D-03 -0.288891D-03 -0.182510D-03
     17  0.713096D-03  0.273244D-03  0.311010D-04  0.157494D-04 -0.291206D-03
     18  0.215658D-02  0.158672D-03 -0.620029D-03  0.151428D-03 -0.200501D-03
     19 -0.345985D-01 -0.273746D-01 -0.982212D-03 -0.187264D-03  0.142990D-02
     20 -0.206557D-01  0.380164D-02 -0.244136D-02 -0.748710D-03  0.159041D-02
     21 -0.462289D-02  0.645863D-02 -0.256567D-02 -0.120910D-02  0.774606D-04
     22 -0.387163D-03 -0.319665D-03  0.231650D-03 -0.125493D-03 -0.145868D-03
     23 -0.712008D-03  0.274387D-03 -0.306555D-04 -0.245784D-03  0.312799D-03
     24  0.215668D-02 -0.159395D-03 -0.620254D-03  0.955963D-04 -0.229178D-03
     25  0.249914D-01  0.250838D-05  0.406388D-02  0.151743D-02 -0.116233D-02
     26  0.580962D-05 -0.713891D-02  0.349814D-05  0.582575D-03  0.573694D-03
     27  0.222858D-01  0.636513D-05  0.142247D-01  0.197203D-02 -0.674444D-03
                6             7             8             9            10 
      6  0.215776D-01
      7  0.534961D-05  0.126285D+00
      8  0.554330D-03  0.128314D+00  0.272246D+00
      9  0.138716D-01 -0.621776D-02 -0.589022D-02  0.215821D-01
     10  0.608195D-02 -0.112241D-01  0.672660D-02  0.608002D-02  0.769585D+00
     11  0.858674D-02 -0.238443D-01  0.766468D-02 -0.858443D-02  0.220188D-04
     12  0.122793D-01 -0.470517D-03 -0.106021D-02  0.122832D-01 -0.338162D-01
     13  0.822879D-02 -0.187705D-03 -0.143257D-02 -0.565778D-02 -0.148132D+00
     14 -0.265119D-02  0.747619D-03  0.159010D-02  0.544239D-03  0.741855D-01
     15  0.903414D-02 -0.120951D-02 -0.800309D-04 -0.462073D-02  0.405916D-01
     16 -0.110845D-02 -0.125481D-03  0.146153D-03  0.837312D-03  0.539256D-02
     17 -0.766726D-04  0.245899D-03  0.312940D-03 -0.102905D-03  0.295689D-02
     18 -0.788904D-03  0.955739D-04  0.229451D-03  0.948744D-03 -0.919350D-02
     19 -0.565830D-02 -0.370013D-02  0.232321D-02  0.822777D-02 -0.148122D+00
     20 -0.546774D-03  0.879640D-04  0.228575D-03  0.265506D-02 -0.741706D-01
     21 -0.462042D-02  0.504637D-03 -0.120009D-02  0.903343D-02  0.406093D-01
     22  0.837339D-03 -0.289030D-03  0.182008D-03 -0.110851D-02  0.539474D-02
     23  0.102950D-03 -0.164440D-04 -0.291656D-03  0.765748D-04 -0.295828D-02
     24  0.948942D-03  0.151759D-03  0.200588D-03 -0.789118D-03 -0.919127D-02
     25 -0.207269D-02  0.151735D-02  0.116180D-02 -0.207363D-02 -0.118227D+00
     26 -0.512210D-02 -0.581401D-03  0.576144D-03  0.512035D-02 -0.259765D-04
     27 -0.361222D-02  0.197131D-02  0.672650D-03 -0.361379D-02 -0.697421D-01
               11            12            13            14            15 
     11  0.293221D+00
     12 -0.330209D-04  0.125243D+00
     13  0.254734D-01  0.189205D-01  0.256501D+00
     14 -0.153888D+00 -0.322813D-01 -0.531780D-01  0.696687D+00
     15 -0.596970D-01 -0.625423D-01 -0.237989D-01  0.285388D+00  0.285148D+00
     16  0.131710D-01  0.830537D-02 -0.553429D-01  0.555140D-01  0.295064D-01
     17 -0.192135D-02 -0.980070D-03  0.472357D-01 -0.261899D+00 -0.119370D+00
     18  0.139045D-01  0.828064D-02  0.366567D-01 -0.119728D+00 -0.114788D+00
     19 -0.254665D-01  0.189270D-01  0.652305D-01  0.104657D-01  0.179564D-01
     20 -0.153863D+00  0.323169D-01 -0.104401D-01 -0.816482D-01  0.311733D-02
     21  0.597354D-01 -0.625737D-01  0.179616D-01 -0.308294D-02  0.535156D-02
     22 -0.131673D-01  0.830979D-02 -0.481938D-02 -0.420395D-02 -0.540602D-02
     23 -0.192933D-02  0.983876D-03 -0.442722D-02  0.646147D-02  0.493673D-02
     24 -0.139012D-01  0.828569D-02 -0.879172D-02  0.118898D-01  0.746888D-02
     25 -0.203351D-04 -0.440194D-01 -0.749458D-01 -0.104093D+00 -0.535143D-01
     26  0.100033D+00 -0.161203D-04 -0.282811D-01 -0.211339D+00 -0.109036D+00
     27 -0.195111D-04  0.212688D-01 -0.425277D-01 -0.142517D+00 -0.122488D+00
               16            17            18            19            20 
     16  0.476515D-01
     17 -0.538942D-01  0.255239D+00
     18 -0.255112D-01  0.127909D+00  0.986227D-01
     19 -0.482017D-02  0.442120D-02 -0.879267D-02  0.256490D+00
     20  0.420038D-02  0.645743D-02 -0.118899D-01  0.531173D-01  0.696489D+00
     21 -0.540704D-02 -0.493754D-02  0.747461D-02 -0.237851D-01 -0.285541D+00
     22  0.697883D-03 -0.616792D-03  0.996318D-03 -0.553309D-01 -0.554788D-01
     23  0.617382D-03 -0.296192D-04 -0.729301D-03 -0.471979D-01 -0.261821D+00
     24  0.995938D-03  0.729305D-03 -0.394494D-03  0.366595D-01  0.119784D+00
     25  0.722291D-02 -0.107753D-02  0.344077D-02 -0.749616D-01  0.104088D+00
     26 -0.198920D-01  0.185774D-02 -0.965435D-02  0.282817D-01 -0.211234D+00
     27 -0.784966D-02 -0.320215D-02  0.126525D-02 -0.425525D-01  0.142546D+00
               21            22            23            24            25 
     21  0.285353D+00
     22  0.295128D-01  0.476388D-01
     23  0.119429D+00  0.538605D-01  0.255157D+00
     24 -0.114876D+00 -0.255156D-01 -0.127968D+00  0.987147D-01
     25 -0.535642D-01  0.722055D-02  0.107972D-02  0.343910D-02  0.225665D+00
     26  0.109062D+00  0.198898D-01  0.186579D-02  0.965403D-02  0.205502D-04
     27 -0.122577D+00 -0.785770D-02  0.319931D-02  0.126133D-02  0.144300D+00
               26            27 
     26  0.324805D+00
     27 -0.106836D-04  0.214271D+00
 Leave Link  716 at Tue Jul 19 22:17:06 2016, MaxMem=    33554432 cpu:         0.1
 (Enter /home/proyectos/fulerenos/M3C-v2.0/M3C-deps_CCC/g09-AM64L-G09RevC.01/l103.exe)

 GradGradGradGradGradGradGradGradGradGradGradGradGradGradGradGradGradGrad
 Berny optimization.
 Search for a local minimum.
 Step number   1 out of a maximum of    2
 All quantities printed in internal units (Hartrees-Bohrs-Radians)
 Second derivative matrix not updated -- analytic derivatives used.
 ITU=  0
     Eigenvalues ---    0.00403   0.01227   0.01353   0.01862   0.05417
     Eigenvalues ---    0.05927   0.08703   0.11479   0.13925   0.15679
     Eigenvalues ---    0.19180   0.22683   0.24837   0.25603   0.36138
     Eigenvalues ---    0.45160   0.59044   0.86519   1.03672   1.13922
     Eigenvalues ---    1.25658
 Angle between quadratic step and forces=  65.06 degrees.
 Linear search not attempted -- first point.
 B after Tr=    -0.000006    0.000000   -0.000009
         Rot=    1.000000    0.000000   -0.000004    0.000000 Ang=  -0.00 deg.
 Variable       Old X    -DE/DX   Delta X   Delta X   Delta X     New X
                                 (Linear)    (Quad)   (Total)
    X1        3.38341   0.00004   0.00000   0.00009   0.00009   3.38349
    Y1        0.00017   0.00000   0.00000   0.00000  -0.00000   0.00017
    Z1       -0.20979   0.00001   0.00000   0.00005   0.00001  -0.20978
    X2        4.42937  -0.00001   0.00000  -0.00005  -0.00006   4.42931
    Y2       -1.77318  -0.00000   0.00000  -0.00007  -0.00007  -1.77325
    Z2       -0.25750  -0.00000   0.00000   0.00013   0.00008  -0.25741
    X3        4.42916  -0.00001   0.00000  -0.00005  -0.00006   4.42910
    Y3        1.77361   0.00000   0.00000   0.00007   0.00007   1.77369
    Z3       -0.25814  -0.00000   0.00000   0.00012   0.00008  -0.25806
    X4        0.77802  -0.00001   0.00000   0.00001   0.00000   0.77802
    Y4        0.00008  -0.00000   0.00000  -0.00000  -0.00000   0.00008
    Z4        0.16142  -0.00001   0.00000  -0.00023  -0.00025   0.16118
    X5       -1.25634  -0.00001   0.00000  -0.00002  -0.00002  -1.25636
    Y5        1.84254  -0.00006   0.00000  -0.00006  -0.00006   1.84248
    Z5        0.34951  -0.00002   0.00000  -0.00002  -0.00002   0.34949
    X6       -1.67999  -0.00000   0.00000   0.00008   0.00009  -1.67990
    Y6        3.61070   0.00003   0.00000   0.00007   0.00007   3.61077
    Z6        1.33190   0.00001   0.00000  -0.00003  -0.00002   1.33187
    X7       -1.25613  -0.00001   0.00000  -0.00002  -0.00002  -1.25615
    Y7       -1.84253   0.00006   0.00000   0.00006   0.00006  -1.84248
    Z7        0.35018  -0.00002   0.00000  -0.00002  -0.00002   0.35016
    X8       -1.67958  -0.00000   0.00000   0.00008   0.00009  -1.67949
    Y8       -3.61039  -0.00003   0.00000  -0.00007  -0.00007  -3.61046
    Z8        1.33320   0.00001   0.00000  -0.00003  -0.00002   1.33318
    X9       -2.56545   0.00003   0.00000  -0.00009  -0.00010  -2.56555
    Y9       -0.00032   0.00000   0.00000   0.00000   0.00000  -0.00032
    Z9       -1.00956   0.00004   0.00000   0.00014   0.00015  -1.00941
         Item               Value     Threshold  Converged?
 Maximum Force            0.000060     0.000450     YES
 RMS     Force            0.000023     0.000300     YES
 Maximum Displacement     0.000246     0.001800     YES
 RMS     Displacement     0.000078     0.001200     YES
 Predicted change in Energy=-1.085862D-08
 Optimization completed.
    -- Stationary point found.
 GradGradGradGradGradGradGradGradGradGradGradGradGradGradGradGradGradGrad

 Leave Link  103 at Tue Jul 19 22:17:06 2016, MaxMem=    33554432 cpu:         0.1
 (Enter /home/proyectos/fulerenos/M3C-v2.0/M3C-deps_CCC/g09-AM64L-G09RevC.01/l9999.exe)
 1\1\GINC-EINSTENIO\Freq\RB3LYP\6-311++G(3df,2p)\C5H4(2+)\ROOT\19-Jul-2
 016\0\\#p b3lyp/6-311++G(3df,2p) freq symmetry=Loose\\b3lyp opt\\2,1\C
 ,1.790420997,0.000088171,-0.111018009\H,2.343920274,-0.938325265,-0.13
 6261647\H,2.34381272,0.938555837,-0.136601372\C,0.411710991,0.00004472
 1,0.085420972\C,-0.664826876,0.975027531,0.184953007\H,-0.889012996,1.
 910701754,0.704809143\C,-0.664715129,-0.975025369,0.185305977\H,-0.888
 79402,-1.910537025,0.705500807\C,-1.357577981,-0.000168829,-0.53423694
 \\Version=EM64L-G09RevE.01\State=1-A\HF=-191.9345883\RMSD=5.432e-09\RM
 SF=2.329e-05\ZeroPoint=0.0639242\Thermal=0.0687559\Dipole=0.3483943,0.
 000104,0.4644421\DipoleDeriv=1.2360348,0.0000688,0.0692475,-0.0000073,
 0.1846077,0.000004,-0.2235046,-0.0000288,0.373227,0.2927967,-0.0861109
 ,0.0038954,-0.1690842,0.2084373,0.0056312,-0.0211202,0.0153417,0.12788
 08,0.2927897,0.0861501,0.0038914,0.1690919,0.2084815,-0.0056503,-0.021
 1978,-0.015374,0.1278684,-1.321457,-0.0001793,-0.2123781,0.000013,-0.0
 824707,0.0000443,0.3330136,0.0001024,0.0525506,0.6699238,0.0611442,0.0
 950718,-0.328852,0.4247379,-0.0247217,0.3147995,-0.103679,0.3563775,0.
 2065383,-0.0624898,-0.0055386,-0.0900058,0.3996719,0.1092703,-0.070617
 8,0.1860753,0.2296395,0.6698548,-0.0610516,0.0950413,0.3290003,0.42471
 65,0.0247002,0.3145786,0.1036418,0.3562339,0.20653,0.0624712,-0.005536
 7,0.0899804,0.3996586,-0.1092971,-0.0706369,-0.1861849,0.2297328,-0.25
 30111,-0.0000027,-0.043694,-0.0001365,-0.1678408,0.0000191,-0.5553143,
 0.0001055,0.1464896\Polar=72.984705,0.0053358,40.6152838,4.3686951,0.0
 010163,28.2963796\PG=C01 [X(C5H4)]\NImag=0\\0.63939276,-0.00000759,0.6
 4052479,-0.04142952,-0.00009157,0.15205398,-0.12549703,0.11717108,0.00
 512706,0.12631476,0.12524178,-0.27226664,-0.00649165,-0.12833301,0.272
 22115,-0.00014193,-0.00664597,-0.04869012,-0.00617207,0.00579869,0.021
 57761,-0.12546933,-0.11715209,0.00516916,0.01319317,0.01219883,0.00000
 535,0.12628521,-0.12522503,-0.27228922,0.00657354,-0.01219613,-0.01003
 767,0.00055433,0.12831396,0.27224611,-0.00009734,0.00672709,-0.0486953
 8,0.00000992,-0.00054576,0.01387162,-0.00621776,-0.00589022,0.02158206
 ,-0.34344096,-0.00000986,0.02858013,-0.01122668,-0.00672625,0.00608195
 ,-0.01122405,0.00672660,0.00608002,0.76958510,-0.00000950,-0.09698720,
 0.00000849,0.02384154,0.00767049,0.00858674,-0.02384434,0.00766468,-0.
 00858443,0.00002202,0.29322071,0.02432220,0.00000835,-0.06252461,-0.00
 047874,0.00106158,0.01227935,-0.00047052,-0.00106021,0.01228316,-0.033
 81621,-0.00003302,0.12524302,-0.03460376,0.02737042,-0.00099145,-0.003
 70000,-0.00232055,0.00822879,-0.00018771,-0.00143257,-0.00565778,-0.14
 813162,0.02547340,0.01892047,0.25650072,0.02064914,0.00380791,0.002438
 61,-0.00008731,0.00022697,-0.00265119,0.00074762,0.00159010,0.00054424
 ,0.07418548,-0.15388803,-0.03228132,-0.05317797,0.69668734,-0.00462962
 ,-0.00646217,-0.00256264,0.00050387,0.00120380,0.00903414,-0.00120951,
 -0.00008003,-0.00462073,0.04059162,-0.05969695,-0.06254228,-0.02379890
 ,0.28538792,0.28514797,-0.00038736,0.00031979,0.00023130,-0.00028889,-
 0.00018251,-0.00110845,-0.00012548,0.00014615,0.00083731,0.00539256,0.
 01317102,0.00830537,-0.05534295,0.05551401,0.02950640,0.04765149,0.000
 71310,0.00027324,0.00003110,0.00001575,-0.00029121,-0.00007667,0.00024
 590,0.00031294,-0.00010291,0.00295689,-0.00192135,-0.00098007,0.047235
 70,-0.26189863,-0.11937048,-0.05389421,0.25523944,0.00215658,0.0001586
 7,-0.00062003,0.00015143,-0.00020050,-0.00078890,0.00009557,0.00022945
 ,0.00094874,-0.00919350,0.01390452,0.00828064,0.03665666,-0.11972798,-
 0.11478848,-0.02551117,0.12790941,0.09862267,-0.03459854,-0.02737459,-
 0.00098221,-0.00018726,0.00142990,-0.00565830,-0.00370013,0.00232321,0
 .00822777,-0.14812167,-0.02546647,0.01892700,0.06523054,0.01046567,0.0
 1795642,-0.00482017,0.00442120,-0.00879267,0.25648973,-0.02065571,0.00
 380164,-0.00244136,-0.00074871,0.00159041,-0.00054677,0.00008796,0.000
 22857,0.00265506,-0.07417062,-0.15386346,0.03231693,-0.01044012,-0.081
 64818,0.00311733,0.00420038,0.00645743,-0.01188992,0.05311727,0.696488
 81,-0.00462289,0.00645863,-0.00256567,-0.00120910,0.00007746,-0.004620
 42,0.00050464,-0.00120009,0.00903343,0.04060933,0.05973536,-0.06257374
 ,0.01796161,-0.00308294,0.00535156,-0.00540704,-0.00493754,0.00747461,
 -0.02378509,-0.28554093,0.28535298,-0.00038716,-0.00031966,0.00023165,
 -0.00012549,-0.00014587,0.00083734,-0.00028903,0.00018201,-0.00110851,
 0.00539474,-0.01316733,0.00830979,-0.00481938,-0.00420395,-0.00540602,
 0.00069788,-0.00061679,0.00099632,-0.05533094,-0.05547878,0.02951275,0
 .04763883,-0.00071201,0.00027439,-0.00003066,-0.00024578,0.00031280,0.
 00010295,-0.00001644,-0.00029166,0.00007657,-0.00295828,-0.00192933,0.
 00098388,-0.00442722,0.00646147,0.00493673,0.00061738,-0.00002962,-0.0
 0072930,-0.04719789,-0.26182134,0.11942853,0.05386053,0.25515750,0.002
 15668,-0.00015940,-0.00062025,0.00009560,-0.00022918,0.00094894,0.0001
 5176,0.00020059,-0.00078912,-0.00919127,-0.01390121,0.00828569,-0.0087
 9172,0.01188981,0.00746888,0.00099594,0.00072931,-0.00039449,0.0366595
 3,0.11978407,-0.11487567,-0.02551562,-0.12796802,0.09871469,0.02499138
 ,0.00000251,0.00406388,0.00151743,-0.00116233,-0.00207269,0.00151735,0
 .00116180,-0.00207363,-0.11822743,-0.00002034,-0.04401937,-0.07494585,
 -0.10409269,-0.05351425,0.00722291,-0.00107753,0.00344077,-0.07496156,
 0.10408831,-0.05356421,0.00722055,0.00107972,0.00343910,0.22566521,0.0
 0000581,-0.00713891,0.00000350,0.00058257,0.00057369,-0.00512210,-0.00
 058140,0.00057614,0.00512035,-0.00002598,0.10003348,-0.00001612,-0.028
 28110,-0.21133895,-0.10903614,-0.01989201,0.00185774,-0.00965435,0.028
 28170,-0.21123389,0.10906153,0.01988985,0.00186579,0.00965403,0.000020
 55,0.32480489,0.02228584,0.00000637,0.01422473,0.00197203,-0.00067444,
 -0.00361222,0.00197131,0.00067265,-0.00361379,-0.06974207,-0.00001951,
 0.02126878,-0.04252769,-0.14251715,-0.12248842,-0.00784966,-0.00320215
 ,0.00126525,-0.04255246,0.14254562,-0.12257708,-0.00785770,0.00319931,
 0.00126133,0.14430041,-0.00001068,0.21427143\\-0.00004370,-0.00000002,
 -0.00000518,0.00001096,0.00000271,0.00000275,0.00001098,-0.00000270,0.
 00000275,0.00001466,0.00000001,0.00001444,0.00001326,0.00005959,0.0000
 2122,0.00000431,-0.00002514,-0.00001014,0.00001323,-0.00005960,0.00002
 121,0.00000431,0.00002516,-0.00001014,-0.00002800,0.,-0.00003692\\\@


 A FOOL CAN ASK MORE QUESTIONS THAN
 A WISE MAN CAN ANSWER.
 Job cpu time:       0 days  1 hours  8 minutes 32.2 seconds.
 File lengths (MBytes):  RWF=     44 Int=      0 D2E=      0 Chk=      4 Scr=      1
 Normal termination of Gaussian 09 at Tue Jul 19 22:17:06 2016.
