 Entering Gaussian System, Link 0=/home/proyectos/fulerenos/M3C-v1.9/M3C-deps_CCC/g09-AM64L-G09RevC.01/g09
 Initial command:
 /home/proyectos/fulerenos/M3C-v1.9/M3C-deps_CCC/g09-AM64L-G09RevC.01/l1.exe "/scratch/naguirre/gaussian/Gau-32205.inp" -scrdir="/scratch/naguirre/gaussian/"
 Entering Link 1 = /home/proyectos/fulerenos/M3C-v1.9/M3C-deps_CCC/g09-AM64L-G09RevC.01/l1.exe PID=     32213.
  
 Copyright (c) 1988,1990,1992,1993,1995,1998,2003,2009,2015,
            Gaussian, Inc.  All Rights Reserved.
  
 This is part of the Gaussian(R) 09 program.  It is based on
 the Gaussian(R) 03 system (copyright 2003, Gaussian, Inc.),
 the Gaussian(R) 98 system (copyright 1998, Gaussian, Inc.),
 the Gaussian(R) 94 system (copyright 1995, Gaussian, Inc.),
 the Gaussian 92(TM) system (copyright 1992, Gaussian, Inc.),
 the Gaussian 90(TM) system (copyright 1990, Gaussian, Inc.),
 the Gaussian 88(TM) system (copyright 1988, Gaussian, Inc.),
 the Gaussian 86(TM) system (copyright 1986, Carnegie Mellon
 University), and the Gaussian 82(TM) system (copyright 1983,
 Carnegie Mellon University). Gaussian is a federally registered
 trademark of Gaussian, Inc.
  
 This software contains proprietary and confidential information,
 including trade secrets, belonging to Gaussian, Inc.
  
 This software is provided under written license and may be
 used, copied, transmitted, or stored only in accord with that
 written license.
  
 The following legend is applicable only to US Government
 contracts under FAR:
  
                    RESTRICTED RIGHTS LEGEND
  
 Use, reproduction and disclosure by the US Government is
 subject to restrictions as set forth in subparagraphs (a)
 and (c) of the Commercial Computer Software - Restricted
 Rights clause in FAR 52.227-19.
  
 Gaussian, Inc.
 340 Quinnipiac St., Bldg. 40, Wallingford CT 06492
  
  
 ---------------------------------------------------------------
 Warning -- This program may not be used in any manner that
 competes with the business of Gaussian, Inc. or will provide
 assistance to any competitor of Gaussian, Inc.  The licensee
 of this program is prohibited from giving any competitor of
 Gaussian, Inc. access to this program.  By using this program,
 the user acknowledges that Gaussian, Inc. is engaged in the
 business of creating and licensing software in the field of
 computational chemistry and represents and warrants to the
 licensee that it is not a competitor of Gaussian, Inc. and that
 it will not use this program in any manner prohibited above.
 ---------------------------------------------------------------
  

 Cite this work as:
 Gaussian 09, Revision E.01,
 M. J. Frisch, G. W. Trucks, H. B. Schlegel, G. E. Scuseria, 
 M. A. Robb, J. R. Cheeseman, G. Scalmani, V. Barone, B. Mennucci, 
 G. A. Petersson, H. Nakatsuji, M. Caricato, X. Li, H. P. Hratchian, 
 A. F. Izmaylov, J. Bloino, G. Zheng, J. L. Sonnenberg, M. Hada, 
 M. Ehara, K. Toyota, R. Fukuda, J. Hasegawa, M. Ishida, T. Nakajima, 
 Y. Honda, O. Kitao, H. Nakai, T. Vreven, J. A. Montgomery, Jr., 
 J. E. Peralta, F. Ogliaro, M. Bearpark, J. J. Heyd, E. Brothers, 
 K. N. Kudin, V. N. Staroverov, T. Keith, R. Kobayashi, J. Normand, 
 K. Raghavachari, A. Rendell, J. C. Burant, S. S. Iyengar, J. Tomasi, 
 M. Cossi, N. Rega, J. M. Millam, M. Klene, J. E. Knox, J. B. Cross, 
 V. Bakken, C. Adamo, J. Jaramillo, R. Gomperts, R. E. Stratmann, 
 O. Yazyev, A. J. Austin, R. Cammi, C. Pomelli, J. W. Ochterski, 
 R. L. Martin, K. Morokuma, V. G. Zakrzewski, G. A. Voth, 
 P. Salvador, J. J. Dannenberg, S. Dapprich, A. D. Daniels, 
 O. Farkas, J. B. Foresman, J. V. Ortiz, J. Cioslowski, 
 and D. J. Fox, Gaussian, Inc., Wallingford CT, 2013.
 
 ******************************************
 Gaussian 09:  EM64L-G09RevE.01 30-Nov-2015
                20-Jun-2016 
 ******************************************
 %NProcShared=4
 Will use up to    4 processors via shared memory.
 ---------------------------------------------
 #p b3lyp/6-311++G(3df,2p) freq symmetry=Loose
 ---------------------------------------------
 1/10=4,30=1,38=1/1,3;
 2/12=2,17=4,18=3,40=1/2;
 3/5=4,6=6,7=1216,11=2,16=1,25=1,30=1,71=2,74=-5,140=1/1,2,3;
 4//1;
 5/5=2,38=5,98=1/2;
 8/6=4,10=90,11=11/1;
 11/6=1,8=1,9=11,15=111,16=1/1,2,10;
 10/6=1/2;
 6/7=2,8=2,9=2,10=2,18=1,28=1/1;
 7/8=1,10=1,25=1/1,2,3,16;
 1/10=4,30=1/3;
 99//99;
 Leave Link    1 at Mon Jun 20 06:47:22 2016, MaxMem=           0 cpu:         0.3
 (Enter /home/proyectos/fulerenos/M3C-v1.9/M3C-deps_CCC/g09-AM64L-G09RevC.01/l101.exe)
 ---------
 b3lyp opt
 ---------
 Symbolic Z-matrix:
 Charge =  1 Multiplicity = 4
 H                     1.84278  -0.37292   1.21163 
 C                     0.38272  -0.80677  -0.34675 
 C                    -0.69485  -0.03014   0.06237 
 C                    -2.04557   0.05194   0.08765 
 H                    -2.91285  -0.58794   0.07502 
 C                     0.44733   0.83211  -0.01619 
 H                     0.51851   1.77708  -0.55082 
 C                     1.5935   -0.1707    0.17106 
 H                     2.45278  -0.0749   -0.48459 
 
 NAtoms=      9 NQM=        9 NQMF=       0 NMMI=      0 NMMIF=      0
                NMic=       0 NMicF=      0.
                    Isotopes and Nuclear Properties:
 (Nuclear quadrupole moments (NQMom) in fm**2, nuclear magnetic moments (NMagM)
  in nuclear magnetons)

  Atom         1           2           3           4           5           6           7           8           9
 IAtWgt=           1          12          12          12           1          12           1          12           1
 AtmWgt=   1.0078250  12.0000000  12.0000000  12.0000000   1.0078250  12.0000000   1.0078250  12.0000000   1.0078250
 NucSpn=           1           0           0           0           1           0           1           0           1
 AtZEff=   0.0000000   0.0000000   0.0000000   0.0000000   0.0000000   0.0000000   0.0000000   0.0000000   0.0000000
 NQMom=    0.0000000   0.0000000   0.0000000   0.0000000   0.0000000   0.0000000   0.0000000   0.0000000   0.0000000
 NMagM=    2.7928460   0.0000000   0.0000000   0.0000000   2.7928460   0.0000000   2.7928460   0.0000000   2.7928460
 AtZNuc=   1.0000000   6.0000000   6.0000000   6.0000000   1.0000000   6.0000000   1.0000000   6.0000000   1.0000000
 Leave Link  101 at Mon Jun 20 06:47:22 2016, MaxMem=    33554432 cpu:         0.2
 (Enter /home/proyectos/fulerenos/M3C-v1.9/M3C-deps_CCC/g09-AM64L-G09RevC.01/l103.exe)

 GradGradGradGradGradGradGradGradGradGradGradGradGradGradGradGradGradGrad
 Berny optimization.
 Initialization pass.
 Trust Radius=3.00D-01 FncErr=1.00D-07 GrdErr=1.00D-07
 Number of steps in this run=      2 maximum allowed number of steps=      2.
 GradGradGradGradGradGradGradGradGradGradGradGradGradGradGradGradGradGrad

 Leave Link  103 at Mon Jun 20 06:47:22 2016, MaxMem=    33554432 cpu:         0.0
 (Enter /home/proyectos/fulerenos/M3C-v1.9/M3C-deps_CCC/g09-AM64L-G09RevC.01/l202.exe)
                          Input orientation:                          
 ---------------------------------------------------------------------
 Center     Atomic      Atomic             Coordinates (Angstroms)
 Number     Number       Type             X           Y           Z
 ---------------------------------------------------------------------
      1          1           0        1.842775   -0.372922    1.211628
      2          6           0        0.382721   -0.806767   -0.346754
      3          6           0       -0.694848   -0.030143    0.062370
      4          6           0       -2.045572    0.051941    0.087648
      5          1           0       -2.912850   -0.587939    0.075023
      6          6           0        0.447328    0.832111   -0.016191
      7          1           0        0.518511    1.777083   -0.550818
      8          6           0        1.593501   -0.170696    0.171055
      9          1           0        2.452778   -0.074899   -0.484594
 ---------------------------------------------------------------------
                    Distance matrix (angstroms):
                    1          2          3          4          5
     1  H    0.000000
     2  C    2.179113   0.000000
     3  C    2.806746   1.389850   0.000000
     4  C    4.069777   2.612028   1.353452   0.000000
     5  H    4.894290   3.329650   2.287101   1.077858   0.000000
     6  C    2.215156   1.673131   1.433255   2.614192   3.649063
     7  H    3.079353   2.595450   2.261483   3.155674   4.214172
     8  C    1.088956   1.462430   2.295236   3.646831   4.526645
     9  H    1.827044   2.199947   3.195109   4.536375   5.419072
                    6          7          8          9
     6  C    0.000000
     7  H    1.088056   0.000000
     8  C    1.534404   2.338920   0.000000
     9  H    2.250311   2.678733   1.085085   0.000000
 Stoichiometry    C5H4(1+,4)
 Framework group  C1[X(C5H4)]
 Deg. of freedom    21
 Full point group                 C1      NOp   1
 Largest Abelian subgroup         C1      NOp   1
 Largest concise Abelian subgroup C1      NOp   1
                         Standard orientation:                         
 ---------------------------------------------------------------------
 Center     Atomic      Atomic             Coordinates (Angstroms)
 Number     Number       Type             X           Y           Z
 ---------------------------------------------------------------------
      1          1           0        1.842775   -0.372922    1.211628
      2          6           0        0.382721   -0.806767   -0.346754
      3          6           0       -0.694848   -0.030143    0.062370
      4          6           0       -2.045572    0.051941    0.087648
      5          1           0       -2.912850   -0.587939    0.075023
      6          6           0        0.447328    0.832111   -0.016191
      7          1           0        0.518511    1.777083   -0.550818
      8          6           0        1.593501   -0.170696    0.171055
      9          1           0        2.452778   -0.074899   -0.484594
 ---------------------------------------------------------------------
 Rotational constants (GHZ):     20.9657402      4.4817557      3.9117704
 Leave Link  202 at Mon Jun 20 06:47:22 2016, MaxMem=    33554432 cpu:         0.0
 (Enter /home/proyectos/fulerenos/M3C-v1.9/M3C-deps_CCC/g09-AM64L-G09RevC.01/l301.exe)
 Standard basis: 6-311++G(3df,2p) (5D, 7F)
 Ernie: Thresh=  0.10000D-02 Tol=  0.10000D-05 Strict=F.
 There are   265 symmetry adapted cartesian basis functions of A   symmetry.
 There are   235 symmetry adapted basis functions of A   symmetry.
   235 basis functions,   338 primitive gaussians,   265 cartesian basis functions
    18 alpha electrons       15 beta electrons
       nuclear repulsion energy       136.9562179828 Hartrees.
 IExCor=  402 DFT=T Ex+Corr=B3LYP ExCW=0 ScaHFX=  0.200000
 ScaDFX=  0.800000  0.720000  1.000000  0.810000 ScalE2=  1.000000  1.000000
 IRadAn=      0 IRanWt=     -1 IRanGd=            0 ICorTp=0 IEmpDi=  4
 NAtoms=    9 NActive=    9 NUniq=    9 SFac= 1.00D+00 NAtFMM=   60 NAOKFM=F Big=F
 Integral buffers will be    131072 words long.
 Raffenetti 2 integral format.
 Two-electron integral symmetry is turned on.
 Leave Link  301 at Mon Jun 20 06:47:22 2016, MaxMem=    33554432 cpu:         0.2
 (Enter /home/proyectos/fulerenos/M3C-v1.9/M3C-deps_CCC/g09-AM64L-G09RevC.01/l302.exe)
 NPDir=0 NMtPBC=     1 NCelOv=     1 NCel=       1 NClECP=     1 NCelD=      1
         NCelK=      1 NCelE2=     1 NClLst=     1 CellRange=     0.0.
 One-electron integrals computed using PRISM.
 NBasis=   235 RedAO= T EigKep=  8.08D-06  NBF=   235
 NBsUse=   235 1.00D-06 EigRej= -1.00D+00 NBFU=   235
 Precomputing XC quadrature grid using
 IXCGrd= 4 IRadAn=           0 IRanWt=          -1 IRanGd=           0 AccXCQ= 0.00D+00.
 Generated NRdTot=       0 NPtTot=           0 NUsed=           0 NTot=          32
 NSgBfM=   265   265   265   265   265 MxSgAt=     9 MxSgA2=     9.
 Leave Link  302 at Mon Jun 20 06:47:23 2016, MaxMem=    33554432 cpu:         1.3
 (Enter /home/proyectos/fulerenos/M3C-v1.9/M3C-deps_CCC/g09-AM64L-G09RevC.01/l303.exe)
 DipDrv:  MaxL=1.
 Leave Link  303 at Mon Jun 20 06:47:23 2016, MaxMem=    33554432 cpu:         0.1
 (Enter /home/proyectos/fulerenos/M3C-v1.9/M3C-deps_CCC/g09-AM64L-G09RevC.01/l401.exe)
 ExpMin= 3.60D-02 ExpMax= 4.56D+03 ExpMxC= 6.82D+02 IAcc=3 IRadAn=         5 AccDes= 0.00D+00
 Harris functional with IExCor=  402 and IRadAn=       5 diagonalized for initial guess.
 HarFok:  IExCor=  402 AccDes= 0.00D+00 IRadAn=         5 IDoV= 1 UseB2=F ITyADJ=14
 ICtDFT=  3500011 ScaDFX=  1.000000  1.000000  1.000000  1.000000
 FoFCou: FMM=F IPFlag=           0 FMFlag=      100000 FMFlg1=           0
         NFxFlg=           0 DoJE=T BraDBF=F KetDBF=T FulRan=T
         wScrn=  0.000000 ICntrl=     500 IOpCl=  0 I1Cent=   200000004 NGrid=           0
         NMat0=    1 NMatS0=      1 NMatT0=    0 NMatD0=    1 NMtDS0=    0 NMtDT0=    0
 Petite list used in FoFCou.
 Harris En= -192.391810088281    
 JPrj=0 DoOrth=F DoCkMO=F.
 Initial guess <Sx>= 0.0000 <Sy>= 0.0000 <Sz>= 1.5000 <S**2>= 3.7500 S= 1.5000
 Leave Link  401 at Mon Jun 20 06:47:26 2016, MaxMem=    33554432 cpu:        11.5
 (Enter /home/proyectos/fulerenos/M3C-v1.9/M3C-deps_CCC/g09-AM64L-G09RevC.01/l502.exe)
 UHF open shell SCF:
 Using DIIS extrapolation, IDIIS=  1040.
 Integral symmetry usage will be decided dynamically.
 IVT=      232727 IEndB=      232727 NGot=    33554432 MDV=    33408836
 LenX=    33408836 LenY=    33338170
 Requested convergence on RMS density matrix=1.00D-08 within 128 cycles.
 Requested convergence on MAX density matrix=1.00D-06.
 Requested convergence on             energy=1.00D-06.
 No special actions if energy rises.
 Fock matrices will be formed incrementally for  20 cycles.

 Cycle   1  Pass 1  IDiag  1:
 FoFJK:  IHMeth= 1 ICntrl=       0 DoSepK=F KAlg= 0 I1Cent=   0 FoldK=F
 IRaf= 980000000 NMat=   1 IRICut=       1 DoRegI=T DoRafI=F ISym2E= 0.
 FoFCou: FMM=F IPFlag=           0 FMFlag=      100000 FMFlg1=           0
         NFxFlg=           0 DoJE=F BraDBF=F KetDBF=F FulRan=T
         wScrn=  0.000000 ICntrl=       0 IOpCl=  1 I1Cent=           0 NGrid=           0
         NMat0=    1 NMatS0=      1 NMatT0=    0 NMatD0=    1 NMtDS0=    0 NMtDT0=    0
 Symmetry not used in FoFCou.
 E= -192.367812260370    
 DIIS: error= 9.85D-03 at cycle   1 NSaved=   1.
 NSaved= 1 IEnMin= 1 EnMin= -192.367812260370     IErMin= 1 ErrMin= 9.85D-03
 ErrMax= 9.85D-03  0.00D+00 EMaxC= 1.00D-01 BMatC= 2.33D-01 BMatP= 2.33D-01
 IDIUse=3 WtCom= 9.02D-01 WtEn= 9.85D-02
 Coeff-Com:  0.100D+01
 Coeff-En:   0.100D+01
 Coeff:      0.100D+01
 Gap=     0.201 Goal=   None    Shift=    0.000
 Gap=     0.172 Goal=   None    Shift=    0.000
 GapD=    0.172 DampG=1.000 DampE=1.000 DampFc=1.0000 IDamp=-1.
 RMSDP=2.81D-03 MaxDP=1.80D-01              OVMax= 1.16D-01

 Cycle   2  Pass 1  IDiag  1:
 RMSU=  2.80D-03    CP:  1.01D+00
 E= -192.373580576492     Delta-E=       -0.005768316121 Rises=F Damp=F
 DIIS: error= 1.04D-02 at cycle   2 NSaved=   2.
 NSaved= 2 IEnMin= 2 EnMin= -192.373580576492     IErMin= 1 ErrMin= 9.85D-03
 ErrMax= 1.04D-02  0.00D+00 EMaxC= 1.00D-01 BMatC= 1.95D-01 BMatP= 2.33D-01
 IDIUse=3 WtCom= 8.96D-01 WtEn= 1.04D-01
 Coeff-Com:  0.474D+00 0.526D+00
 Coeff-En:   0.466D+00 0.534D+00
 Coeff:      0.473D+00 0.527D+00
 Gap=     0.210 Goal=   None    Shift=    0.000
 Gap=     0.202 Goal=   None    Shift=    0.000
 RMSDP=1.54D-03 MaxDP=1.04D-01 DE=-5.77D-03 OVMax= 8.90D-02

 Cycle   3  Pass 1  IDiag  1:
 RMSU=  1.21D-03    CP:  1.04D+00  6.91D-01
 E= -192.417305925912     Delta-E=       -0.043725349421 Rises=F Damp=F
 DIIS: error= 5.61D-03 at cycle   3 NSaved=   3.
 NSaved= 3 IEnMin= 3 EnMin= -192.417305925912     IErMin= 3 ErrMin= 5.61D-03
 ErrMax= 5.61D-03  0.00D+00 EMaxC= 1.00D-01 BMatC= 1.88D-02 BMatP= 1.95D-01
 IDIUse=3 WtCom= 9.44D-01 WtEn= 5.61D-02
 Coeff-Com:  0.949D-01 0.249D+00 0.656D+00
 Coeff-En:   0.000D+00 0.792D-02 0.992D+00
 Coeff:      0.896D-01 0.236D+00 0.675D+00
 Gap=     0.205 Goal=   None    Shift=    0.000
 Gap=     0.194 Goal=   None    Shift=    0.000
 RMSDP=6.04D-04 MaxDP=4.19D-02 DE=-4.37D-02 OVMax= 3.63D-02

 Cycle   4  Pass 1  IDiag  1:
 RMSU=  5.11D-04    CP:  1.04D+00  7.83D-01  8.43D-01
 E= -192.420647182593     Delta-E=       -0.003341256681 Rises=F Damp=F
 DIIS: error= 4.17D-03 at cycle   4 NSaved=   4.
 NSaved= 4 IEnMin= 4 EnMin= -192.420647182593     IErMin= 4 ErrMin= 4.17D-03
 ErrMax= 4.17D-03  0.00D+00 EMaxC= 1.00D-01 BMatC= 6.83D-03 BMatP= 1.88D-02
 IDIUse=3 WtCom= 9.58D-01 WtEn= 4.17D-02
 Coeff-Com: -0.120D-02 0.883D-01 0.438D+00 0.475D+00
 Coeff-En:   0.000D+00 0.000D+00 0.259D+00 0.741D+00
 Coeff:     -0.115D-02 0.846D-01 0.431D+00 0.486D+00
 Gap=     0.204 Goal=   None    Shift=    0.000
 Gap=     0.194 Goal=   None    Shift=    0.000
 RMSDP=2.68D-04 MaxDP=1.38D-02 DE=-3.34D-03 OVMax= 1.81D-02

 Cycle   5  Pass 1  IDiag  1:
 RMSU=  1.66D-04    CP:  1.04D+00  7.88D-01  9.57D-01  6.90D-01
 E= -192.422486983765     Delta-E=       -0.001839801172 Rises=F Damp=F
 DIIS: error= 4.88D-04 at cycle   5 NSaved=   5.
 NSaved= 5 IEnMin= 5 EnMin= -192.422486983765     IErMin= 5 ErrMin= 4.88D-04
 ErrMax= 4.88D-04  0.00D+00 EMaxC= 1.00D-01 BMatC= 3.10D-04 BMatP= 6.83D-03
 IDIUse=3 WtCom= 9.95D-01 WtEn= 4.88D-03
 Coeff-Com: -0.157D-01-0.642D-02 0.617D-01 0.195D+00 0.766D+00
 Coeff-En:   0.000D+00 0.000D+00 0.000D+00 0.000D+00 0.100D+01
 Coeff:     -0.156D-01-0.639D-02 0.614D-01 0.194D+00 0.767D+00
 Gap=     0.204 Goal=   None    Shift=    0.000
 Gap=     0.195 Goal=   None    Shift=    0.000
 RMSDP=7.79D-05 MaxDP=5.46D-03 DE=-1.84D-03 OVMax= 5.42D-03

 Cycle   6  Pass 1  IDiag  1:
 RMSU=  5.55D-05    CP:  1.04D+00  8.02D-01  9.76D-01  7.48D-01  9.92D-01
 E= -192.422592256279     Delta-E=       -0.000105272513 Rises=F Damp=F
 DIIS: error= 2.06D-04 at cycle   6 NSaved=   6.
 NSaved= 6 IEnMin= 6 EnMin= -192.422592256279     IErMin= 6 ErrMin= 2.06D-04
 ErrMax= 2.06D-04  0.00D+00 EMaxC= 1.00D-01 BMatC= 3.80D-05 BMatP= 3.10D-04
 IDIUse=3 WtCom= 9.98D-01 WtEn= 2.06D-03
 Coeff-Com: -0.397D-02-0.149D-01-0.487D-01-0.862D-02 0.254D+00 0.823D+00
 Coeff-En:   0.000D+00 0.000D+00 0.000D+00 0.000D+00 0.000D+00 0.100D+01
 Coeff:     -0.396D-02-0.148D-01-0.486D-01-0.860D-02 0.253D+00 0.823D+00
 Gap=     0.204 Goal=   None    Shift=    0.000
 Gap=     0.195 Goal=   None    Shift=    0.000
 RMSDP=3.97D-05 MaxDP=1.81D-03 DE=-1.05D-04 OVMax= 2.35D-03

 Cycle   7  Pass 1  IDiag  1:
 RMSU=  3.25D-05    CP:  1.04D+00  8.04D-01  9.86D-01  7.77D-01  1.01D+00
                    CP:  9.01D-01
 E= -192.422608619402     Delta-E=       -0.000016363123 Rises=F Damp=F
 DIIS: error= 1.07D-04 at cycle   7 NSaved=   7.
 NSaved= 7 IEnMin= 7 EnMin= -192.422608619402     IErMin= 7 ErrMin= 1.07D-04
 ErrMax= 1.07D-04  0.00D+00 EMaxC= 1.00D-01 BMatC= 9.94D-06 BMatP= 3.80D-05
 IDIUse=3 WtCom= 9.99D-01 WtEn= 1.07D-03
 Coeff-Com:  0.612D-03-0.570D-02-0.324D-01-0.359D-01-0.158D-01 0.381D+00
 Coeff-Com:  0.708D+00
 Coeff-En:   0.000D+00 0.000D+00 0.000D+00 0.000D+00 0.000D+00 0.000D+00
 Coeff-En:   0.100D+01
 Coeff:      0.611D-03-0.570D-02-0.324D-01-0.358D-01-0.158D-01 0.381D+00
 Coeff:      0.708D+00
 Gap=     0.204 Goal=   None    Shift=    0.000
 Gap=     0.196 Goal=   None    Shift=    0.000
 RMSDP=1.78D-05 MaxDP=6.14D-04 DE=-1.64D-05 OVMax= 1.68D-03

 Cycle   8  Pass 1  IDiag  1:
 RMSU=  1.26D-05    CP:  1.04D+00  8.04D-01  9.91D-01  7.88D-01  1.04D+00
                    CP:  1.02D+00  9.84D-01
 E= -192.422611954802     Delta-E=       -0.000003335400 Rises=F Damp=F
 DIIS: error= 5.63D-05 at cycle   8 NSaved=   8.
 NSaved= 8 IEnMin= 8 EnMin= -192.422611954802     IErMin= 8 ErrMin= 5.63D-05
 ErrMax= 5.63D-05  0.00D+00 EMaxC= 1.00D-01 BMatC= 3.06D-06 BMatP= 9.94D-06
 IDIUse=1 WtCom= 1.00D+00 WtEn= 0.00D+00
 Coeff-Com:  0.111D-02-0.512D-03-0.101D-01-0.194D-01-0.543D-01 0.693D-01
 Coeff-Com:  0.420D+00 0.594D+00
 Coeff:      0.111D-02-0.512D-03-0.101D-01-0.194D-01-0.543D-01 0.693D-01
 Coeff:      0.420D+00 0.594D+00
 Gap=     0.204 Goal=   None    Shift=    0.000
 Gap=     0.196 Goal=   None    Shift=    0.000
 RMSDP=9.50D-06 MaxDP=4.98D-04 DE=-3.34D-06 OVMax= 5.02D-04

 Cycle   9  Pass 1  IDiag  1:
 RMSU=  5.72D-06    CP:  1.04D+00  8.04D-01  9.88D-01  7.86D-01  1.04D+00
                    CP:  1.06D+00  1.12D+00  7.71D-01
 E= -192.422613012341     Delta-E=       -0.000001057539 Rises=F Damp=F
 DIIS: error= 1.65D-05 at cycle   9 NSaved=   9.
 NSaved= 9 IEnMin= 9 EnMin= -192.422613012341     IErMin= 9 ErrMin= 1.65D-05
 ErrMax= 1.65D-05  0.00D+00 EMaxC= 1.00D-01 BMatC= 1.48D-07 BMatP= 3.06D-06
 IDIUse=1 WtCom= 1.00D+00 WtEn= 0.00D+00
 Coeff-Com:  0.218D-03 0.867D-03 0.245D-02 0.488D-03-0.974D-02-0.474D-01
 Coeff-Com: -0.180D-01 0.135D+00 0.936D+00
 Coeff:      0.218D-03 0.867D-03 0.245D-02 0.488D-03-0.974D-02-0.474D-01
 Coeff:     -0.180D-01 0.135D+00 0.936D+00
 Gap=     0.204 Goal=   None    Shift=    0.000
 Gap=     0.196 Goal=   None    Shift=    0.000
 RMSDP=2.82D-06 MaxDP=1.60D-04 DE=-1.06D-06 OVMax= 4.06D-04

 Cycle  10  Pass 1  IDiag  1:
 RMSU=  1.66D-06    CP:  1.04D+00  8.04D-01  9.88D-01  7.86D-01  1.04D+00
                    CP:  1.06D+00  1.17D+00  8.77D-01  1.14D+00
 E= -192.422613109119     Delta-E=       -0.000000096778 Rises=F Damp=F
 DIIS: error= 7.45D-06 at cycle  10 NSaved=  10.
 NSaved=10 IEnMin=10 EnMin= -192.422613109119     IErMin=10 ErrMin= 7.45D-06
 ErrMax= 7.45D-06  0.00D+00 EMaxC= 1.00D-01 BMatC= 6.37D-08 BMatP= 1.48D-07
 IDIUse=1 WtCom= 1.00D+00 WtEn= 0.00D+00
 Coeff-Com: -0.323D-04 0.545D-03 0.268D-02 0.283D-02 0.187D-02-0.356D-01
 Coeff-Com: -0.570D-01-0.346D-02 0.488D+00 0.600D+00
 Coeff:     -0.323D-04 0.545D-03 0.268D-02 0.283D-02 0.187D-02-0.356D-01
 Coeff:     -0.570D-01-0.346D-02 0.488D+00 0.600D+00
 Gap=     0.204 Goal=   None    Shift=    0.000
 Gap=     0.196 Goal=   None    Shift=    0.000
 RMSDP=1.11D-06 MaxDP=7.06D-05 DE=-9.68D-08 OVMax= 7.90D-05

 Cycle  11  Pass 1  IDiag  1:
 RMSU=  7.26D-07    CP:  1.04D+00  8.04D-01  9.88D-01  7.85D-01  1.04D+00
                    CP:  1.07D+00  1.18D+00  9.00D-01  1.24D+00  1.01D+00
 E= -192.422613129892     Delta-E=       -0.000000020773 Rises=F Damp=F
 DIIS: error= 2.68D-06 at cycle  11 NSaved=  11.
 NSaved=11 IEnMin=11 EnMin= -192.422613129892     IErMin=11 ErrMin= 2.68D-06
 ErrMax= 2.68D-06  0.00D+00 EMaxC= 1.00D-01 BMatC= 7.92D-09 BMatP= 6.37D-08
 IDIUse=1 WtCom= 1.00D+00 WtEn= 0.00D+00
 Coeff-Com: -0.557D-04-0.515D-04 0.190D-03 0.729D-03 0.333D-02-0.175D-02
 Coeff-Com: -0.147D-01-0.409D-01-0.433D-01 0.232D+00 0.865D+00
 Coeff:     -0.557D-04-0.515D-04 0.190D-03 0.729D-03 0.333D-02-0.175D-02
 Coeff:     -0.147D-01-0.409D-01-0.433D-01 0.232D+00 0.865D+00
 Gap=     0.204 Goal=   None    Shift=    0.000
 Gap=     0.196 Goal=   None    Shift=    0.000
 RMSDP=6.69D-07 MaxDP=3.65D-05 DE=-2.08D-08 OVMax= 7.03D-05

 Cycle  12  Pass 1  IDiag  1:
 RMSU=  3.25D-07    CP:  1.04D+00  8.04D-01  9.88D-01  7.85D-01  1.04D+00
                    CP:  1.07D+00  1.18D+00  9.08D-01  1.31D+00  1.20D+00
                    CP:  9.60D-01
 E= -192.422613134522     Delta-E=       -0.000000004630 Rises=F Damp=F
 DIIS: error= 9.04D-07 at cycle  12 NSaved=  12.
 NSaved=12 IEnMin=12 EnMin= -192.422613134522     IErMin=12 ErrMin= 9.04D-07
 ErrMax= 9.04D-07  0.00D+00 EMaxC= 1.00D-01 BMatC= 6.50D-10 BMatP= 7.92D-09
 IDIUse=1 WtCom= 1.00D+00 WtEn= 0.00D+00
 Coeff-Com: -0.181D-05-0.812D-04-0.337D-03-0.334D-03 0.226D-03 0.448D-02
 Coeff-Com:  0.650D-02-0.290D-02-0.691D-01-0.941D-01 0.103D+00 0.105D+01
 Coeff:     -0.181D-05-0.812D-04-0.337D-03-0.334D-03 0.226D-03 0.448D-02
 Coeff:      0.650D-02-0.290D-02-0.691D-01-0.941D-01 0.103D+00 0.105D+01
 Gap=     0.204 Goal=   None    Shift=    0.000
 Gap=     0.196 Goal=   None    Shift=    0.000
 RMSDP=2.30D-07 MaxDP=1.03D-05 DE=-4.63D-09 OVMax= 2.75D-05

 Cycle  13  Pass 1  IDiag  1:
 RMSU=  9.45D-08    CP:  1.04D+00  8.04D-01  9.88D-01  7.85D-01  1.04D+00
                    CP:  1.07D+00  1.18D+00  9.08D-01  1.33D+00  1.27D+00
                    CP:  1.11D+00  1.12D+00
 E= -192.422613134999     Delta-E=       -0.000000000477 Rises=F Damp=F
 DIIS: error= 2.03D-07 at cycle  13 NSaved=  13.
 NSaved=13 IEnMin=13 EnMin= -192.422613134999     IErMin=13 ErrMin= 2.03D-07
 ErrMax= 2.03D-07  0.00D+00 EMaxC= 1.00D-01 BMatC= 3.19D-11 BMatP= 6.50D-10
 IDIUse=1 WtCom= 1.00D+00 WtEn= 0.00D+00
 Coeff-Com:  0.239D-05-0.113D-04-0.822D-04-0.980D-04-0.186D-03 0.905D-03
 Coeff-Com:  0.175D-02 0.236D-02-0.723D-02-0.336D-01-0.293D-01 0.158D+00
 Coeff-Com:  0.908D+00
 Coeff:      0.239D-05-0.113D-04-0.822D-04-0.980D-04-0.186D-03 0.905D-03
 Coeff:      0.175D-02 0.236D-02-0.723D-02-0.336D-01-0.293D-01 0.158D+00
 Coeff:      0.908D+00
 Gap=     0.204 Goal=   None    Shift=    0.000
 Gap=     0.196 Goal=   None    Shift=    0.000
 RMSDP=3.97D-08 MaxDP=1.55D-06 DE=-4.77D-10 OVMax= 3.89D-06

 Cycle  14  Pass 1  IDiag  1:
 RMSU=  2.42D-08    CP:  1.04D+00  8.04D-01  9.88D-01  7.85D-01  1.04D+00
                    CP:  1.07D+00  1.18D+00  9.09D-01  1.33D+00  1.28D+00
                    CP:  1.14D+00  1.17D+00  1.04D+00
 E= -192.422613135014     Delta-E=       -0.000000000015 Rises=F Damp=F
 DIIS: error= 5.73D-08 at cycle  14 NSaved=  14.
 NSaved=14 IEnMin=14 EnMin= -192.422613135014     IErMin=14 ErrMin= 5.73D-08
 ErrMax= 5.73D-08  0.00D+00 EMaxC= 1.00D-01 BMatC= 3.31D-12 BMatP= 3.19D-11
 IDIUse=1 WtCom= 1.00D+00 WtEn= 0.00D+00
 Coeff-Com:  0.734D-06 0.245D-05-0.165D-05-0.104D-05-0.631D-04-0.260D-04
 Coeff-Com:  0.128D-04 0.807D-03 0.247D-02-0.300D-02-0.137D-01-0.331D-01
 Coeff-Com:  0.231D+00 0.816D+00
 Coeff:      0.734D-06 0.245D-05-0.165D-05-0.104D-05-0.631D-04-0.260D-04
 Coeff:      0.128D-04 0.807D-03 0.247D-02-0.300D-02-0.137D-01-0.331D-01
 Coeff:      0.231D+00 0.816D+00
 Gap=     0.204 Goal=   None    Shift=    0.000
 Gap=     0.196 Goal=   None    Shift=    0.000
 RMSDP=1.08D-08 MaxDP=5.07D-07 DE=-1.52D-11 OVMax= 7.92D-07

 Cycle  15  Pass 1  IDiag  1:
 RMSU=  7.71D-09    CP:  1.04D+00  8.04D-01  9.88D-01  7.85D-01  1.04D+00
                    CP:  1.07D+00  1.18D+00  9.09D-01  1.33D+00  1.28D+00
                    CP:  1.14D+00  1.18D+00  1.09D+00  9.62D-01
 E= -192.422613135013     Delta-E=        0.000000000002 Rises=F Damp=F
 DIIS: error= 1.52D-08 at cycle  15 NSaved=  15.
 NSaved=15 IEnMin=14 EnMin= -192.422613135014     IErMin=15 ErrMin= 1.52D-08
 ErrMax= 1.52D-08  0.00D+00 EMaxC= 1.00D-01 BMatC= 2.33D-13 BMatP= 3.31D-12
 IDIUse=1 WtCom= 1.00D+00 WtEn= 0.00D+00
 Coeff-Com: -0.110D-06 0.163D-05 0.800D-05 0.969D-05 0.832D-05-0.994D-04
 Coeff-Com: -0.175D-03-0.910D-04 0.116D-02 0.270D-02 0.914D-03-0.216D-01
 Coeff-Com: -0.536D-01 0.147D+00 0.924D+00
 Coeff:     -0.110D-06 0.163D-05 0.800D-05 0.969D-05 0.832D-05-0.994D-04
 Coeff:     -0.175D-03-0.910D-04 0.116D-02 0.270D-02 0.914D-03-0.216D-01
 Coeff:     -0.536D-01 0.147D+00 0.924D+00
 Gap=     0.204 Goal=   None    Shift=    0.000
 Gap=     0.196 Goal=   None    Shift=    0.000
 RMSDP=3.53D-09 MaxDP=1.77D-07 DE= 1.53D-12 OVMax= 2.28D-07

 SCF Done:  E(UB3LYP) =  -192.422613135     A.U. after   15 cycles
            NFock= 15  Conv=0.35D-08     -V/T= 2.0045
 <Sx>= 0.0000 <Sy>= 0.0000 <Sz>= 1.5000 <S**2>= 3.7810 S= 1.5077
 <L.S>= 0.000000000000E+00
 KE= 1.915574769006D+02 PE=-7.117817768347D+02 EE= 1.908454688162D+02
 Annihilation of the first spin contaminant:
 S**2 before annihilation     3.7810,   after     3.7503
 Leave Link  502 at Mon Jun 20 06:50:24 2016, MaxMem=    33554432 cpu:       712.1
 (Enter /home/proyectos/fulerenos/M3C-v1.9/M3C-deps_CCC/g09-AM64L-G09RevC.01/l801.exe)
 DoSCS=F DFT=T ScalE2(SS,OS)=  1.000000  1.000000
 Range of M.O.s used for correlation:     1   235
 NBasis=   235 NAE=    18 NBE=    15 NFC=     0 NFV=     0
 NROrb=    235 NOA=    18 NOB=    15 NVA=   217 NVB=   220

 **** Warning!!: The largest alpha MO coefficient is  0.98078387D+02


 **** Warning!!: The largest beta MO coefficient is  0.11492676D+03

 Leave Link  801 at Mon Jun 20 06:50:24 2016, MaxMem=    33554432 cpu:         0.1
 (Enter /home/proyectos/fulerenos/M3C-v1.9/M3C-deps_CCC/g09-AM64L-G09RevC.01/l1101.exe)
 Using compressed storage, NAtomX=     9.
 Will process     10 centers per pass.
 Leave Link 1101 at Mon Jun 20 06:50:24 2016, MaxMem=    33554432 cpu:         1.2
 (Enter /home/proyectos/fulerenos/M3C-v1.9/M3C-deps_CCC/g09-AM64L-G09RevC.01/l1102.exe)
 Symmetrizing basis deriv contribution to polar:
 IMax=3 JMax=2 DiffMx= 0.00D+00
 Leave Link 1102 at Mon Jun 20 06:50:24 2016, MaxMem=    33554432 cpu:         0.1
 (Enter /home/proyectos/fulerenos/M3C-v1.9/M3C-deps_CCC/g09-AM64L-G09RevC.01/l1110.exe)
 Forming Gx(P) for the SCF density, NAtomX=     9.
 Integral derivatives from FoFJK, PRISM(SPDF).
 Do as many integral derivatives as possible in FoFJK.
 G2DrvN: MDV=      33554256.
 G2DrvN: will do    10 centers at a time, making    1 passes.
 Calling FoFCou, ICntrl=  3107 FMM=F I1Cent=   0 AccDes= 0.00D+00.
 FoFJK:  IHMeth= 1 ICntrl=    3107 DoSepK=F KAlg= 0 I1Cent=   0 FoldK=F
 IRaf=         0 NMat=   1 IRICut=       1 DoRegI=T DoRafI=F ISym2E= 0.
 FoFCou: FMM=F IPFlag=           0 FMFlag=      100000 FMFlg1=           0
         NFxFlg=           0 DoJE=F BraDBF=F KetDBF=F FulRan=T
         wScrn=  0.000000 ICntrl=    3107 IOpCl=  1 I1Cent=           0 NGrid=           0
         NMat0=    1 NMatS0=      1 NMatT0=    0 NMatD0=    1 NMtDS0=    0 NMtDT0=    0
 Symmetry not used in FoFCou.
 End of G2Drv F.D. properties file   721 does not exist.
 End of G2Drv F.D. properties file   722 does not exist.
 End of G2Drv F.D. properties file   788 does not exist.
 Leave Link 1110 at Mon Jun 20 06:52:41 2016, MaxMem=    33554432 cpu:       548.1
 (Enter /home/proyectos/fulerenos/M3C-v1.9/M3C-deps_CCC/g09-AM64L-G09RevC.01/l1002.exe)
 Minotr:  UHF open shell wavefunction.
          IDoAtm=111111111
          Direct CPHF calculation.
          Differentiating once with respect to electric field.
                with respect to dipole field.
          Differentiating once with respect to nuclear coordinates.
          Requested convergence is 1.0D-08 RMS, and 1.0D-07 maximum.
          Secondary convergence is 1.0D-12 RMS, and 1.0D-12 maximum.
          NewPWx=T KeepS1=F KeepF1=F KeepIn=T MapXYZ=F SortEE=F KeepMc=T.
          MDV=      33553868 using IRadAn=       2.
 Generate precomputed XC quadrature information.
          Solving linear equations simultaneously, MaxMat=       0.
 FoFJK:  IHMeth= 1 ICntrl=       0 DoSepK=F KAlg= 0 I1Cent=   0 FoldK=F
 IRaf= 980000000 NMat=  30 IRICut=      75 DoRegI=T DoRafI=T ISym2E= 2.
 FoFCou: FMM=F IPFlag=           0 FMFlag=      100000 FMFlg1=           0
         NFxFlg=           0 DoJE=F BraDBF=F KetDBF=F FulRan=T
         wScrn=  0.000000 ICntrl=       0 IOpCl=  1 I1Cent=           0 NGrid=           0
         NMat0=   30 NMatS0=     30 NMatT0=    0 NMatD0=   30 NMtDS0=    0 NMtDT0=    0
 Integrals replicated using symmetry in FoFCou.
          There are    30 degrees of freedom in the 1st order CPHF.  IDoFFX=6 NUNeed=     3.
     27 vectors produced by pass  0 Test12= 2.40D-14 3.33D-09 XBig12= 1.67D+02 5.78D+00.
 AX will form    27 AO Fock derivatives at one time.
     27 vectors produced by pass  1 Test12= 2.40D-14 3.33D-09 XBig12= 2.88D+01 9.14D-01.
     27 vectors produced by pass  2 Test12= 2.40D-14 3.33D-09 XBig12= 6.51D-01 1.69D-01.
     27 vectors produced by pass  3 Test12= 2.40D-14 3.33D-09 XBig12= 6.96D-03 1.14D-02.
     27 vectors produced by pass  4 Test12= 2.40D-14 3.33D-09 XBig12= 6.04D-05 1.12D-03.
     27 vectors produced by pass  5 Test12= 2.40D-14 3.33D-09 XBig12= 4.01D-07 6.92D-05.
     26 vectors produced by pass  6 Test12= 2.40D-14 3.33D-09 XBig12= 2.00D-09 3.38D-06.
      6 vectors produced by pass  7 Test12= 2.40D-14 3.33D-09 XBig12= 8.11D-12 2.73D-07.
      4 vectors produced by pass  8 Test12= 2.40D-14 3.33D-09 XBig12= 1.64D-13 7.77D-08.
      3 vectors produced by pass  9 Test12= 2.40D-14 3.33D-09 XBig12= 1.02D-14 1.76D-08.
      1 vectors produced by pass 10 Test12= 2.40D-14 3.33D-09 XBig12= 1.28D-16 3.36D-09.
 InvSVY:  IOpt=1 It=  1 EMax= 5.33D-15
 Solved reduced A of dimension   202 with    30 vectors.
 FullF1:  Do perturbations    1 to     3.
 Isotropic polarizability for W=    0.000000       48.97 Bohr**3.
 End of Minotr F.D. properties file   721 does not exist.
 End of Minotr F.D. properties file   722 does not exist.
 End of Minotr F.D. properties file   788 does not exist.
 Leave Link 1002 at Mon Jun 20 07:00:55 2016, MaxMem=    33554432 cpu:      1972.4
 (Enter /home/proyectos/fulerenos/M3C-v1.9/M3C-deps_CCC/g09-AM64L-G09RevC.01/l601.exe)
 Copying SCF densities to generalized density rwf, IOpCl= 1 IROHF=0.

 **********************************************************************

            Population analysis using the SCF density.

 **********************************************************************

 Orbital symmetries:
 Alpha Orbitals:
       Occupied  (A) (A) (A) (A) (A) (A) (A) (A) (A) (A) (A) (A)
                 (A) (A) (A) (A) (A) (A)
       Virtual   (A) (A) (A) (A) (A) (A) (A) (A) (A) (A) (A) (A)
                 (A) (A) (A) (A) (A) (A) (A) (A) (A) (A) (A) (A)
                 (A) (A) (A) (A) (A) (A) (A) (A) (A) (A) (A) (A)
                 (A) (A) (A) (A) (A) (A) (A) (A) (A) (A) (A) (A)
                 (A) (A) (A) (A) (A) (A) (A) (A) (A) (A) (A) (A)
                 (A) (A) (A) (A) (A) (A) (A) (A) (A) (A) (A) (A)
                 (A) (A) (A) (A) (A) (A) (A) (A) (A) (A) (A) (A)
                 (A) (A) (A) (A) (A) (A) (A) (A) (A) (A) (A) (A)
                 (A) (A) (A) (A) (A) (A) (A) (A) (A) (A) (A) (A)
                 (A) (A) (A) (A) (A) (A) (A) (A) (A) (A) (A) (A)
                 (A) (A) (A) (A) (A) (A) (A) (A) (A) (A) (A) (A)
                 (A) (A) (A) (A) (A) (A) (A) (A) (A) (A) (A) (A)
                 (A) (A) (A) (A) (A) (A) (A) (A) (A) (A) (A) (A)
                 (A) (A) (A) (A) (A) (A) (A) (A) (A) (A) (A) (A)
                 (A) (A) (A) (A) (A) (A) (A) (A) (A) (A) (A) (A)
                 (A) (A) (A) (A) (A) (A) (A) (A) (A) (A) (A) (A)
                 (A) (A) (A) (A) (A) (A) (A) (A) (A) (A) (A) (A)
                 (A) (A) (A) (A) (A) (A) (A) (A) (A) (A) (A) (A)
                 (A)
 Beta  Orbitals:
       Occupied  (A) (A) (A) (A) (A) (A) (A) (A) (A) (A) (A) (A)
                 (A) (A) (A)
       Virtual   (A) (A) (A) (A) (A) (A) (A) (A) (A) (A) (A) (A)
                 (A) (A) (A) (A) (A) (A) (A) (A) (A) (A) (A) (A)
                 (A) (A) (A) (A) (A) (A) (A) (A) (A) (A) (A) (A)
                 (A) (A) (A) (A) (A) (A) (A) (A) (A) (A) (A) (A)
                 (A) (A) (A) (A) (A) (A) (A) (A) (A) (A) (A) (A)
                 (A) (A) (A) (A) (A) (A) (A) (A) (A) (A) (A) (A)
                 (A) (A) (A) (A) (A) (A) (A) (A) (A) (A) (A) (A)
                 (A) (A) (A) (A) (A) (A) (A) (A) (A) (A) (A) (A)
                 (A) (A) (A) (A) (A) (A) (A) (A) (A) (A) (A) (A)
                 (A) (A) (A) (A) (A) (A) (A) (A) (A) (A) (A) (A)
                 (A) (A) (A) (A) (A) (A) (A) (A) (A) (A) (A) (A)
                 (A) (A) (A) (A) (A) (A) (A) (A) (A) (A) (A) (A)
                 (A) (A) (A) (A) (A) (A) (A) (A) (A) (A) (A) (A)
                 (A) (A) (A) (A) (A) (A) (A) (A) (A) (A) (A) (A)
                 (A) (A) (A) (A) (A) (A) (A) (A) (A) (A) (A) (A)
                 (A) (A) (A) (A) (A) (A) (A) (A) (A) (A) (A) (A)
                 (A) (A) (A) (A) (A) (A) (A) (A) (A) (A) (A) (A)
                 (A) (A) (A) (A) (A) (A) (A) (A) (A) (A) (A) (A)
                 (A) (A) (A) (A)
 The electronic state is 4-A.
 Alpha  occ. eigenvalues --  -10.50723 -10.49630 -10.47360 -10.45776 -10.44608
 Alpha  occ. eigenvalues --   -1.20504  -1.01014  -0.90576  -0.86603  -0.75460
 Alpha  occ. eigenvalues --   -0.73404  -0.69432  -0.66994  -0.64725  -0.59365
 Alpha  occ. eigenvalues --   -0.51556  -0.48385  -0.47528
 Alpha virt. eigenvalues --   -0.27116  -0.21759  -0.14517  -0.13538  -0.12793
 Alpha virt. eigenvalues --   -0.11823  -0.10154  -0.08335  -0.07240  -0.07059
 Alpha virt. eigenvalues --   -0.06316  -0.05284  -0.04694  -0.03452  -0.02824
 Alpha virt. eigenvalues --   -0.02000  -0.01416  -0.01061  -0.00267   0.00810
 Alpha virt. eigenvalues --    0.00995   0.01316   0.02008   0.03000   0.03335
 Alpha virt. eigenvalues --    0.03696   0.04919   0.05189   0.07795   0.07985
 Alpha virt. eigenvalues --    0.08598   0.10897   0.13884   0.14738   0.16831
 Alpha virt. eigenvalues --    0.17447   0.19784   0.20744   0.21727   0.22551
 Alpha virt. eigenvalues --    0.24382   0.26284   0.26924   0.27180   0.28177
 Alpha virt. eigenvalues --    0.30002   0.30766   0.33276   0.33938   0.34458
 Alpha virt. eigenvalues --    0.35845   0.36311   0.37146   0.38903   0.39383
 Alpha virt. eigenvalues --    0.40496   0.41815   0.42628   0.43317   0.45422
 Alpha virt. eigenvalues --    0.45934   0.47398   0.49516   0.53024   0.54357
 Alpha virt. eigenvalues --    0.55420   0.57428   0.64308   0.64714   0.67196
 Alpha virt. eigenvalues --    0.68738   0.69895   0.71348   0.75512   0.79272
 Alpha virt. eigenvalues --    0.84101   0.84989   0.87493   0.90104   0.91540
 Alpha virt. eigenvalues --    0.92527   0.95313   0.99290   1.00450   1.01653
 Alpha virt. eigenvalues --    1.03911   1.04677   1.06978   1.08288   1.10852
 Alpha virt. eigenvalues --    1.12385   1.14281   1.16410   1.19502   1.22783
 Alpha virt. eigenvalues --    1.25631   1.27112   1.30355   1.33342   1.35996
 Alpha virt. eigenvalues --    1.39741   1.40861   1.42733   1.47245   1.50863
 Alpha virt. eigenvalues --    1.56195   1.64010   1.67267   1.74416   1.76234
 Alpha virt. eigenvalues --    1.78169   1.79029   1.84779   1.89251   1.92072
 Alpha virt. eigenvalues --    1.96943   1.98935   2.03248   2.09641   2.26177
 Alpha virt. eigenvalues --    2.31467   2.37956   2.42448   2.43865   2.46954
 Alpha virt. eigenvalues --    2.50428   2.51693   2.56790   2.57919   2.59742
 Alpha virt. eigenvalues --    2.61135   2.62841   2.65336   2.67237   2.67651
 Alpha virt. eigenvalues --    2.74602   2.75341   2.78644   2.79360   2.84348
 Alpha virt. eigenvalues --    2.87083   2.87515   2.92551   2.96598   2.98855
 Alpha virt. eigenvalues --    3.00843   3.04563   3.08758   3.11240   3.12927
 Alpha virt. eigenvalues --    3.20849   3.24531   3.27340   3.31621   3.34283
 Alpha virt. eigenvalues --    3.49167   3.52518   3.55976   3.65357   3.66617
 Alpha virt. eigenvalues --    3.73701   3.76927   3.77647   3.87266   3.88653
 Alpha virt. eigenvalues --    3.93355   3.99396   4.03314   4.07377   4.13886
 Alpha virt. eigenvalues --    4.15676   4.23323   4.25473   4.34279   4.36501
 Alpha virt. eigenvalues --    4.46247   4.56775   4.62450   4.71329   4.77138
 Alpha virt. eigenvalues --    4.81966   5.10792   5.33372   5.41969   5.43883
 Alpha virt. eigenvalues --    5.71489   6.09555   6.72634   6.74409   6.79775
 Alpha virt. eigenvalues --    6.86659   6.89652   6.91683   6.96295   7.00878
 Alpha virt. eigenvalues --    7.02536   7.06479   7.15417   7.21503   7.26001
 Alpha virt. eigenvalues --    7.35001   7.39629   7.42101   7.43564   7.50769
 Alpha virt. eigenvalues --    7.69142   7.73386   7.90018   7.94923   8.18411
 Alpha virt. eigenvalues --    8.34638   8.60452  23.83353  24.40373  24.50760
 Alpha virt. eigenvalues --   24.82041  25.43722
  Beta  occ. eigenvalues --  -10.48898 -10.48808 -10.47569 -10.44540 -10.43238
  Beta  occ. eigenvalues --   -1.18691  -0.97958  -0.87548  -0.83782  -0.73156
  Beta  occ. eigenvalues --   -0.70146  -0.67787  -0.65216  -0.62596  -0.56527
  Beta virt. eigenvalues --   -0.36953  -0.33668  -0.30860  -0.23063  -0.18120
  Beta virt. eigenvalues --   -0.13780  -0.12975  -0.12263  -0.11181  -0.09635
  Beta virt. eigenvalues --   -0.08119  -0.06807  -0.06207  -0.05207  -0.04514
  Beta virt. eigenvalues --   -0.03928  -0.02734  -0.02337  -0.01358  -0.00834
  Beta virt. eigenvalues --   -0.00400   0.00293   0.00959   0.01471   0.01614
  Beta virt. eigenvalues --    0.02504   0.03690   0.03844   0.04173   0.05240
  Beta virt. eigenvalues --    0.06058   0.08578   0.08681   0.09468   0.11810
  Beta virt. eigenvalues --    0.15085   0.15809   0.17695   0.19032   0.20544
  Beta virt. eigenvalues --    0.22013   0.22973   0.23648   0.25523   0.27089
  Beta virt. eigenvalues --    0.27979   0.28624   0.30319   0.31546   0.33495
  Beta virt. eigenvalues --    0.34627   0.35384   0.35779   0.36659   0.37002
  Beta virt. eigenvalues --    0.38188   0.40144   0.40675   0.41547   0.43011
  Beta virt. eigenvalues --    0.43874   0.44275   0.46179   0.46993   0.47945
  Beta virt. eigenvalues --    0.50151   0.54125   0.55492   0.56588   0.58262
  Beta virt. eigenvalues --    0.65323   0.65792   0.67982   0.69514   0.70686
  Beta virt. eigenvalues --    0.72192   0.76659   0.80163   0.85323   0.85736
  Beta virt. eigenvalues --    0.88319   0.91307   0.92553   0.93455   0.96530
  Beta virt. eigenvalues --    1.00413   1.01464   1.02645   1.04525   1.05510
  Beta virt. eigenvalues --    1.07988   1.09967   1.11918   1.14391   1.16159
  Beta virt. eigenvalues --    1.17197   1.20833   1.25306   1.27498   1.28005
  Beta virt. eigenvalues --    1.32020   1.35961   1.40022   1.43500   1.45499
  Beta virt. eigenvalues --    1.46752   1.50576   1.54044   1.58582   1.66438
  Beta virt. eigenvalues --    1.69648   1.76392   1.78986   1.80707   1.81861
  Beta virt. eigenvalues --    1.87203   1.92750   1.94227   1.97903   2.00957
  Beta virt. eigenvalues --    2.06876   2.11917   2.28289   2.34107   2.39692
  Beta virt. eigenvalues --    2.45300   2.47295   2.49138   2.53056   2.54977
  Beta virt. eigenvalues --    2.59345   2.61218   2.63413   2.64761   2.66187
  Beta virt. eigenvalues --    2.68293   2.69901   2.71347   2.76658   2.78450
  Beta virt. eigenvalues --    2.81023   2.82528   2.86908   2.89288   2.90735
  Beta virt. eigenvalues --    2.95781   2.98606   3.01654   3.03633   3.06916
  Beta virt. eigenvalues --    3.11341   3.13801   3.14511   3.23308   3.26787
  Beta virt. eigenvalues --    3.29413   3.33336   3.36602   3.50995   3.54317
  Beta virt. eigenvalues --    3.57642   3.66973   3.68165   3.74982   3.78333
  Beta virt. eigenvalues --    3.79486   3.88560   3.90458   3.95149   4.01334
  Beta virt. eigenvalues --    4.04888   4.08231   4.15303   4.16774   4.24790
  Beta virt. eigenvalues --    4.27202   4.35427   4.37392   4.47854   4.58190
  Beta virt. eigenvalues --    4.64069   4.73155   4.78484   4.83559   5.12286
  Beta virt. eigenvalues --    5.34630   5.43310   5.44545   5.72710   6.11851
  Beta virt. eigenvalues --    6.79832   6.83311   6.85135   6.90715   6.93339
  Beta virt. eigenvalues --    6.94082   6.98890   7.03709   7.06705   7.11260
  Beta virt. eigenvalues --    7.19376   7.23727   7.30117   7.36097   7.43139
  Beta virt. eigenvalues --    7.44736   7.45405   7.52596   7.70542   7.75499
  Beta virt. eigenvalues --    7.92099   7.96096   8.19932   8.35812   8.61807
  Beta virt. eigenvalues --   23.84681  24.40799  24.52132  24.84021  25.44573
          Condensed to atoms (all electrons):
               1          2          3          4          5          6
     1  H    0.397490  -0.031952  -0.023589  -0.007944   0.000146  -0.019357
     2  C   -0.031952   7.896240  -0.668415  -0.547029   0.002122  -0.415854
     3  C   -0.023589  -0.668415   7.714735  -1.324894  -0.073428  -0.144065
     4  C   -0.007944  -0.547029  -1.324894   8.149334   0.418010  -0.458719
     5  H    0.000146   0.002122  -0.073428   0.418010   0.380089   0.000304
     6  C   -0.019357  -0.415854  -0.144065  -0.458719   0.000304   6.867462
     7  H   -0.000304  -0.019589  -0.038034   0.042493  -0.001019   0.375284
     8  C    0.447577  -0.325712  -0.083929  -0.067317   0.000859  -0.077410
     9  H   -0.017752  -0.086904   0.033765   0.001012   0.000052  -0.059362
               7          8          9
     1  H   -0.000304   0.447577  -0.017752
     2  C   -0.019589  -0.325712  -0.086904
     3  C   -0.038034  -0.083929   0.033765
     4  C    0.042493  -0.067317   0.001012
     5  H   -0.001019   0.000859   0.000052
     6  C    0.375284  -0.077410  -0.059362
     7  H    0.423735  -0.029430  -0.002647
     8  C   -0.029430   6.151507   0.499187
     9  H   -0.002647   0.499187   0.427094
          Atomic-Atomic Spin Densities.
               1          2          3          4          5          6
     1  H    0.055388  -0.031071   0.029366   0.017879   0.000017  -0.019293
     2  C   -0.031071   1.738200  -0.372446  -0.288615   0.001467   0.152123
     3  C    0.029366  -0.372446   0.559581  -0.316021   0.017163  -0.164298
     4  C    0.017879  -0.288615  -0.316021   2.323773  -0.024926  -0.101645
     5  H    0.000017   0.001467   0.017163  -0.024926   0.006104  -0.003170
     6  C   -0.019293   0.152123  -0.164298  -0.101645  -0.003170   0.720501
     7  H    0.001928  -0.024474   0.025597  -0.000392  -0.000189  -0.021141
     8  C   -0.000178  -0.112537  -0.011557  -0.031741   0.001276  -0.035501
     9  H   -0.009128   0.015508  -0.020942  -0.006278  -0.000143   0.005957
               7          8          9
     1  H    0.001928  -0.000178  -0.009128
     2  C   -0.024474  -0.112537   0.015508
     3  C    0.025597  -0.011557  -0.020942
     4  C   -0.000392  -0.031741  -0.006278
     5  H   -0.000189   0.001276  -0.000143
     6  C   -0.021141  -0.035501   0.005957
     7  H    0.049830  -0.000084  -0.000974
     8  C   -0.000084   0.159139   0.009508
     9  H   -0.000974   0.009508   0.025399
 Mulliken charges and spin densities:
               1          2
     1  H    0.255683   0.044908
     2  C    0.197094   1.078154
     3  C    0.607853  -0.253557
     4  C   -0.204947   1.572032
     5  H    0.272865  -0.002401
     6  C   -0.068283   0.533532
     7  H    0.249511   0.030102
     8  C   -0.515332  -0.021676
     9  H    0.205556   0.018907
 Sum of Mulliken charges =   1.00000   3.00000
 Mulliken charges and spin densities with hydrogens summed into heavy atoms:
               1          2
     2  C    0.197094   1.078154
     3  C    0.607853  -0.253557
     4  C    0.067919   1.569632
     6  C    0.181228   0.563633
     8  C   -0.054093   0.042138
 APT charges:
               1
     1  H    0.103650
     2  C    0.107618
     3  C    0.162748
     4  C    0.036746
     5  H    0.211839
     6  C   -0.037595
     7  H    0.174037
     8  C    0.107647
     9  H    0.133310
 Sum of APT charges =   1.00000
 APT charges with hydrogens summed into heavy atoms:
               1
     2  C    0.107618
     3  C    0.162748
     4  C    0.248585
     6  C    0.136442
     8  C    0.344607
 Electronic spatial extent (au):  <R**2>=            325.1685
 Charge=              1.0000 electrons
 Dipole moment (field-independent basis, Debye):
    X=              0.3767    Y=              0.3969    Z=             -0.0593  Tot=              0.5504
 Quadrupole moment (field-independent basis, Debye-Ang):
   XX=            -11.1830   YY=            -23.4221   ZZ=            -26.3404
   XY=              2.1114   XZ=              0.0805   YZ=             -1.2980
 Traceless Quadrupole moment (field-independent basis, Debye-Ang):
   XX=              9.1322   YY=             -3.1069   ZZ=             -6.0252
   XY=              2.1114   XZ=              0.0805   YZ=             -1.2980
 Octapole moment (field-independent basis, Debye-Ang**2):
  XXX=             -9.5212  YYY=              5.8199  ZZZ=              1.9597  XYY=              1.7290
  XXY=             -7.0155  XXZ=              1.2600  XZZ=              4.2715  YZZ=              0.3780
  YYZ=             -1.8112  XYZ=             -1.1299
 Hexadecapole moment (field-independent basis, Debye-Ang**3):
 XXXX=           -206.0819 YYYY=            -68.1998 ZZZZ=            -38.6005 XXXY=             18.7053
 XXXZ=             -2.6807 YYYX=              6.2162 YYYZ=             -5.1986 ZZZX=              3.7629
 ZZZY=             -2.7812 XXYY=            -64.1453 XXZZ=            -55.6250 YYZZ=            -19.4189
 XXYZ=             -2.4823 YYXZ=             -0.6330 ZZXY=             -0.0725
 N-N= 1.369562179828D+02 E-N=-7.117817764874D+02  KE= 1.915574769006D+02
  Exact polarizability:  72.246   0.399  42.083   0.209   0.505  32.595
 Approx polarizability: 107.763  -0.336  74.718  -0.194   4.334  48.104
                          Isotropic Fermi Contact Couplings
        Atom                 a.u.       MegaHertz       Gauss      10(-4) cm-1
     1  H(1)               0.02451      36.51265      13.02862      12.17931
     2  C(13)              0.45007     168.65453      60.18013      56.25710
     3  C(13)             -0.03108     -11.64744      -4.15609      -3.88517
     4  C(13)              0.33048     123.84257      44.19011      41.30943
     5  H(1)              -0.00638      -9.50378      -3.39118      -3.17012
     6  C(13)              0.13490      50.55017      18.03756      16.86172
     7  H(1)               0.01532      22.82094       8.14308       7.61225
     8  C(13)             -0.00236      -0.88521      -0.31587      -0.29528
     9  H(1)               0.00870      12.96962       4.62788       4.32620
 --------------------------------------------------------
       Center         ----  Spin Dipole Couplings  ----
                      3XX-RR        3YY-RR        3ZZ-RR
 --------------------------------------------------------
     1   Atom        0.001894     -0.010176      0.008282
     2   Atom       -0.530178     -0.095205      0.625382
     3   Atom        0.175286      0.021119     -0.196405
     4   Atom       -0.868184      0.542436      0.325748
     5   Atom        0.077856     -0.008865     -0.068991
     6   Atom       -0.231736     -0.315040      0.546776
     7   Atom       -0.029697      0.050119     -0.020422
     8   Atom       -0.013690      0.038788     -0.025098
     9   Atom        0.027759     -0.011639     -0.016120
 --------------------------------------------------------
                        XY            XZ            YZ
 --------------------------------------------------------
     1   Atom       -0.004076      0.021369     -0.001696
     2   Atom        0.046700     -0.033980      0.445445
     3   Atom       -0.034810     -0.064321      0.028592
     4   Atom       -0.428499      0.002683      0.077661
     5   Atom        0.086843     -0.001661      0.002694
     6   Atom        0.010687     -0.026598      0.115003
     7   Atom        0.012187     -0.004791     -0.015313
     8   Atom        0.039650      0.036525      0.043648
     9   Atom        0.008428     -0.007716      0.000076
 --------------------------------------------------------


 ---------------------------------------------------------------------------------
              Anisotropic Spin Dipole Couplings in Principal Axis System
 ---------------------------------------------------------------------------------

       Atom             a.u.   MegaHertz   Gauss  10(-4) cm-1        Axes

              Baa    -0.0171    -9.131    -3.258    -3.046  0.7421  0.2880 -0.6052
     1 H(1)   Bbb    -0.0100    -5.335    -1.904    -1.779 -0.1522  0.9518  0.2663
              Bcc     0.0271    14.466     5.162     4.825  0.6527 -0.1055  0.7502
 
              Baa    -0.5439   -72.988   -26.044   -24.346  0.9722 -0.2078  0.1074
     2 C(13)  Bbb    -0.2942   -39.475   -14.086   -13.167  0.2338  0.8784 -0.4169
              Bcc     0.8381   112.463    40.130    37.514 -0.0077  0.4304  0.9026
 
              Baa    -0.2094   -28.105   -10.028    -9.375  0.1554 -0.0984  0.9829
     3 C(13)  Bbb     0.0145     1.945     0.694     0.649  0.2341  0.9703  0.0601
              Bcc     0.1949    26.160     9.335     8.726  0.9597 -0.2208 -0.1739
 
              Baa    -0.9886  -132.656   -47.335   -44.249  0.9626  0.2703 -0.0179
     4 C(13)  Bbb     0.3106    41.677    14.871    13.902  0.0726 -0.1936  0.9784
              Bcc     0.6780    90.979    32.464    30.347 -0.2610  0.9431  0.2059
 
              Baa    -0.0703   -37.503   -13.382   -12.510  0.1995 -0.3227  0.9252
     5 H(1)   Bbb    -0.0613   -32.692   -11.665   -10.905 -0.4867  0.7869  0.3794
              Bcc     0.1316    70.195    25.047    23.415  0.8505  0.5260  0.0000
 
              Baa    -0.3321   -44.565   -15.902   -14.865 -0.1396  0.9813 -0.1326
     6 C(13)  Bbb    -0.2305   -30.936   -11.039   -10.319  0.9897  0.1426  0.0128
              Bcc     0.5626    75.501    26.941    25.185 -0.0314  0.1295  0.9911
 
              Baa    -0.0322   -17.188    -6.133    -5.733  0.9584 -0.0916  0.2705
     7 H(1)   Bbb    -0.0230   -12.297    -4.388    -4.102 -0.2428  0.2373  0.9406
              Bcc     0.0553    29.485    10.521     9.835  0.1503  0.9671 -0.2052
 
              Baa    -0.0574    -7.707    -2.750    -2.571 -0.5545 -0.1434  0.8198
     8 C(13)  Bbb    -0.0304    -4.083    -1.457    -1.362  0.6934 -0.6242  0.3599
              Bcc     0.0879    11.790     4.207     3.933  0.4601  0.7680  0.4455
 
              Baa    -0.0179    -9.552    -3.408    -3.186  0.2121 -0.2968  0.9311
     9 H(1)   Bbb    -0.0128    -6.830    -2.437    -2.278 -0.1319  0.9353  0.3282
              Bcc     0.0307    16.382     5.845     5.464  0.9683  0.1924 -0.1593
 

 ---------------------------------------------------------------------------------

 No NMR shielding tensors so no spin-rotation constants.
 Leave Link  601 at Mon Jun 20 07:00:55 2016, MaxMem=    33554432 cpu:         2.0
 (Enter /home/proyectos/fulerenos/M3C-v1.9/M3C-deps_CCC/g09-AM64L-G09RevC.01/l701.exe)
 Compute integral second derivatives.
 ... and contract with generalized density number  0.
 Leave Link  701 at Mon Jun 20 07:00:56 2016, MaxMem=    33554432 cpu:         1.6
 (Enter /home/proyectos/fulerenos/M3C-v1.9/M3C-deps_CCC/g09-AM64L-G09RevC.01/l702.exe)
 L702 exits ... SP integral derivatives will be done elsewhere.
 Leave Link  702 at Mon Jun 20 07:00:56 2016, MaxMem=    33554432 cpu:         0.1
 (Enter /home/proyectos/fulerenos/M3C-v1.9/M3C-deps_CCC/g09-AM64L-G09RevC.01/l703.exe)
 Compute integral second derivatives, UseDBF=F ICtDFT=           0.
 Integral derivatives from FoFJK, PRISM(SPDF).
 Calling FoFJK, ICntrl=    100127 FMM=F ISym2X=0 I1Cent= 0 IOpClX= 1 NMat=1 NMatS=1 NMatT=0.
 FoFJK:  IHMeth= 1 ICntrl=  100127 DoSepK=F KAlg= 0 I1Cent=   0 FoldK=F
 IRaf=         0 NMat=   1 IRICut=       1 DoRegI=T DoRafI=F ISym2E= 0.
 FoFCou: FMM=F IPFlag=           0 FMFlag=      100000 FMFlg1=         800
         NFxFlg=           0 DoJE=F BraDBF=F KetDBF=F FulRan=T
         wScrn=  0.000000 ICntrl=  100127 IOpCl=  1 I1Cent=           0 NGrid=           0
         NMat0=    1 NMatS0=      1 NMatT0=    0 NMatD0=    1 NMtDS0=    0 NMtDT0=    0
 Symmetry not used in FoFCou.
 Leave Link  703 at Mon Jun 20 07:05:29 2016, MaxMem=    33554432 cpu:      1094.0
 (Enter /home/proyectos/fulerenos/M3C-v1.9/M3C-deps_CCC/g09-AM64L-G09RevC.01/l716.exe)
 Dipole        = 1.48191537D-01 1.56151894D-01-2.33486420D-02
 Polarizability= 7.22457735D+01 3.99324221D-01 4.20827421D+01
                 2.08893009D-01 5.05253048D-01 3.25945267D+01
 Full mass-weighted force constant matrix:
 Low frequencies ---  -15.4769   -7.7277   -2.7517    0.0008    0.0009    0.0009
 Low frequencies ---  260.4362  347.3892  514.5989
 Diagonal vibrational polarizability:
        5.0738531       2.5194832       4.2538318
 Harmonic frequencies (cm**-1), IR intensities (KM/Mole), Raman scattering
 activities (A**4/AMU), depolarization ratios for plane and unpolarized
 incident light, reduced masses (AMU), force constants (mDyne/A),
 and normal coordinates:
                      1                      2                      3
                      A                      A                      A
 Frequencies --    260.4353               347.3891               514.5988
 Red. masses --      2.8617                 2.7742                 1.8700
 Frc consts  --      0.1144                 0.1973                 0.2918
 IR Inten    --      4.0880                12.5464                17.0498
  Atom  AN      X      Y      Z        X      Y      Z        X      Y      Z
     1   1    -0.45  -0.08   0.27     0.06  -0.08  -0.06     0.23   0.01  -0.08
     2   6     0.02   0.06  -0.16    -0.11   0.08   0.08     0.01  -0.05   0.10
     3   6     0.00   0.06  -0.18     0.00   0.23   0.07    -0.03   0.02  -0.20
     4   6     0.01  -0.06   0.20    -0.04  -0.19  -0.06    -0.03  -0.01  -0.05
     5   1     0.11  -0.20   0.44     0.34  -0.71  -0.17    -0.05  -0.01   0.88
     6   6     0.04   0.02  -0.13     0.09   0.09  -0.00     0.02   0.04   0.12
     7   1     0.19   0.02  -0.10     0.26   0.06  -0.04     0.10   0.07   0.18
     8   6    -0.07  -0.05   0.18    -0.00  -0.13  -0.05     0.03  -0.00  -0.04
     9   1     0.15  -0.11   0.47    -0.05  -0.29  -0.13    -0.08  -0.01  -0.19
                      4                      5                      6
                      A                      A                      A
 Frequencies --    592.9608               662.7153               731.3452
 Red. masses --      2.1901                 2.5746                 2.1200
 Frc consts  --      0.4537                 0.6662                 0.6681
 IR Inten    --     12.2526                13.5008                 4.2127
  Atom  AN      X      Y      Z        X      Y      Z        X      Y      Z
     1   1    -0.11  -0.12   0.04     0.24  -0.01   0.00    -0.19   0.09   0.02
     2   6     0.01   0.16  -0.08     0.09   0.21   0.07     0.01  -0.04   0.03
     3   6    -0.01  -0.06   0.20    -0.12  -0.04  -0.10     0.06   0.02   0.01
     4   6    -0.01  -0.02  -0.16    -0.13  -0.07   0.09     0.15  -0.13  -0.01
     5   1    -0.14   0.13   0.84    -0.47   0.40  -0.41    -0.43   0.69  -0.05
     6   6     0.00  -0.01  -0.04     0.01  -0.00   0.01    -0.07   0.18  -0.01
     7   1    -0.05  -0.15  -0.28     0.14  -0.23  -0.38    -0.06   0.26   0.13
     8   6     0.03  -0.05   0.02     0.15  -0.10   0.01    -0.09  -0.09  -0.04
     9   1     0.08  -0.06   0.09     0.04  -0.13  -0.14    -0.01  -0.30   0.04
                      7                      8                      9
                      A                      A                      A
 Frequencies --    756.3722               849.6108               933.7363
 Red. masses --      3.2205                 1.6461                 1.8847
 Frc consts  --      1.0856                 0.7001                 0.9682
 IR Inten    --     11.5999                31.9591                 1.3236
  Atom  AN      X      Y      Z        X      Y      Z        X      Y      Z
     1   1    -0.02  -0.26  -0.08     0.03   0.22   0.06     0.19  -0.26  -0.07
     2   6    -0.19  -0.05  -0.03     0.02  -0.03  -0.02     0.08  -0.06  -0.02
     3   6    -0.03  -0.01   0.00    -0.02   0.08   0.06     0.02   0.19   0.02
     4   6     0.01  -0.14  -0.00    -0.11  -0.05  -0.01     0.04  -0.04  -0.00
     5   1    -0.40   0.44  -0.05    -0.30   0.19   0.07    -0.10   0.17   0.06
     6   6     0.30  -0.03   0.05     0.03  -0.10  -0.11    -0.14  -0.07   0.01
     7   1     0.33  -0.24  -0.33     0.20   0.37   0.75     0.33  -0.27  -0.26
     8   6    -0.08   0.21   0.02     0.08   0.03   0.01    -0.02  -0.05   0.02
     9   1    -0.08   0.31   0.03     0.10   0.04   0.04    -0.14   0.71  -0.03
                     10                     11                     12
                      A                      A                      A
 Frequencies --    995.7753              1047.0909              1057.0621
 Red. masses --      1.7710                 1.2815                 1.7006
 Frc consts  --      1.0346                 0.8278                 1.1196
 IR Inten    --      9.1364                 3.7931                 9.9771
  Atom  AN      X      Y      Z        X      Y      Z        X      Y      Z
     1   1    -0.47  -0.40  -0.03    -0.22   0.85   0.15    -0.00  -0.05  -0.05
     2   6     0.03  -0.13   0.02     0.02  -0.03  -0.06     0.09  -0.03   0.00
     3   6    -0.01   0.04   0.02    -0.01   0.04   0.01    -0.00  -0.13   0.05
     4   6    -0.12   0.01   0.00    -0.01  -0.00  -0.00    -0.08   0.04   0.00
     5   1    -0.10  -0.04  -0.00    -0.02   0.01   0.02     0.04  -0.14  -0.04
     6   6     0.00   0.10   0.04     0.00  -0.04   0.11     0.00   0.13  -0.03
     7   1    -0.19  -0.01  -0.20     0.22  -0.24  -0.19     0.94   0.10   0.03
     8   6     0.12   0.01  -0.09    -0.01  -0.01  -0.07    -0.08  -0.01  -0.02
     9   1     0.51   0.11   0.44     0.13  -0.10   0.11    -0.10   0.10  -0.03
                     13                     14                     15
                      A                      A                      A
 Frequencies --   1085.3681              1190.6953              1246.9515
 Red. masses --      2.4107                 1.5414                 3.7748
 Frc consts  --      1.6732                 1.2876                 3.4581
 IR Inten    --      7.8624                24.7339                 9.7336
  Atom  AN      X      Y      Z        X      Y      Z        X      Y      Z
     1   1     0.67   0.16   0.05     0.12   0.37   0.09     0.22  -0.02   0.07
     2   6     0.03  -0.17  -0.18    -0.10   0.01   0.01    -0.28  -0.04  -0.06
     3   6     0.02   0.04   0.05    -0.01  -0.07  -0.01    -0.07  -0.05  -0.01
     4   6    -0.12   0.00   0.00     0.01   0.01   0.00     0.15  -0.01  -0.01
     5   1    -0.13  -0.02   0.01     0.04  -0.03  -0.01     0.15   0.04  -0.00
     6   6     0.03   0.15   0.01     0.06   0.08  -0.03    -0.21   0.05  -0.01
     7   1    -0.33   0.02  -0.29    -0.20   0.16   0.04     0.70  -0.02  -0.01
     8   6     0.05  -0.01   0.15     0.04  -0.14   0.01     0.29   0.07   0.07
     9   1    -0.23  -0.26  -0.26     0.04   0.84   0.16     0.34  -0.25   0.07
                     16                     17                     18
                      A                      A                      A
 Frequencies --   1473.5317              1559.3502              3073.6185
 Red. masses --      1.1571                 7.1682                 1.0584
 Frc consts  --      1.4803                10.2694                 5.8910
 IR Inten    --      7.4673                 2.2460                26.6364
  Atom  AN      X      Y      Z        X      Y      Z        X      Y      Z
     1   1     0.65   0.01  -0.19     0.33   0.06  -0.11     0.18  -0.16   0.85
     2   6     0.02   0.01   0.00    -0.21   0.12   0.04    -0.00   0.00   0.00
     3   6    -0.05   0.01   0.00     0.63  -0.05  -0.08     0.00  -0.00  -0.00
     4   6     0.02  -0.00   0.00    -0.27  -0.00   0.01    -0.00   0.00  -0.00
     5   1     0.03  -0.00  -0.00    -0.38   0.02  -0.00    -0.01  -0.00   0.00
     6   6     0.00  -0.01  -0.01    -0.14  -0.06   0.02    -0.00  -0.00  -0.00
     7   1    -0.01  -0.00   0.02     0.15  -0.16  -0.09    -0.00  -0.01   0.00
     8   6    -0.09   0.01  -0.04    -0.04   0.01  -0.00    -0.05   0.01  -0.05
     9   1     0.41  -0.12   0.58     0.17  -0.04   0.29     0.36   0.04  -0.29
                     19                     20                     21
                      A                      A                      A
 Frequencies --   3132.1527              3171.1633              3258.8973
 Red. masses --      1.0927                 1.1111                 1.0979
 Frc consts  --      6.3160                 6.5832                 6.8702
 IR Inten    --     43.8362                12.9394                76.0227
  Atom  AN      X      Y      Z        X      Y      Z        X      Y      Z
     1   1     0.01  -0.00   0.04    -0.11   0.08  -0.43     0.00  -0.00   0.01
     2   6     0.00   0.00   0.00     0.00   0.00  -0.00     0.00   0.00  -0.00
     3   6     0.00   0.00   0.00     0.00  -0.00   0.00     0.01  -0.00  -0.00
     4   6    -0.00  -0.00  -0.00     0.00  -0.00   0.00    -0.08  -0.05  -0.00
     5   1     0.01   0.01   0.00     0.00   0.00  -0.00     0.81   0.58   0.01
     6   6    -0.01  -0.08   0.04     0.00  -0.01   0.00     0.00   0.00  -0.00
     7   1     0.07   0.86  -0.49     0.00   0.06  -0.03    -0.00  -0.01   0.00
     8   6     0.00   0.00  -0.01    -0.05  -0.01   0.08    -0.00   0.00  -0.00
     9   1    -0.04  -0.01   0.03     0.70   0.08  -0.53    -0.00  -0.00   0.00

 -------------------
 - Thermochemistry -
 -------------------
 Temperature   298.150 Kelvin.  Pressure   1.00000 Atm.
 Atom     1 has atomic number  1 and mass   1.00783
 Atom     2 has atomic number  6 and mass  12.00000
 Atom     3 has atomic number  6 and mass  12.00000
 Atom     4 has atomic number  6 and mass  12.00000
 Atom     5 has atomic number  1 and mass   1.00783
 Atom     6 has atomic number  6 and mass  12.00000
 Atom     7 has atomic number  1 and mass   1.00783
 Atom     8 has atomic number  6 and mass  12.00000
 Atom     9 has atomic number  1 and mass   1.00783
 Molecular mass:    64.03130 amu.
 Principal axes and moments of inertia in atomic units:
                           1         2         3
     Eigenvalues --    86.08049 402.68621 461.36174
           X            0.99978   0.02043   0.00369
           Y           -0.02004   0.99606  -0.08643
           Z           -0.00545   0.08633   0.99625
 This molecule is an asymmetric top.
 Rotational symmetry number  1.
 Rotational temperatures (Kelvin)      1.00620     0.21509     0.18774
 Rotational constants (GHZ):          20.96574     4.48176     3.91177
 Zero-point vibrational energy     167123.2 (Joules/Mol)
                                   39.94341 (Kcal/Mol)
 Warning -- explicit consideration of   4 degrees of freedom as
           vibrations may cause significant error
 Vibrational temperatures:    374.71   499.81   740.39   853.14   953.50
          (Kelvin)           1052.24  1088.25  1222.40  1343.44  1432.70
                             1506.53  1520.87  1561.60  1713.14  1794.08
                             2120.08  2243.55  4422.25  4506.46  4562.59
                             4688.82
 
 Zero-point correction=                           0.063654 (Hartree/Particle)
 Thermal correction to Energy=                    0.068299
 Thermal correction to Enthalpy=                  0.069243
 Thermal correction to Gibbs Free Energy=         0.035544
 Sum of electronic and zero-point Energies=           -192.358959
 Sum of electronic and thermal Energies=              -192.354314
 Sum of electronic and thermal Enthalpies=            -192.353370
 Sum of electronic and thermal Free Energies=         -192.387069
 
                     E (Thermal)             CV                S
                      KCal/Mol        Cal/Mol-Kelvin    Cal/Mol-Kelvin
 Total                   42.858             16.830             70.925
 Electronic               0.000              0.000              2.755
 Translational            0.889              2.981             38.389
 Rotational               0.889              2.981             24.284
 Vibrational             41.081             10.868              5.497
 Vibration     1          0.668              1.745              1.659
 Vibration     2          0.725              1.581              1.178
 Vibration     3          0.870              1.218              0.623
 Vibration     4          0.951              1.047              0.462
                       Q            Log10(Q)             Ln(Q)
 Total Bot       0.447641D-16        -16.349071        -37.645126
 Total V=0       0.850386D+13         12.929616         29.771542
 Vib (Bot)       0.122750D-28        -28.910977        -66.569985
 Vib (Bot)    1  0.745637D+00         -0.127473         -0.293517
 Vib (Bot)    2  0.532001D+00         -0.274087         -0.631110
 Vib (Bot)    3  0.315220D+00         -0.501386         -1.154485
 Vib (Bot)    4  0.253642D+00         -0.595779         -1.371831
 Vib (V=0)       0.233190D+01          0.367710          0.846683
 Vib (V=0)    1  0.139776D+01          0.145433          0.334871
 Vib (V=0)    2  0.123009D+01          0.089935          0.207084
 Vib (V=0)    3  0.109107D+01          0.037853          0.087159
 Vib (V=0)    4  0.106066D+01          0.025574          0.058887
 Electronic      0.400000D+01          0.602060          1.386294
 Translational   0.201393D+08          7.304044         16.818182
 Rotational      0.452692D+05          4.655803         10.720382
 
                                                              b3lyp opt
                                                             IR Spectrum
 
     3   33  3                                                          1  1        1 1   111                                        
     2   11  0                                                          5  4        2 1   000 9 9  8   77  6 5  5      3  2          
     5   73  7                                                          5  7        4 9   854 9 3  5   53  6 9  1      4  6          
     9   12  4                                                          9  4        7 1   577 6 4  0   61  3 3  5      7  0          
 
     X   XX  X                                                          X  X        X X   XXX X X  X   XX  X X  X      X  X          
     X   XX  X                                                             X        X X   XX  X    X   X   X X  X      X             
     X   XX  X                                                                      X X    X       X   X   X X  X      X             
     X    X  X                                                                        X            X       X    X                    
     X    X  X                                                                        X            X                                 
     X    X  X                                                                        X            X                                 
     X    X  X                                                                        X            X                                 
     X    X                                                                                        X                                 
     X    X                                                                                                                          
     X    X                                                                                                                          
     X    X                                                                                                                          
     X    X                                                                                                                          
     X                                                                                                                               
     X                                                                                                                               
     X                                                                                                                               
     X                                                                                                                               
     X                                                                                                                               
     X                                                                                                                               
     X                                                                                                                               
     X                                                                                                                               
 
 ***** Axes restored to original set *****
 -------------------------------------------------------------------
 Center     Atomic                   Forces (Hartrees/Bohr)
 Number     Number              X              Y              Z
 -------------------------------------------------------------------
      1        1          -0.000022526    0.000022818   -0.000030908
      2        6           0.000028742   -0.000001955   -0.000041936
      3        6          -0.000134191   -0.000013641    0.000052419
      4        6           0.000080681   -0.000010296   -0.000019501
      5        1          -0.000003117    0.000010376   -0.000002227
      6        6           0.000079777   -0.000034704   -0.000047016
      7        1          -0.000012752    0.000023643    0.000032716
      8        6           0.000021385   -0.000017089    0.000070602
      9        1          -0.000037999    0.000020847   -0.000014148
 -------------------------------------------------------------------
 Cartesian Forces:  Max     0.000134191 RMS     0.000043892
 Z-matrix is all fixed cartesians, so copy forces.
 Force constants in Cartesian coordinates: 
                1             2             3             4             5 
      1  0.658151D-01
      2 -0.122267D-01  0.468869D-01
      3  0.602117D-01 -0.537625D-01  0.314117D+00
      4 -0.125203D-01 -0.132403D-01 -0.855762D-02  0.405870D+00
      5  0.561814D-02  0.115174D-02 -0.992525D-03 -0.508584D-01  0.243525D+00
      6 -0.176399D-01 -0.232543D-01 -0.578906D-02  0.379381D-02  0.100034D+00
      7  0.256954D-02 -0.115758D-03  0.928640D-02 -0.206366D+00  0.106965D+00
      8 -0.129630D-03 -0.352065D-02 -0.118937D-02  0.903391D-01 -0.804776D-01
      9 -0.244086D-02  0.582041D-03  0.535788D-03  0.607825D-01 -0.463103D-01
     10 -0.126766D-02 -0.270810D-03 -0.463453D-02 -0.522736D-01  0.129510D-01
     11 -0.480025D-03  0.456807D-03  0.637125D-03  0.273831D-01 -0.418647D-02
     12  0.133994D-02 -0.712915D-04 -0.511657D-03  0.912957D-02 -0.688292D-04
     13  0.348111D-04  0.410147D-04 -0.194425D-04  0.309243D-02 -0.406386D-03
     14  0.184409D-03  0.920675D-04 -0.958655D-04 -0.225074D-02  0.208510D-02
     15  0.283080D-04 -0.131669D-03  0.138111D-03  0.657143D-03 -0.565754D-03
     16 -0.101995D-01  0.140824D-01 -0.175362D-02  0.726655D-01 -0.122133D-01
     17  0.264909D-02 -0.789884D-02  0.386608D-03 -0.660288D-02 -0.126737D+00
     18 -0.136461D-01  0.224454D-01  0.399334D-02  0.441987D-02 -0.290874D-01
     19 -0.186179D-03  0.126885D-02 -0.133848D-03 -0.892268D-02 -0.551282D-03
     20 -0.311844D-03 -0.261730D-03 -0.195819D-03  0.124940D-02  0.283537D-02
     21 -0.195403D-03  0.161422D-03 -0.107161D-03 -0.140903D-02  0.261661D-02
     22 -0.525533D-01  0.959323D-02 -0.496876D-01 -0.185267D+00 -0.650317D-01
     23  0.904294D-02 -0.390774D-01  0.520929D-01 -0.319089D-01 -0.368401D-01
     24 -0.494062D-01  0.520804D-01 -0.299736D+00 -0.596428D-01 -0.280265D-01
     25  0.830754D-02  0.868055D-03 -0.471148D-02 -0.162791D-01  0.352698D-02
     26 -0.434639D-02  0.217116D-02  0.311945D-02 -0.141104D-01 -0.135510D-02
     27  0.217485D-01  0.195051D-02 -0.126407D-01 -0.917346D-02  0.240025D-02
                6             7             8             9            10 
      6  0.140976D+00
      7  0.456939D-01  0.800773D+00
      8 -0.378093D-01 -0.384682D-01  0.242627D+00
      9 -0.670220D-01 -0.779018D-01  0.110508D-01  0.120908D+00
     10  0.104228D-01 -0.345490D+00  0.221413D-01  0.672875D-03  0.690766D+00
     11 -0.188347D-03 -0.206551D-01 -0.575454D-01  0.984487D-03  0.166797D+00
     12  0.102893D-01  0.353427D-02 -0.337351D-02 -0.369518D-01 -0.111359D-01
     13 -0.449453D-03 -0.116353D-01 -0.144290D-01  0.610446D-03 -0.243555D+00
     14 -0.468316D-03  0.204292D-01  0.834410D-02 -0.472020D-03 -0.186211D+00
     15 -0.374423D-02  0.119235D-02  0.388590D-02  0.345219D-02 -0.325125D-02
     16  0.439536D-02 -0.153956D+00 -0.440478D-01  0.206714D-01 -0.532414D-01
     17 -0.370823D-01 -0.597573D-01 -0.122152D+00  0.292295D-01 -0.218892D-01
     18 -0.149358D-01  0.293643D-01  0.356965D-01 -0.340560D-01 -0.444613D-02
     19 -0.242636D-02  0.211823D-02 -0.227627D-01  0.926731D-02  0.324734D-03
     20  0.605667D-02 -0.833587D-02 -0.792285D-02  0.491357D-02  0.316340D-02
     21  0.152078D-01 -0.118023D-01 -0.693191D-02 -0.303152D-03  0.390045D-02
     22 -0.507212D-01 -0.841714D-01  0.845779D-02 -0.131434D-01  0.602523D-02
     23 -0.213558D-01 -0.181955D-02  0.231323D-01  0.120049D-02  0.315500D-02
     24 -0.851462D-01  0.492014D-02 -0.213840D-02  0.133417D-01  0.980015D-02
     25  0.693114D-02 -0.384165D-02 -0.110089D-02  0.148143D-02 -0.128801D-02
     26  0.140674D-01  0.175756D-02 -0.248479D-02 -0.117859D-02  0.162747D-03
     27  0.101644D-01 -0.428723D-02  0.809257D-03  0.951965D-04 -0.132845D-02
               11            12            13            14            15 
     11  0.194584D+00
     12  0.475883D-02  0.392828D-01
     13 -0.154482D+00 -0.298925D-02  0.251699D+00
     14 -0.144157D+00 -0.143762D-02  0.167812D+00  0.136099D+00
     15 -0.234333D-02 -0.148505D-01  0.318405D-02  0.216916D-02  0.102036D-01
     16 -0.171341D-01  0.130933D-02  0.662507D-03 -0.493995D-03 -0.169850D-02
     17  0.124143D-01  0.295012D-02  0.201079D-02 -0.239082D-02 -0.400865D-02
     18  0.419152D-03 -0.897024D-04 -0.802304D-04 -0.150933D-02  0.340519D-02
     19  0.757583D-03  0.132100D-03 -0.403814D-04 -0.965324D-04 -0.491749D-03
     20  0.250293D-03 -0.112362D-02 -0.212554D-03  0.760420D-05  0.362328D-03
     21  0.288353D-04 -0.145209D-02 -0.704645D-04  0.106149D-03  0.657598D-03
     22 -0.230518D-02 -0.100061D-02 -0.122468D-03  0.568177D-03  0.407287D-03
     23 -0.385044D-02 -0.157398D-02 -0.635417D-03  0.249875D-03  0.275029D-03
     24 -0.454275D-02  0.458884D-02 -0.174420D-03  0.173839D-02  0.627081D-03
     25  0.117998D-03 -0.319454D-03 -0.135900D-03  0.580323D-04 -0.276443D-04
     26  0.203412D-02 -0.600877D-04  0.300978D-03 -0.330374D-03  0.356994D-03
     27  0.246005D-03 -0.305182D-03 -0.112327D-04 -0.305497D-04  0.110987D-03
               16            17            18            19            20 
     16  0.305157D+00
     17  0.526665D-01  0.583744D+00
     18 -0.209516D-01 -0.162510D+00  0.200620D+00
     19 -0.380713D-01 -0.158944D-01  0.116209D-01  0.413105D-01
     20 -0.134765D-01 -0.256074D+00  0.123186D+00  0.181680D-01  0.266804D+00
     21  0.182711D-01  0.140043D+00 -0.111807D+00 -0.103040D-01 -0.136458D+00
     22 -0.113199D+00  0.520418D-01 -0.105411D-01  0.310615D-02 -0.803679D-04
     23  0.296977D-02 -0.900428D-01  0.264895D-01  0.202885D-01 -0.608475D-02
     24 -0.149319D-01  0.331854D-01 -0.485323D-01 -0.773457D-02  0.339479D-02
     25 -0.981786D-02 -0.522430D-02  0.426011D-02  0.361009D-03 -0.163718D-03
     26  0.176470D-01  0.913662D-02 -0.151289D-01 -0.117805D-02  0.445352D-03
     27 -0.531150D-02 -0.219274D-02  0.140214D-02  0.702410D-04 -0.135158D-03
               21            22            23            24            25 
     21  0.996875D-01
     22  0.194788D-02  0.643411D+00
     23  0.390418D-03  0.177517D-01  0.204583D+00
     24 -0.210318D-02 -0.174980D-01 -0.729471D-01  0.577579D+00
     25 -0.338209D-03 -0.217230D+00 -0.188441D-01  0.134668D+00  0.239924D+00
     26  0.442215D-04 -0.209953D-01 -0.520694D-01  0.172557D-01  0.207619D-01
     27  0.219426D-03  0.140237D+00  0.154286D-01 -0.160619D+00 -0.141944D+00
               26            27 
     26  0.424525D-01
     27 -0.184761D-01  0.161573D+00
 Leave Link  716 at Mon Jun 20 07:05:29 2016, MaxMem=    33554432 cpu:         0.1
 (Enter /home/proyectos/fulerenos/M3C-v1.9/M3C-deps_CCC/g09-AM64L-G09RevC.01/l103.exe)

 GradGradGradGradGradGradGradGradGradGradGradGradGradGradGradGradGradGrad
 Berny optimization.
 Search for a local minimum.
 Step number   1 out of a maximum of    2
 All quantities printed in internal units (Hartrees-Bohrs-Radians)
 Second derivative matrix not updated -- analytic derivatives used.
 ITU=  0
     Eigenvalues ---    0.00732   0.01203   0.02459   0.03123   0.04180
     Eigenvalues ---    0.05794   0.08560   0.08986   0.09745   0.16444
     Eigenvalues ---    0.17073   0.18996   0.24860   0.30845   0.36299
     Eigenvalues ---    0.40204   0.71136   0.81570   0.88697   0.93046
     Eigenvalues ---    1.21833
 Angle between quadratic step and forces=  70.12 degrees.
 Linear search not attempted -- first point.
 B after Tr=     0.000103   -0.000190   -0.000007
         Rot=    1.000000    0.000017    0.000005   -0.000006 Ang=   0.00 deg.
 Variable       Old X    -DE/DX   Delta X   Delta X   Delta X     New X
                                 (Linear)    (Quad)   (Total)
    X1        3.48234  -0.00002   0.00000   0.00016   0.00024   3.48258
    Y1       -0.70472   0.00002   0.00000   0.00071   0.00064  -0.70408
    Z1        2.28965  -0.00003   0.00000   0.00003   0.00009   2.28973
    X2        0.72324   0.00003   0.00000   0.00021   0.00034   0.72358
    Y2       -1.52457  -0.00000   0.00000  -0.00034  -0.00054  -1.52511
    Z2       -0.65527  -0.00004   0.00000  -0.00001   0.00004  -0.65523
    X3       -1.31307  -0.00013   0.00000   0.00001   0.00011  -1.31297
    Y3       -0.05696  -0.00001   0.00000  -0.00056  -0.00076  -0.05773
    Z3        0.11786   0.00005   0.00000   0.00031   0.00029   0.11815
    X4       -3.86557   0.00008   0.00000   0.00025   0.00035  -3.86522
    Y4        0.09815  -0.00001   0.00000   0.00007  -0.00016   0.09800
    Z4        0.16563  -0.00002   0.00000  -0.00021  -0.00027   0.16537
    X5       -5.50449  -0.00000   0.00000  -0.00069  -0.00058  -5.50506
    Y5       -1.11104   0.00001   0.00000   0.00140   0.00115  -1.10989
    Z5        0.14177  -0.00000   0.00000  -0.00019  -0.00022   0.14156
    X6        0.84533   0.00008   0.00000   0.00006   0.00014   0.84547
    Y6        1.57246  -0.00003   0.00000  -0.00043  -0.00062   1.57185
    Z6       -0.03060  -0.00005   0.00000  -0.00019  -0.00024  -0.03084
    X7        0.97984  -0.00001   0.00000  -0.00062  -0.00055   0.97929
    Y7        3.35820   0.00002   0.00000   0.00011  -0.00010   3.35810
    Z7       -1.04090   0.00003   0.00000   0.00067   0.00056  -1.04033
    X8        3.01128   0.00002   0.00000   0.00009   0.00020   3.01148
    Y8       -0.32257  -0.00002   0.00000   0.00011  -0.00003  -0.32260
    Z8        0.32325   0.00007   0.00000   0.00006   0.00010   0.32334
    X9        4.63508  -0.00004   0.00000  -0.00038  -0.00026   4.63482
    Y9       -0.14154   0.00002   0.00000   0.00058   0.00042  -0.14112
    Z9       -0.91575  -0.00001   0.00000  -0.00039  -0.00035  -0.91610
         Item               Value     Threshold  Converged?
 Maximum Force            0.000134     0.000450     YES
 RMS     Force            0.000044     0.000300     YES
 Maximum Displacement     0.001151     0.001800     YES
 RMS     Displacement     0.000430     0.001200     YES
 Predicted change in Energy=-8.806609D-08
 Optimization completed.
    -- Stationary point found.
 GradGradGradGradGradGradGradGradGradGradGradGradGradGradGradGradGradGrad

 Leave Link  103 at Mon Jun 20 07:05:29 2016, MaxMem=    33554432 cpu:         0.1
 (Enter /home/proyectos/fulerenos/M3C-v1.9/M3C-deps_CCC/g09-AM64L-G09RevC.01/l9999.exe)
 1\1\GINC-BELVIS17\Freq\UB3LYP\6-311++G(3df,2p)\C5H4(1+,4)\ROOT\20-Jun-
 2016\0\\#p b3lyp/6-311++G(3df,2p) freq symmetry=Loose\\b3lyp opt\\1,4\
 H,1.842775,-0.372922,1.211628\C,0.382721,-0.806767,-0.346754\C,-0.6948
 48,-0.030143,0.06237\C,-2.045572,0.051941,0.087648\H,-2.91285,-0.58793
 9,0.075023\C,0.447328,0.832111,-0.016191\H,0.518511,1.777083,-0.550818
 \C,1.593501,-0.170696,0.171055\H,2.452778,-0.074899,-0.484594\\Version
 =EM64L-G09RevE.01\State=4-A\HF=-192.4226131\S2=3.780983\S2-1=0.\S2A=3.
 75029\RMSD=3.532e-09\RMSF=4.389e-05\ZeroPoint=0.0636539\Thermal=0.0682
 986\Dipole=0.1481915,0.1561519,-0.0233486\DipoleDeriv=0.049332,0.00534
 73,0.0360158,-0.0119358,0.1300446,0.0072795,0.0882527,-0.0041484,0.131
 5741,0.0426252,-0.1429825,-0.0279189,-0.2015118,0.1288685,0.0722709,0.
 1961304,-0.0384626,0.1513613,0.3167604,0.0074295,-0.077694,0.0448574,0
 .1071586,0.0011508,-0.1333206,0.0409505,0.0643241,-0.0355388,-0.066090
 4,0.020643,0.0406937,0.0779944,-0.0055113,-0.0318937,0.0243781,0.06778
 27,0.3131228,0.0654167,0.0012729,-0.0019297,0.15808,0.000171,0.0089846
 ,-0.0209746,0.1643138,-0.0798084,0.0167247,0.0137744,0.1402827,-0.0875
 989,-0.0574423,0.1761255,-0.0564553,0.0546209,0.1264561,0.0366535,0.00
 03783,0.0440717,0.2231351,-0.0083821,0.0075595,-0.0068734,0.172521,0.1
 080418,0.0771198,0.0437301,-0.0616819,0.1148771,-0.0227222,-0.329741,0
 .0402234,0.1000211,0.1590091,0.0003813,-0.0102017,0.0071537,0.1474405,
 0.0131857,0.0179026,0.0213623,0.0934809\Polar=72.2457735,0.3993251,42.
 0827421,0.208893,0.5052531,32.5945267\PG=C01 [X(C5H4)]\NImag=0\\0.0658
 1510,-0.01222668,0.04688686,0.06021171,-0.05376249,0.31411720,-0.01252
 030,-0.01324033,-0.00855762,0.40587039,0.00561814,0.00115174,-0.000992
 53,-0.05085840,0.24352450,-0.01763995,-0.02325433,-0.00578906,0.003793
 81,0.10003439,0.14097575,0.00256954,-0.00011576,0.00928640,-0.20636601
 ,0.10696503,0.04569385,0.80077269,-0.00012963,-0.00352065,-0.00118937,
 0.09033915,-0.08047761,-0.03780926,-0.03846818,0.24262669,-0.00244086,
 0.00058204,0.00053579,0.06078255,-0.04631025,-0.06702199,-0.07790178,0
 .01105077,0.12090807,-0.00126766,-0.00027081,-0.00463453,-0.05227363,0
 .01295098,0.01042279,-0.34548995,0.02214133,0.00067288,0.69076560,-0.0
 0048002,0.00045681,0.00063713,0.02738311,-0.00418647,-0.00018835,-0.02
 065513,-0.05754544,0.00098449,0.16679741,0.19458378,0.00133994,-0.0000
 7129,-0.00051166,0.00912957,-0.00006883,0.01028930,0.00353427,-0.00337
 351,-0.03695180,-0.01113590,0.00475883,0.03928281,0.00003481,0.0000410
 1,-0.00001944,0.00309243,-0.00040639,-0.00044945,-0.01163529,-0.014429
 04,0.00061045,-0.24355492,-0.15448168,-0.00298925,0.25169921,0.0001844
 1,0.00009207,-0.00009587,-0.00225074,0.00208510,-0.00046832,0.02042924
 ,0.00834410,-0.00047202,-0.18621087,-0.14415700,-0.00143762,0.16781229
 ,0.13609944,0.00002831,-0.00013167,0.00013811,0.00065714,-0.00056575,-
 0.00374423,0.00119235,0.00388590,0.00345219,-0.00325125,-0.00234333,-0
 .01485052,0.00318405,0.00216916,0.01020359,-0.01019953,0.01408243,-0.0
 0175362,0.07266550,-0.01221330,0.00439536,-0.15395615,-0.04404782,0.02
 067139,-0.05324139,-0.01713408,0.00130933,0.00066251,-0.00049399,-0.00
 169850,0.30515693,0.00264909,-0.00789884,0.00038661,-0.00660288,-0.126
 73746,-0.03708234,-0.05975734,-0.12215177,0.02922950,-0.02188918,0.012
 41434,0.00295012,0.00201079,-0.00239082,-0.00400865,0.05266649,0.58374
 437,-0.01364610,0.02244538,0.00399334,0.00441987,-0.02908739,-0.014935
 78,0.02936429,0.03569653,-0.03405597,-0.00444613,0.00041915,-0.0000897
 0,-0.00008023,-0.00150933,0.00340519,-0.02095156,-0.16251044,0.2006198
 2,-0.00018618,0.00126885,-0.00013385,-0.00892268,-0.00055128,-0.002426
 36,0.00211823,-0.02276272,0.00926731,0.00032473,0.00075758,0.00013210,
 -0.00004038,-0.00009653,-0.00049175,-0.03807133,-0.01589442,0.01162087
 ,0.04131045,-0.00031184,-0.00026173,-0.00019582,0.00124940,0.00283537,
 0.00605667,-0.00833587,-0.00792285,0.00491357,0.00316340,0.00025029,-0
 .00112362,-0.00021255,0.00000760,0.00036233,-0.01347646,-0.25607368,0.
 12318552,0.01816802,0.26680438,-0.00019540,0.00016142,-0.00010716,-0.0
 0140903,0.00261661,0.01520779,-0.01180228,-0.00693191,-0.00030315,0.00
 390045,0.00002884,-0.00145209,-0.00007046,0.00010615,0.00065760,0.0182
 7105,0.14004253,-0.11180677,-0.01030399,-0.13645828,0.09968754,-0.0525
 5332,0.00959323,-0.04968756,-0.18526656,-0.06503175,-0.05072118,-0.084
 17142,0.00845779,-0.01314336,0.00602523,-0.00230518,-0.00100061,-0.000
 12247,0.00056818,0.00040729,-0.11319868,0.05204175,-0.01054111,0.00310
 615,-0.00008037,0.00194788,0.64341068,0.00904294,-0.03907743,0.0520928
 9,-0.03190888,-0.03684008,-0.02135584,-0.00181955,0.02313232,0.0012004
 9,0.00315500,-0.00385044,-0.00157398,-0.00063542,0.00024987,0.00027503
 ,0.00296977,-0.09004275,0.02648952,0.02028855,-0.00608475,0.00039042,0
 .01775167,0.20458271,-0.04940616,0.05208043,-0.29973583,-0.05964283,-0
 .02802650,-0.08514620,0.00492014,-0.00213840,0.01334166,0.00980015,-0.
 00454275,0.00458884,-0.00017442,0.00173839,0.00062708,-0.01493195,0.03
 318542,-0.04853226,-0.00773457,0.00339479,-0.00210318,-0.01749798,-0.0
 7294709,0.57757932,0.00830754,0.00086806,-0.00471148,-0.01627913,0.003
 52698,0.00693114,-0.00384165,-0.00110089,0.00148143,-0.00128801,0.0001
 1800,-0.00031945,-0.00013590,0.00005803,-0.00002764,-0.00981786,-0.005
 22430,0.00426011,0.00036101,-0.00016372,-0.00033821,-0.21722961,-0.018
 84408,0.13466762,0.23992361,-0.00434639,0.00217116,0.00311945,-0.01411
 043,-0.00135510,0.01406737,0.00175756,-0.00248479,-0.00117859,0.000162
 75,0.00203412,-0.00006009,0.00030098,-0.00033037,0.00035699,0.01764697
 ,0.00913662,-0.01512893,-0.00117805,0.00044535,0.00004422,-0.02099532,
 -0.05206945,0.01725570,0.02076193,0.04245246,0.02174850,0.00195051,-0.
 01264072,-0.00917346,0.00240025,0.01016443,-0.00428723,0.00080926,0.00
 009520,-0.00132845,0.00024601,-0.00030518,-0.00001123,-0.00003055,0.00
 011099,-0.00531150,-0.00219274,0.00140214,0.00007024,-0.00013516,0.000
 21943,0.14023664,0.01542856,-0.16061942,-0.14194350,-0.01847613,0.1615
 7314\\0.00002253,-0.00002282,0.00003091,-0.00002874,0.00000195,0.00004
 194,0.00013419,0.00001364,-0.00005242,-0.00008068,0.00001030,0.0000195
 0,0.00000312,-0.00001038,0.00000223,-0.00007978,0.00003470,0.00004702,
 0.00001275,-0.00002364,-0.00003272,-0.00002139,0.00001709,-0.00007060,
 0.00003800,-0.00002085,0.00001415\\\@


 IT IS A CAPITAL MISTAKE TO THEORIZE BEFORE ONE HAS
 DATA.  INSENSIBLY ONE BEGINS TO TWIST FACTS TO SUIT
 THEORIES RATHER THAN THEORIES TO SUIT FACTS.

                                         -- SHERLOCK HOLMES
 Job cpu time:       0 days  1 hours 12 minutes 26.0 seconds.
 File lengths (MBytes):  RWF=     79 Int=      0 D2E=      0 Chk=      5 Scr=      1
 Normal termination of Gaussian 09 at Mon Jun 20 07:05:29 2016.
