 Entering Gaussian System, Link 0=/home/proyectos/fulerenos/M3C-v1.9/M3C-deps_CCC/g09-AM64L-G09RevC.01/g09
 Initial command:
 /home/proyectos/fulerenos/M3C-v1.9/M3C-deps_CCC/g09-AM64L-G09RevC.01/l1.exe "/scratch/naguirre/gaussian/Gau-2462.inp" -scrdir="/scratch/naguirre/gaussian/"
 Entering Link 1 = /home/proyectos/fulerenos/M3C-v1.9/M3C-deps_CCC/g09-AM64L-G09RevC.01/l1.exe PID=      2470.
  
 Copyright (c) 1988,1990,1992,1993,1995,1998,2003,2009,2015,
            Gaussian, Inc.  All Rights Reserved.
  
 This is part of the Gaussian(R) 09 program.  It is based on
 the Gaussian(R) 03 system (copyright 2003, Gaussian, Inc.),
 the Gaussian(R) 98 system (copyright 1998, Gaussian, Inc.),
 the Gaussian(R) 94 system (copyright 1995, Gaussian, Inc.),
 the Gaussian 92(TM) system (copyright 1992, Gaussian, Inc.),
 the Gaussian 90(TM) system (copyright 1990, Gaussian, Inc.),
 the Gaussian 88(TM) system (copyright 1988, Gaussian, Inc.),
 the Gaussian 86(TM) system (copyright 1986, Carnegie Mellon
 University), and the Gaussian 82(TM) system (copyright 1983,
 Carnegie Mellon University). Gaussian is a federally registered
 trademark of Gaussian, Inc.
  
 This software contains proprietary and confidential information,
 including trade secrets, belonging to Gaussian, Inc.
  
 This software is provided under written license and may be
 used, copied, transmitted, or stored only in accord with that
 written license.
  
 The following legend is applicable only to US Government
 contracts under FAR:
  
                    RESTRICTED RIGHTS LEGEND
  
 Use, reproduction and disclosure by the US Government is
 subject to restrictions as set forth in subparagraphs (a)
 and (c) of the Commercial Computer Software - Restricted
 Rights clause in FAR 52.227-19.
  
 Gaussian, Inc.
 340 Quinnipiac St., Bldg. 40, Wallingford CT 06492
  
  
 ---------------------------------------------------------------
 Warning -- This program may not be used in any manner that
 competes with the business of Gaussian, Inc. or will provide
 assistance to any competitor of Gaussian, Inc.  The licensee
 of this program is prohibited from giving any competitor of
 Gaussian, Inc. access to this program.  By using this program,
 the user acknowledges that Gaussian, Inc. is engaged in the
 business of creating and licensing software in the field of
 computational chemistry and represents and warrants to the
 licensee that it is not a competitor of Gaussian, Inc. and that
 it will not use this program in any manner prohibited above.
 ---------------------------------------------------------------
  

 Cite this work as:
 Gaussian 09, Revision E.01,
 M. J. Frisch, G. W. Trucks, H. B. Schlegel, G. E. Scuseria, 
 M. A. Robb, J. R. Cheeseman, G. Scalmani, V. Barone, B. Mennucci, 
 G. A. Petersson, H. Nakatsuji, M. Caricato, X. Li, H. P. Hratchian, 
 A. F. Izmaylov, J. Bloino, G. Zheng, J. L. Sonnenberg, M. Hada, 
 M. Ehara, K. Toyota, R. Fukuda, J. Hasegawa, M. Ishida, T. Nakajima, 
 Y. Honda, O. Kitao, H. Nakai, T. Vreven, J. A. Montgomery, Jr., 
 J. E. Peralta, F. Ogliaro, M. Bearpark, J. J. Heyd, E. Brothers, 
 K. N. Kudin, V. N. Staroverov, T. Keith, R. Kobayashi, J. Normand, 
 K. Raghavachari, A. Rendell, J. C. Burant, S. S. Iyengar, J. Tomasi, 
 M. Cossi, N. Rega, J. M. Millam, M. Klene, J. E. Knox, J. B. Cross, 
 V. Bakken, C. Adamo, J. Jaramillo, R. Gomperts, R. E. Stratmann, 
 O. Yazyev, A. J. Austin, R. Cammi, C. Pomelli, J. W. Ochterski, 
 R. L. Martin, K. Morokuma, V. G. Zakrzewski, G. A. Voth, 
 P. Salvador, J. J. Dannenberg, S. Dapprich, A. D. Daniels, 
 O. Farkas, J. B. Foresman, J. V. Ortiz, J. Cioslowski, 
 and D. J. Fox, Gaussian, Inc., Wallingford CT, 2013.
 
 ******************************************
 Gaussian 09:  EM64L-G09RevE.01 30-Nov-2015
                20-Jun-2016 
 ******************************************
 %NProcShared=4
 Will use up to    4 processors via shared memory.
 ---------------------------------------------
 #p b3lyp/6-311++G(3df,2p) freq symmetry=Loose
 ---------------------------------------------
 1/10=4,30=1,38=1/1,3;
 2/12=2,17=4,18=3,40=1/2;
 3/5=4,6=6,7=1216,11=2,16=1,25=1,30=1,71=2,74=-5,140=1/1,2,3;
 4//1;
 5/5=2,38=5,98=1/2;
 8/6=4,10=90,11=11/1;
 11/6=1,8=1,9=11,15=111,16=1/1,2,10;
 10/6=1/2;
 6/7=2,8=2,9=2,10=2,18=1,28=1/1;
 7/8=1,10=1,25=1/1,2,3,16;
 1/10=4,30=1/3;
 99//99;
 Leave Link    1 at Mon Jun 20 07:41:07 2016, MaxMem=           0 cpu:         0.3
 (Enter /home/proyectos/fulerenos/M3C-v1.9/M3C-deps_CCC/g09-AM64L-G09RevC.01/l101.exe)
 ---------
 b3lyp opt
 ---------
 Symbolic Z-matrix:
 Charge =  2 Multiplicity = 1
 C                     0.00189   2.26703   0. 
 H                    -0.93733   2.85183   0. 
 H                     0.94154   2.85096   0. 
 C                     0.00105   0.98839   0. 
 C                     0.       -0.35425   0. 
 C                     0.66248  -1.58559   0. 
 H                     1.64905  -2.04777   0. 
 C                    -0.66555  -1.58381   0. 
 H                    -1.65239  -2.04564   0. 
 
 NAtoms=      9 NQM=        9 NQMF=       0 NMMI=      0 NMMIF=      0
                NMic=       0 NMicF=      0.
                    Isotopes and Nuclear Properties:
 (Nuclear quadrupole moments (NQMom) in fm**2, nuclear magnetic moments (NMagM)
  in nuclear magnetons)

  Atom         1           2           3           4           5           6           7           8           9
 IAtWgt=          12           1           1          12          12          12           1          12           1
 AtmWgt=  12.0000000   1.0078250   1.0078250  12.0000000  12.0000000  12.0000000   1.0078250  12.0000000   1.0078250
 NucSpn=           0           1           1           0           0           0           1           0           1
 AtZEff=   0.0000000   0.0000000   0.0000000   0.0000000   0.0000000   0.0000000   0.0000000   0.0000000   0.0000000
 NQMom=    0.0000000   0.0000000   0.0000000   0.0000000   0.0000000   0.0000000   0.0000000   0.0000000   0.0000000
 NMagM=    0.0000000   2.7928460   2.7928460   0.0000000   0.0000000   0.0000000   2.7928460   0.0000000   2.7928460
 AtZNuc=   6.0000000   1.0000000   1.0000000   6.0000000   6.0000000   6.0000000   1.0000000   6.0000000   1.0000000
 Leave Link  101 at Mon Jun 20 07:41:07 2016, MaxMem=    33554432 cpu:         0.2
 (Enter /home/proyectos/fulerenos/M3C-v1.9/M3C-deps_CCC/g09-AM64L-G09RevC.01/l103.exe)

 GradGradGradGradGradGradGradGradGradGradGradGradGradGradGradGradGradGrad
 Berny optimization.
 Initialization pass.
 Trust Radius=3.00D-01 FncErr=1.00D-07 GrdErr=1.00D-07
 Number of steps in this run=      2 maximum allowed number of steps=      2.
 GradGradGradGradGradGradGradGradGradGradGradGradGradGradGradGradGradGrad

 Leave Link  103 at Mon Jun 20 07:41:07 2016, MaxMem=    33554432 cpu:         0.0
 (Enter /home/proyectos/fulerenos/M3C-v1.9/M3C-deps_CCC/g09-AM64L-G09RevC.01/l202.exe)
                          Input orientation:                          
 ---------------------------------------------------------------------
 Center     Atomic      Atomic             Coordinates (Angstroms)
 Number     Number       Type             X           Y           Z
 ---------------------------------------------------------------------
      1          6           0        0.001886    2.267034    0.000000
      2          1           0       -0.937329    2.851834    0.000000
      3          1           0        0.941542    2.850957    0.000000
      4          6           0        0.001046    0.988391    0.000000
      5          6           0        0.000000   -0.354251    0.000000
      6          6           0        0.662476   -1.585592    0.000000
      7          1           0        1.649054   -2.047771    0.000000
      8          6           0       -0.665554   -1.583812    0.000000
      9          1           0       -1.652390   -2.045640    0.000000
 ---------------------------------------------------------------------
                    Distance matrix (angstroms):
                    1          2          3          4          5
     1  C    0.000000
     2  H    1.106398   0.000000
     3  H    1.106309   1.878871   0.000000
     4  C    1.278643   2.086377   2.086549   0.000000
     5  C    2.621286   3.340294   3.340638   1.342642   0.000000
     6  C    3.908850   4.717004   4.445317   2.657608   1.398240
     7  H    4.618518   5.540353   4.949556   3.454593   2.363766
     8  C    3.908259   4.443964   4.716984   2.657176   1.398135
     9  H    4.619068   4.949400   5.541222   3.455314   2.364570
                    6          7          8          9
     6  C    0.000000
     7  H    1.089470   0.000000
     8  C    1.328031   2.360650   0.000000
     9  H    2.360137   3.301445   1.089555   0.000000
 Stoichiometry    C5H4(2+)
 Framework group  CS[SG(C5H4)]
 Deg. of freedom    15
 Full point group                 CS      NOp   2
 Largest Abelian subgroup         CS      NOp   2
 Largest concise Abelian subgroup C1      NOp   1
                         Standard orientation:                         
 ---------------------------------------------------------------------
 Center     Atomic      Atomic             Coordinates (Angstroms)
 Number     Number       Type             X           Y           Z
 ---------------------------------------------------------------------
      1          6           0       -0.001886   -2.267034    0.000000
      2          1           0        0.937329   -2.851834    0.000000
      3          1           0       -0.941542   -2.850957    0.000000
      4          6           0       -0.001046   -0.988391    0.000000
      5          6           0        0.000000    0.354251    0.000000
      6          6           0       -0.662476    1.585592    0.000000
      7          1           0       -1.649054    2.047771    0.000000
      8          6           0        0.665554    1.583812    0.000000
      9          1           0        1.652390    2.045640    0.000000
 ---------------------------------------------------------------------
 Rotational constants (GHZ):     28.3073093      3.1593098      2.8421090
 Leave Link  202 at Mon Jun 20 07:41:07 2016, MaxMem=    33554432 cpu:         0.0
 (Enter /home/proyectos/fulerenos/M3C-v1.9/M3C-deps_CCC/g09-AM64L-G09RevC.01/l301.exe)
 Standard basis: 6-311++G(3df,2p) (5D, 7F)
 Ernie: Thresh=  0.10000D-02 Tol=  0.10000D-05 Strict=F.
 There are   187 symmetry adapted cartesian basis functions of A'  symmetry.
 There are    78 symmetry adapted cartesian basis functions of A"  symmetry.
 There are   162 symmetry adapted basis functions of A'  symmetry.
 There are    73 symmetry adapted basis functions of A"  symmetry.
   235 basis functions,   338 primitive gaussians,   265 cartesian basis functions
    16 alpha electrons       16 beta electrons
       nuclear repulsion energy       130.7591908614 Hartrees.
 IExCor=  402 DFT=T Ex+Corr=B3LYP ExCW=0 ScaHFX=  0.200000
 ScaDFX=  0.800000  0.720000  1.000000  0.810000 ScalE2=  1.000000  1.000000
 IRadAn=      0 IRanWt=     -1 IRanGd=            0 ICorTp=0 IEmpDi=  4
 NAtoms=    9 NActive=    9 NUniq=    9 SFac= 1.00D+00 NAtFMM=   60 NAOKFM=F Big=F
 Integral buffers will be    131072 words long.
 Raffenetti 2 integral format.
 Two-electron integral symmetry is turned on.
 Leave Link  301 at Mon Jun 20 07:41:07 2016, MaxMem=    33554432 cpu:         0.2
 (Enter /home/proyectos/fulerenos/M3C-v1.9/M3C-deps_CCC/g09-AM64L-G09RevC.01/l302.exe)
 NPDir=0 NMtPBC=     1 NCelOv=     1 NCel=       1 NClECP=     1 NCelD=      1
         NCelK=      1 NCelE2=     1 NClLst=     1 CellRange=     0.0.
 One-electron integrals computed using PRISM.
 NBasis=   235 RedAO= T EigKep=  6.34D-06  NBF=   162    73
 NBsUse=   234 1.00D-06 EigRej=  4.48D-07 NBFU=   161    73
 Precomputing XC quadrature grid using
 IXCGrd= 4 IRadAn=           0 IRanWt=          -1 IRanGd=           0 AccXCQ= 0.00D+00.
 Generated NRdTot=       0 NPtTot=           0 NUsed=           0 NTot=          32
 NSgBfM=   265   265   265   265   265 MxSgAt=     9 MxSgA2=     9.
 Leave Link  302 at Mon Jun 20 07:41:07 2016, MaxMem=    33554432 cpu:         1.1
 (Enter /home/proyectos/fulerenos/M3C-v1.9/M3C-deps_CCC/g09-AM64L-G09RevC.01/l303.exe)
 DipDrv:  MaxL=1.
 Leave Link  303 at Mon Jun 20 07:41:07 2016, MaxMem=    33554432 cpu:         0.1
 (Enter /home/proyectos/fulerenos/M3C-v1.9/M3C-deps_CCC/g09-AM64L-G09RevC.01/l401.exe)
 ExpMin= 3.60D-02 ExpMax= 4.56D+03 ExpMxC= 6.82D+02 IAcc=3 IRadAn=         5 AccDes= 0.00D+00
 Harris functional with IExCor=  402 and IRadAn=       5 diagonalized for initial guess.
 HarFok:  IExCor=  402 AccDes= 0.00D+00 IRadAn=         5 IDoV= 1 UseB2=F ITyADJ=14
 ICtDFT=  3500011 ScaDFX=  1.000000  1.000000  1.000000  1.000000
 FoFCou: FMM=F IPFlag=           0 FMFlag=      100000 FMFlg1=           0
         NFxFlg=           0 DoJE=T BraDBF=F KetDBF=T FulRan=T
         wScrn=  0.000000 ICntrl=     500 IOpCl=  0 I1Cent=   200000004 NGrid=           0
         NMat0=    1 NMatS0=      1 NMatT0=    0 NMatD0=    1 NMtDS0=    0 NMtDT0=    0
 Petite list used in FoFCou.
 Harris En= -192.344143881326    
 JPrj=0 DoOrth=F DoCkMO=F.
 Initial guess orbital symmetries:
       Occupied  (A') (A') (A') (A') (A') (A') (A') (A') (A') (A')
                 (A') (A') (A') (A") (A') (A")
       Virtual   (A') (A") (A") (A") (A') (A') (A') (A') (A') (A')
                 (A") (A') (A") (A') (A') (A') (A") (A') (A') (A')
                 (A") (A') (A') (A') (A') (A') (A') (A") (A') (A')
                 (A') (A') (A") (A') (A') (A') (A") (A') (A") (A')
                 (A') (A') (A") (A') (A') (A") (A') (A') (A") (A')
                 (A") (A') (A") (A') (A') (A") (A') (A") (A') (A')
                 (A') (A') (A') (A") (A') (A') (A') (A") (A') (A")
                 (A") (A') (A') (A') (A") (A') (A') (A") (A") (A')
                 (A') (A") (A') (A') (A") (A') (A') (A') (A') (A')
                 (A') (A') (A') (A") (A") (A') (A') (A') (A') (A")
                 (A') (A") (A') (A") (A") (A') (A') (A') (A") (A")
                 (A') (A') (A") (A') (A') (A') (A') (A") (A") (A')
                 (A') (A") (A') (A') (A") (A') (A') (A") (A') (A")
                 (A') (A') (A") (A") (A') (A') (A") (A') (A") (A')
                 (A') (A") (A") (A') (A") (A') (A') (A') (A') (A")
                 (A') (A') (A") (A') (A') (A') (A") (A') (A') (A')
                 (A") (A') (A') (A") (A') (A") (A') (A') (A') (A")
                 (A") (A') (A') (A') (A") (A') (A") (A') (A') (A")
                 (A') (A') (A') (A") (A') (A') (A') (A') (A") (A')
                 (A") (A") (A') (A") (A') (A") (A") (A') (A") (A')
                 (A") (A') (A") (A') (A') (A') (A") (A') (A') (A')
                 (A') (A') (A') (A') (A') (A') (A') (A')
 The electronic state of the initial guess is 1-A'.
 Leave Link  401 at Mon Jun 20 07:41:09 2016, MaxMem=    33554432 cpu:         6.4
 (Enter /home/proyectos/fulerenos/M3C-v1.9/M3C-deps_CCC/g09-AM64L-G09RevC.01/l502.exe)
 Closed shell SCF:
 Using DIIS extrapolation, IDIIS=  1040.
 Integral symmetry usage will be decided dynamically.
 IVT=      232800 IEndB=      232800 NGot=    33554432 MDV=    33408763
 LenX=    33408763 LenY=    33338097
 Requested convergence on RMS density matrix=1.00D-08 within 128 cycles.
 Requested convergence on MAX density matrix=1.00D-06.
 Requested convergence on             energy=1.00D-06.
 No special actions if energy rises.
 Fock matrices will be formed incrementally for  20 cycles.

 Cycle   1  Pass 1  IDiag  1:
 FoFJK:  IHMeth= 1 ICntrl=       0 DoSepK=F KAlg= 0 I1Cent=   0 FoldK=F
 IRaf= 970000000 NMat=   1 IRICut=       1 DoRegI=T DoRafI=F ISym2E= 1.
 FoFCou: FMM=F IPFlag=           0 FMFlag=      100000 FMFlg1=           0
         NFxFlg=           0 DoJE=F BraDBF=F KetDBF=F FulRan=T
         wScrn=  0.000000 ICntrl=       0 IOpCl=  0 I1Cent=           0 NGrid=           0
         NMat0=    1 NMatS0=      1 NMatT0=    0 NMatD0=    1 NMtDS0=    0 NMtDT0=    0
 Petite list used in FoFCou.
 E= -191.978845798134    
 DIIS: error= 2.09D-02 at cycle   1 NSaved=   1.
 NSaved= 1 IEnMin= 1 EnMin= -191.978845798134     IErMin= 1 ErrMin= 2.09D-02
 ErrMax= 2.09D-02  0.00D+00 EMaxC= 1.00D-01 BMatC= 6.55D-02 BMatP= 6.55D-02
 IDIUse=3 WtCom= 7.91D-01 WtEn= 2.09D-01
 Coeff-Com:  0.100D+01
 Coeff-En:   0.100D+01
 Coeff:      0.100D+01
 Gap=     0.150 Goal=   None    Shift=    0.000
 GapD=    0.150 DampG=1.000 DampE=0.500 DampFc=0.5000 IDamp=-1.
 Damping current iteration by 5.00D-01
 RMSDP=5.70D-03 MaxDP=2.98D-01              OVMax= 2.29D-01

 Cycle   2  Pass 1  IDiag  1:
 RMSU=  2.81D-03    CP:  1.03D+00
 E= -191.987771234037     Delta-E=       -0.008925435903 Rises=F Damp=T
 DIIS: error= 1.07D-02 at cycle   2 NSaved=   2.
 NSaved= 2 IEnMin= 2 EnMin= -191.987771234037     IErMin= 2 ErrMin= 1.07D-02
 ErrMax= 1.07D-02  0.00D+00 EMaxC= 1.00D-01 BMatC= 1.78D-02 BMatP= 6.55D-02
 IDIUse=3 WtCom= 8.93D-01 WtEn= 1.07D-01
 Coeff-Com:  0.252D+00 0.748D+00
 Coeff-En:   0.429D+00 0.571D+00
 Coeff:      0.271D+00 0.729D+00
 Gap=     0.187 Goal=   None    Shift=    0.000
 RMSDP=1.37D-03 MaxDP=4.21D-02 DE=-8.93D-03 OVMax= 1.70D-01

 Cycle   3  Pass 1  IDiag  1:
 RMSU=  1.30D-03    CP:  1.05D+00  8.79D-01
 E= -192.034190971347     Delta-E=       -0.046419737311 Rises=F Damp=F
 DIIS: error= 5.68D-03 at cycle   3 NSaved=   3.
 NSaved= 3 IEnMin= 3 EnMin= -192.034190971347     IErMin= 3 ErrMin= 5.68D-03
 ErrMax= 5.68D-03  0.00D+00 EMaxC= 1.00D-01 BMatC= 3.82D-03 BMatP= 1.78D-02
 IDIUse=3 WtCom= 9.43D-01 WtEn= 5.68D-02
 Coeff-Com: -0.220D-01 0.300D+00 0.722D+00
 Coeff-En:   0.000D+00 0.000D+00 0.100D+01
 Coeff:     -0.207D-01 0.283D+00 0.737D+00
 Gap=     0.196 Goal=   None    Shift=    0.000
 RMSDP=5.10D-04 MaxDP=2.73D-02 DE=-4.64D-02 OVMax= 3.04D-02

 Cycle   4  Pass 1  IDiag  1:
 RMSU=  3.41D-04    CP:  1.04D+00  9.69D-01  7.91D-01
 E= -192.037725197720     Delta-E=       -0.003534226372 Rises=F Damp=F
 DIIS: error= 2.13D-03 at cycle   4 NSaved=   4.
 NSaved= 4 IEnMin= 4 EnMin= -192.037725197720     IErMin= 4 ErrMin= 2.13D-03
 ErrMax= 2.13D-03  0.00D+00 EMaxC= 1.00D-01 BMatC= 3.96D-04 BMatP= 3.82D-03
 IDIUse=3 WtCom= 9.79D-01 WtEn= 2.13D-02
 Coeff-Com: -0.131D-01 0.374D-01 0.291D+00 0.684D+00
 Coeff-En:   0.000D+00 0.000D+00 0.766D-01 0.923D+00
 Coeff:     -0.128D-01 0.367D-01 0.287D+00 0.690D+00
 Gap=     0.197 Goal=   None    Shift=    0.000
 RMSDP=1.95D-04 MaxDP=1.15D-02 DE=-3.53D-03 OVMax= 7.48D-03

 Cycle   5  Pass 1  IDiag  1:
 RMSU=  1.11D-04    CP:  1.04D+00  9.31D-01  8.53D-01  7.40D-01
 E= -192.038153912286     Delta-E=       -0.000428714567 Rises=F Damp=F
 DIIS: error= 3.60D-04 at cycle   5 NSaved=   5.
 NSaved= 5 IEnMin= 5 EnMin= -192.038153912286     IErMin= 5 ErrMin= 3.60D-04
 ErrMax= 3.60D-04  0.00D+00 EMaxC= 1.00D-01 BMatC= 1.83D-05 BMatP= 3.96D-04
 IDIUse=3 WtCom= 9.96D-01 WtEn= 3.60D-03
 Coeff-Com: -0.431D-02 0.539D-02 0.958D-01 0.321D+00 0.582D+00
 Coeff-En:   0.000D+00 0.000D+00 0.000D+00 0.000D+00 0.100D+01
 Coeff:     -0.429D-02 0.537D-02 0.955D-01 0.320D+00 0.584D+00
 Gap=     0.197 Goal=   None    Shift=    0.000
 RMSDP=4.12D-05 MaxDP=2.02D-03 DE=-4.29D-04 OVMax= 1.85D-03

 Cycle   6  Pass 1  IDiag  1:
 RMSU=  2.77D-05    CP:  1.04D+00  9.34D-01  8.53D-01  7.65D-01  7.97D-01
 E= -192.038170076608     Delta-E=       -0.000016164322 Rises=F Damp=F
 DIIS: error= 1.17D-04 at cycle   6 NSaved=   6.
 NSaved= 6 IEnMin= 6 EnMin= -192.038170076608     IErMin= 6 ErrMin= 1.17D-04
 ErrMax= 1.17D-04  0.00D+00 EMaxC= 1.00D-01 BMatC= 1.85D-06 BMatP= 1.83D-05
 IDIUse=3 WtCom= 9.99D-01 WtEn= 1.17D-03
 Coeff-Com:  0.372D-03-0.346D-02 0.289D-02 0.655D-01 0.278D+00 0.657D+00
 Coeff-En:   0.000D+00 0.000D+00 0.000D+00 0.000D+00 0.000D+00 0.100D+01
 Coeff:      0.371D-03-0.346D-02 0.288D-02 0.654D-01 0.278D+00 0.657D+00
 Gap=     0.197 Goal=   None    Shift=    0.000
 RMSDP=1.25D-05 MaxDP=5.65D-04 DE=-1.62D-05 OVMax= 4.78D-04

 Cycle   7  Pass 1  IDiag  1:
 RMSU=  8.61D-06    CP:  1.04D+00  9.35D-01  8.49D-01  7.71D-01  7.99D-01
                    CP:  7.80D-01
 E= -192.038171932344     Delta-E=       -0.000001855736 Rises=F Damp=F
 DIIS: error= 2.39D-05 at cycle   7 NSaved=   7.
 NSaved= 7 IEnMin= 7 EnMin= -192.038171932344     IErMin= 7 ErrMin= 2.39D-05
 ErrMax= 2.39D-05  0.00D+00 EMaxC= 1.00D-01 BMatC= 3.36D-08 BMatP= 1.85D-06
 IDIUse=1 WtCom= 1.00D+00 WtEn= 0.00D+00
 Coeff-Com:  0.561D-03-0.125D-02-0.337D-02-0.441D-02 0.455D-02 0.780D-01
 Coeff-Com:  0.926D+00
 Coeff:      0.561D-03-0.125D-02-0.337D-02-0.441D-02 0.455D-02 0.780D-01
 Coeff:      0.926D+00
 Gap=     0.197 Goal=   None    Shift=    0.000
 RMSDP=3.21D-06 MaxDP=1.39D-04 DE=-1.86D-06 OVMax= 1.38D-04

 Cycle   8  Pass 1  IDiag  1:
 RMSU=  1.52D-06    CP:  1.04D+00  9.34D-01  8.50D-01  7.70D-01  8.05D-01
                    CP:  7.77D-01  9.72D-01
 E= -192.038171967879     Delta-E=       -0.000000035535 Rises=F Damp=F
 DIIS: error= 1.26D-05 at cycle   8 NSaved=   8.
 NSaved= 8 IEnMin= 8 EnMin= -192.038171967879     IErMin= 8 ErrMin= 1.26D-05
 ErrMax= 1.26D-05  0.00D+00 EMaxC= 1.00D-01 BMatC= 8.38D-09 BMatP= 3.36D-08
 IDIUse=1 WtCom= 1.00D+00 WtEn= 0.00D+00
 Coeff-Com:  0.333D-03-0.664D-03-0.227D-02-0.553D-02-0.821D-02 0.222D-01
 Coeff-Com:  0.504D+00 0.490D+00
 Coeff:      0.333D-03-0.664D-03-0.227D-02-0.553D-02-0.821D-02 0.222D-01
 Coeff:      0.504D+00 0.490D+00
 Gap=     0.197 Goal=   None    Shift=    0.000
 RMSDP=8.11D-07 MaxDP=2.58D-05 DE=-3.55D-08 OVMax= 6.35D-05

 Cycle   9  Pass 1  IDiag  1:
 RMSU=  5.30D-07    CP:  1.04D+00  9.34D-01  8.50D-01  7.71D-01  8.06D-01
                    CP:  7.84D-01  1.03D+00  8.53D-01
 E= -192.038171977268     Delta-E=       -0.000000009388 Rises=F Damp=F
 DIIS: error= 3.41D-06 at cycle   9 NSaved=   9.
 NSaved= 9 IEnMin= 9 EnMin= -192.038171977268     IErMin= 9 ErrMin= 3.41D-06
 ErrMax= 3.41D-06  0.00D+00 EMaxC= 1.00D-01 BMatC= 1.01D-09 BMatP= 8.38D-09
 IDIUse=1 WtCom= 1.00D+00 WtEn= 0.00D+00
 Coeff-Com:  0.680D-04-0.107D-03-0.412D-03-0.191D-02-0.573D-02-0.321D-02
 Coeff-Com:  0.833D-01 0.270D+00 0.658D+00
 Coeff:      0.680D-04-0.107D-03-0.412D-03-0.191D-02-0.573D-02-0.321D-02
 Coeff:      0.833D-01 0.270D+00 0.658D+00
 Gap=     0.197 Goal=   None    Shift=    0.000
 RMSDP=2.47D-07 MaxDP=1.04D-05 DE=-9.39D-09 OVMax= 1.89D-05

 Cycle  10  Pass 1  IDiag  1:
 RMSU=  1.26D-07    CP:  1.04D+00  9.34D-01  8.50D-01  7.71D-01  8.05D-01
                    CP:  7.88D-01  1.03D+00  8.45D-01  8.00D-01
 E= -192.038171978479     Delta-E=       -0.000000001212 Rises=F Damp=F
 DIIS: error= 2.41D-07 at cycle  10 NSaved=  10.
 NSaved=10 IEnMin=10 EnMin= -192.038171978479     IErMin=10 ErrMin= 2.41D-07
 ErrMax= 2.41D-07  0.00D+00 EMaxC= 1.00D-01 BMatC= 6.31D-12 BMatP= 1.01D-09
 IDIUse=1 WtCom= 1.00D+00 WtEn= 0.00D+00
 Coeff-Com: -0.654D-06 0.355D-05 0.439D-05-0.931D-04-0.604D-03-0.370D-03
 Coeff-Com: -0.450D-02 0.168D-01 0.945D-01 0.894D+00
 Coeff:     -0.654D-06 0.355D-05 0.439D-05-0.931D-04-0.604D-03-0.370D-03
 Coeff:     -0.450D-02 0.168D-01 0.945D-01 0.894D+00
 Gap=     0.197 Goal=   None    Shift=    0.000
 RMSDP=3.19D-08 MaxDP=1.50D-06 DE=-1.21D-09 OVMax= 1.65D-06

 Cycle  11  Pass 1  IDiag  1:
 RMSU=  1.10D-08    CP:  1.04D+00  9.34D-01  8.50D-01  7.71D-01  8.05D-01
                    CP:  7.88D-01  1.03D+00  8.55D-01  8.27D-01  9.71D-01
 E= -192.038171978490     Delta-E=       -0.000000000010 Rises=F Damp=F
 DIIS: error= 2.71D-08 at cycle  11 NSaved=  11.
 NSaved=11 IEnMin=11 EnMin= -192.038171978490     IErMin=11 ErrMin= 2.71D-08
 ErrMax= 2.71D-08  0.00D+00 EMaxC= 1.00D-01 BMatC= 1.75D-13 BMatP= 6.31D-12
 IDIUse=1 WtCom= 1.00D+00 WtEn= 0.00D+00
 Coeff-Com: -0.942D-06 0.188D-05 0.763D-05 0.173D-04-0.372D-04 0.383D-04
 Coeff-Com: -0.222D-02-0.218D-02 0.422D-02 0.150D+00 0.850D+00
 Coeff:     -0.942D-06 0.188D-05 0.763D-05 0.173D-04-0.372D-04 0.383D-04
 Coeff:     -0.222D-02-0.218D-02 0.422D-02 0.150D+00 0.850D+00
 Gap=     0.197 Goal=   None    Shift=    0.000
 RMSDP=5.33D-09 MaxDP=1.91D-07 DE=-1.02D-11 OVMax= 2.35D-07

 SCF Done:  E(RB3LYP) =  -192.038171978     A.U. after   11 cycles
            NFock= 11  Conv=0.53D-08     -V/T= 2.0047
 KE= 1.911449534802D+02 PE=-6.911080663341D+02 EE= 1.771657500140D+02
 Leave Link  502 at Mon Jun 20 07:42:30 2016, MaxMem=    33554432 cpu:       325.7
 (Enter /home/proyectos/fulerenos/M3C-v1.9/M3C-deps_CCC/g09-AM64L-G09RevC.01/l801.exe)
 DoSCS=F DFT=T ScalE2(SS,OS)=  1.000000  1.000000
 Range of M.O.s used for correlation:     1   234
 NBasis=   235 NAE=    16 NBE=    16 NFC=     0 NFV=     0
 NROrb=    234 NOA=    16 NOB=    16 NVA=   218 NVB=   218

 **** Warning!!: The largest alpha MO coefficient is  0.15624961D+03

 Leave Link  801 at Mon Jun 20 07:42:31 2016, MaxMem=    33554432 cpu:         0.1
 (Enter /home/proyectos/fulerenos/M3C-v1.9/M3C-deps_CCC/g09-AM64L-G09RevC.01/l1101.exe)
 Using compressed storage, NAtomX=     9.
 Will process     10 centers per pass.
 Leave Link 1101 at Mon Jun 20 07:42:31 2016, MaxMem=    33554432 cpu:         1.2
 (Enter /home/proyectos/fulerenos/M3C-v1.9/M3C-deps_CCC/g09-AM64L-G09RevC.01/l1102.exe)
 Symmetrizing basis deriv contribution to polar:
 IMax=3 JMax=2 DiffMx= 0.00D+00
 Leave Link 1102 at Mon Jun 20 07:42:31 2016, MaxMem=    33554432 cpu:         0.1
 (Enter /home/proyectos/fulerenos/M3C-v1.9/M3C-deps_CCC/g09-AM64L-G09RevC.01/l1110.exe)
 Forming Gx(P) for the SCF density, NAtomX=     9.
 Integral derivatives from FoFJK, PRISM(SPDF).
 Do as many integral derivatives as possible in FoFJK.
 G2DrvN: MDV=      33554256.
 G2DrvN: will do    10 centers at a time, making    1 passes.
 Calling FoFCou, ICntrl=  3107 FMM=F I1Cent=   0 AccDes= 0.00D+00.
 FoFJK:  IHMeth= 1 ICntrl=    3107 DoSepK=F KAlg= 0 I1Cent=   0 FoldK=F
 IRaf=         0 NMat=   1 IRICut=       1 DoRegI=T DoRafI=F ISym2E= 1.
 FoFCou: FMM=F IPFlag=           0 FMFlag=      100000 FMFlg1=           0
         NFxFlg=           0 DoJE=F BraDBF=F KetDBF=F FulRan=T
         wScrn=  0.000000 ICntrl=    3107 IOpCl=  0 I1Cent=           0 NGrid=           0
         NMat0=    1 NMatS0=      1 NMatT0=    0 NMatD0=    1 NMtDS0=    0 NMtDT0=    0
 Petite list used in FoFCou.
 End of G2Drv F.D. properties file   721 does not exist.
 End of G2Drv F.D. properties file   722 does not exist.
 End of G2Drv F.D. properties file   788 does not exist.
 Leave Link 1110 at Mon Jun 20 07:43:36 2016, MaxMem=    33554432 cpu:       254.2
 (Enter /home/proyectos/fulerenos/M3C-v1.9/M3C-deps_CCC/g09-AM64L-G09RevC.01/l1002.exe)
 Minotr:  Closed shell wavefunction.
          IDoAtm=111111111
          Direct CPHF calculation.
          Differentiating once with respect to electric field.
                with respect to dipole field.
          Differentiating once with respect to nuclear coordinates.
          Using symmetry in CPHF.
          Requested convergence is 1.0D-08 RMS, and 1.0D-07 maximum.
          Secondary convergence is 1.0D-12 RMS, and 1.0D-12 maximum.
          NewPWx=T KeepS1=F KeepF1=F KeepIn=T MapXYZ=F SortEE=F KeepMc=T.
          MDV=      33554104 using IRadAn=       2.
 Generate precomputed XC quadrature information.
          Solving linear equations simultaneously, MaxMat=       0.
 FoFJK:  IHMeth= 1 ICntrl=       0 DoSepK=F KAlg= 0 I1Cent=   0 FoldK=F
 IRaf= 970000000 NMat=  30 IRICut=      75 DoRegI=T DoRafI=T ISym2E= 2.
 FoFCou: FMM=F IPFlag=           0 FMFlag=      100000 FMFlg1=           0
         NFxFlg=           0 DoJE=F BraDBF=F KetDBF=F FulRan=T
         wScrn=  0.000000 ICntrl=       0 IOpCl=  0 I1Cent=           0 NGrid=           0
         NMat0=   30 NMatS0=     30 NMatT0=    0 NMatD0=   30 NMtDS0=    0 NMtDT0=    0
 Integrals replicated using symmetry in FoFCou.
          There are    30 degrees of freedom in the 1st order CPHF.  IDoFFX=6 NUNeed=     3.
     29 vectors produced by pass  0 Test12= 1.16D-14 3.33D-09 XBig12= 1.40D+02 9.04D+00.
 AX will form    29 AO Fock derivatives at one time.
     27 vectors produced by pass  1 Test12= 1.16D-14 3.33D-09 XBig12= 1.22D+01 7.62D-01.
     27 vectors produced by pass  2 Test12= 1.16D-14 3.33D-09 XBig12= 2.23D-01 8.74D-02.
     27 vectors produced by pass  3 Test12= 1.16D-14 3.33D-09 XBig12= 5.50D-04 6.38D-03.
     27 vectors produced by pass  4 Test12= 1.16D-14 3.33D-09 XBig12= 6.99D-07 1.50D-04.
     24 vectors produced by pass  5 Test12= 1.16D-14 3.33D-09 XBig12= 1.26D-09 5.83D-06.
      6 vectors produced by pass  6 Test12= 1.16D-14 3.33D-09 XBig12= 2.32D-12 2.38D-07.
      6 vectors produced by pass  7 Test12= 1.16D-14 3.33D-09 XBig12= 1.48D-13 1.20D-07.
      2 vectors produced by pass  8 Test12= 1.16D-14 3.33D-09 XBig12= 1.36D-15 8.00D-09.
      1 vectors produced by pass  9 Test12= 1.16D-14 3.33D-09 XBig12= 1.29D-16 5.39D-09.
 InvSVY:  IOpt=1 It=  1 EMax= 7.11D-15
 Solved reduced A of dimension   176 with    30 vectors.
 FullF1:  Do perturbations    1 to     3.
 Isotropic polarizability for W=    0.000000       48.18 Bohr**3.
 End of Minotr F.D. properties file   721 does not exist.
 End of Minotr F.D. properties file   722 does not exist.
 End of Minotr F.D. properties file   788 does not exist.
 Leave Link 1002 at Mon Jun 20 07:46:55 2016, MaxMem=    33554432 cpu:       786.7
 (Enter /home/proyectos/fulerenos/M3C-v1.9/M3C-deps_CCC/g09-AM64L-G09RevC.01/l601.exe)
 Copying SCF densities to generalized density rwf, IOpCl= 0 IROHF=0.

 **********************************************************************

            Population analysis using the SCF density.

 **********************************************************************

 Orbital symmetries:
       Occupied  (A') (A') (A') (A') (A') (A') (A') (A') (A') (A')
                 (A') (A') (A") (A') (A') (A")
       Virtual   (A') (A") (A") (A") (A') (A') (A') (A') (A') (A')
                 (A") (A') (A') (A') (A") (A') (A') (A") (A') (A')
                 (A") (A') (A') (A") (A') (A') (A') (A') (A") (A')
                 (A') (A') (A') (A') (A") (A') (A") (A') (A') (A')
                 (A") (A') (A') (A') (A') (A") (A') (A') (A") (A")
                 (A") (A') (A") (A') (A') (A') (A') (A") (A') (A')
                 (A') (A") (A') (A') (A') (A") (A') (A") (A') (A')
                 (A") (A') (A') (A') (A") (A') (A') (A") (A") (A')
                 (A') (A") (A') (A') (A") (A') (A') (A') (A') (A')
                 (A') (A") (A') (A") (A') (A') (A') (A') (A") (A')
                 (A') (A") (A') (A") (A") (A') (A') (A') (A") (A")
                 (A') (A') (A") (A') (A') (A') (A') (A") (A") (A')
                 (A') (A") (A') (A') (A") (A") (A') (A') (A') (A")
                 (A') (A') (A") (A") (A') (A') (A") (A') (A") (A')
                 (A") (A') (A") (A") (A') (A') (A') (A') (A') (A")
                 (A') (A") (A') (A') (A') (A') (A") (A') (A') (A')
                 (A") (A') (A') (A") (A') (A") (A') (A') (A') (A")
                 (A") (A') (A') (A") (A') (A") (A') (A') (A') (A")
                 (A') (A') (A') (A") (A') (A') (A') (A') (A") (A')
                 (A") (A") (A') (A") (A') (A") (A') (A") (A") (A')
                 (A") (A') (A") (A') (A') (A') (A") (A') (A') (A')
                 (A') (A') (A') (A') (A') (A') (A') (A')
 The electronic state is 1-A'.
 Alpha  occ. eigenvalues --  -10.73934 -10.73272 -10.71162 -10.71075 -10.67797
 Alpha  occ. eigenvalues --   -1.42248  -1.28041  -1.16501  -1.04383  -0.99446
 Alpha  occ. eigenvalues --   -0.95739  -0.90842  -0.87856  -0.86724  -0.83180
 Alpha  occ. eigenvalues --   -0.77124
 Alpha virt. eigenvalues --   -0.57390  -0.54415  -0.46913  -0.36028  -0.32421
 Alpha virt. eigenvalues --   -0.29569  -0.29357  -0.27626  -0.26419  -0.25405
 Alpha virt. eigenvalues --   -0.25055  -0.24130  -0.21840  -0.20883  -0.19452
 Alpha virt. eigenvalues --   -0.18776  -0.18306  -0.17843  -0.16193  -0.15055
 Alpha virt. eigenvalues --   -0.14864  -0.14485  -0.11625  -0.11212  -0.10847
 Alpha virt. eigenvalues --   -0.10604  -0.09887  -0.09081  -0.08325  -0.07423
 Alpha virt. eigenvalues --   -0.05111  -0.05097  -0.04633  -0.02414  -0.00964
 Alpha virt. eigenvalues --    0.00251   0.00928   0.01355   0.04460   0.05718
 Alpha virt. eigenvalues --    0.06775   0.07069   0.08625   0.09646   0.10910
 Alpha virt. eigenvalues --    0.11409   0.11839   0.11892   0.12897   0.15509
 Alpha virt. eigenvalues --    0.17836   0.18553   0.18999   0.21245   0.21319
 Alpha virt. eigenvalues --    0.21540   0.23246   0.24035   0.26629   0.27439
 Alpha virt. eigenvalues --    0.28381   0.32128   0.32893   0.34709   0.38842
 Alpha virt. eigenvalues --    0.41033   0.41485   0.43251   0.43730   0.45174
 Alpha virt. eigenvalues --    0.46153   0.54376   0.55519   0.57181   0.58384
 Alpha virt. eigenvalues --    0.64121   0.65703   0.66094   0.69713   0.70902
 Alpha virt. eigenvalues --    0.71014   0.73527   0.76040   0.76450   0.82330
 Alpha virt. eigenvalues --    0.83496   0.84491   0.86607   0.90069   0.93464
 Alpha virt. eigenvalues --    0.95214   0.95482   0.97553   0.97775   0.98416
 Alpha virt. eigenvalues --    1.05065   1.06095   1.08917   1.11017   1.12142
 Alpha virt. eigenvalues --    1.12430   1.16767   1.23462   1.24014   1.27880
 Alpha virt. eigenvalues --    1.32573   1.34705   1.40337   1.47031   1.51921
 Alpha virt. eigenvalues --    1.63086   1.66722   1.68914   1.70901   1.72331
 Alpha virt. eigenvalues --    1.82883   1.88806   1.96467   2.01412   2.11814
 Alpha virt. eigenvalues --    2.13811   2.17157   2.17261   2.18422   2.19215
 Alpha virt. eigenvalues --    2.24128   2.24263   2.27021   2.32459   2.34241
 Alpha virt. eigenvalues --    2.36213   2.40859   2.41579   2.42062   2.43328
 Alpha virt. eigenvalues --    2.43988   2.49561   2.50776   2.55527   2.56965
 Alpha virt. eigenvalues --    2.61455   2.63392   2.64860   2.68314   2.68349
 Alpha virt. eigenvalues --    2.76898   2.77849   2.82766   2.89151   2.90768
 Alpha virt. eigenvalues --    2.93644   2.98224   2.98285   3.14554   3.14722
 Alpha virt. eigenvalues --    3.19434   3.19648   3.25842   3.26270   3.36680
 Alpha virt. eigenvalues --    3.40549   3.54136   3.58790   3.65992   3.69257
 Alpha virt. eigenvalues --    3.70485   3.76640   3.79547   3.79931   3.86298
 Alpha virt. eigenvalues --    3.86464   4.05474   4.11027   4.14607   4.16209
 Alpha virt. eigenvalues --    4.24930   4.25583   4.38620   4.54861   4.55782
 Alpha virt. eigenvalues --    4.96507   5.08575   5.20524   5.34723   5.41596
 Alpha virt. eigenvalues --    6.13363   6.21947   6.33355   6.45488   6.50071
 Alpha virt. eigenvalues --    6.57918   6.58274   6.58542   6.61216   6.65955
 Alpha virt. eigenvalues --    6.75435   6.84935   6.85298   6.85796   6.86708
 Alpha virt. eigenvalues --    6.93814   6.97236   7.05080   7.14739   7.15521
 Alpha virt. eigenvalues --    7.19042   7.23855   7.57659   7.78781   7.84978
 Alpha virt. eigenvalues --    7.97416   8.08786   8.34318  23.42847  24.38973
 Alpha virt. eigenvalues --   25.26869  25.32935  25.73213
          Condensed to atoms (all electrons):
               1          2          3          4          5          6
     1  C    7.140861   0.412684   0.412843  -1.860883  -0.354190   0.091680
     2  H    0.412684   0.335105   0.000844  -0.059431  -0.004596  -0.012596
     3  H    0.412843   0.000844   0.335058  -0.059778  -0.004513   0.008244
     4  C   -1.860883  -0.059431  -0.059778   7.938845   0.209738  -0.227030
     5  C   -0.354190  -0.004596  -0.004513   0.209738   6.747989  -0.277179
     6  C    0.091680  -0.012596   0.008244  -0.227030  -0.277179   7.569112
     7  H    0.004177   0.000337  -0.000802  -0.027846   0.015425   0.256404
     8  C    0.089359   0.008196  -0.012542  -0.219867  -0.273818  -1.588931
     9  H    0.004288  -0.000805   0.000339  -0.028139   0.014820   0.028178
               7          8          9
     1  C    0.004177   0.089359   0.004288
     2  H    0.000337   0.008196  -0.000805
     3  H   -0.000802  -0.012542   0.000339
     4  C   -0.027846  -0.219867  -0.028139
     5  C    0.015425  -0.273818   0.014820
     6  C    0.256404  -1.588931   0.028178
     7  H    0.358025   0.027677  -0.001240
     8  C    0.027677   7.561624   0.256556
     9  H   -0.001240   0.256556   0.358172
 Mulliken charges:
               1
     1  C    0.059182
     2  H    0.320261
     3  H    0.320307
     4  C    0.334391
     5  C   -0.073677
     6  C    0.152117
     7  H    0.367842
     8  C    0.151746
     9  H    0.367830
 Sum of Mulliken charges =   2.00000
 Mulliken charges with hydrogens summed into heavy atoms:
               1
     1  C    0.699751
     4  C    0.334391
     5  C   -0.073677
     6  C    0.519959
     8  C    0.519576
 APT charges:
               1
     1  C   -0.072199
     2  H    0.361121
     3  H    0.361153
     4  C    0.263121
     5  C    0.007907
     6  C    0.253010
     7  H    0.286471
     8  C    0.252819
     9  H    0.286598
 Sum of APT charges =   2.00000
 APT charges with hydrogens summed into heavy atoms:
               1
     1  C    0.650074
     4  C    0.263121
     5  C    0.007907
     6  C    0.539481
     8  C    0.539417
 Electronic spatial extent (au):  <R**2>=            390.5503
 Charge=              2.0000 electrons
 Dipole moment (field-independent basis, Debye):
    X=             -0.0010    Y=             -1.2596    Z=              0.0000  Tot=              1.2596
 Quadrupole moment (field-independent basis, Debye-Ang):
   XX=            -13.5430   YY=             16.5491   ZZ=            -25.2635
   XY=              0.0258   XZ=              0.0000   YZ=              0.0000
 Traceless Quadrupole moment (field-independent basis, Debye-Ang):
   XX=             -6.1239   YY=             23.9682   ZZ=            -17.8444
   XY=              0.0258   XZ=              0.0000   YZ=              0.0000
 Octapole moment (field-independent basis, Debye-Ang**2):
  XXX=              0.0241  YYY=            -40.7361  ZZZ=              0.0000  XYY=             -0.0437
  XXY=              9.6839  XXZ=              0.0000  XZZ=              0.0006  YZZ=              0.7436
  YYZ=              0.0000  XYZ=              0.0000
 Hexadecapole moment (field-independent basis, Debye-Ang**3):
 XXXX=            -38.2677 YYYY=           -146.1554 ZZZZ=            -23.4491 XXXY=             -0.0171
 XXXZ=              0.0000 YYYX=             -0.0551 YYYZ=              0.0000 ZZZX=              0.0000
 ZZZY=              0.0000 XXYY=            -15.9343 XXZZ=            -15.0712 YYZZ=            -71.6577
 XXYZ=              0.0000 YYXZ=              0.0000 ZZXY=             -0.0489
 N-N= 1.307591908614D+02 E-N=-6.911080663838D+02  KE= 1.911449534802D+02
 Symmetry A'   KE= 1.864087372470D+02
 Symmetry A"   KE= 4.736216233196D+00
  Exact polarizability:  35.787   0.040  84.398  -0.001  -0.001  24.341
 Approx polarizability:  55.897   0.074 151.088  -0.000  -0.000  35.434
 No NMR shielding tensors so no spin-rotation constants.
 Leave Link  601 at Mon Jun 20 07:46:56 2016, MaxMem=    33554432 cpu:         1.4
 (Enter /home/proyectos/fulerenos/M3C-v1.9/M3C-deps_CCC/g09-AM64L-G09RevC.01/l701.exe)
 Compute integral second derivatives.
 ... and contract with generalized density number  0.
 Leave Link  701 at Mon Jun 20 07:46:56 2016, MaxMem=    33554432 cpu:         1.6
 (Enter /home/proyectos/fulerenos/M3C-v1.9/M3C-deps_CCC/g09-AM64L-G09RevC.01/l702.exe)
 L702 exits ... SP integral derivatives will be done elsewhere.
 Leave Link  702 at Mon Jun 20 07:46:56 2016, MaxMem=    33554432 cpu:         0.1
 (Enter /home/proyectos/fulerenos/M3C-v1.9/M3C-deps_CCC/g09-AM64L-G09RevC.01/l703.exe)
 Compute integral second derivatives, UseDBF=F ICtDFT=           0.
 Integral derivatives from FoFJK, PRISM(SPDF).
 Calling FoFJK, ICntrl=    100127 FMM=F ISym2X=1 I1Cent= 0 IOpClX= 0 NMat=1 NMatS=1 NMatT=0.
 FoFJK:  IHMeth= 1 ICntrl=  100127 DoSepK=F KAlg= 0 I1Cent=   0 FoldK=F
 IRaf=         0 NMat=   1 IRICut=       1 DoRegI=T DoRafI=F ISym2E= 1.
 FoFCou: FMM=F IPFlag=           0 FMFlag=      100000 FMFlg1=         800
         NFxFlg=           0 DoJE=F BraDBF=F KetDBF=F FulRan=T
         wScrn=  0.000000 ICntrl=  100127 IOpCl=  0 I1Cent=           0 NGrid=           0
         NMat0=    1 NMatS0=      1 NMatT0=    0 NMatD0=    1 NMtDS0=    0 NMtDT0=    0
 Petite list used in FoFCou.
 Leave Link  703 at Mon Jun 20 07:49:07 2016, MaxMem=    33554432 cpu:       525.6
 (Enter /home/proyectos/fulerenos/M3C-v1.9/M3C-deps_CCC/g09-AM64L-G09RevC.01/l716.exe)
 Dipole        =-3.81920634D-04-4.95561336D-01 0.00000000D+00
 Polarizability= 3.57873553D+01 4.02351495D-02 8.43980462D+01
                -1.01911645D-03-1.06686988D-03 2.43410179D+01
 Full mass-weighted force constant matrix:
 Low frequencies ---   -7.5916   -5.6401   -0.0008   -0.0002   -0.0001   10.4521
 Low frequencies ---  172.3274  205.8865  409.8433
 Diagonal vibrational polarizability:
       13.7622296       5.2583727      15.8709271
 Harmonic frequencies (cm**-1), IR intensities (KM/Mole), Raman scattering
 activities (A**4/AMU), depolarization ratios for plane and unpolarized
 incident light, reduced masses (AMU), force constants (mDyne/A),
 and normal coordinates:
                      1                      2                      3
                     A'                     A"                     A'
 Frequencies --    172.3273               205.8864               409.8432
 Red. masses --      2.7316                 4.3726                 1.7783
 Frc consts  --      0.0478                 0.1092                 0.1760
 IR Inten    --     10.6396                19.4168                 3.2397
  Atom  AN      X      Y      Z        X      Y      Z        X      Y      Z
     1   6    -0.17   0.00  -0.00     0.00   0.00  -0.25     0.06  -0.00   0.00
     2   1    -0.38  -0.32  -0.00     0.00   0.00  -0.51    -0.32  -0.56  -0.00
     3   1    -0.38   0.32  -0.00     0.00  -0.00  -0.51    -0.32   0.56   0.00
     4   6     0.16  -0.00   0.00    -0.00   0.00   0.38     0.18  -0.00  -0.00
     5   6     0.23  -0.00   0.00    -0.00   0.00   0.26    -0.15   0.00   0.00
     6   6    -0.06  -0.14  -0.00     0.00   0.00  -0.13    -0.02   0.08  -0.00
     7   1    -0.17  -0.38  -0.00     0.00   0.00  -0.30     0.04   0.21  -0.00
     8   6    -0.06   0.14  -0.00     0.00  -0.00  -0.13    -0.02  -0.08   0.00
     9   1    -0.17   0.38  -0.00     0.00  -0.00  -0.30     0.04  -0.21  -0.00
                      4                      5                      6
                     A"                     A"                     A'
 Frequencies --    473.8321               530.7849               712.5404
 Red. masses --      1.1231                 4.5422                 3.6079
 Frc consts  --      0.1486                 0.7540                 1.0792
 IR Inten    --      0.0000                 1.6532                 0.0495
  Atom  AN      X      Y      Z        X      Y      Z        X      Y      Z
     1   6     0.00   0.00  -0.00     0.00   0.00   0.04     0.00   0.31   0.00
     2   1     0.00   0.00  -0.70     0.00   0.00   0.17     0.03   0.37   0.00
     3   1     0.00  -0.00   0.70     0.00   0.00   0.17    -0.03   0.37  -0.00
     4   6    -0.00   0.00   0.00    -0.00   0.00  -0.34     0.00   0.19   0.00
     5   6    -0.00   0.00   0.00    -0.00   0.00   0.45    -0.00  -0.03  -0.00
     6   6    -0.00  -0.00  -0.07    -0.00  -0.00  -0.04    -0.03  -0.23   0.00
     7   1     0.00  -0.00  -0.05     0.00  -0.00  -0.56    -0.14  -0.48   0.00
     8   6     0.00  -0.00   0.07     0.00  -0.00  -0.04     0.03  -0.23  -0.00
     9   1     0.00   0.00   0.05     0.00  -0.00  -0.56     0.14  -0.48   0.00
                      7                      8                      9
                     A'                     A"                     A"
 Frequencies --    812.6742               858.4121               929.2249
 Red. masses --      2.6507                 1.3272                 1.3813
 Frc consts  --      1.0314                 0.5762                 0.7027
 IR Inten    --      2.6858                53.7722                 0.0004
  Atom  AN      X      Y      Z        X      Y      Z        X      Y      Z
     1   6    -0.20   0.00  -0.00    -0.00  -0.00   0.01     0.00  -0.00  -0.00
     2   1     0.20   0.59  -0.00     0.00   0.00  -0.01    -0.00  -0.00  -0.11
     3   1     0.20  -0.59   0.00     0.00  -0.00  -0.01    -0.00   0.00   0.11
     4   6     0.29  -0.00  -0.00     0.00  -0.00  -0.04    -0.00   0.00   0.00
     5   6    -0.02  -0.00   0.00    -0.00   0.00   0.10     0.00  -0.00   0.00
     6   6    -0.05   0.09   0.00    -0.00   0.00  -0.09     0.00   0.00   0.13
     7   1    -0.01   0.20  -0.00     0.00   0.00   0.70    -0.00  -0.00  -0.69
     8   6    -0.05  -0.09   0.00    -0.00  -0.00  -0.09    -0.00   0.00  -0.13
     9   1    -0.01  -0.20  -0.00    -0.00   0.00   0.70     0.00  -0.00   0.69
                     10                     11                     12
                     A"                     A'                     A'
 Frequencies --    947.5659               957.3048              1030.7532
 Red. masses --      1.3333                 1.2145                 1.3604
 Frc consts  --      0.7053                 0.6557                 0.8516
 IR Inten    --     47.4534                 5.6789                18.1439
  Atom  AN      X      Y      Z        X      Y      Z        X      Y      Z
     1   6     0.00  -0.00  -0.17    -0.00   0.05  -0.00    -0.00   0.00   0.00
     2   1    -0.00  -0.00   0.70     0.00   0.05   0.00     0.00   0.01  -0.00
     3   1    -0.00  -0.00   0.70    -0.00   0.05   0.00     0.00  -0.01   0.00
     4   6    -0.00   0.00   0.04     0.00  -0.00   0.00     0.01  -0.00  -0.00
     5   6     0.00  -0.00   0.01    -0.00   0.02  -0.00    -0.05   0.00   0.00
     6   6     0.00   0.00  -0.00    -0.02  -0.09   0.00     0.05   0.11  -0.00
     7   1    -0.00  -0.00   0.02     0.32   0.62  -0.00    -0.29  -0.63   0.00
     8   6    -0.00   0.00  -0.00     0.02  -0.09  -0.00     0.05  -0.11   0.00
     9   1     0.00  -0.00   0.02    -0.32   0.62   0.00    -0.29   0.63  -0.00
                     13                     14                     15
                     A'                     A'                     A'
 Frequencies --   1100.4615              1189.6052              1277.5629
 Red. masses --      7.0119                 2.0055                 1.8334
 Frc consts  --      5.0030                 1.6721                 1.7631
 IR Inten    --     69.9289                77.1742                60.9036
  Atom  AN      X      Y      Z        X      Y      Z        X      Y      Z
     1   6     0.09   0.00  -0.00     0.00  -0.00   0.00    -0.00  -0.12   0.00
     2   1    -0.05  -0.21  -0.00    -0.33  -0.57   0.00     0.41   0.52   0.00
     3   1    -0.05   0.22   0.00     0.33  -0.57  -0.00    -0.41   0.53  -0.00
     4   6    -0.14   0.00  -0.00    -0.00   0.00   0.00    -0.00  -0.08   0.00
     5   6     0.48  -0.00   0.00     0.00   0.23  -0.00     0.00   0.17  -0.00
     6   6    -0.19   0.33  -0.00    -0.12  -0.06   0.00    -0.11  -0.02   0.00
     7   1    -0.24   0.35   0.00    -0.14  -0.07  -0.00    -0.13  -0.03  -0.00
     8   6    -0.19  -0.33   0.00     0.12  -0.06  -0.00     0.11  -0.03  -0.00
     9   1    -0.24  -0.34  -0.00     0.14  -0.07   0.00     0.13  -0.03   0.00
                     16                     17                     18
                     A'                     A'                     A'
 Frequencies --   1663.2228              1838.3546              2931.1567
 Red. masses --      6.2677                 7.3874                 1.0594
 Frc consts  --     10.2155                14.7097                 5.3627
 IR Inten    --     37.2482                10.2243               549.7464
  Atom  AN      X      Y      Z        X      Y      Z        X      Y      Z
     1   6    -0.00  -0.31  -0.00    -0.00  -0.29   0.00    -0.00   0.07  -0.00
     2   1     0.19  -0.09   0.00     0.12  -0.13   0.00     0.61  -0.37  -0.00
     3   1    -0.19  -0.09  -0.00    -0.12  -0.13  -0.00    -0.60  -0.36   0.00
     4   6     0.00   0.32   0.00     0.00   0.53   0.00    -0.00  -0.00  -0.00
     5   6     0.00   0.29  -0.00    -0.00  -0.30  -0.00    -0.00  -0.01   0.00
     6   6     0.29  -0.12   0.00    -0.24   0.02   0.00    -0.00   0.00  -0.00
     7   1     0.41  -0.22  -0.00    -0.27   0.32  -0.00     0.01  -0.01   0.00
     8   6    -0.29  -0.12  -0.00     0.24   0.02  -0.00     0.00   0.00   0.00
     9   1    -0.42  -0.22   0.00     0.27   0.32   0.00    -0.01  -0.01  -0.00
                     19                     20                     21
                     A'                     A'                     A'
 Frequencies --   2985.5595              3144.5023              3191.1636
 Red. masses --      1.1087                 1.0967                 1.1607
 Frc consts  --      5.8223                 6.3890                 6.9642
 IR Inten    --    247.0762               269.2157               170.8509
  Atom  AN      X      Y      Z        X      Y      Z        X      Y      Z
     1   6    -0.10  -0.00  -0.00     0.00   0.00   0.00    -0.00  -0.00   0.00
     2   1     0.58  -0.39  -0.00     0.00  -0.00   0.00    -0.02   0.01  -0.00
     3   1     0.59   0.39   0.00     0.00   0.00  -0.00     0.02   0.01   0.00
     4   6    -0.00   0.00  -0.00     0.00  -0.00   0.00     0.00   0.00  -0.00
     5   6    -0.00   0.00   0.00     0.01   0.00  -0.00     0.00  -0.01   0.00
     6   6     0.00  -0.00  -0.00    -0.06   0.03   0.00    -0.08   0.03  -0.00
     7   1    -0.00   0.00   0.00     0.64  -0.29  -0.00     0.64  -0.30   0.00
     8   6     0.00   0.00   0.00    -0.06  -0.03  -0.00     0.08   0.03   0.00
     9   1     0.00  -0.00  -0.00     0.65   0.29   0.00    -0.63  -0.29  -0.00

 -------------------
 - Thermochemistry -
 -------------------
 Temperature   298.150 Kelvin.  Pressure   1.00000 Atm.
 Atom     1 has atomic number  6 and mass  12.00000
 Atom     2 has atomic number  1 and mass   1.00783
 Atom     3 has atomic number  1 and mass   1.00783
 Atom     4 has atomic number  6 and mass  12.00000
 Atom     5 has atomic number  6 and mass  12.00000
 Atom     6 has atomic number  6 and mass  12.00000
 Atom     7 has atomic number  1 and mass   1.00783
 Atom     8 has atomic number  6 and mass  12.00000
 Atom     9 has atomic number  1 and mass   1.00783
 Molecular mass:    64.03130 amu.
 Principal axes and moments of inertia in atomic units:
                           1         2         3
     Eigenvalues --    63.75531 571.24540 635.00070
           X            0.00086   1.00000   0.00000
           Y            1.00000  -0.00086   0.00000
           Z            0.00000  -0.00000   1.00000
 This molecule is an asymmetric top.
 Rotational symmetry number  1.
 Rotational temperatures (Kelvin)      1.35853     0.15162     0.13640
 Rotational constants (GHZ):          28.30731     3.15931     2.84211
 Zero-point vibrational energy     163665.5 (Joules/Mol)
                                   39.11700 (Kcal/Mol)
 Warning -- explicit consideration of   5 degrees of freedom as
           vibrations may cause significant error
 Vibrational temperatures:    247.94   296.22   589.67   681.74   763.68
          (Kelvin)           1025.19  1169.26  1235.06  1336.95  1363.33
                             1377.35  1483.02  1583.32  1711.57  1838.13
                             2393.00  2644.98  4217.28  4295.55  4524.23
                             4591.37
 
 Zero-point correction=                           0.062337 (Hartree/Particle)
 Thermal correction to Energy=                    0.067546
 Thermal correction to Enthalpy=                  0.068491
 Thermal correction to Gibbs Free Energy=         0.034756
 Sum of electronic and zero-point Energies=           -191.975835
 Sum of electronic and thermal Energies=              -191.970626
 Sum of electronic and thermal Enthalpies=            -191.969681
 Sum of electronic and thermal Free Energies=         -192.003416
 
                     E (Thermal)             CV                S
                      KCal/Mol        Cal/Mol-Kelvin    Cal/Mol-Kelvin
 Total                   42.386             17.989             71.000
 Electronic               0.000              0.000              0.000
 Translational            0.889              2.981             38.389
 Rotational               0.889              2.981             24.651
 Vibrational             40.608             12.028              7.960
 Vibration     1          0.626              1.877              2.410
 Vibration     2          0.640              1.832              2.080
 Vibration     3          0.774              1.449              0.927
 Vibration     4          0.831              1.308              0.727
 Vibration     5          0.886              1.182              0.585
                       Q            Log10(Q)             Ln(Q)
 Total Bot       0.103142D-15        -15.986564        -36.810423
 Total V=0       0.485692D+13         12.686361         29.211426
 Vib (Bot)       0.940784D-28        -28.026510        -64.533425
 Vib (Bot)    1  0.116854D+01          0.067645          0.155759
 Vib (Bot)    2  0.966265D+00         -0.014904         -0.034317
 Vib (Bot)    3  0.431733D+00         -0.364784         -0.839947
 Vib (Bot)    4  0.354828D+00         -0.449982         -1.036123
 Vib (Bot)    5  0.301086D+00         -0.521309         -1.200359
 Vib (V=0)       0.443011D+01          0.646414          1.488424
 Vib (V=0)    1  0.177102D+01          0.248224          0.571556
 Vib (V=0)    2  0.158797D+01          0.200841          0.462454
 Vib (V=0)    3  0.116060D+01          0.064683          0.148938
 Vib (V=0)    4  0.111311D+01          0.046538          0.107157
 Vib (V=0)    5  0.108365D+01          0.034891          0.080339
 Electronic      0.100000D+01          0.000000          0.000000
 Translational   0.201393D+08          7.304044         16.818182
 Rotational      0.544381D+05          4.735903         10.904820
 
                                                              b3lyp opt
                                                             IR Spectrum
 
     3 3      2 2                                          1      1               1  1   1 1                                         
     1 1      9 9                                          8      6               2  1   1 0  999 8 8   7      5  4 4       2 1      
     9 4      8 3                                          3      6               7  9   0 3  542 5 1   1      3  7 1       0 7      
     1 5      6 1                                          8      3               8  0   0 1  789 8 3   3      1  4 0       6 2      
 
     X X      X X                                          X      X               X  X   X X  XX  X X          X    X       X X      
     X X      X X                                                                 X  X   X     X  X                                  
     X X      X X                                                                    X   X                                           
     X X      X X                                                                                                                    
     X X      X X                                                                                                                    
     X X      X X                                                                                                                    
       X      X X                                                                                                                    
       X      X X                                                                                                                    
       X      X X                                                                                                                    
       X        X                                                                                                                    
                X                                                                                                                    
                X                                                                                                                    
                X                                                                                                                    
                X                                                                                                                    
                X                                                                                                                    
                X                                                                                                                    
                X                                                                                                                    
                X                                                                                                                    
                X                                                                                                                    
                X                                                                                                                    
 
 ***** Axes restored to original set *****
 -------------------------------------------------------------------
 Center     Atomic                   Forces (Hartrees/Bohr)
 Number     Number              X              Y              Z
 -------------------------------------------------------------------
      1        6          -0.000041344    0.000073848   -0.000000000
      2        1           0.000015642   -0.000018454   -0.000000000
      3        1           0.000022783   -0.000002751   -0.000000000
      4        6           0.000017637    0.000052481   -0.000000000
      5        6          -0.000073747   -0.000006468   -0.000000000
      6        6           0.000021967    0.000040090   -0.000000000
      7        1          -0.000057346   -0.000017468   -0.000000000
      8        6           0.000048195   -0.000245560   -0.000000000
      9        1           0.000046214    0.000124282   -0.000000000
 -------------------------------------------------------------------
 Cartesian Forces:  Max     0.000245560 RMS     0.000061677
 Z-matrix is all fixed cartesians, so copy forces.
 Force constants in Cartesian coordinates: 
                1             2             3             4             5 
      1  0.469515D+00
      2  0.398043D-03  0.804807D+00
      3  0.000000D+00  0.000000D+00  0.105276D+00
      4 -0.211392D+00  0.113382D+00  0.000000D+00  0.229304D+00
      5  0.121550D+00 -0.969964D-01  0.000000D+00 -0.125807D+00  0.113442D+00
      6  0.000000D+00  0.000000D+00 -0.349227D-01  0.000000D+00  0.000000D+00
      7 -0.211726D+00 -0.113383D+00  0.000000D+00 -0.162889D-01 -0.119332D-01
      8 -0.121524D+00 -0.968087D-01  0.000000D+00  0.119594D-01  0.907321D-02
      9  0.000000D+00  0.000000D+00 -0.349109D-01  0.000000D+00  0.000000D+00
     10 -0.835214D-01 -0.326800D-03  0.000000D+00  0.149513D-02  0.193163D-01
     11 -0.365656D-03 -0.545474D+00  0.109061D-05  0.386467D-02 -0.271274D-01
     12  0.000000D+00  0.000000D+00 -0.373738D-01  0.000000D+00  0.000000D+00
     13  0.467622D-01 -0.136444D-03  0.000000D+00 -0.408388D-02 -0.416402D-02
     14 -0.112257D-03 -0.114500D+00  0.000000D+00 -0.584357D-02  0.440536D-02
     15  0.211096D-05 -0.246662D-05  0.392973D-03 -0.125547D-05  0.100099D-05
     16 -0.425796D-02  0.238973D-01  0.104633D-05  0.170194D-02 -0.128049D-02
     17  0.497256D-02  0.276639D-01  0.000000D+00  0.124924D-02 -0.215190D-02
     18 -0.210003D-05  0.250812D-05  0.708210D-03  0.123346D-05  0.000000D+00
     19 -0.545177D-03 -0.269043D-02  0.000000D+00 -0.654194D-03  0.652825D-03
     20 -0.106902D-02 -0.320039D-02  0.000000D+00 -0.114622D-03  0.305614D-03
     21  0.000000D+00  0.000000D+00  0.612296D-04  0.000000D+00  0.000000D+00
     22 -0.428999D-02 -0.238302D-01 -0.151656D-05 -0.978203D-03  0.222665D-02
     23 -0.491684D-02  0.277050D-01  0.000000D+00  0.164422D-02 -0.102216D-02
     24  0.000000D+00  0.000000D+00  0.707799D-03  0.000000D+00  0.000000D+00
     25 -0.543874D-03  0.268895D-02  0.000000D+00  0.897052D-03 -0.560570D-03
     26  0.106764D-02 -0.319570D-02  0.000000D+00 -0.334404D-03  0.714511D-04
     27  0.000000D+00  0.000000D+00  0.607389D-04  0.000000D+00  0.000000D+00
                6             7             8             9            10 
      6  0.167880D-01
      7  0.000000D+00  0.229645D+00
      8  0.000000D+00  0.125779D+00  0.113243D+00
      9  0.865147D-02  0.000000D+00  0.000000D+00  0.167737D-01
     10  0.000000D+00  0.147892D-02 -0.193432D-01  0.000000D+00  0.151768D+00
     11  0.000000D+00 -0.386190D-02 -0.271131D-01  0.000000D+00  0.638338D-03
     12  0.692980D-02  0.000000D+00  0.000000D+00  0.693014D-02  0.000000D+00
     13  0.000000D+00 -0.406860D-02  0.417444D-02  0.000000D+00 -0.847366D-01
     14  0.000000D+00  0.584540D-02  0.439767D-02  0.000000D+00 -0.975682D-04
     15  0.317373D-02  0.000000D+00  0.000000D+00  0.317887D-02  0.000000D+00
     16  0.000000D+00 -0.982886D-03 -0.222937D-02  0.000000D+00  0.501581D-02
     17  0.000000D+00 -0.164486D-02 -0.101890D-02  0.000000D+00  0.464710D-02
     18  0.198726D-03  0.000000D+00  0.000000D+00 -0.985586D-03  0.000000D+00
     19  0.000000D+00  0.897086D-03  0.559732D-03  0.000000D+00  0.169261D-02
     20  0.000000D+00  0.334008D-03  0.717488D-04  0.000000D+00  0.192734D-02
     21  0.216207D-02  0.000000D+00  0.000000D+00 -0.199668D-02  0.000000D+00
     22  0.000000D+00  0.169988D-02  0.127684D-02  0.000000D+00  0.512646D-02
     23  0.000000D+00 -0.124993D-02 -0.215097D-02  0.000000D+00 -0.484754D-02
     24 -0.982930D-03  0.000000D+00  0.000000D+00  0.196079D-03  0.000000D+00
     25  0.000000D+00 -0.654240D-03 -0.652557D-03  0.000000D+00  0.168068D-02
     26  0.000000D+00  0.114204D-03  0.305867D-03  0.000000D+00 -0.191395D-02
     27 -0.199820D-02  0.000000D+00  0.000000D+00  0.216286D-02  0.000000D+00
               11            12            13            14            15 
     11  0.100430D+01
     12 -0.161882D-05  0.585009D-01
     13 -0.692825D-04  0.000000D+00  0.248184D+00
     14 -0.249859D+00  0.000000D+00  0.577420D-03  0.780433D+00
     15  0.389204D-05 -0.563724D-01  0.000000D+00  0.162672D-05  0.101609D+00
     16 -0.800395D-01  0.000000D+00 -0.110019D+00  0.240802D+00 -0.479469D-05
     17 -0.884420D-01  0.146523D-05  0.118647D+00 -0.195917D+00 -0.413571D-05
     18 -0.382349D-05  0.120701D-01  0.000000D+00 -0.165970D-05 -0.364355D-01
     19  0.750993D-02  0.000000D+00  0.941448D-02 -0.138456D-01  0.195808D-05
     20  0.111701D-01  0.000000D+00  0.172313D-01 -0.168408D-01  0.000000D+00
     21  0.000000D+00 -0.137626D-02  0.000000D+00  0.000000D+00  0.104371D-01
     22  0.798313D-01  0.132264D-05 -0.110882D+00 -0.241148D+00  0.000000D+00
     23 -0.886049D-01  0.000000D+00 -0.119071D+00 -0.195362D+00 -0.162427D-05
     24  0.000000D+00  0.120688D-01  0.000000D+00  0.000000D+00 -0.364097D-01
     25 -0.750796D-02  0.000000D+00  0.942950D-02  0.138214D-01  0.294163D-05
     26  0.111559D-01  0.000000D+00 -0.171896D-01 -0.167565D-01  0.161206D-05
     27  0.000000D+00 -0.137726D-02  0.000000D+00  0.000000D+00  0.104257D-01
               16            17            18            19            20 
     16  0.960815D+00
     17 -0.277679D+00  0.379611D+00
     18  0.384202D-05  0.391464D-05  0.915387D-01
     19 -0.298289D+00  0.123103D+00 -0.182210D-05  0.290472D+00
     20  0.114189D+00 -0.881820D-01  0.000000D+00 -0.120029D+00  0.877167D-01
     21  0.000000D+00  0.000000D+00 -0.410115D-01  0.000000D+00  0.000000D+00
     22 -0.550877D+00  0.316784D-01  0.000000D+00 -0.304575D-02 -0.126810D-01
     23 -0.303915D-01 -0.388271D-01  0.149217D-05  0.495060D-02  0.724561D-02
     24  0.000000D+00  0.000000D+00 -0.355383D-01  0.000000D+00  0.000000D+00
     25 -0.310664D-02 -0.497399D-02 -0.267217D-05  0.584267D-04  0.212562D-03
     26  0.127311D-01  0.726435D-02 -0.143643D-05 -0.210660D-03  0.171342D-02
     27  0.000000D+00  0.000000D+00  0.945514D-02  0.000000D+00  0.000000D+00
               21            22            23            24            25 
     21  0.224824D-01
     22  0.000000D+00  0.961505D+00
     23  0.000000D+00  0.276728D+00  0.379117D+00
     24  0.944751D-02  0.000000D+00  0.000000D+00  0.915344D-01
     25  0.000000D+00 -0.298259D+00 -0.122846D+00  0.000000D+00  0.290498D+00
     26  0.000000D+00 -0.114082D+00 -0.881005D-01  0.000000D+00  0.119818D+00
     27 -0.205853D-03  0.000000D+00  0.000000D+00 -0.410237D-01  0.000000D+00
               26            27 
     26  0.875417D-01
     27  0.000000D+00  0.225006D-01
 Leave Link  716 at Mon Jun 20 07:49:07 2016, MaxMem=    33554432 cpu:         0.2
 (Enter /home/proyectos/fulerenos/M3C-v1.9/M3C-deps_CCC/g09-AM64L-G09RevC.01/l103.exe)

 GradGradGradGradGradGradGradGradGradGradGradGradGradGradGradGradGradGrad
 Berny optimization.
 Search for a local minimum.
 Step number   1 out of a maximum of    2
 All quantities printed in internal units (Hartrees-Bohrs-Radians)
 Second derivative matrix not updated -- analytic derivatives used.
 ITU=  0
     Eigenvalues ---    0.00313   0.00831   0.01035   0.01627   0.03313
     Eigenvalues ---    0.04215   0.06402   0.11940   0.12570   0.12874
     Eigenvalues ---    0.17344   0.18540   0.21695   0.29222   0.32470
     Eigenvalues ---    0.45590   0.68281   0.80531   0.89713   1.46358
     Eigenvalues ---    1.86424
 Angle between quadratic step and forces=  46.16 degrees.
 ClnCor:  largest displacement from symmetrization is 3.28D-09 for atom     3.
 Linear search not attempted -- first point.
 ClnCor:  largest displacement from symmetrization is 4.97D-16 for atom     6.
 B after Tr=    -0.000035   -0.000068    0.000000
         Rot=    1.000000   -0.000000   -0.000000   -0.000021 Ang=  -0.00 deg.
 Variable       Old X    -DE/DX   Delta X   Delta X   Delta X     New X
                                 (Linear)    (Quad)   (Total)
    X1        0.00356  -0.00004   0.00000  -0.00005  -0.00026   0.00330
    Y1        4.28407   0.00007   0.00000   0.00017   0.00010   4.28418
    Z1        0.00000  -0.00000   0.00000   0.00000   0.00000   0.00000
    X2       -1.77130   0.00002   0.00000   0.00033   0.00007  -1.77123
    Y2        5.38919  -0.00002   0.00000   0.00057   0.00043   5.38962
    Z2        0.00000  -0.00000   0.00000   0.00000   0.00000   0.00000
    X3        1.77926   0.00002   0.00000   0.00056   0.00030   1.77956
    Y3        5.38753  -0.00000   0.00000  -0.00069  -0.00069   5.38684
    Z3        0.00000  -0.00000   0.00000   0.00000   0.00000   0.00000
    X4        0.00198   0.00002   0.00000  -0.00046  -0.00057   0.00141
    Y4        1.86779   0.00005   0.00000   0.00005  -0.00002   1.86777
    Z4        0.00000  -0.00000   0.00000   0.00000   0.00000   0.00000
    X5       -0.00000  -0.00007   0.00000  -0.00058  -0.00059  -0.00059
    Y5       -0.66944  -0.00001   0.00000  -0.00003  -0.00010  -0.66954
    Z5        0.00000  -0.00000   0.00000   0.00000   0.00000   0.00000
    X6        1.25190   0.00002   0.00000   0.00030   0.00039   1.25229
    Y6       -2.99633   0.00004   0.00000   0.00033   0.00032  -2.99602
    Z6        0.00000  -0.00000   0.00000   0.00000   0.00000   0.00000
    X7        3.11626  -0.00006   0.00000   0.00001   0.00014   3.11640
    Y7       -3.86973  -0.00002   0.00000   0.00000   0.00006  -3.86966
    Z7        0.00000  -0.00000   0.00000   0.00000   0.00000   0.00000
    X8       -1.25771   0.00005   0.00000   0.00049   0.00058  -1.25713
    Y8       -2.99297  -0.00025   0.00000  -0.00095  -0.00107  -2.99404
    Z8        0.00000  -0.00000   0.00000   0.00000   0.00000   0.00000
    X9       -3.12256   0.00005   0.00000  -0.00019  -0.00006  -3.12262
    Y9       -3.86570   0.00012   0.00000   0.00116   0.00096  -3.86474
    Z9        0.00000  -0.00000   0.00000   0.00000   0.00000   0.00000
         Item               Value     Threshold  Converged?
 Maximum Force            0.000246     0.000450     YES
 RMS     Force            0.000062     0.000300     YES
 Maximum Displacement     0.001069     0.001800     YES
 RMS     Displacement     0.000394     0.001200     YES
 Predicted change in Energy=-2.362514D-07
 Optimization completed.
    -- Stationary point found.
 GradGradGradGradGradGradGradGradGradGradGradGradGradGradGradGradGradGrad

 Leave Link  103 at Mon Jun 20 07:49:07 2016, MaxMem=    33554432 cpu:         0.1
 (Enter /home/proyectos/fulerenos/M3C-v1.9/M3C-deps_CCC/g09-AM64L-G09RevC.01/l9999.exe)
 1\1\GINC-BELVIS17\Freq\RB3LYP\6-311++G(3df,2p)\C5H4(2+)\ROOT\20-Jun-20
 16\0\\#p b3lyp/6-311++G(3df,2p) freq symmetry=Loose\\b3lyp opt\\2,1\C,
 0.001886,2.267034,0.\H,-0.937329,2.851834,0.\H,0.941542,2.850957,0.\C,
 0.001046,0.988391,0.\C,0.,-0.354251,0.\C,0.662476,-1.585592,0.\H,1.649
 054,-2.047771,0.\C,-0.665554,-1.583812,0.\H,-1.65239,-2.04564,0.\\Vers
 ion=EM64L-G09RevE.01\State=1-A'\HF=-192.038172\RMSD=5.334e-09\RMSF=6.1
 68e-05\ZeroPoint=0.0623369\Thermal=0.0675463\Dipole=0.000382,0.4955613
 ,0.\DipoleDeriv=-0.2067138,0.000142,-0.0000209,0.0000489,-0.2646557,0.
 0000259,0.0000091,0.0000183,0.2547712,0.3677032,-0.3044708,0.0000081,-
 0.1018605,0.5143485,-0.0000069,-0.0000164,-0.000007,0.2013113,0.368226
 7,0.3044635,0.0000046,0.1021252,0.5139992,-0.0000031,0.0000152,0.00000
 85,0.2012321,0.4415978,-0.0000753,0.0000026,-0.0003253,0.1671481,-0.00
 00593,-0.0000336,-0.0000295,0.180618,-0.2202081,0.0001944,0.0000058,0.
 0003253,-0.0726617,-0.000027,0.0001318,0.000079,0.3165905,0.2038021,0.
 0197403,0.000009,-0.2862128,0.3378187,0.0000484,-0.0001202,-0.0000783,
 0.217408,0.41979,-0.2776259,-0.0000191,-0.0900475,0.2341635,0.0000052,
 0.0000048,0.0000033,0.2054597,0.2055893,-0.0198811,0.0000295,0.2861356
 ,0.3357524,0.0000283,0.0000203,0.0000105,0.2171144,0.4202128,0.2775127
 ,-0.0000196,0.0898111,0.234087,-0.0000116,-0.0000109,-0.0000049,0.2054
 949\Polar=35.7873553,0.0402392,84.3980462,0.0010191,0.0010669,24.34101
 79\PG=CS [SG(C5H4)]\NImag=0\\0.46951486,0.00039804,0.80480679,0.000000
 52,-0.00000057,0.10527632,-0.21139246,0.11338247,-0.00000016,0.2293035
 5,0.12154986,-0.09699645,0.00000012,-0.12580740,0.11344223,-0.00000022
 ,0.00000020,-0.03492266,0.00000012,-0.00000011,0.01678799,-0.21172621,
 -0.11338284,-0.00000005,-0.01628893,-0.01193315,0.00000002,0.22964497,
 -0.12152433,-0.09680874,0.,0.01195940,0.00907321,-0.00000009,0.1257790
 7,0.11324322,0.00000025,-0.00000027,-0.03491085,-0.00000014,0.00000011
 ,0.00865147,-0.00000003,0.00000008,0.01677370,-0.08352142,-0.00032680,
 -0.00000022,0.00149513,0.01931630,-0.00000001,0.00147892,-0.01934322,-
 0.00000001,0.15176837,-0.00036566,-0.54547437,0.00000109,0.00386467,-0
 .02712736,-0.00000038,-0.00386190,-0.02711311,0.00000045,0.00063834,1.
 00429508,-0.00000089,0.00000097,-0.03737377,0.00000040,-0.00000031,0.0
 0692980,0.00000009,-0.00000013,0.00693014,0.00000022,-0.00000162,0.058
 50086,0.04676224,-0.00013644,-0.00000006,-0.00408388,-0.00416402,0.000
 00007,-0.00406860,0.00417444,-0.00000008,-0.08473655,-0.00006928,0.000
 00021,0.24818418,-0.00011226,-0.11450011,0.00000072,-0.00584357,0.0044
 0536,-0.00000017,0.00584540,0.00439767,0.00000021,-0.00009757,-0.24985
 939,-0.00000095,0.00057742,0.78043313,0.00000211,-0.00000247,0.0003929
 7,-0.00000126,0.00000100,0.00317373,-0.00000034,0.00000065,0.00317887,
 -0.00000003,0.00000389,-0.05637242,-0.00000080,0.00000163,0.10160916,-
 0.00425796,0.02389726,0.00000105,0.00170194,-0.00128049,0.00000074,-0.
 00098289,-0.00222937,-0.00000052,0.00501581,-0.08003947,0.,-0.11001949
 ,0.24080245,-0.00000479,0.96081528,0.00497256,0.02766394,-0.00000080,0
 .00124924,-0.00215190,0.00000048,-0.00164486,-0.00101890,-0.00000049,0
 .00464710,-0.08844201,0.00000147,0.11864736,-0.19591737,-0.00000414,-0
 .27767891,0.37961091,-0.00000210,0.00000251,0.00070821,0.00000123,-0.0
 0000096,0.00019873,0.00000034,-0.00000058,-0.00098559,0.00000011,-0.00
 000382,0.01207012,0.00000077,-0.00000166,-0.03643545,0.00000384,0.0000
 0391,0.09153871,-0.00054518,-0.00269043,0.00000026,-0.00065419,0.00065
 282,-0.00000023,0.00089709,0.00055973,0.00000023,0.00169261,0.00750993
 ,-0.00000060,0.00941448,-0.01384562,0.00000196,-0.29828926,0.12310309,
 -0.00000182,0.29047178,-0.00106902,-0.00320039,-0.00000010,-0.00011462
 ,0.00030561,0.00000006,0.00033401,0.00007175,-0.00000006,0.00192734,0.
 01117008,0.00000020,0.01723125,-0.01684082,-0.00000056,0.11418892,-0.0
 8818197,0.00000054,-0.12002946,0.08771670,0.00000008,-0.00000012,0.000
 06123,-0.00000006,0.00000004,0.00216207,-0.00000002,0.00000002,-0.0019
 9668,0.,0.00000012,-0.00137626,-0.00000004,0.00000002,0.01043708,-0.00
 000020,-0.00000012,-0.04101153,0.00000006,-0.00000002,0.02248243,-0.00
 428999,-0.02383022,-0.00000152,-0.00097820,0.00222665,-0.00000011,0.00
 169988,0.00127684,-0.00000004,0.00512646,0.07983133,0.00000132,-0.1108
 8187,-0.24114768,0.00000021,-0.55087679,0.03167842,0.00000030,-0.00304
 575,-0.01268098,0.00000008,0.96150493,-0.00491684,0.02770502,-0.000000
 53,0.00164422,-0.00102216,0.00000023,-0.00124993,-0.00215097,-0.000000
 22,-0.00484754,-0.08860486,0.00000075,-0.11907114,-0.19536197,-0.00000
 162,-0.03039151,-0.03882707,0.00000149,0.00495060,0.00724561,0.,0.2767
 2772,0.37911691,0.00000038,-0.00000037,0.00070780,-0.00000019,0.000000
 16,-0.00098293,-0.00000003,0.00000010,0.00019608,-0.00000005,0.0000005
 8,0.01206879,-0.00000010,0.00000033,-0.03640965,-0.00000059,-0.0000006
 6,-0.03553835,0.00000031,-0.00000009,0.00944751,-0.00000020,-0.0000003
 2,0.09153445,-0.00054387,0.00268895,0.00000019,0.00089705,-0.00056057,
 -0.00000038,-0.00065424,-0.00065256,0.00000035,0.00168068,-0.00750796,
 -0.00000076,0.00942950,0.01382143,0.00000294,-0.00310664,-0.00497399,-
 0.00000267,0.00005843,0.00021256,0.00000010,-0.29825867,-0.12284558,0.
 00000049,0.29049777,0.00106764,-0.00319570,0.00000008,-0.00033440,0.00
 007145,-0.00000022,0.00011420,0.00030587,0.00000019,-0.00191395,0.0111
 5593,-0.00000039,-0.01718958,-0.01675650,0.00000161,0.01273112,0.00726
 435,-0.00000144,-0.00021066,0.00171342,0.00000005,-0.11408208,-0.08810
 052,0.00000026,0.11981771,0.08754170,-0.00000013,0.00000011,0.00006074
 ,0.00000006,-0.00000006,-0.00199820,0.00000002,-0.00000006,0.00216286,
 -0.00000001,-0.00000030,-0.00137726,0.00000004,-0.00000014,0.01042571,
 0.00000048,0.00000035,0.00945514,-0.00000016,0.00000004,-0.00020585,-0
 .00000004,0.00000021,-0.04102370,-0.00000025,-0.00000015,0.02250056\\0
 .00004134,-0.00007385,0.,-0.00001564,0.00001845,0.,-0.00002278,0.00000
 275,0.,-0.00001764,-0.00005248,0.,0.00007375,0.00000647,0.,-0.00002197
 ,-0.00004009,0.,0.00005735,0.00001747,0.,-0.00004819,0.00024556,0.,-0.
 00004621,-0.00012428,0.\\\@


 EDUCATION IS NOT TRAINING BUT RATHER THE PROCESS THAT EQUIPS YOU TO
 ENTERTAIN YOURSELF, A FRIEND, OR AN IDEA.  -- WALLACE STERLING
 Job cpu time:       0 days  0 hours 31 minutes 45.9 seconds.
 File lengths (MBytes):  RWF=     45 Int=      0 D2E=      0 Chk=      4 Scr=      1
 Normal termination of Gaussian 09 at Mon Jun 20 07:49:08 2016.
