 Entering Gaussian System, Link 0=/home/proyectos/fulerenos/M3C-v2.0/M3C-deps_CCC/g09-AM64L-G09RevC.01/g09
 Initial command:
 /home/proyectos/fulerenos/M3C-v2.0/M3C-deps_CCC/g09-AM64L-G09RevC.01/l1.exe "/scratch/naguirre/gaussian/Gau-7001.inp" -scrdir="/scratch/naguirre/gaussian/"
 Entering Link 1 = /home/proyectos/fulerenos/M3C-v2.0/M3C-deps_CCC/g09-AM64L-G09RevC.01/l1.exe PID=      7005.
  
 Copyright (c) 1988,1990,1992,1993,1995,1998,2003,2009,2015,
            Gaussian, Inc.  All Rights Reserved.
  
 This is part of the Gaussian(R) 09 program.  It is based on
 the Gaussian(R) 03 system (copyright 2003, Gaussian, Inc.),
 the Gaussian(R) 98 system (copyright 1998, Gaussian, Inc.),
 the Gaussian(R) 94 system (copyright 1995, Gaussian, Inc.),
 the Gaussian 92(TM) system (copyright 1992, Gaussian, Inc.),
 the Gaussian 90(TM) system (copyright 1990, Gaussian, Inc.),
 the Gaussian 88(TM) system (copyright 1988, Gaussian, Inc.),
 the Gaussian 86(TM) system (copyright 1986, Carnegie Mellon
 University), and the Gaussian 82(TM) system (copyright 1983,
 Carnegie Mellon University). Gaussian is a federally registered
 trademark of Gaussian, Inc.
  
 This software contains proprietary and confidential information,
 including trade secrets, belonging to Gaussian, Inc.
  
 This software is provided under written license and may be
 used, copied, transmitted, or stored only in accord with that
 written license.
  
 The following legend is applicable only to US Government
 contracts under FAR:
  
                    RESTRICTED RIGHTS LEGEND
  
 Use, reproduction and disclosure by the US Government is
 subject to restrictions as set forth in subparagraphs (a)
 and (c) of the Commercial Computer Software - Restricted
 Rights clause in FAR 52.227-19.
  
 Gaussian, Inc.
 340 Quinnipiac St., Bldg. 40, Wallingford CT 06492
  
  
 ---------------------------------------------------------------
 Warning -- This program may not be used in any manner that
 competes with the business of Gaussian, Inc. or will provide
 assistance to any competitor of Gaussian, Inc.  The licensee
 of this program is prohibited from giving any competitor of
 Gaussian, Inc. access to this program.  By using this program,
 the user acknowledges that Gaussian, Inc. is engaged in the
 business of creating and licensing software in the field of
 computational chemistry and represents and warrants to the
 licensee that it is not a competitor of Gaussian, Inc. and that
 it will not use this program in any manner prohibited above.
 ---------------------------------------------------------------
  

 Cite this work as:
 Gaussian 09, Revision E.01,
 M. J. Frisch, G. W. Trucks, H. B. Schlegel, G. E. Scuseria, 
 M. A. Robb, J. R. Cheeseman, G. Scalmani, V. Barone, B. Mennucci, 
 G. A. Petersson, H. Nakatsuji, M. Caricato, X. Li, H. P. Hratchian, 
 A. F. Izmaylov, J. Bloino, G. Zheng, J. L. Sonnenberg, M. Hada, 
 M. Ehara, K. Toyota, R. Fukuda, J. Hasegawa, M. Ishida, T. Nakajima, 
 Y. Honda, O. Kitao, H. Nakai, T. Vreven, J. A. Montgomery, Jr., 
 J. E. Peralta, F. Ogliaro, M. Bearpark, J. J. Heyd, E. Brothers, 
 K. N. Kudin, V. N. Staroverov, T. Keith, R. Kobayashi, J. Normand, 
 K. Raghavachari, A. Rendell, J. C. Burant, S. S. Iyengar, J. Tomasi, 
 M. Cossi, N. Rega, J. M. Millam, M. Klene, J. E. Knox, J. B. Cross, 
 V. Bakken, C. Adamo, J. Jaramillo, R. Gomperts, R. E. Stratmann, 
 O. Yazyev, A. J. Austin, R. Cammi, C. Pomelli, J. W. Ochterski, 
 R. L. Martin, K. Morokuma, V. G. Zakrzewski, G. A. Voth, 
 P. Salvador, J. J. Dannenberg, S. Dapprich, A. D. Daniels, 
 O. Farkas, J. B. Foresman, J. V. Ortiz, J. Cioslowski, 
 and D. J. Fox, Gaussian, Inc., Wallingford CT, 2013.
 
 ******************************************
 Gaussian 09:  EM64L-G09RevE.01 30-Nov-2015
                20-Jul-2016 
 ******************************************
 %NProcShared=1
 Will use up to    1 processors via shared memory.
 ---------------------------------------------
 #p b3lyp/6-311++G(3df,2p) freq symmetry=Loose
 ---------------------------------------------
 1/10=4,30=1,38=1/1,3;
 2/12=2,17=4,18=3,40=1/2;
 3/5=4,6=6,7=1216,11=2,16=1,25=1,30=1,71=2,74=-5,140=1/1,2,3;
 4//1;
 5/5=2,38=5,98=1/2;
 8/6=4,10=90,11=11/1;
 11/6=1,8=1,9=11,15=111,16=1/1,2,10;
 10/6=1/2;
 6/7=2,8=2,9=2,10=2,18=1,28=1/1;
 7/8=1,10=1,25=1/1,2,3,16;
 1/10=4,30=1/3;
 99//99;
 Leave Link    1 at Wed Jul 20 21:27:11 2016, MaxMem=           0 cpu:         0.1
 (Enter /home/proyectos/fulerenos/M3C-v2.0/M3C-deps_CCC/g09-AM64L-G09RevC.01/l101.exe)
 ---------
 b3lyp opt
 ---------
 Symbolic Z-matrix:
 Charge =  1 Multiplicity = 4
 C                     0.00018  -1.23615   0.00001 
 C                     1.16772  -0.44877   0.00006 
 H                     2.19201  -0.78975   0.00011 
 C                     0.71046   0.90241   0.00001 
 H                     1.34291   1.77852   0.00003 
 C                    -0.71072   0.90221  -0.00006 
 H                    -1.34343   1.77813  -0.0001 
 C                    -1.16758  -0.44911  -0.00006 
 H                    -2.19178  -0.79039  -0.0001 
 
 NAtoms=      9 NQM=        9 NQMF=       0 NMMI=      0 NMMIF=      0
                NMic=       0 NMicF=      0.
                    Isotopes and Nuclear Properties:
 (Nuclear quadrupole moments (NQMom) in fm**2, nuclear magnetic moments (NMagM)
  in nuclear magnetons)

  Atom         1           2           3           4           5           6           7           8           9
 IAtWgt=          12          12           1          12           1          12           1          12           1
 AtmWgt=  12.0000000  12.0000000   1.0078250  12.0000000   1.0078250  12.0000000   1.0078250  12.0000000   1.0078250
 NucSpn=           0           0           1           0           1           0           1           0           1
 AtZEff=   0.0000000   0.0000000   0.0000000   0.0000000   0.0000000   0.0000000   0.0000000   0.0000000   0.0000000
 NQMom=    0.0000000   0.0000000   0.0000000   0.0000000   0.0000000   0.0000000   0.0000000   0.0000000   0.0000000
 NMagM=    0.0000000   0.0000000   2.7928460   0.0000000   2.7928460   0.0000000   2.7928460   0.0000000   2.7928460
 AtZNuc=   6.0000000   6.0000000   1.0000000   6.0000000   1.0000000   6.0000000   1.0000000   6.0000000   1.0000000
 Leave Link  101 at Wed Jul 20 21:27:12 2016, MaxMem=    33554432 cpu:         0.4
 (Enter /home/proyectos/fulerenos/M3C-v2.0/M3C-deps_CCC/g09-AM64L-G09RevC.01/l103.exe)

 GradGradGradGradGradGradGradGradGradGradGradGradGradGradGradGradGradGrad
 Berny optimization.
 Initialization pass.
 Trust Radius=3.00D-01 FncErr=1.00D-07 GrdErr=1.00D-07
 Number of steps in this run=      2 maximum allowed number of steps=      2.
 GradGradGradGradGradGradGradGradGradGradGradGradGradGradGradGradGradGrad

 Leave Link  103 at Wed Jul 20 21:27:12 2016, MaxMem=    33554432 cpu:         0.1
 (Enter /home/proyectos/fulerenos/M3C-v2.0/M3C-deps_CCC/g09-AM64L-G09RevC.01/l202.exe)
                          Input orientation:                          
 ---------------------------------------------------------------------
 Center     Atomic      Atomic             Coordinates (Angstroms)
 Number     Number       Type             X           Y           Z
 ---------------------------------------------------------------------
      1          6           0        0.000182   -1.236153    0.000011
      2          6           0        1.167717   -0.448773    0.000056
      3          1           0        2.192013   -0.789753    0.000111
      4          6           0        0.710456    0.902415    0.000014
      5          1           0        1.342914    1.778523    0.000032
      6          6           0       -0.710717    0.902207   -0.000055
      7          1           0       -1.343432    1.778129   -0.000099
      8          6           0       -1.167582   -0.449114   -0.000058
      9          1           0       -2.191779   -0.790394   -0.000103
 ---------------------------------------------------------------------
                    Distance matrix (angstroms):
                    1          2          3          4          5
     1  C    0.000000
     2  C    1.408227   0.000000
     3  H    2.236827   1.079560   0.000000
     4  C    2.253433   1.426463   2.249098   0.000000
     5  H    3.300181   2.234175   2.704997   1.080541   0.000000
     6  C    2.253433   2.313798   3.359847   1.421173   2.232785
     7  H    3.300181   3.356331   4.369598   2.232785   2.686346
     8  C    1.408227   2.335299   3.376820   2.313798   3.356331
     9  H    2.236827   3.376820   4.383792   3.359847   4.369598
                    6          7          8          9
     6  C    0.000000
     7  H    1.080541   0.000000
     8  C    1.426463   2.234175   0.000000
     9  H    2.249098   2.704997   1.079560   0.000000
 Stoichiometry    C5H4(1+,4)
 Framework group  C2[C2(C),X(C4H4)]
 Deg. of freedom    11
 Full point group                 C2      NOp   2
 Largest Abelian subgroup         C2      NOp   2
 Largest concise Abelian subgroup C2      NOp   2
                         Standard orientation:                         
 ---------------------------------------------------------------------
 Center     Atomic      Atomic             Coordinates (Angstroms)
 Number     Number       Type             X           Y           Z
 ---------------------------------------------------------------------
      1          6           0        0.000000   -0.000000    1.236153
      2          6           0       -0.000007    1.167650    0.448943
      3          1           0       -0.000012    2.191896    0.790073
      4          6           0        0.000013    0.710587   -0.902311
      5          1           0        0.000026    1.343173   -1.778326
      6          6           0       -0.000013   -0.710587   -0.902311
      7          1           0       -0.000026   -1.343173   -1.778326
      8          6           0        0.000007   -1.167650    0.448943
      9          1           0        0.000012   -2.191896    0.790073
 ---------------------------------------------------------------------
 Rotational constants (GHZ):     10.0499771      8.6893716      4.6601399
 Leave Link  202 at Wed Jul 20 21:27:12 2016, MaxMem=    33554432 cpu:         0.0
 (Enter /home/proyectos/fulerenos/M3C-v2.0/M3C-deps_CCC/g09-AM64L-G09RevC.01/l301.exe)
 Standard basis: 6-311++G(3df,2p) (5D, 7F)
 Ernie: Thresh=  0.10000D-02 Tol=  0.10000D-05 Strict=F.
 There are   135 symmetry adapted cartesian basis functions of A   symmetry.
 There are   130 symmetry adapted cartesian basis functions of B   symmetry.
 There are   119 symmetry adapted basis functions of A   symmetry.
 There are   116 symmetry adapted basis functions of B   symmetry.
   235 basis functions,   338 primitive gaussians,   265 cartesian basis functions
    18 alpha electrons       15 beta electrons
       nuclear repulsion energy       140.3480887681 Hartrees.
 IExCor=  402 DFT=T Ex+Corr=B3LYP ExCW=0 ScaHFX=  0.200000
 ScaDFX=  0.800000  0.720000  1.000000  0.810000 ScalE2=  1.000000  1.000000
 IRadAn=      0 IRanWt=     -1 IRanGd=            0 ICorTp=0 IEmpDi=  4
 NAtoms=    9 NActive=    9 NUniq=    5 SFac= 3.24D+00 NAtFMM=   60 NAOKFM=F Big=F
 Integral buffers will be    131072 words long.
 Raffenetti 2 integral format.
 Two-electron integral symmetry is turned on.
 Leave Link  301 at Wed Jul 20 21:27:12 2016, MaxMem=    33554432 cpu:         0.3
 (Enter /home/proyectos/fulerenos/M3C-v2.0/M3C-deps_CCC/g09-AM64L-G09RevC.01/l302.exe)
 NPDir=0 NMtPBC=     1 NCelOv=     1 NCel=       1 NClECP=     1 NCelD=      1
         NCelK=      1 NCelE2=     1 NClLst=     1 CellRange=     0.0.
 One-electron integrals computed using PRISM.
 One-electron integral symmetry used in STVInt
 NBasis=   235 RedAO= T EigKep=  3.79D-06  NBF=   119   116
 NBsUse=   235 1.00D-06 EigRej= -1.00D+00 NBFU=   119   116
 Precomputing XC quadrature grid using
 IXCGrd= 4 IRadAn=           0 IRanWt=          -1 IRanGd=           0 AccXCQ= 0.00D+00.
 Generated NRdTot=       0 NPtTot=           0 NUsed=           0 NTot=          32
 NSgBfM=   265   265   265   265   265 MxSgAt=     9 MxSgA2=     9.
 Leave Link  302 at Wed Jul 20 21:27:13 2016, MaxMem=    33554432 cpu:         0.8
 (Enter /home/proyectos/fulerenos/M3C-v2.0/M3C-deps_CCC/g09-AM64L-G09RevC.01/l303.exe)
 DipDrv:  MaxL=1.
 Leave Link  303 at Wed Jul 20 21:27:14 2016, MaxMem=    33554432 cpu:         0.2
 (Enter /home/proyectos/fulerenos/M3C-v2.0/M3C-deps_CCC/g09-AM64L-G09RevC.01/l401.exe)
 ExpMin= 3.60D-02 ExpMax= 4.56D+03 ExpMxC= 6.82D+02 IAcc=3 IRadAn=         5 AccDes= 0.00D+00
 Harris functional with IExCor=  402 and IRadAn=       5 diagonalized for initial guess.
 HarFok:  IExCor=  402 AccDes= 0.00D+00 IRadAn=         5 IDoV= 1 UseB2=F ITyADJ=14
 ICtDFT=  3500011 ScaDFX=  1.000000  1.000000  1.000000  1.000000
 FoFCou: FMM=F IPFlag=           0 FMFlag=      100000 FMFlg1=           0
         NFxFlg=           0 DoJE=T BraDBF=F KetDBF=T FulRan=T
         wScrn=  0.000000 ICntrl=     500 IOpCl=  0 I1Cent=   200000004 NGrid=           0
         NMat0=    1 NMatS0=      1 NMatT0=    0 NMatD0=    1 NMtDS0=    0 NMtDT0=    0
 Petite list used in FoFCou.
 Harris En= -192.510140196968    
 JPrj=0 DoOrth=F DoCkMO=F.
 Initial guess orbital symmetries:
 Alpha Orbitals:
       Occupied  (B) (A) (A) (B) (A) (A) (B) (A) (B) (A) (A) (B)
                 (A) (B) (B) (A) (B) (A)
       Virtual   (A) (B) (A) (B) (A) (B) (A) (B) (A) (A) (B) (B)
                 (A) (A) (B) (A) (B) (A) (B) (A) (B) (B) (A) (A)
                 (A) (B) (A) (B) (B) (B) (A) (B) (B) (A) (B) (A)
                 (B) (B) (A) (A) (B) (A) (A) (B) (B) (A) (B) (A)
                 (A) (B) (A) (B) (A) (B) (A) (B) (A) (A) (B) (B)
                 (B) (A) (B) (B) (A) (A) (A) (B) (A) (B) (A) (A)
                 (B) (B) (A) (B) (A) (B) (A) (B) (A) (A) (B) (B)
                 (A) (B) (B) (A) (A) (B) (A) (B) (A) (B) (A) (B)
                 (A) (B) (B) (A) (A) (B) (A) (A) (B) (B) (A) (A)
                 (B) (A) (B) (A) (B) (A) (B) (A) (B) (A) (A) (B)
                 (A) (B) (B) (B) (B) (B) (A) (A) (B) (B) (B) (A)
                 (A) (A) (B) (A) (B) (A) (B) (A) (B) (A) (B) (A)
                 (B) (A) (A) (B) (A) (B) (A) (B) (A) (B) (B) (B)
                 (A) (A) (A) (B) (A) (B) (B) (A) (A) (B) (B) (B)
                 (A) (A) (A) (B) (A) (B) (B) (A) (A) (B) (A) (B)
                 (A) (A) (B) (B) (B) (A) (B) (B) (B) (A) (B) (A)
                 (A) (A) (B) (A) (B) (B) (A) (B) (A) (A) (A) (A)
                 (B) (A) (B) (A) (B) (A) (B) (B) (A) (A) (B) (B)
                 (A)
 Beta  Orbitals:
       Occupied  (B) (A) (A) (B) (A) (A) (B) (A) (B) (A) (A) (B)
                 (A) (B) (B)
       Virtual   (A) (B) (A) (A) (B) (A) (B) (A) (B) (A) (B) (A)
                 (A) (B) (B) (A) (A) (B) (A) (B) (A) (B) (A) (B)
                 (B) (A) (A) (A) (B) (A) (B) (B) (B) (A) (B) (B)
                 (A) (B) (A) (B) (B) (A) (A) (B) (A) (A) (B) (B)
                 (A) (B) (A) (A) (B) (A) (B) (A) (B) (A) (B) (A)
                 (A) (B) (B) (B) (A) (B) (B) (A) (A) (A) (B) (A)
                 (B) (A) (A) (B) (B) (A) (B) (A) (B) (A) (B) (A)
                 (A) (B) (B) (A) (B) (B) (A) (A) (B) (A) (B) (A)
                 (B) (A) (B) (A) (B) (B) (A) (A) (B) (A) (A) (B)
                 (B) (A) (A) (B) (A) (B) (A) (B) (A) (B) (A) (B)
                 (A) (A) (B) (A) (B) (B) (B) (B) (B) (A) (A) (B)
                 (B) (B) (A) (A) (A) (B) (A) (B) (A) (B) (A) (B)
                 (A) (B) (A) (B) (A) (A) (B) (A) (B) (A) (B) (A)
                 (B) (B) (B) (A) (A) (A) (B) (A) (B) (B) (A) (A)
                 (B) (B) (B) (A) (A) (A) (B) (A) (B) (B) (A) (A)
                 (B) (A) (B) (A) (A) (B) (B) (B) (A) (B) (B) (B)
                 (A) (B) (A) (A) (A) (B) (A) (B) (B) (A) (B) (A)
                 (A) (A) (A) (B) (A) (B) (A) (B) (A) (B) (B) (A)
                 (A) (B) (B) (A)
 The electronic state of the initial guess is 4-B.
 Initial guess <Sx>= 0.0000 <Sy>= 0.0000 <Sz>= 1.5000 <S**2>= 3.7500 S= 1.5000
 Leave Link  401 at Wed Jul 20 21:27:23 2016, MaxMem=    33554432 cpu:         9.1
 (Enter /home/proyectos/fulerenos/M3C-v2.0/M3C-deps_CCC/g09-AM64L-G09RevC.01/l502.exe)
 UHF open shell SCF:
 Using DIIS extrapolation, IDIIS=  1040.
 Integral symmetry usage will be decided dynamically.
 IVT=      233035 IEndB=      233035 NGot=    33554432 MDV=    33408528
 LenX=    33408528 LenY=    33337862
 Requested convergence on RMS density matrix=1.00D-08 within 128 cycles.
 Requested convergence on MAX density matrix=1.00D-06.
 Requested convergence on             energy=1.00D-06.
 No special actions if energy rises.
 Fock matrices will be formed incrementally for  20 cycles.

 Cycle   1  Pass 1  IDiag  1:
 FoFJK:  IHMeth= 1 ICntrl=       0 DoSepK=F KAlg= 0 I1Cent=   0 FoldK=F
 IRaf= 990000000 NMat=   1 IRICut=       1 DoRegI=T DoRafI=F ISym2E= 1.
 FoFCou: FMM=F IPFlag=           0 FMFlag=      100000 FMFlg1=           0
         NFxFlg=           0 DoJE=F BraDBF=F KetDBF=F FulRan=T
         wScrn=  0.000000 ICntrl=       0 IOpCl=  1 I1Cent=           0 NGrid=           0
         NMat0=    1 NMatS0=      1 NMatT0=    0 NMatD0=    1 NMtDS0=    0 NMtDT0=    0
 Petite list used in FoFCou.
 E= -192.483232299752    
 DIIS: error= 2.17D-02 at cycle   1 NSaved=   1.
 NSaved= 1 IEnMin= 1 EnMin= -192.483232299752     IErMin= 1 ErrMin= 2.17D-02
 ErrMax= 2.17D-02  0.00D+00 EMaxC= 1.00D-01 BMatC= 2.14D-01 BMatP= 2.14D-01
 IDIUse=3 WtCom= 7.83D-01 WtEn= 2.17D-01
 Coeff-Com:  0.100D+01
 Coeff-En:   0.100D+01
 Coeff:      0.100D+01
 Gap=     0.271 Goal=   None    Shift=    0.000
 Gap=     0.196 Goal=   None    Shift=    0.000
 GapD=    0.196 DampG=1.000 DampE=0.500 DampFc=0.5000 IDamp=-1.
 Damping current iteration by 5.00D-01
 RMSDP=2.57D-03 MaxDP=2.06D-01              OVMax= 1.35D-01

 Cycle   2  Pass 1  IDiag  1:
 RMSU=  1.27D-03    CP:  9.82D-01
 E= -192.502510960936     Delta-E=       -0.019278661183 Rises=F Damp=T
 DIIS: error= 8.27D-03 at cycle   2 NSaved=   2.
 NSaved= 2 IEnMin= 2 EnMin= -192.502510960936     IErMin= 2 ErrMin= 8.27D-03
 ErrMax= 8.27D-03  0.00D+00 EMaxC= 1.00D-01 BMatC= 2.97D-02 BMatP= 2.14D-01
 IDIUse=3 WtCom= 9.17D-01 WtEn= 8.27D-02
 Coeff-Com: -0.952D-01 0.110D+01
 Coeff-En:   0.000D+00 0.100D+01
 Coeff:     -0.873D-01 0.109D+01
 Gap=     0.273 Goal=   None    Shift=    0.000
 Gap=     0.191 Goal=   None    Shift=    0.000
 RMSDP=8.79D-04 MaxDP=5.07D-02 DE=-1.93D-02 OVMax= 1.47D-01

 Cycle   3  Pass 1  IDiag  1:
 RMSU=  7.99D-04    CP:  9.84D-01  1.29D+00
 E= -192.518750256314     Delta-E=       -0.016239295379 Rises=F Damp=F
 DIIS: error= 1.33D-02 at cycle   3 NSaved=   3.
 NSaved= 3 IEnMin= 3 EnMin= -192.518750256314     IErMin= 2 ErrMin= 8.27D-03
 ErrMax= 1.33D-02  0.00D+00 EMaxC= 1.00D-01 BMatC= 3.10D-02 BMatP= 2.97D-02
 IDIUse=3 WtCom= 8.67D-01 WtEn= 1.33D-01
 Coeff-Com: -0.199D+00 0.639D+00 0.560D+00
 Coeff-En:   0.000D+00 0.000D+00 0.100D+01
 Coeff:     -0.173D+00 0.555D+00 0.618D+00
 Gap=     0.278 Goal=   None    Shift=    0.000
 Gap=     0.194 Goal=   None    Shift=    0.000
 RMSDP=9.52D-04 MaxDP=8.80D-02 DE=-1.62D-02 OVMax= 8.80D-02

 Cycle   4  Pass 1  IDiag  1:
 RMSU=  5.55D-04    CP:  9.70D-01  1.82D+00  5.80D-01
 E= -192.525171724905     Delta-E=       -0.006421468591 Rises=F Damp=F
 DIIS: error= 6.72D-03 at cycle   4 NSaved=   4.
 NSaved= 4 IEnMin= 4 EnMin= -192.525171724905     IErMin= 4 ErrMin= 6.72D-03
 ErrMax= 6.72D-03  0.00D+00 EMaxC= 1.00D-01 BMatC= 8.50D-03 BMatP= 2.97D-02
 IDIUse=3 WtCom= 9.33D-01 WtEn= 6.72D-02
 Coeff-Com: -0.939D-01 0.212D+00 0.399D+00 0.483D+00
 Coeff-En:   0.000D+00 0.000D+00 0.248D+00 0.752D+00
 Coeff:     -0.876D-01 0.198D+00 0.389D+00 0.501D+00
 Gap=     0.277 Goal=   None    Shift=    0.000
 Gap=     0.195 Goal=   None    Shift=    0.000
 RMSDP=2.40D-04 MaxDP=1.57D-02 DE=-6.42D-03 OVMax= 3.69D-02

 Cycle   5  Pass 1  IDiag  1:
 RMSU=  1.18D-04    CP:  9.72D-01  1.73D+00  6.99D-01  7.47D-01
 E= -192.527609510721     Delta-E=       -0.002437785815 Rises=F Damp=F
 DIIS: error= 7.04D-04 at cycle   5 NSaved=   5.
 NSaved= 5 IEnMin= 5 EnMin= -192.527609510721     IErMin= 5 ErrMin= 7.04D-04
 ErrMax= 7.04D-04  0.00D+00 EMaxC= 1.00D-01 BMatC= 1.81D-04 BMatP= 8.50D-03
 IDIUse=3 WtCom= 9.93D-01 WtEn= 7.04D-03
 Coeff-Com: -0.128D-01 0.102D-01 0.847D-01 0.198D+00 0.720D+00
 Coeff-En:   0.000D+00 0.000D+00 0.000D+00 0.000D+00 0.100D+01
 Coeff:     -0.127D-01 0.101D-01 0.841D-01 0.196D+00 0.722D+00
 Gap=     0.278 Goal=   None    Shift=    0.000
 Gap=     0.194 Goal=   None    Shift=    0.000
 RMSDP=3.98D-05 MaxDP=4.28D-03 DE=-2.44D-03 OVMax= 3.28D-03

 Cycle   6  Pass 1  IDiag  1:
 RMSU=  2.95D-05    CP:  9.72D-01  1.75D+00  7.02D-01  7.67D-01  9.21D-01
 E= -192.527655797117     Delta-E=       -0.000046286396 Rises=F Damp=F
 DIIS: error= 2.47D-04 at cycle   6 NSaved=   6.
 NSaved= 6 IEnMin= 6 EnMin= -192.527655797117     IErMin= 6 ErrMin= 2.47D-04
 ErrMax= 2.47D-04  0.00D+00 EMaxC= 1.00D-01 BMatC= 1.38D-05 BMatP= 1.81D-04
 IDIUse=3 WtCom= 9.98D-01 WtEn= 2.47D-03
 Coeff-Com:  0.262D-02-0.118D-01 0.164D-02 0.399D-01 0.275D+00 0.692D+00
 Coeff-En:   0.000D+00 0.000D+00 0.000D+00 0.000D+00 0.000D+00 0.100D+01
 Coeff:      0.262D-02-0.117D-01 0.163D-02 0.398D-01 0.275D+00 0.693D+00
 Gap=     0.278 Goal=   None    Shift=    0.000
 Gap=     0.194 Goal=   None    Shift=    0.000
 RMSDP=2.54D-05 MaxDP=2.78D-03 DE=-4.63D-05 OVMax= 1.47D-03

 Cycle   7  Pass 1  IDiag  1:
 RMSU=  1.00D-05    CP:  9.72D-01  1.76D+00  7.07D-01  7.91D-01  9.52D-01
                    CP:  7.62D-01
 E= -192.527660413106     Delta-E=       -0.000004615990 Rises=F Damp=F
 DIIS: error= 7.29D-05 at cycle   7 NSaved=   7.
 NSaved= 7 IEnMin= 7 EnMin= -192.527660413106     IErMin= 7 ErrMin= 7.29D-05
 ErrMax= 7.29D-05  0.00D+00 EMaxC= 1.00D-01 BMatC= 2.20D-06 BMatP= 1.38D-05
 IDIUse=1 WtCom= 1.00D+00 WtEn= 0.00D+00
 Coeff-Com:  0.344D-02-0.649D-02-0.151D-01-0.214D-01-0.457D-01 0.252D+00
 Coeff-Com:  0.833D+00
 Coeff:      0.344D-02-0.649D-02-0.151D-01-0.214D-01-0.457D-01 0.252D+00
 Coeff:      0.833D+00
 Gap=     0.278 Goal=   None    Shift=    0.000
 Gap=     0.194 Goal=   None    Shift=    0.000
 RMSDP=6.68D-06 MaxDP=5.66D-04 DE=-4.62D-06 OVMax= 7.32D-04

 Cycle   8  Pass 1  IDiag  1:
 RMSU=  3.03D-06    CP:  9.72D-01  1.76D+00  7.08D-01  7.96D-01  9.70D-01
                    CP:  8.85D-01  1.04D+00
 E= -192.527661328508     Delta-E=       -0.000000915402 Rises=F Damp=F
 DIIS: error= 3.02D-05 at cycle   8 NSaved=   8.
 NSaved= 8 IEnMin= 8 EnMin= -192.527661328508     IErMin= 8 ErrMin= 3.02D-05
 ErrMax= 3.02D-05  0.00D+00 EMaxC= 1.00D-01 BMatC= 8.25D-08 BMatP= 2.20D-06
 IDIUse=1 WtCom= 1.00D+00 WtEn= 0.00D+00
 Coeff-Com: -0.537D-03 0.172D-02 0.744D-03-0.148D-02-0.237D-01-0.531D-01
 Coeff-Com: -0.987D-01 0.118D+01
 Coeff:     -0.537D-03 0.172D-02 0.744D-03-0.148D-02-0.237D-01-0.531D-01
 Coeff:     -0.987D-01 0.118D+01
 Gap=     0.278 Goal=   None    Shift=    0.000
 Gap=     0.194 Goal=   None    Shift=    0.000
 RMSDP=2.02D-06 MaxDP=1.37D-04 DE=-9.15D-07 OVMax= 3.61D-04

 Cycle   9  Pass 1  IDiag  1:
 RMSU=  1.06D-06    CP:  9.72D-01  1.76D+00  7.08D-01  7.97D-01  9.71D-01
                    CP:  9.21D-01  1.09D+00  1.35D+00
 E= -192.527661419288     Delta-E=       -0.000000090779 Rises=F Damp=F
 DIIS: error= 9.40D-06 at cycle   9 NSaved=   9.
 NSaved= 9 IEnMin= 9 EnMin= -192.527661419288     IErMin= 9 ErrMin= 9.40D-06
 ErrMax= 9.40D-06  0.00D+00 EMaxC= 1.00D-01 BMatC= 6.45D-09 BMatP= 8.25D-08
 IDIUse=1 WtCom= 1.00D+00 WtEn= 0.00D+00
 Coeff-Com: -0.172D-03 0.298D-03 0.879D-03 0.191D-02 0.371D-02-0.131D-01
 Coeff-Com: -0.503D-01-0.717D-01 0.113D+01
 Coeff:     -0.172D-03 0.298D-03 0.879D-03 0.191D-02 0.371D-02-0.131D-01
 Coeff:     -0.503D-01-0.717D-01 0.113D+01
 Gap=     0.278 Goal=   None    Shift=    0.000
 Gap=     0.194 Goal=   None    Shift=    0.000
 RMSDP=6.04D-07 MaxDP=3.79D-05 DE=-9.08D-08 OVMax= 1.14D-04

 Cycle  10  Pass 1  IDiag  1:
 RMSU=  2.79D-07    CP:  9.72D-01  1.76D+00  7.07D-01  7.97D-01  9.71D-01
                    CP:  9.29D-01  1.10D+00  1.46D+00  1.20D+00
 E= -192.527661426364     Delta-E=       -0.000000007076 Rises=F Damp=F
 DIIS: error= 1.62D-06 at cycle  10 NSaved=  10.
 NSaved=10 IEnMin=10 EnMin= -192.527661426364     IErMin=10 ErrMin= 1.62D-06
 ErrMax= 1.62D-06  0.00D+00 EMaxC= 1.00D-01 BMatC= 4.47D-10 BMatP= 6.45D-09
 IDIUse=1 WtCom= 1.00D+00 WtEn= 0.00D+00
 Coeff-Com:  0.542D-04-0.138D-03-0.111D-03 0.339D-04 0.858D-03 0.504D-02
 Coeff-Com:  0.108D-01-0.668D-01-0.905D-01 0.114D+01
 Coeff:      0.542D-04-0.138D-03-0.111D-03 0.339D-04 0.858D-03 0.504D-02
 Coeff:      0.108D-01-0.668D-01-0.905D-01 0.114D+01
 Gap=     0.278 Goal=   None    Shift=    0.000
 Gap=     0.194 Goal=   None    Shift=    0.000
 RMSDP=1.52D-07 MaxDP=5.31D-06 DE=-7.08D-09 OVMax= 3.66D-05

 Cycle  11  Pass 1  IDiag  1:
 RMSU=  7.23D-08    CP:  9.72D-01  1.76D+00  7.07D-01  7.97D-01  9.71D-01
                    CP:  9.31D-01  1.10D+00  1.47D+00  1.27D+00  1.27D+00
 E= -192.527661426888     Delta-E=       -0.000000000524 Rises=F Damp=F
 DIIS: error= 6.69D-07 at cycle  11 NSaved=  11.
 NSaved=11 IEnMin=11 EnMin= -192.527661426888     IErMin=11 ErrMin= 6.69D-07
 ErrMax= 6.69D-07  0.00D+00 EMaxC= 1.00D-01 BMatC= 5.93D-11 BMatP= 4.47D-10
 IDIUse=1 WtCom= 1.00D+00 WtEn= 0.00D+00
 Coeff-Com:  0.133D-04-0.231D-04-0.100D-03-0.152D-03-0.328D-03 0.106D-02
 Coeff-Com:  0.448D-02 0.524D-02-0.964D-01-0.542D-01 0.114D+01
 Coeff:      0.133D-04-0.231D-04-0.100D-03-0.152D-03-0.328D-03 0.106D-02
 Coeff:      0.448D-02 0.524D-02-0.964D-01-0.542D-01 0.114D+01
 Gap=     0.278 Goal=   None    Shift=    0.000
 Gap=     0.194 Goal=   None    Shift=    0.000
 RMSDP=6.28D-08 MaxDP=4.04D-06 DE=-5.24D-10 OVMax= 1.10D-05

 Cycle  12  Pass 1  IDiag  1:
 RMSU=  2.04D-08    CP:  9.72D-01  1.76D+00  7.07D-01  7.97D-01  9.71D-01
                    CP:  9.31D-01  1.10D+00  1.47D+00  1.28D+00  1.38D+00
                    CP:  1.33D+00
 E= -192.527661426943     Delta-E=       -0.000000000055 Rises=F Damp=F
 DIIS: error= 1.13D-07 at cycle  12 NSaved=  12.
 NSaved=12 IEnMin=12 EnMin= -192.527661426943     IErMin=12 ErrMin= 1.13D-07
 ErrMax= 1.13D-07  0.00D+00 EMaxC= 1.00D-01 BMatC= 3.35D-12 BMatP= 5.93D-11
 IDIUse=1 WtCom= 1.00D+00 WtEn= 0.00D+00
 Coeff-Com: -0.414D-05 0.100D-04 0.223D-05-0.552D-05-0.336D-04-0.397D-03
 Coeff-Com: -0.450D-03 0.428D-02 0.646D-02-0.751D-01-0.834D-02 0.107D+01
 Coeff:     -0.414D-05 0.100D-04 0.223D-05-0.552D-05-0.336D-04-0.397D-03
 Coeff:     -0.450D-03 0.428D-02 0.646D-02-0.751D-01-0.834D-02 0.107D+01
 Gap=     0.278 Goal=   None    Shift=    0.000
 Gap=     0.194 Goal=   None    Shift=    0.000
 RMSDP=1.60D-08 MaxDP=1.27D-06 DE=-5.50D-11 OVMax= 2.30D-06

 Cycle  13  Pass 1  IDiag  1:
 RMSU=  5.53D-09    CP:  9.72D-01  1.76D+00  7.07D-01  7.97D-01  9.71D-01
                    CP:  9.31D-01  1.10D+00  1.47D+00  1.28D+00  1.39D+00
                    CP:  1.45D+00  1.26D+00
 E= -192.527661426948     Delta-E=       -0.000000000005 Rises=F Damp=F
 DIIS: error= 3.21D-08 at cycle  13 NSaved=  13.
 NSaved=13 IEnMin=13 EnMin= -192.527661426948     IErMin=13 ErrMin= 3.21D-08
 ErrMax= 3.21D-08  0.00D+00 EMaxC= 1.00D-01 BMatC= 2.03D-13 BMatP= 3.35D-12
 IDIUse=1 WtCom= 1.00D+00 WtEn= 0.00D+00
 Coeff-Com: -0.839D-06 0.127D-05 0.705D-05 0.120D-04 0.289D-04-0.689D-04
 Coeff-Com: -0.259D-03-0.737D-03 0.653D-02 0.104D-01-0.927D-01-0.719D-01
 Coeff-Com:  0.115D+01
 Coeff:     -0.839D-06 0.127D-05 0.705D-05 0.120D-04 0.289D-04-0.689D-04
 Coeff:     -0.259D-03-0.737D-03 0.653D-02 0.104D-01-0.927D-01-0.719D-01
 Coeff:      0.115D+01
 Gap=     0.278 Goal=   None    Shift=    0.000
 Gap=     0.194 Goal=   None    Shift=    0.000
 RMSDP=4.04D-09 MaxDP=1.56D-07 DE=-5.40D-12 OVMax= 5.83D-07

 SCF Done:  E(UB3LYP) =  -192.527661427     A.U. after   13 cycles
            NFock= 13  Conv=0.40D-08     -V/T= 2.0045
 <Sx>= 0.0000 <Sy>= 0.0000 <Sz>= 1.5000 <S**2>= 3.7557 S= 1.5014
 <L.S>= 0.000000000000E+00
 KE= 1.916741107195D+02 PE=-7.190502084338D+02 EE= 1.945003475192D+02
 Annihilation of the first spin contaminant:
 S**2 before annihilation     3.7557,   after     3.7500
 Leave Link  502 at Wed Jul 20 21:35:30 2016, MaxMem=    33554432 cpu:       487.0
 (Enter /home/proyectos/fulerenos/M3C-v2.0/M3C-deps_CCC/g09-AM64L-G09RevC.01/l801.exe)
 DoSCS=F DFT=T ScalE2(SS,OS)=  1.000000  1.000000
 Range of M.O.s used for correlation:     1   235
 NBasis=   235 NAE=    18 NBE=    15 NFC=     0 NFV=     0
 NROrb=    235 NOA=    18 NOB=    15 NVA=   217 NVB=   220

 **** Warning!!: The largest alpha MO coefficient is  0.12708975D+03


 **** Warning!!: The largest beta MO coefficient is  0.12702272D+03

 Leave Link  801 at Wed Jul 20 21:35:30 2016, MaxMem=    33554432 cpu:         0.1
 (Enter /home/proyectos/fulerenos/M3C-v2.0/M3C-deps_CCC/g09-AM64L-G09RevC.01/l1101.exe)
 Using compressed storage, NAtomX=     9.
 Will process     10 centers per pass.
 Leave Link 1101 at Wed Jul 20 21:35:32 2016, MaxMem=    33554432 cpu:         1.0
 (Enter /home/proyectos/fulerenos/M3C-v2.0/M3C-deps_CCC/g09-AM64L-G09RevC.01/l1102.exe)
 Symmetrizing basis deriv contribution to polar:
 IMax=3 JMax=2 DiffMx= 0.00D+00
 Leave Link 1102 at Wed Jul 20 21:35:32 2016, MaxMem=    33554432 cpu:         0.2
 (Enter /home/proyectos/fulerenos/M3C-v2.0/M3C-deps_CCC/g09-AM64L-G09RevC.01/l1110.exe)
 Forming Gx(P) for the SCF density, NAtomX=     9.
 Integral derivatives from FoFJK, PRISM(SPDF).
 Do as many integral derivatives as possible in FoFJK.
 G2DrvN: MDV=      33554256.
 G2DrvN: will do    10 centers at a time, making    1 passes.
 Calling FoFCou, ICntrl=  3107 FMM=F I1Cent=   0 AccDes= 0.00D+00.
 FoFJK:  IHMeth= 1 ICntrl=    3107 DoSepK=F KAlg= 0 I1Cent=   0 FoldK=F
 IRaf=         0 NMat=   1 IRICut=       1 DoRegI=T DoRafI=F ISym2E= 1.
 FoFCou: FMM=F IPFlag=           0 FMFlag=      100000 FMFlg1=           0
         NFxFlg=           0 DoJE=F BraDBF=F KetDBF=F FulRan=T
         wScrn=  0.000000 ICntrl=    3107 IOpCl=  1 I1Cent=           0 NGrid=           0
         NMat0=    1 NMatS0=      1 NMatT0=    0 NMatD0=    1 NMtDS0=    0 NMtDT0=    0
 Petite list used in FoFCou.
 End of G2Drv F.D. properties file   721 does not exist.
 End of G2Drv F.D. properties file   722 does not exist.
 End of G2Drv F.D. properties file   788 does not exist.
 Leave Link 1110 at Wed Jul 20 21:44:00 2016, MaxMem=    33554432 cpu:       507.5
 (Enter /home/proyectos/fulerenos/M3C-v2.0/M3C-deps_CCC/g09-AM64L-G09RevC.01/l1002.exe)
 Minotr:  UHF open shell wavefunction.
          IDoAtm=111111111
          Direct CPHF calculation.
          Differentiating once with respect to electric field.
                with respect to dipole field.
          Differentiating once with respect to nuclear coordinates.
          Using symmetry in CPHF.
          Requested convergence is 1.0D-08 RMS, and 1.0D-07 maximum.
          Secondary convergence is 1.0D-12 RMS, and 1.0D-12 maximum.
          NewPWx=T KeepS1=F KeepF1=F KeepIn=T MapXYZ=F SortEE=F KeepMc=T.
          MDV=      33553868 using IRadAn=       2.
 Generate precomputed XC quadrature information.
          Solving linear equations simultaneously, MaxMat=       0.
 FoFJK:  IHMeth= 1 ICntrl=       0 DoSepK=F KAlg= 0 I1Cent=   0 FoldK=F
 IRaf= 990000000 NMat=  18 IRICut=      45 DoRegI=T DoRafI=T ISym2E= 2.
 FoFCou: FMM=F IPFlag=           0 FMFlag=      100000 FMFlg1=           0
         NFxFlg=           0 DoJE=F BraDBF=F KetDBF=F FulRan=T
         wScrn=  0.000000 ICntrl=       0 IOpCl=  1 I1Cent=           0 NGrid=           0
         NMat0=   18 NMatS0=     18 NMatT0=    0 NMatD0=   18 NMtDS0=    0 NMtDT0=    0
 Integrals replicated using symmetry in FoFCou.
          There are    18 degrees of freedom in the 1st order CPHF.  IDoFFX=4 NUNeed=    18.
     18 vectors produced by pass  0 Test12= 4.00D-14 5.56D-09 XBig12= 1.53D+02 8.55D+00.
 AX will form    18 AO Fock derivatives at one time.
     18 vectors produced by pass  1 Test12= 4.00D-14 5.56D-09 XBig12= 4.39D+01 1.72D+00.
     18 vectors produced by pass  2 Test12= 4.00D-14 5.56D-09 XBig12= 3.19D+00 6.54D-01.
     18 vectors produced by pass  3 Test12= 4.00D-14 5.56D-09 XBig12= 2.61D-02 4.33D-02.
     18 vectors produced by pass  4 Test12= 4.00D-14 5.56D-09 XBig12= 3.57D-04 2.96D-03.
     18 vectors produced by pass  5 Test12= 4.00D-14 5.56D-09 XBig12= 3.97D-06 3.16D-04.
     18 vectors produced by pass  6 Test12= 4.00D-14 5.56D-09 XBig12= 2.76D-08 2.60D-05.
     13 vectors produced by pass  7 Test12= 4.00D-14 5.56D-09 XBig12= 1.54D-10 1.72D-06.
      3 vectors produced by pass  8 Test12= 4.00D-14 5.56D-09 XBig12= 1.02D-12 9.43D-08.
      3 vectors produced by pass  9 Test12= 4.00D-14 5.56D-09 XBig12= 1.12D-13 6.91D-08.
      2 vectors produced by pass 10 Test12= 4.00D-14 5.56D-09 XBig12= 2.06D-15 7.58D-09.
 InvSVY:  IOpt=1 It=  1 EMax= 1.78D-15
 Solved reduced A of dimension   147 with    18 vectors.
 FullF1:  Do perturbations    1 to    18.
 Isotropic polarizability for W=    0.000000       46.17 Bohr**3.
 End of Minotr F.D. properties file   721 does not exist.
 End of Minotr F.D. properties file   722 does not exist.
 End of Minotr F.D. properties file   788 does not exist.
 Leave Link 1002 at Wed Jul 20 22:20:52 2016, MaxMem=    33554432 cpu:      2207.5
 (Enter /home/proyectos/fulerenos/M3C-v2.0/M3C-deps_CCC/g09-AM64L-G09RevC.01/l601.exe)
 Copying SCF densities to generalized density rwf, IOpCl= 1 IROHF=0.

 **********************************************************************

            Population analysis using the SCF density.

 **********************************************************************

 Orbital symmetries:
 Alpha Orbitals:
       Occupied  (A) (B) (A) (A) (B) (A) (B) (A) (B) (A) (A) (B)
                 (B) (A) (B) (A) (A) (B)
       Virtual   (A) (B) (A) (B) (A) (A) (B) (B) (A) (A) (B) (B)
                 (A) (B) (A) (A) (B) (A) (B) (B) (A) (A) (B) (A)
                 (A) (A) (B) (B) (B) (B) (B) (A) (B) (A) (A) (B)
                 (B) (B) (B) (A) (A) (A) (B) (A) (B) (A) (B) (A)
                 (A) (B) (A) (B) (A) (A) (B) (B) (A) (B) (B) (A)
                 (A) (B) (B) (B) (A) (A) (A) (B) (A) (B) (A) (B)
                 (A) (B) (A) (B) (A) (B) (A) (B) (B) (A) (A) (A)
                 (B) (B) (B) (A) (A) (B) (A) (B) (B) (A) (A) (B)
                 (A) (B) (B) (A) (A) (B) (A) (B) (A) (B) (A) (A)
                 (B) (A) (B) (A) (B) (A) (B) (A) (B) (A) (A) (B)
                 (A) (B) (B) (B) (B) (A) (B) (A) (B) (B) (B) (A)
                 (A) (A) (B) (A) (B) (A) (B) (A) (B) (A) (B) (A)
                 (B) (A) (A) (B) (A) (B) (A) (B) (A) (B) (B) (B)
                 (A) (A) (A) (B) (A) (B) (A) (B) (A) (B) (B) (B)
                 (A) (B) (A) (A) (A) (B) (B) (A) (A) (B) (A) (B)
                 (A) (A) (B) (B) (B) (A) (B) (B) (B) (A) (B) (A)
                 (A) (B) (A) (A) (B) (B) (A) (B) (A) (A) (A) (A)
                 (B) (A) (B) (B) (A) (A) (B) (B) (A) (A) (B) (B)
                 (A)
 Beta  Orbitals:
       Occupied  (A) (B) (A) (A) (B) (A) (B) (A) (B) (A) (A) (B)
                 (A) (B) (B)
       Virtual   (A) (B) (A) (A) (A) (B) (B) (A) (A) (B) (B) (A)
                 (A) (B) (B) (A) (B) (A) (A) (B) (A) (B) (B) (A)
                 (A) (B) (A) (A) (A) (B) (B) (B) (B) (B) (A) (B)
                 (A) (A) (B) (B) (B) (B) (A) (A) (A) (A) (B) (B)
                 (A) (B) (A) (A) (B) (A) (B) (A) (A) (B) (A) (B)
                 (B) (B) (A) (A) (B) (B) (B) (A) (A) (A) (B) (A)
                 (B) (A) (B) (A) (B) (A) (B) (A) (B) (A) (B) (B)
                 (A) (A) (A) (B) (B) (B) (A) (A) (B) (B) (A) (A)
                 (B) (A) (B) (B) (A) (B) (A) (A) (B) (A) (A) (B)
                 (B) (A) (A) (B) (A) (B) (A) (B) (A) (B) (A) (B)
                 (A) (A) (B) (A) (B) (B) (B) (B) (A) (B) (A) (B)
                 (B) (B) (A) (A) (A) (B) (A) (B) (A) (B) (A) (B)
                 (A) (B) (A) (B) (A) (A) (B) (A) (B) (A) (B) (A)
                 (B) (B) (B) (A) (A) (A) (B) (A) (B) (B) (A) (A)
                 (B) (B) (B) (A) (A) (A) (B) (A) (B) (B) (A) (A)
                 (B) (A) (B) (A) (A) (B) (B) (B) (A) (B) (B) (B)
                 (A) (A) (B) (A) (A) (B) (A) (B) (B) (A) (B) (A)
                 (A) (A) (A) (B) (A) (B) (A) (B) (A) (B) (B) (A)
                 (A) (B) (B) (A)
 The electronic state is 4-B.
 Alpha  occ. eigenvalues --  -10.47969 -10.45810 -10.45805 -10.45530 -10.45487
 Alpha  occ. eigenvalues --   -1.15276  -0.97940  -0.96690  -0.80406  -0.79369
 Alpha  occ. eigenvalues --   -0.75038  -0.66142  -0.65708  -0.64636  -0.64011
 Alpha  occ. eigenvalues --   -0.52005  -0.50019  -0.49966
 Alpha virt. eigenvalues --   -0.22158  -0.21807  -0.15016  -0.12374  -0.11817
 Alpha virt. eigenvalues --   -0.11502  -0.10302  -0.10249  -0.08874  -0.05798
 Alpha virt. eigenvalues --   -0.05334  -0.04240  -0.04156  -0.02640  -0.02308
 Alpha virt. eigenvalues --   -0.01819  -0.01241  -0.00569  -0.00137  -0.00051
 Alpha virt. eigenvalues --    0.00146   0.00490   0.00854   0.05985   0.06946
 Alpha virt. eigenvalues --    0.07181   0.07346   0.07547   0.09336   0.10082
 Alpha virt. eigenvalues --    0.10834   0.11775   0.14913   0.15298   0.17496
 Alpha virt. eigenvalues --    0.18803   0.21924   0.23034   0.23230   0.23389
 Alpha virt. eigenvalues --    0.23859   0.24070   0.25281   0.26261   0.28400
 Alpha virt. eigenvalues --    0.28720   0.30982   0.32496   0.34668   0.34962
 Alpha virt. eigenvalues --    0.40281   0.40383   0.40821   0.41604   0.42777
 Alpha virt. eigenvalues --    0.43343   0.43726   0.44854   0.47463   0.47830
 Alpha virt. eigenvalues --    0.47957   0.50917   0.52517   0.56501   0.57252
 Alpha virt. eigenvalues --    0.63629   0.64229   0.64732   0.66658   0.68287
 Alpha virt. eigenvalues --    0.69895   0.77191   0.77434   0.79909   0.80072
 Alpha virt. eigenvalues --    0.82818   0.84574   0.92605   0.93035   0.95633
 Alpha virt. eigenvalues --    0.96618   0.97228   0.98279   1.00698   1.00946
 Alpha virt. eigenvalues --    1.02623   1.02634   1.03728   1.05452   1.09718
 Alpha virt. eigenvalues --    1.10863   1.11819   1.12580   1.13752   1.16365
 Alpha virt. eigenvalues --    1.21709   1.22722   1.24028   1.24839   1.30894
 Alpha virt. eigenvalues --    1.32591   1.37849   1.45201   1.60995   1.61409
 Alpha virt. eigenvalues --    1.64058   1.64118   1.68642   1.69802   1.69885
 Alpha virt. eigenvalues --    1.74420   1.80737   1.86562   1.98378   2.02799
 Alpha virt. eigenvalues --    2.05928   2.09654   2.11790   2.21015   2.22769
 Alpha virt. eigenvalues --    2.27892   2.35906   2.40098   2.40662   2.48352
 Alpha virt. eigenvalues --    2.50229   2.50366   2.52516   2.54350   2.59448
 Alpha virt. eigenvalues --    2.61798   2.64272   2.68952   2.69976   2.71581
 Alpha virt. eigenvalues --    2.74335   2.75189   2.83323   2.86002   2.88746
 Alpha virt. eigenvalues --    2.88778   2.90672   2.95910   3.00193   3.02365
 Alpha virt. eigenvalues --    3.03042   3.04682   3.05693   3.22038   3.25663
 Alpha virt. eigenvalues --    3.26812   3.32076   3.39859   3.41475   3.44701
 Alpha virt. eigenvalues --    3.45368   3.46018   3.50243   3.52018   3.64340
 Alpha virt. eigenvalues --    3.85071   3.89699   3.91735   3.93041   3.94756
 Alpha virt. eigenvalues --    3.98970   4.00505   4.03979   4.06448   4.09964
 Alpha virt. eigenvalues --    4.11255   4.11304   4.23337   4.29779   4.32236
 Alpha virt. eigenvalues --    4.36664   4.43931   4.46972   4.51226   4.71222
 Alpha virt. eigenvalues --    4.82524   5.01921   5.48743   5.52267   5.74277
 Alpha virt. eigenvalues --    5.75945   6.03139   6.73935   6.79544   6.80404
 Alpha virt. eigenvalues --    6.80467   6.80917   6.90305   7.01869   7.01953
 Alpha virt. eigenvalues --    7.07253   7.09654   7.17191   7.20771   7.23690
 Alpha virt. eigenvalues --    7.25309   7.34323   7.38055   7.48113   7.58031
 Alpha virt. eigenvalues --    7.73267   7.77093   7.84183   7.84391   8.17532
 Alpha virt. eigenvalues --    8.30106   9.15599  23.50052  24.69254  24.74521
 Alpha virt. eigenvalues --   24.99675  25.05511
  Beta  occ. eigenvalues --  -10.45709 -10.45112 -10.45107 -10.44844 -10.44803
  Beta  occ. eigenvalues --   -1.12063  -0.95159  -0.92892  -0.78484  -0.77770
  Beta  occ. eigenvalues --   -0.72089  -0.65063  -0.63643  -0.62637  -0.58490
  Beta virt. eigenvalues --   -0.39057  -0.38009  -0.33398  -0.16371  -0.14818
  Beta virt. eigenvalues --   -0.14625  -0.12246  -0.11441  -0.10629  -0.09977
  Beta virt. eigenvalues --   -0.09745  -0.08245  -0.05263  -0.04724  -0.04111
  Beta virt. eigenvalues --   -0.03505  -0.02051  -0.01714  -0.01393  -0.00601
  Beta virt. eigenvalues --    0.00033   0.00310   0.00490   0.00547   0.01121
  Beta virt. eigenvalues --    0.01735   0.06967   0.07331   0.07430   0.07688
  Beta virt. eigenvalues --    0.08246   0.10225   0.10521   0.12085   0.12973
  Beta virt. eigenvalues --    0.15476   0.16200   0.17960   0.19158   0.23874
  Beta virt. eigenvalues --    0.24426   0.24521   0.24758   0.25076   0.25392
  Beta virt. eigenvalues --    0.26897   0.27152   0.29579   0.31274   0.33267
  Beta virt. eigenvalues --    0.34087   0.37471   0.37488   0.41178   0.41307
  Beta virt. eigenvalues --    0.41862   0.43608   0.43783   0.44726   0.45248
  Beta virt. eigenvalues --    0.45616   0.48441   0.48814   0.48973   0.51291
  Beta virt. eigenvalues --    0.53092   0.57728   0.58211   0.64634   0.65571
  Beta virt. eigenvalues --    0.66451   0.67429   0.69310   0.71124   0.77892
  Beta virt. eigenvalues --    0.78235   0.80425   0.81218   0.83407   0.85891
  Beta virt. eigenvalues --    0.93829   0.94335   0.96000   0.97205   0.97971
  Beta virt. eigenvalues --    0.99357   1.01208   1.01652   1.03411   1.03583
  Beta virt. eigenvalues --    1.04970   1.06328   1.12404   1.13711   1.13785
  Beta virt. eigenvalues --    1.13945   1.14842   1.19214   1.21956   1.24798
  Beta virt. eigenvalues --    1.25493   1.29914   1.32391   1.35896   1.38661
  Beta virt. eigenvalues --    1.48293   1.62983   1.64249   1.67042   1.67618
  Beta virt. eigenvalues --    1.70055   1.71952   1.75012   1.79432   1.83576
  Beta virt. eigenvalues --    1.88268   2.02172   2.05232   2.09201   2.12149
  Beta virt. eigenvalues --    2.13195   2.22848   2.26024   2.30183   2.37010
  Beta virt. eigenvalues --    2.41582   2.44593   2.49232   2.51612   2.54173
  Beta virt. eigenvalues --    2.56076   2.56531   2.63535   2.64820   2.67773
  Beta virt. eigenvalues --    2.72455   2.72778   2.74665   2.77951   2.80546
  Beta virt. eigenvalues --    2.87238   2.87944   2.91085   2.92035   2.94506
  Beta virt. eigenvalues --    2.97962   3.03342   3.05008   3.06350   3.07193
  Beta virt. eigenvalues --    3.08630   3.23138   3.27404   3.28470   3.35707
  Beta virt. eigenvalues --    3.41091   3.42753   3.46180   3.47519   3.47654
  Beta virt. eigenvalues --    3.52619   3.52976   3.65875   3.86413   3.92404
  Beta virt. eigenvalues --    3.93818   3.95155   3.97237   3.99922   4.01089
  Beta virt. eigenvalues --    4.04799   4.09284   4.11847   4.11912   4.14109
  Beta virt. eigenvalues --    4.26804   4.30981   4.33478   4.37790   4.45138
  Beta virt. eigenvalues --    4.48055   4.52330   4.72389   4.83269   5.02643
  Beta virt. eigenvalues --    5.49744   5.52789   5.75915   5.76854   6.03849
  Beta virt. eigenvalues --    6.79498   6.83567   6.83688   6.84789   6.85136
  Beta virt. eigenvalues --    6.97358   7.05565   7.06342   7.11786   7.13934
  Beta virt. eigenvalues --    7.22392   7.23934   7.27163   7.29083   7.36788
  Beta virt. eigenvalues --    7.41496   7.51786   7.58826   7.74135   7.79419
  Beta virt. eigenvalues --    7.85927   7.87428   8.19332   8.31162   9.17410
  Beta virt. eigenvalues --   23.51286  24.70561  24.75416  25.00507  25.07289
          Condensed to atoms (all electrons):
               1          2          3          4          5          6
     1  C    6.702590  -0.424053  -0.076462  -0.033749  -0.005071  -0.033749
     2  C   -0.424053   6.054037   0.442036   0.234008  -0.058417  -0.141637
     3  H   -0.076462   0.442036   0.418657  -0.062388   0.005049   0.002679
     4  C   -0.033749   0.234008  -0.062388   5.371555   0.422405   0.241560
     5  H   -0.005071  -0.058417   0.005049   0.422405   0.424897  -0.052194
     6  C   -0.033749  -0.141637   0.002679   0.241560  -0.052194   5.371555
     7  H   -0.005071   0.009971   0.000657  -0.052194   0.004330   0.422405
     8  C   -0.424053   0.079213   0.013930  -0.141637   0.009971   0.234008
     9  H   -0.076462   0.013930   0.000930   0.002679   0.000657  -0.062388
               7          8          9
     1  C   -0.005071  -0.424053  -0.076462
     2  C    0.009971   0.079213   0.013930
     3  H    0.000657   0.013930   0.000930
     4  C   -0.052194  -0.141637   0.002679
     5  H    0.004330   0.009971   0.000657
     6  C    0.422405   0.234008  -0.062388
     7  H    0.424897  -0.058417   0.005049
     8  C   -0.058417   6.054037   0.442036
     9  H    0.005049   0.442036   0.418657
          Atomic-Atomic Spin Densities.
               1          2          3          4          5          6
     1  C    2.286781  -0.451477   0.007133   0.002258  -0.006583   0.002258
     2  C   -0.451477   0.652796  -0.000161   0.036279   0.004546  -0.034003
     3  H    0.007133  -0.000161  -0.020002   0.005070  -0.000393  -0.000232
     4  C    0.002258   0.036279   0.005070   0.370241   0.003446   0.051432
     5  H   -0.006583   0.004546  -0.000393   0.003446  -0.013222   0.000890
     6  C    0.002258  -0.034003  -0.000232   0.051432   0.000890   0.370241
     7  H   -0.006583   0.003680   0.000004   0.000890  -0.000276   0.003446
     8  C   -0.451477   0.178960  -0.002145  -0.034003   0.003680   0.036279
     9  H    0.007133  -0.002145   0.000058  -0.000232   0.000004   0.005070
               7          8          9
     1  C   -0.006583  -0.451477   0.007133
     2  C    0.003680   0.178960  -0.002145
     3  H    0.000004  -0.002145   0.000058
     4  C    0.000890  -0.034003  -0.000232
     5  H   -0.000276   0.003680   0.000004
     6  C    0.003446   0.036279   0.005070
     7  H   -0.013222   0.004546  -0.000393
     8  C    0.004546   0.652796  -0.000161
     9  H   -0.000393  -0.000161  -0.020002
 Mulliken charges and spin densities:
               1          2
     1  C    0.376081   1.389442
     2  C   -0.209088   0.388476
     3  H    0.254913  -0.010668
     4  C    0.017762   0.435380
     5  H    0.248373  -0.007908
     6  C    0.017762   0.435380
     7  H    0.248373  -0.007908
     8  C   -0.209088   0.388476
     9  H    0.254913  -0.010668
 Sum of Mulliken charges =   1.00000   3.00000
 Mulliken charges and spin densities with hydrogens summed into heavy atoms:
               1          2
     1  C    0.376081   1.389442
     2  C    0.045825   0.377807
     4  C    0.266135   0.427471
     6  C    0.266135   0.427471
     8  C    0.045825   0.377807
 APT charges:
               1
     1  C    0.139606
     2  C    0.058729
     3  H    0.165635
     4  C    0.057221
     5  H    0.148611
     6  C    0.057221
     7  H    0.148611
     8  C    0.058729
     9  H    0.165635
 Sum of APT charges =   1.00000
 APT charges with hydrogens summed into heavy atoms:
               1
     1  C    0.139606
     2  C    0.224364
     4  C    0.205833
     6  C    0.205833
     8  C    0.224364
 Electronic spatial extent (au):  <R**2>=            277.0437
 Charge=              1.0000 electrons
 Dipole moment (field-independent basis, Debye):
    X=             -0.0000    Y=             -0.0000    Z=             -0.8369  Tot=              0.8369
 Quadrupole moment (field-independent basis, Debye-Ang):
   XX=            -27.9802   YY=            -14.8214   ZZ=            -19.7010
   XY=              0.0000   XZ=             -0.0000   YZ=              0.0000
 Traceless Quadrupole moment (field-independent basis, Debye-Ang):
   XX=             -7.1460   YY=              6.0128   ZZ=              1.1332
   XY=              0.0000   XZ=             -0.0000   YZ=              0.0000
 Octapole moment (field-independent basis, Debye-Ang**2):
  XXX=              0.0000  YYY=             -0.0000  ZZZ=            -10.4372  XYY=             -0.0000
  XXY=             -0.0000  XXZ=             -0.3521  XZZ=              0.0000  YZZ=              0.0000
  YYZ=              1.2992  XYZ=             -0.0002
 Hexadecapole moment (field-independent basis, Debye-Ang**3):
 XXXX=            -29.1992 YYYY=           -129.7816 ZZZZ=           -141.7458 XXXY=             -0.0001
 XXXZ=             -0.0000 YYYX=             -0.0002 YYYZ=              0.0000 ZZZX=              0.0000
 ZZZY=              0.0000 XXYY=            -36.4955 XXZZ=            -32.3826 YYZZ=            -39.7615
 XXYZ=             -0.0000 YYXZ=             -0.0000 ZZXY=              0.0002
 N-N= 1.403480887681D+02 E-N=-7.190502083598D+02  KE= 1.916741107195D+02
 Symmetry A    KE= 1.128977891675D+02
 Symmetry B    KE= 7.877632155206D+01
  Exact polarizability:  28.720   0.000  57.089  -0.000   0.000  52.704
 Approx polarizability:  43.437   0.000  97.616   0.000   0.000  92.039
                          Isotropic Fermi Contact Couplings
        Atom                 a.u.       MegaHertz       Gauss      10(-4) cm-1
     1  C(13)              0.46770     175.25961      62.53698      58.46031
     2  C(13)              0.04577      17.15212       6.12030       5.72133
     3  H(1)              -0.00357      -5.31494      -1.89650      -1.77287
     4  C(13)              0.04667      17.48915       6.24056       5.83375
     5  H(1)              -0.00318      -4.73129      -1.68824      -1.57819
     6  C(13)              0.04667      17.48915       6.24056       5.83375
     7  H(1)              -0.00318      -4.73129      -1.68824      -1.57819
     8  C(13)              0.04577      17.15212       6.12030       5.72133
     9  H(1)              -0.00357      -5.31494      -1.89650      -1.77287
 --------------------------------------------------------
       Center         ----  Spin Dipole Couplings  ----
                      3XX-RR        3YY-RR        3ZZ-RR
 --------------------------------------------------------
     1   Atom        0.025118     -0.827558      0.802440
     2   Atom        0.487185     -0.242265     -0.244920
     3   Atom       -0.022372      0.060448     -0.038076
     4   Atom        0.497402     -0.289916     -0.207487
     5   Atom       -0.016439     -0.007288      0.023727
     6   Atom        0.497402     -0.289916     -0.207487
     7   Atom       -0.016439     -0.007288      0.023727
     8   Atom        0.487185     -0.242265     -0.244920
     9   Atom       -0.022372      0.060448     -0.038076
 --------------------------------------------------------
                        XY            XZ            YZ
 --------------------------------------------------------
     1   Atom        0.000013      0.000000     -0.000000
     2   Atom        0.000009      0.000014     -0.064340
     3   Atom       -0.000001      0.000000      0.017119
     4   Atom       -0.000017      0.000014      0.003362
     5   Atom        0.000001     -0.000001     -0.045080
     6   Atom       -0.000017     -0.000014     -0.003362
     7   Atom        0.000001      0.000001      0.045080
     8   Atom        0.000009     -0.000014      0.064340
     9   Atom       -0.000001     -0.000000     -0.017119
 --------------------------------------------------------


 ---------------------------------------------------------------------------------
              Anisotropic Spin Dipole Couplings in Principal Axis System
 ---------------------------------------------------------------------------------

       Atom             a.u.   MegaHertz   Gauss  10(-4) cm-1        Axes

              Baa    -0.8276  -111.050   -39.626   -37.042 -0.0000  1.0000  0.0000
     1 C(13)  Bbb     0.0251     3.371     1.203     1.124  1.0000  0.0000 -0.0000
              Bcc     0.8024   107.680    38.423    35.918  0.0000 -0.0000  1.0000
 
              Baa    -0.3079   -41.323   -14.745   -13.784 -0.0000  0.6998  0.7144
     2 C(13)  Bbb    -0.1792   -24.052    -8.582    -8.023  0.0000  0.7144 -0.6998
              Bcc     0.4872    65.376    23.328    21.807  1.0000  0.0000  0.0000
 
              Baa    -0.0410   -21.857    -7.799    -7.291 -0.0000 -0.1664  0.9861
     3 H(1)   Bbb    -0.0224   -11.936    -4.259    -3.982  1.0000  0.0000  0.0000
              Bcc     0.0633    33.794    12.059    11.272 -0.0000  0.9861  0.1664
 
              Baa    -0.2901   -38.922   -13.888   -12.983  0.0000  0.9992 -0.0407
     4 C(13)  Bbb    -0.2073   -27.824    -9.928    -9.281 -0.0000  0.0407  0.9992
              Bcc     0.4974    66.747    23.817    22.264  1.0000 -0.0000  0.0000
 
              Baa    -0.0395   -21.050    -7.511    -7.022  0.0000  0.8140  0.5808
     5 H(1)   Bbb    -0.0164    -8.771    -3.130    -2.926  1.0000 -0.0000  0.0000
              Bcc     0.0559    29.821    10.641     9.947 -0.0000 -0.5808  0.8140
 
              Baa    -0.2901   -38.922   -13.888   -12.983  0.0000  0.9992  0.0407
     6 C(13)  Bbb    -0.2073   -27.824    -9.928    -9.281  0.0000 -0.0407  0.9992
              Bcc     0.4974    66.747    23.817    22.264  1.0000 -0.0000 -0.0000
 
              Baa    -0.0395   -21.050    -7.511    -7.022  0.0000  0.8140 -0.5808
     7 H(1)   Bbb    -0.0164    -8.771    -3.130    -2.926  1.0000 -0.0000 -0.0000
              Bcc     0.0559    29.821    10.641     9.947  0.0000  0.5808  0.8140
 
              Baa    -0.3079   -41.323   -14.745   -13.784  0.0000 -0.6998  0.7144
     8 C(13)  Bbb    -0.1792   -24.052    -8.582    -8.023  0.0000  0.7144  0.6998
              Bcc     0.4872    65.376    23.328    21.807  1.0000  0.0000 -0.0000
 
              Baa    -0.0410   -21.857    -7.799    -7.291  0.0000  0.1664  0.9861
     9 H(1)   Bbb    -0.0224   -11.936    -4.259    -3.982  1.0000  0.0000 -0.0000
              Bcc     0.0633    33.794    12.059    11.272 -0.0000  0.9861 -0.1664
 

 ---------------------------------------------------------------------------------

 No NMR shielding tensors so no spin-rotation constants.
 Leave Link  601 at Wed Jul 20 22:20:54 2016, MaxMem=    33554432 cpu:         1.0
 (Enter /home/proyectos/fulerenos/M3C-v2.0/M3C-deps_CCC/g09-AM64L-G09RevC.01/l701.exe)
 Compute integral second derivatives.
 ... and contract with generalized density number  0.
 Leave Link  701 at Wed Jul 20 22:20:57 2016, MaxMem=    33554432 cpu:         1.3
 (Enter /home/proyectos/fulerenos/M3C-v2.0/M3C-deps_CCC/g09-AM64L-G09RevC.01/l702.exe)
 L702 exits ... SP integral derivatives will be done elsewhere.
 Leave Link  702 at Wed Jul 20 22:20:57 2016, MaxMem=    33554432 cpu:         0.1
 (Enter /home/proyectos/fulerenos/M3C-v2.0/M3C-deps_CCC/g09-AM64L-G09RevC.01/l703.exe)
 Compute integral second derivatives, UseDBF=F ICtDFT=           0.
 Integral derivatives from FoFJK, PRISM(SPDF).
 Calling FoFJK, ICntrl=    100127 FMM=F ISym2X=1 I1Cent= 0 IOpClX= 1 NMat=1 NMatS=1 NMatT=0.
 FoFJK:  IHMeth= 1 ICntrl=  100127 DoSepK=F KAlg= 0 I1Cent=   0 FoldK=F
 IRaf=         0 NMat=   1 IRICut=       1 DoRegI=T DoRafI=F ISym2E= 1.
 FoFCou: FMM=F IPFlag=           0 FMFlag=      100000 FMFlg1=         800
         NFxFlg=           0 DoJE=F BraDBF=F KetDBF=F FulRan=T
         wScrn=  0.000000 ICntrl=  100127 IOpCl=  1 I1Cent=           0 NGrid=           0
         NMat0=    1 NMatS0=      1 NMatT0=    0 NMatD0=    1 NMtDS0=    0 NMtDT0=    0
 Petite list used in FoFCou.
 Leave Link  703 at Wed Jul 20 22:35:06 2016, MaxMem=    33554432 cpu:       847.8
 (Enter /home/proyectos/fulerenos/M3C-v2.0/M3C-deps_CCC/g09-AM64L-G09RevC.01/l716.exe)
 Dipole        =-1.52650494D-16 4.65320057D-14-3.29255949D-01
 Polarizability= 2.87203679D+01 3.31616162D-05 5.70893071D+01
                -2.97522275D-09 7.71304359D-08 5.27042123D+01
 Full mass-weighted force constant matrix:
 Low frequencies ---  -20.5440  -18.6044  -10.1964   -0.0007   -0.0004    0.0006
 Low frequencies ---  401.4958  482.2942  724.5264
 Diagonal vibrational polarizability:
        4.2319571       1.5845929       1.2639134
 Harmonic frequencies (cm**-1), IR intensities (KM/Mole), Raman scattering
 activities (A**4/AMU), depolarization ratios for plane and unpolarized
 incident light, reduced masses (AMU), force constants (mDyne/A),
 and normal coordinates:
                      1                      2                      3
                      A                      B                      B
 Frequencies --    401.4957               482.2941               724.5264
 Red. masses --      2.1405                 2.5283                 1.2314
 Frc consts  --      0.2033                 0.3465                 0.3809
 IR Inten    --      0.0000                 8.4911                63.0047
  Atom  AN      X      Y      Z        X      Y      Z        X      Y      Z
     1   6    -0.00   0.00  -0.00     0.29   0.00   0.00     0.08   0.00   0.00
     2   6    -0.12  -0.00  -0.00    -0.16  -0.00  -0.00    -0.07   0.00   0.00
     3   1    -0.34  -0.00  -0.00    -0.66  -0.00  -0.00     0.35   0.00   0.00
     4   6     0.19  -0.00   0.00     0.06   0.00  -0.00    -0.05  -0.00   0.00
     5   1     0.58  -0.00   0.00     0.03   0.00   0.00     0.60  -0.00   0.00
     6   6    -0.19   0.00   0.00     0.06   0.00   0.00    -0.05  -0.00  -0.00
     7   1    -0.58   0.00   0.00     0.03   0.00  -0.00     0.60  -0.00  -0.00
     8   6     0.12   0.00  -0.00    -0.16  -0.00   0.00    -0.07   0.00  -0.00
     9   1     0.34   0.00  -0.00    -0.66  -0.00   0.00     0.35   0.00  -0.00
                      4                      5                      6
                      B                      A                      A
 Frequencies --    816.0304               818.9094               850.8504
 Red. masses --      5.6053                 6.0725                 1.2778
 Frc consts  --      2.1992                 2.3993                 0.5450
 IR Inten    --      1.2617                 0.2134                 0.0000
  Atom  AN      X      Y      Z        X      Y      Z        X      Y      Z
     1   6    -0.00   0.13   0.00    -0.00  -0.00   0.45     0.00   0.00   0.00
     2   6     0.00   0.17   0.18     0.00  -0.32  -0.04    -0.10  -0.00   0.00
     3   1    -0.00   0.29  -0.18    -0.00  -0.23  -0.36     0.64  -0.00   0.00
     4   6     0.00  -0.25   0.28     0.00  -0.04  -0.16    -0.04   0.00  -0.00
     5   1    -0.00  -0.10   0.40    -0.00   0.29   0.08     0.29   0.00   0.00
     6   6     0.00  -0.25  -0.28    -0.00   0.04  -0.16     0.04  -0.00  -0.00
     7   1    -0.00  -0.10  -0.40     0.00  -0.29   0.08    -0.29  -0.00   0.00
     8   6     0.00   0.17  -0.18    -0.00   0.32  -0.04     0.10   0.00   0.00
     9   1    -0.00   0.29   0.18     0.00   0.23  -0.36    -0.64   0.00   0.00
                      7                      8                      9
                      B                      A                      A
 Frequencies --    894.7817               939.0794               982.7561
 Red. masses --      1.5088                 1.6397                 1.8444
 Frc consts  --      0.7117                 0.8520                 1.0495
 IR Inten    --      0.5841                 0.0000                 0.2872
  Atom  AN      X      Y      Z        X      Y      Z        X      Y      Z
     1   6     0.05   0.00  -0.00    -0.00  -0.00  -0.00     0.00   0.00  -0.12
     2   6    -0.12  -0.00  -0.00     0.07  -0.00   0.00     0.00  -0.08   0.09
     3   1     0.55   0.00   0.00    -0.27  -0.00   0.00    -0.00  -0.23   0.54
     4   6     0.08  -0.00   0.00    -0.15   0.00  -0.00     0.00   0.10  -0.08
     5   1    -0.42   0.00   0.00     0.63   0.00   0.00    -0.00   0.34   0.08
     6   6     0.08  -0.00  -0.00     0.15  -0.00  -0.00    -0.00  -0.10  -0.08
     7   1    -0.42   0.00  -0.00    -0.63  -0.00   0.00     0.00  -0.34   0.08
     8   6    -0.12  -0.00   0.00    -0.07   0.00   0.00    -0.00   0.08   0.09
     9   1     0.55   0.00  -0.00     0.27   0.00   0.00     0.00   0.23   0.54
                     10                     11                     12
                      B                      A                      A
 Frequencies --   1021.9107              1109.2357              1134.9484
 Red. masses --      1.7158                 1.1895                 6.4760
 Frc consts  --      1.0557                 0.8623                 4.9148
 IR Inten    --      5.1328                 0.4700                 0.1984
  Atom  AN      X      Y      Z        X      Y      Z        X      Y      Z
     1   6     0.00  -0.04  -0.00     0.00  -0.00  -0.03    -0.00  -0.00   0.33
     2   6    -0.00   0.09   0.11     0.00   0.02  -0.03    -0.00   0.31   0.09
     3   1     0.00  -0.00   0.44     0.00   0.12  -0.32    -0.00   0.36   0.08
     4   6     0.00  -0.04  -0.09     0.00   0.06   0.05     0.00   0.17  -0.24
     5   1    -0.00  -0.38  -0.35     0.00   0.50   0.36     0.00   0.20  -0.27
     6   6     0.00  -0.04   0.09    -0.00  -0.06   0.05    -0.00  -0.17  -0.24
     7   1    -0.00  -0.38   0.35    -0.00  -0.50   0.36    -0.00  -0.20  -0.27
     8   6    -0.00   0.09  -0.11    -0.00  -0.02  -0.03     0.00  -0.31   0.09
     9   1     0.00  -0.00  -0.44    -0.00  -0.12  -0.32     0.00  -0.36   0.08
                     13                     14                     15
                      B                      A                      B
 Frequencies --   1233.6828              1366.0427              1373.6014
 Red. masses --      1.4693                 2.5749                 1.8249
 Frc consts  --      1.3176                 2.8310                 2.0287
 IR Inten    --     10.9991                49.0598                69.9912
  Atom  AN      X      Y      Z        X      Y      Z        X      Y      Z
     1   6    -0.00   0.17   0.00     0.00  -0.00  -0.15     0.00  -0.11   0.00
     2   6     0.00  -0.04  -0.05    -0.00  -0.04   0.22    -0.00   0.08   0.01
     3   1    -0.00  -0.26   0.60     0.00   0.23  -0.60     0.00   0.08   0.05
     4   6    -0.00  -0.04   0.02     0.00  -0.05  -0.09     0.00  -0.08  -0.13
     5   1     0.00   0.15   0.16    -0.00  -0.05  -0.10     0.00   0.58   0.34
     6   6    -0.00  -0.04  -0.02    -0.00   0.05  -0.09     0.00  -0.08   0.13
     7   1     0.00   0.15  -0.16     0.00   0.05  -0.10     0.00   0.58  -0.34
     8   6     0.00  -0.04   0.05     0.00   0.04   0.22    -0.00   0.08  -0.01
     9   1    -0.00  -0.26  -0.60    -0.00  -0.23  -0.60     0.00   0.08  -0.05
                     16                     17                     18
                      B                      A                      B
 Frequencies --   1403.9925              1421.7635              3214.4721
 Red. masses --      6.0366                 2.9838                 1.0916
 Frc consts  --      7.0109                 3.5536                 6.6458
 IR Inten    --      4.6252                34.1322                 1.9970
  Atom  AN      X      Y      Z        X      Y      Z        X      Y      Z
     1   6    -0.00   0.37   0.00    -0.00  -0.00  -0.01    -0.00  -0.00   0.00
     2   6    -0.00  -0.20   0.29     0.00  -0.08  -0.02     0.00  -0.01  -0.00
     3   1     0.00   0.05  -0.47     0.00  -0.00  -0.31    -0.00   0.16   0.05
     4   6     0.00  -0.01  -0.18     0.00   0.28   0.08     0.00   0.03  -0.05
     5   1     0.00   0.21  -0.05    -0.00  -0.38  -0.42    -0.00  -0.40   0.56
     6   6     0.00  -0.01   0.18    -0.00  -0.28   0.08     0.00   0.03   0.05
     7   1     0.00   0.21   0.05     0.00   0.38  -0.42    -0.00  -0.40  -0.56
     8   6    -0.00  -0.20  -0.29    -0.00   0.08  -0.02     0.00  -0.01   0.00
     9   1     0.00   0.05   0.47    -0.00   0.00  -0.31    -0.00   0.16  -0.05
                     19                     20                     21
                      A                      B                      A
 Frequencies --   3223.4871              3233.6988              3238.7504
 Red. masses --      1.0949                 1.0946                 1.1034
 Frc consts  --      6.7029                 6.7438                 6.8196
 IR Inten    --     27.3949                54.4844                 0.0249
  Atom  AN      X      Y      Z        X      Y      Z        X      Y      Z
     1   6     0.00  -0.00   0.00    -0.00   0.00   0.00     0.00   0.00  -0.00
     2   6     0.00  -0.03  -0.01     0.00  -0.06  -0.02     0.00  -0.05  -0.02
     3   1    -0.00   0.31   0.10    -0.00   0.65   0.21    -0.00   0.59   0.20
     4   6     0.00   0.04  -0.04    -0.00  -0.01   0.01    -0.00  -0.02   0.03
     5   1    -0.00  -0.37   0.50     0.00   0.10  -0.14     0.00   0.19  -0.27
     6   6    -0.00  -0.04  -0.04    -0.00  -0.01  -0.01     0.00   0.02   0.03
     7   1     0.00   0.37   0.50     0.00   0.10   0.14    -0.00  -0.19  -0.27
     8   6    -0.00   0.03  -0.01     0.00  -0.06   0.02    -0.00   0.05  -0.02
     9   1     0.00  -0.31   0.10    -0.00   0.65  -0.21     0.00  -0.59   0.20

 -------------------
 - Thermochemistry -
 -------------------
 Temperature   298.150 Kelvin.  Pressure   1.00000 Atm.
 Atom     1 has atomic number  6 and mass  12.00000
 Atom     2 has atomic number  6 and mass  12.00000
 Atom     3 has atomic number  1 and mass   1.00783
 Atom     4 has atomic number  6 and mass  12.00000
 Atom     5 has atomic number  1 and mass   1.00783
 Atom     6 has atomic number  6 and mass  12.00000
 Atom     7 has atomic number  1 and mass   1.00783
 Atom     8 has atomic number  6 and mass  12.00000
 Atom     9 has atomic number  1 and mass   1.00783
 Molecular mass:    64.03130 amu.
 Principal axes and moments of inertia in atomic units:
                           1         2         3
     Eigenvalues --   179.57665 207.69525 387.27190
           X            0.00000   0.00000   1.00000
           Y            1.00000   0.00000  -0.00000
           Z           -0.00000   1.00000  -0.00000
 This molecule is an asymmetric top.
 Rotational symmetry number  2.
 Rotational temperatures (Kelvin)      0.48232     0.41702     0.22365
 Rotational constants (GHZ):          10.04998     8.68937     4.66014
 Zero-point vibrational energy     178759.8 (Joules/Mol)
                                   42.72462 (Kcal/Mol)
 Warning -- explicit consideration of   2 degrees of freedom as
           vibrations may cause significant error
 Vibrational temperatures:    577.66   693.91  1042.43  1174.08  1178.23
          (Kelvin)           1224.18  1287.39  1351.12  1413.97  1470.30
                             1595.94  1632.94  1774.99  1965.43  1976.30
                             2020.03  2045.60  4624.90  4637.87  4652.57
                             4659.83
 
 Zero-point correction=                           0.068086 (Hartree/Particle)
 Thermal correction to Energy=                    0.072045
 Thermal correction to Enthalpy=                  0.072990
 Thermal correction to Gibbs Free Energy=         0.041099
 Sum of electronic and zero-point Energies=           -192.459575
 Sum of electronic and thermal Energies=              -192.455616
 Sum of electronic and thermal Enthalpies=            -192.454672
 Sum of electronic and thermal Free Energies=         -192.486562
 
                     E (Thermal)             CV                S
                      KCal/Mol        Cal/Mol-Kelvin    Cal/Mol-Kelvin
 Total                   45.209             14.167             67.119
 Electronic               0.000              0.000              2.755
 Translational            0.889              2.981             38.389
 Rotational               0.889              2.981             22.806
 Vibrational             43.432              8.206              3.169
 Vibration     1          0.767              1.467              0.957
 Vibration     2          0.839              1.289              0.704
                       Q            Log10(Q)             Ln(Q)
 Total Bot       0.124663D-18        -18.904263        -43.528675
 Total V=0       0.258861D+13         12.413066         28.582142
 Vib (Bot)       0.719400D-31        -31.143030        -71.709476
 Vib (Bot)    1  0.443444D+00         -0.353161         -0.813183
 Vib (Bot)    2  0.346090D+00         -0.460811         -1.061056
 Vib (V=0)       0.149383D+01          0.174300          0.401341
 Vib (V=0)    1  0.116831D+01          0.067559          0.155561
 Vib (V=0)    2  0.110809D+01          0.044577          0.102641
 Electronic      0.400000D+01          0.602060          1.386294
 Translational   0.201393D+08          7.304044         16.818182
 Rotational      0.215111D+05          4.332663          9.976324
 
                                                              b3lyp opt
                                                             IR Spectrum
 
   3333                                                                     1111    1   11  1                                        
   2222                                                                     4433    2   11  0 9 98 888  7         4  4               
   3321                                                                     2076    3   30  2 8 39 511  2         8  0               
   9434                                                                     2446    4   59  2 3 95 196  5         2  1               
 
    XXX                                                                     XXXX    X   XX  X X  X  XX  X         X                  
    XX                                                                      X XX    X                   X         X                  
    XX                                                                      X XX    X                   X                            
    XX                                                                      X XX                        X                            
    XX                                                                      X XX                        X                            
    XX                                                                      X XX                        X                            
    XX                                                                      X XX                        X                            
    XX                                                                      X XX                        X                            
    X                                                                       X XX                        X                            
    X                                                                       X XX                        X                            
    X                                                                         XX                        X                            
    X                                                                         XX                        X                            
    X                                                                         XX                        X                            
    X                                                                         XX                        X                            
    X                                                                         X                         X                            
    X                                                                         X                         X                            
                                                                              X                         X                            
                                                                              X                         X                            
                                                                              X                                                      
                                                                              X                                                      
 
 ***** Axes restored to original set *****
 -------------------------------------------------------------------
 Center     Atomic                   Forces (Hartrees/Bohr)
 Number     Number              X              Y              Z
 -------------------------------------------------------------------
      1        6          -0.000000006    0.000043667    0.000000000
      2        6           0.000089260   -0.000091352   -0.000001772
      3        1          -0.000058504    0.000048021    0.000000074
      4        6          -0.000020937    0.000040201    0.000002863
      5        1          -0.000008202   -0.000018703   -0.000000099
      6        6           0.000020926    0.000040207   -0.000002863
      7        1           0.000008208   -0.000018701    0.000000099
      8        6          -0.000089234   -0.000091378    0.000001772
      9        1           0.000058490    0.000048038   -0.000000074
 -------------------------------------------------------------------
 Cartesian Forces:  Max     0.000091378 RMS     0.000043442
 Z-matrix is all fixed cartesians, so copy forces.
 Force constants in Cartesian coordinates: 
                1             2             3             4             5 
      1  0.501397D+00
      2  0.183942D-04  0.375665D+00
      3  0.228958D-04  0.000000D+00  0.620512D-01
      4 -0.227705D+00 -0.844396D-01 -0.955383D-05  0.757052D+00
      5 -0.135980D+00 -0.126558D+00 -0.707942D-05 -0.723810D-01  0.502494D+00
      6 -0.936661D-05 -0.501302D-05 -0.513675D-01  0.346791D-04 -0.670344D-05
      7 -0.120616D-01  0.648015D-02  0.000000D+00 -0.325780D+00  0.915221D-01
      8 -0.172584D-01  0.107333D-01  0.000000D+00  0.901389D-01 -0.854187D-01
      9  0.000000D+00  0.000000D+00  0.407422D-02 -0.152040D-04  0.501520D-05
     10 -0.112541D-01 -0.307987D-01  0.000000D+00 -0.961194D-01  0.653708D-01
     11 -0.181508D-01 -0.668934D-01  0.000000D+00  0.539250D-01 -0.258153D+00
     12  0.000000D+00 -0.115975D-05  0.118484D-01 -0.350588D-05  0.619241D-05
     13  0.362592D-03  0.357722D-02  0.000000D+00  0.113340D-01  0.123217D-01
     14  0.136284D-02 -0.515459D-02  0.000000D+00 -0.153910D-01 -0.115945D-01
     15  0.000000D+00  0.000000D+00  0.441924D-02  0.000000D+00  0.000000D+00
     16 -0.112685D-01  0.308150D-01  0.000000D+00 -0.442872D-01  0.176412D-01
     17  0.181671D-01 -0.668790D-01  0.000000D+00  0.433616D-01 -0.229990D-01
     18  0.000000D+00  0.115954D-05  0.118484D-01 -0.253919D-05  0.000000D+00
     19  0.364034D-03 -0.357561D-02  0.000000D+00 -0.619389D-02  0.781949D-03
     20 -0.136123D-02 -0.515603D-02  0.000000D+00 -0.233429D-02  0.191350D-02
     21  0.000000D+00  0.000000D+00  0.441924D-02  0.000000D+00  0.000000D+00
     22 -0.227770D+00  0.844099D-01 -0.955591D-05 -0.661209D-01  0.180424D-01
     23  0.135951D+00 -0.126494D+00  0.707664D-05 -0.180624D-01  0.247576D-02
     24 -0.936804D-05  0.501041D-05 -0.513675D-01 -0.440001D-05  0.000000D+00
     25 -0.120647D-01 -0.648682D-02  0.000000D+00 -0.217920D-02  0.268107D-02
     26  0.172518D-01  0.107365D-01  0.000000D+00  0.518288D-02 -0.215965D-02
     27  0.000000D+00  0.000000D+00  0.407422D-02  0.000000D+00  0.000000D+00
                6             7             8             9            10 
      6  0.117874D+00
      7 -0.156920D-04  0.335706D+00
      8  0.524917D-05 -0.943895D-01  0.809592D-01
      9 -0.364783D-01  0.169677D-04 -0.540837D-05  0.202625D-01
     10 -0.236101D-05  0.253337D-02  0.246192D-01  0.000000D+00  0.612445D+00
     11  0.588448D-05 -0.161154D-02  0.120671D-03  0.000000D+00  0.115794D+00
     12 -0.554002D-01  0.000000D+00  0.125225D-05  0.655122D-02  0.179135D-04
     13  0.000000D+00  0.776097D-04 -0.781785D-03  0.000000D+00 -0.159432D+00
     14  0.000000D+00  0.305764D-03  0.594328D-03  0.000000D+00 -0.140602D+00
     15  0.578810D-02  0.000000D+00  0.000000D+00 -0.134493D-02 -0.382850D-05
     16 -0.227143D-05  0.167630D-02  0.227291D-02  0.000000D+00 -0.299932D+00
     17  0.160560D-05 -0.662179D-04 -0.630816D-02  0.000000D+00 -0.103090D-01
     18  0.296741D-02  0.000000D+00  0.000000D+00  0.493791D-02 -0.707004D-05
     19  0.000000D+00  0.219495D-03  0.102314D-02  0.000000D+00 -0.564885D-02
     20  0.000000D+00  0.000000D+00  0.534208D-03  0.000000D+00 -0.415643D-02
     21  0.294079D-02  0.000000D+00  0.000000D+00 -0.123960D-02  0.000000D+00
     22 -0.439985D-05 -0.217690D-02 -0.518288D-02  0.000000D+00 -0.442693D-01
     23  0.000000D+00 -0.268108D-02 -0.216195D-02  0.000000D+00 -0.176474D-01
     24  0.948514D-02  0.000000D+00  0.000000D+00  0.419013D-02 -0.227096D-05
     25  0.000000D+00 -0.193693D-03 -0.441429D-03  0.000000D+00  0.167695D-02
     26  0.000000D+00  0.441095D-03  0.947101D-03  0.000000D+00 -0.227057D-02
     27  0.419013D-02  0.000000D+00  0.000000D+00 -0.953074D-03  0.000000D+00
               11            12            13            14            15 
     11  0.675497D+00
     12  0.000000D+00  0.118463D+00
     13 -0.139423D+00 -0.338860D-05  0.158852D+00
     14 -0.252233D+00 -0.362615D-05  0.148239D+00  0.256908D+00
     15 -0.422746D-05 -0.380058D-01  0.415618D-05  0.390281D-05  0.206853D-01
     16  0.102441D-01 -0.706967D-05 -0.564347D-02  0.415215D-02  0.000000D+00
     17 -0.779902D-01 -0.126460D-05 -0.225261D-01  0.897294D-02  0.000000D+00
     18  0.126254D-05 -0.595447D-01  0.000000D+00  0.000000D+00  0.818312D-02
     19  0.225218D-01  0.000000D+00  0.423496D-03 -0.400081D-03  0.000000D+00
     20  0.897832D-02  0.000000D+00  0.400188D-03  0.593467D-04  0.000000D+00
     21  0.000000D+00  0.818312D-02  0.000000D+00  0.000000D+00 -0.142618D-02
     22 -0.433678D-01 -0.253907D-05 -0.619434D-02  0.233191D-02  0.000000D+00
     23 -0.230168D-01  0.000000D+00 -0.784322D-03  0.191395D-02  0.000000D+00
     24 -0.160626D-05  0.296741D-02  0.000000D+00  0.000000D+00  0.294079D-02
     25  0.685547D-04  0.000000D+00  0.219795D-03  0.000000D+00  0.000000D+00
     26 -0.630880D-02  0.000000D+00 -0.102323D-02  0.533909D-03  0.000000D+00
     27  0.000000D+00  0.493791D-02  0.000000D+00  0.000000D+00 -0.123960D-02
               16            17            18            19            20 
     16  0.612513D+00
     17 -0.115812D+00  0.675429D+00
     18  0.179133D-04  0.000000D+00  0.118463D+00
     19 -0.159514D+00  0.139450D+00 -0.338966D-05  0.158939D+00
     20  0.140629D+00 -0.252152D+00  0.362516D-05 -0.148268D+00  0.256821D+00
     21 -0.382973D-05  0.422634D-05 -0.380058D-01  0.415733D-05 -0.390160D-05
     22 -0.960845D-01 -0.538775D-01 -0.350406D-05  0.113331D-01  0.153977D-01
     23 -0.653234D-01 -0.258188D+00 -0.619343D-05 -0.123150D-01 -0.115936D-01
     24 -0.235928D-05 -0.588517D-05 -0.554002D-01  0.000000D+00  0.000000D+00
     25  0.254010D-02  0.161224D-02  0.000000D+00  0.774704D-04 -0.305915D-03
     26 -0.246185D-01  0.113938D-03 -0.125229D-05  0.781634D-03  0.594467D-03
     27  0.000000D+00  0.000000D+00  0.655122D-02  0.000000D+00  0.000000D+00
               21            22            23            24            25 
     21  0.206853D-01
     22  0.000000D+00  0.757010D+00
     23  0.000000D+00  0.724555D-01  0.502536D+00
     24  0.578810D-02  0.346772D-04  0.671358D-05  0.117874D+00
     25  0.000000D+00 -0.325727D+00 -0.915924D-01 -0.156904D-04  0.335650D+00
     26  0.000000D+00 -0.902092D-01 -0.854719D-01 -0.525377D-05  0.944641D-01
     27 -0.134493D-02 -0.152025D-04 -0.501965D-05 -0.364783D-01  0.169661D-04
               26            27 
     26  0.810145D-01
     27  0.541333D-05  0.202625D-01
 Leave Link  716 at Wed Jul 20 22:35:07 2016, MaxMem=    33554432 cpu:         0.1
 (Enter /home/proyectos/fulerenos/M3C-v2.0/M3C-deps_CCC/g09-AM64L-G09RevC.01/l103.exe)

 GradGradGradGradGradGradGradGradGradGradGradGradGradGradGradGradGradGrad
 Berny optimization.
 Search for a local minimum.
 Step number   1 out of a maximum of    2
 All quantities printed in internal units (Hartrees-Bohrs-Radians)
 Second derivative matrix not updated -- analytic derivatives used.
 ITU=  0
     Eigenvalues ---    0.01107   0.01975   0.04670   0.05056   0.05156
     Eigenvalues ---    0.05744   0.08008   0.14097   0.16133   0.16942
     Eigenvalues ---    0.19986   0.22206   0.25191   0.35324   0.52594
     Eigenvalues ---    0.71910   0.77415   1.01779   1.05034   1.05182
     Eigenvalues ---    1.12884
 Angle between quadratic step and forces=  61.77 degrees.
 ClnCor:  largest displacement from symmetrization is 4.52D-12 for atom     9.
 Linear search not attempted -- first point.
 ClnCor:  largest displacement from symmetrization is 1.83D-15 for atom     9.
 B after Tr=     0.000000   -0.000042    0.000000
         Rot=    1.000000    0.000000   -0.000000   -0.000000 Ang=  -0.00 deg.
 Variable       Old X    -DE/DX   Delta X   Delta X   Delta X     New X
                                 (Linear)    (Quad)   (Total)
    X1        0.00034  -0.00000   0.00000  -0.00000   0.00000   0.00034
    Y1       -2.33599   0.00004   0.00000   0.00002  -0.00002  -2.33601
    Z1       -0.00001   0.00000   0.00000  -0.00000  -0.00000  -0.00001
    X2        2.20666   0.00009   0.00000   0.00006   0.00006   2.20672
    Y2       -0.84806  -0.00009   0.00000  -0.00011  -0.00015  -0.84821
    Z2        0.00011  -0.00000   0.00000  -0.00002  -0.00002   0.00009
    X3        4.14230  -0.00006   0.00000   0.00004   0.00004   4.14234
    Y3       -1.49242   0.00005   0.00000   0.00045   0.00041  -1.49201
    Z3        0.00021   0.00000   0.00000  -0.00003  -0.00003   0.00018
    X4        1.34257  -0.00002   0.00000  -0.00004  -0.00004   1.34253
    Y4        1.70532   0.00004   0.00000  -0.00003  -0.00007   1.70524
    Z4        0.00003   0.00000   0.00000   0.00002   0.00002   0.00005
    X5        2.53774  -0.00001   0.00000   0.00000   0.00000   2.53774
    Y5        3.36092  -0.00002   0.00000  -0.00013  -0.00017   3.36075
    Z5        0.00006  -0.00000   0.00000   0.00005   0.00005   0.00011
    X6       -1.34306   0.00002   0.00000   0.00004   0.00004  -1.34302
    Y6        1.70492   0.00004   0.00000  -0.00003  -0.00007   1.70485
    Z6       -0.00005  -0.00000   0.00000  -0.00002  -0.00002  -0.00008
    X7       -2.53872   0.00001   0.00000  -0.00000  -0.00000  -2.53872
    Y7        3.36018  -0.00002   0.00000  -0.00013  -0.00017   3.36001
    Z7       -0.00009   0.00000   0.00000  -0.00005  -0.00005  -0.00013
    X8       -2.20641  -0.00009   0.00000  -0.00006  -0.00006  -2.20647
    Y8       -0.84870  -0.00009   0.00000  -0.00011  -0.00015  -0.84886
    Z8       -0.00013   0.00000   0.00000   0.00002   0.00002  -0.00012
    X9       -4.14186   0.00006   0.00000  -0.00004  -0.00004  -4.14190
    Y9       -1.49363   0.00005   0.00000   0.00045   0.00041  -1.49322
    Z9       -0.00024  -0.00000   0.00000   0.00003   0.00003  -0.00021
         Item               Value     Threshold  Converged?
 Maximum Force            0.000091     0.000450     YES
 RMS     Force            0.000043     0.000300     YES
 Maximum Displacement     0.000409     0.001800     YES
 RMS     Displacement     0.000132     0.001200     YES
 Predicted change in Energy=-3.728051D-08
 Optimization completed.
    -- Stationary point found.
 GradGradGradGradGradGradGradGradGradGradGradGradGradGradGradGradGradGrad

 Leave Link  103 at Wed Jul 20 22:35:07 2016, MaxMem=    33554432 cpu:         0.1
 (Enter /home/proyectos/fulerenos/M3C-v2.0/M3C-deps_CCC/g09-AM64L-G09RevC.01/l9999.exe)
 1\1\GINC-EINSTENIO\Freq\UB3LYP\6-311++G(3df,2p)\C5H4(1+,4)\ROOT\20-Jul
 -2016\0\\#p b3lyp/6-311++G(3df,2p) freq symmetry=Loose\\b3lyp opt\\1,4
 \C,0.0001823004,-1.236152999,-0.0000075152\C,1.167716601,-0.448772641,
 0.000056144\H,2.192012995,-0.78975276,0.000111212\C,0.710455884,0.9024
 14979,0.000013996\H,1.342914228,1.778522543,0.00003208\C,-0.7107171107
 ,0.9022070239,-0.0000290264\H,-1.343431823,1.7781294596,-0.0000471104\
 C,-1.1675823793,-0.4491143569,-0.0000711744\H,-2.1917789406,-0.7903942
 245,-0.0001262424\\Version=EM64L-G09RevE.01\State=4-B\HF=-192.5276614\
 S2=3.755657\S2-1=0.\S2A=3.750014\RMSD=4.043e-09\RMSF=4.344e-05\ZeroPoi
 nt=0.068086\Thermal=0.0720454\Dipole=-0.0000482,0.3292559,0.\DipoleDer
 iv=-0.1454131,-0.0000815,-0.0000101,-0.0000816,0.412055,0.,-0.0000207,
 0.,0.1521762,0.2897886,-0.1380996,0.000011,-0.2585739,-0.1812465,-0.00
 00152,0.0000109,-0.0000019,0.0676447,0.2003269,-0.0215214,0.0000028,-0
 .0160387,0.1528332,-0.000001,0.000008,-0.0000017,0.1437458,-0.0631963,
 0.2491104,-0.0000082,0.3284703,0.1747411,0.0000133,-0.0000031,0.000011
 6,0.0601197,0.1457601,0.0274764,-0.0000005,0.0152123,0.1476719,0.00000
 11,-0.0000054,-0.0000053,0.1524017,-0.0630273,-0.24918,-0.0000082,-0.3
 285399,0.174572,-0.0000133,-0.0000031,-0.0000116,0.0601197,0.1457725,-
 0.027477,-0.0000005,-0.0152128,0.1476595,-0.0000011,-0.0000054,0.00000
 53,0.1524017,0.2896725,0.1382373,0.000011,0.2587117,-0.1811303,0.00001
 52,0.0000109,0.0000019,0.0676447,0.2003159,0.0215353,0.0000028,0.01605
 26,0.1528441,0.000001,0.000008,0.0000017,0.1437458\Polar=57.0893069,0.
 0006416,52.7042124,0.0013536,0.0000002,28.7203679\PG=C02 [C2(C1),X(C4H
 4)]\NImag=0\\0.50139739,0.00001839,0.37566491,0.00002290,0.,0.06205124
 ,-0.22770530,-0.08443956,-0.00000955,0.75705215,-0.13598014,-0.1265580
 9,-0.00000708,-0.07238103,0.50249368,-0.00000937,-0.00000501,-0.051367
 51,0.00003468,-0.00000670,0.11787444,-0.01206158,0.00648015,-0.0000007
 8,-0.32578021,0.09152212,-0.00001569,0.33570560,-0.01725844,0.01073333
 ,-0.00000094,0.09013887,-0.08541874,0.00000525,-0.09438954,0.08095922,
 -0.00000081,0.00000037,0.00407422,-0.00001520,0.00000502,-0.03647834,0
 .00001697,-0.00000541,0.02026247,-0.01125414,-0.03079867,-0.00000096,-
 0.09611943,0.06537081,-0.00000236,0.00253337,0.02461917,-0.00000074,0.
 61244515,-0.01815081,-0.06689337,-0.00000040,0.05392497,-0.25815293,0.
 00000588,-0.00161154,0.00012067,-0.00000015,0.11579379,0.67549657,-0.0
 0000059,-0.00000116,0.01184842,-0.00000351,0.00000619,-0.05540017,-0.0
 0000010,0.00000125,0.00655122,0.00001791,-0.00000073,0.11846260,0.0003
 6259,0.00357722,-0.00000015,0.01133396,0.01232172,0.00000005,0.0000776
 1,-0.00078179,0.00000008,-0.15943170,-0.13942307,-0.00000339,0.1588520
 6,0.00136284,-0.00515459,0.00000019,-0.01539096,-0.01159454,-0.0000006
 3,0.00030576,0.00059433,-0.00000001,-0.14060168,-0.25223347,-0.0000036
 3,0.14823939,0.25690813,-0.00000068,0.00000055,0.00441924,0.00000057,0
 .00000080,0.00578810,0.00000008,-0.00000005,-0.00134493,-0.00000383,-0
 .00000423,-0.03800581,0.00000416,0.00000390,0.02068527,-0.01126847,0.0
 3081495,-0.00000096,-0.04428718,0.01764115,-0.00000227,0.00167630,0.00
 227291,-0.00000007,-0.29993202,0.01024408,-0.00000707,-0.00564347,0.00
 415215,-0.00000061,0.61251293,0.01816710,-0.06687903,0.00000040,0.0433
 6156,-0.02299899,0.00000161,-0.00006622,-0.00630816,0.00000061,-0.0103
 0903,-0.07799015,-0.00000126,-0.02252610,0.00897294,-0.00000058,-0.115
 81222,0.67542879,-0.00000059,0.00000116,0.01184842,-0.00000254,0.00000
 040,0.00296741,-0.00000019,0.00000022,0.00493791,-0.00000707,0.0000012
 6,-0.05954469,-0.00000052,0.00000005,0.00818312,0.00001791,0.00000074,
 0.11846260,0.00036403,-0.00357561,-0.00000015,-0.00619389,0.00078195,-
 0.00000030,0.00021950,0.00102314,0.00000001,-0.00564885,0.02252183,-0.
 00000052,0.00042350,-0.00040008,0.00000006,-0.15951366,0.13945021,-0.0
 0000339,0.15893884,-0.00136123,-0.00515603,-0.00000019,-0.00233429,0.0
 0191350,-0.00000013,-0.00000076,0.00053421,-0.00000004,-0.00415643,0.0
 0897832,-0.00000005,0.00040019,0.00005935,0.00000003,0.14062882,-0.252
 15152,0.00000363,-0.14826806,0.25682135,-0.00000068,-0.00000055,0.0044
 1924,0.00000020,0.00000045,0.00294079,0.00000005,-0.00000003,-0.001239
 60,-0.00000061,0.00000058,0.00818312,0.00000006,-0.00000003,-0.0014261
 8,-0.00000383,0.00000423,-0.03800581,0.00000416,-0.00000390,0.02068527
 ,-0.22776980,0.08440995,-0.00000956,-0.06612090,0.01804235,-0.00000440
 ,-0.00217690,-0.00518288,-0.00000024,-0.04426933,-0.04336778,-0.000002
 54,-0.00619434,0.00233191,0.00000020,-0.09608453,-0.05387754,-0.000003
 50,0.01133306,0.01539767,0.00000057,0.75700976,0.13595051,-0.12649360,
 0.00000708,-0.01806243,0.00247576,-0.00000053,-0.00268108,-0.00216195,
 -0.00000039,-0.01764738,-0.02301684,-0.00000040,-0.00078432,0.00191395
 ,-0.00000045,-0.06532338,-0.25818782,-0.00000619,-0.01231501,-0.011593
 64,-0.00000080,0.07245552,0.50253607,-0.00000937,0.00000501,-0.0513675
 0,-0.00000440,0.00000053,0.00948514,-0.00000034,-0.00000027,0.00419013
 ,-0.00000227,-0.00000161,0.00296741,-0.00000030,0.00000013,0.00294079,
 -0.00000236,-0.00000589,-0.05540017,0.00000005,0.00000063,0.00578810,0
 .00003468,0.00000671,0.11787444,-0.01206473,-0.00648682,-0.00000078,-0
 .00217920,0.00268107,-0.00000034,-0.00019369,-0.00044143,0.00000002,0.
 00167695,0.00006855,-0.00000019,0.00021979,0.00000067,0.00000005,0.002
 54010,0.00161224,-0.00000010,0.00007747,-0.00030591,0.00000008,-0.3257
 2702,-0.09159245,-0.00001569,0.33565033,0.01725177,0.01073648,0.000000
 94,0.00518288,-0.00215965,0.00000027,0.00044110,0.00094710,0.,-0.00227
 057,-0.00630880,-0.00000022,-0.00102323,0.00053391,0.00000003,-0.02461
 846,0.00011394,-0.00000125,0.00078163,0.00059447,0.00000005,-0.0902091
 9,-0.08547193,-0.00000525,0.09446407,0.08101449,-0.00000081,-0.0000003
 7,0.00407422,-0.00000024,0.00000039,0.00419013,0.00000002,0.,-0.000953
 07,-0.00000007,-0.00000061,0.00493791,0.00000001,0.00000004,-0.0012396
 0,-0.00000074,0.00000015,0.00655122,0.00000008,0.00000001,-0.00134493,
 -0.00001520,-0.00000502,-0.03647834,0.00001697,0.00000541,0.02026247\\
 0.,-0.00004367,0.,-0.00008926,0.00009135,0.00000177,0.00005850,-0.0000
 4802,-0.00000007,0.00002094,-0.00004020,-0.00000286,0.00000820,0.00001
 870,0.00000010,-0.00002093,-0.00004021,0.00000286,-0.00000821,0.000018
 70,-0.00000010,0.00008923,0.00009138,-0.00000177,-0.00005849,-0.000048
 04,0.00000007\\\@


 A HARD FALL SHOULD MEAN A HIGH BOUNCE 
 IF ONE IS MADE OF THE RIGHT MATERIAL.

                -- THE CHEMIST ANALYST, MARCH 1950
 Job cpu time:       0 days  1 hours  7 minutes 46.2 seconds.
 File lengths (MBytes):  RWF=     61 Int=      0 D2E=      0 Chk=      5 Scr=      1
 Normal termination of Gaussian 09 at Wed Jul 20 22:35:07 2016.
