 Entering Gaussian System, Link 0=/home/proyectos/fulerenos/M3C-v2.0/M3C-deps_CCC/g09-AM64L-G09RevC.01/g09
 Initial command:
 /home/proyectos/fulerenos/M3C-v2.0/M3C-deps_CCC/g09-AM64L-G09RevC.01/l1.exe "/scratch/naguirre/gaussian/Gau-19470.inp" -scrdir="/scratch/naguirre/gaussian/"
 Entering Link 1 = /home/proyectos/fulerenos/M3C-v2.0/M3C-deps_CCC/g09-AM64L-G09RevC.01/l1.exe PID=     19477.
  
 Copyright (c) 1988,1990,1992,1993,1995,1998,2003,2009,2015,
            Gaussian, Inc.  All Rights Reserved.
  
 This is part of the Gaussian(R) 09 program.  It is based on
 the Gaussian(R) 03 system (copyright 2003, Gaussian, Inc.),
 the Gaussian(R) 98 system (copyright 1998, Gaussian, Inc.),
 the Gaussian(R) 94 system (copyright 1995, Gaussian, Inc.),
 the Gaussian 92(TM) system (copyright 1992, Gaussian, Inc.),
 the Gaussian 90(TM) system (copyright 1990, Gaussian, Inc.),
 the Gaussian 88(TM) system (copyright 1988, Gaussian, Inc.),
 the Gaussian 86(TM) system (copyright 1986, Carnegie Mellon
 University), and the Gaussian 82(TM) system (copyright 1983,
 Carnegie Mellon University). Gaussian is a federally registered
 trademark of Gaussian, Inc.
  
 This software contains proprietary and confidential information,
 including trade secrets, belonging to Gaussian, Inc.
  
 This software is provided under written license and may be
 used, copied, transmitted, or stored only in accord with that
 written license.
  
 The following legend is applicable only to US Government
 contracts under FAR:
  
                    RESTRICTED RIGHTS LEGEND
  
 Use, reproduction and disclosure by the US Government is
 subject to restrictions as set forth in subparagraphs (a)
 and (c) of the Commercial Computer Software - Restricted
 Rights clause in FAR 52.227-19.
  
 Gaussian, Inc.
 340 Quinnipiac St., Bldg. 40, Wallingford CT 06492
  
  
 ---------------------------------------------------------------
 Warning -- This program may not be used in any manner that
 competes with the business of Gaussian, Inc. or will provide
 assistance to any competitor of Gaussian, Inc.  The licensee
 of this program is prohibited from giving any competitor of
 Gaussian, Inc. access to this program.  By using this program,
 the user acknowledges that Gaussian, Inc. is engaged in the
 business of creating and licensing software in the field of
 computational chemistry and represents and warrants to the
 licensee that it is not a competitor of Gaussian, Inc. and that
 it will not use this program in any manner prohibited above.
 ---------------------------------------------------------------
  

 Cite this work as:
 Gaussian 09, Revision E.01,
 M. J. Frisch, G. W. Trucks, H. B. Schlegel, G. E. Scuseria, 
 M. A. Robb, J. R. Cheeseman, G. Scalmani, V. Barone, B. Mennucci, 
 G. A. Petersson, H. Nakatsuji, M. Caricato, X. Li, H. P. Hratchian, 
 A. F. Izmaylov, J. Bloino, G. Zheng, J. L. Sonnenberg, M. Hada, 
 M. Ehara, K. Toyota, R. Fukuda, J. Hasegawa, M. Ishida, T. Nakajima, 
 Y. Honda, O. Kitao, H. Nakai, T. Vreven, J. A. Montgomery, Jr., 
 J. E. Peralta, F. Ogliaro, M. Bearpark, J. J. Heyd, E. Brothers, 
 K. N. Kudin, V. N. Staroverov, T. Keith, R. Kobayashi, J. Normand, 
 K. Raghavachari, A. Rendell, J. C. Burant, S. S. Iyengar, J. Tomasi, 
 M. Cossi, N. Rega, J. M. Millam, M. Klene, J. E. Knox, J. B. Cross, 
 V. Bakken, C. Adamo, J. Jaramillo, R. Gomperts, R. E. Stratmann, 
 O. Yazyev, A. J. Austin, R. Cammi, C. Pomelli, J. W. Ochterski, 
 R. L. Martin, K. Morokuma, V. G. Zakrzewski, G. A. Voth, 
 P. Salvador, J. J. Dannenberg, S. Dapprich, A. D. Daniels, 
 O. Farkas, J. B. Foresman, J. V. Ortiz, J. Cioslowski, 
 and D. J. Fox, Gaussian, Inc., Wallingford CT, 2013.
 
 ******************************************
 Gaussian 09:  EM64L-G09RevE.01 30-Nov-2015
                31-Jan-2019 
 ******************************************
 %NProcShared=4
 Will use up to    4 processors via shared memory.
 ------------------------------------------------------
 #p b3lyp/6-311++G(3df,2p) freq IOp(2/17=3) IOp(2/18=3)
 ------------------------------------------------------
 1/10=4,30=1,38=1/1,3;
 2/12=2,17=3,18=3,40=1/2;
 3/5=4,6=6,7=1216,11=2,16=1,25=1,30=1,71=2,74=-5,140=1/1,2,3;
 4//1;
 5/5=2,38=5,98=1/2;
 8/6=4,10=90,11=11/1;
 11/6=1,8=1,9=11,15=111,16=1/1,2,10;
 10/6=1/2;
 6/7=2,8=2,9=2,10=2,18=1,28=1/1;
 7/8=1,10=1,25=1/1,2,3,16;
 1/10=4,30=1/3;
 99//99;
 Leave Link    1 at Thu Jan 31 06:27:40 2019, MaxMem=           0 cpu:         0.2
 (Enter /home/proyectos/fulerenos/M3C-v2.0/M3C-deps_CCC/g09-AM64L-G09RevC.01/l101.exe)
 ---------
 b3lyp opt
 ---------
 Symbolic Z-matrix:
 Charge =  0 Multiplicity = 1
 C                     0.23661  -1.0665    0.00009 
 H                     0.12899  -1.67258  -0.89672 
 H                     0.12898  -1.67243   0.89701 
 C                    -0.69764   0.23118  -0.00002 
 C                    -1.98099   0.08794  -0.00001 
 C                     1.35187  -0.03914   0.00001 
 H                     2.42494  -0.15595   0.00002 
 C                     0.5319    1.0214   -0.00008 
 H                     0.66666   2.09169  -0.00017 
 
 NAtoms=      9 NQM=        9 NQMF=       0 NMMI=      0 NMMIF=      0
                NMic=       0 NMicF=      0.
                    Isotopes and Nuclear Properties:
 (Nuclear quadrupole moments (NQMom) in fm**2, nuclear magnetic moments (NMagM)
  in nuclear magnetons)

  Atom         1           2           3           4           5           6           7           8           9
 IAtWgt=          12           1           1          12          12          12           1          12           1
 AtmWgt=  12.0000000   1.0078250   1.0078250  12.0000000  12.0000000  12.0000000   1.0078250  12.0000000   1.0078250
 NucSpn=           0           1           1           0           0           0           1           0           1
 AtZEff=   0.0000000   0.0000000   0.0000000   0.0000000   0.0000000   0.0000000   0.0000000   0.0000000   0.0000000
 NQMom=    0.0000000   0.0000000   0.0000000   0.0000000   0.0000000   0.0000000   0.0000000   0.0000000   0.0000000
 NMagM=    0.0000000   2.7928460   2.7928460   0.0000000   0.0000000   0.0000000   2.7928460   0.0000000   2.7928460
 AtZNuc=   6.0000000   1.0000000   1.0000000   6.0000000   6.0000000   6.0000000   1.0000000   6.0000000   1.0000000
 Leave Link  101 at Thu Jan 31 06:27:40 2019, MaxMem=    33554432 cpu:         0.4
 (Enter /home/proyectos/fulerenos/M3C-v2.0/M3C-deps_CCC/g09-AM64L-G09RevC.01/l103.exe)

 GradGradGradGradGradGradGradGradGradGradGradGradGradGradGradGradGradGrad
 Berny optimization.
 Initialization pass.
 Trust Radius=3.00D-01 FncErr=1.00D-07 GrdErr=1.00D-07
 Number of steps in this run=      2 maximum allowed number of steps=      2.
 GradGradGradGradGradGradGradGradGradGradGradGradGradGradGradGradGradGrad

 Leave Link  103 at Thu Jan 31 06:27:40 2019, MaxMem=    33554432 cpu:         0.1
 (Enter /home/proyectos/fulerenos/M3C-v2.0/M3C-deps_CCC/g09-AM64L-G09RevC.01/l202.exe)
                          Input orientation:                          
 ---------------------------------------------------------------------
 Center     Atomic      Atomic             Coordinates (Angstroms)
 Number     Number       Type             X           Y           Z
 ---------------------------------------------------------------------
      1          6           0        0.236605   -1.066499    0.000093
      2          1           0        0.128985   -1.672584   -0.896724
      3          1           0        0.128979   -1.672432    0.897013
      4          6           0       -0.697638    0.231179   -0.000020
      5          6           0       -1.980988    0.087944   -0.000012
      6          6           0        1.351866   -0.039142    0.000010
      7          1           0        2.424935   -0.155951    0.000024
      8          6           0        0.531895    1.021398   -0.000082
      9          1           0        0.666663    2.091686   -0.000173
 ---------------------------------------------------------------------
                    Distance matrix (angstroms):
                    1          2          3          4          5
     1  C    0.000000
     2  H    1.087751   0.000000
     3  H    1.087751   1.793737   0.000000
     4  C    1.598993   2.260906   2.260906   0.000000
     5  C    2.500091   2.890595   2.890595   1.291319   0.000000
     6  C    1.516334   2.228834   2.228834   2.067254   3.335276
     7  H    2.370208   2.894083   2.894083   3.146479   4.412668
     8  C    2.108675   2.867724   2.867724   1.461574   2.680656
     9  H    3.187332   3.906742   3.906742   2.307120   3.320397
                    6          7          8          9
     6  C    0.000000
     7  H    1.079408   0.000000
     8  C    1.340559   2.229294   0.000000
     9  H    2.238288   2.853663   1.078739   0.000000
 Stoichiometry    C5H4
 Framework group  CS[SG(C5H2),X(H2)]
 Deg. of freedom    14
 Full point group                 CS      NOp   2
 Largest Abelian subgroup         CS      NOp   2
 Largest concise Abelian subgroup CS      NOp   2
                         Standard orientation:                         
 ---------------------------------------------------------------------
 Center     Atomic      Atomic             Coordinates (Angstroms)
 Number     Number       Type             X           Y           Z
 ---------------------------------------------------------------------
      1          6           0        1.059204    0.267372    0.000000
      2          1           0        1.668150    0.177339   -0.896726
      3          1           0        1.668150    0.177339    0.896726
      4          6           0       -0.210891   -0.704037    0.000000
      5          6           0       -0.030574   -1.982703    0.000000
      6          6           0        0.000000    1.352432    0.000000
      7          1           0        0.085703    2.428433    0.000000
      8          6           0       -1.036364    0.502111    0.000000
      9          1           0       -2.110104    0.605846    0.000000
 ---------------------------------------------------------------------
 Rotational constants (GHZ):     13.1000826      5.8229537      4.1381262
 Leave Link  202 at Thu Jan 31 06:27:41 2019, MaxMem=    33554432 cpu:         0.0
 (Enter /home/proyectos/fulerenos/M3C-v2.0/M3C-deps_CCC/g09-AM64L-G09RevC.01/l301.exe)
 Standard basis: 6-311++G(3df,2p) (5D, 7F)
 Ernie: Thresh=  0.10000D-02 Tol=  0.10000D-05 Strict=F.
 There are   181 symmetry adapted cartesian basis functions of A'  symmetry.
 There are    84 symmetry adapted cartesian basis functions of A"  symmetry.
 There are   156 symmetry adapted basis functions of A'  symmetry.
 There are    79 symmetry adapted basis functions of A"  symmetry.
   235 basis functions,   338 primitive gaussians,   265 cartesian basis functions
    17 alpha electrons       17 beta electrons
       nuclear repulsion energy       137.3114497227 Hartrees.
 IExCor=  402 DFT=T Ex+Corr=B3LYP ExCW=0 ScaHFX=  0.200000
 ScaDFX=  0.800000  0.720000  1.000000  0.810000 ScalE2=  1.000000  1.000000
 IRadAn=      0 IRanWt=     -1 IRanGd=            0 ICorTp=0 IEmpDi=  4
 NAtoms=    9 NActive=    9 NUniq=    8 SFac= 1.27D+00 NAtFMM=   60 NAOKFM=F Big=F
 Integral buffers will be    131072 words long.
 Raffenetti 2 integral format.
 Two-electron integral symmetry is turned on.
 Leave Link  301 at Thu Jan 31 06:27:41 2019, MaxMem=    33554432 cpu:         0.3
 (Enter /home/proyectos/fulerenos/M3C-v2.0/M3C-deps_CCC/g09-AM64L-G09RevC.01/l302.exe)
 NPDir=0 NMtPBC=     1 NCelOv=     1 NCel=       1 NClECP=     1 NCelD=      1
         NCelK=      1 NCelE2=     1 NClLst=     1 CellRange=     0.0.
 One-electron integrals computed using PRISM.
 One-electron integral symmetry used in STVInt
 NBasis=   235 RedAO= T EigKep=  5.07D-06  NBF=   156    79
 NBsUse=   235 1.00D-06 EigRej= -1.00D+00 NBFU=   156    79
 Precomputing XC quadrature grid using
 IXCGrd= 4 IRadAn=           0 IRanWt=          -1 IRanGd=           0 AccXCQ= 0.00D+00.
 Generated NRdTot=       0 NPtTot=           0 NUsed=           0 NTot=          32
 NSgBfM=   265   265   265   265   265 MxSgAt=     9 MxSgA2=     9.
 Leave Link  302 at Thu Jan 31 06:27:41 2019, MaxMem=    33554432 cpu:         1.6
 (Enter /home/proyectos/fulerenos/M3C-v2.0/M3C-deps_CCC/g09-AM64L-G09RevC.01/l303.exe)
 DipDrv:  MaxL=1.
 Leave Link  303 at Thu Jan 31 06:27:41 2019, MaxMem=    33554432 cpu:         0.2
 (Enter /home/proyectos/fulerenos/M3C-v2.0/M3C-deps_CCC/g09-AM64L-G09RevC.01/l401.exe)
 ExpMin= 3.60D-02 ExpMax= 4.56D+03 ExpMxC= 6.82D+02 IAcc=3 IRadAn=         5 AccDes= 0.00D+00
 Harris functional with IExCor=  402 and IRadAn=       5 diagonalized for initial guess.
 HarFok:  IExCor=  402 AccDes= 0.00D+00 IRadAn=         5 IDoV= 1 UseB2=F ITyADJ=14
 ICtDFT=  3500011 ScaDFX=  1.000000  1.000000  1.000000  1.000000
 FoFCou: FMM=F IPFlag=           0 FMFlag=      100000 FMFlg1=           0
         NFxFlg=           0 DoJE=T BraDBF=F KetDBF=T FulRan=T
         wScrn=  0.000000 ICntrl=     500 IOpCl=  0 I1Cent=   200000004 NGrid=           0
         NMat0=    1 NMatS0=      1 NMatT0=    0 NMatD0=    1 NMtDS0=    0 NMtDT0=    0
 Petite list used in FoFCou.
 Harris En= -192.811194596120    
 JPrj=0 DoOrth=F DoCkMO=F.
 Initial guess orbital symmetries:
       Occupied  (A') (A') (A') (A') (A') (A') (A') (A') (A') (A')
                 (A") (A') (A') (A') (A") (A') (A")
       Virtual   (A') (A") (A") (A') (A') (A') (A") (A') (A') (A')
                 (A') (A") (A") (A') (A') (A') (A') (A') (A') (A")
                 (A') (A") (A') (A") (A') (A') (A') (A') (A") (A')
                 (A') (A') (A') (A") (A') (A') (A") (A') (A') (A')
                 (A') (A') (A") (A') (A") (A') (A") (A") (A') (A")
                 (A') (A') (A") (A') (A') (A") (A") (A') (A') (A')
                 (A") (A') (A') (A") (A') (A') (A") (A') (A') (A")
                 (A') (A") (A") (A') (A') (A') (A') (A') (A') (A")
                 (A') (A') (A') (A') (A") (A') (A") (A") (A') (A")
                 (A") (A') (A') (A') (A') (A") (A') (A') (A') (A')
                 (A") (A") (A') (A') (A") (A") (A') (A') (A') (A")
                 (A') (A") (A') (A") (A') (A') (A') (A") (A') (A')
                 (A") (A') (A') (A') (A") (A") (A") (A') (A') (A")
                 (A') (A') (A") (A") (A') (A') (A") (A") (A') (A")
                 (A') (A') (A") (A') (A") (A') (A") (A') (A') (A')
                 (A') (A") (A') (A") (A') (A') (A') (A') (A") (A")
                 (A') (A') (A') (A') (A") (A') (A") (A') (A') (A')
                 (A") (A") (A') (A') (A") (A') (A") (A') (A") (A')
                 (A') (A") (A') (A') (A') (A") (A') (A') (A") (A")
                 (A') (A") (A') (A") (A") (A') (A") (A') (A') (A")
                 (A') (A') (A") (A") (A') (A') (A') (A') (A") (A')
                 (A') (A') (A') (A') (A') (A') (A') (A')
 The electronic state of the initial guess is 1-A'.
 Leave Link  401 at Thu Jan 31 06:27:43 2019, MaxMem=    33554432 cpu:         7.9
 (Enter /home/proyectos/fulerenos/M3C-v2.0/M3C-deps_CCC/g09-AM64L-G09RevC.01/l502.exe)
 Closed shell SCF:
 Using DIIS extrapolation, IDIIS=  1040.
 Integral symmetry usage will be decided dynamically.
 IVT=      233035 IEndB=      233035 NGot=    33554432 MDV=    33408528
 LenX=    33408528 LenY=    33337862
 Requested convergence on RMS density matrix=1.00D-08 within 128 cycles.
 Requested convergence on MAX density matrix=1.00D-06.
 Requested convergence on             energy=1.00D-06.
 No special actions if energy rises.
 Fock matrices will be formed incrementally for  20 cycles.

 Cycle   1  Pass 1  IDiag  1:
 FoFJK:  IHMeth= 1 ICntrl=       0 DoSepK=F KAlg= 0 I1Cent=   0 FoldK=F
 IRaf= 990000000 NMat=   1 IRICut=       1 DoRegI=T DoRafI=F ISym2E= 1.
 FoFCou: FMM=F IPFlag=           0 FMFlag=      100000 FMFlg1=           0
         NFxFlg=           0 DoJE=F BraDBF=F KetDBF=F FulRan=T
         wScrn=  0.000000 ICntrl=       0 IOpCl=  0 I1Cent=           0 NGrid=           0
         NMat0=    1 NMatS0=      1 NMatT0=    0 NMatD0=    1 NMtDS0=    0 NMtDT0=    0
 Petite list used in FoFCou.
 E= -192.685442664732    
 DIIS: error= 2.01D-02 at cycle   1 NSaved=   1.
 NSaved= 1 IEnMin= 1 EnMin= -192.685442664732     IErMin= 1 ErrMin= 2.01D-02
 ErrMax= 2.01D-02  0.00D+00 EMaxC= 1.00D-01 BMatC= 1.13D-01 BMatP= 1.13D-01
 IDIUse=3 WtCom= 7.99D-01 WtEn= 2.01D-01
 Coeff-Com:  0.100D+01
 Coeff-En:   0.100D+01
 Coeff:      0.100D+01
 Gap=     0.132 Goal=   None    Shift=    0.000
 GapD=    0.132 DampG=1.000 DampE=0.500 DampFc=0.5000 IDamp=-1.
 Damping current iteration by 5.00D-01
 RMSDP=7.18D-03 MaxDP=5.50D-01              OVMax= 1.88D-01

 Cycle   2  Pass 1  IDiag  1:
 RMSU=  2.75D-03    CP:  8.79D-01
 E= -192.723157016847     Delta-E=       -0.037714352115 Rises=F Damp=T
 DIIS: error= 1.13D-02 at cycle   2 NSaved=   2.
 NSaved= 2 IEnMin= 2 EnMin= -192.723157016847     IErMin= 2 ErrMin= 1.13D-02
 ErrMax= 1.13D-02  0.00D+00 EMaxC= 1.00D-01 BMatC= 1.33D-02 BMatP= 1.13D-01
 IDIUse=3 WtCom= 8.87D-01 WtEn= 1.13D-01
 Coeff-Com:  0.106D+00 0.894D+00
 Coeff-En:   0.239D+00 0.761D+00
 Coeff:      0.121D+00 0.879D+00
 Gap=     0.170 Goal=   None    Shift=    0.000
 RMSDP=2.81D-03 MaxDP=2.82D-01 DE=-3.77D-02 OVMax= 1.85D-01

 Cycle   3  Pass 1  IDiag  1:
 RMSU=  2.21D-03    CP:  8.24D-01  1.50D+00
 E= -192.769653785403     Delta-E=       -0.046496768556 Rises=F Damp=F
 DIIS: error= 1.58D-02 at cycle   3 NSaved=   3.
 NSaved= 3 IEnMin= 3 EnMin= -192.769653785403     IErMin= 2 ErrMin= 1.13D-02
 ErrMax= 1.58D-02  0.00D+00 EMaxC= 1.00D-01 BMatC= 2.03D-02 BMatP= 1.33D-02
 IDIUse=2 WtCom= 0.00D+00 WtEn= 1.00D+00
 Coeff-En:   0.000D+00 0.000D+00 0.100D+01
 Coeff:      0.000D+00 0.000D+00 0.100D+01
 Gap=     0.121 Goal=   None    Shift=    0.000
 RMSDP=3.21D-03 MaxDP=1.75D-01 DE=-4.65D-02 OVMax= 1.74D-01

 Cycle   4  Pass 1  IDiag  1:
 RMSU=  1.65D-03    CP:  8.41D-01  1.07D+00 -1.14D-01
 E= -192.649996184015     Delta-E=        0.119657601387 Rises=F Damp=F
 DIIS: error= 3.79D-02 at cycle   4 NSaved=   4.
 NSaved= 4 IEnMin= 3 EnMin= -192.769653785403     IErMin= 2 ErrMin= 1.13D-02
 ErrMax= 3.79D-02  0.00D+00 EMaxC= 1.00D-01 BMatC= 1.34D-01 BMatP= 1.33D-02
 IDIUse=2 WtCom= 0.00D+00 WtEn= 1.00D+00
 Coeff-En:   0.000D+00 0.000D+00 0.802D+00 0.198D+00
 Coeff:      0.000D+00 0.000D+00 0.802D+00 0.198D+00
 Gap=     0.147 Goal=   None    Shift=    0.000
 RMSDP=1.56D-03 MaxDP=8.71D-02 DE= 1.20D-01 OVMax= 1.08D-01

 Cycle   5  Pass 1  IDiag  1:
 RMSU=  2.90D-04    CP:  8.36D-01  1.23D+00  4.22D-01  4.79D-01
 E= -192.781653032996     Delta-E=       -0.131656848980 Rises=F Damp=F
 DIIS: error= 1.10D-02 at cycle   5 NSaved=   5.
 NSaved= 5 IEnMin= 5 EnMin= -192.781653032996     IErMin= 5 ErrMin= 1.10D-02
 ErrMax= 1.10D-02  0.00D+00 EMaxC= 1.00D-01 BMatC= 1.03D-02 BMatP= 1.33D-02
 IDIUse=3 WtCom= 8.90D-01 WtEn= 1.10D-01
 Coeff-Com:  0.436D-02 0.559D-02 0.290D+00-0.115D+00 0.815D+00
 Coeff-En:   0.000D+00 0.000D+00 0.370D+00 0.000D+00 0.630D+00
 Coeff:      0.388D-02 0.498D-02 0.299D+00-0.103D+00 0.795D+00
 Gap=     0.156 Goal=   None    Shift=    0.000
 RMSDP=6.72D-04 MaxDP=4.27D-02 DE=-1.32D-01 OVMax= 4.79D-02

 Cycle   6  Pass 1  IDiag  1:
 RMSU=  1.06D-04    CP:  8.28D-01  1.31D+00  6.45D-01  2.64D-01  9.45D-01
 E= -192.792979250728     Delta-E=       -0.011326217733 Rises=F Damp=F
 DIIS: error= 3.10D-04 at cycle   6 NSaved=   6.
 NSaved= 6 IEnMin= 6 EnMin= -192.792979250728     IErMin= 6 ErrMin= 3.10D-04
 ErrMax= 3.10D-04  0.00D+00 EMaxC= 1.00D-01 BMatC= 1.84D-05 BMatP= 1.03D-02
 IDIUse=3 WtCom= 9.97D-01 WtEn= 3.10D-03
 Coeff-Com:  0.114D-02 0.991D-03 0.135D+00-0.647D-01 0.425D+00 0.502D+00
 Coeff-En:   0.000D+00 0.000D+00 0.000D+00 0.000D+00 0.000D+00 0.100D+01
 Coeff:      0.113D-02 0.988D-03 0.135D+00-0.645D-01 0.424D+00 0.504D+00
 Gap=     0.155 Goal=   None    Shift=    0.000
 RMSDP=3.30D-05 MaxDP=8.39D-04 DE=-1.13D-02 OVMax= 1.81D-03

 Cycle   7  Pass 1  IDiag  1:
 RMSU=  1.99D-05    CP:  8.29D-01  1.31D+00  6.44D-01  2.73D-01  9.76D-01
                    CP:  8.13D-01
 E= -192.792996083644     Delta-E=       -0.000016832915 Rises=F Damp=F
 DIIS: error= 1.21D-04 at cycle   7 NSaved=   7.
 NSaved= 7 IEnMin= 7 EnMin= -192.792996083644     IErMin= 7 ErrMin= 1.21D-04
 ErrMax= 1.21D-04  0.00D+00 EMaxC= 1.00D-01 BMatC= 1.76D-06 BMatP= 1.84D-05
 IDIUse=3 WtCom= 9.99D-01 WtEn= 1.21D-03
 Coeff-Com:  0.211D-03-0.859D-03 0.233D-01-0.128D-01 0.766D-01 0.234D+00
 Coeff-Com:  0.680D+00
 Coeff-En:   0.000D+00 0.000D+00 0.000D+00 0.000D+00 0.000D+00 0.491D-01
 Coeff-En:   0.951D+00
 Coeff:      0.210D-03-0.858D-03 0.232D-01-0.128D-01 0.765D-01 0.233D+00
 Coeff:      0.680D+00
 Gap=     0.155 Goal=   None    Shift=    0.000
 RMSDP=1.18D-05 MaxDP=5.40D-04 DE=-1.68D-05 OVMax= 5.82D-04

 Cycle   8  Pass 1  IDiag  1:
 RMSU=  6.18D-06    CP:  8.29D-01  1.31D+00  6.47D-01  2.71D-01  9.71D-01
                    CP:  8.42D-01  8.04D-01
 E= -192.792997735438     Delta-E=       -0.000001651794 Rises=F Damp=F
 DIIS: error= 4.29D-05 at cycle   8 NSaved=   8.
 NSaved= 8 IEnMin= 8 EnMin= -192.792997735438     IErMin= 8 ErrMin= 4.29D-05
 ErrMax= 4.29D-05  0.00D+00 EMaxC= 1.00D-01 BMatC= 2.49D-07 BMatP= 1.76D-06
 IDIUse=1 WtCom= 1.00D+00 WtEn= 0.00D+00
 Coeff-Com:  0.431D-05-0.353D-03 0.382D-02-0.343D-02 0.154D-01 0.111D+00
 Coeff-Com:  0.426D+00 0.448D+00
 Coeff:      0.431D-05-0.353D-03 0.382D-02-0.343D-02 0.154D-01 0.111D+00
 Coeff:      0.426D+00 0.448D+00
 Gap=     0.155 Goal=   None    Shift=    0.000
 RMSDP=2.82D-06 MaxDP=1.39D-04 DE=-1.65D-06 OVMax= 2.33D-04

 Cycle   9  Pass 1  IDiag  1:
 RMSU=  1.91D-06    CP:  8.29D-01  1.31D+00  6.47D-01  2.71D-01  9.71D-01
                    CP:  8.47D-01  8.38D-01  7.76D-01
 E= -192.792997982562     Delta-E=       -0.000000247124 Rises=F Damp=F
 DIIS: error= 6.36D-06 at cycle   9 NSaved=   9.
 NSaved= 9 IEnMin= 9 EnMin= -192.792997982562     IErMin= 9 ErrMin= 6.36D-06
 ErrMax= 6.36D-06  0.00D+00 EMaxC= 1.00D-01 BMatC= 4.00D-09 BMatP= 2.49D-07
 IDIUse=1 WtCom= 1.00D+00 WtEn= 0.00D+00
 Coeff-Com: -0.327D-04-0.388D-04-0.157D-02 0.403D-03-0.391D-02 0.992D-02
 Coeff-Com:  0.523D-01 0.126D+00 0.817D+00
 Coeff:     -0.327D-04-0.388D-04-0.157D-02 0.403D-03-0.391D-02 0.992D-02
 Coeff:      0.523D-01 0.126D+00 0.817D+00
 Gap=     0.155 Goal=   None    Shift=    0.000
 RMSDP=1.19D-06 MaxDP=8.72D-05 DE=-2.47D-07 OVMax= 5.15D-05

 Cycle  10  Pass 1  IDiag  1:
 RMSU=  6.55D-07    CP:  8.29D-01  1.31D+00  6.47D-01  2.71D-01  9.71D-01
                    CP:  8.55D-01  8.39D-01  7.95D-01  1.03D+00
 E= -192.792997987872     Delta-E=       -0.000000005311 Rises=F Damp=F
 DIIS: error= 1.56D-06 at cycle  10 NSaved=  10.
 NSaved=10 IEnMin=10 EnMin= -192.792997987872     IErMin=10 ErrMin= 1.56D-06
 ErrMax= 1.56D-06  0.00D+00 EMaxC= 1.00D-01 BMatC= 3.84D-10 BMatP= 4.00D-09
 IDIUse=1 WtCom= 1.00D+00 WtEn= 0.00D+00
 Coeff-Com: -0.185D-04 0.265D-04-0.431D-03 0.110D-03-0.909D-03-0.427D-03
 Coeff-Com: -0.283D-02 0.526D-03 0.189D+00 0.815D+00
 Coeff:     -0.185D-04 0.265D-04-0.431D-03 0.110D-03-0.909D-03-0.427D-03
 Coeff:     -0.283D-02 0.526D-03 0.189D+00 0.815D+00
 Gap=     0.155 Goal=   None    Shift=    0.000
 RMSDP=3.22D-07 MaxDP=2.07D-05 DE=-5.31D-09 OVMax= 8.35D-06

 Cycle  11  Pass 1  IDiag  1:
 RMSU=  2.17D-07    CP:  8.29D-01  1.31D+00  6.47D-01  2.71D-01  9.71D-01
                    CP:  8.55D-01  8.41D-01  8.22D-01  1.06D+00  9.38D-01
 E= -192.792997988286     Delta-E=       -0.000000000414 Rises=F Damp=F
 DIIS: error= 4.10D-07 at cycle  11 NSaved=  11.
 NSaved=11 IEnMin=11 EnMin= -192.792997988286     IErMin=11 ErrMin= 4.10D-07
 ErrMax= 4.10D-07  0.00D+00 EMaxC= 1.00D-01 BMatC= 4.43D-11 BMatP= 3.84D-10
 IDIUse=1 WtCom= 1.00D+00 WtEn= 0.00D+00
 Coeff-Com: -0.686D-05 0.200D-04-0.506D-04 0.678D-05-0.303D-04-0.101D-02
 Coeff-Com: -0.617D-02-0.152D-01-0.596D-02 0.323D+00 0.706D+00
 Coeff:     -0.686D-05 0.200D-04-0.506D-04 0.678D-05-0.303D-04-0.101D-02
 Coeff:     -0.617D-02-0.152D-01-0.596D-02 0.323D+00 0.706D+00
 Gap=     0.155 Goal=   None    Shift=    0.000
 RMSDP=7.74D-08 MaxDP=4.72D-06 DE=-4.14D-10 OVMax= 3.98D-06

 Cycle  12  Pass 1  IDiag  1:
 RMSU=  3.81D-08    CP:  8.29D-01  1.31D+00  6.47D-01  2.71D-01  9.71D-01
                    CP:  8.55D-01  8.41D-01  8.21D-01  1.08D+00  9.90D-01
                    CP:  8.82D-01
 E= -192.792997988332     Delta-E=       -0.000000000046 Rises=F Damp=F
 DIIS: error= 1.90D-07 at cycle  12 NSaved=  12.
 NSaved=12 IEnMin=12 EnMin= -192.792997988332     IErMin=12 ErrMin= 1.90D-07
 ErrMax= 1.90D-07  0.00D+00 EMaxC= 1.00D-01 BMatC= 6.05D-12 BMatP= 4.43D-11
 IDIUse=1 WtCom= 1.00D+00 WtEn= 0.00D+00
 Coeff-Com: -0.203D-05 0.792D-05 0.989D-05-0.739D-05 0.566D-04-0.346D-03
 Coeff-Com: -0.229D-02-0.734D-02-0.153D-01 0.882D-01 0.343D+00 0.594D+00
 Coeff:     -0.203D-05 0.792D-05 0.989D-05-0.739D-05 0.566D-04-0.346D-03
 Coeff:     -0.229D-02-0.734D-02-0.153D-01 0.882D-01 0.343D+00 0.594D+00
 Gap=     0.155 Goal=   None    Shift=    0.000
 RMSDP=2.55D-08 MaxDP=1.64D-06 DE=-4.55D-11 OVMax= 9.20D-07

 Cycle  13  Pass 1  IDiag  1:
 RMSU=  1.56D-08    CP:  8.29D-01  1.31D+00  6.47D-01  2.71D-01  9.71D-01
                    CP:  8.55D-01  8.41D-01  8.19D-01  1.08D+00  9.97D-01
                    CP:  9.06D-01  8.74D-01
 E= -192.792997988337     Delta-E=       -0.000000000006 Rises=F Damp=F
 DIIS: error= 3.82D-08 at cycle  13 NSaved=  13.
 NSaved=13 IEnMin=13 EnMin= -192.792997988337     IErMin=13 ErrMin= 3.82D-08
 ErrMax= 3.82D-08  0.00D+00 EMaxC= 1.00D-01 BMatC= 3.51D-13 BMatP= 6.05D-12
 IDIUse=1 WtCom= 1.00D+00 WtEn= 0.00D+00
 Coeff-Com:  0.143D-06 0.381D-06 0.997D-05-0.236D-05 0.187D-04-0.159D-04
 Coeff-Com: -0.123D-03-0.116D-02-0.559D-02-0.706D-02 0.532D-01 0.208D+00
 Coeff-Com:  0.752D+00
 Coeff:      0.143D-06 0.381D-06 0.997D-05-0.236D-05 0.187D-04-0.159D-04
 Coeff:     -0.123D-03-0.116D-02-0.559D-02-0.706D-02 0.532D-01 0.208D+00
 Coeff:      0.752D+00
 Gap=     0.155 Goal=   None    Shift=    0.000
 RMSDP=5.83D-09 MaxDP=4.22D-07 DE=-5.57D-12 OVMax= 2.16D-07

 SCF Done:  E(RB3LYP) =  -192.792997988     A.U. after   13 cycles
            NFock= 13  Conv=0.58D-08     -V/T= 2.0047
 KE= 1.918896962590D+02 PE=-7.212749031165D+02 EE= 1.992807591465D+02
 Leave Link  502 at Thu Jan 31 06:29:43 2019, MaxMem=    33554432 cpu:       480.1
 (Enter /home/proyectos/fulerenos/M3C-v2.0/M3C-deps_CCC/g09-AM64L-G09RevC.01/l801.exe)
 DoSCS=F DFT=T ScalE2(SS,OS)=  1.000000  1.000000
 Range of M.O.s used for correlation:     1   235
 NBasis=   235 NAE=    17 NBE=    17 NFC=     0 NFV=     0
 NROrb=    235 NOA=    17 NOB=    17 NVA=   218 NVB=   218

 **** Warning!!: The largest alpha MO coefficient is  0.18912382D+03

 Leave Link  801 at Thu Jan 31 06:29:43 2019, MaxMem=    33554432 cpu:         0.1
 (Enter /home/proyectos/fulerenos/M3C-v2.0/M3C-deps_CCC/g09-AM64L-G09RevC.01/l1101.exe)
 Using compressed storage, NAtomX=     9.
 Will process     10 centers per pass.
 Leave Link 1101 at Thu Jan 31 06:29:44 2019, MaxMem=    33554432 cpu:         1.7
 (Enter /home/proyectos/fulerenos/M3C-v2.0/M3C-deps_CCC/g09-AM64L-G09RevC.01/l1102.exe)
 Symmetrizing basis deriv contribution to polar:
 IMax=3 JMax=2 DiffMx= 0.00D+00
 Leave Link 1102 at Thu Jan 31 06:29:44 2019, MaxMem=    33554432 cpu:         0.3
 (Enter /home/proyectos/fulerenos/M3C-v2.0/M3C-deps_CCC/g09-AM64L-G09RevC.01/l1110.exe)
 Forming Gx(P) for the SCF density, NAtomX=     9.
 Integral derivatives from FoFJK, PRISM(SPDF).
 Do as many integral derivatives as possible in FoFJK.
 G2DrvN: MDV=      33554256.
 G2DrvN: will do    10 centers at a time, making    1 passes.
 Calling FoFCou, ICntrl=  3107 FMM=F I1Cent=   0 AccDes= 0.00D+00.
 FoFJK:  IHMeth= 1 ICntrl=    3107 DoSepK=F KAlg= 0 I1Cent=   0 FoldK=F
 IRaf=         0 NMat=   1 IRICut=       1 DoRegI=T DoRafI=F ISym2E= 1.
 FoFCou: FMM=F IPFlag=           0 FMFlag=      100000 FMFlg1=           0
         NFxFlg=           0 DoJE=F BraDBF=F KetDBF=F FulRan=T
         wScrn=  0.000000 ICntrl=    3107 IOpCl=  0 I1Cent=           0 NGrid=           0
         NMat0=    1 NMatS0=      1 NMatT0=    0 NMatD0=    1 NMtDS0=    0 NMtDT0=    0
 Petite list used in FoFCou.
 End of G2Drv F.D. properties file   721 does not exist.
 End of G2Drv F.D. properties file   722 does not exist.
 End of G2Drv F.D. properties file   788 does not exist.
 Leave Link 1110 at Thu Jan 31 06:31:05 2019, MaxMem=    33554432 cpu:       321.2
 (Enter /home/proyectos/fulerenos/M3C-v2.0/M3C-deps_CCC/g09-AM64L-G09RevC.01/l1002.exe)
 Minotr:  Closed shell wavefunction.
          IDoAtm=111111111
          Direct CPHF calculation.
          Differentiating once with respect to electric field.
                with respect to dipole field.
          Differentiating once with respect to nuclear coordinates.
          Using symmetry in CPHF.
          Requested convergence is 1.0D-08 RMS, and 1.0D-07 maximum.
          Secondary convergence is 1.0D-12 RMS, and 1.0D-12 maximum.
          NewPWx=T KeepS1=F KeepF1=F KeepIn=T MapXYZ=F SortEE=F KeepMc=T.
          MDV=      33554103 using IRadAn=       2.
 Generate precomputed XC quadrature information.
          Solving linear equations simultaneously, MaxMat=       0.
 FoFJK:  IHMeth= 1 ICntrl=       0 DoSepK=F KAlg= 0 I1Cent=   0 FoldK=F
 IRaf= 990000000 NMat=  27 IRICut=      67 DoRegI=T DoRafI=T ISym2E= 2.
 FoFCou: FMM=F IPFlag=           0 FMFlag=      100000 FMFlg1=           0
         NFxFlg=           0 DoJE=F BraDBF=F KetDBF=F FulRan=T
         wScrn=  0.000000 ICntrl=       0 IOpCl=  0 I1Cent=           0 NGrid=           0
         NMat0=   27 NMatS0=     27 NMatT0=    0 NMatD0=   27 NMtDS0=    0 NMtDT0=    0
 Integrals replicated using symmetry in FoFCou.
          There are    27 degrees of freedom in the 1st order CPHF.  IDoFFX=4 NUNeed=    27.
     27 vectors produced by pass  0 Test12= 1.37D-14 3.70D-09 XBig12= 1.10D+02 7.63D+00.
 AX will form    27 AO Fock derivatives at one time.
     27 vectors produced by pass  1 Test12= 1.37D-14 3.70D-09 XBig12= 3.74D+01 1.94D+00.
     27 vectors produced by pass  2 Test12= 1.37D-14 3.70D-09 XBig12= 9.27D-01 2.06D-01.
     27 vectors produced by pass  3 Test12= 1.37D-14 3.70D-09 XBig12= 5.01D-03 1.14D-02.
     27 vectors produced by pass  4 Test12= 1.37D-14 3.70D-09 XBig12= 1.27D-05 4.66D-04.
     26 vectors produced by pass  5 Test12= 1.37D-14 3.70D-09 XBig12= 2.36D-08 2.51D-05.
      6 vectors produced by pass  6 Test12= 1.37D-14 3.70D-09 XBig12= 3.54D-11 8.95D-07.
      4 vectors produced by pass  7 Test12= 1.37D-14 3.70D-09 XBig12= 2.19D-13 1.27D-07.
      4 vectors produced by pass  8 Test12= 1.37D-14 3.70D-09 XBig12= 4.99D-14 6.30D-08.
      3 vectors produced by pass  9 Test12= 1.37D-14 3.70D-09 XBig12= 8.74D-16 6.95D-09.
      1 vectors produced by pass 10 Test12= 1.37D-14 3.70D-09 XBig12= 3.22D-16 3.81D-09.
 InvSVY:  IOpt=1 It=  1 EMax= 5.33D-15
 Solved reduced A of dimension   179 with    27 vectors.
 FullF1:  Do perturbations    1 to    27.
 Isotropic polarizability for W=    0.000000       57.73 Bohr**3.
 End of Minotr F.D. properties file   721 does not exist.
 End of Minotr F.D. properties file   722 does not exist.
 End of Minotr F.D. properties file   788 does not exist.
 Leave Link 1002 at Thu Jan 31 06:36:05 2019, MaxMem=    33554432 cpu:      1160.3
 (Enter /home/proyectos/fulerenos/M3C-v2.0/M3C-deps_CCC/g09-AM64L-G09RevC.01/l601.exe)
 Copying SCF densities to generalized density rwf, IOpCl= 0 IROHF=0.

 **********************************************************************

            Population analysis using the SCF density.

 **********************************************************************

 Orbital symmetries:
       Occupied  (A') (A') (A') (A') (A') (A') (A') (A') (A') (A')
                 (A") (A') (A') (A') (A") (A') (A")
       Virtual   (A') (A") (A') (A') (A') (A") (A') (A") (A') (A')
                 (A") (A') (A") (A') (A') (A') (A') (A') (A") (A')
                 (A") (A') (A") (A') (A') (A') (A') (A') (A") (A')
                 (A') (A') (A') (A") (A') (A') (A") (A') (A') (A')
                 (A') (A') (A") (A") (A') (A') (A") (A") (A') (A")
                 (A') (A') (A") (A') (A') (A") (A') (A") (A') (A")
                 (A') (A') (A") (A') (A') (A") (A') (A') (A") (A')
                 (A') (A") (A") (A') (A') (A') (A') (A') (A') (A")
                 (A') (A') (A') (A') (A") (A") (A') (A") (A") (A')
                 (A') (A") (A') (A') (A') (A') (A") (A') (A') (A')
                 (A") (A") (A') (A') (A") (A') (A") (A') (A') (A")
                 (A') (A") (A') (A") (A') (A') (A') (A") (A') (A')
                 (A") (A') (A') (A") (A') (A") (A") (A') (A') (A")
                 (A') (A') (A") (A") (A') (A') (A") (A") (A') (A")
                 (A') (A') (A") (A') (A") (A') (A") (A') (A') (A')
                 (A') (A") (A') (A") (A') (A') (A') (A") (A") (A')
                 (A') (A') (A') (A') (A") (A') (A") (A') (A') (A")
                 (A') (A") (A') (A') (A") (A') (A") (A') (A") (A')
                 (A') (A") (A') (A') (A') (A") (A') (A') (A") (A")
                 (A') (A") (A') (A") (A") (A') (A") (A') (A') (A")
                 (A') (A') (A") (A") (A') (A') (A') (A') (A") (A')
                 (A') (A') (A') (A') (A') (A') (A') (A')
 The electronic state is 1-A'.
 Alpha  occ. eigenvalues --  -10.22532 -10.21714 -10.21594 -10.20979 -10.18953
 Alpha  occ. eigenvalues --   -0.90361  -0.74582  -0.69221  -0.59795  -0.54586
 Alpha  occ. eigenvalues --   -0.47341  -0.44824  -0.39560  -0.37585  -0.33057
 Alpha  occ. eigenvalues --   -0.28868  -0.25774
 Alpha virt. eigenvalues --   -0.10263  -0.04575  -0.00965   0.01295   0.01370
 Alpha virt. eigenvalues --    0.01615   0.05210   0.05458   0.05928   0.06501
 Alpha virt. eigenvalues --    0.07569   0.07842   0.10338   0.10390   0.10981
 Alpha virt. eigenvalues --    0.11687   0.12581   0.13055   0.13282   0.13841
 Alpha virt. eigenvalues --    0.14256   0.15461   0.16883   0.16945   0.18223
 Alpha virt. eigenvalues --    0.19225   0.20753   0.21840   0.23316   0.24310
 Alpha virt. eigenvalues --    0.25188   0.27728   0.28974   0.29103   0.31134
 Alpha virt. eigenvalues --    0.35914   0.36990   0.37710   0.39646   0.42186
 Alpha virt. eigenvalues --    0.43211   0.44257   0.44292   0.45445   0.46560
 Alpha virt. eigenvalues --    0.47997   0.48454   0.49619   0.50963   0.53681
 Alpha virt. eigenvalues --    0.54509   0.55598   0.57159   0.57995   0.58405
 Alpha virt. eigenvalues --    0.60336   0.60597   0.61342   0.62918   0.66781
 Alpha virt. eigenvalues --    0.67119   0.68597   0.70310   0.71122   0.73929
 Alpha virt. eigenvalues --    0.75088   0.77094   0.79190   0.82106   0.82901
 Alpha virt. eigenvalues --    0.86864   0.89516   0.90497   0.92348   0.96944
 Alpha virt. eigenvalues --    1.00421   1.01382   1.04969   1.07950   1.09963
 Alpha virt. eigenvalues --    1.11666   1.12739   1.15967   1.18723   1.20651
 Alpha virt. eigenvalues --    1.23892   1.24835   1.26302   1.28646   1.28691
 Alpha virt. eigenvalues --    1.32725   1.35269   1.35816   1.38517   1.44962
 Alpha virt. eigenvalues --    1.45188   1.48105   1.49845   1.55543   1.58517
 Alpha virt. eigenvalues --    1.58850   1.62429   1.65887   1.67049   1.71611
 Alpha virt. eigenvalues --    1.72810   1.72979   1.81801   1.92898   1.95294
 Alpha virt. eigenvalues --    1.98771   2.04378   2.06092   2.11741   2.15410
 Alpha virt. eigenvalues --    2.17711   2.21314   2.27786   2.36056   2.38350
 Alpha virt. eigenvalues --    2.47944   2.59834   2.61420   2.66624   2.67095
 Alpha virt. eigenvalues --    2.70617   2.74916   2.75396   2.76374   2.78510
 Alpha virt. eigenvalues --    2.82736   2.84975   2.89263   2.90240   2.90719
 Alpha virt. eigenvalues --    2.94053   2.94573   2.97909   3.00101   3.02205
 Alpha virt. eigenvalues --    3.05182   3.08815   3.10030   3.14870   3.16458
 Alpha virt. eigenvalues --    3.20744   3.23451   3.26045   3.30810   3.35967
 Alpha virt. eigenvalues --    3.41741   3.43678   3.45480   3.50912   3.63861
 Alpha virt. eigenvalues --    3.69212   3.74832   3.84432   3.85353   3.85807
 Alpha virt. eigenvalues --    3.87494   3.89325   3.99132   4.00700   4.01157
 Alpha virt. eigenvalues --    4.09476   4.17405   4.19109   4.27066   4.29789
 Alpha virt. eigenvalues --    4.33232   4.38966   4.44986   4.49599   4.55077
 Alpha virt. eigenvalues --    4.62403   4.65319   4.74991   4.83262   5.02920
 Alpha virt. eigenvalues --    5.10052   5.14328   5.24044   5.48321   5.57803
 Alpha virt. eigenvalues --    5.66552   6.05969   6.48355   6.95401   7.02126
 Alpha virt. eigenvalues --    7.03272   7.11853   7.17799   7.21157   7.21438
 Alpha virt. eigenvalues --    7.23781   7.29597   7.31484   7.33564   7.42167
 Alpha virt. eigenvalues --    7.49948   7.53999   7.56032   7.62309   7.71843
 Alpha virt. eigenvalues --    7.74318   7.86426   8.00949   8.13044   8.30411
 Alpha virt. eigenvalues --    8.35664   8.66991   9.12348  23.92406  24.33304
 Alpha virt. eigenvalues --   24.57902  25.69930  26.08275
          Condensed to atoms (all electrons):
               1          2          3          4          5          6
     1  C    6.017285   0.484630   0.484630   0.176002  -0.039201  -0.275535
     2  H    0.484630   0.487897  -0.037953  -0.066252   0.018644  -0.071187
     3  H    0.484630  -0.037953   0.487897  -0.066252   0.018644  -0.071187
     4  C    0.176002  -0.066252  -0.066252   8.294098  -3.537949  -0.038763
     5  C   -0.039201   0.018644   0.018644  -3.537949  11.587724  -0.113305
     6  C   -0.275535  -0.071187  -0.071187  -0.038763  -0.113305   6.364156
     7  H   -0.046123  -0.001084  -0.001084   0.041727  -0.004054   0.371192
     8  C   -0.157675   0.014866   0.014866   0.577980  -1.181156  -0.107458
     9  H    0.001804  -0.000907  -0.000907   0.031320   0.002347  -0.056766
               7          8          9
     1  C   -0.046123  -0.157675   0.001804
     2  H   -0.001084   0.014866  -0.000907
     3  H   -0.001084   0.014866  -0.000907
     4  C    0.041727   0.577980   0.031320
     5  C   -0.004054  -1.181156   0.002347
     6  C    0.371192  -0.107458  -0.056766
     7  H    0.459222  -0.061546  -0.001165
     8  C   -0.061546   6.563915   0.337448
     9  H   -0.001165   0.337448   0.460625
 Mulliken charges:
               1
     1  C   -0.645816
     2  H    0.171346
     3  H    0.171346
     4  C    0.588089
     5  C   -0.751694
     6  C   -0.001146
     7  H    0.242914
     8  C   -0.001240
     9  H    0.226201
 Sum of Mulliken charges =  -0.00000
 Mulliken charges with hydrogens summed into heavy atoms:
               1
     1  C   -0.303124
     4  C    0.588089
     5  C   -0.751694
     6  C    0.241768
     8  C    0.224961
 APT charges:
               1
     1  C    0.195019
     2  H    0.003098
     3  H    0.003098
     4  C   -0.344657
     5  C   -0.032620
     6  C   -0.063564
     7  H    0.057524
     8  C    0.115458
     9  H    0.066645
 Sum of APT charges =   0.00000
 APT charges with hydrogens summed into heavy atoms:
               1
     1  C    0.201214
     4  C   -0.344657
     5  C   -0.032620
     6  C   -0.006040
     8  C    0.182103
 Electronic spatial extent (au):  <R**2>=            323.0713
 Charge=             -0.0000 electrons
 Dipole moment (field-independent basis, Debye):
    X=              0.0323    Y=              3.6381    Z=             -0.0000  Tot=              3.6383
 Quadrupole moment (field-independent basis, Debye-Ang):
   XX=            -25.7234   YY=            -36.7061   ZZ=            -31.6334
   XY=              0.9589   XZ=             -0.0000   YZ=             -0.0000
 Traceless Quadrupole moment (field-independent basis, Debye-Ang):
   XX=              5.6309   YY=             -5.3518   ZZ=             -0.2791
   XY=              0.9589   XZ=             -0.0000   YZ=             -0.0000
 Octapole moment (field-independent basis, Debye-Ang**2):
  XXX=             -3.0872  YYY=             38.5808  ZZZ=             -0.0000  XYY=             -2.0193
  XXY=              2.9278  XXZ=             -0.0000  XZZ=              2.5603  YZZ=              3.4932
  YYZ=             -0.0000  XYZ=             -0.0000
 Hexadecapole moment (field-independent basis, Debye-Ang**3):
 XXXX=           -128.8559 YYYY=           -352.1323 ZZZZ=            -45.3518 XXXY=              0.2745
 XXXZ=             -0.0000 YYYX=             10.1080 YYYZ=             -0.0000 ZZZX=             -0.0000
 ZZZY=             -0.0000 XXYY=            -73.2641 XXZZ=            -30.1014 YYZZ=            -64.1667
 XXYZ=             -0.0000 YYXZ=              0.0000 ZZXY=              1.8302
 N-N= 1.373114497227D+02 E-N=-7.212749048783D+02  KE= 1.918896962590D+02
 Symmetry A'   KE= 1.854198570599D+02
 Symmetry A"   KE= 6.469839199132D+00
  Exact polarizability:  55.083   1.949  77.561   0.000  -0.000  40.549
 Approx polarizability:  85.696  10.944 134.116  -0.000   0.000  59.397
 No NMR shielding tensors so no spin-rotation constants.
 Leave Link  601 at Thu Jan 31 06:36:06 2019, MaxMem=    33554432 cpu:         4.3
 (Enter /home/proyectos/fulerenos/M3C-v2.0/M3C-deps_CCC/g09-AM64L-G09RevC.01/l701.exe)
 Compute integral second derivatives.
 ... and contract with generalized density number  0.
 Leave Link  701 at Thu Jan 31 06:36:07 2019, MaxMem=    33554432 cpu:         3.0
 (Enter /home/proyectos/fulerenos/M3C-v2.0/M3C-deps_CCC/g09-AM64L-G09RevC.01/l702.exe)
 L702 exits ... SP integral derivatives will be done elsewhere.
 Leave Link  702 at Thu Jan 31 06:36:07 2019, MaxMem=    33554432 cpu:         0.1
 (Enter /home/proyectos/fulerenos/M3C-v2.0/M3C-deps_CCC/g09-AM64L-G09RevC.01/l703.exe)
 Compute integral second derivatives, UseDBF=F ICtDFT=           0.
 Integral derivatives from FoFJK, PRISM(SPDF).
 Calling FoFJK, ICntrl=    100127 FMM=F ISym2X=1 I1Cent= 0 IOpClX= 0 NMat=1 NMatS=1 NMatT=0.
 FoFJK:  IHMeth= 1 ICntrl=  100127 DoSepK=F KAlg= 0 I1Cent=   0 FoldK=F
 IRaf=         0 NMat=   1 IRICut=       1 DoRegI=T DoRafI=F ISym2E= 1.
 FoFCou: FMM=F IPFlag=           0 FMFlag=      100000 FMFlg1=         800
         NFxFlg=           0 DoJE=F BraDBF=F KetDBF=F FulRan=T
         wScrn=  0.000000 ICntrl=  100127 IOpCl=  0 I1Cent=           0 NGrid=           0
         NMat0=    1 NMatS0=      1 NMatT0=    0 NMatD0=    1 NMtDS0=    0 NMtDT0=    0
 Petite list used in FoFCou.
 Leave Link  703 at Thu Jan 31 06:39:00 2019, MaxMem=    33554432 cpu:       679.1
 (Enter /home/proyectos/fulerenos/M3C-v2.0/M3C-deps_CCC/g09-AM64L-G09RevC.01/l716.exe)
 Dipole        = 1.27269914D-02 1.43134883D+00 1.24694092D-15
 Polarizability= 5.50831267D+01 1.94935814D+00 7.75610393D+01
                 3.91690898D-10-1.11641694D-07 4.05485097D+01
 Full mass-weighted force constant matrix:
 Low frequencies ---   -4.5357   -0.0002    0.0004    0.0007    7.6007   20.7820
 Low frequencies ---  105.4800  207.4991  483.0611
 Diagonal vibrational polarizability:
       25.7051059       3.2122692       4.1845719
 Harmonic frequencies (cm**-1), IR intensities (KM/Mole), Raman scattering
 activities (A**4/AMU), depolarization ratios for plane and unpolarized
 incident light, reduced masses (AMU), force constants (mDyne/A),
 and normal coordinates:
                      1                      2                      3
                     A'                     A"                     A"
 Frequencies --    105.4798               207.4970               483.0609
 Red. masses --      6.4523                 3.6164                 1.9506
 Frc consts  --      0.0423                 0.0917                 0.2682
 IR Inten    --     10.8966                 1.1911                12.3353
  Atom  AN      X      Y      Z        X      Y      Z        X      Y      Z
     1   6    -0.08  -0.21   0.00    -0.00  -0.00  -0.12     0.00   0.00  -0.03
     2   1    -0.11  -0.33  -0.01    -0.16   0.22  -0.25    -0.43  -0.00  -0.33
     3   1    -0.11  -0.33   0.01     0.16  -0.22  -0.25     0.43   0.00  -0.33
     4   6    -0.39   0.00   0.00    -0.00   0.00  -0.26     0.00  -0.00   0.23
     5   6     0.47   0.15  -0.00     0.00   0.00   0.28    -0.00  -0.00  -0.07
     6   6     0.09  -0.06  -0.00     0.00  -0.00   0.24    -0.00   0.00   0.11
     7   1     0.31  -0.08  -0.00     0.00  -0.00   0.68    -0.00   0.00  -0.04
     8   6    -0.09   0.15   0.00    -0.00   0.00  -0.14     0.00  -0.00  -0.13
     9   1    -0.07   0.39   0.00    -0.00   0.00  -0.17     0.00   0.00  -0.57
                      4                      5                      6
                     A'                     A"                     A'
 Frequencies --    696.5382               754.4673               791.2158
 Red. masses --      7.2601                 1.3013                 5.7700
 Frc consts  --      2.0753                 0.4364                 2.1282
 IR Inten    --     11.7509                38.2507                12.1753
  Atom  AN      X      Y      Z        X      Y      Z        X      Y      Z
     1   6     0.12  -0.27   0.00    -0.00  -0.00  -0.03     0.42   0.26  -0.00
     2   1     0.13  -0.24   0.00     0.07  -0.18   0.04     0.37   0.31  -0.04
     3   1     0.13  -0.24  -0.00    -0.07   0.18   0.04     0.37   0.31   0.04
     4   6     0.20   0.36   0.00     0.00   0.00   0.10    -0.34  -0.04  -0.00
     5   6    -0.07   0.43  -0.00    -0.00  -0.00  -0.02    -0.07   0.04   0.00
     6   6    -0.08  -0.25  -0.00    -0.00  -0.00  -0.06     0.01  -0.22  -0.00
     7   1    -0.07  -0.24  -0.00     0.00  -0.00   0.81    -0.17  -0.21   0.00
     8   6    -0.18  -0.17  -0.00    -0.00   0.00  -0.11    -0.07  -0.10   0.00
     9   1    -0.19  -0.42  -0.00    -0.00   0.00   0.49    -0.04   0.16   0.00
                      7                      8                      9
                     A'                     A"                     A"
 Frequencies --    928.5768               940.0891               973.9866
 Red. masses --      2.2446                 1.4036                 1.4961
 Frc consts  --      1.1403                 0.7308                 0.8362
 IR Inten    --      0.8468                 0.4847                 4.3487
  Atom  AN      X      Y      Z        X      Y      Z        X      Y      Z
     1   6     0.07  -0.05   0.00     0.00  -0.00  -0.02     0.00  -0.00   0.17
     2   1    -0.01  -0.38  -0.01     0.08   0.17   0.02    -0.57  -0.18  -0.20
     3   1    -0.01  -0.38   0.01    -0.08  -0.17   0.02     0.57   0.18  -0.20
     4   6    -0.13  -0.00  -0.00    -0.00   0.00   0.03    -0.00  -0.00  -0.10
     5   6    -0.02   0.07  -0.00    -0.00   0.00  -0.00     0.00  -0.00   0.00
     6   6    -0.06   0.18  -0.00    -0.00   0.00   0.12    -0.00   0.00  -0.06
     7   1    -0.57   0.22   0.00    -0.00   0.00  -0.59    -0.00   0.00  -0.05
     8   6     0.18  -0.12   0.00     0.00  -0.00  -0.14    -0.00   0.00  -0.01
     9   1     0.15  -0.45  -0.00     0.00  -0.00   0.74    -0.00   0.00   0.40
                     10                     11                     12
                     A'                     A"                     A'
 Frequencies --    982.1353              1082.4108              1120.5501
 Red. masses --      2.6480                 1.1536                 1.3979
 Frc consts  --      1.5049                 0.7963                 1.0342
 IR Inten    --      3.6574                 2.5535                 0.4811
  Atom  AN      X      Y      Z        X      Y      Z        X      Y      Z
     1   6     0.19  -0.13  -0.00     0.00  -0.00   0.05    -0.09   0.02   0.00
     2   1     0.21  -0.18   0.01    -0.07   0.68  -0.07    -0.10   0.04  -0.00
     3   1     0.21  -0.18  -0.01     0.07  -0.68  -0.07    -0.10   0.04   0.00
     4   6     0.09  -0.02   0.00    -0.00  -0.00   0.03     0.02   0.01   0.00
     5   6     0.03  -0.12   0.00     0.00  -0.00   0.00    -0.01   0.05   0.00
     6   6    -0.13   0.09   0.00     0.00   0.00  -0.10     0.02  -0.11  -0.00
     7   1    -0.62   0.14  -0.00     0.00   0.00   0.18    -0.63  -0.07   0.00
     8   6    -0.14   0.16  -0.00    -0.00   0.00   0.01     0.11  -0.04   0.00
     9   1    -0.12   0.53   0.00    -0.00  -0.00   0.05     0.19   0.71  -0.00
                     13                     14                     15
                     A'                     A'                     A'
 Frequencies --   1201.3850              1300.8520              1465.4732
 Red. masses --      1.3419                 1.6700                 1.1353
 Frc consts  --      1.1412                 1.6650                 1.4366
 IR Inten    --      0.3349                 9.3094                 3.9180
  Atom  AN      X      Y      Z        X      Y      Z        X      Y      Z
     1   6    -0.01  -0.16  -0.00     0.03  -0.06   0.00    -0.09   0.03  -0.00
     2   1     0.14   0.65   0.02     0.06   0.10  -0.00     0.55  -0.10   0.42
     3   1     0.14   0.65  -0.02     0.06   0.10   0.00     0.55  -0.10  -0.42
     4   6    -0.05   0.00   0.00    -0.01   0.00  -0.00    -0.01   0.01   0.00
     5   6    -0.00   0.01  -0.00    -0.01   0.03   0.00     0.00  -0.00  -0.00
     6   6     0.01   0.03   0.00    -0.15   0.10  -0.00     0.03   0.01  -0.00
     7   1    -0.21   0.05   0.00     0.67   0.04   0.00    -0.04   0.02   0.00
     8   6     0.04   0.02  -0.00     0.05  -0.15   0.00    -0.02  -0.03   0.00
     9   1     0.03  -0.20   0.00     0.13   0.67   0.00    -0.01   0.04  -0.00
                     16                     17                     18
                     A'                     A'                     A'
 Frequencies --   1596.3438              1794.2806              3073.1029
 Red. masses --      4.9742                11.0102                 1.0541
 Frc consts  --      7.4683                20.8847                 5.8653
 IR Inten    --     13.3621               101.5461                14.5476
  Atom  AN      X      Y      Z        X      Y      Z        X      Y      Z
     1   6     0.01  -0.01   0.00    -0.01   0.00   0.00     0.06  -0.01   0.00
     2   1    -0.21   0.12  -0.16    -0.02  -0.06  -0.00    -0.38   0.06   0.59
     3   1    -0.21   0.12   0.16    -0.02  -0.06   0.00    -0.38   0.06  -0.59
     4   6    -0.02   0.08  -0.00    -0.15   0.72  -0.00     0.00   0.00   0.00
     5   6     0.01  -0.07   0.00     0.09  -0.56  -0.00    -0.00  -0.00   0.00
     6   6     0.36   0.22  -0.00    -0.09  -0.10  -0.00     0.00  -0.00  -0.00
     7   1    -0.33   0.36   0.00     0.07  -0.14  -0.00     0.01   0.03   0.00
     8   6    -0.28  -0.31   0.00     0.15  -0.04   0.00    -0.00  -0.00  -0.00
     9   1    -0.29   0.38  -0.00     0.21  -0.11  -0.00    -0.01   0.00  -0.00
                     19                     20                     21
                     A"                     A'                     A'
 Frequencies --   3132.5484              3204.1827              3232.6765
 Red. masses --      1.1108                 1.0864                 1.1131
 Frc consts  --      6.4220                 6.5716                 6.8535
 IR Inten    --      4.5035                 0.6922                 4.0821
  Atom  AN      X      Y      Z        X      Y      Z        X      Y      Z
     1   6     0.00  -0.00  -0.10    -0.00   0.00   0.00     0.00  -0.00  -0.00
     2   1    -0.40   0.06   0.58     0.00  -0.00  -0.01    -0.01   0.00   0.01
     3   1     0.40  -0.06   0.58     0.00  -0.00   0.01    -0.01   0.00  -0.01
     4   6    -0.00  -0.00   0.00     0.00  -0.00   0.00     0.00  -0.00  -0.00
     5   6     0.00   0.00  -0.00    -0.00   0.00  -0.00    -0.00   0.00   0.00
     6   6    -0.00  -0.00  -0.00    -0.01  -0.07   0.00     0.01   0.06   0.00
     7   1     0.00   0.00  -0.00     0.06   0.79  -0.00    -0.05  -0.60   0.00
     8   6    -0.00  -0.00  -0.00    -0.05   0.01   0.00    -0.08   0.00  -0.00
     9   1     0.00   0.00  -0.00     0.60  -0.06  -0.00     0.79  -0.07   0.00

 -------------------
 - Thermochemistry -
 -------------------
 Temperature   298.150 Kelvin.  Pressure   1.00000 Atm.
 Atom     1 has atomic number  6 and mass  12.00000
 Atom     2 has atomic number  1 and mass   1.00783
 Atom     3 has atomic number  1 and mass   1.00783
 Atom     4 has atomic number  6 and mass  12.00000
 Atom     5 has atomic number  6 and mass  12.00000
 Atom     6 has atomic number  6 and mass  12.00000
 Atom     7 has atomic number  1 and mass   1.00783
 Atom     8 has atomic number  6 and mass  12.00000
 Atom     9 has atomic number  1 and mass   1.00783
 Molecular mass:    64.03130 amu.
 Principal axes and moments of inertia in atomic units:
                           1         2         3
     Eigenvalues --   137.76564 309.93570 436.12522
           X           -0.01841   0.99983   0.00000
           Y            0.99983   0.01841   0.00000
           Z           -0.00000  -0.00000   1.00000
 This molecule is an asymmetric top.
 Rotational symmetry number  1.
 Rotational temperatures (Kelvin)      0.62870     0.27946     0.19860
 Rotational constants (GHZ):          13.10008     5.82295     4.13813
 Zero-point vibrational energy     173858.4 (Joules/Mol)
                                   41.55315 (Kcal/Mol)
 Warning -- explicit consideration of   3 degrees of freedom as
           vibrations may cause significant error
 Vibrational temperatures:    151.76   298.54   695.02  1002.16  1085.51
          (Kelvin)           1138.38  1336.01  1352.58  1401.35  1413.07
                             1557.35  1612.22  1728.52  1871.63  2108.49
                             2296.78  2581.57  4421.50  4507.03  4610.10
                             4651.09
 
 Zero-point correction=                           0.066219 (Hartree/Particle)
 Thermal correction to Energy=                    0.071112
 Thermal correction to Enthalpy=                  0.072057
 Thermal correction to Gibbs Free Energy=         0.038617
 Sum of electronic and zero-point Energies=           -192.726779
 Sum of electronic and thermal Energies=              -192.721885
 Sum of electronic and thermal Enthalpies=            -192.720941
 Sum of electronic and thermal Free Energies=         -192.754381
 
                     E (Thermal)             CV                S
                      KCal/Mol        Cal/Mol-Kelvin    Cal/Mol-Kelvin
 Total                   44.624             16.041             70.381
 Electronic               0.000              0.000              0.000
 Translational            0.889              2.981             38.389
 Rotational               0.889              2.981             24.436
 Vibrational             42.846             10.079              7.556
 Vibration     1          0.605              1.945              3.350
 Vibration     2          0.641              1.829              2.066
 Vibration     3          0.839              1.288              0.702
                       Q            Log10(Q)             Ln(Q)
 Total Bot       0.172849D-17        -17.762334        -40.899286
 Total V=0       0.496937D+13         12.696301         29.234314
 Vib (Bot)       0.175697D-29        -29.755236        -68.513963
 Vib (Bot)    1  0.194354D+01          0.288594          0.664512
 Vib (Bot)    2  0.958156D+00         -0.018564         -0.042745
 Vib (Bot)    3  0.345313D+00         -0.461788         -1.063305
 Vib (V=0)       0.505126D+01          0.703399          1.619637
 Vib (V=0)    1  0.250683D+01          0.399124          0.919018
 Vib (V=0)    2  0.158077D+01          0.198868          0.457912
 Vib (V=0)    3  0.110765D+01          0.044403          0.102242
 Electronic      0.100000D+01          0.000000          0.000000
 Translational   0.201393D+08          7.304044         16.818182
 Rotational      0.488493D+05          4.688858         10.796495
 
                                                              b3lyp opt
                                                             IR Spectrum
 
      33 3  3                                                 1       1    1     1   1  1 1                                          
      22 1  0                                                 7       5    4     3   2  1 0  9999    7 7 6        4         2   1    
      30 3  7                                                 9       9    6     0   0  2 8  8742    9 5 9        8         0   0    
      34 3  3                                                 4       6    5     1   1  1 2  2409    1 4 7        3         7   5    
 
      XX X  X                                                 X       X    X     X   X  X X  XXXX    X X X        X         X   X    
            X                                                 X       X          X                   X X X        X             X    
            X                                                 X       X                                X                             
                                                              X                                        X                             
                                                              X                                        X                             
                                                              X                                        X                             
                                                              X                                        X                             
                                                              X                                        X                             
                                                              X                                                                      
                                                              X                                                                      
                                                              X                                                                      
                                                              X                                                                      
                                                              X                                                                      
                                                              X                                                                      
                                                              X                                                                      
                                                              X                                                                      
                                                              X                                                                      
                                                              X                                                                      
                                                              X                                                                      
                                                              X                                                                      
 
 ***** Axes restored to original set *****
 -------------------------------------------------------------------
 Center     Atomic                   Forces (Hartrees/Bohr)
 Number     Number              X              Y              Z
 -------------------------------------------------------------------
      1        6          -0.000007281    0.000013500   -0.000000000
      2        1          -0.000009162    0.000008158   -0.000065208
      3        1          -0.000009162    0.000008158    0.000065208
      4        6          -0.000127664   -0.000035052    0.000000000
      5        6           0.000109396    0.000010447   -0.000000000
      6        6           0.000022058   -0.000009721   -0.000000000
      7        1           0.000016445    0.000000848   -0.000000000
      8        6          -0.000003825   -0.000025072   -0.000000000
      9        1           0.000009196    0.000028735    0.000000000
 -------------------------------------------------------------------
 Cartesian Forces:  Max     0.000127664 RMS     0.000038992
 Z-matrix is all fixed cartesians, so copy forces.
 Force constants in Cartesian coordinates: 
                1             2             3             4             5 
      1  0.288770D+00
      2  0.722897D-01  0.517608D+00
      3  0.000000D+00  0.000000D+00  0.573491D+00
      4 -0.451277D-01 -0.180066D-01 -0.217414D-01  0.458937D-01
      5 -0.162744D-01 -0.123880D+00 -0.124358D+00  0.184526D-01  0.136385D+00
      6 -0.198674D-01 -0.121711D+00 -0.237356D+00  0.239700D-01  0.133033D+00
      7 -0.451277D-01 -0.180066D-01  0.217414D-01  0.188961D-02  0.119713D-02
      8 -0.162744D-01 -0.123880D+00  0.124358D+00  0.119713D-02  0.119494D-01
      9  0.198674D-01  0.121711D+00 -0.237356D+00  0.254161D-02  0.146262D-01
     10 -0.340802D-01  0.250765D-01  0.000000D+00 -0.502462D-02  0.410223D-02
     11  0.374871D-01 -0.527587D-01  0.000000D+00  0.129601D-01 -0.115860D-01
     12  0.000000D+00  0.000000D+00 -0.638055D-01  0.135931D-01 -0.125315D-01
     13 -0.197437D-01  0.137303D-01  0.000000D+00  0.331933D-02 -0.324830D-02
     14  0.795968D-02 -0.156286D-01  0.000000D+00  0.196527D-02 -0.549077D-03
     15  0.000000D+00  0.000000D+00  0.194116D-02  0.108567D-02 -0.814434D-03
     16 -0.137298D+00 -0.618876D-01  0.000000D+00  0.194702D-02 -0.176595D-02
     17 -0.827882D-01 -0.107253D+00  0.000000D+00 -0.129734D-01 -0.115872D-01
     18  0.000000D+00  0.000000D+00 -0.728436D-01 -0.202711D-01 -0.125934D-01
     19 -0.388469D-02  0.603280D-02  0.000000D+00 -0.295162D-03 -0.135504D-03
     20 -0.114563D-01  0.594412D-02  0.000000D+00 -0.268540D-03  0.101522D-03
     21  0.000000D+00  0.000000D+00  0.575550D-03  0.376762D-03 -0.110471D-03
     22 -0.410471D-02 -0.209926D-01  0.000000D+00 -0.322314D-02 -0.252519D-02
     23  0.770106D-02 -0.957383D-01  0.000000D+00 -0.310355D-02 -0.133966D-03
     24  0.000000D+00  0.000000D+00  0.201735D-01 -0.737330D-03  0.448930D-03
     25  0.596643D-03  0.176406D-02  0.000000D+00  0.620925D-03  0.197319D-03
     26  0.135563D-02 -0.441473D-02  0.000000D+00 -0.223031D-03 -0.699849D-03
     27  0.000000D+00  0.000000D+00  0.151798D-01  0.118266D-02  0.229991D-02
                6             7             8             9            10 
      6  0.249671D+00
      7 -0.254161D-02  0.458937D-01
      8 -0.146262D-01  0.184526D-01  0.136385D+00
      9 -0.194024D-01 -0.239700D-01 -0.133033D+00  0.249671D+00
     10  0.105178D-03 -0.502462D-02  0.410223D-02 -0.105178D-03  0.913140D+00
     11  0.174643D-02  0.129601D-01 -0.115860D-01 -0.174643D-02  0.128517D+00
     12  0.243051D-02 -0.135931D-01  0.125315D-01  0.243051D-02  0.000000D+00
     13 -0.304103D-03  0.331933D-02 -0.324830D-02  0.304103D-03 -0.603986D+00
     14  0.543250D-03  0.196527D-02 -0.549077D-03 -0.543250D-03 -0.781330D-01
     15  0.495836D-03 -0.108567D-02  0.814434D-03  0.495837D-03  0.000000D+00
     16 -0.494635D-03  0.194702D-02 -0.176595D-02  0.494635D-03 -0.102926D+00
     17  0.117310D-02 -0.129734D-01 -0.115872D-01 -0.117310D-02  0.266477D-01
     18  0.422381D-02  0.202711D-01  0.125934D-01  0.422381D-02  0.000000D+00
     19 -0.139141D-03 -0.295162D-03 -0.135504D-03  0.139141D-03 -0.638392D-02
     20 -0.572547D-03 -0.268540D-03  0.101522D-03  0.572548D-03  0.134030D-02
     21 -0.685249D-04 -0.376762D-03  0.110471D-03 -0.685251D-04  0.000000D+00
     22 -0.654773D-03 -0.322314D-02 -0.252519D-02  0.654773D-03 -0.150967D+00
     23  0.126170D-03 -0.310355D-02 -0.133966D-03 -0.126170D-03 -0.113268D+00
     24  0.813932D-03  0.737330D-03 -0.448930D-03  0.813932D-03  0.000000D+00
     25 -0.734718D-04  0.620924D-03  0.197319D-03  0.734719D-04 -0.474764D-02
     26  0.288018D-03 -0.223031D-03 -0.699849D-03 -0.288018D-03  0.161460D-02
     27 -0.808195D-03 -0.118266D-02 -0.229991D-02 -0.808195D-03  0.000000D+00
               11            12            13            14            15 
     11  0.181538D+00
     12  0.000000D+00  0.108171D+00
     13 -0.104119D+00  0.000000D+00  0.638331D+00
     14  0.667683D-03  0.000000D+00  0.845886D-01  0.161613D-01
     15  0.000000D+00 -0.213972D-01  0.000000D+00  0.000000D+00  0.959785D-02
     16  0.202082D-01  0.000000D+00 -0.600072D-03 -0.501052D-02  0.000000D+00
     17 -0.499673D-02  0.000000D+00 -0.102717D-01 -0.168295D-02  0.000000D+00
     18  0.000000D+00  0.152741D-01  0.000000D+00  0.000000D+00  0.210938D-02
     19  0.249715D-02  0.000000D+00  0.591954D-03 -0.872211D-04  0.000000D+00
     20  0.361967D-02  0.000000D+00  0.159046D-02 -0.552937D-03  0.000000D+00
     21  0.000000D+00  0.134789D-01  0.000000D+00  0.000000D+00 -0.258052D-02
     22 -0.911027D-01  0.000000D+00 -0.250437D-01 -0.135319D-01  0.000000D+00
     23 -0.102536D+00  0.000000D+00  0.198233D-01  0.190298D-02  0.000000D+00
     24  0.000000D+00 -0.566543D-01  0.000000D+00  0.000000D+00  0.984233D-02
     25 -0.194086D-01  0.000000D+00  0.381176D-02  0.283824D-03  0.000000D+00
     26 -0.236230D-02  0.000000D+00  0.115431D-02  0.230736D-03  0.000000D+00
     27  0.000000D+00  0.724462D-04  0.000000D+00  0.000000D+00 -0.504637D-03
               16            17            18            19            20 
     16  0.808907D+00
     17 -0.174506D+00  0.570536D+00
     18  0.000000D+00  0.000000D+00  0.133251D+00
     19 -0.342827D+00  0.335905D-01  0.000000D+00  0.358540D+00
     20  0.283706D-01 -0.674348D-01  0.000000D+00 -0.355239D-01  0.500174D-01
     21  0.000000D+00  0.000000D+00 -0.358148D-01  0.000000D+00  0.000000D+00
     22 -0.241275D+00  0.220577D+00  0.000000D+00 -0.560289D-02  0.162309D-01
     23  0.205828D+00 -0.358539D+00  0.000000D+00 -0.661474D-02  0.800942D-02
     24  0.000000D+00  0.000000D+00 -0.562420D-01  0.000000D+00  0.000000D+00
     25  0.121258D-01  0.126970D-01  0.000000D+00  0.157322D-03 -0.149228D-04
     26 -0.947160D-02 -0.745512D-02  0.000000D+00  0.376410D-03  0.194103D-03
     27  0.000000D+00  0.000000D+00  0.581824D-02  0.000000D+00  0.000000D+00
               21            22            23            24            25 
     21  0.208939D-01
     22  0.000000D+00  0.498491D+00
     23  0.000000D+00 -0.729850D-01  0.891319D+00
     24  0.743916D-02  0.000000D+00  0.000000D+00  0.111771D+00
     25  0.000000D+00 -0.650511D-01 -0.342781D-01  0.000000D+00  0.518653D-01
     26  0.000000D+00 -0.331454D-01 -0.344150D+00  0.000000D+00  0.385621D-01
     27 -0.385517D-02  0.000000D+00  0.000000D+00 -0.379572D-01  0.000000D+00
               26            27 
     26  0.359357D+00
     27  0.000000D+00  0.228629D-01
 Leave Link  716 at Thu Jan 31 06:39:00 2019, MaxMem=    33554432 cpu:         0.1
 (Enter /home/proyectos/fulerenos/M3C-v2.0/M3C-deps_CCC/g09-AM64L-G09RevC.01/l103.exe)

 GradGradGradGradGradGradGradGradGradGradGradGradGradGradGradGradGradGrad
 Berny optimization.
 Search for a local minimum.
 Step number   1 out of a maximum of    2
 All quantities printed in internal units (Hartrees-Bohrs-Radians)
 Second derivative matrix not updated -- analytic derivatives used.
 ITU=  0
     Eigenvalues ---    0.00334   0.00625   0.02025   0.03435   0.04534
     Eigenvalues ---    0.05305   0.08077   0.08452   0.12367   0.15027
     Eigenvalues ---    0.16954   0.22357   0.22663   0.27584   0.36226
     Eigenvalues ---    0.55334   0.77607   0.78446   0.91054   1.36076
     Eigenvalues ---    1.54197
 Angle between quadratic step and forces=  75.48 degrees.
 ClnCor:  largest displacement from symmetrization is 1.08D-10 for atom     3.
 Linear search not attempted -- first point.
 ClnCor:  largest displacement from symmetrization is 1.33D-15 for atom     2.
 B after Tr=     0.000025   -0.000098    0.000000
         Rot=    1.000000   -0.000000   -0.000000   -0.000024 Ang=  -0.00 deg.
 Variable       Old X    -DE/DX   Delta X   Delta X   Delta X     New X
                                 (Linear)    (Quad)   (Total)
    X1        0.44712  -0.00001   0.00000  -0.00027  -0.00015   0.44697
    Y1       -2.01539   0.00001   0.00000   0.00014   0.00006  -2.01533
    Z1        0.00000  -0.00000   0.00000   0.00000  -0.00000   0.00000
    X2        0.24375  -0.00001   0.00000  -0.00056  -0.00038   0.24336
    Y2       -3.16073   0.00001   0.00000   0.00059   0.00050  -3.16022
    Z2       -1.69456  -0.00007   0.00000  -0.00042  -0.00042  -1.69498
    X3        0.24375  -0.00001   0.00000  -0.00056  -0.00038   0.24336
    Y3       -3.16073   0.00001   0.00000   0.00059   0.00050  -3.16022
    Z3        1.69457   0.00007   0.00000   0.00042   0.00042   1.69499
    X4       -1.31834  -0.00013   0.00000  -0.00005  -0.00004  -1.31839
    Y4        0.43686  -0.00004   0.00000   0.00052   0.00036   0.43722
    Z4        0.00000   0.00000   0.00000   0.00000   0.00000   0.00000
    X5       -3.74352   0.00011   0.00000   0.00036   0.00038  -3.74315
    Y5        0.16619   0.00001   0.00000  -0.00113  -0.00140   0.16479
    Z5        0.00000  -0.00000   0.00000   0.00000   0.00000   0.00000
    X6        2.55466   0.00002   0.00000  -0.00000   0.00003   2.55468
    Y6       -0.07397  -0.00001   0.00000  -0.00007  -0.00004  -0.07401
    Z6        0.00000  -0.00000   0.00000   0.00000  -0.00000   0.00000
    X7        4.58246   0.00002   0.00000   0.00002   0.00006   4.58252
    Y7       -0.29470   0.00000   0.00000  -0.00026  -0.00014  -0.29485
    Z7        0.00000  -0.00000   0.00000   0.00000  -0.00000   0.00000
    X8        1.00514  -0.00000   0.00000   0.00019   0.00012   1.00526
    Y8        1.93016  -0.00003   0.00000   0.00010   0.00005   1.93022
    Z8        0.00000  -0.00000   0.00000   0.00000  -0.00000   0.00000
    X9        1.25981   0.00001   0.00000   0.00054   0.00038   1.26019
    Y9        3.95271   0.00003   0.00000   0.00015   0.00011   3.95282
    Z9        0.00000   0.00000   0.00000   0.00000  -0.00000   0.00000
         Item               Value     Threshold  Converged?
 Maximum Force            0.000128     0.000450     YES
 RMS     Force            0.000039     0.000300     YES
 Maximum Displacement     0.001405     0.001800     YES
 RMS     Displacement     0.000366     0.001200     YES
 Predicted change in Energy=-4.758052D-08
 Optimization completed.
    -- Stationary point found.
 GradGradGradGradGradGradGradGradGradGradGradGradGradGradGradGradGradGrad

 Leave Link  103 at Thu Jan 31 06:39:00 2019, MaxMem=    33554432 cpu:         0.1
 (Enter /home/proyectos/fulerenos/M3C-v2.0/M3C-deps_CCC/g09-AM64L-G09RevC.01/l9999.exe)

 Test job not archived.
 1\1\GINC-COPERNICIO\Freq\RB3LYP\6-311++G(3df,2p)\C5H4\ROOT\31-Jan-2019
 \0\\#p b3lyp/6-311++G(3df,2p) freq IOp(2/17=3) IOp(2/18=3)\\b3lyp opt\
 \0,1\C,0.236605,-1.066498992,0.000002291\H,0.128985,-1.672583992,-0.89
 672405\H,0.128985,-1.672583992,0.8967286321\C,-0.697638,0.231178994,0.
 000002291\C,-1.980988,0.087944002,0.000002291\C,1.351866,-0.039141998,
 0.000002291\H,2.424935,-0.155950992,0.000002291\C,0.531895,1.021397993
 ,0.000002291\H,0.666663,2.091685988,0.000002291\\Version=EM64L-G09RevE
 .01\State=1-A'\HF=-192.792998\RMSD=5.835e-09\RMSF=3.899e-05\ZeroPoint=
 0.0662192\Thermal=0.0711125\Dipole=1.4303809,-0.0541476,0.\DipoleDeriv
 =0.2134238,-0.152051,0.,-0.2083974,0.12566,0.,0.,0.,0.2459719,0.047813
 ,-0.0246988,-0.0065647,0.0155863,-0.0276531,-0.0431498,-0.0031664,-0.0
 777157,-0.0108674,0.0478131,-0.0246988,0.0065647,0.0155863,-0.0276531,
 0.0431498,0.0031664,0.0777157,-0.0108674,-1.0322661,0.3025209,0.,0.143
 2225,0.0552218,0.,0.,0.,-0.0569256,0.5577656,-0.0832137,0.,0.0447532,-
 0.4085189,0.,0.,0.,-0.2471072,-0.0403789,-0.1117639,0.,0.1189007,0.051
 3643,0.,0.,0.,-0.2016776,-0.055856,-0.0072066,0.,-0.0393318,0.078826,0
 .,0.,0.,0.149602,0.2158611,0.1395272,0.,-0.0469563,0.1774773,0.,0.,0.,
 -0.0469634,0.0458244,-0.0384151,0.,-0.0433635,-0.0247242,0.,0.,0.,0.17
 88346\Polar=77.429422,-2.5963735,55.214744,-0.0000001,0.,40.5485097\PG
 =CS [SG(C5H2),X(H2)]\NImag=0\\0.28877001,0.07228970,0.51760808,0.,0.,0
 .57349139,-0.04512769,-0.01800657,-0.02174137,0.04589373,-0.01627436,-
 0.12387952,-0.12435799,0.01845262,0.13638476,-0.01986744,-0.12171103,-
 0.23735615,0.02397000,0.13303278,0.24967120,-0.04512768,-0.01800657,0.
 02174137,0.00188961,0.00119713,-0.00254161,0.04589373,-0.01627436,-0.1
 2387952,0.12435799,0.00119713,0.01194938,-0.01462617,0.01845262,0.1363
 8476,0.01986744,0.12171103,-0.23735615,0.00254161,0.01462617,-0.019402
 41,-0.02397000,-0.13303278,0.24967120,-0.03408022,0.02507648,0.,-0.005
 02462,0.00410223,0.00010518,-0.00502462,0.00410223,-0.00010518,0.91314
 028,0.03748712,-0.05275869,0.,0.01296008,-0.01158603,0.00174643,0.0129
 6008,-0.01158603,-0.00174643,0.12851729,0.18153842,0.,0.,-0.06380551,0
 .01359306,-0.01253154,0.00243051,-0.01359306,0.01253154,0.00243051,0.,
 0.,0.10817057,-0.01974366,0.01373030,0.,0.00331933,-0.00324830,-0.0003
 0410,0.00331933,-0.00324830,0.00030410,-0.60398572,-0.10411863,0.,0.63
 833079,0.00795968,-0.01562861,0.,0.00196527,-0.00054908,0.00054325,0.0
 0196527,-0.00054908,-0.00054325,-0.07813302,0.00066768,0.,0.08458859,0
 .01616125,0.,0.,0.00194116,0.00108567,-0.00081443,0.00049584,-0.001085
 67,0.00081443,0.00049584,0.,0.,-0.02139722,0.,0.,0.00959785,-0.1372980
 1,-0.06188760,0.,0.00194702,-0.00176595,-0.00049463,0.00194702,-0.0017
 6595,0.00049464,-0.10292621,0.02020824,0.,-0.00060007,-0.00501052,0.,0
 .80890675,-0.08278817,-0.10725279,0.,-0.01297341,-0.01158723,0.0011731
 0,-0.01297341,-0.01158723,-0.00117310,0.02664768,-0.00499673,0.,-0.010
 27168,-0.00168295,0.,-0.17450560,0.57053566,0.,0.,-0.07284358,-0.02027
 106,-0.01259336,0.00422381,0.02027106,0.01259336,0.00422381,0.,0.,0.01
 527408,0.,0.,0.00210938,0.,0.,0.13325102,-0.00388469,0.00603280,0.,-0.
 00029516,-0.00013550,-0.00013914,-0.00029516,-0.00013550,0.00013914,-0
 .00638392,0.00249715,0.,0.00059195,-0.00008722,0.,-0.34282740,0.033590
 50,0.,0.35853994,-0.01145630,0.00594412,0.,-0.00026854,0.00010152,-0.0
 0057255,-0.00026854,0.00010152,0.00057255,0.00134030,0.00361967,0.,0.0
 0159046,-0.00055294,0.,0.02837056,-0.06743478,0.,-0.03552389,0.0500173
 6,0.,0.,0.00057555,0.00037676,-0.00011047,-0.00006852,-0.00037676,0.00
 011047,-0.00006853,0.,0.,0.01347894,0.,0.,-0.00258052,0.,0.,-0.0358148
 1,0.,0.,0.02089390,-0.00410471,-0.02099259,0.,-0.00322314,-0.00252519,
 -0.00065477,-0.00322314,-0.00252519,0.00065477,-0.15096732,-0.09110273
 ,0.,-0.02504371,-0.01353187,0.,-0.24127492,0.22057708,0.,-0.00560289,0
 .01623088,0.,0.49849093,0.00770106,-0.09573835,0.,-0.00310355,-0.00013
 397,0.00012617,-0.00310355,-0.00013397,-0.00012617,-0.11326781,-0.1025
 3600,0.,0.01982327,0.00190298,0.,0.20582843,-0.35853885,0.,-0.00661474
 ,0.00800942,0.,-0.07298500,0.89131908,0.,0.,0.02017348,-0.00073733,0.0
 0044893,0.00081393,0.00073733,-0.00044893,0.00081393,0.,0.,-0.05665433
 ,0.,0.,0.00984233,0.,0.,-0.05624196,0.,0.,0.00743916,0.,0.,0.11177068,
 0.00059664,0.00176406,0.,0.00062092,0.00019732,-0.00007347,0.00062092,
 0.00019732,0.00007347,-0.00474764,-0.01940860,0.,0.00381176,0.00028382
 ,0.,0.01212583,0.01269701,0.,0.00015732,-0.00001492,0.,-0.06505108,-0.
 03427811,0.,0.05186532,0.00135563,-0.00441473,0.,-0.00022303,-0.000699
 85,0.00028802,-0.00022303,-0.00069985,-0.00028802,0.00161460,-0.002362
 30,0.,0.00115431,0.00023074,0.,-0.00947160,-0.00745512,0.,0.00037641,0
 .00019410,0.,-0.03314539,-0.34415035,0.,0.03856209,0.35935736,0.,0.,0.
 01517981,0.00118266,0.00229991,-0.00080820,-0.00118266,-0.00229991,-0.
 00080819,0.,0.,0.00007245,0.,0.,-0.00050464,0.,0.,0.00581824,0.,0.,-0.
 00385517,0.,0.,-0.03795723,0.,0.,0.02286292\\0.00000728,-0.00001350,0.
 ,0.00000916,-0.00000816,0.00006521,0.00000916,-0.00000816,-0.00006521,
 0.00012766,0.00003505,0.,-0.00010940,-0.00001045,0.,-0.00002206,0.0000
 0972,0.,-0.00001644,-0.00000085,0.,0.00000382,0.00002507,0.,-0.0000092
 0,-0.00002873,0.\\\@


 HOW IS IT THAT THE SKY FEEDS THE STARS?

                           -- LUCRETIUS
 Job cpu time:       0 days  0 hours 44 minutes 22.4 seconds.
 File lengths (MBytes):  RWF=     44 Int=      0 D2E=      0 Chk=      4 Scr=      1
 Normal termination of Gaussian 09 at Thu Jan 31 06:39:00 2019.
