 Entering Gaussian System, Link 0=/home/proyectos/fulerenos/M3C-v1.9/M3C-deps_CCC/g09-AM64L-G09RevC.01/g09
 Initial command:
 /home/proyectos/fulerenos/M3C-v1.9/M3C-deps_CCC/g09-AM64L-G09RevC.01/l1.exe "/scratch/naguirre/gaussian/Gau-24400.inp" -scrdir="/scratch/naguirre/gaussian/"
 Entering Link 1 = /home/proyectos/fulerenos/M3C-v1.9/M3C-deps_CCC/g09-AM64L-G09RevC.01/l1.exe PID=     24408.
  
 Copyright (c) 1988,1990,1992,1993,1995,1998,2003,2009,2015,
            Gaussian, Inc.  All Rights Reserved.
  
 This is part of the Gaussian(R) 09 program.  It is based on
 the Gaussian(R) 03 system (copyright 2003, Gaussian, Inc.),
 the Gaussian(R) 98 system (copyright 1998, Gaussian, Inc.),
 the Gaussian(R) 94 system (copyright 1995, Gaussian, Inc.),
 the Gaussian 92(TM) system (copyright 1992, Gaussian, Inc.),
 the Gaussian 90(TM) system (copyright 1990, Gaussian, Inc.),
 the Gaussian 88(TM) system (copyright 1988, Gaussian, Inc.),
 the Gaussian 86(TM) system (copyright 1986, Carnegie Mellon
 University), and the Gaussian 82(TM) system (copyright 1983,
 Carnegie Mellon University). Gaussian is a federally registered
 trademark of Gaussian, Inc.
  
 This software contains proprietary and confidential information,
 including trade secrets, belonging to Gaussian, Inc.
  
 This software is provided under written license and may be
 used, copied, transmitted, or stored only in accord with that
 written license.
  
 The following legend is applicable only to US Government
 contracts under FAR:
  
                    RESTRICTED RIGHTS LEGEND
  
 Use, reproduction and disclosure by the US Government is
 subject to restrictions as set forth in subparagraphs (a)
 and (c) of the Commercial Computer Software - Restricted
 Rights clause in FAR 52.227-19.
  
 Gaussian, Inc.
 340 Quinnipiac St., Bldg. 40, Wallingford CT 06492
  
  
 ---------------------------------------------------------------
 Warning -- This program may not be used in any manner that
 competes with the business of Gaussian, Inc. or will provide
 assistance to any competitor of Gaussian, Inc.  The licensee
 of this program is prohibited from giving any competitor of
 Gaussian, Inc. access to this program.  By using this program,
 the user acknowledges that Gaussian, Inc. is engaged in the
 business of creating and licensing software in the field of
 computational chemistry and represents and warrants to the
 licensee that it is not a competitor of Gaussian, Inc. and that
 it will not use this program in any manner prohibited above.
 ---------------------------------------------------------------
  

 Cite this work as:
 Gaussian 09, Revision E.01,
 M. J. Frisch, G. W. Trucks, H. B. Schlegel, G. E. Scuseria, 
 M. A. Robb, J. R. Cheeseman, G. Scalmani, V. Barone, B. Mennucci, 
 G. A. Petersson, H. Nakatsuji, M. Caricato, X. Li, H. P. Hratchian, 
 A. F. Izmaylov, J. Bloino, G. Zheng, J. L. Sonnenberg, M. Hada, 
 M. Ehara, K. Toyota, R. Fukuda, J. Hasegawa, M. Ishida, T. Nakajima, 
 Y. Honda, O. Kitao, H. Nakai, T. Vreven, J. A. Montgomery, Jr., 
 J. E. Peralta, F. Ogliaro, M. Bearpark, J. J. Heyd, E. Brothers, 
 K. N. Kudin, V. N. Staroverov, T. Keith, R. Kobayashi, J. Normand, 
 K. Raghavachari, A. Rendell, J. C. Burant, S. S. Iyengar, J. Tomasi, 
 M. Cossi, N. Rega, J. M. Millam, M. Klene, J. E. Knox, J. B. Cross, 
 V. Bakken, C. Adamo, J. Jaramillo, R. Gomperts, R. E. Stratmann, 
 O. Yazyev, A. J. Austin, R. Cammi, C. Pomelli, J. W. Ochterski, 
 R. L. Martin, K. Morokuma, V. G. Zakrzewski, G. A. Voth, 
 P. Salvador, J. J. Dannenberg, S. Dapprich, A. D. Daniels, 
 O. Farkas, J. B. Foresman, J. V. Ortiz, J. Cioslowski, 
 and D. J. Fox, Gaussian, Inc., Wallingford CT, 2013.
 
 ******************************************
 Gaussian 09:  EM64L-G09RevE.01 30-Nov-2015
                20-Jun-2016 
 ******************************************
 %NProcShared=4
 Will use up to    4 processors via shared memory.
 ---------------------------------------------
 #p b3lyp/6-311++G(3df,2p) freq symmetry=Loose
 ---------------------------------------------
 1/10=4,30=1,38=1/1,3;
 2/12=2,17=4,18=3,40=1/2;
 3/5=4,6=6,7=1216,11=2,16=1,25=1,30=1,71=2,74=-5,140=1/1,2,3;
 4//1;
 5/5=2,38=5,98=1/2;
 8/6=4,10=90,11=11/1;
 11/6=1,8=1,9=11,15=111,16=1/1,2,10;
 10/6=1/2;
 6/7=2,8=2,9=2,10=2,18=1,28=1/1;
 7/8=1,10=1,25=1/1,2,3,16;
 1/10=4,30=1/3;
 99//99;
 Leave Link    1 at Mon Jun 20 13:40:15 2016, MaxMem=           0 cpu:         0.2
 (Enter /home/proyectos/fulerenos/M3C-v1.9/M3C-deps_CCC/g09-AM64L-G09RevC.01/l101.exe)
 ---------
 b3lyp opt
 ---------
 Symbolic Z-matrix:
 Charge =  3 Multiplicity = 1
 C                    -2.34597  -0.00056   0.00002 
 C                    -0.66815   0.00013  -0.00018 
 C                     0.59554   0.00119   0.00024 
 C                     1.90948  -0.00032  -0.00003 
 H                     3.05587  -0.00158  -0.00033 
 
 NAtoms=      5 NQM=        5 NQMF=       0 NMMI=      0 NMMIF=      0
                NMic=       0 NMicF=      0.
                    Isotopes and Nuclear Properties:
 (Nuclear quadrupole moments (NQMom) in fm**2, nuclear magnetic moments (NMagM)
  in nuclear magnetons)

  Atom         1           2           3           4           5
 IAtWgt=          12          12          12          12           1
 AtmWgt=  12.0000000  12.0000000  12.0000000  12.0000000   1.0078250
 NucSpn=           0           0           0           0           1
 AtZEff=   0.0000000   0.0000000   0.0000000   0.0000000   0.0000000
 NQMom=    0.0000000   0.0000000   0.0000000   0.0000000   0.0000000
 NMagM=    0.0000000   0.0000000   0.0000000   0.0000000   2.7928460
 AtZNuc=   6.0000000   6.0000000   6.0000000   6.0000000   1.0000000
 Leave Link  101 at Mon Jun 20 13:40:16 2016, MaxMem=    33554432 cpu:         0.2
 (Enter /home/proyectos/fulerenos/M3C-v1.9/M3C-deps_CCC/g09-AM64L-G09RevC.01/l103.exe)

 GradGradGradGradGradGradGradGradGradGradGradGradGradGradGradGradGradGrad
 Berny optimization.
 Initialization pass.
 Trust Radius=3.00D-01 FncErr=1.00D-07 GrdErr=1.00D-07
 Number of steps in this run=      2 maximum allowed number of steps=      2.
 GradGradGradGradGradGradGradGradGradGradGradGradGradGradGradGradGradGrad

 Leave Link  103 at Mon Jun 20 13:40:16 2016, MaxMem=    33554432 cpu:         0.1
 (Enter /home/proyectos/fulerenos/M3C-v1.9/M3C-deps_CCC/g09-AM64L-G09RevC.01/l202.exe)
                          Input orientation:                          
 ---------------------------------------------------------------------
 Center     Atomic      Atomic             Coordinates (Angstroms)
 Number     Number       Type             X           Y           Z
 ---------------------------------------------------------------------
      1          6           0       -2.345974   -0.000564    0.000019
      2          6           0       -0.668147    0.000131   -0.000176
      3          6           0        0.595544    0.001188    0.000237
      4          6           0        1.909480   -0.000317   -0.000025
      5          1           0        3.055875   -0.001584   -0.000325
 ---------------------------------------------------------------------
                    Distance matrix (angstroms):
                    1          2          3          4          5
     1  C    0.000000
     2  C    1.677827   0.000000
     3  C    2.941519   1.263692   0.000000
     4  C    4.255454   2.577627   1.313937   0.000000
     5  H    5.401849   3.724022   2.460333   1.146396   0.000000
 Stoichiometry    C4H(3+)
 Framework group  C*V[C*(HCCCC)]
 Deg. of freedom     4
 Full point group                 C*V     NOp   4
 Largest Abelian subgroup         C2V     NOp   4
 Largest concise Abelian subgroup C1      NOp   1
                         Standard orientation:                         
 ---------------------------------------------------------------------
 Center     Atomic      Atomic             Coordinates (Angstroms)
 Number     Number       Type             X           Y           Z
 ---------------------------------------------------------------------
      1          6           0        0.000000   -0.000000    2.346026
      2          6           0       -0.000000    0.000000    0.668199
      3          6           0       -0.000000    0.000000   -0.595492
      4          6           0        0.000000   -0.000000   -1.909428
      5          1           0        0.000000   -0.000000   -3.055823
 ---------------------------------------------------------------------
 Rotational constants (GHZ):      0.0000000      3.9288197      3.9288197
 Leave Link  202 at Mon Jun 20 13:40:16 2016, MaxMem=    33554432 cpu:         0.0
 (Enter /home/proyectos/fulerenos/M3C-v1.9/M3C-deps_CCC/g09-AM64L-G09RevC.01/l301.exe)
 Standard basis: 6-311++G(3df,2p) (5D, 7F)
 Ernie: Thresh=  0.10000D-02 Tol=  0.10000D-05 Strict=F.
 There are    90 symmetry adapted cartesian basis functions of A1  symmetry.
 There are    16 symmetry adapted cartesian basis functions of A2  symmetry.
 There are    42 symmetry adapted cartesian basis functions of B1  symmetry.
 There are    42 symmetry adapted cartesian basis functions of B2  symmetry.
 There are    74 symmetry adapted basis functions of A1  symmetry.
 There are    16 symmetry adapted basis functions of A2  symmetry.
 There are    38 symmetry adapted basis functions of B1  symmetry.
 There are    38 symmetry adapted basis functions of B2  symmetry.
   166 basis functions,   244 primitive gaussians,   190 cartesian basis functions
    11 alpha electrons       11 beta electrons
       nuclear repulsion energy        64.7723102774 Hartrees.
 IExCor=  402 DFT=T Ex+Corr=B3LYP ExCW=0 ScaHFX=  0.200000
 ScaDFX=  0.800000  0.720000  1.000000  0.810000 ScalE2=  1.000000  1.000000
 IRadAn=      0 IRanWt=     -1 IRanGd=            0 ICorTp=0 IEmpDi=  4
 NAtoms=    5 NActive=    5 NUniq=    5 SFac= 1.00D+00 NAtFMM=   60 NAOKFM=F Big=F
 Integral buffers will be    131072 words long.
 Raffenetti 2 integral format.
 Two-electron integral symmetry is turned on.
 Leave Link  301 at Mon Jun 20 13:40:16 2016, MaxMem=    33554432 cpu:         0.2
 (Enter /home/proyectos/fulerenos/M3C-v1.9/M3C-deps_CCC/g09-AM64L-G09RevC.01/l302.exe)
 NPDir=0 NMtPBC=     1 NCelOv=     1 NCel=       1 NClECP=     1 NCelD=      1
         NCelK=      1 NCelE2=     1 NClLst=     1 CellRange=     0.0.
 One-electron integrals computed using PRISM.
 NBasis=   166 RedAO= T EigKep=  4.38D-06  NBF=    74    16    38    38
 NBsUse=   165 1.00D-06 EigRej=  7.95D-08 NBFU=    73    16    38    38
 Precomputing XC quadrature grid using
 IXCGrd= 4 IRadAn=           0 IRanWt=          -1 IRanGd=           0 AccXCQ= 0.00D+00.
 Generated NRdTot=       0 NPtTot=           0 NUsed=           0 NTot=          32
 NSgBfM=   190   190   190   190   190 MxSgAt=     5 MxSgA2=     5.
 Leave Link  302 at Mon Jun 20 13:40:16 2016, MaxMem=    33554432 cpu:         0.9
 (Enter /home/proyectos/fulerenos/M3C-v1.9/M3C-deps_CCC/g09-AM64L-G09RevC.01/l303.exe)
 DipDrv:  MaxL=1.
 Leave Link  303 at Mon Jun 20 13:40:16 2016, MaxMem=    33554432 cpu:         0.1
 (Enter /home/proyectos/fulerenos/M3C-v1.9/M3C-deps_CCC/g09-AM64L-G09RevC.01/l401.exe)
 ExpMin= 3.60D-02 ExpMax= 4.56D+03 ExpMxC= 6.82D+02 IAcc=3 IRadAn=         5 AccDes= 0.00D+00
 Harris functional with IExCor=  402 and IRadAn=       5 diagonalized for initial guess.
 HarFok:  IExCor=  402 AccDes= 0.00D+00 IRadAn=         5 IDoV= 1 UseB2=F ITyADJ=14
 ICtDFT=  3500011 ScaDFX=  1.000000  1.000000  1.000000  1.000000
 FoFCou: FMM=F IPFlag=           0 FMFlag=      100000 FMFlg1=           0
         NFxFlg=           0 DoJE=T BraDBF=F KetDBF=T FulRan=T
         wScrn=  0.000000 ICntrl=     500 IOpCl=  0 I1Cent=   200000004 NGrid=           0
         NMat0=    1 NMatS0=      1 NMatT0=    0 NMatD0=    1 NMtDS0=    0 NMtDT0=    0
 Petite list used in FoFCou.
 Harris En= -151.954835154468    
 JPrj=0 DoOrth=F DoCkMO=F.
 Initial guess orbital symmetries:
       Occupied  (SG) (SG) (SG) (SG) (SG) (SG) (SG) (SG) (PI) (PI)
                 (SG)
       Virtual   (PI) (PI) (PI) (PI) (SG) (SG) (PI) (PI) (SG) (SG)
                 (PI) (PI) (SG) (PI) (PI) (SG) (PI) (PI) (SG) (SG)
                 (PI) (PI) (SG) (DLTA) (DLTA) (SG) (DLTA) (DLTA)
                 (SG) (SG) (SG) (PI) (PI) (DLTA) (DLTA) (PI) (PI)
                 (SG) (PI) (PI) (PI) (PI) (SG) (SG) (PI) (PI) (SG)
                 (DLTA) (DLTA) (SG) (PI) (PI) (SG) (PI) (PI) (SG)
                 (PI) (PI) (SG) (PI) (PI) (SG) (SG) (DLTA) (DLTA)
                 (SG) (SG) (SG) (DLTA) (DLTA) (PI) (PI) (DLTA)
                 (DLTA) (SG) (PI) (PI) (DLTA) (DLTA) (PI) (PI)
                 (SG) (PI) (PI) (DLTA) (DLTA) (SG) (PHI) (PHI)
                 (PI) (PI) (SG) (PI) (PI) (PHI) (PHI) (DLTA) (DLTA)
                 (PI) (PI) (PHI) (PHI) (PI) (PI) (SG) (PI) (PI)
                 (SG) (PHI) (PHI) (SG) (DLTA) (DLTA) (SG) (PI)
                 (PI) (SG) (SG) (DLTA) (DLTA) (SG) (PI) (PI) (PI)
                 (PI) (SG) (SG) (PI) (PI) (SG) (DLTA) (DLTA) (DLTA)
                 (DLTA) (DLTA) (DLTA) (DLTA) (DLTA) (PI) (PI) (PI)
                 (PI) (SG) (PI) (PI) (PI) (PI) (SG) (SG) (SG) (SG)
                 (SG) (SG) (SG)
 The electronic state of the initial guess is 1-SG.
 Leave Link  401 at Mon Jun 20 13:40:16 2016, MaxMem=    33554432 cpu:         1.9
 (Enter /home/proyectos/fulerenos/M3C-v1.9/M3C-deps_CCC/g09-AM64L-G09RevC.01/l502.exe)
 Closed shell SCF:
 Using DIIS extrapolation, IDIIS=  1040.
 Integral symmetry usage will be decided dynamically.
 IVT=      129486 IEndB=      129486 NGot=    33554432 MDV=    33477877
 LenX=    33477877 LenY=    33441336
 Requested convergence on RMS density matrix=1.00D-08 within 128 cycles.
 Requested convergence on MAX density matrix=1.00D-06.
 Requested convergence on             energy=1.00D-06.
 No special actions if energy rises.
 Fock matrices will be formed incrementally for  20 cycles.

 Cycle   1  Pass 1  IDiag  1:
 FoFJK:  IHMeth= 1 ICntrl=       0 DoSepK=F KAlg= 0 I1Cent=   0 FoldK=F
 IRaf= 970000000 NMat=   1 IRICut=       1 DoRegI=T DoRafI=F ISym2E= 1.
 FoFCou: FMM=F IPFlag=           0 FMFlag=      100000 FMFlg1=           0
         NFxFlg=           0 DoJE=F BraDBF=F KetDBF=F FulRan=T
         wScrn=  0.000000 ICntrl=       0 IOpCl=  0 I1Cent=           0 NGrid=           0
         NMat0=    1 NMatS0=      1 NMatT0=    0 NMatD0=    1 NMtDS0=    0 NMtDT0=    0
 Petite list used in FoFCou.
 E= -150.744927046930    
 DIIS: error= 3.63D-02 at cycle   1 NSaved=   1.
 NSaved= 1 IEnMin= 1 EnMin= -150.744927046930     IErMin= 1 ErrMin= 3.63D-02
 ErrMax= 3.63D-02  0.00D+00 EMaxC= 1.00D-01 BMatC= 1.13D-01 BMatP= 1.13D-01
 IDIUse=3 WtCom= 6.37D-01 WtEn= 3.63D-01
 Coeff-Com:  0.100D+01
 Coeff-En:   0.100D+01
 Coeff:      0.100D+01
 Gap=     0.085 Goal=   None    Shift=    0.000
 GapD=    0.085 DampG=0.500 DampE=0.500 DampFc=0.2500 IDamp=-1.
 Damping current iteration by 2.50D-01
 RMSDP=1.12D-02 MaxDP=4.27D-01              OVMax= 6.13D-01

 Cycle   2  Pass 1  IDiag  1:
 RMSU=  2.20D-03    CP:  9.41D-01
 E= -150.743570147045     Delta-E=        0.001356899885 Rises=F Damp=T
 DIIS: error= 1.71D-02 at cycle   2 NSaved=   2.
 NSaved= 2 IEnMin= 1 EnMin= -150.744927046930     IErMin= 2 ErrMin= 1.71D-02
 ErrMax= 1.71D-02  0.00D+00 EMaxC= 1.00D-01 BMatC= 3.25D-02 BMatP= 1.13D-01
 IDIUse=3 WtCom= 8.29D-01 WtEn= 1.71D-01
 Coeff-Com: -0.710D-01 0.107D+01
 Coeff-En:   0.508D+00 0.492D+00
 Coeff:      0.278D-01 0.972D+00
 Gap=     0.081 Goal=   None    Shift=    0.000
 RMSDP=6.46D-03 MaxDP=2.81D-01 DE= 1.36D-03 OVMax= 6.71D-01

 Cycle   3  Pass 1  IDiag  1:
 RMSU=  6.05D-03    CP:  8.84D-01  1.70D+00
 E= -150.684549810562     Delta-E=        0.059020336482 Rises=F Damp=F
 DIIS: error= 5.74D-02 at cycle   3 NSaved=   3.
 NSaved= 3 IEnMin= 1 EnMin= -150.744927046930     IErMin= 2 ErrMin= 1.71D-02
 ErrMax= 5.74D-02  0.00D+00 EMaxC= 1.00D-01 BMatC= 1.59D-01 BMatP= 3.25D-02
 IDIUse=2 WtCom= 0.00D+00 WtEn= 1.00D+00
 EnCoef did     1 forward-backward iterations
 Coeff-En:   0.103D+00 0.540D+00 0.357D+00
 Coeff:      0.103D+00 0.540D+00 0.357D+00
 Gap=     0.141 Goal=   None    Shift=    0.000
 RMSDP=4.35D-03 MaxDP=1.34D-01 DE= 5.90D-02 OVMax= 4.24D-01

 Cycle   4  Pass 1  IDiag  1:
 RMSU=  2.56D-03    CP:  8.36D-01  2.76D+00  6.37D-01
 E= -150.668811740863     Delta-E=        0.015738069699 Rises=F Damp=F
 DIIS: error= 6.30D-02 at cycle   4 NSaved=   4.
 NSaved= 4 IEnMin= 1 EnMin= -150.744927046930     IErMin= 2 ErrMin= 1.71D-02
 ErrMax= 6.30D-02  0.00D+00 EMaxC= 1.00D-01 BMatC= 1.85D-01 BMatP= 3.25D-02
 IDIUse=2 WtCom= 0.00D+00 WtEn= 1.00D+00
 Coeff-En:   0.000D+00 0.000D+00 0.512D+00 0.488D+00
 Coeff:      0.000D+00 0.000D+00 0.512D+00 0.488D+00
 Gap=     0.121 Goal=   None    Shift=    0.000
 RMSDP=7.48D-03 MaxDP=3.59D-01 DE= 1.57D-02 OVMax= 2.37D-01

 Cycle   5  Pass 1  IDiag  1:
 RMSU=  4.62D-03    CP:  9.80D-01  2.15D+00  1.09D-01  1.57D-01
 E= -150.862191675463     Delta-E=       -0.193379934600 Rises=F Damp=F
 DIIS: error= 1.52D-02 at cycle   5 NSaved=   5.
 NSaved= 5 IEnMin= 5 EnMin= -150.862191675463     IErMin= 5 ErrMin= 1.52D-02
 ErrMax= 1.52D-02  0.00D+00 EMaxC= 1.00D-01 BMatC= 2.73D-02 BMatP= 3.25D-02
 IDIUse=3 WtCom= 8.48D-01 WtEn= 1.52D-01
 EnCoef did     8 forward-backward iterations
 Coeff-Com: -0.481D-02 0.684D-01 0.239D+00 0.263D+00 0.434D+00
 Coeff-En:   0.000D+00 0.000D+00 0.733D-01 0.151D+00 0.775D+00
 Coeff:     -0.408D-02 0.580D-01 0.214D+00 0.246D+00 0.486D+00
 Gap=     0.170 Goal=   None    Shift=    0.000
 RMSDP=3.33D-03 MaxDP=1.52D-01 DE=-1.93D-01 OVMax= 6.78D-02

 Cycle   6  Pass 1  IDiag  1:
 RMSU=  1.13D-03    CP:  9.42D-01  2.01D+00  4.87D-01  2.99D-01  6.17D-01
 E= -150.888611464735     Delta-E=       -0.026419789272 Rises=F Damp=F
 DIIS: error= 3.35D-03 at cycle   6 NSaved=   6.
 NSaved= 6 IEnMin= 6 EnMin= -150.888611464735     IErMin= 6 ErrMin= 3.35D-03
 ErrMax= 3.35D-03  0.00D+00 EMaxC= 1.00D-01 BMatC= 1.44D-03 BMatP= 2.73D-02
 IDIUse=3 WtCom= 9.67D-01 WtEn= 3.35D-02
 Coeff-Com: -0.771D-02-0.552D-02-0.123D-01 0.427D-01 0.205D+00 0.778D+00
 Coeff-En:   0.000D+00 0.000D+00 0.000D+00 0.000D+00 0.000D+00 0.100D+01
 Coeff:     -0.745D-02-0.534D-02-0.119D-01 0.413D-01 0.198D+00 0.785D+00
 Gap=     0.157 Goal=   None    Shift=    0.000
 RMSDP=7.31D-04 MaxDP=3.11D-02 DE=-2.64D-02 OVMax= 2.07D-02

 Cycle   7  Pass 1  IDiag  1:
 RMSU=  1.58D-04    CP:  9.41D-01  2.12D+00  3.98D-01  3.06D-01  6.94D-01
                    CP:  8.29D-01
 E= -150.890473018071     Delta-E=       -0.001861553336 Rises=F Damp=F
 DIIS: error= 6.98D-04 at cycle   7 NSaved=   7.
 NSaved= 7 IEnMin= 7 EnMin= -150.890473018071     IErMin= 7 ErrMin= 6.98D-04
 ErrMax= 6.98D-04  0.00D+00 EMaxC= 1.00D-01 BMatC= 1.85D-05 BMatP= 1.44D-03
 IDIUse=3 WtCom= 9.93D-01 WtEn= 6.98D-03
 Coeff-Com: -0.321D-02 0.388D-02-0.951D-03-0.368D-02 0.173D-01 0.122D+00
 Coeff-Com:  0.865D+00
 Coeff-En:   0.000D+00 0.000D+00 0.000D+00 0.000D+00 0.000D+00 0.000D+00
 Coeff-En:   0.100D+01
 Coeff:     -0.319D-02 0.385D-02-0.945D-03-0.365D-02 0.172D-01 0.121D+00
 Coeff:      0.866D+00
 Gap=     0.157 Goal=   None    Shift=    0.000
 RMSDP=5.44D-05 MaxDP=2.40D-03 DE=-1.86D-03 OVMax= 3.47D-03

 Cycle   8  Pass 1  IDiag  1:
 RMSU=  2.63D-05    CP:  9.41D-01  2.11D+00  4.02D-01  2.97D-01  6.95D-01
                    CP:  8.46D-01  9.16D-01
 E= -150.890498156706     Delta-E=       -0.000025138634 Rises=F Damp=F
 DIIS: error= 1.85D-04 at cycle   8 NSaved=   8.
 NSaved= 8 IEnMin= 8 EnMin= -150.890498156706     IErMin= 8 ErrMin= 1.85D-04
 ErrMax= 1.85D-04  0.00D+00 EMaxC= 1.00D-01 BMatC= 1.18D-06 BMatP= 1.85D-05
 IDIUse=3 WtCom= 9.98D-01 WtEn= 1.85D-03
 Coeff-Com: -0.250D-02 0.358D-02-0.320D-03-0.971D-04-0.403D-02-0.191D-01
 Coeff-Com: -0.679D-02 0.103D+01
 Coeff-En:   0.000D+00 0.000D+00 0.000D+00 0.000D+00 0.000D+00 0.000D+00
 Coeff-En:   0.842D-01 0.916D+00
 Coeff:     -0.250D-02 0.357D-02-0.320D-03-0.969D-04-0.403D-02-0.191D-01
 Coeff:     -0.662D-02 0.103D+01
 Gap=     0.157 Goal=   None    Shift=    0.000
 RMSDP=1.28D-05 MaxDP=5.18D-04 DE=-2.51D-05 OVMax= 4.13D-04

 Cycle   9  Pass 1  IDiag  1:
 RMSU=  6.66D-06    CP:  9.41D-01  2.11D+00  4.01D-01  2.98D-01  6.95D-01
                    CP:  8.47D-01  9.35D-01  1.19D+00
 E= -150.890499691502     Delta-E=       -0.000001534797 Rises=F Damp=F
 DIIS: error= 6.21D-05 at cycle   9 NSaved=   9.
 NSaved= 9 IEnMin= 9 EnMin= -150.890499691502     IErMin= 9 ErrMin= 6.21D-05
 ErrMax= 6.21D-05  0.00D+00 EMaxC= 1.00D-01 BMatC= 1.76D-07 BMatP= 1.18D-06
 IDIUse=1 WtCom= 1.00D+00 WtEn= 0.00D+00
 Coeff-Com: -0.118D-02 0.169D-02 0.468D-04 0.883D-04 0.192D-03-0.277D-02
 Coeff-Com: -0.250D-01-0.210D+00 0.124D+01
 Coeff:     -0.118D-02 0.169D-02 0.468D-04 0.883D-04 0.192D-03-0.277D-02
 Coeff:     -0.250D-01-0.210D+00 0.124D+01
 Gap=     0.157 Goal=   None    Shift=    0.000
 RMSDP=5.64D-06 MaxDP=2.80D-04 DE=-1.53D-06 OVMax= 1.40D-04

 Cycle  10  Pass 1  IDiag  1:
 RMSU=  7.91D-07    CP:  9.41D-01  2.11D+00  4.01D-01  2.98D-01  6.95D-01
                    CP:  8.48D-01  9.40D-01  1.24D+00  1.16D+00
 E= -150.890499921200     Delta-E=       -0.000000229698 Rises=F Damp=F
 DIIS: error= 3.04D-05 at cycle  10 NSaved=  10.
 NSaved=10 IEnMin=10 EnMin= -150.890499921200     IErMin=10 ErrMin= 3.04D-05
 ErrMax= 3.04D-05  0.00D+00 EMaxC= 1.00D-01 BMatC= 3.31D-08 BMatP= 1.76D-07
 IDIUse=1 WtCom= 1.00D+00 WtEn= 0.00D+00
 Coeff-Com: -0.661D-04 0.868D-04-0.328D-04 0.544D-04 0.433D-03 0.686D-03
 Coeff-Com:  0.764D-02-0.864D-01-0.257D+00 0.133D+01
 Coeff:     -0.661D-04 0.868D-04-0.328D-04 0.544D-04 0.433D-03 0.686D-03
 Coeff:      0.764D-02-0.864D-01-0.257D+00 0.133D+01
 Gap=     0.157 Goal=   None    Shift=    0.000
 RMSDP=3.53D-06 MaxDP=1.61D-04 DE=-2.30D-07 OVMax= 1.19D-04

 Cycle  11  Pass 1  IDiag  1:
 RMSU=  2.22D-07    CP:  9.41D-01  2.11D+00  4.00D-01  2.98D-01  6.96D-01
                    CP:  8.48D-01  9.43D-01  1.25D+00  1.23D+00  1.47D+00
 E= -150.890499976968     Delta-E=       -0.000000055768 Rises=F Damp=F
 DIIS: error= 1.12D-06 at cycle  11 NSaved=  11.
 NSaved=11 IEnMin=11 EnMin= -150.890499976968     IErMin=11 ErrMin= 1.12D-06
 ErrMax= 1.12D-06  0.00D+00 EMaxC= 1.00D-01 BMatC= 5.75D-11 BMatP= 3.31D-08
 IDIUse=1 WtCom= 1.00D+00 WtEn= 0.00D+00
 Coeff-Com:  0.144D-05-0.288D-05-0.737D-06 0.379D-05 0.740D-05-0.328D-04
 Coeff-Com:  0.309D-03 0.660D-02-0.938D-03-0.609D-01 0.105D+01
 Coeff:      0.144D-05-0.288D-05-0.737D-06 0.379D-05 0.740D-05-0.328D-04
 Coeff:      0.309D-03 0.660D-02-0.938D-03-0.609D-01 0.105D+01
 Gap=     0.157 Goal=   None    Shift=    0.000
 RMSDP=2.06D-07 MaxDP=7.68D-06 DE=-5.58D-08 OVMax= 5.61D-06

 Cycle  12  Pass 1  IDiag  1:
 RMSU=  2.48D-08    CP:  9.41D-01  2.11D+00  4.00D-01  2.98D-01  6.96D-01
                    CP:  8.48D-01  9.43D-01  1.25D+00  1.22D+00  1.50D+00
                    CP:  1.17D+00
 E= -150.890499977063     Delta-E=       -0.000000000094 Rises=F Damp=F
 DIIS: error= 4.36D-08 at cycle  12 NSaved=  12.
 NSaved=12 IEnMin=12 EnMin= -150.890499977063     IErMin=12 ErrMin= 4.36D-08
 ErrMax= 4.36D-08  0.00D+00 EMaxC= 1.00D-01 BMatC= 1.27D-13 BMatP= 5.75D-11
 IDIUse=1 WtCom= 1.00D+00 WtEn= 0.00D+00
 Coeff-Com:  0.582D-06-0.845D-06 0.294D-06 0.163D-06-0.176D-05-0.995D-05
 Coeff-Com: -0.600D-04 0.164D-03 0.336D-02-0.102D-01 0.600D-01 0.947D+00
 Coeff:      0.582D-06-0.845D-06 0.294D-06 0.163D-06-0.176D-05-0.995D-05
 Coeff:     -0.600D-04 0.164D-03 0.336D-02-0.102D-01 0.600D-01 0.947D+00
 Gap=     0.157 Goal=   None    Shift=    0.000
 RMSDP=7.55D-09 MaxDP=2.99D-07 DE=-9.44D-11 OVMax= 1.52D-07

 SCF Done:  E(RB3LYP) =  -150.890499977     A.U. after   12 cycles
            NFock= 12  Conv=0.76D-08     -V/T= 2.0041
 KE= 1.502778554798D+02 PE=-4.617476587144D+02 EE= 9.580699298014D+01
 Leave Link  502 at Mon Jun 20 13:40:47 2016, MaxMem=    33554432 cpu:       114.4
 (Enter /home/proyectos/fulerenos/M3C-v1.9/M3C-deps_CCC/g09-AM64L-G09RevC.01/l801.exe)
 DoSCS=F DFT=T ScalE2(SS,OS)=  1.000000  1.000000
 Range of M.O.s used for correlation:     1   165
 NBasis=   166 NAE=    11 NBE=    11 NFC=     0 NFV=     0
 NROrb=    165 NOA=    11 NOB=    11 NVA=   154 NVB=   154

 **** Warning!!: The largest alpha MO coefficient is  0.18585414D+03

 Leave Link  801 at Mon Jun 20 13:40:47 2016, MaxMem=    33554432 cpu:         0.1
 (Enter /home/proyectos/fulerenos/M3C-v1.9/M3C-deps_CCC/g09-AM64L-G09RevC.01/l1101.exe)
 Using compressed storage, NAtomX=     5.
 Will process      6 centers per pass.
 Leave Link 1101 at Mon Jun 20 13:40:47 2016, MaxMem=    33554432 cpu:         0.9
 (Enter /home/proyectos/fulerenos/M3C-v1.9/M3C-deps_CCC/g09-AM64L-G09RevC.01/l1102.exe)
 Symmetrizing basis deriv contribution to polar:
 IMax=3 JMax=2 DiffMx= 0.00D+00
 Leave Link 1102 at Mon Jun 20 13:40:47 2016, MaxMem=    33554432 cpu:         0.1
 (Enter /home/proyectos/fulerenos/M3C-v1.9/M3C-deps_CCC/g09-AM64L-G09RevC.01/l1110.exe)
 Forming Gx(P) for the SCF density, NAtomX=     5.
 Integral derivatives from FoFJK, PRISM(SPDF).
 Do as many integral derivatives as possible in FoFJK.
 G2DrvN: MDV=      33554288.
 G2DrvN: will do     6 centers at a time, making    1 passes.
 Calling FoFCou, ICntrl=  3107 FMM=F I1Cent=   0 AccDes= 0.00D+00.
 FoFJK:  IHMeth= 1 ICntrl=    3107 DoSepK=F KAlg= 0 I1Cent=   0 FoldK=F
 IRaf=         0 NMat=   1 IRICut=       1 DoRegI=T DoRafI=F ISym2E= 1.
 FoFCou: FMM=F IPFlag=           0 FMFlag=      100000 FMFlg1=           0
         NFxFlg=           0 DoJE=F BraDBF=F KetDBF=F FulRan=T
         wScrn=  0.000000 ICntrl=    3107 IOpCl=  0 I1Cent=           0 NGrid=           0
         NMat0=    1 NMatS0=      1 NMatT0=    0 NMatD0=    1 NMtDS0=    0 NMtDT0=    0
 Petite list used in FoFCou.
 End of G2Drv F.D. properties file   721 does not exist.
 End of G2Drv F.D. properties file   722 does not exist.
 End of G2Drv F.D. properties file   788 does not exist.
 Leave Link 1110 at Mon Jun 20 13:41:01 2016, MaxMem=    33554432 cpu:        54.5
 (Enter /home/proyectos/fulerenos/M3C-v1.9/M3C-deps_CCC/g09-AM64L-G09RevC.01/l1002.exe)
 Minotr:  Closed shell wavefunction.
          IDoAtm=11111
          Direct CPHF calculation.
          Differentiating once with respect to electric field.
                with respect to dipole field.
          Differentiating once with respect to nuclear coordinates.
          Using symmetry in CPHF.
          Requested convergence is 1.0D-08 RMS, and 1.0D-07 maximum.
          Secondary convergence is 1.0D-12 RMS, and 1.0D-12 maximum.
          NewPWx=T KeepS1=F KeepF1=F KeepIn=T MapXYZ=F SortEE=F KeepMc=T.
          MDV=      33554213 using IRadAn=       2.
 Generate precomputed XC quadrature information.
          Solving linear equations simultaneously, MaxMat=       0.
 FoFJK:  IHMeth= 1 ICntrl=       0 DoSepK=F KAlg= 0 I1Cent=   0 FoldK=F
 IRaf= 970000000 NMat=  18 IRICut=      45 DoRegI=T DoRafI=T ISym2E= 2.
 FoFCou: FMM=F IPFlag=           0 FMFlag=      100000 FMFlg1=           0
         NFxFlg=           0 DoJE=F BraDBF=F KetDBF=F FulRan=T
         wScrn=  0.000000 ICntrl=       0 IOpCl=  0 I1Cent=           0 NGrid=           0
         NMat0=   18 NMatS0=     18 NMatT0=    0 NMatD0=   18 NMtDS0=    0 NMtDT0=    0
 Integrals replicated using symmetry in FoFCou.
          There are    18 degrees of freedom in the 1st order CPHF.  IDoFFX=6 NUNeed=     3.
     16 vectors produced by pass  0 Test12= 9.41D-15 5.56D-09 XBig12= 3.17D+02 1.21D+01.
 AX will form    16 AO Fock derivatives at one time.
     15 vectors produced by pass  1 Test12= 9.41D-15 5.56D-09 XBig12= 1.87D+02 7.14D+00.
     15 vectors produced by pass  2 Test12= 9.41D-15 5.56D-09 XBig12= 7.53D-01 2.18D-01.
     15 vectors produced by pass  3 Test12= 9.41D-15 5.56D-09 XBig12= 3.72D-03 1.76D-02.
     15 vectors produced by pass  4 Test12= 9.41D-15 5.56D-09 XBig12= 4.86D-06 4.04D-04.
     15 vectors produced by pass  5 Test12= 9.41D-15 5.56D-09 XBig12= 1.43D-08 2.82D-05.
      6 vectors produced by pass  6 Test12= 9.41D-15 5.56D-09 XBig12= 1.45D-10 5.38D-06.
      2 vectors produced by pass  7 Test12= 9.41D-15 5.56D-09 XBig12= 6.37D-13 1.86D-07.
      1 vectors produced by pass  8 Test12= 9.41D-15 5.56D-09 XBig12= 2.80D-14 4.77D-08.
 InvSVY:  IOpt=1 It=  1 EMax= 3.55D-15
 Solved reduced A of dimension   100 with    18 vectors.
 FullF1:  Do perturbations    1 to     3.
 Isotropic polarizability for W=    0.000000       35.98 Bohr**3.
 End of Minotr F.D. properties file   721 does not exist.
 End of Minotr F.D. properties file   722 does not exist.
 End of Minotr F.D. properties file   788 does not exist.
 Leave Link 1002 at Mon Jun 20 13:41:44 2016, MaxMem=    33554432 cpu:       166.3
 (Enter /home/proyectos/fulerenos/M3C-v1.9/M3C-deps_CCC/g09-AM64L-G09RevC.01/l601.exe)
 Copying SCF densities to generalized density rwf, IOpCl= 0 IROHF=0.

 **********************************************************************

            Population analysis using the SCF density.

 **********************************************************************

 Orbital symmetries:
       Occupied  (SG) (SG) (SG) (SG) (SG) (SG) (SG) (SG) (SG) (PI)
                 (PI)
       Virtual   (PI) (PI) (PI) (PI) (SG) (PI) (PI) (SG) (SG) (SG)
                 (PI) (PI) (SG) (DLTA) (DLTA) (PI) (PI) (SG) (PI)
                 (PI) (DLTA) (DLTA) (SG) (PI) (PI) (SG) (SG) (SG)
                 (DLTA) (DLTA) (PI) (PI) (SG) (PI) (PI) (SG) (PI)
                 (PI) (SG) (SG) (PI) (PI) (PI) (PI) (DLTA) (DLTA)
                 (SG) (SG) (SG) (SG) (PI) (PI) (SG) (PI) (PI) (PI)
                 (PI) (SG) (SG) (SG) (PI) (PI) (DLTA) (DLTA) (SG)
                 (SG) (SG) (DLTA) (DLTA) (DLTA) (DLTA) (SG) (PI)
                 (PI) (SG) (PI) (PI) (DLTA) (DLTA) (PI) (PI) (SG)
                 (PI) (PI) (DLTA) (DLTA) (SG) (PHI) (PHI) (PI)
                 (PI) (SG) (PI) (PI) (PHI) (PHI) (DLTA) (DLTA)
                 (PHI) (PHI) (PI) (PI) (PI) (PI) (SG) (SG) (PI)
                 (PI) (PHI) (PHI) (SG) (DLTA) (DLTA) (SG) (PI)
                 (PI) (SG) (SG) (DLTA) (DLTA) (PI) (PI) (SG) (PI)
                 (PI) (SG) (SG) (PI) (PI) (SG) (DLTA) (DLTA) (DLTA)
                 (DLTA) (DLTA) (DLTA) (PI) (PI) (DLTA) (DLTA) (SG)
                 (PI) (PI) (PI) (PI) (PI) (PI) (SG) (SG) (SG) (SG)
                 (SG) (SG) (SG)
 The electronic state is 1-SG.
 Alpha  occ. eigenvalues --  -11.25778 -11.16241 -11.11807 -11.03713  -1.62489
 Alpha  occ. eigenvalues --   -1.53675  -1.45406  -1.29867  -1.14839  -1.13957
 Alpha  occ. eigenvalues --   -1.13957
 Alpha virt. eigenvalues --   -0.98283  -0.98283  -0.89214  -0.89214  -0.74149
 Alpha virt. eigenvalues --   -0.67929  -0.67929  -0.59623  -0.53209  -0.45103
 Alpha virt. eigenvalues --   -0.43148  -0.43148  -0.42331  -0.38738  -0.38737
 Alpha virt. eigenvalues --   -0.37141  -0.37141  -0.35316  -0.31543  -0.31543
 Alpha virt. eigenvalues --   -0.29461  -0.29461  -0.25796  -0.25272  -0.25272
 Alpha virt. eigenvalues --   -0.24036  -0.23005  -0.18579  -0.17173  -0.17172
 Alpha virt. eigenvalues --   -0.16275  -0.16275  -0.15473  -0.11996  -0.11996
 Alpha virt. eigenvalues --   -0.11928  -0.07457  -0.07457  -0.06842  -0.04738
 Alpha virt. eigenvalues --   -0.03054  -0.03054  -0.02449  -0.02449   0.01697
 Alpha virt. eigenvalues --    0.01700   0.03891   0.04927   0.07049   0.13195
 Alpha virt. eigenvalues --    0.19108   0.19108   0.19484   0.20035   0.20035
 Alpha virt. eigenvalues --    0.38747   0.38747   0.40611   0.50866   0.56376
 Alpha virt. eigenvalues --    0.58217   0.58217   0.65297   0.65297   0.70055
 Alpha virt. eigenvalues --    0.72155   0.75924   0.77041   0.77041   0.84587
 Alpha virt. eigenvalues --    0.84587   0.86711   0.87318   0.87318   0.97326
 Alpha virt. eigenvalues --    1.02389   1.02389   1.05734   1.05735   1.10924
 Alpha virt. eigenvalues --    1.10924   1.52889   1.56601   1.56601   1.65995
 Alpha virt. eigenvalues --    1.65995   1.79532   1.79947   1.79947   1.84557
 Alpha virt. eigenvalues --    1.84557   1.88729   1.90888   1.90888   1.96755
 Alpha virt. eigenvalues --    1.96755   2.01025   2.01025   2.03854   2.03854
 Alpha virt. eigenvalues --    2.08901   2.08901   2.12383   2.12383   2.16407
 Alpha virt. eigenvalues --    2.25807   2.27039   2.27039   2.29371   2.29371
 Alpha virt. eigenvalues --    2.39095   2.39862   2.39862   2.70445   2.75308
 Alpha virt. eigenvalues --    2.75308   2.83102   3.15276   3.21862   3.21862
 Alpha virt. eigenvalues --    3.40384   3.40384   3.41229   3.88014   3.88014
 Alpha virt. eigenvalues --    4.29947   4.55830   5.02902   5.02902   5.17468
 Alpha virt. eigenvalues --    5.99493   5.99494   6.05386   6.05387   6.14293
 Alpha virt. eigenvalues --    6.14293   6.22718   6.22718   6.26618   6.26620
 Alpha virt. eigenvalues --    6.41668   6.41946   6.41946   6.51897   6.51897
 Alpha virt. eigenvalues --    6.79289   6.79289   6.87017   7.51316   7.72889
 Alpha virt. eigenvalues --   22.72280  22.87317  25.06126  25.60084
          Condensed to atoms (all electrons):
               1          2          3          4          5
     1  C    5.696970  -0.259684  -0.710035   0.385775  -0.001273
     2  C   -0.259684   6.699101  -1.110139   0.183859  -0.010075
     3  C   -0.710035  -1.110139  10.600297  -3.459834   0.059563
     4  C    0.385775   0.183859  -3.459834   8.207203   0.220613
     5  H   -0.001273  -0.010075   0.059563   0.220613   0.198891
 Mulliken charges:
               1
     1  C    0.888247
     2  C    0.496938
     3  C    0.620149
     4  C    0.462384
     5  H    0.532282
 Sum of Mulliken charges =   3.00000
 Mulliken charges with hydrogens summed into heavy atoms:
               1
     1  C    0.888247
     2  C    0.496938
     3  C    0.620149
     4  C    0.994666
 APT charges:
               1
     1  C    1.587993
     2  C    0.212639
     3  C   -0.541145
     4  C    1.178025
     5  H    0.562488
 Sum of APT charges =   3.00000
 APT charges with hydrogens summed into heavy atoms:
               1
     1  C    1.587993
     2  C    0.212639
     3  C   -0.541145
     4  C    1.740513
 Electronic spatial extent (au):  <R**2>=            236.5713
 Charge=              3.0000 electrons
 Dipole moment (field-independent basis, Debye):
    X=              0.0000    Y=             -0.0000    Z=             -0.7100  Tot=              0.7100
 Quadrupole moment (field-independent basis, Debye-Ang):
   XX=            -15.3018   YY=            -15.3018   ZZ=             44.0356
   XY=             -0.0000   XZ=             -0.0000   YZ=              0.0000
 Traceless Quadrupole moment (field-independent basis, Debye-Ang):
   XX=            -19.7791   YY=            -19.7791   ZZ=             39.5583
   XY=             -0.0000   XZ=             -0.0000   YZ=              0.0000
 Octapole moment (field-independent basis, Debye-Ang**2):
  XXX=              0.0000  YYY=             -0.0000  ZZZ=            -30.4416  XYY=              0.0000
  XXY=             -0.0000  XXZ=              0.2755  XZZ=              0.0000  YZZ=             -0.0000
  YYZ=              0.2755  XYZ=              0.0000
 Hexadecapole moment (field-independent basis, Debye-Ang**3):
 XXXX=            -12.6759 YYYY=            -12.6759 ZZZZ=            107.5582 XXXY=             -0.0000
 XXXZ=             -0.0000 YYYX=             -0.0000 YYYZ=              0.0000 ZZZX=             -0.0000
 ZZZY=              0.0000 XXYY=             -4.2253 XXZZ=            -40.8335 YYZZ=            -40.8335
 XXYZ=              0.0000 YYXZ=             -0.0000 ZZXY=             -0.0000
 N-N= 6.477231027744D+01 E-N=-4.617476596377D+02  KE= 1.502778554798D+02
 Symmetry A1   KE= 1.452538055680D+02
 Symmetry A2   KE= 4.504172982524D-38
 Symmetry B1   KE= 2.512024955873D+00
 Symmetry B2   KE= 2.512024955873D+00
  Exact polarizability:  17.271   0.000  17.271  -0.001   0.001  73.412
 Approx polarizability:  25.535  -0.000  25.535  -0.000  -0.000 220.436
 No NMR shielding tensors so no spin-rotation constants.
 Leave Link  601 at Mon Jun 20 13:41:44 2016, MaxMem=    33554432 cpu:         1.3
 (Enter /home/proyectos/fulerenos/M3C-v1.9/M3C-deps_CCC/g09-AM64L-G09RevC.01/l701.exe)
 Compute integral second derivatives.
 ... and contract with generalized density number  0.
 Leave Link  701 at Mon Jun 20 13:41:45 2016, MaxMem=    33554432 cpu:         2.0
 (Enter /home/proyectos/fulerenos/M3C-v1.9/M3C-deps_CCC/g09-AM64L-G09RevC.01/l702.exe)
 L702 exits ... SP integral derivatives will be done elsewhere.
 Leave Link  702 at Mon Jun 20 13:41:45 2016, MaxMem=    33554432 cpu:         0.1
 (Enter /home/proyectos/fulerenos/M3C-v1.9/M3C-deps_CCC/g09-AM64L-G09RevC.01/l703.exe)
 Compute integral second derivatives, UseDBF=F ICtDFT=           0.
 Integral derivatives from FoFJK, PRISM(SPDF).
 Calling FoFJK, ICntrl=    100127 FMM=F ISym2X=1 I1Cent= 0 IOpClX= 0 NMat=1 NMatS=1 NMatT=0.
 FoFJK:  IHMeth= 1 ICntrl=  100127 DoSepK=F KAlg= 0 I1Cent=   0 FoldK=F
 IRaf=         0 NMat=   1 IRICut=       1 DoRegI=T DoRafI=F ISym2E= 1.
 FoFCou: FMM=F IPFlag=           0 FMFlag=      100000 FMFlg1=         800
         NFxFlg=           0 DoJE=F BraDBF=F KetDBF=F FulRan=T
         wScrn=  0.000000 ICntrl=  100127 IOpCl=  0 I1Cent=           0 NGrid=           0
         NMat0=    1 NMatS0=      1 NMatT0=    0 NMatD0=    1 NMtDS0=    0 NMtDT0=    0
 Petite list used in FoFCou.
 Leave Link  703 at Mon Jun 20 13:42:20 2016, MaxMem=    33554432 cpu:       134.7
 (Enter /home/proyectos/fulerenos/M3C-v1.9/M3C-deps_CCC/g09-AM64L-G09RevC.01/l716.exe)
 Dipole        = 9.04747881D-20-3.99203388D-20-2.79327775D-01
 Polarizability= 1.72713328D+01 1.22543518D-05 1.72713030D+01
                -1.15990683D-03 1.13256734D-03 7.34121759D+01
 Full mass-weighted force constant matrix:
 Low frequencies ---   -1.7096   -1.6997    0.0009    0.0010    0.0011  171.1235
 Low frequencies ---  171.1236  346.2596  346.2600
 Diagonal vibrational polarizability:
       29.6913929      29.6914540      73.2392838
 Harmonic frequencies (cm**-1), IR intensities (KM/Mole), Raman scattering
 activities (A**4/AMU), depolarization ratios for plane and unpolarized
 incident light, reduced masses (AMU), force constants (mDyne/A),
 and normal coordinates:
                      1                      2                      3
                     PI                     PI                     PI
 Frequencies --    171.1233               171.1234               346.2584
 Red. masses --      4.9168                 4.9169                 6.7612
 Frc consts  --      0.0848                 0.0848                 0.4776
 IR Inten    --     28.1618                28.1619                14.6638
  Atom  AN      X      Y      Z        X      Y      Z        X      Y      Z
     1   6    -0.24   0.19   0.00    -0.19  -0.24   0.00    -0.02  -0.15   0.00
     2   6     0.25  -0.20  -0.00     0.20   0.25  -0.00     0.06   0.51  -0.00
     3   6     0.24  -0.19  -0.00     0.19   0.24  -0.00    -0.06  -0.48  -0.00
     4   6    -0.20   0.16   0.00    -0.16  -0.20   0.00     0.01   0.06  -0.00
     5   1    -0.62   0.51   0.00    -0.51  -0.62   0.00     0.08   0.69   0.00
                      4                      5                      6
                     PI                     SG                     PI
 Frequencies --    346.2588               545.4022               848.6988
 Red. masses --      6.7611                11.1994                 1.3895
 Frc consts  --      0.4776                 1.9628                 0.5897
 IR Inten    --     14.6639               553.2993                13.9010
  Atom  AN      X      Y      Z        X      Y      Z        X      Y      Z
     1   6    -0.15   0.02  -0.00     0.00   0.00   0.84    -0.00  -0.00  -0.00
     2   6     0.51  -0.06   0.00    -0.00  -0.00  -0.19    -0.00  -0.01  -0.00
     3   6    -0.48   0.06   0.00    -0.00   0.00  -0.31     0.03   0.09  -0.00
     4   6     0.06  -0.01   0.00    -0.00   0.00  -0.31    -0.05  -0.16   0.00
     5   1     0.69  -0.08  -0.00     0.00  -0.00  -0.27     0.28   0.94   0.00
                      7                      8                      9
                     PI                     SG                     SG
 Frequencies --    848.6990              1207.3089              2097.7430
 Red. masses --      1.3895                 6.2516                 6.0997
 Frc consts  --      0.5897                 5.3688                15.8148
 IR Inten    --     13.9011               966.0057               577.0937
  Atom  AN      X      Y      Z        X      Y      Z        X      Y      Z
     1   6    -0.00   0.00  -0.00     0.00  -0.00   0.04    -0.00  -0.00   0.04
     2   6    -0.01   0.00  -0.00    -0.00  -0.00  -0.47     0.00   0.00  -0.38
     3   6     0.09  -0.03  -0.00    -0.00   0.00  -0.12     0.00  -0.00   0.54
     4   6    -0.16   0.05   0.00     0.00  -0.00   0.49    -0.00   0.00  -0.14
     5   1     0.94  -0.28   0.00    -0.00   0.00   0.72     0.00  -0.00  -0.73
                     10
                     SG
 Frequencies --   2694.1117
 Red. masses --      1.2340
 Frc consts  --      5.2772
 IR Inten    --    490.4926
  Atom  AN      X      Y      Z
     1   6    -0.00  -0.00  -0.00
     2   6     0.00   0.00  -0.02
     3   6     0.00  -0.00   0.06
     4   6    -0.00   0.00  -0.13
     5   1     0.00  -0.00   0.99

 -------------------
 - Thermochemistry -
 -------------------
 Temperature   298.150 Kelvin.  Pressure   1.00000 Atm.
 Atom     1 has atomic number  6 and mass  12.00000
 Atom     2 has atomic number  6 and mass  12.00000
 Atom     3 has atomic number  6 and mass  12.00000
 Atom     4 has atomic number  6 and mass  12.00000
 Atom     5 has atomic number  1 and mass   1.00783
 Molecular mass:    49.00783 amu.
 Principal axes and moments of inertia in atomic units:
                           1         2         3
     Eigenvalues --     0.00000 459.35964 459.35964
           X            0.00000  -0.37779   0.92589
           Y           -0.00000   0.92589   0.37779
           Z            1.00000   0.00000   0.00000
 This molecule is a prolate symmetric top.
 Rotational symmetry number  1.
 Warning -- assumption of classical behavior for rotation
           may cause significant error
 Rotational temperature (Kelvin)      0.18855
 Rotational constant (GHZ):           3.928820
 Zero-point vibrational energy      55487.2 (Joules/Mol)
                                   13.26175 (Kcal/Mol)
 Warning -- explicit consideration of   5 degrees of freedom as
           vibrations may cause significant error
 Vibrational temperatures:    246.21   246.21   498.19   498.19   784.71
          (Kelvin)           1221.09  1221.09  1737.05  3018.18  3876.22
 
 Zero-point correction=                           0.021134 (Hartree/Particle)
 Thermal correction to Energy=                    0.025780
 Thermal correction to Enthalpy=                  0.026725
 Thermal correction to Gibbs Free Energy=        -0.002908
 Sum of electronic and zero-point Energies=           -150.869366
 Sum of electronic and thermal Energies=              -150.864720
 Sum of electronic and thermal Enthalpies=            -150.863775
 Sum of electronic and thermal Free Energies=         -150.893408
 
                     E (Thermal)             CV                S
                      KCal/Mol        Cal/Mol-Kelvin    Cal/Mol-Kelvin
 Total                   16.177             14.396             62.367
 Electronic               0.000              0.000              0.000
 Translational            0.889              2.981             37.592
 Rotational               0.592              1.987             16.625
 Vibrational             14.696              9.428              8.150
 Vibration     1          0.626              1.878              2.423
 Vibration     2          0.626              1.878              2.423
 Vibration     3          0.724              1.583              1.183
 Vibration     4          0.724              1.583              1.183
 Vibration     5          0.901              1.150              0.554
                       Q            Log10(Q)             Ln(Q)
 Total Bot       0.217553D+02          1.337566          3.079859
 Total V=0       0.114415D+12         11.058483         25.463098
 Vib (Bot)       0.102026D-08         -8.991288        -20.703206
 Vib (Bot)    1  0.117723D+01          0.070862          0.163167
 Vib (Bot)    2  0.117723D+01          0.070862          0.163166
 Vib (Bot)    3  0.534127D+00         -0.272356         -0.627122
 Vib (Bot)    4  0.534126D+00         -0.272356         -0.627123
 Vib (Bot)    5  0.289006D+00         -0.539094         -1.241309
 Vib (V=0)       0.536573D+01          0.729629          1.680033
 Vib (V=0)    1  0.177901D+01          0.250179          0.576059
 Vib (V=0)    2  0.177901D+01          0.250179          0.576059
 Vib (V=0)    3  0.123164D+01          0.090482          0.208344
 Vib (V=0)    4  0.123164D+01          0.090482          0.208343
 Vib (V=0)    5  0.107752D+01          0.032424          0.074658
 Electronic      0.100000D+01          0.000000          0.000000
 Translational   0.134851D+08          7.129853         16.417094
 Rotational      0.158125D+04          3.199000          7.365971
 
                                                              b3lyp opt
                                                             IR Spectrum
 
     2                            2                                         1                                                        
     6                            0                                         2               8              5        3       1        
     9                            9                                         0               4              4        4       7        
     4                            8                                         7               9              5        6       1        
 
     X                            X                                         X               X              X        X       X        
     X                            X                                         X                              X                         
     X                            X                                         X                              X                         
     X                            X                                         X                              X                         
     X                            X                                         X                              X                         
     X                            X                                         X                              X                         
     X                            X                                         X                              X                         
     X                            X                                         X                              X                         
     X                            X                                         X                              X                         
     X                            X                                         X                              X                         
                                  X                                         X                              X                         
                                  X                                         X                                                        
                                                                            X                                                        
                                                                            X                                                        
                                                                            X                                                        
                                                                            X                                                        
                                                                            X                                                        
                                                                            X                                                        
                                                                            X                                                        
                                                                            X                                                        
 
 ***** Axes restored to original set *****
 -------------------------------------------------------------------
 Center     Atomic                   Forces (Hartrees/Bohr)
 Number     Number              X              Y              Z
 -------------------------------------------------------------------
      1        6          -0.000027976   -0.000000001   -0.000000000
      2        6          -0.000342749   -0.000000016   -0.000000000
      3        6           0.000300684    0.000000014    0.000000000
      4        6           0.000053489    0.000000002    0.000000000
      5        1           0.000016553    0.000000001    0.000000000
 -------------------------------------------------------------------
 Cartesian Forces:  Max     0.000342749 RMS     0.000118829
 Z-matrix is all fixed cartesians, so copy forces.
 Force constants in Cartesian coordinates: 
                1             2             3             4             5 
      1  0.110473D+00
      2  0.497206D-05  0.515639D-02
      3 -0.385564D-05  0.000000D+00  0.515633D-02
      4 -0.112762D+00 -0.479486D-05  0.000000D+00  0.873333D+00
      5 -0.424783D-05 -0.105148D-01  0.000000D+00  0.393319D-04  0.290337D-01
      6  0.000000D+00  0.000000D+00 -0.105147D-01  0.000000D+00  0.000000D+00
      7  0.453967D-01  0.170323D-05  0.162787D-04 -0.776477D+00 -0.374971D-04
      8  0.000000D+00  0.375834D-02  0.000000D+00 -0.352533D-04 -0.228872D-01
      9  0.503579D-05  0.000000D+00  0.375830D-02  0.000000D+00  0.000000D+00
     10 -0.328412D-01 -0.145379D-05 -0.103369D-04  0.144339D-01  0.218060D-05
     11  0.000000D+00  0.184218D-02  0.000000D+00  0.000000D+00  0.409850D-02
     12 -0.340145D-05  0.000000D+00  0.184218D-02  0.000000D+00  0.000000D+00
     13 -0.102663D-01  0.000000D+00 -0.136870D-05  0.147258D-02  0.000000D+00
     14  0.000000D+00 -0.242137D-03  0.000000D+00  0.000000D+00  0.269744D-03
     15  0.127317D-05  0.000000D+00 -0.242129D-03  0.000000D+00  0.000000D+00
                6             7             8             9            10 
      6  0.290337D-01
      7 -0.490765D-05  0.132725D+01
      8  0.000000D+00  0.648270D-04  0.482265D-01
      9 -0.228873D-01 -0.196777D-04  0.000000D+00  0.482268D-01
     10  0.305350D-05 -0.627743D+00 -0.304848D-04  0.125578D-04  0.910002D+00
     11  0.000000D+00 -0.303013D-04 -0.465394D-01  0.000000D+00  0.406160D-04
     12  0.409857D-02  0.135248D-04  0.000000D+00 -0.465395D-01 -0.857519D-05
     13  0.000000D+00  0.315697D-01  0.000000D+00  0.176279D-05 -0.263852D+00
     14  0.000000D+00  0.126818D-05  0.174417D-01  0.000000D+00 -0.108579D-04
     15  0.269718D-03 -0.521811D-05  0.000000D+00  0.174417D-01  0.330086D-05
               11            12            13            14            15 
     11  0.777753D-01
     12  0.000000D+00  0.777754D-01
     13 -0.101677D-04 -0.121051D-05  0.241076D+00
     14 -0.371766D-01  0.000000D+00  0.101511D-04  0.197073D-01
     15  0.000000D+00 -0.371766D-01  0.000000D+00  0.000000D+00  0.197073D-01
 Leave Link  716 at Mon Jun 20 13:42:20 2016, MaxMem=    33554432 cpu:         0.1
 (Enter /home/proyectos/fulerenos/M3C-v1.9/M3C-deps_CCC/g09-AM64L-G09RevC.01/l103.exe)

 GradGradGradGradGradGradGradGradGradGradGradGradGradGradGradGradGradGrad
 Berny optimization.
 Search for a local minimum.
 Step number   1 out of a maximum of    2
 All quantities printed in internal units (Hartrees-Bohrs-Radians)
 Second derivative matrix not updated -- analytic derivatives used.
 The second derivative matrix:
                          X1        Y1        Z1        X2        Y2
           X1           0.11047
           Y1           0.00000   0.00516
           Z1          -0.00000  -0.00000   0.00516
           X2          -0.11276  -0.00000  -0.00000   0.87333
           Y2          -0.00000  -0.01051   0.00000   0.00004   0.02903
           Z2           0.00000   0.00000  -0.01051   0.00000  -0.00000
           X3           0.04540   0.00000   0.00002  -0.77648  -0.00004
           Y3           0.00000   0.00376  -0.00000  -0.00004  -0.02289
           Z3           0.00001   0.00000   0.00376   0.00000  -0.00000
           X4          -0.03284  -0.00000  -0.00001   0.01443   0.00000
           Y4          -0.00000   0.00184   0.00000   0.00000   0.00410
           Z4          -0.00000  -0.00000   0.00184  -0.00000   0.00000
           X5          -0.01027  -0.00000  -0.00000   0.00147   0.00000
           Y5          -0.00000  -0.00024   0.00000   0.00000   0.00027
           Z5           0.00000   0.00000  -0.00024   0.00000  -0.00000
                          Z2        X3        Y3        Z3        X4
           Z2           0.02903
           X3          -0.00000   1.32725
           Y3           0.00000   0.00006   0.04823
           Z3          -0.02289  -0.00002   0.00000   0.04823
           X4           0.00000  -0.62774  -0.00003   0.00001   0.91000
           Y4          -0.00000  -0.00003  -0.04654   0.00000   0.00004
           Z4           0.00410   0.00001  -0.00000  -0.04654  -0.00001
           X5           0.00000   0.03157   0.00000   0.00000  -0.26385
           Y5          -0.00000   0.00000   0.01744  -0.00000  -0.00001
           Z5           0.00027  -0.00001   0.00000   0.01744   0.00000
                          Y4        Z4        X5        Y5        Z5
           Y4           0.07778
           Z4          -0.00000   0.07778
           X5          -0.00001  -0.00000   0.24108
           Y5          -0.03718   0.00000   0.00001   0.01971
           Z5          -0.00000  -0.03718   0.00000  -0.00000   0.01971
 ITU=  0
     Eigenvalues ---    0.00655   0.00655   0.04208   0.04208   0.11934
     Eigenvalues ---    0.12401   0.12401   0.23457   0.93901   2.14896
 Angle between quadratic step and forces=  56.60 degrees.
 ClnCor:  largest displacement from symmetrization is 1.89D-07 for atom     5.
 Linear search not attempted -- first point.
 ClnCor:  largest displacement from symmetrization is 5.33D-15 for atom     5.
 B after Tr=    -0.000044   -0.000000   -0.000000
         Rot=    1.000000   -0.000000   -0.000000    0.000000 Ang=   0.00 deg.
 Variable       Old X    -DE/DX   Delta X   Delta X   Delta X     New X
                                 (Linear)    (Quad)   (Total)
    X1       -4.43325  -0.00003   0.00000  -0.00047  -0.00052  -4.43376
    Y1       -0.00013  -0.00000   0.00000  -0.00000  -0.00000  -0.00013
    Z1        0.00000  -0.00000   0.00000  -0.00000  -0.00000   0.00000
    X2       -1.26261  -0.00034   0.00000  -0.00024  -0.00029  -1.26290
    Y2        0.00002  -0.00000   0.00000  -0.00000  -0.00000   0.00002
    Z2        0.00000  -0.00000   0.00000  -0.00000  -0.00000   0.00000
    X3        1.12542   0.00030   0.00000   0.00024   0.00020   1.12561
    Y3        0.00013   0.00000   0.00000   0.00000   0.00000   0.00013
    Z3        0.00000   0.00000   0.00000   0.00000   0.00000   0.00000
    X4        3.60839   0.00005   0.00000   0.00032   0.00028   3.60867
    Y4        0.00025   0.00000   0.00000   0.00000   0.00000   0.00025
    Z4        0.00000   0.00000   0.00000   0.00000   0.00000   0.00000
    X5        5.77477   0.00002   0.00000   0.00037   0.00033   5.77509
    Y5        0.00035   0.00000   0.00000   0.00000   0.00000   0.00035
    Z5        0.00000   0.00000   0.00000   0.00000   0.00000   0.00000
         Item               Value     Threshold  Converged?
 Maximum Force            0.000343     0.000450     YES
 RMS     Force            0.000119     0.000300     YES
 Maximum Displacement     0.000515     0.001800     YES
 RMS     Displacement     0.000195     0.001200     YES
 Predicted change in Energy=-9.643582D-08
 Optimization completed.
    -- Stationary point found.
 GradGradGradGradGradGradGradGradGradGradGradGradGradGradGradGradGradGrad

 Leave Link  103 at Mon Jun 20 13:42:20 2016, MaxMem=    33554432 cpu:         0.1
 (Enter /home/proyectos/fulerenos/M3C-v1.9/M3C-deps_CCC/g09-AM64L-G09RevC.01/l9999.exe)
 1\1\GINC-BELVIS17\Freq\RB3LYP\6-311++G(3df,2p)\C4H1(3+)\ROOT\20-Jun-20
 16\0\\#p b3lyp/6-311++G(3df,2p) freq symmetry=Loose\\b3lyp opt\\3,1\C,
 -2.345974023,-0.0000665063,0.0000000164\C,-0.6681469945,0.0000109234,0
 .0000001477\C,0.5955440516,0.0000692413,0.0000002466\C,1.9094799794,0.
 0001298778,0.0000003495\H,3.0558749184,0.0001827826,0.0000004392\\Vers
 ion=EM64L-G09RevE.01\State=1-SG\HF=-150.8905\RMSD=7.553e-09\RMSF=1.188
 e-04\ZeroPoint=0.0211339\Thermal=0.0257803\Dipole=0.2793278,0.0000129,
 0.\DipoleDeriv=3.038194,0.0000706,0.0000287,0.0000966,0.8628917,0.0000
 002,0.0001568,0.0000017,0.8628923,-0.7651392,-0.0000637,0.0000053,-0.0
 000891,0.7015278,-0.0000005,-0.0000414,0.,0.7015269,-2.2382011,-0.0000
 165,-0.000121,-0.0000659,0.3073837,0.0000006,-0.0001998,-0.000003,0.30
 73838,1.807635,-0.0000213,0.0000768,0.00001,0.8632205,0.,0.0001356,0.0
 000019,0.8632208,1.1575113,0.000031,0.0000102,0.0000483,0.2649765,0.,-
 0.0000511,-0.0000006,0.2649762\Polar=73.4121759,0.0014582,17.271303,0.
 0011642,0.0000123,17.2713328\PG=C*V [C*(H1C1C1C1C1)]\NImag=0\\0.110472
 62,0.00000497,0.00515639,-0.00000386,-0.00000002,0.00515633,-0.1127618
 6,-0.00000479,-0.00000072,0.87333257,-0.00000425,-0.01051477,0.0000000
 7,0.00003933,0.02903369,0.00000095,0.,-0.01051468,0.00000056,-0.000000
 03,0.02903366,0.04539672,0.00000170,0.00001628,-0.77647718,-0.00003750
 ,-0.00000491,1.32725381,0.00000070,0.00375834,-0.00000008,-0.00003525,
 -0.02288717,0.00000004,0.00006483,0.04822654,0.00000504,0.00000003,0.0
 0375830,0.00000032,-0.00000007,-0.02288727,-0.00001968,0.00000005,0.04
 822679,-0.03284116,-0.00000145,-0.00001034,0.01443390,0.00000218,0.000
 00305,-0.62774302,-0.00003048,0.00001256,0.91000236,-0.00000077,0.0018
 4218,0.00000001,0.00000063,0.00409850,-0.00000002,-0.00003030,-0.04653
 940,0.00000001,0.00004062,0.07777534,-0.00000340,-0.00000002,0.0018421
 8,-0.00000034,0.00000005,0.00409857,0.00001352,-0.00000004,-0.04653953
 ,-0.00000858,0.,0.07777541,-0.01026632,-0.00000043,-0.00000137,0.00147
 258,0.00000023,0.00000035,0.03156967,0.00000021,0.00000176,-0.26385208
 ,-0.00001017,-0.00000121,0.24107615,-0.00000065,-0.00024214,0.00000001
 ,0.00000009,0.00026974,0.,0.00000127,0.01744169,-0.00000002,-0.0000108
 6,-0.03717662,0.00000001,0.00001015,0.01970732,0.00000127,0.,-0.000242
 13,0.00000018,-0.00000002,0.00026972,-0.00000522,0.00000002,0.01744172
 ,0.00000330,0.,-0.03717663,0.00000047,0.,0.01970732\\0.00002798,0.,0.,
 0.00034275,0.00000002,0.,-0.00030068,-0.00000001,0.,-0.00005349,0.,0.,
 -0.00001655,0.,0.\\\@


 IT IS THE GODS' CUSTOM TO BRING LOW ALL THINGS OF SURPASSING GREATNESS.
     -- HERODOTUS
 IT IS THE LOFTY PINE THAT BY THE STORM IS OFTENER TOSSED;
 TOWERS FALL WITH HEAVIER CRASH WHICH HIGHER SOAR.
     -- HORACE
 THE BIGGER THEY COME, THE HARDER THEY FALL.
     -- BOB FITZSIMONS HEAVYWEIGHT CHAMPION, 1897-1899
 Job cpu time:       0 days  0 hours  7 minutes 59.3 seconds.
 File lengths (MBytes):  RWF=     17 Int=      0 D2E=      0 Chk=      3 Scr=      1
 Normal termination of Gaussian 09 at Mon Jun 20 13:42:20 2016.
