 Entering Gaussian System, Link 0=/home/proyectos/fulerenos/M3C-v2.0/M3C-deps_CCC/g09-AM64L-G09RevC.01/g09
 Initial command:
 /home/proyectos/fulerenos/M3C-v2.0/M3C-deps_CCC/g09-AM64L-G09RevC.01/l1.exe "/scratch/naguirre/gaussian/Gau-6260.inp" -scrdir="/scratch/naguirre/gaussian/"
 Entering Link 1 = /home/proyectos/fulerenos/M3C-v2.0/M3C-deps_CCC/g09-AM64L-G09RevC.01/l1.exe PID=      6262.
  
 Copyright (c) 1988,1990,1992,1993,1995,1998,2003,2009,2015,
            Gaussian, Inc.  All Rights Reserved.
  
 This is part of the Gaussian(R) 09 program.  It is based on
 the Gaussian(R) 03 system (copyright 2003, Gaussian, Inc.),
 the Gaussian(R) 98 system (copyright 1998, Gaussian, Inc.),
 the Gaussian(R) 94 system (copyright 1995, Gaussian, Inc.),
 the Gaussian 92(TM) system (copyright 1992, Gaussian, Inc.),
 the Gaussian 90(TM) system (copyright 1990, Gaussian, Inc.),
 the Gaussian 88(TM) system (copyright 1988, Gaussian, Inc.),
 the Gaussian 86(TM) system (copyright 1986, Carnegie Mellon
 University), and the Gaussian 82(TM) system (copyright 1983,
 Carnegie Mellon University). Gaussian is a federally registered
 trademark of Gaussian, Inc.
  
 This software contains proprietary and confidential information,
 including trade secrets, belonging to Gaussian, Inc.
  
 This software is provided under written license and may be
 used, copied, transmitted, or stored only in accord with that
 written license.
  
 The following legend is applicable only to US Government
 contracts under FAR:
  
                    RESTRICTED RIGHTS LEGEND
  
 Use, reproduction and disclosure by the US Government is
 subject to restrictions as set forth in subparagraphs (a)
 and (c) of the Commercial Computer Software - Restricted
 Rights clause in FAR 52.227-19.
  
 Gaussian, Inc.
 340 Quinnipiac St., Bldg. 40, Wallingford CT 06492
  
  
 ---------------------------------------------------------------
 Warning -- This program may not be used in any manner that
 competes with the business of Gaussian, Inc. or will provide
 assistance to any competitor of Gaussian, Inc.  The licensee
 of this program is prohibited from giving any competitor of
 Gaussian, Inc. access to this program.  By using this program,
 the user acknowledges that Gaussian, Inc. is engaged in the
 business of creating and licensing software in the field of
 computational chemistry and represents and warrants to the
 licensee that it is not a competitor of Gaussian, Inc. and that
 it will not use this program in any manner prohibited above.
 ---------------------------------------------------------------
  

 Cite this work as:
 Gaussian 09, Revision E.01,
 M. J. Frisch, G. W. Trucks, H. B. Schlegel, G. E. Scuseria, 
 M. A. Robb, J. R. Cheeseman, G. Scalmani, V. Barone, B. Mennucci, 
 G. A. Petersson, H. Nakatsuji, M. Caricato, X. Li, H. P. Hratchian, 
 A. F. Izmaylov, J. Bloino, G. Zheng, J. L. Sonnenberg, M. Hada, 
 M. Ehara, K. Toyota, R. Fukuda, J. Hasegawa, M. Ishida, T. Nakajima, 
 Y. Honda, O. Kitao, H. Nakai, T. Vreven, J. A. Montgomery, Jr., 
 J. E. Peralta, F. Ogliaro, M. Bearpark, J. J. Heyd, E. Brothers, 
 K. N. Kudin, V. N. Staroverov, T. Keith, R. Kobayashi, J. Normand, 
 K. Raghavachari, A. Rendell, J. C. Burant, S. S. Iyengar, J. Tomasi, 
 M. Cossi, N. Rega, J. M. Millam, M. Klene, J. E. Knox, J. B. Cross, 
 V. Bakken, C. Adamo, J. Jaramillo, R. Gomperts, R. E. Stratmann, 
 O. Yazyev, A. J. Austin, R. Cammi, C. Pomelli, J. W. Ochterski, 
 R. L. Martin, K. Morokuma, V. G. Zakrzewski, G. A. Voth, 
 P. Salvador, J. J. Dannenberg, S. Dapprich, A. D. Daniels, 
 O. Farkas, J. B. Foresman, J. V. Ortiz, J. Cioslowski, 
 and D. J. Fox, Gaussian, Inc., Wallingford CT, 2013.
 
 ******************************************
 Gaussian 09:  EM64L-G09RevE.01 30-Nov-2015
                20-Jul-2016 
 ******************************************
 %NProcShared=1
 Will use up to    1 processors via shared memory.
 ---------------------------------------------
 #p b3lyp/6-311++G(3df,2p) freq symmetry=Loose
 ---------------------------------------------
 1/10=4,30=1,38=1/1,3;
 2/12=2,17=4,18=3,40=1/2;
 3/5=4,6=6,7=1216,11=2,16=1,25=1,30=1,71=2,74=-5,140=1/1,2,3;
 4//1;
 5/5=2,38=5,98=1/2;
 8/6=4,10=90,11=11/1;
 11/6=1,8=1,9=11,15=111,16=1/1,2,10;
 10/6=1/2;
 6/7=2,8=2,9=2,10=2,18=1,28=1/1;
 7/8=1,10=1,25=1/1,2,3,16;
 1/10=4,30=1/3;
 99//99;
 Leave Link    1 at Wed Jul 20 19:27:46 2016, MaxMem=           0 cpu:         0.1
 (Enter /home/proyectos/fulerenos/M3C-v2.0/M3C-deps_CCC/g09-AM64L-G09RevC.01/l101.exe)
 ---------
 b3lyp opt
 ---------
 Symbolic Z-matrix:
 Charge =  3 Multiplicity = 1
 C                    -1.91634   0.00031  -0.00012 
 C                    -0.60198   0.00018  -0.00005 
 C                     0.66114  -0.77323   0.00002 
 C                     1.70448  -0.00004   0.00008 
 C                     0.66129   0.77336   0.00002 
 H                    -3.05185   0.00042  -0.00018 
 
 NAtoms=      6 NQM=        6 NQMF=       0 NMMI=      0 NMMIF=      0
                NMic=       0 NMicF=      0.
                    Isotopes and Nuclear Properties:
 (Nuclear quadrupole moments (NQMom) in fm**2, nuclear magnetic moments (NMagM)
  in nuclear magnetons)

  Atom         1           2           3           4           5           6
 IAtWgt=          12          12          12          12          12           1
 AtmWgt=  12.0000000  12.0000000  12.0000000  12.0000000  12.0000000   1.0078250
 NucSpn=           0           0           0           0           0           1
 AtZEff=   0.0000000   0.0000000   0.0000000   0.0000000   0.0000000   0.0000000
 NQMom=    0.0000000   0.0000000   0.0000000   0.0000000   0.0000000   0.0000000
 NMagM=    0.0000000   0.0000000   0.0000000   0.0000000   0.0000000   2.7928460
 AtZNuc=   6.0000000   6.0000000   6.0000000   6.0000000   6.0000000   1.0000000
 Leave Link  101 at Wed Jul 20 19:27:56 2016, MaxMem=    33554432 cpu:         7.0
 (Enter /home/proyectos/fulerenos/M3C-v2.0/M3C-deps_CCC/g09-AM64L-G09RevC.01/l103.exe)

 GradGradGradGradGradGradGradGradGradGradGradGradGradGradGradGradGradGrad
 Berny optimization.
 Initialization pass.
 Trust Radius=3.00D-01 FncErr=1.00D-07 GrdErr=1.00D-07
 Number of steps in this run=      2 maximum allowed number of steps=      2.
 GradGradGradGradGradGradGradGradGradGradGradGradGradGradGradGradGradGrad

 Leave Link  103 at Wed Jul 20 19:27:57 2016, MaxMem=    33554432 cpu:         0.2
 (Enter /home/proyectos/fulerenos/M3C-v2.0/M3C-deps_CCC/g09-AM64L-G09RevC.01/l202.exe)
                          Input orientation:                          
 ---------------------------------------------------------------------
 Center     Atomic      Atomic             Coordinates (Angstroms)
 Number     Number       Type             X           Y           Z
 ---------------------------------------------------------------------
      1          6           0       -1.916342    0.000310   -0.000115
      2          6           0       -0.601983    0.000184   -0.000046
      3          6           0        0.661140   -0.773231    0.000019
      4          6           0        1.704477   -0.000036    0.000076
      5          6           0        0.661288    0.773358    0.000022
      6          1           0       -3.051851    0.000418   -0.000175
 ---------------------------------------------------------------------
                    Distance matrix (angstroms):
                    1          2          3          4          5
     1  C    0.000000
     2  C    1.314359   0.000000
     3  C    2.691055   1.481098   0.000000
     4  C    3.620819   2.306460   1.298608   0.000000
     5  C    2.691055   1.481098   1.546589   1.298608   0.000000
     6  H    1.135509   2.449868   3.792735   4.756328   3.792735
                    6
     6  H    0.000000
 Stoichiometry    C5H(3+)
 Framework group  CS[SG(C3H),X(C2)]
 Deg. of freedom     8
 Full point group                 CS      NOp   2
 Largest Abelian subgroup         CS      NOp   2
 Largest concise Abelian subgroup CS      NOp   2
                         Standard orientation:                         
 ---------------------------------------------------------------------
 Center     Atomic      Atomic             Coordinates (Angstroms)
 Number     Number       Type             X           Y           Z
 ---------------------------------------------------------------------
      1          6           0        0.000000    1.916330    0.000000
      2          6           0        0.000000    0.601971    0.000000
      3          6           0       -0.000002   -0.661226    0.773294
      4          6           0        0.000000   -1.704489   -0.000000
      5          6           0       -0.000002   -0.661226   -0.773294
      6          1           0        0.000000    3.051839    0.000000
 ---------------------------------------------------------------------
 Rotational constants (GHZ):     35.2140651      4.9061512      4.3061963
 Leave Link  202 at Wed Jul 20 19:27:57 2016, MaxMem=    33554432 cpu:         0.0
 (Enter /home/proyectos/fulerenos/M3C-v2.0/M3C-deps_CCC/g09-AM64L-G09RevC.01/l301.exe)
 Standard basis: 6-311++G(3df,2p) (5D, 7F)
 Ernie: Thresh=  0.10000D-02 Tol=  0.10000D-05 Strict=F.
 There are   146 symmetry adapted cartesian basis functions of A'  symmetry.
 There are    89 symmetry adapted cartesian basis functions of A"  symmetry.
 There are   125 symmetry adapted basis functions of A'  symmetry.
 There are    80 symmetry adapted basis functions of A"  symmetry.
   205 basis functions,   302 primitive gaussians,   235 cartesian basis functions
    14 alpha electrons       14 beta electrons
       nuclear repulsion energy       115.9893150080 Hartrees.
 IExCor=  402 DFT=T Ex+Corr=B3LYP ExCW=0 ScaHFX=  0.200000
 ScaDFX=  0.800000  0.720000  1.000000  0.810000 ScalE2=  1.000000  1.000000
 IRadAn=      0 IRanWt=     -1 IRanGd=            0 ICorTp=0 IEmpDi=  4
 NAtoms=    6 NActive=    6 NUniq=    5 SFac= 1.44D+00 NAtFMM=   60 NAOKFM=F Big=F
 Integral buffers will be    131072 words long.
 Raffenetti 2 integral format.
 Two-electron integral symmetry is turned on.
 Leave Link  301 at Wed Jul 20 19:27:57 2016, MaxMem=    33554432 cpu:         0.5
 (Enter /home/proyectos/fulerenos/M3C-v2.0/M3C-deps_CCC/g09-AM64L-G09RevC.01/l302.exe)
 NPDir=0 NMtPBC=     1 NCelOv=     1 NCel=       1 NClECP=     1 NCelD=      1
         NCelK=      1 NCelE2=     1 NClLst=     1 CellRange=     0.0.
 One-electron integrals computed using PRISM.
 One-electron integral symmetry used in STVInt
 NBasis=   205 RedAO= T EigKep=  1.63D-06  NBF=   125    80
 NBsUse=   205 1.00D-06 EigRej= -1.00D+00 NBFU=   125    80
 Precomputing XC quadrature grid using
 IXCGrd= 4 IRadAn=           0 IRanWt=          -1 IRanGd=           0 AccXCQ= 0.00D+00.
 Generated NRdTot=       0 NPtTot=           0 NUsed=           0 NTot=          32
 NSgBfM=   235   235   235   235   235 MxSgAt=     6 MxSgA2=     6.
 Leave Link  302 at Wed Jul 20 19:27:58 2016, MaxMem=    33554432 cpu:         0.8
 (Enter /home/proyectos/fulerenos/M3C-v2.0/M3C-deps_CCC/g09-AM64L-G09RevC.01/l303.exe)
 DipDrv:  MaxL=1.
 Leave Link  303 at Wed Jul 20 19:27:59 2016, MaxMem=    33554432 cpu:         0.2
 (Enter /home/proyectos/fulerenos/M3C-v2.0/M3C-deps_CCC/g09-AM64L-G09RevC.01/l401.exe)
 ExpMin= 3.60D-02 ExpMax= 4.56D+03 ExpMxC= 6.82D+02 IAcc=3 IRadAn=         5 AccDes= 0.00D+00
 Harris functional with IExCor=  402 and IRadAn=       5 diagonalized for initial guess.
 HarFok:  IExCor=  402 AccDes= 0.00D+00 IRadAn=         5 IDoV= 1 UseB2=F ITyADJ=14
 ICtDFT=  3500011 ScaDFX=  1.000000  1.000000  1.000000  1.000000
 FoFCou: FMM=F IPFlag=           0 FMFlag=      100000 FMFlg1=           0
         NFxFlg=           0 DoJE=T BraDBF=F KetDBF=T FulRan=T
         wScrn=  0.000000 ICntrl=     500 IOpCl=  0 I1Cent=   200000004 NGrid=           0
         NMat0=    1 NMatS0=      1 NMatT0=    0 NMatD0=    1 NMtDS0=    0 NMtDT0=    0
 Petite list used in FoFCou.
 Harris En= -189.969247286571    
 JPrj=0 DoOrth=F DoCkMO=F.
 Initial guess orbital symmetries:
       Occupied  (A') (A') (A") (A') (A') (A') (A') (A') (A") (A')
                 (A') (A") (A') (A')
       Virtual   (A') (A") (A") (A') (A") (A') (A') (A') (A') (A')
                 (A") (A") (A') (A') (A') (A') (A") (A") (A') (A')
                 (A') (A") (A') (A') (A") (A') (A") (A') (A") (A')
                 (A") (A') (A") (A') (A') (A') (A') (A') (A") (A")
                 (A') (A") (A') (A") (A") (A') (A") (A') (A') (A')
                 (A') (A') (A') (A") (A") (A') (A") (A') (A') (A')
                 (A") (A") (A') (A") (A') (A') (A") (A') (A') (A")
                 (A") (A') (A") (A') (A') (A') (A') (A") (A') (A")
                 (A") (A') (A') (A') (A") (A') (A') (A') (A") (A')
                 (A") (A') (A') (A") (A') (A") (A") (A") (A') (A")
                 (A') (A') (A') (A") (A") (A') (A') (A') (A') (A')
                 (A") (A') (A") (A") (A') (A') (A") (A') (A") (A')
                 (A') (A") (A') (A') (A') (A") (A") (A') (A') (A")
                 (A') (A") (A") (A') (A") (A') (A") (A') (A') (A')
                 (A") (A") (A') (A") (A') (A') (A') (A") (A") (A')
                 (A') (A") (A") (A') (A") (A') (A') (A") (A') (A')
                 (A") (A") (A') (A') (A') (A") (A") (A') (A") (A')
                 (A') (A") (A') (A') (A") (A") (A') (A') (A') (A')
                 (A") (A') (A") (A') (A") (A") (A') (A') (A") (A')
                 (A')
 The electronic state of the initial guess is 1-A'.
 Leave Link  401 at Wed Jul 20 19:28:04 2016, MaxMem=    33554432 cpu:         5.2
 (Enter /home/proyectos/fulerenos/M3C-v2.0/M3C-deps_CCC/g09-AM64L-G09RevC.01/l502.exe)
 Closed shell SCF:
 Using DIIS extrapolation, IDIIS=  1040.
 Integral symmetry usage will be decided dynamically.
 IVT=      187573 IEndB=      187573 NGot=    33554432 MDV=    33438960
 LenX=    33438960 LenY=    33383294
 Requested convergence on RMS density matrix=1.00D-08 within 128 cycles.
 Requested convergence on MAX density matrix=1.00D-06.
 Requested convergence on             energy=1.00D-06.
 No special actions if energy rises.
 Fock matrices will be formed incrementally for  20 cycles.

 Cycle   1  Pass 1  IDiag  1:
 FoFJK:  IHMeth= 1 ICntrl=       0 DoSepK=F KAlg= 0 I1Cent=   0 FoldK=F
 IRaf= 980000000 NMat=   1 IRICut=       1 DoRegI=T DoRafI=F ISym2E= 1.
 FoFCou: FMM=F IPFlag=           0 FMFlag=      100000 FMFlg1=           0
         NFxFlg=           0 DoJE=F BraDBF=F KetDBF=F FulRan=T
         wScrn=  0.000000 ICntrl=       0 IOpCl=  0 I1Cent=           0 NGrid=           0
         NMat0=    1 NMatS0=      1 NMatT0=    0 NMatD0=    1 NMtDS0=    0 NMtDT0=    0
 Petite list used in FoFCou.
 E= -188.903156580404    
 DIIS: error= 1.53D-02 at cycle   1 NSaved=   1.
 NSaved= 1 IEnMin= 1 EnMin= -188.903156580404     IErMin= 1 ErrMin= 1.53D-02
 ErrMax= 1.53D-02  0.00D+00 EMaxC= 1.00D-01 BMatC= 6.16D-02 BMatP= 6.16D-02
 IDIUse=3 WtCom= 8.47D-01 WtEn= 1.53D-01
 Coeff-Com:  0.100D+01
 Coeff-En:   0.100D+01
 Coeff:      0.100D+01
 Gap=     0.074 Goal=   None    Shift=    0.000
 GapD=    0.074 DampG=0.500 DampE=0.500 DampFc=0.2500 IDamp=-1.
 Damping current iteration by 2.50D-01
 RMSDP=2.33D-02 MaxDP=1.58D+00              OVMax= 3.28D-01

 Cycle   2  Pass 1  IDiag  1:
 RMSU=  4.37D-03    CP:  1.13D+00
 E= -188.926331346513     Delta-E=       -0.023174766109 Rises=F Damp=T
 DIIS: error= 1.05D-02 at cycle   2 NSaved=   2.
 NSaved= 2 IEnMin= 2 EnMin= -188.926331346513     IErMin= 2 ErrMin= 1.05D-02
 ErrMax= 1.05D-02  0.00D+00 EMaxC= 1.00D-01 BMatC= 2.13D-02 BMatP= 6.16D-02
 IDIUse=3 WtCom= 8.95D-01 WtEn= 1.05D-01
 Coeff-Com: -0.454D+00 0.145D+01
 Coeff-En:   0.000D+00 0.100D+01
 Coeff:     -0.407D+00 0.141D+01
 Gap=     0.041 Goal=   None    Shift=    0.000
 RMSDP=1.19D-02 MaxDP=7.51D-01 DE=-2.32D-02 OVMax= 3.35D-01

 Cycle   3  Pass 1  IDiag  1:
 RMSU=  6.88D-03    CP:  1.46D+00  1.15D+00
 E= -188.948119724766     Delta-E=       -0.021788378253 Rises=F Damp=F
 DIIS: error= 1.69D-02 at cycle   3 NSaved=   3.
 NSaved= 3 IEnMin= 3 EnMin= -188.948119724766     IErMin= 2 ErrMin= 1.05D-02
 ErrMax= 1.69D-02  0.00D+00 EMaxC= 1.00D-01 BMatC= 3.26D-02 BMatP= 2.13D-02
 IDIUse=2 WtCom= 0.00D+00 WtEn= 1.00D+00
 Coeff-En:   0.000D+00 0.163D+00 0.837D+00
 Coeff:      0.000D+00 0.163D+00 0.837D+00
 Gap=     0.125 Goal=   None    Shift=    0.000
 RMSDP=1.74D-02 MaxDP=7.33D-01 DE=-2.18D-02 OVMax= 3.60D-01

 Cycle   4  Pass 1  IDiag  1:
 RMSU=  7.22D-03    CP:  1.63D+00  3.00D+00 -7.49D-03
 E= -188.789759060318     Delta-E=        0.158360664448 Rises=F Damp=F
 DIIS: error= 3.55D-02 at cycle   4 NSaved=   4.
 NSaved= 4 IEnMin= 3 EnMin= -188.948119724766     IErMin= 2 ErrMin= 1.05D-02
 ErrMax= 3.55D-02  0.00D+00 EMaxC= 1.00D-01 BMatC= 1.59D-01 BMatP= 2.13D-02
 IDIUse=2 WtCom= 0.00D+00 WtEn= 1.00D+00
 Coeff-En:   0.000D+00 0.000D+00 0.772D+00 0.228D+00
 Coeff:      0.000D+00 0.000D+00 0.772D+00 0.228D+00
 Gap=     0.099 Goal=   None    Shift=    0.000
 RMSDP=7.75D-03 MaxDP=4.11D-01 DE= 1.58D-01 OVMax= 1.71D-01

 Cycle   5  Pass 1  IDiag  1:
 RMSU=  2.14D-03    CP:  1.66D+00  3.00D+00  6.14D-01  1.64D-01
 E= -188.961719674086     Delta-E=       -0.171960613768 Rises=F Damp=F
 DIIS: error= 1.26D-02 at cycle   5 NSaved=   5.
 NSaved= 5 IEnMin= 5 EnMin= -188.961719674086     IErMin= 2 ErrMin= 1.05D-02
 ErrMax= 1.26D-02  0.00D+00 EMaxC= 1.00D-01 BMatC= 1.79D-02 BMatP= 2.13D-02
 IDIUse=3 WtCom= 8.74D-01 WtEn= 1.26D-01
 Coeff-Com:  0.386D-03 0.282D-02 0.322D+00-0.127D+00 0.802D+00
 Coeff-En:   0.000D+00 0.000D+00 0.417D+00 0.000D+00 0.583D+00
 Coeff:      0.337D-03 0.246D-02 0.334D+00-0.111D+00 0.774D+00
 Gap=     0.083 Goal=   None    Shift=    0.000
 RMSDP=4.64D-03 MaxDP=2.08D-01 DE=-1.72D-01 OVMax= 8.73D-02

 Cycle   6  Pass 1  IDiag  1:
 RMSU=  1.40D-04    CP:  1.60D+00  2.23D+00  8.55D-01  6.38D-02  7.52D-01
 E= -188.982105847525     Delta-E=       -0.020386173439 Rises=F Damp=F
 DIIS: error= 5.26D-04 at cycle   6 NSaved=   6.
 NSaved= 6 IEnMin= 6 EnMin= -188.982105847525     IErMin= 6 ErrMin= 5.26D-04
 ErrMax= 5.26D-04  0.00D+00 EMaxC= 1.00D-01 BMatC= 1.79D-05 BMatP= 1.79D-02
 IDIUse=3 WtCom= 9.95D-01 WtEn= 5.26D-03
 Coeff-Com:  0.554D-02-0.989D-02 0.946D-01-0.360D-01 0.249D+00 0.697D+00
 Coeff-En:   0.000D+00 0.000D+00 0.000D+00 0.000D+00 0.000D+00 0.100D+01
 Coeff:      0.551D-02-0.983D-02 0.941D-01-0.359D-01 0.248D+00 0.698D+00
 Gap=     0.085 Goal=   None    Shift=    0.000
 RMSDP=1.23D-04 MaxDP=6.01D-03 DE=-2.04D-02 OVMax= 4.32D-03

 Cycle   7  Pass 1  IDiag  1:
 RMSU=  3.41D-05    CP:  1.60D+00  2.26D+00  8.50D-01  6.37D-02  7.53D-01
                    CP:  8.67D-01
 E= -188.982117088343     Delta-E=       -0.000011240819 Rises=F Damp=F
 DIIS: error= 3.60D-04 at cycle   7 NSaved=   7.
 NSaved= 7 IEnMin= 7 EnMin= -188.982117088343     IErMin= 7 ErrMin= 3.60D-04
 ErrMax= 3.60D-04  0.00D+00 EMaxC= 1.00D-01 BMatC= 8.31D-06 BMatP= 1.79D-05
 IDIUse=3 WtCom= 9.96D-01 WtEn= 3.60D-03
 Coeff-Com: -0.356D-02 0.473D-02 0.204D-01-0.869D-02 0.560D-01 0.448D+00
 Coeff-Com:  0.483D+00
 Coeff-En:   0.000D+00 0.000D+00 0.000D+00 0.000D+00 0.000D+00 0.346D+00
 Coeff-En:   0.654D+00
 Coeff:     -0.355D-02 0.471D-02 0.204D-01-0.866D-02 0.558D-01 0.448D+00
 Coeff:      0.483D+00
 Gap=     0.085 Goal=   None    Shift=    0.000
 RMSDP=2.27D-05 MaxDP=7.15D-04 DE=-1.12D-05 OVMax= 2.11D-03

 Cycle   8  Pass 1  IDiag  1:
 RMSU=  1.79D-05    CP:  1.60D+00  2.26D+00  8.51D-01  6.30D-02  7.49D-01
                    CP:  8.74D-01  8.73D-01
 E= -188.982126605420     Delta-E=       -0.000009517076 Rises=F Damp=F
 DIIS: error= 7.00D-05 at cycle   8 NSaved=   8.
 NSaved= 8 IEnMin= 8 EnMin= -188.982126605420     IErMin= 8 ErrMin= 7.00D-05
 ErrMax= 7.00D-05  0.00D+00 EMaxC= 1.00D-01 BMatC= 4.75D-07 BMatP= 8.31D-06
 IDIUse=1 WtCom= 1.00D+00 WtEn= 0.00D+00
 Coeff-Com: -0.357D-02 0.478D-02-0.267D-03-0.912D-03-0.794D-04 0.142D+00
 Coeff-Com:  0.243D+00 0.615D+00
 Coeff:     -0.357D-02 0.478D-02-0.267D-03-0.912D-03-0.794D-04 0.142D+00
 Coeff:      0.243D+00 0.615D+00
 Gap=     0.085 Goal=   None    Shift=    0.000
 RMSDP=1.44D-05 MaxDP=7.89D-04 DE=-9.52D-06 OVMax= 2.80D-04

 Cycle   9  Pass 1  IDiag  1:
 RMSU=  5.74D-06    CP:  1.60D+00  2.26D+00  8.51D-01  6.31D-02  7.51D-01
                    CP:  8.65D-01  8.30D-01  9.56D-01
 E= -188.982127064569     Delta-E=       -0.000000459149 Rises=F Damp=F
 DIIS: error= 9.84D-06 at cycle   9 NSaved=   9.
 NSaved= 9 IEnMin= 9 EnMin= -188.982127064569     IErMin= 9 ErrMin= 9.84D-06
 ErrMax= 9.84D-06  0.00D+00 EMaxC= 1.00D-01 BMatC= 2.31D-08 BMatP= 4.75D-07
 IDIUse=1 WtCom= 1.00D+00 WtEn= 0.00D+00
 Coeff-Com:  0.532D-03-0.741D-03-0.894D-03 0.382D-03-0.265D-02 0.417D-02
 Coeff-Com:  0.220D-01 0.169D+00 0.808D+00
 Coeff:      0.532D-03-0.741D-03-0.894D-03 0.382D-03-0.265D-02 0.417D-02
 Coeff:      0.220D-01 0.169D+00 0.808D+00
 Gap=     0.085 Goal=   None    Shift=    0.000
 RMSDP=6.36D-06 MaxDP=2.43D-04 DE=-4.59D-07 OVMax= 1.40D-04

 Cycle  10  Pass 1  IDiag  1:
 RMSU=  7.57D-07    CP:  1.60D+00  2.26D+00  8.51D-01  6.31D-02  7.51D-01
                    CP:  8.65D-01  8.40D-01  9.64D-01  9.06D-01
 E= -188.982127090544     Delta-E=       -0.000000025976 Rises=F Damp=F
 DIIS: error= 3.34D-06 at cycle  10 NSaved=  10.
 NSaved=10 IEnMin=10 EnMin= -188.982127090544     IErMin=10 ErrMin= 3.34D-06
 ErrMax= 3.34D-06  0.00D+00 EMaxC= 1.00D-01 BMatC= 1.22D-09 BMatP= 2.31D-08
 IDIUse=1 WtCom= 1.00D+00 WtEn= 0.00D+00
 Coeff-Com:  0.719D-04-0.918D-04-0.110D-03 0.369D-04-0.154D-03-0.513D-02
 Coeff-Com: -0.887D-02 0.529D-02 0.129D+00 0.880D+00
 Coeff:      0.719D-04-0.918D-04-0.110D-03 0.369D-04-0.154D-03-0.513D-02
 Coeff:     -0.887D-02 0.529D-02 0.129D+00 0.880D+00
 Gap=     0.085 Goal=   None    Shift=    0.000
 RMSDP=1.06D-06 MaxDP=5.63D-05 DE=-2.60D-08 OVMax= 1.13D-05

 Cycle  11  Pass 1  IDiag  1:
 RMSU=  1.34D-07    CP:  1.60D+00  2.26D+00  8.51D-01  6.31D-02  7.51D-01
                    CP:  8.64D-01  8.41D-01  9.77D-01  9.36D-01  9.98D-01
 E= -188.982127091813     Delta-E=       -0.000000001269 Rises=F Damp=F
 DIIS: error= 7.37D-07 at cycle  11 NSaved=  11.
 NSaved=11 IEnMin=11 EnMin= -188.982127091813     IErMin=11 ErrMin= 7.37D-07
 ErrMax= 7.37D-07  0.00D+00 EMaxC= 1.00D-01 BMatC= 4.91D-11 BMatP= 1.22D-09
 IDIUse=1 WtCom= 1.00D+00 WtEn= 0.00D+00
 Coeff-Com: -0.129D-04 0.181D-04 0.163D-04-0.947D-05 0.971D-04-0.722D-03
 Coeff-Com: -0.207D-02-0.492D-02-0.107D-01 0.511D-02 0.101D+01
 Coeff:     -0.129D-04 0.181D-04 0.163D-04-0.947D-05 0.971D-04-0.722D-03
 Coeff:     -0.207D-02-0.492D-02-0.107D-01 0.511D-02 0.101D+01
 Gap=     0.085 Goal=   None    Shift=    0.000
 RMSDP=1.71D-07 MaxDP=8.72D-06 DE=-1.27D-09 OVMax= 2.65D-06

 Cycle  12  Pass 1  IDiag  1:
 RMSU=  1.97D-08    CP:  1.60D+00  2.26D+00  8.51D-01  6.31D-02  7.51D-01
                    CP:  8.64D-01  8.41D-01  9.79D-01  9.40D-01  1.01D+00
                    CP:  1.16D+00
 E= -188.982127091867     Delta-E=       -0.000000000054 Rises=F Damp=F
 DIIS: error= 3.43D-08 at cycle  12 NSaved=  12.
 NSaved=12 IEnMin=12 EnMin= -188.982127091867     IErMin=12 ErrMin= 3.43D-08
 ErrMax= 3.43D-08  0.00D+00 EMaxC= 1.00D-01 BMatC= 1.88D-13 BMatP= 4.91D-11
 IDIUse=1 WtCom= 1.00D+00 WtEn= 0.00D+00
 Coeff-Com:  0.249D-05-0.360D-05 0.181D-05 0.495D-06-0.556D-06 0.140D-03
 Coeff-Com:  0.196D-03 0.218D-03-0.438D-03-0.279D-01-0.238D-01 0.105D+01
 Coeff:      0.249D-05-0.360D-05 0.181D-05 0.495D-06-0.556D-06 0.140D-03
 Coeff:      0.196D-03 0.218D-03-0.438D-03-0.279D-01-0.238D-01 0.105D+01
 Gap=     0.085 Goal=   None    Shift=    0.000
 RMSDP=8.70D-09 MaxDP=5.77D-07 DE=-5.39D-11 OVMax= 2.10D-07

 SCF Done:  E(RB3LYP) =  -188.982127092     A.U. after   12 cycles
            NFock= 12  Conv=0.87D-08     -V/T= 2.0042
 KE= 1.881853339677D+02 PE=-6.470294745077D+02 EE= 1.538726984401D+02
 Leave Link  502 at Wed Jul 20 19:31:04 2016, MaxMem=    33554432 cpu:       180.1
 (Enter /home/proyectos/fulerenos/M3C-v2.0/M3C-deps_CCC/g09-AM64L-G09RevC.01/l801.exe)
 DoSCS=F DFT=T ScalE2(SS,OS)=  1.000000  1.000000
 Range of M.O.s used for correlation:     1   205
 NBasis=   205 NAE=    14 NBE=    14 NFC=     0 NFV=     0
 NROrb=    205 NOA=    14 NOB=    14 NVA=   191 NVB=   191

 **** Warning!!: The largest alpha MO coefficient is  0.21041110D+03


 **** Warning!!: The smallest alpha delta epsilon is  0.84822953D-01

 Leave Link  801 at Wed Jul 20 19:31:04 2016, MaxMem=    33554432 cpu:         0.1
 (Enter /home/proyectos/fulerenos/M3C-v2.0/M3C-deps_CCC/g09-AM64L-G09RevC.01/l1101.exe)
 Using compressed storage, NAtomX=     6.
 Will process      7 centers per pass.
 Leave Link 1101 at Wed Jul 20 19:31:05 2016, MaxMem=    33554432 cpu:         0.7
 (Enter /home/proyectos/fulerenos/M3C-v2.0/M3C-deps_CCC/g09-AM64L-G09RevC.01/l1102.exe)
 Symmetrizing basis deriv contribution to polar:
 IMax=3 JMax=2 DiffMx= 0.00D+00
 Leave Link 1102 at Wed Jul 20 19:31:05 2016, MaxMem=    33554432 cpu:         0.2
 (Enter /home/proyectos/fulerenos/M3C-v2.0/M3C-deps_CCC/g09-AM64L-G09RevC.01/l1110.exe)
 Forming Gx(P) for the SCF density, NAtomX=     6.
 Integral derivatives from FoFJK, PRISM(SPDF).
 Do as many integral derivatives as possible in FoFJK.
 G2DrvN: MDV=      33554280.
 G2DrvN: will do     7 centers at a time, making    1 passes.
 Calling FoFCou, ICntrl=  3107 FMM=F I1Cent=   0 AccDes= 0.00D+00.
 FoFJK:  IHMeth= 1 ICntrl=    3107 DoSepK=F KAlg= 0 I1Cent=   0 FoldK=F
 IRaf=         0 NMat=   1 IRICut=       1 DoRegI=T DoRafI=F ISym2E= 1.
 FoFCou: FMM=F IPFlag=           0 FMFlag=      100000 FMFlg1=           0
         NFxFlg=           0 DoJE=F BraDBF=F KetDBF=F FulRan=T
         wScrn=  0.000000 ICntrl=    3107 IOpCl=  0 I1Cent=           0 NGrid=           0
         NMat0=    1 NMatS0=      1 NMatT0=    0 NMatD0=    1 NMtDS0=    0 NMtDT0=    0
 Petite list used in FoFCou.
 End of G2Drv F.D. properties file   721 does not exist.
 End of G2Drv F.D. properties file   722 does not exist.
 End of G2Drv F.D. properties file   788 does not exist.
 Leave Link 1110 at Wed Jul 20 19:35:33 2016, MaxMem=    33554432 cpu:       267.5
 (Enter /home/proyectos/fulerenos/M3C-v2.0/M3C-deps_CCC/g09-AM64L-G09RevC.01/l1002.exe)
 Minotr:  Closed shell wavefunction.
          IDoAtm=111111
          Direct CPHF calculation.
          Differentiating once with respect to electric field.
                with respect to dipole field.
          Differentiating once with respect to nuclear coordinates.
          Using symmetry in CPHF.
          Requested convergence is 1.0D-08 RMS, and 1.0D-07 maximum.
          Secondary convergence is 1.0D-12 RMS, and 1.0D-12 maximum.
          NewPWx=T KeepS1=F KeepF1=F KeepIn=T MapXYZ=F SortEE=F KeepMc=T.
          MDV=      33554163 using IRadAn=       2.
 Generate precomputed XC quadrature information.
          Solving linear equations simultaneously, MaxMat=       0.
 FoFJK:  IHMeth= 1 ICntrl=       0 DoSepK=F KAlg= 0 I1Cent=   0 FoldK=F
 IRaf= 980000000 NMat=  18 IRICut=      45 DoRegI=T DoRafI=T ISym2E= 2.
 FoFCou: FMM=F IPFlag=           0 FMFlag=      100000 FMFlg1=           0
         NFxFlg=           0 DoJE=F BraDBF=F KetDBF=F FulRan=T
         wScrn=  0.000000 ICntrl=       0 IOpCl=  0 I1Cent=           0 NGrid=           0
         NMat0=   18 NMatS0=     18 NMatT0=    0 NMatD0=   18 NMtDS0=    0 NMtDT0=    0
 Integrals replicated using symmetry in FoFCou.
          There are    18 degrees of freedom in the 1st order CPHF.  IDoFFX=4 NUNeed=    18.
     18 vectors produced by pass  0 Test12= 1.49D-14 5.56D-09 XBig12= 1.37D+02 8.13D+00.
 AX will form    18 AO Fock derivatives at one time.
     18 vectors produced by pass  1 Test12= 1.49D-14 5.56D-09 XBig12= 7.93D+01 3.59D+00.
     18 vectors produced by pass  2 Test12= 1.49D-14 5.56D-09 XBig12= 1.12D+00 2.54D-01.
     18 vectors produced by pass  3 Test12= 1.49D-14 5.56D-09 XBig12= 1.63D-02 4.62D-02.
     18 vectors produced by pass  4 Test12= 1.49D-14 5.56D-09 XBig12= 6.92D-05 1.52D-03.
     18 vectors produced by pass  5 Test12= 1.49D-14 5.56D-09 XBig12= 2.27D-07 8.36D-05.
      8 vectors produced by pass  6 Test12= 1.49D-14 5.56D-09 XBig12= 3.08D-10 4.92D-06.
      4 vectors produced by pass  7 Test12= 1.49D-14 5.56D-09 XBig12= 7.90D-13 2.45D-07.
      1 vectors produced by pass  8 Test12= 1.49D-14 5.56D-09 XBig12= 2.40D-13 1.43D-07.
 InvSVY:  IOpt=1 It=  1 EMax= 1.78D-15
 Solved reduced A of dimension   121 with    18 vectors.
 FullF1:  Do perturbations    1 to    18.
 Isotropic polarizability for W=    0.000000       33.34 Bohr**3.
 End of Minotr F.D. properties file   721 does not exist.
 End of Minotr F.D. properties file   722 does not exist.
 End of Minotr F.D. properties file   788 does not exist.
 Leave Link 1002 at Wed Jul 20 19:49:56 2016, MaxMem=    33554432 cpu:       860.8
 (Enter /home/proyectos/fulerenos/M3C-v2.0/M3C-deps_CCC/g09-AM64L-G09RevC.01/l601.exe)
 Copying SCF densities to generalized density rwf, IOpCl= 0 IROHF=0.

 **********************************************************************

            Population analysis using the SCF density.

 **********************************************************************

 Orbital symmetries:
       Occupied  (A') (A") (A') (A') (A') (A') (A') (A') (A") (A')
                 (A") (A') (A') (A')
       Virtual   (A') (A") (A") (A') (A") (A') (A') (A') (A") (A')
                 (A') (A') (A") (A') (A") (A') (A") (A') (A") (A')
                 (A') (A") (A") (A') (A") (A') (A') (A') (A') (A")
                 (A') (A') (A') (A") (A') (A") (A') (A') (A") (A')
                 (A") (A") (A') (A") (A') (A') (A') (A") (A') (A')
                 (A') (A') (A") (A') (A") (A') (A') (A") (A') (A")
                 (A') (A") (A') (A') (A") (A') (A") (A') (A') (A")
                 (A") (A') (A") (A') (A') (A') (A") (A') (A") (A')
                 (A") (A') (A') (A") (A') (A') (A') (A") (A') (A')
                 (A") (A') (A') (A") (A') (A") (A") (A") (A') (A")
                 (A') (A') (A') (A") (A") (A') (A') (A') (A") (A')
                 (A') (A") (A") (A') (A') (A') (A") (A') (A") (A')
                 (A') (A") (A') (A') (A') (A") (A") (A') (A') (A")
                 (A') (A") (A") (A') (A") (A') (A") (A') (A') (A')
                 (A") (A") (A') (A") (A') (A') (A') (A") (A") (A')
                 (A') (A") (A") (A') (A") (A') (A') (A") (A') (A')
                 (A") (A") (A') (A') (A') (A") (A") (A") (A') (A')
                 (A') (A") (A') (A") (A') (A") (A') (A') (A') (A')
                 (A") (A') (A") (A') (A") (A") (A') (A') (A") (A')
                 (A')
 The electronic state is 1-A'.
 Alpha  occ. eigenvalues --  -11.15712 -11.15693 -11.12600 -11.11250 -11.07714
 Alpha  occ. eigenvalues --   -1.84376  -1.59413  -1.46826  -1.38053  -1.27434
 Alpha  occ. eigenvalues --   -1.25201  -1.24647  -1.15423  -1.07506
 Alpha virt. eigenvalues --   -0.99024  -0.93984  -0.87361  -0.83614  -0.78077
 Alpha virt. eigenvalues --   -0.66669  -0.60844  -0.52828  -0.52366  -0.50457
 Alpha virt. eigenvalues --   -0.47725  -0.44921  -0.43734  -0.41802  -0.41147
 Alpha virt. eigenvalues --   -0.39634  -0.37875  -0.37365  -0.35625  -0.33347
 Alpha virt. eigenvalues --   -0.32222  -0.31690  -0.31448  -0.31200  -0.26688
 Alpha virt. eigenvalues --   -0.25531  -0.25273  -0.24166  -0.22551  -0.22422
 Alpha virt. eigenvalues --   -0.22118  -0.20713  -0.18457  -0.18178  -0.16962
 Alpha virt. eigenvalues --   -0.16302  -0.14970  -0.14651  -0.12843  -0.12488
 Alpha virt. eigenvalues --   -0.09888  -0.09329  -0.08559  -0.07808  -0.06879
 Alpha virt. eigenvalues --   -0.05883  -0.05597  -0.05338  -0.05135  -0.02279
 Alpha virt. eigenvalues --   -0.01633  -0.00180   0.00103   0.01441   0.03193
 Alpha virt. eigenvalues --    0.03751   0.07256   0.07502   0.07837   0.12139
 Alpha virt. eigenvalues --    0.12204   0.15851   0.17122   0.17736   0.18073
 Alpha virt. eigenvalues --    0.19930   0.22452   0.29781   0.30680   0.33273
 Alpha virt. eigenvalues --    0.40725   0.43755   0.48439   0.49337   0.50648
 Alpha virt. eigenvalues --    0.55840   0.56784   0.56967   0.60936   0.62724
 Alpha virt. eigenvalues --    0.64909   0.65117   0.70972   0.80279   0.80515
 Alpha virt. eigenvalues --    0.82530   0.84167   0.85422   0.87745   0.90353
 Alpha virt. eigenvalues --    0.91615   0.96360   0.99516   1.04796   1.11412
 Alpha virt. eigenvalues --    1.11884   1.21554   1.23386   1.24887   1.33347
 Alpha virt. eigenvalues --    1.39834   1.45985   1.52061   1.54754   1.61089
 Alpha virt. eigenvalues --    1.63652   1.74586   1.83713   1.88654   1.90255
 Alpha virt. eigenvalues --    1.90448   1.95880   1.97371   1.98502   1.98670
 Alpha virt. eigenvalues --    2.00917   2.03013   2.06551   2.09021   2.09903
 Alpha virt. eigenvalues --    2.13850   2.17549   2.18982   2.23313   2.28820
 Alpha virt. eigenvalues --    2.31972   2.36282   2.40681   2.43202   2.44311
 Alpha virt. eigenvalues --    2.48817   2.51526   2.56019   2.58076   2.68575
 Alpha virt. eigenvalues --    2.75982   2.77459   2.77487   2.89322   2.93448
 Alpha virt. eigenvalues --    3.08893   3.09002   3.15868   3.21599   3.24143
 Alpha virt. eigenvalues --    3.24707   3.43025   3.44553   3.53008   3.59406
 Alpha virt. eigenvalues --    3.59567   3.65764   3.73307   3.80778   4.13127
 Alpha virt. eigenvalues --    4.24817   4.44518   4.47849   4.82237   5.18603
 Alpha virt. eigenvalues --    5.25899   6.09556   6.13870   6.16964   6.18922
 Alpha virt. eigenvalues --    6.20047   6.21005   6.36295   6.36956   6.37868
 Alpha virt. eigenvalues --    6.42498   6.50981   6.52981   6.60124   6.62394
 Alpha virt. eigenvalues --    6.64395   6.72632   6.88145   6.91191   6.98198
 Alpha virt. eigenvalues --    7.01661   7.25997   7.50098   7.58747   7.65723
 Alpha virt. eigenvalues --    7.94025  22.96758  23.54614  24.94895  25.08395
 Alpha virt. eigenvalues --   25.20546
          Condensed to atoms (all electrons):
               1          2          3          4          5          6
     1  C   10.488487  -1.340124  -2.799351   2.307999  -2.799351   0.363790
     2  C   -1.340124   7.574180  -0.754694   1.595832  -0.754694  -0.057775
     3  C   -2.799351  -0.754694   9.592812  -3.653324   1.836922  -0.028682
     4  C    2.307999   1.595832  -3.653324  10.028411  -3.653324   0.022450
     5  C   -2.799351  -0.754694   1.836922  -3.653324   9.592812  -0.028682
     6  H    0.363790  -0.057775  -0.028682   0.022450  -0.028682   0.209320
 Mulliken charges:
               1
     1  C   -0.221450
     2  C   -0.262724
     3  C    1.806319
     4  C   -0.648043
     5  C    1.806319
     6  H    0.519580
 Sum of Mulliken charges =   3.00000
 Mulliken charges with hydrogens summed into heavy atoms:
               1
     1  C    0.298130
     2  C   -0.262724
     3  C    1.806319
     4  C   -0.648043
     5  C    1.806319
 APT charges:
               1
     1  C    0.752679
     2  C    0.086840
     3  C    0.553548
     4  C    0.537400
     5  C    0.553548
     6  H    0.515985
 Sum of APT charges =   3.00000
 APT charges with hydrogens summed into heavy atoms:
               1
     1  C    1.268664
     2  C    0.086840
     3  C    0.553548
     4  C    0.537400
     5  C    0.553548
 Electronic spatial extent (au):  <R**2>=            234.2004
 Charge=              3.0000 electrons
 Dipole moment (field-independent basis, Debye):
    X=             -0.0000    Y=              2.5848    Z=              0.0000  Tot=              2.5848
 Quadrupole moment (field-independent basis, Debye-Ang):
   XX=            -20.8697   YY=             24.3189   ZZ=            -14.0489
   XY=              0.0000   XZ=              0.0000   YZ=             -0.0000
 Traceless Quadrupole moment (field-independent basis, Debye-Ang):
   XX=            -17.3365   YY=             27.8521   ZZ=            -10.5156
   XY=              0.0000   XZ=              0.0000   YZ=             -0.0000
 Octapole moment (field-independent basis, Debye-Ang**2):
  XXX=              0.0000  YYY=             54.9630  ZZZ=              0.0000  XYY=              0.0000
  XXY=             -0.8318  XXZ=              0.0000  XZZ=              0.0000  YZZ=             -1.7561
  YYZ=              0.0000  XYZ=             -0.0000
 Hexadecapole moment (field-independent basis, Debye-Ang**3):
 XXXX=            -18.2111 YYYY=             62.9786 ZZZZ=            -35.4928 XXXY=             -0.0000
 XXXZ=             -0.0000 YYYX=             -0.0000 YYYZ=              0.0000 ZZZX=              0.0000
 ZZZY=              0.0000 XXYY=            -40.3156 XXZZ=             -9.5120 YYZZ=            -38.8703
 XXYZ=             -0.0000 YYXZ=              0.0000 ZZXY=             -0.0000
 N-N= 1.159893150080D+02 E-N=-6.470294749222D+02  KE= 1.881853339677D+02
 Symmetry A'   KE= 1.494805164549D+02
 Symmetry A"   KE= 3.870481751275D+01
  Exact polarizability:  17.918  -0.000  56.673   0.000  -0.000  25.430
 Approx polarizability:  25.623  -0.000 136.219   0.000  -0.000  57.679
 No NMR shielding tensors so no spin-rotation constants.
 Leave Link  601 at Wed Jul 20 19:49:56 2016, MaxMem=    33554432 cpu:         0.6
 (Enter /home/proyectos/fulerenos/M3C-v2.0/M3C-deps_CCC/g09-AM64L-G09RevC.01/l701.exe)
 Compute integral second derivatives.
 ... and contract with generalized density number  0.
 Leave Link  701 at Wed Jul 20 19:49:58 2016, MaxMem=    33554432 cpu:         1.3
 (Enter /home/proyectos/fulerenos/M3C-v2.0/M3C-deps_CCC/g09-AM64L-G09RevC.01/l702.exe)
 L702 exits ... SP integral derivatives will be done elsewhere.
 Leave Link  702 at Wed Jul 20 19:49:58 2016, MaxMem=    33554432 cpu:         0.1
 (Enter /home/proyectos/fulerenos/M3C-v2.0/M3C-deps_CCC/g09-AM64L-G09RevC.01/l703.exe)
 Compute integral second derivatives, UseDBF=F ICtDFT=           0.
 Integral derivatives from FoFJK, PRISM(SPDF).
 Calling FoFJK, ICntrl=    100127 FMM=F ISym2X=1 I1Cent= 0 IOpClX= 0 NMat=1 NMatS=1 NMatT=0.
 FoFJK:  IHMeth= 1 ICntrl=  100127 DoSepK=F KAlg= 0 I1Cent=   0 FoldK=F
 IRaf=         0 NMat=   1 IRICut=       1 DoRegI=T DoRafI=F ISym2E= 1.
 FoFCou: FMM=F IPFlag=           0 FMFlag=      100000 FMFlg1=         800
         NFxFlg=           0 DoJE=F BraDBF=F KetDBF=F FulRan=T
         wScrn=  0.000000 ICntrl=  100127 IOpCl=  0 I1Cent=           0 NGrid=           0
         NMat0=    1 NMatS0=      1 NMatT0=    0 NMatD0=    1 NMtDS0=    0 NMtDT0=    0
 Petite list used in FoFCou.
 Leave Link  703 at Wed Jul 20 20:01:39 2016, MaxMem=    33554432 cpu:       700.9
 (Enter /home/proyectos/fulerenos/M3C-v2.0/M3C-deps_CCC/g09-AM64L-G09RevC.01/l716.exe)
 Dipole        =-4.09126367D-06 1.01693910D+00 1.38727734D-15
 Polarizability= 1.79178400D+01-1.50537008D-05 5.66728717D+01
                 4.38307419D-09-4.66977481D-09 2.54301865D+01
 Full mass-weighted force constant matrix:
 Low frequencies ---  -19.4007  -17.6195  -13.9423   -0.0007   -0.0007   -0.0007
 Low frequencies ---  252.6005  293.5863  453.6398
 Diagonal vibrational polarizability:
       13.3223046       7.1556055       6.1445896
 Harmonic frequencies (cm**-1), IR intensities (KM/Mole), Raman scattering
 activities (A**4/AMU), depolarization ratios for plane and unpolarized
 incident light, reduced masses (AMU), force constants (mDyne/A),
 and normal coordinates:
                      1                      2                      3
                     A'                     A"                     A'
 Frequencies --    252.5965               293.5840               453.6393
 Red. masses --      5.9489                 3.2645                11.2927
 Frc consts  --      0.2236                 0.1658                 1.3692
 IR Inten    --     19.3248                18.1216                18.8782
  Atom  AN      X      Y      Z        X      Y      Z        X      Y      Z
     1   6    -0.27   0.00  -0.00     0.00  -0.00  -0.19    -0.09  -0.00  -0.00
     2   6     0.43  -0.00   0.00    -0.00  -0.00   0.31     0.59  -0.00  -0.00
     3   6     0.15   0.00  -0.00    -0.00  -0.15   0.06    -0.45   0.00   0.00
     4   6    -0.39  -0.00  -0.00     0.00  -0.00  -0.15     0.42   0.00  -0.00
     5   6     0.15   0.00   0.00     0.00   0.15   0.06    -0.45   0.00  -0.00
     6   1    -0.74   0.00  -0.00    -0.00  -0.00  -0.89    -0.25  -0.00   0.00
                      4                      5                      6
                     A"                     A'                     A'
 Frequencies --    640.2901               681.6552               694.9180
 Red. masses --      7.8086                 9.5679                 1.2474
 Frc consts  --      1.8862                 2.6194                 0.3549
 IR Inten    --      0.6078                29.0036                48.5023
  Atom  AN      X      Y      Z        X      Y      Z        X      Y      Z
     1   6     0.00  -0.00   0.12     0.00  -0.43   0.00    -0.14  -0.00   0.00
     2   6     0.00  -0.00   0.42    -0.00  -0.30  -0.00     0.04  -0.00   0.00
     3   6     0.00   0.32  -0.32     0.00   0.15   0.35     0.01   0.00   0.00
     4   6     0.00   0.00   0.14    -0.00   0.46   0.00    -0.01   0.00  -0.00
     5   6    -0.00  -0.32  -0.32     0.00   0.15  -0.35     0.01   0.00  -0.00
     6   1    -0.00  -0.00  -0.62    -0.00  -0.47  -0.00     0.99  -0.00  -0.00
                      7                      8                      9
                     A"                     A'                     A"
 Frequencies --    953.4955               973.5994              1447.7286
 Red. masses --      1.5763                 9.2428                11.9959
 Frc consts  --      0.8444                 5.1619                14.8134
 IR Inten    --      7.2091                14.4295                18.1679
  Atom  AN      X      Y      Z        X      Y      Z        X      Y      Z
     1   6    -0.00  -0.00  -0.18    -0.00   0.42  -0.00    -0.00  -0.00  -0.01
     2   6    -0.00  -0.00   0.14     0.00   0.11   0.00     0.00  -0.00  -0.00
     3   6     0.00   0.01  -0.01    -0.00  -0.30   0.44     0.00  -0.45  -0.31
     4   6    -0.00   0.00  -0.01    -0.00   0.03   0.00     0.00   0.00   0.64
     5   6    -0.00  -0.01  -0.01    -0.00  -0.30  -0.44    -0.00   0.45  -0.31
     6   1     0.00  -0.00   0.97     0.00   0.50   0.00    -0.00  -0.00   0.02
                     10                     11                     12
                     A'                     A'                     A'
 Frequencies --   1730.7162              1777.8994              2763.7899
 Red. masses --      6.6574                11.1089                 1.1660
 Frc consts  --     11.7492                20.6888                 5.2477
 IR Inten    --    300.6296                 0.0940               671.1242
  Atom  AN      X      Y      Z        X      Y      Z        X      Y      Z
     1   6    -0.00  -0.33  -0.00     0.00  -0.14  -0.00    -0.00  -0.11  -0.00
     2   6     0.00   0.57  -0.00     0.00   0.28   0.00     0.00   0.03   0.00
     3   6    -0.00   0.02   0.14    -0.00  -0.38  -0.24    -0.00  -0.00   0.00
     4   6     0.00  -0.22   0.00    -0.00   0.64  -0.00     0.00  -0.00   0.00
     5   6    -0.00   0.02  -0.14    -0.00  -0.38   0.24    -0.00  -0.00  -0.00
     6   1     0.00  -0.70   0.00    -0.00  -0.28   0.00     0.00   0.99   0.00

 -------------------
 - Thermochemistry -
 -------------------
 Temperature   298.150 Kelvin.  Pressure   1.00000 Atm.
 Atom     1 has atomic number  6 and mass  12.00000
 Atom     2 has atomic number  6 and mass  12.00000
 Atom     3 has atomic number  6 and mass  12.00000
 Atom     4 has atomic number  6 and mass  12.00000
 Atom     5 has atomic number  6 and mass  12.00000
 Atom     6 has atomic number  1 and mass   1.00783
 Molecular mass:    61.00783 amu.
 Principal axes and moments of inertia in atomic units:
                           1         2         3
     Eigenvalues --    51.25058 367.85275 419.10333
           X            0.00000   0.00000   1.00000
           Y            1.00000   0.00000  -0.00000
           Z            0.00000   1.00000   0.00000
 This molecule is an asymmetric top.
 Rotational symmetry number  1.
 Rotational temperatures (Kelvin)      1.69001     0.23546     0.20666
 Rotational constants (GHZ):          35.21407     4.90615     4.30620
 Zero-point vibrational energy      75747.0 (Joules/Mol)
                                   18.10397 (Kcal/Mol)
 Warning -- explicit consideration of   3 degrees of freedom as
           vibrations may cause significant error
 Vibrational temperatures:    363.43   422.40   652.68   921.23   980.75
          (Kelvin)            999.83  1371.87  1400.79  2082.96  2490.11
                             2558.00  3976.47
 
 Zero-point correction=                           0.028851 (Hartree/Particle)
 Thermal correction to Energy=                    0.033323
 Thermal correction to Enthalpy=                  0.034267
 Thermal correction to Gibbs Free Energy=         0.002412
 Sum of electronic and zero-point Energies=           -188.953277
 Sum of electronic and thermal Energies=              -188.948804
 Sum of electronic and thermal Enthalpies=            -188.947860
 Sum of electronic and thermal Free Energies=         -188.979715
 
                     E (Thermal)             CV                S
                      KCal/Mol        Cal/Mol-Kelvin    Cal/Mol-Kelvin
 Total                   20.911             14.399             67.045
 Electronic               0.000              0.000              0.000
 Translational            0.889              2.981             38.245
 Rotational               0.889              2.981             23.584
 Vibrational             19.133              8.437              5.216
 Vibration     1          0.664              1.758              1.712
 Vibration     2          0.688              1.686              1.453
 Vibration     3          0.812              1.353              0.785
                       Q            Log10(Q)             Ln(Q)
 Total Bot       0.777004D-01         -1.109577         -2.554894
 Total V=0       0.144781D+13         12.160711         28.001071
 Vib (Bot)       0.130376D-12        -12.884803        -29.668356
 Vib (Bot)    1  0.771708D+00         -0.112547         -0.259150
 Vib (Bot)    2  0.650096D+00         -0.187022         -0.430635
 Vib (Bot)    3  0.376907D+00         -0.423766         -0.975757
 Vib (V=0)       0.242931D+01          0.385484          0.887609
 Vib (V=0)    1  0.141953D+01          0.152144          0.350325
 Vib (V=0)    2  0.132014D+01          0.120619          0.277736
 Vib (V=0)    3  0.112615D+01          0.051595          0.118801
 Electronic      0.100000D+01          0.000000          0.000000
 Translational   0.187298D+08          7.272534         16.745627
 Rotational      0.318195D+05          4.502693         10.367835
 
                                                              b3lyp opt
                                                             IR Spectrum
 
     2                                             1 1            1                                                                  
     7                                             7 7            4                     99          66 6        4      2 2           
     6                                             7 3            4                     75          98 4        5      9 5           
     4                                             8 1            8                     43          52 0        4      4 3           
 
     X                                             X X            X                     XX          XX X        X      X X           
     X                                               X                                                                               
     X                                               X                                                                               
     X                                               X                                                                               
     X                                               X                                                                               
     X                                               X                                                                               
     X                                               X                                                                               
     X                                               X                                                                               
     X                                               X                                                                               
     X                                                                                                                               
     X                                                                                                                               
     X                                                                                                                               
     X                                                                                                                               
     X                                                                                                                               
     X                                                                                                                               
     X                                                                                                                               
     X                                                                                                                               
     X                                                                                                                               
     X                                                                                                                               
     X                                                                                                                               
 
 ***** Axes restored to original set *****
 -------------------------------------------------------------------
 Center     Atomic                   Forces (Hartrees/Bohr)
 Number     Number              X              Y              Z
 -------------------------------------------------------------------
      1        6           0.000018335   -0.000000002   -0.000000013
      2        6          -0.000005121    0.000000000   -0.000000128
      3        6          -0.000014802   -0.000004301    0.000000127
      4        6           0.000022410   -0.000000002   -0.000000130
      5        6          -0.000014801    0.000004304    0.000000127
      6        1          -0.000006021    0.000000001    0.000000016
 -------------------------------------------------------------------
 Cartesian Forces:  Max     0.000022410 RMS     0.000008744
 Z-matrix is all fixed cartesians, so copy forces.
 Force constants in Cartesian coordinates: 
                1             2             3             4             5 
      1  0.907675D+00
      2 -0.759584D-04  0.112205D+00
      3  0.453557D-04  0.000000D+00  0.471135D-01
      4 -0.595789D+00  0.500938D-04 -0.301481D-04  0.983719D+00
      5  0.500935D-04 -0.711852D-01  0.000000D+00 -0.822500D-04  0.122358D+00
      6 -0.301170D-04  0.000000D+00 -0.236912D-01  0.488393D-04  0.000000D+00
      7 -0.190449D-01  0.139151D-01  0.000000D+00 -0.172386D+00  0.379173D-01
      8 -0.606140D-02 -0.672070D-03  0.000000D+00  0.869084D-01 -0.409198D-01
      9  0.000000D+00  0.000000D+00 -0.213255D-02 -0.765189D-05  0.196251D-05
     10  0.162110D-02  0.000000D+00  0.000000D+00 -0.600470D-01  0.625647D-05
     11  0.000000D+00  0.654825D-02  0.000000D+00  0.625497D-05  0.546047D-02
     12  0.000000D+00  0.000000D+00  0.439511D-02 -0.404679D-05  0.000000D+00
     13 -0.190464D-01 -0.139116D-01  0.000000D+00 -0.172410D+00 -0.378922D-01
     14  0.606491D-02 -0.670571D-03  0.000000D+00 -0.868832D-01 -0.408960D-01
     15  0.000000D+00  0.000000D+00 -0.213255D-02 -0.765221D-05 -0.196083D-05
     16 -0.275416D+00  0.218851D-04 -0.132884D-04  0.169126D-01  0.000000D+00
     17  0.218849D-04 -0.462252D-01  0.000000D+00  0.000000D+00  0.251826D-01
     18 -0.132682D-04  0.000000D+00 -0.235522D-01  0.000000D+00  0.000000D+00
                6             7             8             9            10 
      6  0.486719D-01
      7 -0.753838D-05  0.506058D+00
      8  0.461766D-05  0.192049D+00  0.397857D+00
      9 -0.216287D-01  0.257196D-04  0.104193D-04  0.215192D-01
     10 -0.434294D-05 -0.376970D+00 -0.263609D+00 -0.188550D-04  0.814295D+00
     11  0.000000D+00 -0.254469D+00 -0.203534D+00 -0.138006D-04 -0.399222D-04
     12  0.143620D-01 -0.190210D-04 -0.141180D-04 -0.220999D-01  0.422481D-04
     13 -0.753922D-05  0.615150D-01 -0.120847D-01  0.183578D-05 -0.376871D+00
     14 -0.461563D-05  0.120438D-01 -0.152496D+00  0.000000D+00  0.263642D+00
     15 -0.216287D-01  0.183563D-05  0.000000D+00  0.216075D-01 -0.188524D-04
     16  0.000000D+00  0.827790D-03  0.279819D-02  0.000000D+00 -0.202834D-02
     17  0.000000D+00 -0.145577D-02 -0.235506D-03  0.000000D+00  0.000000D+00
     18  0.391485D-02  0.000000D+00  0.000000D+00  0.273443D-02  0.000000D+00
               11            12            13            14            15 
     11  0.396247D+00
     12  0.000000D+00  0.261038D-01
     13  0.254502D+00 -0.190182D-04  0.505985D+00
     14 -0.203633D+00  0.141223D-04 -0.192070D+00  0.397931D+00
     15  0.138038D-04 -0.220999D-01  0.257176D-04 -0.104243D-04  0.215192D-01
     16  0.000000D+00  0.000000D+00  0.827534D-03 -0.279839D-02  0.000000D+00
     17 -0.108748D-02  0.000000D+00  0.145557D-02 -0.235250D-03  0.000000D+00
     18  0.000000D+00 -0.661054D-03  0.000000D+00  0.000000D+00  0.273443D-02
               16            17            18 
     16  0.258876D+00
     17 -0.225617D-04  0.226008D-01
     18  0.128739D-04  0.000000D+00  0.148296D-01
 Leave Link  716 at Wed Jul 20 20:01:39 2016, MaxMem=    33554432 cpu:         0.1
 (Enter /home/proyectos/fulerenos/M3C-v2.0/M3C-deps_CCC/g09-AM64L-G09RevC.01/l103.exe)

 GradGradGradGradGradGradGradGradGradGradGradGradGradGradGradGradGradGrad
 Berny optimization.
 Search for a local minimum.
 Step number   1 out of a maximum of    2
 All quantities printed in internal units (Hartrees-Bohrs-Radians)
 Second derivative matrix not updated -- analytic derivatives used.
 The second derivative matrix:
                          X1        Y1        Z1        X2        Y2
           X1           0.90768
           Y1          -0.00008   0.11220
           Z1           0.00005  -0.00000   0.04711
           X2          -0.59579   0.00005  -0.00003   0.98372
           Y2           0.00005  -0.07119   0.00000  -0.00008   0.12236
           Z2          -0.00003   0.00000  -0.02369   0.00005  -0.00000
           X3          -0.01904   0.01392  -0.00000  -0.17239   0.03792
           Y3          -0.00606  -0.00067  -0.00000   0.08691  -0.04092
           Z3          -0.00000   0.00000  -0.00213  -0.00001   0.00000
           X4           0.00162   0.00000  -0.00000  -0.06005   0.00001
           Y4           0.00000   0.00655   0.00000   0.00001   0.00546
           Z4          -0.00000  -0.00000   0.00440  -0.00000   0.00000
           X5          -0.01905  -0.01391  -0.00000  -0.17241  -0.03789
           Y5           0.00606  -0.00067   0.00000  -0.08688  -0.04090
           Z5          -0.00000  -0.00000  -0.00213  -0.00001  -0.00000
           X6          -0.27542   0.00002  -0.00001   0.01691   0.00000
           Y6           0.00002  -0.04623   0.00000   0.00000   0.02518
           Z6          -0.00001   0.00000  -0.02355   0.00000  -0.00000
                          Z2        X3        Y3        Z3        X4
           Z2           0.04867
           X3          -0.00001   0.50606
           Y3           0.00000   0.19205   0.39786
           Z3          -0.02163   0.00003   0.00001   0.02152
           X4          -0.00000  -0.37697  -0.26361  -0.00002   0.81430
           Y4           0.00000  -0.25447  -0.20353  -0.00001  -0.00004
           Z4           0.01436  -0.00002  -0.00001  -0.02210   0.00004
           X5          -0.00001   0.06152  -0.01208   0.00000  -0.37687
           Y5          -0.00000   0.01204  -0.15250   0.00000   0.26364
           Z5          -0.02163   0.00000  -0.00000   0.02161  -0.00002
           X6           0.00000   0.00083   0.00280  -0.00000  -0.00203
           Y6          -0.00000  -0.00146  -0.00024  -0.00000   0.00000
           Z6           0.00391  -0.00000   0.00000   0.00273  -0.00000
                          Y4        Z4        X5        Y5        Z5
           Y4           0.39625
           Z4          -0.00000   0.02610
           X5           0.25450  -0.00002   0.50598
           Y5          -0.20363   0.00001  -0.19207   0.39793
           Z5           0.00001  -0.02210   0.00003  -0.00001   0.02152
           X6           0.00000  -0.00000   0.00083  -0.00280  -0.00000
           Y6          -0.00109  -0.00000   0.00146  -0.00024   0.00000
           Z6           0.00000  -0.00066  -0.00000  -0.00000   0.00273
                          X6        Y6        Z6
           X6           0.25888
           Y6          -0.00002   0.02260
           Z6           0.00001  -0.00000   0.01483
 ITU=  0
     Eigenvalues ---    0.01358   0.01520   0.06338   0.09522   0.13809
     Eigenvalues ---    0.14382   0.22577   0.30807   0.59273   0.95178
     Eigenvalues ---    1.42640   1.59965
 Angle between quadratic step and forces=  26.86 degrees.
 ClnCor:  largest displacement from symmetrization is 2.42D-12 for atom     6.
 Linear search not attempted -- first point.
 ClnCor:  largest displacement from symmetrization is 4.44D-16 for atom     5.
 B after Tr=     0.000000   -0.000000   -0.000000
         Rot=    1.000000    0.000000    0.000000   -0.000000 Ang=   0.00 deg.
 Variable       Old X    -DE/DX   Delta X   Delta X   Delta X     New X
                                 (Linear)    (Quad)   (Total)
    X1       -3.62136   0.00002   0.00000   0.00002   0.00002  -3.62134
    Y1        0.00059  -0.00000   0.00000  -0.00000  -0.00000   0.00059
    Z1       -0.00022  -0.00000   0.00000  -0.00000  -0.00000  -0.00022
    X2       -1.13758  -0.00001   0.00000   0.00000   0.00000  -1.13758
    Y2        0.00035   0.00000   0.00000  -0.00000  -0.00000   0.00035
    Z2       -0.00009  -0.00000   0.00000  -0.00000  -0.00000  -0.00009
    X3        1.24937  -0.00001   0.00000  -0.00002  -0.00002   1.24936
    Y3       -1.46119  -0.00000   0.00000   0.00001   0.00001  -1.46119
    Z3        0.00004   0.00000   0.00000   0.00000   0.00000   0.00004
    X4        3.22099   0.00002   0.00000   0.00002   0.00002   3.22101
    Y4       -0.00007  -0.00000   0.00000  -0.00000  -0.00000  -0.00007
    Z4        0.00014  -0.00000   0.00000  -0.00000  -0.00000   0.00014
    X5        1.24965  -0.00001   0.00000  -0.00002  -0.00002   1.24964
    Y5        1.46144   0.00000   0.00000  -0.00001  -0.00001   1.46143
    Z5        0.00004   0.00000   0.00000   0.00000   0.00000   0.00004
    X6       -5.76716  -0.00001   0.00000  -0.00000  -0.00000  -5.76717
    Y6        0.00079   0.00000   0.00000   0.00000   0.00000   0.00079
    Z6       -0.00033   0.00000   0.00000   0.00000   0.00000  -0.00033
         Item               Value     Threshold  Converged?
 Maximum Force            0.000022     0.000450     YES
 RMS     Force            0.000009     0.000300     YES
 Maximum Displacement     0.000019     0.001800     YES
 RMS     Displacement     0.000008     0.001200     YES
 Predicted change in Energy=-5.794240D-10
 Optimization completed.
    -- Stationary point found.
 GradGradGradGradGradGradGradGradGradGradGradGradGradGradGradGradGradGrad

 Leave Link  103 at Wed Jul 20 20:01:39 2016, MaxMem=    33554432 cpu:         0.1
 (Enter /home/proyectos/fulerenos/M3C-v2.0/M3C-deps_CCC/g09-AM64L-G09RevC.01/l9999.exe)
 1\1\GINC-EINSTENIO\Freq\RB3LYP\6-311++G(3df,2p)\C5H1(3+)\ROOT\20-Jul-2
 016\0\\#p b3lyp/6-311++G(3df,2p) freq symmetry=Loose\\b3lyp opt\\3,1\C
 ,-1.91634197,0.0003098637,-0.0001154926\C,-0.601983017,0.0001843571,-0
 .0000461076\C,0.661140178,-0.773230715,0.000019014\C,1.704476942,-0.00
 00358842,0.0000756504\C,0.66128786,0.7733581866,0.000019014\H,-3.05185
 0914,0.0004182922,-0.0001754361\\Version=EM64L-G09RevE.01\State=1-A'\H
 F=-188.9821271\RMSD=8.698e-09\RMSF=8.744e-06\ZeroPoint=0.0288505\Therm
 al=0.0333233\Dipole=-1.0169391,0.0000971,-0.0000578\DipoleDeriv=0.8662
 519,-0.0000114,0.0000117,-0.0000114,0.7465619,0.,0.0000119,0.,0.645223
 5,-0.3101062,0.0000703,-0.0000255,0.0000703,0.426209,0.,-0.000026,0.,0
 .144417,0.3029325,0.2651349,-0.0000199,-0.3515312,0.6650804,-0.0000181
 ,-0.0000195,0.0000139,0.6926302,0.8209212,-0.0000507,0.0000169,-0.0000
 508,0.2894212,0.,0.0000164,0.,0.5018589,0.302949,-0.2650658,-0.0000199
 ,0.3516004,0.6650639,0.0000181,-0.0000195,-0.0000139,0.6926302,1.01705
 15,-0.0000773,0.0000367,-0.0000773,0.2076635,0.,0.0000367,0.,0.3232404
 \Polar=56.6728713,-0.0029833,25.4301868,0.0020609,-0.0000002,17.917840
 1\PG=CS [SG(C3H1),X(C2)]\NImag=0\\0.90767511,-0.00007596,0.11220478,0.
 00004536,0.,0.04711346,-0.59578887,0.00005009,-0.00003015,0.98371921,0
 .00005009,-0.07118517,0.,-0.00008225,0.12235780,-0.00003012,0.,-0.0236
 9124,0.00004884,0.,0.04867185,-0.01904494,0.01391506,-0.00000089,-0.17
 238606,0.03791734,-0.00000754,0.50605809,-0.00606140,-0.00067207,-0.00
 000028,0.08690836,-0.04091979,0.00000462,0.19204890,0.39785740,-0.0000
 0094,0.00000074,-0.00213255,-0.00000765,0.00000196,-0.02162871,0.00002
 572,0.00001042,0.02151924,0.00162110,0.00000047,-0.00000014,-0.0600470
 0,0.00000626,-0.00000434,-0.37696993,-0.26360933,-0.00001886,0.8142951
 6,0.00000047,0.00654825,0.,0.00000625,0.00546047,0.,-0.25446938,-0.203
 53446,-0.00001380,-0.00003992,0.39624664,-0.00000010,0.,0.00439511,-0.
 00000405,0.,0.01436196,-0.00001902,-0.00001412,-0.02209992,0.00004225,
 0.,0.02610382,-0.01904644,-0.01391155,-0.00000089,-0.17240989,-0.03789
 223,-0.00000754,0.06151504,-0.01208472,0.00000184,-0.37687098,0.254502
 49,-0.00001902,0.50598473,0.00606491,-0.00067057,0.00000028,-0.0868832
 5,-0.04089596,-0.00000462,0.01204385,-0.15249557,0.00000076,0.26364243
 ,-0.20363341,0.00001412,-0.19206955,0.39793076,-0.00000094,-0.00000074
 ,-0.00213255,-0.00000765,-0.00000196,-0.02162871,0.00000184,-0.0000007
 6,0.02160751,-0.00001885,0.00001380,-0.02209992,0.00002572,-0.00001042
 ,0.02151924,-0.27541596,0.00002189,-0.00001329,0.01691261,0.00000079,0
 .00000070,0.00082779,0.00279819,-0.00000011,-0.00202834,0.00000009,-0.
 00000007,0.00082753,-0.00279839,-0.00000011,0.25887637,0.00002188,-0.0
 4622523,0.,0.00000079,0.02518265,0.,-0.00145577,-0.00023551,-0.0000000
 8,0.00000009,-0.00108748,0.,0.00145557,-0.00023525,0.00000008,-0.00002
 256,0.02260081,-0.00001327,0.,-0.02355224,0.00000066,0.,0.00391485,-0.
 00000011,0.00000013,0.00273443,-0.00000006,0.,-0.00066105,-0.00000011,
 -0.00000013,0.00273443,0.00001287,0.,0.01482958\\-0.00001834,0.,0.0000
 0001,0.00000512,0.,0.00000013,0.00001480,0.00000430,-0.00000013,-0.000
 02241,0.,0.00000013,0.00001480,-0.00000430,-0.00000013,0.00000602,0.,-
 0.00000002\\\@


 THE POLHOLDE ROLLS WITHOUT SLIPPING ON THE HERPOLHOLDE LYING IN
 THE INVARIABLE PLANE.
 H.GOLDSTEIN, "CLASSICAL MECHANICS", PG 161
 Job cpu time:       0 days  0 hours 33 minutes 48.1 seconds.
 File lengths (MBytes):  RWF=     27 Int=      0 D2E=      0 Chk=      4 Scr=      1
 Normal termination of Gaussian 09 at Wed Jul 20 20:01:40 2016.
