 Entering Gaussian System, Link 0=/home/proyectos/fulerenos/M3C-v1.9/M3C-deps_CCC/g09-AM64L-G09RevC.01/g09
 Initial command:
 /home/proyectos/fulerenos/M3C-v1.9/M3C-deps_CCC/g09-AM64L-G09RevC.01/l1.exe "/scratch/naguirre/gaussian/Gau-27692.inp" -scrdir="/scratch/naguirre/gaussian/"
 Entering Link 1 = /home/proyectos/fulerenos/M3C-v1.9/M3C-deps_CCC/g09-AM64L-G09RevC.01/l1.exe PID=     27700.
  
 Copyright (c) 1988,1990,1992,1993,1995,1998,2003,2009,2015,
            Gaussian, Inc.  All Rights Reserved.
  
 This is part of the Gaussian(R) 09 program.  It is based on
 the Gaussian(R) 03 system (copyright 2003, Gaussian, Inc.),
 the Gaussian(R) 98 system (copyright 1998, Gaussian, Inc.),
 the Gaussian(R) 94 system (copyright 1995, Gaussian, Inc.),
 the Gaussian 92(TM) system (copyright 1992, Gaussian, Inc.),
 the Gaussian 90(TM) system (copyright 1990, Gaussian, Inc.),
 the Gaussian 88(TM) system (copyright 1988, Gaussian, Inc.),
 the Gaussian 86(TM) system (copyright 1986, Carnegie Mellon
 University), and the Gaussian 82(TM) system (copyright 1983,
 Carnegie Mellon University). Gaussian is a federally registered
 trademark of Gaussian, Inc.
  
 This software contains proprietary and confidential information,
 including trade secrets, belonging to Gaussian, Inc.
  
 This software is provided under written license and may be
 used, copied, transmitted, or stored only in accord with that
 written license.
  
 The following legend is applicable only to US Government
 contracts under FAR:
  
                    RESTRICTED RIGHTS LEGEND
  
 Use, reproduction and disclosure by the US Government is
 subject to restrictions as set forth in subparagraphs (a)
 and (c) of the Commercial Computer Software - Restricted
 Rights clause in FAR 52.227-19.
  
 Gaussian, Inc.
 340 Quinnipiac St., Bldg. 40, Wallingford CT 06492
  
  
 ---------------------------------------------------------------
 Warning -- This program may not be used in any manner that
 competes with the business of Gaussian, Inc. or will provide
 assistance to any competitor of Gaussian, Inc.  The licensee
 of this program is prohibited from giving any competitor of
 Gaussian, Inc. access to this program.  By using this program,
 the user acknowledges that Gaussian, Inc. is engaged in the
 business of creating and licensing software in the field of
 computational chemistry and represents and warrants to the
 licensee that it is not a competitor of Gaussian, Inc. and that
 it will not use this program in any manner prohibited above.
 ---------------------------------------------------------------
  

 Cite this work as:
 Gaussian 09, Revision E.01,
 M. J. Frisch, G. W. Trucks, H. B. Schlegel, G. E. Scuseria, 
 M. A. Robb, J. R. Cheeseman, G. Scalmani, V. Barone, B. Mennucci, 
 G. A. Petersson, H. Nakatsuji, M. Caricato, X. Li, H. P. Hratchian, 
 A. F. Izmaylov, J. Bloino, G. Zheng, J. L. Sonnenberg, M. Hada, 
 M. Ehara, K. Toyota, R. Fukuda, J. Hasegawa, M. Ishida, T. Nakajima, 
 Y. Honda, O. Kitao, H. Nakai, T. Vreven, J. A. Montgomery, Jr., 
 J. E. Peralta, F. Ogliaro, M. Bearpark, J. J. Heyd, E. Brothers, 
 K. N. Kudin, V. N. Staroverov, T. Keith, R. Kobayashi, J. Normand, 
 K. Raghavachari, A. Rendell, J. C. Burant, S. S. Iyengar, J. Tomasi, 
 M. Cossi, N. Rega, J. M. Millam, M. Klene, J. E. Knox, J. B. Cross, 
 V. Bakken, C. Adamo, J. Jaramillo, R. Gomperts, R. E. Stratmann, 
 O. Yazyev, A. J. Austin, R. Cammi, C. Pomelli, J. W. Ochterski, 
 R. L. Martin, K. Morokuma, V. G. Zakrzewski, G. A. Voth, 
 P. Salvador, J. J. Dannenberg, S. Dapprich, A. D. Daniels, 
 O. Farkas, J. B. Foresman, J. V. Ortiz, J. Cioslowski, 
 and D. J. Fox, Gaussian, Inc., Wallingford CT, 2013.
 
 ******************************************
 Gaussian 09:  EM64L-G09RevE.01 30-Nov-2015
                20-Jun-2016 
 ******************************************
 %NProcShared=4
 Will use up to    4 processors via shared memory.
 ---------------------------------------------
 #p b3lyp/6-311++G(3df,2p) freq symmetry=Loose
 ---------------------------------------------
 1/10=4,30=1,38=1/1,3;
 2/12=2,17=4,18=3,40=1/2;
 3/5=4,6=6,7=1216,11=2,16=1,25=1,30=1,71=2,74=-5,140=1/1,2,3;
 4//1;
 5/5=2,38=5,98=1/2;
 8/6=4,10=90,11=11/1;
 11/6=1,8=1,9=11,15=111,16=1/1,2,10;
 10/6=1/2;
 6/7=2,8=2,9=2,10=2,18=1,28=1/1;
 7/8=1,10=1,25=1/1,2,3,16;
 1/10=4,30=1/3;
 99//99;
 Leave Link    1 at Mon Jun 20 14:08:55 2016, MaxMem=           0 cpu:         0.3
 (Enter /home/proyectos/fulerenos/M3C-v1.9/M3C-deps_CCC/g09-AM64L-G09RevC.01/l101.exe)
 ---------
 b3lyp opt
 ---------
 Symbolic Z-matrix:
 Charge =  0 Multiplicity = 4
 H                     0.        0.        1.76045 
 C                     0.        0.        0.67641 
 C                     0.        1.21635   0.01752 
 C                     0.        2.31917  -0.50243 
 C                     0.       -1.21635   0.01752 
 C                     0.       -2.31917  -0.50243 
 
 NAtoms=      6 NQM=        6 NQMF=       0 NMMI=      0 NMMIF=      0
                NMic=       0 NMicF=      0.
                    Isotopes and Nuclear Properties:
 (Nuclear quadrupole moments (NQMom) in fm**2, nuclear magnetic moments (NMagM)
  in nuclear magnetons)

  Atom         1           2           3           4           5           6
 IAtWgt=           1          12          12          12          12          12
 AtmWgt=   1.0078250  12.0000000  12.0000000  12.0000000  12.0000000  12.0000000
 NucSpn=           1           0           0           0           0           0
 AtZEff=   0.0000000   0.0000000   0.0000000   0.0000000   0.0000000   0.0000000
 NQMom=    0.0000000   0.0000000   0.0000000   0.0000000   0.0000000   0.0000000
 NMagM=    2.7928460   0.0000000   0.0000000   0.0000000   0.0000000   0.0000000
 AtZNuc=   1.0000000   6.0000000   6.0000000   6.0000000   6.0000000   6.0000000
 Leave Link  101 at Mon Jun 20 14:08:55 2016, MaxMem=    33554432 cpu:         0.2
 (Enter /home/proyectos/fulerenos/M3C-v1.9/M3C-deps_CCC/g09-AM64L-G09RevC.01/l103.exe)

 GradGradGradGradGradGradGradGradGradGradGradGradGradGradGradGradGradGrad
 Berny optimization.
 Initialization pass.
 Trust Radius=3.00D-01 FncErr=1.00D-07 GrdErr=1.00D-07
 Number of steps in this run=      2 maximum allowed number of steps=      2.
 GradGradGradGradGradGradGradGradGradGradGradGradGradGradGradGradGradGrad

 Leave Link  103 at Mon Jun 20 14:08:55 2016, MaxMem=    33554432 cpu:         0.1
 (Enter /home/proyectos/fulerenos/M3C-v1.9/M3C-deps_CCC/g09-AM64L-G09RevC.01/l202.exe)
                          Input orientation:                          
 ---------------------------------------------------------------------
 Center     Atomic      Atomic             Coordinates (Angstroms)
 Number     Number       Type             X           Y           Z
 ---------------------------------------------------------------------
      1          1           0        0.000000    0.000000    1.760450
      2          6           0        0.000000    0.000000    0.676409
      3          6           0        0.000000    1.216352    0.017524
      4          6           0        0.000000    2.319171   -0.502432
      5          6           0        0.000000   -1.216352    0.017524
      6          6           0        0.000000   -2.319171   -0.502432
 ---------------------------------------------------------------------
                    Distance matrix (angstroms):
                    1          2          3          4          5
     1  H    0.000000
     2  C    1.084041   0.000000
     3  C    2.125395   1.383344   0.000000
     4  C    3.240245   2.601580   1.219247   0.000000
     5  C    2.125395   1.383344   2.432704   3.573552   0.000000
     6  C    3.240245   2.601580   3.573552   4.638342   1.219247
                    6
     6  C    0.000000
 Stoichiometry    C5H(4)
 Framework group  C2V[C2(CH),SGV(C4)]
 Deg. of freedom     5
 Full point group                 C2V     NOp   4
 Largest Abelian subgroup         C2V     NOp   4
 Largest concise Abelian subgroup C2      NOp   2
                         Standard orientation:                         
 ---------------------------------------------------------------------
 Center     Atomic      Atomic             Coordinates (Angstroms)
 Number     Number       Type             X           Y           Z
 ---------------------------------------------------------------------
      1          1           0        0.000000   -0.000000    1.760450
      2          6           0        0.000000   -0.000000    0.676409
      3          6           0        0.000000    1.216352    0.017524
      4          6           0        0.000000    2.319171   -0.502432
      5          6           0       -0.000000   -1.216352    0.017524
      6          6           0       -0.000000   -2.319171   -0.502432
 ---------------------------------------------------------------------
 Rotational constants (GHZ):     34.5448265      3.0704659      2.8198295
 Leave Link  202 at Mon Jun 20 14:08:55 2016, MaxMem=    33554432 cpu:         0.0
 (Enter /home/proyectos/fulerenos/M3C-v1.9/M3C-deps_CCC/g09-AM64L-G09RevC.01/l301.exe)
 Standard basis: 6-311++G(3df,2p) (5D, 7F)
 Ernie: Thresh=  0.10000D-02 Tol=  0.10000D-05 Strict=F.
 There are    89 symmetry adapted cartesian basis functions of A1  symmetry.
 There are    32 symmetry adapted cartesian basis functions of A2  symmetry.
 There are    40 symmetry adapted cartesian basis functions of B1  symmetry.
 There are    74 symmetry adapted cartesian basis functions of B2  symmetry.
 There are    75 symmetry adapted basis functions of A1  symmetry.
 There are    30 symmetry adapted basis functions of A2  symmetry.
 There are    37 symmetry adapted basis functions of B1  symmetry.
 There are    63 symmetry adapted basis functions of B2  symmetry.
   205 basis functions,   302 primitive gaussians,   235 cartesian basis functions
    17 alpha electrons       14 beta electrons
       nuclear repulsion energy       103.9135388353 Hartrees.
 IExCor=  402 DFT=T Ex+Corr=B3LYP ExCW=0 ScaHFX=  0.200000
 ScaDFX=  0.800000  0.720000  1.000000  0.810000 ScalE2=  1.000000  1.000000
 IRadAn=      0 IRanWt=     -1 IRanGd=            0 ICorTp=0 IEmpDi=  4
 NAtoms=    6 NActive=    6 NUniq=    4 SFac= 2.25D+00 NAtFMM=   60 NAOKFM=F Big=F
 Integral buffers will be    131072 words long.
 Raffenetti 2 integral format.
 Two-electron integral symmetry is turned on.
 Leave Link  301 at Mon Jun 20 14:08:55 2016, MaxMem=    33554432 cpu:         0.2
 (Enter /home/proyectos/fulerenos/M3C-v1.9/M3C-deps_CCC/g09-AM64L-G09RevC.01/l302.exe)
 NPDir=0 NMtPBC=     1 NCelOv=     1 NCel=       1 NClECP=     1 NCelD=      1
         NCelK=      1 NCelE2=     1 NClLst=     1 CellRange=     0.0.
 One-electron integrals computed using PRISM.
 One-electron integral symmetry used in STVInt
 NBasis=   205 RedAO= T EigKep=  2.20D-06  NBF=    75    30    37    63
 NBsUse=   205 1.00D-06 EigRej= -1.00D+00 NBFU=    75    30    37    63
 Precomputing XC quadrature grid using
 IXCGrd= 4 IRadAn=           0 IRanWt=          -1 IRanGd=           0 AccXCQ= 0.00D+00.
 Generated NRdTot=       0 NPtTot=           0 NUsed=           0 NTot=          32
 NSgBfM=   235   235   235   235   235 MxSgAt=     6 MxSgA2=     6.
 Leave Link  302 at Mon Jun 20 14:08:57 2016, MaxMem=    33554432 cpu:         5.7
 (Enter /home/proyectos/fulerenos/M3C-v1.9/M3C-deps_CCC/g09-AM64L-G09RevC.01/l303.exe)
 DipDrv:  MaxL=1.
 Leave Link  303 at Mon Jun 20 14:08:58 2016, MaxMem=    33554432 cpu:         0.1
 (Enter /home/proyectos/fulerenos/M3C-v1.9/M3C-deps_CCC/g09-AM64L-G09RevC.01/l401.exe)
 ExpMin= 3.60D-02 ExpMax= 4.56D+03 ExpMxC= 6.82D+02 IAcc=3 IRadAn=         5 AccDes= 0.00D+00
 Harris functional with IExCor=  402 and IRadAn=       5 diagonalized for initial guess.
 HarFok:  IExCor=  402 AccDes= 0.00D+00 IRadAn=         5 IDoV= 1 UseB2=F ITyADJ=14
 ICtDFT=  3500011 ScaDFX=  1.000000  1.000000  1.000000  1.000000
 FoFCou: FMM=F IPFlag=           0 FMFlag=      100000 FMFlg1=           0
         NFxFlg=           0 DoJE=T BraDBF=F KetDBF=T FulRan=T
         wScrn=  0.000000 ICntrl=     500 IOpCl=  0 I1Cent=   200000004 NGrid=           0
         NMat0=    1 NMatS0=      1 NMatT0=    0 NMatD0=    1 NMtDS0=    0 NMtDT0=    0
 Petite list used in FoFCou.
 Harris En= -190.758752624324    
 JPrj=0 DoOrth=F DoCkMO=F.
 Initial guess orbital symmetries:
 Alpha Orbitals:
       Occupied  (B2) (A1) (A1) (B2) (A1) (A1) (B2) (A1) (B2) (A1)
                 (B1) (A2) (A1) (B2) (A1) (B2) (B1)
       Virtual   (A1) (A2) (B2) (A1) (B1) (A1) (B2) (B1) (A1) (B2)
                 (A1) (A2) (A1) (B1) (B2) (A1) (B2) (B1) (A1) (A2)
                 (A1) (B2) (A1) (B2) (B2) (A1) (B2) (A1) (B1) (B2)
                 (A2) (A1) (A1) (B1) (B2) (A1) (B2) (B1) (A1) (B2)
                 (A2) (A1) (A1) (B2) (A2) (A1) (B1) (B1) (B2) (A2)
                 (A1) (B1) (A1) (B2) (A1) (B2) (A2) (B2) (A1) (A2)
                 (B1) (A1) (B2) (A1) (B1) (A2) (A1) (B2) (A1) (B2)
                 (B1) (B2) (A1) (B2) (A1) (B2) (A1) (A1) (B2) (B1)
                 (A2) (A1) (B2) (B1) (A2) (B1) (A1) (B2) (A2) (A1)
                 (B2) (B1) (A2) (A1) (B2) (A1) (B2) (A1) (B1) (B2)
                 (A2) (A1) (B1) (A2) (A1) (B1) (B2) (A2) (B2) (A1)
                 (B2) (B1) (A1) (A2) (B1) (B2) (A1) (A1) (A1) (B1)
                 (A2) (B2) (B1) (B2) (A2) (A1) (A1) (B2) (B1) (A1)
                 (A2) (B2) (B1) (B2) (A1) (B2) (A1) (A1) (A2) (B2)
                 (B1) (B2) (A1) (A1) (B2) (A2) (B1) (A1) (B2) (B1)
                 (B2) (A1) (A1) (B1) (A2) (A1) (B2) (B2) (A2) (B1)
                 (A1) (B2) (B1) (A1) (A2) (B2) (B1) (A1) (A2) (B1)
                 (A2) (B2) (A1) (B2) (A1) (B1) (A2) (A1) (B2) (B2)
                 (A1) (B2) (A1) (A1) (B2) (A1) (B2) (A1)
 Beta  Orbitals:
       Occupied  (B2) (A1) (A1) (B2) (A1) (A1) (B2) (A1) (B2) (A1)
                 (B1) (A2) (A1) (B2)
       Virtual   (A1) (B2) (B1) (A1) (A2) (B2) (A1) (B1) (A1) (B2)
                 (B1) (A1) (B2) (A1) (A2) (A1) (B1) (B2) (A1) (B2)
                 (B1) (A1) (A2) (A1) (B2) (A1) (B2) (B2) (A1) (B2)
                 (A1) (B1) (B2) (A2) (A1) (A1) (B1) (B2) (A1) (B2)
                 (B1) (A1) (B2) (A2) (A1) (A1) (B2) (A2) (A1) (B1)
                 (B1) (B2) (A2) (A1) (B1) (A1) (B2) (A1) (B2) (A2)
                 (B2) (A1) (A2) (B1) (A1) (B2) (A1) (B1) (A2) (A1)
                 (B2) (A1) (B2) (B1) (B2) (A1) (B2) (A1) (B2) (A1)
                 (A1) (B2) (B1) (A2) (A1) (B2) (B1) (A2) (B1) (A1)
                 (B2) (A2) (A1) (B2) (B1) (A2) (A1) (B2) (A1) (B2)
                 (A1) (B1) (B2) (A2) (A1) (B1) (A2) (A1) (B1) (B2)
                 (A2) (B2) (A1) (B2) (B1) (A1) (A2) (B1) (B2) (A1)
                 (A1) (A1) (B1) (A2) (B2) (B1) (B2) (A2) (A1) (A1)
                 (B2) (B1) (A1) (A2) (B2) (B1) (B2) (A1) (B2) (A1)
                 (A1) (A2) (B2) (B1) (B2) (A1) (A1) (B2) (A2) (B1)
                 (A1) (B2) (B1) (B2) (A1) (A1) (B1) (A2) (A1) (B2)
                 (B2) (A2) (B1) (A1) (B2) (B1) (A1) (A2) (B2) (B1)
                 (A1) (A2) (B1) (A2) (B2) (A1) (B2) (A1) (B1) (A2)
                 (A1) (B2) (B2) (A1) (B2) (A1) (A1) (B2) (A1) (B2)
                 (A1)
 The electronic state of the initial guess is 4-A2.
 Initial guess <Sx>= 0.0000 <Sy>= 0.0000 <Sz>= 1.5000 <S**2>= 3.7500 S= 1.5000
 Leave Link  401 at Mon Jun 20 14:08:59 2016, MaxMem=    33554432 cpu:         2.9
 (Enter /home/proyectos/fulerenos/M3C-v1.9/M3C-deps_CCC/g09-AM64L-G09RevC.01/l502.exe)
 UHF open shell SCF:
 Using DIIS extrapolation, IDIIS=  1040.
 Integral symmetry usage will be decided dynamically.
 IVT=      187683 IEndB=      187683 NGot=    33554432 MDV=    33438850
 LenX=    33438850 LenY=    33383184
 Requested convergence on RMS density matrix=1.00D-08 within 128 cycles.
 Requested convergence on MAX density matrix=1.00D-06.
 Requested convergence on             energy=1.00D-06.
 No special actions if energy rises.
 Fock matrices will be formed incrementally for  20 cycles.

 Cycle   1  Pass 1  IDiag  1:
 FoFJK:  IHMeth= 1 ICntrl=       0 DoSepK=F KAlg= 0 I1Cent=   0 FoldK=F
 IRaf= 980000000 NMat=   1 IRICut=       1 DoRegI=T DoRafI=F ISym2E= 1.
 FoFCou: FMM=F IPFlag=           0 FMFlag=      100000 FMFlg1=           0
         NFxFlg=           0 DoJE=F BraDBF=F KetDBF=F FulRan=T
         wScrn=  0.000000 ICntrl=       0 IOpCl=  1 I1Cent=           0 NGrid=           0
         NMat0=    1 NMatS0=      1 NMatT0=    0 NMatD0=    1 NMtDS0=    0 NMtDT0=    0
 Petite list used in FoFCou.
 E= -190.633735856096    
 DIIS: error= 3.27D-02 at cycle   1 NSaved=   1.
 NSaved= 1 IEnMin= 1 EnMin= -190.633735856096     IErMin= 1 ErrMin= 3.27D-02
 ErrMax= 3.27D-02  0.00D+00 EMaxC= 1.00D-01 BMatC= 5.97D-01 BMatP= 5.97D-01
 IDIUse=3 WtCom= 6.73D-01 WtEn= 3.27D-01
 Coeff-Com:  0.100D+01
 Coeff-En:   0.100D+01
 Coeff:      0.100D+01
 Gap=     0.206 Goal=   None    Shift=    0.000
 Gap=     0.004 Goal=   None    Shift=    0.000
 GapD=    0.004 DampG=0.250 DampE=0.500 DampFc=0.2500 IDamp=-1.
 Damping current iteration by 2.50D-01
 RMSDP=2.08D-02 MaxDP=1.10D+00              OVMax= 3.41D-01

 Cycle   2  Pass 1  IDiag  1:
 RMSU=  4.70D-03    CP:  9.56D-01
 E= -190.677343355012     Delta-E=       -0.043607498916 Rises=F Damp=T
 DIIS: error= 1.63D-02 at cycle   2 NSaved=   2.
 NSaved= 2 IEnMin= 2 EnMin= -190.677343355012     IErMin= 2 ErrMin= 1.63D-02
 ErrMax= 1.63D-02  0.00D+00 EMaxC= 1.00D-01 BMatC= 1.43D-01 BMatP= 5.97D-01
 IDIUse=3 WtCom= 8.37D-01 WtEn= 1.63D-01
 Coeff-Com: -0.452D+00 0.145D+01
 Coeff-En:   0.000D+00 0.100D+01
 Coeff:     -0.379D+00 0.138D+01
 Gap=     0.229 Goal=   None    Shift=    0.000
 Gap=     0.051 Goal=   None    Shift=    0.000
 RMSDP=7.80D-03 MaxDP=4.03D-01 DE=-4.36D-02 OVMax= 4.02D-01

 Cycle   3  Pass 1  IDiag  1:
 RMSU=  4.53D-03    CP:  8.60D-01  1.86D+00
 E= -190.732646736061     Delta-E=       -0.055303381049 Rises=F Damp=F
 DIIS: error= 2.13D-02 at cycle   3 NSaved=   3.
 NSaved= 3 IEnMin= 3 EnMin= -190.732646736061     IErMin= 2 ErrMin= 1.63D-02
 ErrMax= 2.13D-02  0.00D+00 EMaxC= 1.00D-01 BMatC= 1.75D-01 BMatP= 1.43D-01
 IDIUse=2 WtCom= 0.00D+00 WtEn= 1.00D+00
 Coeff-En:   0.000D+00 0.000D+00 0.100D+01
 Coeff:      0.000D+00 0.000D+00 0.100D+01
 Gap=     0.235 Goal=   None    Shift=    0.000
 Gap=     0.027 Goal=   None    Shift=    0.000
 RMSDP=9.23D-03 MaxDP=4.67D-01 DE=-5.53D-02 OVMax= 2.82D-01

 Cycle   4  Pass 1  IDiag  1:
 RMSU=  5.46D-03    CP:  8.85D-01  3.00D+00  2.24D-01
 E= -190.469354025983     Delta-E=        0.263292710078 Rises=F Damp=F
 DIIS: error= 5.39D-02 at cycle   4 NSaved=   4.
 NSaved= 4 IEnMin= 3 EnMin= -190.732646736061     IErMin= 2 ErrMin= 1.63D-02
 ErrMax= 5.39D-02  0.00D+00 EMaxC= 1.00D-01 BMatC= 1.18D+00 BMatP= 1.43D-01
 IDIUse=2 WtCom= 0.00D+00 WtEn= 1.00D+00
 Coeff-En:   0.000D+00 0.000D+00 0.807D+00 0.193D+00
 Coeff:      0.000D+00 0.000D+00 0.807D+00 0.193D+00
 Gap=     0.226 Goal=   None    Shift=    0.000
 Gap=     0.068 Goal=   None    Shift=    0.000
 RMSDP=3.98D-03 MaxDP=1.72D-01 DE= 2.63D-01 OVMax= 1.55D-01

 Cycle   5  Pass 1  IDiag  1:
 RMSU=  1.39D-03    CP:  8.81D-01  2.65D+00  6.90D-01  6.98D-01
 E= -190.757246467989     Delta-E=       -0.287892442006 Rises=F Damp=F
 DIIS: error= 1.61D-02 at cycle   5 NSaved=   5.
 NSaved= 5 IEnMin= 5 EnMin= -190.757246467989     IErMin= 5 ErrMin= 1.61D-02
 ErrMax= 1.61D-02  0.00D+00 EMaxC= 1.00D-01 BMatC= 9.53D-02 BMatP= 1.43D-01
 IDIUse=3 WtCom= 8.39D-01 WtEn= 1.61D-01
 Coeff-Com: -0.207D-01 0.200D-01 0.287D+00-0.141D+00 0.855D+00
 Coeff-En:   0.000D+00 0.000D+00 0.374D+00 0.000D+00 0.626D+00
 Coeff:     -0.174D-01 0.168D-01 0.301D+00-0.118D+00 0.818D+00
 Gap=     0.221 Goal=   None    Shift=    0.000
 Gap=     0.091 Goal=   None    Shift=    0.000
 RMSDP=1.31D-03 MaxDP=5.39D-02 DE=-2.88D-01 OVMax= 6.60D-02

 Cycle   6  Pass 1  IDiag  1:
 RMSU=  5.16D-04    CP:  8.77D-01  2.56D+00  8.76D-01  5.72D-01  1.17D+00
 E= -190.782651476571     Delta-E=       -0.025405008582 Rises=F Damp=F
 DIIS: error= 9.50D-04 at cycle   6 NSaved=   6.
 NSaved= 6 IEnMin= 6 EnMin= -190.782651476571     IErMin= 6 ErrMin= 9.50D-04
 ErrMax= 9.50D-04  0.00D+00 EMaxC= 1.00D-01 BMatC= 3.03D-04 BMatP= 9.53D-02
 IDIUse=3 WtCom= 9.91D-01 WtEn= 9.50D-03
 Coeff-Com:  0.362D-02-0.261D-01-0.177D-01-0.161D-01 0.716D-01 0.985D+00
 Coeff-En:   0.000D+00 0.000D+00 0.000D+00 0.000D+00 0.000D+00 0.100D+01
 Coeff:      0.358D-02-0.259D-01-0.175D-01-0.160D-01 0.709D-01 0.985D+00
 Gap=     0.220 Goal=   None    Shift=    0.000
 Gap=     0.095 Goal=   None    Shift=    0.000
 RMSDP=3.24D-04 MaxDP=1.35D-02 DE=-2.54D-02 OVMax= 1.60D-02

 Cycle   7  Pass 1  IDiag  1:
 RMSU=  1.82D-04    CP:  8.78D-01  2.60D+00  8.92D-01  6.00D-01  1.24D+00
                    CP:  1.12D+00
 E= -190.782915597117     Delta-E=       -0.000264120546 Rises=F Damp=F
 DIIS: error= 5.31D-04 at cycle   7 NSaved=   7.
 NSaved= 7 IEnMin= 7 EnMin= -190.782915597117     IErMin= 7 ErrMin= 5.31D-04
 ErrMax= 5.31D-04  0.00D+00 EMaxC= 1.00D-01 BMatC= 8.17D-05 BMatP= 3.03D-04
 IDIUse=3 WtCom= 9.95D-01 WtEn= 5.31D-03
 Coeff-Com: -0.121D-01 0.181D-01-0.587D-01 0.845D-02-0.116D+00 0.327D+00
 Coeff-Com:  0.833D+00
 Coeff-En:   0.000D+00 0.000D+00 0.000D+00 0.000D+00 0.000D+00 0.000D+00
 Coeff-En:   0.100D+01
 Coeff:     -0.121D-01 0.180D-01-0.584D-01 0.841D-02-0.115D+00 0.325D+00
 Coeff:      0.834D+00
 Gap=     0.221 Goal=   None    Shift=    0.000
 Gap=     0.096 Goal=   None    Shift=    0.000
 RMSDP=1.35D-04 MaxDP=1.26D-02 DE=-2.64D-04 OVMax= 6.17D-03

 Cycle   8  Pass 1  IDiag  1:
 RMSU=  7.34D-05    CP:  8.77D-01  2.58D+00  8.97D-01  6.02D-01  1.26D+00
                    CP:  1.14D+00  1.33D+00
 E= -190.782980686831     Delta-E=       -0.000065089713 Rises=F Damp=F
 DIIS: error= 2.49D-04 at cycle   8 NSaved=   8.
 NSaved= 8 IEnMin= 8 EnMin= -190.782980686831     IErMin= 8 ErrMin= 2.49D-04
 ErrMax= 2.49D-04  0.00D+00 EMaxC= 1.00D-01 BMatC= 2.05D-05 BMatP= 8.17D-05
 IDIUse=3 WtCom= 9.98D-01 WtEn= 2.49D-03
 Coeff-Com:  0.137D-02 0.275D-03-0.957D-02 0.583D-02-0.333D-01-0.252D+00
 Coeff-Com:  0.152D+00 0.114D+01
 Coeff-En:   0.000D+00 0.000D+00 0.000D+00 0.000D+00 0.000D+00 0.000D+00
 Coeff-En:   0.000D+00 0.100D+01
 Coeff:      0.137D-02 0.274D-03-0.954D-02 0.582D-02-0.332D-01-0.252D+00
 Coeff:      0.151D+00 0.114D+01
 Gap=     0.221 Goal=   None    Shift=    0.000
 Gap=     0.096 Goal=   None    Shift=    0.000
 RMSDP=9.56D-05 MaxDP=5.18D-03 DE=-6.51D-05 OVMax= 4.82D-03

 Cycle   9  Pass 1  IDiag  1:
 RMSU=  4.23D-05    CP:  8.77D-01  2.58D+00  8.97D-01  6.05D-01  1.27D+00
                    CP:  1.16D+00  1.67D+00  1.69D+00
 E= -190.783004836890     Delta-E=       -0.000024150059 Rises=F Damp=F
 DIIS: error= 6.38D-05 at cycle   9 NSaved=   9.
 NSaved= 9 IEnMin= 9 EnMin= -190.783004836890     IErMin= 9 ErrMin= 6.38D-05
 ErrMax= 6.38D-05  0.00D+00 EMaxC= 1.00D-01 BMatC= 1.28D-06 BMatP= 2.05D-05
 IDIUse=1 WtCom= 1.00D+00 WtEn= 0.00D+00
 Coeff-Com:  0.461D-03 0.633D-04 0.822D-02-0.181D-02 0.155D-01-0.267D-01
 Coeff-Com: -0.931D-01-0.501D-01 0.115D+01
 Coeff:      0.461D-03 0.633D-04 0.822D-02-0.181D-02 0.155D-01-0.267D-01
 Coeff:     -0.931D-01-0.501D-01 0.115D+01
 Gap=     0.221 Goal=   None    Shift=    0.000
 Gap=     0.096 Goal=   None    Shift=    0.000
 RMSDP=7.05D-05 MaxDP=6.16D-03 DE=-2.42D-05 OVMax= 2.75D-03

 Cycle  10  Pass 1  IDiag  1:
 RMSU=  1.53D-05    CP:  8.77D-01  2.57D+00  8.96D-01  6.02D-01  1.26D+00
                    CP:  1.14D+00  1.75D+00  2.11D+00  1.53D+00
 E= -190.783007048443     Delta-E=       -0.000002211553 Rises=F Damp=F
 DIIS: error= 2.59D-05 at cycle  10 NSaved=  10.
 NSaved=10 IEnMin=10 EnMin= -190.783007048443     IErMin=10 ErrMin= 2.59D-05
 ErrMax= 2.59D-05  0.00D+00 EMaxC= 1.00D-01 BMatC= 2.46D-07 BMatP= 1.28D-06
 IDIUse=1 WtCom= 1.00D+00 WtEn= 0.00D+00
 Coeff-Com:  0.121D-03-0.173D-03 0.946D-03-0.402D-03 0.226D-02 0.203D-01
 Coeff-Com: -0.139D-01-0.958D-01-0.194D-01 0.111D+01
 Coeff:      0.121D-03-0.173D-03 0.946D-03-0.402D-03 0.226D-02 0.203D-01
 Coeff:     -0.139D-01-0.958D-01-0.194D-01 0.111D+01
 Gap=     0.221 Goal=   None    Shift=    0.000
 Gap=     0.096 Goal=   None    Shift=    0.000
 RMSDP=2.62D-05 MaxDP=1.96D-03 DE=-2.21D-06 OVMax= 1.49D-03

 Cycle  11  Pass 1  IDiag  1:
 RMSU=  7.67D-06    CP:  8.76D-01  2.56D+00  8.96D-01  6.02D-01  1.26D+00
                    CP:  1.13D+00  1.78D+00  2.27D+00  1.81D+00  1.65D+00
 E= -190.783007617845     Delta-E=       -0.000000569402 Rises=F Damp=F
 DIIS: error= 1.59D-05 at cycle  11 NSaved=  11.
 NSaved=11 IEnMin=11 EnMin= -190.783007617845     IErMin=11 ErrMin= 1.59D-05
 ErrMax= 1.59D-05  0.00D+00 EMaxC= 1.00D-01 BMatC= 9.01D-08 BMatP= 2.46D-07
 IDIUse=1 WtCom= 1.00D+00 WtEn= 0.00D+00
 Coeff-Com:  0.322D-03-0.626D-03-0.766D-03 0.240D-03-0.126D-02 0.614D-02
 Coeff-Com:  0.990D-02-0.963D-02-0.152D+00 0.899D-01 0.106D+01
 Coeff:      0.322D-03-0.626D-03-0.766D-03 0.240D-03-0.126D-02 0.614D-02
 Coeff:      0.990D-02-0.963D-02-0.152D+00 0.899D-01 0.106D+01
 Gap=     0.221 Goal=   None    Shift=    0.000
 Gap=     0.096 Goal=   None    Shift=    0.000
 RMSDP=1.74D-05 MaxDP=1.02D-03 DE=-5.69D-07 OVMax= 9.94D-04

 Cycle  12  Pass 1  IDiag  1:
 RMSU=  3.79D-06    CP:  8.76D-01  2.56D+00  8.96D-01  6.02D-01  1.26D+00
                    CP:  1.13D+00  1.80D+00  2.36D+00  1.98D+00  2.19D+00
                    CP:  2.06D+00
 E= -190.783007934203     Delta-E=       -0.000000316358 Rises=F Damp=F
 DIIS: error= 1.33D-05 at cycle  12 NSaved=  12.
 NSaved=12 IEnMin=12 EnMin= -190.783007934203     IErMin=12 ErrMin= 1.33D-05
 ErrMax= 1.33D-05  0.00D+00 EMaxC= 1.00D-01 BMatC= 5.28D-08 BMatP= 9.01D-08
 IDIUse=1 WtCom= 1.00D+00 WtEn= 0.00D+00
 Coeff-Com: -0.128D-03 0.365D-03 0.912D-03-0.323D-03 0.190D-02-0.105D-01
 Coeff-Com: -0.652D-02 0.237D-01 0.180D+00-0.599D+00-0.547D+00 0.196D+01
 Coeff:     -0.128D-03 0.365D-03 0.912D-03-0.323D-03 0.190D-02-0.105D-01
 Coeff:     -0.652D-02 0.237D-01 0.180D+00-0.599D+00-0.547D+00 0.196D+01
 Gap=     0.221 Goal=   None    Shift=    0.000
 Gap=     0.096 Goal=   None    Shift=    0.000
 RMSDP=2.87D-05 MaxDP=2.06D-03 DE=-3.16D-07 OVMax= 1.56D-03

 Cycle  13  Pass 1  IDiag  1:
 RMSU=  9.15D-06    CP:  8.76D-01  2.56D+00  8.96D-01  6.03D-01  1.26D+00
                    CP:  1.12D+00  1.83D+00  2.48D+00  2.21D+00  2.99D+00
                    CP:  3.00D+00  2.92D+00
 E= -190.783008316695     Delta-E=       -0.000000382492 Rises=F Damp=F
 DIIS: error= 9.40D-06 at cycle  13 NSaved=  13.
 NSaved=13 IEnMin=13 EnMin= -190.783008316695     IErMin=13 ErrMin= 9.40D-06
 ErrMax= 9.40D-06  0.00D+00 EMaxC= 1.00D-01 BMatC= 2.60D-08 BMatP= 5.28D-08
 IDIUse=1 WtCom= 1.00D+00 WtEn= 0.00D+00
 Coeff-Com:  0.695D-04-0.103D-03 0.598D-03-0.572D-04 0.691D-03 0.464D-02
 Coeff-Com: -0.102D-01-0.303D-01 0.938D-01 0.360D+00-0.674D+00-0.147D+01
 Coeff-Com:  0.272D+01
 Coeff:      0.695D-04-0.103D-03 0.598D-03-0.572D-04 0.691D-03 0.464D-02
 Coeff:     -0.102D-01-0.303D-01 0.938D-01 0.360D+00-0.674D+00-0.147D+01
 Coeff:      0.272D+01
 Gap=     0.221 Goal=   None    Shift=    0.000
 Gap=     0.096 Goal=   None    Shift=    0.000
 RMSDP=4.71D-05 MaxDP=3.82D-03 DE=-3.82D-07 OVMax= 2.51D-03

 Cycle  14  Pass 1  IDiag  1:
 RMSU=  2.54D-05    CP:  8.76D-01  2.56D+00  8.95D-01  6.05D-01  1.25D+00
                    CP:  1.11D+00  1.87D+00  2.66D+00  2.56D+00  3.00D+00
                    CP:  3.00D+00  3.00D+00  3.00D+00
 E= -190.783008613342     Delta-E=       -0.000000296648 Rises=F Damp=F
 DIIS: error= 2.80D-06 at cycle  14 NSaved=  14.
 NSaved=14 IEnMin=14 EnMin= -190.783008613342     IErMin=14 ErrMin= 2.80D-06
 ErrMax= 2.80D-06  0.00D+00 EMaxC= 1.00D-01 BMatC= 2.00D-09 BMatP= 2.60D-08
 IDIUse=1 WtCom= 1.00D+00 WtEn= 0.00D+00
 Coeff-Com:  0.416D-04-0.589D-04-0.151D-03 0.317D-04-0.270D-03 0.112D-02
 Coeff-Com:  0.251D-02-0.144D-02-0.496D-01 0.107D+00 0.207D+00-0.330D+00
 Coeff-Com: -0.190D+00 0.125D+01
 Coeff:      0.416D-04-0.589D-04-0.151D-03 0.317D-04-0.270D-03 0.112D-02
 Coeff:      0.251D-02-0.144D-02-0.496D-01 0.107D+00 0.207D+00-0.330D+00
 Coeff:     -0.190D+00 0.125D+01
 Gap=     0.221 Goal=   None    Shift=    0.000
 Gap=     0.096 Goal=   None    Shift=    0.000
 RMSDP=9.66D-06 MaxDP=7.17D-04 DE=-2.97D-07 OVMax= 5.45D-04

 Cycle  15  Pass 1  IDiag  1:
 RMSU=  3.38D-06    CP:  8.76D-01  2.56D+00  8.95D-01  6.05D-01  1.25D+00
                    CP:  1.11D+00  1.88D+00  2.69D+00  2.64D+00  3.00D+00
                    CP:  3.00D+00  3.00D+00  3.00D+00  1.26D+00
 E= -190.783008625720     Delta-E=       -0.000000012378 Rises=F Damp=F
 DIIS: error= 5.82D-07 at cycle  15 NSaved=  15.
 NSaved=15 IEnMin=15 EnMin= -190.783008625720     IErMin=15 ErrMin= 5.82D-07
 ErrMax= 5.82D-07  0.00D+00 EMaxC= 1.00D-01 BMatC= 1.13D-10 BMatP= 2.00D-09
 IDIUse=1 WtCom= 1.00D+00 WtEn= 0.00D+00
 Coeff-Com:  0.854D-05-0.833D-05-0.261D-04-0.240D-05 0.145D-04-0.598D-03
 Coeff-Com:  0.584D-03 0.249D-02-0.324D-02-0.324D-01 0.196D-01 0.109D+00
 Coeff-Com: -0.139D+00-0.168D+00 0.121D+01
 Coeff:      0.854D-05-0.833D-05-0.261D-04-0.240D-05 0.145D-04-0.598D-03
 Coeff:      0.584D-03 0.249D-02-0.324D-02-0.324D-01 0.196D-01 0.109D+00
 Coeff:     -0.139D+00-0.168D+00 0.121D+01
 Gap=     0.221 Goal=   None    Shift=    0.000
 Gap=     0.096 Goal=   None    Shift=    0.000
 RMSDP=2.19D-06 MaxDP=1.60D-04 DE=-1.24D-08 OVMax= 1.25D-04

 Cycle  16  Pass 1  IDiag  1:
 RMSU=  1.14D-07    CP:  8.76D-01  2.56D+00  8.95D-01  6.05D-01  1.25D+00
                    CP:  1.11D+00  1.88D+00  2.70D+00  2.65D+00  3.00D+00
                    CP:  3.00D+00  3.00D+00  3.00D+00  1.32D+00  1.21D+00
 E= -190.783008626136     Delta-E=       -0.000000000416 Rises=F Damp=F
 DIIS: error= 6.18D-08 at cycle  16 NSaved=  16.
 NSaved=16 IEnMin=16 EnMin= -190.783008626136     IErMin=16 ErrMin= 6.18D-08
 ErrMax= 6.18D-08  0.00D+00 EMaxC= 1.00D-01 BMatC= 1.98D-12 BMatP= 1.13D-10
 IDIUse=1 WtCom= 1.00D+00 WtEn= 0.00D+00
 Coeff-Com: -0.789D-06 0.152D-05 0.630D-05-0.492D-06 0.749D-05-0.130D-04
 Coeff-Com: -0.130D-03-0.543D-04 0.215D-02-0.192D-02-0.912D-02 0.577D-02
 Coeff-Com:  0.201D-01-0.443D-01-0.699D-01 0.110D+01
 Coeff:     -0.789D-06 0.152D-05 0.630D-05-0.492D-06 0.749D-05-0.130D-04
 Coeff:     -0.130D-03-0.543D-04 0.215D-02-0.192D-02-0.912D-02 0.577D-02
 Coeff:      0.201D-01-0.443D-01-0.699D-01 0.110D+01
 Gap=     0.221 Goal=   None    Shift=    0.000
 Gap=     0.096 Goal=   None    Shift=    0.000
 RMSDP=1.24D-07 MaxDP=9.13D-06 DE=-4.16D-10 OVMax= 6.42D-06

 Cycle  17  Pass 1  IDiag  1:
 RMSU=  1.98D-08    CP:  8.76D-01  2.56D+00  8.95D-01  6.05D-01  1.25D+00
                    CP:  1.11D+00  1.88D+00  2.70D+00  2.65D+00  3.00D+00
                    CP:  3.00D+00  3.00D+00  3.00D+00  1.31D+00  1.20D+00
                    CP:  9.97D-01
 E= -190.783008626140     Delta-E=       -0.000000000004 Rises=F Damp=F
 DIIS: error= 2.36D-08 at cycle  17 NSaved=  17.
 NSaved=17 IEnMin=17 EnMin= -190.783008626140     IErMin=17 ErrMin= 2.36D-08
 ErrMax= 2.36D-08  0.00D+00 EMaxC= 1.00D-01 BMatC= 1.42D-13 BMatP= 1.98D-12
 IDIUse=1 WtCom= 1.00D+00 WtEn= 0.00D+00
 Coeff-Com: -0.447D-06 0.408D-06 0.601D-06-0.177D-06 0.621D-06 0.152D-04
 Coeff-Com: -0.747D-05-0.866D-04 0.124D-03 0.847D-03-0.352D-03-0.290D-02
 Coeff-Com:  0.253D-02 0.723D-02-0.271D-01-0.537D-01 0.107D+01
 Coeff:     -0.447D-06 0.408D-06 0.601D-06-0.177D-06 0.621D-06 0.152D-04
 Coeff:     -0.747D-05-0.866D-04 0.124D-03 0.847D-03-0.352D-03-0.290D-02
 Coeff:      0.253D-02 0.723D-02-0.271D-01-0.537D-01 0.107D+01
 Gap=     0.221 Goal=   None    Shift=    0.000
 Gap=     0.096 Goal=   None    Shift=    0.000
 RMSDP=1.01D-08 MaxDP=4.96D-07 DE=-4.09D-12 OVMax= 4.40D-07

 Cycle  18  Pass 1  IDiag  1:
 RMSU=  4.36D-09    CP:  8.76D-01  2.56D+00  8.95D-01  6.05D-01  1.25D+00
                    CP:  1.11D+00  1.88D+00  2.70D+00  2.65D+00  3.00D+00
                    CP:  3.00D+00  3.00D+00  3.00D+00  1.31D+00  1.20D+00
                    CP:  1.00D+00  1.06D+00
 E= -190.783008626137     Delta-E=        0.000000000003 Rises=F Damp=F
 DIIS: error= 5.61D-09 at cycle  18 NSaved=  18.
 NSaved=18 IEnMin=17 EnMin= -190.783008626140     IErMin=18 ErrMin= 5.61D-09
 ErrMax= 5.61D-09  0.00D+00 EMaxC= 1.00D-01 BMatC= 1.13D-14 BMatP= 1.42D-13
 IDIUse=1 WtCom= 1.00D+00 WtEn= 0.00D+00
 Coeff-Com: -0.125D-07 0.664D-07-0.291D-06-0.425D-07-0.358D-06-0.136D-06
 Coeff-Com:  0.773D-05 0.362D-05-0.109D-03-0.301D-04 0.502D-03 0.510D-04
 Coeff-Com: -0.161D-02 0.170D-02 0.607D-02-0.568D-01-0.809D-01 0.113D+01
 Coeff:     -0.125D-07 0.664D-07-0.291D-06-0.425D-07-0.358D-06-0.136D-06
 Coeff:      0.773D-05 0.362D-05-0.109D-03-0.301D-04 0.502D-03 0.510D-04
 Coeff:     -0.161D-02 0.170D-02 0.607D-02-0.568D-01-0.809D-01 0.113D+01
 Gap=     0.221 Goal=   None    Shift=    0.000
 Gap=     0.096 Goal=   None    Shift=    0.000
 RMSDP=1.61D-08 MaxDP=1.14D-06 DE= 2.61D-12 OVMax= 9.23D-07

 Cycle  19  Pass 1  IDiag  1:
 RMSU=  1.53D-09    CP:  8.76D-01  2.56D+00  8.95D-01  6.05D-01  1.25D+00
                    CP:  1.11D+00  1.88D+00  2.70D+00  2.65D+00  3.00D+00
                    CP:  3.00D+00  3.00D+00  3.00D+00  1.31D+00  1.20D+00
                    CP:  1.01D+00  1.05D+00  1.21D+00
 E= -190.783008626139     Delta-E=       -0.000000000002 Rises=F Damp=F
 DIIS: error= 1.38D-09 at cycle  19 NSaved=  19.
 NSaved=19 IEnMin=17 EnMin= -190.783008626140     IErMin=19 ErrMin= 1.38D-09
 ErrMax= 1.38D-09  0.00D+00 EMaxC= 1.00D-01 BMatC= 6.98D-16 BMatP= 1.13D-14
 IDIUse=1 WtCom= 1.00D+00 WtEn= 0.00D+00
 Large coefficients: NSaved= 19 BigCof=    0.00 CofMax=   10.00 Det=-2.46D-15
 Inversion failed.  Reducing to 18 matrices.
 Large coefficients: NSaved= 18 BigCof=    0.00 CofMax=   10.00 Det=-2.47D-15
 Inversion failed.  Reducing to 17 matrices.
 Large coefficients: NSaved= 17 BigCof=    0.00 CofMax=   10.00 Det=-2.47D-15
 Inversion failed.  Reducing to 16 matrices.
 Large coefficients: NSaved= 16 BigCof=    0.00 CofMax=   10.00 Det=-2.57D-15
 Inversion failed.  Reducing to 15 matrices.
 Coeff-Com:  0.111D-07 0.100D-06-0.187D-06 0.536D-06-0.233D-05-0.203D-04
 Coeff-Com: -0.101D-05 0.119D-03 0.150D-04-0.351D-03 0.642D-03 0.295D-02
 Coeff-Com: -0.567D-01 0.370D-01 0.102D+01
 Coeff:      0.111D-07 0.100D-06-0.187D-06 0.536D-06-0.233D-05-0.203D-04
 Coeff:     -0.101D-05 0.119D-03 0.150D-04-0.351D-03 0.642D-03 0.295D-02
 Coeff:     -0.567D-01 0.370D-01 0.102D+01
 Gap=     0.221 Goal=   None    Shift=    0.000
 Gap=     0.096 Goal=   None    Shift=    0.000
 RMSDP=5.09D-09 MaxDP=4.25D-07 DE=-1.76D-12 OVMax= 2.76D-07

 SCF Done:  E(UB3LYP) =  -190.783008626     A.U. after   19 cycles
            NFock= 19  Conv=0.51D-08     -V/T= 2.0045
 <Sx>= 0.0000 <Sy>= 0.0000 <Sz>= 1.5000 <S**2>= 3.8395 S= 1.5223
 <L.S>= 0.000000000000E+00
 KE= 1.899342391972D+02 PE=-6.505290361146D+02 EE= 1.658982494560D+02
 Annihilation of the first spin contaminant:
 S**2 before annihilation     3.8395,   after     3.7533
 Leave Link  502 at Mon Jun 20 14:10:11 2016, MaxMem=    33554432 cpu:       277.6
 (Enter /home/proyectos/fulerenos/M3C-v1.9/M3C-deps_CCC/g09-AM64L-G09RevC.01/l801.exe)
 DoSCS=F DFT=T ScalE2(SS,OS)=  1.000000  1.000000
 Range of M.O.s used for correlation:     1   205
 NBasis=   205 NAE=    17 NBE=    14 NFC=     0 NFV=     0
 NROrb=    205 NOA=    17 NOB=    14 NVA=   188 NVB=   191

 **** Warning!!: The largest alpha MO coefficient is  0.29481406D+03


 **** Warning!!: The largest beta MO coefficient is  0.31232878D+03


 **** Warning!!: The smallest beta delta epsilon is  0.95772403D-01

 Leave Link  801 at Mon Jun 20 14:10:12 2016, MaxMem=    33554432 cpu:         0.0
 (Enter /home/proyectos/fulerenos/M3C-v1.9/M3C-deps_CCC/g09-AM64L-G09RevC.01/l1101.exe)
 Using compressed storage, NAtomX=     6.
 Will process      7 centers per pass.
 Leave Link 1101 at Mon Jun 20 14:10:12 2016, MaxMem=    33554432 cpu:         1.3
 (Enter /home/proyectos/fulerenos/M3C-v1.9/M3C-deps_CCC/g09-AM64L-G09RevC.01/l1102.exe)
 Symmetrizing basis deriv contribution to polar:
 IMax=3 JMax=2 DiffMx= 0.00D+00
 Leave Link 1102 at Mon Jun 20 14:10:12 2016, MaxMem=    33554432 cpu:         0.3
 (Enter /home/proyectos/fulerenos/M3C-v1.9/M3C-deps_CCC/g09-AM64L-G09RevC.01/l1110.exe)
 Forming Gx(P) for the SCF density, NAtomX=     6.
 Integral derivatives from FoFJK, PRISM(SPDF).
 Do as many integral derivatives as possible in FoFJK.
 G2DrvN: MDV=      33554280.
 G2DrvN: will do     7 centers at a time, making    1 passes.
 Calling FoFCou, ICntrl=  3107 FMM=F I1Cent=   0 AccDes= 0.00D+00.
 FoFJK:  IHMeth= 1 ICntrl=    3107 DoSepK=F KAlg= 0 I1Cent=   0 FoldK=F
 IRaf=         0 NMat=   1 IRICut=       1 DoRegI=T DoRafI=F ISym2E= 1.
 FoFCou: FMM=F IPFlag=           0 FMFlag=      100000 FMFlg1=           0
         NFxFlg=           0 DoJE=F BraDBF=F KetDBF=F FulRan=T
         wScrn=  0.000000 ICntrl=    3107 IOpCl=  1 I1Cent=           0 NGrid=           0
         NMat0=    1 NMatS0=      1 NMatT0=    0 NMatD0=    1 NMtDS0=    0 NMtDT0=    0
 Petite list used in FoFCou.
 End of G2Drv F.D. properties file   721 does not exist.
 End of G2Drv F.D. properties file   722 does not exist.
 End of G2Drv F.D. properties file   788 does not exist.
 Leave Link 1110 at Mon Jun 20 14:10:41 2016, MaxMem=    33554432 cpu:       105.4
 (Enter /home/proyectos/fulerenos/M3C-v1.9/M3C-deps_CCC/g09-AM64L-G09RevC.01/l1002.exe)
 Minotr:  UHF open shell wavefunction.
          IDoAtm=111111
          Direct CPHF calculation.
          Differentiating once with respect to electric field.
                with respect to dipole field.
          Differentiating once with respect to nuclear coordinates.
          Using symmetry in CPHF.
          Requested convergence is 1.0D-08 RMS, and 1.0D-07 maximum.
          Secondary convergence is 1.0D-12 RMS, and 1.0D-12 maximum.
          NewPWx=T KeepS1=F KeepF1=F KeepIn=T MapXYZ=F SortEE=F KeepMc=T.
          MDV=      33553958 using IRadAn=       2.
 Generate precomputed XC quadrature information.
          Solving linear equations simultaneously, MaxMat=       0.
 FoFJK:  IHMeth= 1 ICntrl=       0 DoSepK=F KAlg= 0 I1Cent=   0 FoldK=F
 IRaf= 980000000 NMat=  15 IRICut=      37 DoRegI=T DoRafI=T ISym2E= 2.
 FoFCou: FMM=F IPFlag=           0 FMFlag=      100000 FMFlg1=           0
         NFxFlg=           0 DoJE=F BraDBF=F KetDBF=F FulRan=T
         wScrn=  0.000000 ICntrl=       0 IOpCl=  1 I1Cent=           0 NGrid=           0
         NMat0=   15 NMatS0=     15 NMatT0=    0 NMatD0=   15 NMtDS0=    0 NMtDT0=    0
 Integrals replicated using symmetry in FoFCou.
          There are    15 degrees of freedom in the 1st order CPHF.  IDoFFX=4 NUNeed=    15.
     15 vectors produced by pass  0 Test12= 3.91D-14 6.67D-09 XBig12= 4.24D+02 1.21D+01.
 AX will form    15 AO Fock derivatives at one time.
     15 vectors produced by pass  1 Test12= 3.91D-14 6.67D-09 XBig12= 1.43D+02 3.29D+00.
     15 vectors produced by pass  2 Test12= 3.91D-14 6.67D-09 XBig12= 1.35D+01 1.12D+00.
     15 vectors produced by pass  3 Test12= 3.91D-14 6.67D-09 XBig12= 6.36D-01 2.05D-01.
     15 vectors produced by pass  4 Test12= 3.91D-14 6.67D-09 XBig12= 2.66D-02 3.99D-02.
     15 vectors produced by pass  5 Test12= 3.91D-14 6.67D-09 XBig12= 2.32D-04 2.45D-03.
     15 vectors produced by pass  6 Test12= 3.91D-14 6.67D-09 XBig12= 1.62D-06 2.75D-04.
     15 vectors produced by pass  7 Test12= 3.91D-14 6.67D-09 XBig12= 1.35D-08 1.94D-05.
      6 vectors produced by pass  8 Test12= 3.91D-14 6.67D-09 XBig12= 9.87D-11 1.18D-06.
      4 vectors produced by pass  9 Test12= 3.91D-14 6.67D-09 XBig12= 1.84D-12 3.46D-07.
      4 vectors produced by pass 10 Test12= 3.91D-14 6.67D-09 XBig12= 7.65D-13 2.22D-07.
      3 vectors produced by pass 11 Test12= 3.91D-14 6.67D-09 XBig12= 1.24D-13 7.83D-08.
      3 vectors produced by pass 12 Test12= 3.91D-14 6.67D-09 XBig12= 1.83D-14 3.30D-08.
      2 vectors produced by pass 13 Test12= 3.91D-14 6.67D-09 XBig12= 8.91D-16 1.02D-08.
      2 vectors produced by pass 14 Test12= 3.91D-14 6.67D-09 XBig12= 3.02D-15 9.08D-09.
 InvSVY:  IOpt=1 It=  1 EMax= 7.11D-15
 Solved reduced A of dimension   144 with    15 vectors.
 FullF1:  Do perturbations    1 to    15.
 Isotropic polarizability for W=    0.000000       67.69 Bohr**3.
 End of Minotr F.D. properties file   721 does not exist.
 End of Minotr F.D. properties file   722 does not exist.
 End of Minotr F.D. properties file   788 does not exist.
 Leave Link 1002 at Mon Jun 20 14:14:15 2016, MaxMem=    33554432 cpu:       845.6
 (Enter /home/proyectos/fulerenos/M3C-v1.9/M3C-deps_CCC/g09-AM64L-G09RevC.01/l601.exe)
 Copying SCF densities to generalized density rwf, IOpCl= 1 IROHF=0.

 **********************************************************************

            Population analysis using the SCF density.

 **********************************************************************

 Orbital symmetries:
 Alpha Orbitals:
       Occupied  (B2) (A1) (A1) (B2) (A1) (A1) (B2) (A1) (B2) (A1)
                 (A1) (B2) (B1) (A2) (A1) (B2) (B1)
       Virtual   (A1) (A2) (A1) (B2) (B2) (A1) (B1) (A1) (B2) (A1)
                 (A2) (B1) (B1) (A1) (B2) (A1) (B2) (B1) (A2) (A1)
                 (B2) (A1) (B2) (A1) (B2) (A1) (A1) (B1) (B2) (A2)
                 (B2) (A1) (A1) (B1) (B2) (A1) (B2) (A1) (B1) (A2)
                 (B2) (A1) (A1) (B2) (A2) (B1) (A1) (B1) (A1) (B2)
                 (A2) (B1) (A1) (B2) (A1) (B2) (A2) (B2) (A2) (A1)
                 (B1) (A1) (B1) (B2) (A2) (A1) (A1) (B2) (A1) (B2)
                 (B1) (B2) (A1) (B2) (A1) (B2) (A1) (A1) (B2) (B1)
                 (A2) (A1) (B2) (B1) (A2) (B1) (A1) (B2) (A2) (A1)
                 (B2) (B1) (A2) (A1) (B2) (A1) (B2) (A1) (B1) (B2)
                 (A2) (A1) (B1) (A1) (B1) (A2) (B2) (A2) (A1) (B2)
                 (B1) (B2) (A2) (A1) (B1) (B2) (A1) (A1) (A1) (A2)
                 (B1) (B2) (B1) (B2) (A2) (A1) (A1) (B2) (B1) (A1)
                 (A2) (B2) (B1) (B2) (A1) (B2) (A1) (A1) (A2) (B2)
                 (B1) (B2) (A1) (A1) (A2) (B2) (B1) (A1) (B2) (B1)
                 (B2) (A1) (A1) (B1) (A2) (A1) (B2) (B2) (A2) (B1)
                 (B2) (A1) (B1) (A1) (A2) (B2) (B1) (A1) (A2) (B1)
                 (B2) (A1) (A2) (B2) (A1) (B1) (A2) (A1) (B2) (B2)
                 (A1) (B2) (A1) (A1) (B2) (A1) (B2) (A1)
 Beta  Orbitals:
       Occupied  (A1) (B2) (A1) (B2) (A1) (A1) (B2) (A1) (B2) (A1)
                 (B1) (A1) (B2) (A2)
       Virtual   (A1) (B2) (B1) (A1) (A1) (B2) (A2) (B2) (A1) (B1)
                 (A1) (B2) (A1) (B1) (A2) (A1) (B2) (B1) (A1) (B2)
                 (A2) (A1) (B1) (B2) (A1) (B2) (A1) (B2) (A1) (A1)
                 (B1) (B2) (A2) (B2) (A1) (A1) (B1) (B2) (A1) (B2)
                 (A1) (A2) (B1) (B2) (A1) (A1) (B2) (A2) (B1) (A1)
                 (B1) (B2) (A1) (A2) (B1) (A1) (B2) (A1) (B2) (A2)
                 (B2) (A2) (A1) (B1) (A1) (B2) (B1) (A2) (A1) (A1)
                 (B2) (A1) (B1) (B2) (B2) (A1) (B2) (A1) (B2) (A1)
                 (A1) (B2) (B1) (A2) (A1) (B2) (A2) (B1) (B2) (A1)
                 (B1) (A2) (A1) (B2) (B1) (A2) (A1) (B2) (A1) (B2)
                 (A1) (B1) (B2) (A2) (A1) (B1) (A1) (B1) (A2) (B2)
                 (A2) (A1) (B2) (B1) (B2) (A2) (A1) (B2) (B1) (A1)
                 (A1) (A1) (A2) (B1) (B2) (B1) (B2) (A2) (A1) (A1)
                 (B2) (B1) (A1) (A2) (B2) (B1) (B2) (A1) (B2) (A1)
                 (A1) (A2) (B2) (B1) (B2) (A1) (A1) (B2) (A2) (B1)
                 (A1) (B2) (B1) (B2) (A1) (A1) (B1) (A2) (A1) (B2)
                 (B2) (A2) (B1) (A1) (B2) (B1) (A1) (A2) (B2) (B1)
                 (A1) (A2) (B1) (A2) (B2) (A1) (B2) (A1) (B1) (A2)
                 (A1) (B2) (B2) (A1) (B2) (A1) (A1) (B2) (A1) (B2)
                 (A1)
 The electronic state is 4-A2.
 Alpha  occ. eigenvalues --  -10.25487 -10.25486 -10.24404 -10.21624 -10.21623
 Alpha  occ. eigenvalues --   -0.84929  -0.79442  -0.74145  -0.57332  -0.51375
 Alpha  occ. eigenvalues --   -0.42215  -0.41693  -0.39968  -0.33753  -0.32325
 Alpha  occ. eigenvalues --   -0.32139  -0.24219
 Alpha virt. eigenvalues --   -0.02115   0.00363   0.00739   0.01630   0.03410
 Alpha virt. eigenvalues --    0.03527   0.04680   0.05923   0.06349   0.08168
 Alpha virt. eigenvalues --    0.08512   0.08649   0.09967   0.10213   0.10345
 Alpha virt. eigenvalues --    0.12167   0.13305   0.15687   0.15983   0.16223
 Alpha virt. eigenvalues --    0.19047   0.19298   0.22311   0.22475   0.23800
 Alpha virt. eigenvalues --    0.24568   0.29135   0.31160   0.31754   0.32617
 Alpha virt. eigenvalues --    0.32903   0.34441   0.37503   0.40362   0.41492
 Alpha virt. eigenvalues --    0.41730   0.42419   0.44819   0.45581   0.45595
 Alpha virt. eigenvalues --    0.45977   0.46966   0.49727   0.50741   0.50881
 Alpha virt. eigenvalues --    0.51778   0.52912   0.53068   0.55807   0.56334
 Alpha virt. eigenvalues --    0.57853   0.60029   0.61240   0.64139   0.66597
 Alpha virt. eigenvalues --    0.69038   0.70574   0.80180   0.82018   0.83068
 Alpha virt. eigenvalues --    0.85080   0.88277   0.89960   0.90036   0.90308
 Alpha virt. eigenvalues --    0.92960   0.95153   1.02137   1.06768   1.10996
 Alpha virt. eigenvalues --    1.11238   1.14668   1.21128   1.24392   1.26137
 Alpha virt. eigenvalues --    1.28338   1.33106   1.37614   1.40710   1.43941
 Alpha virt. eigenvalues --    1.46660   1.49597   1.50921   1.54281   1.54338
 Alpha virt. eigenvalues --    1.61611   1.61725   1.62524   1.69098   1.73792
 Alpha virt. eigenvalues --    1.75450   1.80152   1.80665   1.92980   1.97780
 Alpha virt. eigenvalues --    1.99716   2.10741   2.12545   2.20887   2.30863
 Alpha virt. eigenvalues --    2.36107   2.53437   2.58823   2.60081   2.61107
 Alpha virt. eigenvalues --    2.61234   2.63786   2.64829   2.66494   2.69391
 Alpha virt. eigenvalues --    2.69605   2.70990   2.77188   2.77320   2.79413
 Alpha virt. eigenvalues --    2.81756   2.85283   2.87106   2.89054   2.90124
 Alpha virt. eigenvalues --    2.91158   2.93676   2.99424   3.02302   3.02618
 Alpha virt. eigenvalues --    3.06611   3.10230   3.11404   3.12069   3.19965
 Alpha virt. eigenvalues --    3.20046   3.23417   3.24616   3.29951   3.51206
 Alpha virt. eigenvalues --    3.53817   3.67733   3.78245   3.78507   3.91797
 Alpha virt. eigenvalues --    3.92203   3.95588   3.96002   4.03795   4.10811
 Alpha virt. eigenvalues --    4.11504   4.21975   4.32939   4.46865   4.50514
 Alpha virt. eigenvalues --    4.70211   4.97702   5.45338   5.49850   5.52501
 Alpha virt. eigenvalues --    5.82782   6.04065   6.37423   6.90999   6.91804
 Alpha virt. eigenvalues --    6.92966   6.93081   7.05621   7.06476   7.07083
 Alpha virt. eigenvalues --    7.07493   7.12575   7.18998   7.20960   7.23601
 Alpha virt. eigenvalues --    7.27326   7.27358   7.30138   7.44347   7.50759
 Alpha virt. eigenvalues --    7.52640   7.64820   7.69305   7.74325   7.81833
 Alpha virt. eigenvalues --    8.02014   8.44371   8.50205  23.70024  24.39969
 Alpha virt. eigenvalues --   25.51984  26.58261  26.65457
  Beta  occ. eigenvalues --  -10.23454 -10.22818 -10.22817 -10.21786 -10.21784
  Beta  occ. eigenvalues --   -0.83514  -0.76862  -0.70225  -0.55809  -0.50855
  Beta  occ. eigenvalues --   -0.36984  -0.30744  -0.30394  -0.30092
  Beta virt. eigenvalues --   -0.20515  -0.20033  -0.12119  -0.00903   0.01714
  Beta virt. eigenvalues --    0.03254   0.03424   0.04470   0.04597   0.04751
  Beta virt. eigenvalues --    0.06503   0.06807   0.08490   0.10068   0.10229
  Beta virt. eigenvalues --    0.10608   0.10984   0.11340   0.12514   0.13781
  Beta virt. eigenvalues --    0.15957   0.16367   0.17896   0.19163   0.19753
  Beta virt. eigenvalues --    0.22562   0.23317   0.24314   0.25312   0.29582
  Beta virt. eigenvalues --    0.31633   0.32776   0.33400   0.33468   0.35124
  Beta virt. eigenvalues --    0.39035   0.41801   0.43288   0.44412   0.45475
  Beta virt. eigenvalues --    0.46503   0.47621   0.47808   0.48052   0.49445
  Beta virt. eigenvalues --    0.50486   0.52435   0.53099   0.53183   0.53562
  Beta virt. eigenvalues --    0.55373   0.56593   0.56958   0.58151   0.60231
  Beta virt. eigenvalues --    0.61740   0.64805   0.67510   0.69469   0.70674
  Beta virt. eigenvalues --    0.80944   0.82962   0.83983   0.86599   0.88774
  Beta virt. eigenvalues --    0.91735   0.91985   0.92256   0.93991   0.99700
  Beta virt. eigenvalues --    1.04057   1.07284   1.11716   1.11996   1.17107
  Beta virt. eigenvalues --    1.22334   1.28249   1.29804   1.30255   1.34659
  Beta virt. eigenvalues --    1.38635   1.40945   1.45441   1.48735   1.51301
  Beta virt. eigenvalues --    1.53131   1.57105   1.57565   1.65332   1.65640
  Beta virt. eigenvalues --    1.66476   1.72953   1.76214   1.77354   1.82693
  Beta virt. eigenvalues --    1.84136   1.94946   2.00090   2.04602   2.18856
  Beta virt. eigenvalues --    2.19123   2.25224   2.33377   2.39722   2.55735
  Beta virt. eigenvalues --    2.60864   2.61856   2.62810   2.63593   2.65554
  Beta virt. eigenvalues --    2.66685   2.69381   2.71322   2.71911   2.72532
  Beta virt. eigenvalues --    2.80096   2.80940   2.84538   2.84779   2.87402
  Beta virt. eigenvalues --    2.89753   2.90413   2.92375   2.93315   2.95288
  Beta virt. eigenvalues --    3.02346   3.03724   3.05104   3.08091   3.11351
  Beta virt. eigenvalues --    3.13686   3.14296   3.21995   3.23389   3.26937
  Beta virt. eigenvalues --    3.29188   3.32358   3.52944   3.57239   3.70274
  Beta virt. eigenvalues --    3.81065   3.81273   3.94041   3.94444   4.00647
  Beta virt. eigenvalues --    4.01912   4.05883   4.13749   4.14309   4.23870
  Beta virt. eigenvalues --    4.33552   4.47847   4.52165   4.71595   4.99612
  Beta virt. eigenvalues --    5.46912   5.52293   5.55311   5.83660   6.05371
  Beta virt. eigenvalues --    6.39704   6.94289   6.95015   6.96566   6.96641
  Beta virt. eigenvalues --    7.07062   7.07691   7.07750   7.07810   7.16217
  Beta virt. eigenvalues --    7.24017   7.28847   7.30626   7.32203   7.33392
  Beta virt. eigenvalues --    7.33725   7.45408   7.51042   7.54093   7.67605
  Beta virt. eigenvalues --    7.74970   7.77459   7.84999   8.03762   8.46375
  Beta virt. eigenvalues --    8.52131  23.71442  24.41202  25.52843  26.60170
  Beta virt. eigenvalues --   26.67431
          Condensed to atoms (all electrons):
               1          2          3          4          5          6
     1  H    0.498264   0.253918  -0.063769   0.108350  -0.063769   0.108350
     2  C    0.253918  12.890757   0.716312  -3.866582   0.716312  -3.866582
     3  C   -0.063769   0.716312   9.040015  -3.731091  -0.123927  -0.278895
     4  C    0.108350  -3.866582  -3.731091  14.117358  -0.278895  -0.250526
     5  C   -0.063769   0.716312  -0.123927  -0.278895   9.040015  -3.731091
     6  C    0.108350  -3.866582  -0.278895  -0.250526  -3.731091  14.117358
          Atomic-Atomic Spin Densities.
               1          2          3          4          5          6
     1  H   -0.038574  -0.023662   0.017239  -0.001604   0.017239  -0.001604
     2  C   -0.023662   2.272918  -0.576266  -0.183860  -0.576266  -0.183860
     3  C    0.017239  -0.576266   0.655976  -0.595578   0.189585   0.061750
     4  C   -0.001604  -0.183860  -0.595578   2.108210   0.061750   0.009356
     5  C    0.017239  -0.576266   0.189585   0.061750   0.655976  -0.595578
     6  C   -0.001604  -0.183860   0.061750   0.009356  -0.595578   2.108210
 Mulliken charges and spin densities:
               1          2
     1  H    0.158655  -0.030965
     2  C   -0.844135   0.729004
     3  C    0.441354  -0.247293
     4  C   -0.098614   1.398273
     5  C    0.441354  -0.247293
     6  C   -0.098614   1.398273
 Sum of Mulliken charges =   0.00000   3.00000
 Mulliken charges and spin densities with hydrogens summed into heavy atoms:
               1          2
     2  C   -0.685480   0.698039
     3  C    0.441354  -0.247293
     4  C   -0.098614   1.398273
     5  C    0.441354  -0.247293
     6  C   -0.098614   1.398273
 APT charges:
               1
     1  H    0.094373
     2  C    0.019619
     3  C    0.085461
     4  C   -0.142457
     5  C    0.085461
     6  C   -0.142456
 Sum of APT charges =   0.00000
 APT charges with hydrogens summed into heavy atoms:
               1
     2  C    0.113992
     3  C    0.085461
     4  C   -0.142457
     5  C    0.085461
     6  C   -0.142456
 Electronic spatial extent (au):  <R**2>=            387.5102
 Charge=             -0.0000 electrons
 Dipole moment (field-independent basis, Debye):
    X=             -0.0000    Y=             -0.0000    Z=              0.5743  Tot=              0.5743
 Quadrupole moment (field-independent basis, Debye-Ang):
   XX=            -29.8126   YY=            -26.9256   ZZ=            -26.5485
   XY=             -0.0000   XZ=             -0.0000   YZ=             -0.0000
 Traceless Quadrupole moment (field-independent basis, Debye-Ang):
   XX=             -2.0503   YY=              0.8366   ZZ=              1.2137
   XY=             -0.0000   XZ=             -0.0000   YZ=             -0.0000
 Octapole moment (field-independent basis, Debye-Ang**2):
  XXX=              0.0000  YYY=             -0.0000  ZZZ=              6.4462  XYY=              0.0000
  XXY=             -0.0000  XXZ=              0.5908  XZZ=              0.0000  YZZ=              0.0000
  YYZ=             -7.0397  XYZ=              0.0000
 Hexadecapole moment (field-independent basis, Debye-Ang**3):
 XXXX=            -35.9515 YYYY=           -460.2771 ZZZZ=            -70.1328 XXXY=             -0.0000
 XXXZ=             -0.0000 YYYX=             -0.0000 YYYZ=              0.0000 ZZZX=             -0.0000
 ZZZY=             -0.0000 XXYY=            -93.1447 XXZZ=            -19.5881 YYZZ=            -92.6720
 XXYZ=             -0.0000 YYXZ=             -0.0000 ZZXY=             -0.0000
 N-N= 1.039135388353D+02 E-N=-6.505290361869D+02  KE= 1.899342391972D+02
 Symmetry A1   KE= 1.090358644340D+02
 Symmetry A2   KE= 2.376025680405D+00
 Symmetry B1   KE= 3.444227829252D+00
 Symmetry B2   KE= 7.507812125358D+01
  Exact polarizability:  37.972   0.000 112.928  -0.000  -0.000  52.180
 Approx polarizability:  48.492   0.000 181.528   0.000   0.000  69.203
                          Isotropic Fermi Contact Couplings
        Atom                 a.u.       MegaHertz       Gauss      10(-4) cm-1
     1  H(1)              -0.01453     -21.65153      -7.72580      -7.22217
     2  C(13)              0.06971      26.12193       9.32095       8.71334
     3  C(13)              0.13393      50.18754      17.90816      16.74076
     4  C(13)              0.96597     361.97786     129.16270     120.74282
     5  C(13)              0.13393      50.18754      17.90816      16.74076
     6  C(13)              0.96597     361.97786     129.16270     120.74282
 --------------------------------------------------------
       Center         ----  Spin Dipole Couplings  ----
                      3XX-RR        3YY-RR        3ZZ-RR
 --------------------------------------------------------
     1   Atom       -0.007251     -0.038489      0.045740
     2   Atom        0.682409     -0.319712     -0.362696
     3   Atom       -0.260054      0.366762     -0.106708
     4   Atom        0.042763      0.248296     -0.291059
     5   Atom       -0.260054      0.366762     -0.106708
     6   Atom        0.042763      0.248296     -0.291059
 --------------------------------------------------------
                        XY            XZ            YZ
 --------------------------------------------------------
     1   Atom        0.000000      0.000000     -0.000000
     2   Atom        0.000000      0.000000      0.000000
     3   Atom        0.000000      0.000000     -0.234843
     4   Atom        0.000000     -0.000000     -0.445336
     5   Atom        0.000000      0.000000      0.234843
     6   Atom        0.000000      0.000000      0.445336
 --------------------------------------------------------


 ---------------------------------------------------------------------------------
              Anisotropic Spin Dipole Couplings in Principal Axis System
 ---------------------------------------------------------------------------------

       Atom             a.u.   MegaHertz   Gauss  10(-4) cm-1        Axes

              Baa    -0.0385   -20.536    -7.328    -6.850 -0.0000  1.0000  0.0000
     1 H(1)   Bbb    -0.0073    -3.869    -1.380    -1.291  1.0000  0.0000 -0.0000
              Bcc     0.0457    24.405     8.708     8.141  0.0000 -0.0000  1.0000
 
              Baa    -0.3627   -48.670   -17.367   -16.235  0.0000  0.0000  1.0000
     2 C(13)  Bbb    -0.3197   -42.902   -15.309   -14.311 -0.0000  1.0000 -0.0000
              Bcc     0.6824    91.573    32.675    30.545  1.0000 -0.0000 -0.0000
 
              Baa    -0.2601   -34.897   -12.452   -11.640  1.0000  0.0000  0.0000
     3 C(13)  Bbb    -0.2034   -27.299    -9.741    -9.106 -0.0000  0.3808  0.9246
              Bcc     0.4635    62.195    22.193    20.746 -0.0000  0.9246 -0.3808
 
              Baa    -0.5420   -72.732   -25.953   -24.261  0.0000  0.4909  0.8712
     4 C(13)  Bbb     0.0428     5.738     2.048     1.914  1.0000 -0.0000  0.0000
              Bcc     0.4992    66.994    23.905    22.347  0.0000  0.8712 -0.4909
 
              Baa    -0.2601   -34.897   -12.452   -11.640  1.0000 -0.0000  0.0000
     5 C(13)  Bbb    -0.2034   -27.299    -9.741    -9.106 -0.0000 -0.3808  0.9246
              Bcc     0.4635    62.195    22.193    20.746  0.0000  0.9246  0.3808
 
              Baa    -0.5420   -72.732   -25.953   -24.261 -0.0000 -0.4909  0.8712
     6 C(13)  Bbb     0.0428     5.738     2.048     1.914  1.0000 -0.0000 -0.0000
              Bcc     0.4992    66.994    23.905    22.347  0.0000  0.8712  0.4909
 

 ---------------------------------------------------------------------------------

 No NMR shielding tensors so no spin-rotation constants.
 Leave Link  601 at Mon Jun 20 14:14:15 2016, MaxMem=    33554432 cpu:         2.0
 (Enter /home/proyectos/fulerenos/M3C-v1.9/M3C-deps_CCC/g09-AM64L-G09RevC.01/l701.exe)
 Compute integral second derivatives.
 ... and contract with generalized density number  0.
 Leave Link  701 at Mon Jun 20 14:14:16 2016, MaxMem=    33554432 cpu:         1.5
 (Enter /home/proyectos/fulerenos/M3C-v1.9/M3C-deps_CCC/g09-AM64L-G09RevC.01/l702.exe)
 L702 exits ... SP integral derivatives will be done elsewhere.
 Leave Link  702 at Mon Jun 20 14:14:16 2016, MaxMem=    33554432 cpu:         0.1
 (Enter /home/proyectos/fulerenos/M3C-v1.9/M3C-deps_CCC/g09-AM64L-G09RevC.01/l703.exe)
 Compute integral second derivatives, UseDBF=F ICtDFT=           0.
 Integral derivatives from FoFJK, PRISM(SPDF).
 Calling FoFJK, ICntrl=    100127 FMM=F ISym2X=1 I1Cent= 0 IOpClX= 1 NMat=1 NMatS=1 NMatT=0.
 FoFJK:  IHMeth= 1 ICntrl=  100127 DoSepK=F KAlg= 0 I1Cent=   0 FoldK=F
 IRaf=         0 NMat=   1 IRICut=       1 DoRegI=T DoRafI=F ISym2E= 1.
 FoFCou: FMM=F IPFlag=           0 FMFlag=      100000 FMFlg1=         800
         NFxFlg=           0 DoJE=F BraDBF=F KetDBF=F FulRan=T
         wScrn=  0.000000 ICntrl=  100127 IOpCl=  1 I1Cent=           0 NGrid=           0
         NMat0=    1 NMatS0=      1 NMatT0=    0 NMatD0=    1 NMtDS0=    0 NMtDT0=    0
 Petite list used in FoFCou.
 Leave Link  703 at Mon Jun 20 14:15:04 2016, MaxMem=    33554432 cpu:       192.0
 (Enter /home/proyectos/fulerenos/M3C-v1.9/M3C-deps_CCC/g09-AM64L-G09RevC.01/l716.exe)
 Dipole        =-1.81562648D-17-3.41589279D-14 2.25950458D-01
 Polarizability= 3.79716181D+01 9.54670099D-08 1.12928282D+02
                -3.22325198D-07-1.16303019D-06 5.21795179D+01
 Full mass-weighted force constant matrix:
 Low frequencies ---   -5.2679   -0.0010   -0.0007    0.0006    6.3346    7.7601
 Low frequencies ---  114.1725  122.9497  346.6649
 Diagonal vibrational polarizability:
        2.7634275      48.8845947       9.2001485
 Harmonic frequencies (cm**-1), IR intensities (KM/Mole), Raman scattering
 activities (A**4/AMU), depolarization ratios for plane and unpolarized
 incident light, reduced masses (AMU), force constants (mDyne/A),
 and normal coordinates:
                      1                      2                      3
                     A1                     B2                     B1
 Frequencies --    114.1725               122.9479               346.6646
 Red. masses --     10.9300                 9.2850                 3.2811
 Frc consts  --      0.0839                 0.0827                 0.2323
 IR Inten    --      3.2064                26.7398                 4.5520
  Atom  AN      X      Y      Z        X      Y      Z        X      Y      Z
     1   1     0.00  -0.00  -0.31     0.00  -0.50   0.00    -0.89   0.00  -0.00
     2   6     0.00  -0.00  -0.31    -0.00  -0.05   0.00    -0.09  -0.00  -0.00
     3   6     0.00   0.02  -0.27     0.00   0.21   0.49     0.26   0.00   0.00
     4   6    -0.00   0.37   0.44     0.00  -0.16  -0.25    -0.18   0.00   0.00
     5   6    -0.00  -0.02  -0.27    -0.00   0.21  -0.49     0.26  -0.00  -0.00
     6   6     0.00  -0.37   0.44     0.00  -0.16   0.25    -0.18  -0.00   0.00
                      4                      5                      6
                     A2                     A1                     B1
 Frequencies --    375.0787               454.4510               673.2997
 Red. masses --     12.0000                10.7876                 1.8006
 Frc consts  --      0.9947                 1.3126                 0.4809
 IR Inten    --      0.0000                18.1710                29.3800
  Atom  AN      X      Y      Z        X      Y      Z        X      Y      Z
     1   1     0.00  -0.00   0.00    -0.00   0.00  -0.33     0.96   0.00  -0.00
     2   6    -0.00   0.00   0.00     0.00   0.00  -0.35    -0.24  -0.00  -0.00
     3   6     0.63  -0.00  -0.00     0.00   0.45   0.33     0.09   0.00  -0.00
     4   6    -0.33  -0.00   0.00    -0.00   0.22  -0.14    -0.01   0.00   0.00
     5   6    -0.63   0.00  -0.00    -0.00  -0.45   0.33     0.09  -0.00   0.00
     6   6     0.33   0.00   0.00     0.00  -0.22  -0.14    -0.01  -0.00  -0.00
                      7                      8                      9
                     A1                     B2                     B2
 Frequencies --    926.1425              1136.4499              1353.0463
 Red. masses --      8.3816                 1.8409                 2.1016
 Frc consts  --      4.2358                 1.4008                 2.2668
 IR Inten    --      5.3634                55.0908                 8.9742
  Atom  AN      X      Y      Z        X      Y      Z        X      Y      Z
     1   1    -0.00  -0.00   0.57    -0.00   0.96   0.00     0.00  -0.95   0.00
     2   6     0.00  -0.00   0.57     0.00   0.20   0.00    -0.00   0.29   0.00
     3   6    -0.00   0.16  -0.16    -0.00  -0.04   0.06     0.00  -0.04  -0.01
     4   6     0.00   0.31  -0.15     0.00  -0.10   0.05    -0.00  -0.06   0.03
     5   6     0.00  -0.16  -0.16    -0.00  -0.04  -0.06     0.00  -0.04   0.01
     6   6    -0.00  -0.31  -0.15     0.00  -0.10  -0.05    -0.00  -0.06  -0.03
                     10                     11                     12
                     B2                     A1                     A1
 Frequencies --   1993.2775              2098.8189              3144.4224
 Red. masses --     11.8891                11.8591                 1.0837
 Frc consts  --     27.8314                30.7787                 6.3133
 IR Inten    --      0.0100                 6.1679                 2.5422
  Atom  AN      X      Y      Z        X      Y      Z        X      Y      Z
     1   1    -0.00  -0.10  -0.00     0.00   0.00   0.11     0.00   0.00   1.00
     2   6    -0.00  -0.13  -0.00    -0.00  -0.00   0.11    -0.00  -0.00  -0.08
     3   6     0.00   0.47  -0.25    -0.00   0.49  -0.25     0.00  -0.00  -0.00
     4   6    -0.00  -0.40   0.20     0.00  -0.39   0.19    -0.00  -0.00   0.00
     5   6     0.00   0.47   0.25     0.00  -0.49  -0.25    -0.00   0.00  -0.00
     6   6    -0.00  -0.40  -0.20    -0.00   0.39   0.19     0.00   0.00   0.00

 -------------------
 - Thermochemistry -
 -------------------
 Temperature   298.150 Kelvin.  Pressure   1.00000 Atm.
 Atom     1 has atomic number  1 and mass   1.00783
 Atom     2 has atomic number  6 and mass  12.00000
 Atom     3 has atomic number  6 and mass  12.00000
 Atom     4 has atomic number  6 and mass  12.00000
 Atom     5 has atomic number  6 and mass  12.00000
 Atom     6 has atomic number  6 and mass  12.00000
 Molecular mass:    61.00783 amu.
 Principal axes and moments of inertia in atomic units:
                           1         2         3
     Eigenvalues --    52.24346 587.77439 640.01785
           X            0.00000   0.00000   1.00000
           Y            1.00000   0.00000  -0.00000
           Z            0.00000   1.00000   0.00000
 This molecule is an asymmetric top.
 Rotational symmetry number  2.
 Rotational temperatures (Kelvin)      1.65789     0.14736     0.13533
 Rotational constants (GHZ):          34.54483     3.07047     2.81983
 Zero-point vibrational energy      76194.8 (Joules/Mol)
                                   18.21099 (Kcal/Mol)
 Warning -- explicit consideration of   5 degrees of freedom as
           vibrations may cause significant error
 Vibrational temperatures:    164.27   176.89   498.77   539.65   653.85
          (Kelvin)            968.73  1332.51  1635.10  1946.73  2867.88
                             3019.73  4524.12
 
 Zero-point correction=                           0.029021 (Hartree/Particle)
 Thermal correction to Energy=                    0.034417
 Thermal correction to Enthalpy=                  0.035361
 Thermal correction to Gibbs Free Energy=         0.000236
 Sum of electronic and zero-point Energies=           -190.753988
 Sum of electronic and thermal Energies=              -190.748592
 Sum of electronic and thermal Enthalpies=            -190.747648
 Sum of electronic and thermal Free Energies=         -190.782773
 
                     E (Thermal)             CV                S
                      KCal/Mol        Cal/Mol-Kelvin    Cal/Mol-Kelvin
 Total                   21.597             16.027             73.928
 Electronic               0.000              0.000              2.755
 Translational            0.889              2.981             38.245
 Rotational               0.889              2.981             23.112
 Vibrational             19.819             10.065              9.816
 Vibration     1          0.607              1.938              3.197
 Vibration     2          0.610              1.930              3.054
 Vibration     3          0.725              1.582              1.181
 Vibration     4          0.746              1.523              1.059
 Vibration     5          0.813              1.351              0.782
                       Q            Log10(Q)             Ln(Q)
 Total Bot       0.779115D+00         -0.108398         -0.249596
 Total V=0       0.173913D+14         13.240333         30.486994
 Vib (Bot)       0.414452D-12        -12.382526        -28.511819
 Vib (Bot)    1  0.179226D+01          0.253401          0.583477
 Vib (Bot)    2  0.166100D+01          0.220369          0.507419
 Vib (Bot)    3  0.533362D+00         -0.272978         -0.628556
 Vib (Bot)    4  0.483699D+00         -0.315425         -0.726293
 Vib (Bot)    5  0.375984D+00         -0.424831         -0.978208
 Vib (V=0)       0.925137D+01          0.966206          2.224771
 Vib (V=0)    1  0.236070D+01          0.373040          0.858957
 Vib (V=0)    2  0.223462D+01          0.349204          0.804073
 Vib (V=0)    3  0.123108D+01          0.090285          0.207890
 Vib (V=0)    4  0.119568D+01          0.077613          0.178711
 Vib (V=0)    5  0.112559D+01          0.051381          0.118308
 Electronic      0.400000D+01          0.602060          1.386294
 Translational   0.187298D+08          7.272534         16.745627
 Rotational      0.250919D+05          4.399534         10.130301
 
                                                              b3lyp opt
                                                             IR Spectrum
 
     3                                          2   1                         1        1                                             
     1                                          0   9                         3        1       9         6        4  33        11    
     4                                          9   9                         5        3       2         7        5  74        21    
     4                                          9   3                         3        6       6         3        4  57        34    
 
     X                                          X                             X        X       X         X        X   X        XX    
                                                X                             X        X       X         X        X   X        X     
                                                                              X        X                 X        X            X     
                                                                                       X                 X        X            X     
                                                                                       X                 X        X            X     
                                                                                       X                 X        X            X     
                                                                                       X                 X        X            X     
                                                                                       X                 X                     X     
                                                                                       X                 X                     X     
                                                                                       X                 X                     X     
                                                                                       X                 X                           
                                                                                       X                                             
                                                                                       X                                             
                                                                                       X                                             
                                                                                       X                                             
                                                                                       X                                             
                                                                                       X                                             
                                                                                       X                                             
                                                                                       X                                             
                                                                                       X                                             
 
 ***** Axes restored to original set *****
 -------------------------------------------------------------------
 Center     Atomic                   Forces (Hartrees/Bohr)
 Number     Number              X              Y              Z
 -------------------------------------------------------------------
      1        1          -0.000000000    0.000000000    0.000051722
      2        6           0.000000000    0.000000000   -0.000017230
      3        6          -0.000000000    0.000009078   -0.000096375
      4        6          -0.000000000   -0.000134248    0.000079130
      5        6          -0.000000000   -0.000009078   -0.000096375
      6        6           0.000000000    0.000134248    0.000079130
 -------------------------------------------------------------------
 Cartesian Forces:  Max     0.000134248 RMS     0.000062486
 Z-matrix is all fixed cartesians, so copy forces.
 Force constants in Cartesian coordinates: 
                1             2             3             4             5 
      1  0.100969D-01
      2  0.000000D+00  0.552192D-01
      3  0.000000D+00  0.000000D+00  0.349828D+00
      4 -0.248379D-01  0.000000D+00  0.000000D+00  0.773114D-01
      5  0.000000D+00 -0.466990D-01  0.000000D+00  0.000000D+00  0.590820D+00
      6  0.000000D+00  0.000000D+00 -0.327132D+00  0.000000D+00  0.000000D+00
      7  0.618709D-02  0.000000D+00  0.000000D+00 -0.336556D-01  0.000000D+00
      8  0.000000D+00 -0.366928D-02  0.801867D-02  0.000000D+00 -0.203082D+00
      9  0.000000D+00  0.264949D-01 -0.124386D-01  0.000000D+00  0.893526D-01
     10  0.118341D-02  0.000000D+00  0.000000D+00  0.741880D-02  0.000000D+00
     11  0.000000D+00 -0.590815D-03 -0.159194D-02  0.000000D+00 -0.689781D-01
     12  0.000000D+00  0.373552D-03  0.109065D-02  0.000000D+00  0.349488D-01
     13  0.618709D-02  0.000000D+00  0.000000D+00 -0.336556D-01  0.000000D+00
     14  0.000000D+00 -0.366928D-02 -0.801867D-02  0.000000D+00 -0.203082D+00
     15  0.000000D+00 -0.264949D-01 -0.124386D-01  0.000000D+00 -0.893526D-01
     16  0.118341D-02  0.000000D+00  0.000000D+00  0.741880D-02  0.000000D+00
     17  0.000000D+00 -0.590814D-03  0.159194D-02  0.000000D+00 -0.689781D-01
     18  0.000000D+00 -0.373551D-03  0.109065D-02  0.000000D+00 -0.349488D-01
                6             7             8             9            10 
      6  0.564216D+00
      7  0.000000D+00  0.497951D-01
      8  0.147043D+00  0.000000D+00  0.936371D+00
      9 -0.116627D+00  0.000000D+00 -0.463911D+00  0.281088D+00
     10  0.000000D+00 -0.241445D-01  0.000000D+00  0.000000D+00  0.136067D-01
     11  0.573651D-02  0.000000D+00 -0.664526D+00  0.337422D+00  0.000000D+00
     12 -0.191511D-02  0.000000D+00  0.323906D+00 -0.169309D+00  0.000000D+00
     13  0.000000D+00 -0.310971D-03  0.000000D+00  0.000000D+00  0.212888D-02
     14 -0.147043D+00  0.000000D+00 -0.907837D-01  0.270297D-01  0.000000D+00
     15 -0.116627D+00  0.000000D+00 -0.270297D-01  0.264047D-01  0.000000D+00
     16  0.000000D+00  0.212888D-02  0.000000D+00  0.000000D+00 -0.193198D-03
     17 -0.573650D-02  0.000000D+00  0.256906D-01 -0.163883D-01  0.000000D+00
     18 -0.191510D-02  0.000000D+00  0.119734D-01 -0.911900D-02  0.000000D+00
               11            12            13            14            15 
     11  0.722341D+00
     12 -0.352605D+00  0.175673D+00
     13  0.000000D+00  0.000000D+00  0.497951D-01
     14  0.256906D-01 -0.119734D-01  0.000000D+00  0.936371D+00
     15  0.163883D-01 -0.911900D-02  0.000000D+00  0.463911D+00  0.281088D+00
     16  0.000000D+00  0.000000D+00 -0.241445D-01  0.000000D+00  0.000000D+00
     17 -0.139369D-01  0.535021D-02  0.000000D+00 -0.664526D+00 -0.337422D+00
     18 -0.535021D-02  0.357869D-02  0.000000D+00 -0.323906D+00 -0.169309D+00
               16            17            18 
     16  0.136067D-01
     17  0.000000D+00  0.722341D+00
     18  0.000000D+00  0.352605D+00  0.175673D+00
 Leave Link  716 at Mon Jun 20 14:15:04 2016, MaxMem=    33554432 cpu:         0.5
 (Enter /home/proyectos/fulerenos/M3C-v1.9/M3C-deps_CCC/g09-AM64L-G09RevC.01/l103.exe)

 GradGradGradGradGradGradGradGradGradGradGradGradGradGradGradGradGradGrad
 Berny optimization.
 Search for a local minimum.
 Step number   1 out of a maximum of    2
 All quantities printed in internal units (Hartrees-Bohrs-Radians)
 Second derivative matrix not updated -- analytic derivatives used.
 The second derivative matrix:
                          X1        Y1        Z1        X2        Y2
           X1           0.01010
           Y1          -0.00000   0.05522
           Z1           0.00000   0.00000   0.34983
           X2          -0.02484   0.00000   0.00000   0.07731
           Y2           0.00000  -0.04670  -0.00000   0.00000   0.59082
           Z2          -0.00000   0.00000  -0.32713  -0.00000   0.00000
           X3           0.00619  -0.00000   0.00000  -0.03366   0.00000
           Y3           0.00000  -0.00367   0.00802  -0.00000  -0.20308
           Z3          -0.00000   0.02649  -0.01244   0.00000   0.08935
           X4           0.00118  -0.00000   0.00000   0.00742   0.00000
           Y4          -0.00000  -0.00059  -0.00159   0.00000  -0.06898
           Z4           0.00000   0.00037   0.00109  -0.00000   0.03495
           X5           0.00619  -0.00000  -0.00000  -0.03366   0.00000
           Y5          -0.00000  -0.00367  -0.00802  -0.00000  -0.20308
           Z5           0.00000  -0.02649  -0.01244  -0.00000  -0.08935
           X6           0.00118  -0.00000  -0.00000   0.00742   0.00000
           Y6           0.00000  -0.00059   0.00159   0.00000  -0.06898
           Z6           0.00000  -0.00037   0.00109   0.00000  -0.03495
                          Z2        X3        Y3        Z3        X4
           Z2           0.56422
           X3          -0.00000   0.04980
           Y3           0.14704   0.00000   0.93637
           Z3          -0.11663   0.00000  -0.46391   0.28109
           X4          -0.00000  -0.02414  -0.00000   0.00000   0.01361
           Y4           0.00574  -0.00000  -0.66453   0.33742   0.00000
           Z4          -0.00192  -0.00000   0.32391  -0.16931  -0.00000
           X5           0.00000  -0.00031  -0.00000  -0.00000   0.00213
           Y5          -0.14704  -0.00000  -0.09078   0.02703  -0.00000
           Z5          -0.11663   0.00000  -0.02703   0.02640   0.00000
           X6           0.00000   0.00213  -0.00000  -0.00000  -0.00019
           Y6          -0.00574  -0.00000   0.02569  -0.01639   0.00000
           Z6          -0.00192  -0.00000   0.01197  -0.00912  -0.00000
                          Y4        Z4        X5        Y5        Z5
           Y4           0.72234
           Z4          -0.35260   0.17567
           X5          -0.00000   0.00000   0.04980
           Y5           0.02569  -0.01197   0.00000   0.93637
           Z5           0.01639  -0.00912  -0.00000   0.46391   0.28109
           X6           0.00000   0.00000  -0.02414  -0.00000  -0.00000
           Y6          -0.01394   0.00535  -0.00000  -0.66453  -0.33742
           Z6          -0.00535   0.00358   0.00000  -0.32391  -0.16931
                          X6        Y6        Z6
           X6           0.01361
           Y6           0.00000   0.72234
           Z6           0.00000   0.35260   0.17567
 ITU=  0
     Eigenvalues ---    0.00543   0.00546   0.02369   0.06389   0.08341
     Eigenvalues ---    0.08857   0.11854   0.25151   0.72166   0.79594
     Eigenvalues ---    1.80339   2.00423
 Angle between quadratic step and forces=  62.87 degrees.
 ClnCor:  largest displacement from symmetrization is 3.80D-10 for atom     5.
 Linear search not attempted -- first point.
 ClnCor:  largest displacement from symmetrization is 7.27D-27 for atom     1.
 B after Tr=     0.000000    0.000000    0.000007
         Rot=    1.000000   -0.000000    0.000000    0.000000 Ang=   0.00 deg.
 Variable       Old X    -DE/DX   Delta X   Delta X   Delta X     New X
                                 (Linear)    (Quad)   (Total)
    X1        0.00000  -0.00000   0.00000  -0.00000  -0.00000   0.00000
    Y1        0.00000   0.00000   0.00000  -0.00000   0.00000   0.00000
    Z1        3.32677   0.00005   0.00000  -0.00008  -0.00007   3.32670
    X2        0.00000   0.00000   0.00000  -0.00000  -0.00000   0.00000
    Y2        0.00000   0.00000   0.00000  -0.00000   0.00000   0.00000
    Z2        1.27823  -0.00002   0.00000  -0.00018  -0.00017   1.27806
    X3        0.00000  -0.00000   0.00000  -0.00000  -0.00000   0.00000
    Y3        2.29857   0.00001   0.00000  -0.00073  -0.00073   2.29784
    Z3        0.03312  -0.00010   0.00000  -0.00118  -0.00117   0.03194
    X4        0.00000  -0.00000   0.00000   0.00000   0.00000   0.00000
    Y4        4.38260  -0.00013   0.00000   0.00033   0.00033   4.38292
    Z4       -0.94946   0.00008   0.00000   0.00128   0.00129  -0.94817
    X5       -0.00000  -0.00000   0.00000   0.00000   0.00000  -0.00000
    Y5       -2.29857  -0.00001   0.00000   0.00073   0.00073  -2.29784
    Z5        0.03312  -0.00010   0.00000  -0.00118  -0.00117   0.03194
    X6       -0.00000   0.00000   0.00000  -0.00000   0.00000  -0.00000
    Y6       -4.38260   0.00013   0.00000  -0.00033  -0.00033  -4.38292
    Z6       -0.94946   0.00008   0.00000   0.00128   0.00129  -0.94817
         Item               Value     Threshold  Converged?
 Maximum Force            0.000134     0.000450     YES
 RMS     Force            0.000062     0.000300     YES
 Maximum Displacement     0.001292     0.001800     YES
 RMS     Displacement     0.000641     0.001200     YES
 Predicted change in Energy=-1.643554D-07
 Optimization completed.
    -- Stationary point found.
 GradGradGradGradGradGradGradGradGradGradGradGradGradGradGradGradGradGrad

 Leave Link  103 at Mon Jun 20 14:15:04 2016, MaxMem=    33554432 cpu:         0.1
 (Enter /home/proyectos/fulerenos/M3C-v1.9/M3C-deps_CCC/g09-AM64L-G09RevC.01/l9999.exe)
 1\1\GINC-BELVIS17\Freq\UB3LYP\6-311++G(3df,2p)\C5H1(4)\ROOT\20-Jun-201
 6\0\\#p b3lyp/6-311++G(3df,2p) freq symmetry=Loose\\b3lyp opt\\0,4\H,0
 .,0.,1.76045\C,0.,0.,0.676409\C,0.,1.216352,0.017524\C,0.,2.319171,-0.
 502432\C,0.,-1.216352,0.017524\C,0.,-2.319171,-0.502432\\Version=EM64L
 -G09RevE.01\State=4-A2\HF=-190.7830086\S2=3.839526\S2-1=0.\S2A=3.75333
 8\RMSD=5.093e-09\RMSF=6.249e-05\ZeroPoint=0.0290211\Thermal=0.0344169\
 Dipole=0.,0.,0.2259505\DipoleDeriv=0.1740801,0.,0.,0.,0.0804111,0.,0.,
 0.,0.0286285,-0.2578253,0.,0.,0.,0.6220537,0.0000001,0.,0.,-0.3053726,
 0.0275793,0.,0.,0.,0.0275097,0.305129,0.,0.4255454,0.201293,0.0142934,
 0.,0.,0.,-0.3787422,-0.1705842,0.,-0.0469214,-0.062921,0.0275793,0.,0.
 ,0.,0.0275095,-0.3051293,0.,-0.4255455,0.2012928,0.0142934,0.,0.,0.,-0
 .378742,0.1705844,0.,0.0469215,-0.0629208\Polar=37.9716181,0.,112.9282
 818,-0.0000003,-0.0000012,52.1795179\PG=C02V [C2(C1H1),SGV(C4)]\NImag=
 0\\0.01009686,0.,0.05521916,0.,0.,0.34982813,-0.02483786,0.,0.,0.07731
 141,0.,-0.04669896,0.,0.,0.59081980,0.,0.,-0.32713231,0.,0.00000001,0.
 56421574,0.00618709,0.,0.,-0.03365558,0.,-0.00000001,0.04979513,0.,-0.
 00366928,0.00801867,0.,-0.20308230,0.14704330,0.,0.93637059,0.,0.02649
 492,-0.01243856,0.,0.08935264,-0.11662660,0.,-0.46391120,0.28108808,0.
 00118341,0.,0.,0.00741880,0.,0.,-0.02414454,0.,0.,0.01360665,0.,-0.000
 59081,-0.00159194,0.,-0.06897813,0.00573651,0.,-0.66452592,0.33742218,
 0.,0.72234115,0.,0.00037355,0.00109065,0.,0.03494882,-0.00191511,0.,0.
 32390561,-0.16930867,0.,-0.35260483,0.17567344,0.00618709,0.,0.,-0.033
 65558,0.,0.,-0.00031097,0.,0.,0.00212888,0.,0.,0.04979513,0.,-0.003669
 28,-0.00801867,0.,-0.20308228,-0.14704331,0.,-0.09078370,0.02702974,0.
 ,0.02569062,-0.01197336,0.,0.93637059,0.,-0.02649492,-0.01243856,0.,-0
 .08935264,-0.11662662,0.,-0.02702974,0.02640475,0.,0.01638828,-0.00911
 900,0.,0.46391120,0.28108808,0.00118341,0.,0.,0.00741880,0.,0.,0.00212
 888,0.,0.,-0.00019320,0.,0.,-0.02414454,0.,0.,0.01360665,0.,-0.0005908
 1,0.00159194,0.,-0.06897814,-0.00573650,0.,0.02569062,-0.01638828,0.,-
 0.01393690,0.00535021,0.,-0.66452592,-0.33742218,0.,0.72234115,0.,-0.0
 0037355,0.00109065,0.,-0.03494882,-0.00191510,0.,0.01197336,-0.0091190
 0,0.,-0.00535021,0.00357869,0.,-0.32390561,-0.16930867,0.,0.35260483,0
 .17567344\\0.,0.,-0.00005172,0.,0.,0.00001723,0.,-0.00000908,0.0000963
 8,0.,0.00013425,-0.00007913,0.,0.00000908,0.00009638,0.,-0.00013425,-0
 .00007913\\\@


 MYSTERY IS THE WISDOM OF BLOCKHEADS... HORACE WALPOLE 
 Job cpu time:       0 days  0 hours 23 minutes 57.0 seconds.
 File lengths (MBytes):  RWF=     42 Int=      0 D2E=      0 Chk=      4 Scr=      1
 Normal termination of Gaussian 09 at Mon Jun 20 14:15:04 2016.
