 Entering Gaussian System, Link 0=/home/proyectos/fulerenos/M3C-v1.9/M3C-deps_CCC/g09-AM64L-G09RevC.01/g09
 Initial command:
 /home/proyectos/fulerenos/M3C-v1.9/M3C-deps_CCC/g09-AM64L-G09RevC.01/l1.exe "/scratch/naguirre/gaussian/Gau-1371.inp" -scrdir="/scratch/naguirre/gaussian/"
 Entering Link 1 = /home/proyectos/fulerenos/M3C-v1.9/M3C-deps_CCC/g09-AM64L-G09RevC.01/l1.exe PID=      1378.
  
 Copyright (c) 1988,1990,1992,1993,1995,1998,2003,2009,2015,
            Gaussian, Inc.  All Rights Reserved.
  
 This is part of the Gaussian(R) 09 program.  It is based on
 the Gaussian(R) 03 system (copyright 2003, Gaussian, Inc.),
 the Gaussian(R) 98 system (copyright 1998, Gaussian, Inc.),
 the Gaussian(R) 94 system (copyright 1995, Gaussian, Inc.),
 the Gaussian 92(TM) system (copyright 1992, Gaussian, Inc.),
 the Gaussian 90(TM) system (copyright 1990, Gaussian, Inc.),
 the Gaussian 88(TM) system (copyright 1988, Gaussian, Inc.),
 the Gaussian 86(TM) system (copyright 1986, Carnegie Mellon
 University), and the Gaussian 82(TM) system (copyright 1983,
 Carnegie Mellon University). Gaussian is a federally registered
 trademark of Gaussian, Inc.
  
 This software contains proprietary and confidential information,
 including trade secrets, belonging to Gaussian, Inc.
  
 This software is provided under written license and may be
 used, copied, transmitted, or stored only in accord with that
 written license.
  
 The following legend is applicable only to US Government
 contracts under FAR:
  
                    RESTRICTED RIGHTS LEGEND
  
 Use, reproduction and disclosure by the US Government is
 subject to restrictions as set forth in subparagraphs (a)
 and (c) of the Commercial Computer Software - Restricted
 Rights clause in FAR 52.227-19.
  
 Gaussian, Inc.
 340 Quinnipiac St., Bldg. 40, Wallingford CT 06492
  
  
 ---------------------------------------------------------------
 Warning -- This program may not be used in any manner that
 competes with the business of Gaussian, Inc. or will provide
 assistance to any competitor of Gaussian, Inc.  The licensee
 of this program is prohibited from giving any competitor of
 Gaussian, Inc. access to this program.  By using this program,
 the user acknowledges that Gaussian, Inc. is engaged in the
 business of creating and licensing software in the field of
 computational chemistry and represents and warrants to the
 licensee that it is not a competitor of Gaussian, Inc. and that
 it will not use this program in any manner prohibited above.
 ---------------------------------------------------------------
  

 Cite this work as:
 Gaussian 09, Revision E.01,
 M. J. Frisch, G. W. Trucks, H. B. Schlegel, G. E. Scuseria, 
 M. A. Robb, J. R. Cheeseman, G. Scalmani, V. Barone, B. Mennucci, 
 G. A. Petersson, H. Nakatsuji, M. Caricato, X. Li, H. P. Hratchian, 
 A. F. Izmaylov, J. Bloino, G. Zheng, J. L. Sonnenberg, M. Hada, 
 M. Ehara, K. Toyota, R. Fukuda, J. Hasegawa, M. Ishida, T. Nakajima, 
 Y. Honda, O. Kitao, H. Nakai, T. Vreven, J. A. Montgomery, Jr., 
 J. E. Peralta, F. Ogliaro, M. Bearpark, J. J. Heyd, E. Brothers, 
 K. N. Kudin, V. N. Staroverov, T. Keith, R. Kobayashi, J. Normand, 
 K. Raghavachari, A. Rendell, J. C. Burant, S. S. Iyengar, J. Tomasi, 
 M. Cossi, N. Rega, J. M. Millam, M. Klene, J. E. Knox, J. B. Cross, 
 V. Bakken, C. Adamo, J. Jaramillo, R. Gomperts, R. E. Stratmann, 
 O. Yazyev, A. J. Austin, R. Cammi, C. Pomelli, J. W. Ochterski, 
 R. L. Martin, K. Morokuma, V. G. Zakrzewski, G. A. Voth, 
 P. Salvador, J. J. Dannenberg, S. Dapprich, A. D. Daniels, 
 O. Farkas, J. B. Foresman, J. V. Ortiz, J. Cioslowski, 
 and D. J. Fox, Gaussian, Inc., Wallingford CT, 2013.
 
 ******************************************
 Gaussian 09:  EM64L-G09RevE.01 30-Nov-2015
                20-Jun-2016 
 ******************************************
 %NProcShared=4
 Will use up to    4 processors via shared memory.
 ---------------------------------------------
 #p b3lyp/6-311++G(3df,2p) freq symmetry=Loose
 ---------------------------------------------
 1/10=4,30=1,38=1/1,3;
 2/12=2,17=4,18=3,40=1/2;
 3/5=4,6=6,7=1216,11=2,16=1,25=1,30=1,71=2,74=-5,140=1/1,2,3;
 4//1;
 5/5=2,38=5,98=1/2;
 8/6=4,10=90,11=11/1;
 11/6=1,8=1,9=11,15=111,16=1/1,2,10;
 10/6=1/2;
 6/7=2,8=2,9=2,10=2,18=1,28=1/1;
 7/8=1,10=1,25=1/1,2,3,16;
 1/10=4,30=1/3;
 99//99;
 Leave Link    1 at Mon Jun 20 15:09:46 2016, MaxMem=           0 cpu:         0.2
 (Enter /home/proyectos/fulerenos/M3C-v1.9/M3C-deps_CCC/g09-AM64L-G09RevC.01/l101.exe)
 ---------
 b3lyp opt
 ---------
 Symbolic Z-matrix:
 Charge =  3 Multiplicity = 3
 H                    -2.49896  -0.51501   0. 
 C                    -1.41933  -0.16249   0. 
 C                    -0.49049   0.86348   0. 
 C                     0.86299   0.6625    0. 
 C                     1.46332  -0.57985   0. 
 C                     0.       -0.69781   0. 
 
 NAtoms=      6 NQM=        6 NQMF=       0 NMMI=      0 NMMIF=      0
                NMic=       0 NMicF=      0.
                    Isotopes and Nuclear Properties:
 (Nuclear quadrupole moments (NQMom) in fm**2, nuclear magnetic moments (NMagM)
  in nuclear magnetons)

  Atom         1           2           3           4           5           6
 IAtWgt=           1          12          12          12          12          12
 AtmWgt=   1.0078250  12.0000000  12.0000000  12.0000000  12.0000000  12.0000000
 NucSpn=           1           0           0           0           0           0
 AtZEff=   0.0000000   0.0000000   0.0000000   0.0000000   0.0000000   0.0000000
 NQMom=    0.0000000   0.0000000   0.0000000   0.0000000   0.0000000   0.0000000
 NMagM=    2.7928460   0.0000000   0.0000000   0.0000000   0.0000000   0.0000000
 AtZNuc=   1.0000000   6.0000000   6.0000000   6.0000000   6.0000000   6.0000000
 Leave Link  101 at Mon Jun 20 15:09:46 2016, MaxMem=    33554432 cpu:         0.2
 (Enter /home/proyectos/fulerenos/M3C-v1.9/M3C-deps_CCC/g09-AM64L-G09RevC.01/l103.exe)

 GradGradGradGradGradGradGradGradGradGradGradGradGradGradGradGradGradGrad
 Berny optimization.
 Initialization pass.
 Trust Radius=3.00D-01 FncErr=1.00D-07 GrdErr=1.00D-07
 Number of steps in this run=      2 maximum allowed number of steps=      2.
 GradGradGradGradGradGradGradGradGradGradGradGradGradGradGradGradGradGrad

 Leave Link  103 at Mon Jun 20 15:09:46 2016, MaxMem=    33554432 cpu:         0.1
 (Enter /home/proyectos/fulerenos/M3C-v1.9/M3C-deps_CCC/g09-AM64L-G09RevC.01/l202.exe)
                          Input orientation:                          
 ---------------------------------------------------------------------
 Center     Atomic      Atomic             Coordinates (Angstroms)
 Number     Number       Type             X           Y           Z
 ---------------------------------------------------------------------
      1          1           0       -2.498957   -0.515012    0.000000
      2          6           0       -1.419326   -0.162485    0.000000
      3          6           0       -0.490488    0.863480    0.000000
      4          6           0        0.862993    0.662502    0.000000
      5          6           0        1.463315   -0.579850    0.000000
      6          6           0        0.000000   -0.697811    0.000000
 ---------------------------------------------------------------------
                    Distance matrix (angstroms):
                    1          2          3          4          5
     1  H    0.000000
     2  C    1.135728   0.000000
     3  C    2.436019   1.383960   0.000000
     4  C    3.562197   2.426846   1.368321   0.000000
     5  C    3.962802   2.912699   2.429104   1.379792   0.000000
     6  C    2.505634   1.516925   1.636523   1.610965   1.468062
                    6
     6  C    0.000000
 Stoichiometry    C5H(3+,3)
 Framework group  CS[SG(C5H)]
 Deg. of freedom     9
 Full point group                 CS      NOp   2
 Largest Abelian subgroup         CS      NOp   2
 Largest concise Abelian subgroup C1      NOp   1
                         Standard orientation:                         
 ---------------------------------------------------------------------
 Center     Atomic      Atomic             Coordinates (Angstroms)
 Number     Number       Type             X           Y           Z
 ---------------------------------------------------------------------
      1          1           0        2.498957    0.515013    0.000000
      2          6           0        1.419326    0.162486    0.000000
      3          6           0        0.490489   -0.863480    0.000000
      4          6           0       -0.862993   -0.662502   -0.000000
      5          6           0       -1.463315    0.579850   -0.000000
      6          6           0        0.000000    0.697811    0.000000
 ---------------------------------------------------------------------
 Rotational constants (GHZ):     20.8520164      7.3970494      5.4601238
 Leave Link  202 at Mon Jun 20 15:09:46 2016, MaxMem=    33554432 cpu:         0.0
 (Enter /home/proyectos/fulerenos/M3C-v1.9/M3C-deps_CCC/g09-AM64L-G09RevC.01/l301.exe)
 Standard basis: 6-311++G(3df,2p) (5D, 7F)
 Ernie: Thresh=  0.10000D-02 Tol=  0.10000D-05 Strict=F.
 There are   163 symmetry adapted cartesian basis functions of A'  symmetry.
 There are    72 symmetry adapted cartesian basis functions of A"  symmetry.
 There are   138 symmetry adapted basis functions of A'  symmetry.
 There are    67 symmetry adapted basis functions of A"  symmetry.
   205 basis functions,   302 primitive gaussians,   235 cartesian basis functions
    15 alpha electrons       13 beta electrons
       nuclear repulsion energy       119.7871642840 Hartrees.
 IExCor=  402 DFT=T Ex+Corr=B3LYP ExCW=0 ScaHFX=  0.200000
 ScaDFX=  0.800000  0.720000  1.000000  0.810000 ScalE2=  1.000000  1.000000
 IRadAn=      0 IRanWt=     -1 IRanGd=            0 ICorTp=0 IEmpDi=  4
 NAtoms=    6 NActive=    6 NUniq=    6 SFac= 1.00D+00 NAtFMM=   60 NAOKFM=F Big=F
 Integral buffers will be    131072 words long.
 Raffenetti 2 integral format.
 Two-electron integral symmetry is turned on.
 Leave Link  301 at Mon Jun 20 15:09:46 2016, MaxMem=    33554432 cpu:         0.2
 (Enter /home/proyectos/fulerenos/M3C-v1.9/M3C-deps_CCC/g09-AM64L-G09RevC.01/l302.exe)
 NPDir=0 NMtPBC=     1 NCelOv=     1 NCel=       1 NClECP=     1 NCelD=      1
         NCelK=      1 NCelE2=     1 NClLst=     1 CellRange=     0.0.
 One-electron integrals computed using PRISM.
 NBasis=   205 RedAO= T EigKep=  9.81D-06  NBF=   138    67
 NBsUse=   205 1.00D-06 EigRej= -1.00D+00 NBFU=   138    67
 Precomputing XC quadrature grid using
 IXCGrd= 4 IRadAn=           0 IRanWt=          -1 IRanGd=           0 AccXCQ= 0.00D+00.
 Generated NRdTot=       0 NPtTot=           0 NUsed=           0 NTot=          32
 NSgBfM=   235   235   235   235   235 MxSgAt=     6 MxSgA2=     6.
 Leave Link  302 at Mon Jun 20 15:09:47 2016, MaxMem=    33554432 cpu:         1.0
 (Enter /home/proyectos/fulerenos/M3C-v1.9/M3C-deps_CCC/g09-AM64L-G09RevC.01/l303.exe)
 DipDrv:  MaxL=1.
 Leave Link  303 at Mon Jun 20 15:09:47 2016, MaxMem=    33554432 cpu:         0.1
 (Enter /home/proyectos/fulerenos/M3C-v1.9/M3C-deps_CCC/g09-AM64L-G09RevC.01/l401.exe)
 ExpMin= 3.60D-02 ExpMax= 4.56D+03 ExpMxC= 6.82D+02 IAcc=3 IRadAn=         5 AccDes= 0.00D+00
 Harris functional with IExCor=  402 and IRadAn=       5 diagonalized for initial guess.
 HarFok:  IExCor=  402 AccDes= 0.00D+00 IRadAn=         5 IDoV= 1 UseB2=F ITyADJ=14
 ICtDFT=  3500011 ScaDFX=  1.000000  1.000000  1.000000  1.000000
 FoFCou: FMM=F IPFlag=           0 FMFlag=      100000 FMFlg1=           0
         NFxFlg=           0 DoJE=T BraDBF=F KetDBF=T FulRan=T
         wScrn=  0.000000 ICntrl=     500 IOpCl=  0 I1Cent=   200000004 NGrid=           0
         NMat0=    1 NMatS0=      1 NMatT0=    0 NMatD0=    1 NMtDS0=    0 NMtDT0=    0
 Petite list used in FoFCou.
 Harris En= -189.940579444165    
 JPrj=0 DoOrth=F DoCkMO=F.
 Initial guess orbital symmetries:
 Alpha Orbitals:
       Occupied  (A') (A') (A') (A') (A') (A') (A') (A') (A') (A')
                 (A') (A") (A') (A") (A')
       Virtual   (A") (A') (A") (A') (A") (A') (A') (A') (A') (A")
                 (A') (A') (A') (A") (A") (A') (A') (A') (A') (A")
                 (A") (A') (A') (A') (A') (A') (A') (A') (A') (A')
                 (A') (A') (A") (A') (A") (A') (A') (A") (A') (A")
                 (A') (A') (A") (A') (A") (A') (A") (A') (A") (A')
                 (A') (A') (A") (A') (A') (A') (A") (A') (A") (A")
                 (A') (A") (A') (A") (A') (A") (A') (A') (A') (A')
                 (A') (A') (A") (A') (A') (A') (A") (A') (A') (A")
                 (A') (A") (A') (A') (A') (A") (A') (A') (A") (A')
                 (A') (A') (A") (A") (A") (A') (A') (A') (A") (A')
                 (A') (A") (A') (A') (A') (A") (A') (A") (A") (A')
                 (A") (A") (A') (A") (A') (A') (A') (A") (A") (A")
                 (A") (A') (A') (A') (A') (A') (A") (A') (A') (A')
                 (A') (A") (A') (A") (A') (A') (A") (A') (A') (A")
                 (A") (A') (A') (A') (A") (A') (A') (A') (A") (A')
                 (A') (A") (A") (A") (A') (A') (A') (A') (A') (A')
                 (A") (A") (A") (A') (A') (A") (A') (A") (A') (A')
                 (A") (A") (A') (A') (A") (A") (A') (A") (A') (A')
                 (A') (A') (A') (A') (A') (A') (A') (A') (A') (A')
 Beta  Orbitals:
       Occupied  (A') (A') (A') (A') (A') (A') (A') (A') (A') (A')
                 (A') (A") (A')
       Virtual   (A") (A') (A") (A') (A") (A') (A") (A') (A') (A')
                 (A') (A") (A') (A') (A') (A") (A") (A') (A') (A')
                 (A') (A") (A") (A') (A') (A') (A') (A') (A') (A')
                 (A') (A') (A') (A') (A") (A') (A") (A') (A') (A")
                 (A') (A") (A') (A') (A") (A') (A") (A') (A") (A')
                 (A") (A') (A') (A') (A") (A') (A') (A') (A") (A')
                 (A") (A") (A') (A") (A') (A") (A') (A") (A') (A')
                 (A') (A') (A') (A') (A") (A') (A') (A') (A") (A')
                 (A') (A") (A') (A") (A') (A') (A') (A") (A') (A')
                 (A") (A') (A') (A') (A") (A") (A") (A') (A') (A')
                 (A") (A') (A') (A") (A') (A') (A') (A") (A') (A")
                 (A") (A') (A") (A") (A') (A") (A') (A') (A') (A")
                 (A") (A") (A") (A') (A') (A') (A') (A') (A") (A')
                 (A') (A') (A') (A") (A') (A") (A') (A') (A") (A')
                 (A') (A") (A") (A') (A') (A') (A") (A') (A') (A')
                 (A") (A') (A') (A") (A") (A") (A') (A') (A') (A')
                 (A') (A') (A") (A") (A") (A') (A') (A") (A') (A")
                 (A') (A') (A") (A") (A') (A') (A") (A") (A') (A")
                 (A') (A') (A') (A') (A') (A') (A') (A') (A') (A')
                 (A') (A')
 The electronic state of the initial guess is 3-A".
 Initial guess <Sx>= 0.0000 <Sy>= 0.0000 <Sz>= 1.0000 <S**2>= 2.0000 S= 1.0000
 Leave Link  401 at Mon Jun 20 15:09:48 2016, MaxMem=    33554432 cpu:         4.5
 (Enter /home/proyectos/fulerenos/M3C-v1.9/M3C-deps_CCC/g09-AM64L-G09RevC.01/l502.exe)
 UHF open shell SCF:
 Using DIIS extrapolation, IDIIS=  1040.
 Integral symmetry usage will be decided dynamically.
 IVT=      187368 IEndB=      187368 NGot=    33554432 MDV=    33439165
 LenX=    33439165 LenY=    33383499
 Requested convergence on RMS density matrix=1.00D-08 within 128 cycles.
 Requested convergence on MAX density matrix=1.00D-06.
 Requested convergence on             energy=1.00D-06.
 No special actions if energy rises.
 Fock matrices will be formed incrementally for  20 cycles.

 Cycle   1  Pass 1  IDiag  1:
 FoFJK:  IHMeth= 1 ICntrl=       0 DoSepK=F KAlg= 0 I1Cent=   0 FoldK=F
 IRaf= 990000000 NMat=   1 IRICut=       1 DoRegI=T DoRafI=F ISym2E= 1.
 FoFCou: FMM=F IPFlag=           0 FMFlag=      100000 FMFlg1=           0
         NFxFlg=           0 DoJE=F BraDBF=F KetDBF=F FulRan=T
         wScrn=  0.000000 ICntrl=       0 IOpCl=  1 I1Cent=           0 NGrid=           0
         NMat0=    1 NMatS0=      1 NMatT0=    0 NMatD0=    1 NMtDS0=    0 NMtDT0=    0
 Petite list used in FoFCou.
 E= -188.836685568424    
 DIIS: error= 3.23D-02 at cycle   1 NSaved=   1.
 NSaved= 1 IEnMin= 1 EnMin= -188.836685568424     IErMin= 1 ErrMin= 3.23D-02
 ErrMax= 3.23D-02  0.00D+00 EMaxC= 1.00D-01 BMatC= 3.25D-01 BMatP= 3.25D-01
 IDIUse=3 WtCom= 6.77D-01 WtEn= 3.23D-01
 Coeff-Com:  0.100D+01
 Coeff-En:   0.100D+01
 Coeff:      0.100D+01
 Gap=     0.084 Goal=   None    Shift=    0.000
 Gap=     0.185 Goal=   None    Shift=    0.000
 GapD=    0.084 DampG=0.500 DampE=0.500 DampFc=0.2500 IDamp=-1.
 Damping current iteration by 2.50D-01
 RMSDP=6.56D-03 MaxDP=3.85D-01              OVMax= 2.45D-01

 Cycle   2  Pass 1  IDiag  1:
 RMSU=  1.61D-03    CP:  9.81D-01
 E= -188.875456935738     Delta-E=       -0.038771367314 Rises=F Damp=T
 DIIS: error= 1.72D-02 at cycle   2 NSaved=   2.
 NSaved= 2 IEnMin= 2 EnMin= -188.875456935738     IErMin= 2 ErrMin= 1.72D-02
 ErrMax= 1.72D-02  0.00D+00 EMaxC= 1.00D-01 BMatC= 1.16D-01 BMatP= 3.25D-01
 IDIUse=3 WtCom= 8.28D-01 WtEn= 1.72D-01
 Coeff-Com: -0.915D+00 0.191D+01
 Coeff-En:   0.000D+00 0.100D+01
 Coeff:     -0.757D+00 0.176D+01
 Gap=     0.155 Goal=   None    Shift=    0.000
 Gap=     0.206 Goal=   None    Shift=    0.000
 RMSDP=5.00D-03 MaxDP=4.34D-01 DE=-3.88D-02 OVMax= 1.13D-01

 Cycle   3  Pass 1  IDiag  1:
 RMSU=  2.63D-03    CP:  9.06D-01  3.00D+00
 E= -188.956338803538     Delta-E=       -0.080881867800 Rises=F Damp=F
 DIIS: error= 7.81D-03 at cycle   3 NSaved=   3.
 NSaved= 3 IEnMin= 3 EnMin= -188.956338803538     IErMin= 3 ErrMin= 7.81D-03
 ErrMax= 7.81D-03  0.00D+00 EMaxC= 1.00D-01 BMatC= 2.14D-02 BMatP= 1.16D-01
 IDIUse=3 WtCom= 9.22D-01 WtEn= 7.81D-02
 Coeff-Com: -0.393D+00 0.727D+00 0.666D+00
 Coeff-En:   0.000D+00 0.000D+00 0.100D+01
 Coeff:     -0.362D+00 0.670D+00 0.692D+00
 Gap=     0.150 Goal=   None    Shift=    0.000
 Gap=     0.177 Goal=   None    Shift=    0.000
 RMSDP=1.24D-03 MaxDP=1.23D-01 DE=-8.09D-02 OVMax= 8.60D-02

 Cycle   4  Pass 1  IDiag  1:
 RMSU=  1.12D-03    CP:  9.35D-01  3.00D+00  9.01D-01
 E= -188.958073029026     Delta-E=       -0.001734225488 Rises=F Damp=F
 DIIS: error= 9.21D-03 at cycle   4 NSaved=   4.
 NSaved= 4 IEnMin= 4 EnMin= -188.958073029026     IErMin= 3 ErrMin= 7.81D-03
 ErrMax= 9.21D-03  0.00D+00 EMaxC= 1.00D-01 BMatC= 1.81D-02 BMatP= 2.14D-02
 IDIUse=3 WtCom= 9.08D-01 WtEn= 9.21D-02
 Coeff-Com: -0.872D-01 0.160D+00 0.471D+00 0.456D+00
 Coeff-En:   0.000D+00 0.000D+00 0.436D+00 0.564D+00
 Coeff:     -0.792D-01 0.146D+00 0.468D+00 0.466D+00
 Gap=     0.150 Goal=   None    Shift=    0.000
 Gap=     0.181 Goal=   None    Shift=    0.000
 RMSDP=6.59D-04 MaxDP=3.04D-02 DE=-1.73D-03 OVMax= 4.15D-02

 Cycle   5  Pass 1  IDiag  1:
 RMSU=  3.75D-04    CP:  9.31D-01  3.00D+00  1.05D+00  6.64D-01
 E= -188.963086395049     Delta-E=       -0.005013366023 Rises=F Damp=F
 DIIS: error= 2.14D-03 at cycle   5 NSaved=   5.
 NSaved= 5 IEnMin= 5 EnMin= -188.963086395049     IErMin= 5 ErrMin= 2.14D-03
 ErrMax= 2.14D-03  0.00D+00 EMaxC= 1.00D-01 BMatC= 1.79D-03 BMatP= 1.81D-02
 IDIUse=3 WtCom= 9.79D-01 WtEn= 2.14D-02
 Coeff-Com:  0.328D-01-0.551D-01 0.154D+00 0.275D+00 0.594D+00
 Coeff-En:   0.000D+00 0.000D+00 0.000D+00 0.267D-01 0.973D+00
 Coeff:      0.321D-01-0.539D-01 0.151D+00 0.269D+00 0.602D+00
 Gap=     0.153 Goal=   None    Shift=    0.000
 Gap=     0.179 Goal=   None    Shift=    0.000
 RMSDP=2.25D-04 MaxDP=1.83D-02 DE=-5.01D-03 OVMax= 1.17D-02

 Cycle   6  Pass 1  IDiag  1:
 RMSU=  1.54D-04    CP:  9.24D-01  3.00D+00  1.06D+00  7.33D-01  7.42D-01
 E= -188.963656987654     Delta-E=       -0.000570592604 Rises=F Damp=F
 DIIS: error= 4.92D-04 at cycle   6 NSaved=   6.
 NSaved= 6 IEnMin= 6 EnMin= -188.963656987654     IErMin= 6 ErrMin= 4.92D-04
 ErrMax= 4.92D-04  0.00D+00 EMaxC= 1.00D-01 BMatC= 9.57D-05 BMatP= 1.79D-03
 IDIUse=3 WtCom= 9.95D-01 WtEn= 4.92D-03
 Coeff-Com:  0.778D-02-0.154D-01-0.248D-01-0.192D-01 0.119D+00 0.933D+00
 Coeff-En:   0.000D+00 0.000D+00 0.000D+00 0.000D+00 0.000D+00 0.100D+01
 Coeff:      0.774D-02-0.153D-01-0.247D-01-0.191D-01 0.118D+00 0.933D+00
 Gap=     0.153 Goal=   None    Shift=    0.000
 Gap=     0.180 Goal=   None    Shift=    0.000
 RMSDP=9.62D-05 MaxDP=5.76D-03 DE=-5.71D-04 OVMax= 1.12D-02

 Cycle   7  Pass 1  IDiag  1:
 RMSU=  5.94D-05    CP:  9.23D-01  3.00D+00  1.06D+00  7.49D-01  8.77D-01
                    CP:  1.31D+00
 E= -188.963731526977     Delta-E=       -0.000074539324 Rises=F Damp=F
 DIIS: error= 4.07D-04 at cycle   7 NSaved=   7.
 NSaved= 7 IEnMin= 7 EnMin= -188.963731526977     IErMin= 7 ErrMin= 4.07D-04
 ErrMax= 4.07D-04  0.00D+00 EMaxC= 1.00D-01 BMatC= 4.49D-05 BMatP= 9.57D-05
 IDIUse=3 WtCom= 9.96D-01 WtEn= 4.07D-03
 Coeff-Com:  0.178D-02-0.430D-02-0.323D-01-0.437D-01-0.182D-01 0.477D+00
 Coeff-Com:  0.620D+00
 Coeff-En:   0.000D+00 0.000D+00 0.000D+00 0.000D+00 0.000D+00 0.000D+00
 Coeff-En:   0.100D+01
 Coeff:      0.177D-02-0.428D-02-0.322D-01-0.435D-01-0.181D-01 0.475D+00
 Coeff:      0.622D+00
 Gap=     0.154 Goal=   None    Shift=    0.000
 Gap=     0.180 Goal=   None    Shift=    0.000
 RMSDP=4.74D-05 MaxDP=5.06D-03 DE=-7.45D-05 OVMax= 5.86D-03

 Cycle   8  Pass 1  IDiag  1:
 RMSU=  2.92D-05    CP:  9.22D-01  3.00D+00  1.06D+00  7.50D-01  8.95D-01
                    CP:  1.52D+00  8.71D-01
 E= -188.963750048587     Delta-E=       -0.000018521609 Rises=F Damp=F
 DIIS: error= 2.83D-04 at cycle   8 NSaved=   8.
 NSaved= 8 IEnMin= 8 EnMin= -188.963750048587     IErMin= 8 ErrMin= 2.83D-04
 ErrMax= 2.83D-04  0.00D+00 EMaxC= 1.00D-01 BMatC= 2.98D-05 BMatP= 4.49D-05
 IDIUse=3 WtCom= 9.97D-01 WtEn= 2.83D-03
 Coeff-Com: -0.203D-02 0.417D-02-0.124D-01-0.242D-01-0.701D-01-0.541D-01
 Coeff-Com:  0.518D+00 0.640D+00
 Coeff-En:   0.000D+00 0.000D+00 0.000D+00 0.000D+00 0.000D+00 0.000D+00
 Coeff-En:   0.000D+00 0.100D+01
 Coeff:     -0.202D-02 0.416D-02-0.124D-01-0.242D-01-0.699D-01-0.540D-01
 Coeff:      0.517D+00 0.641D+00
 Gap=     0.154 Goal=   None    Shift=    0.000
 Gap=     0.180 Goal=   None    Shift=    0.000
 RMSDP=3.32D-05 MaxDP=2.14D-03 DE=-1.85D-05 OVMax= 3.03D-03

 Cycle   9  Pass 1  IDiag  1:
 RMSU=  1.80D-05    CP:  9.22D-01  3.00D+00  1.06D+00  7.60D-01  9.07D-01
                    CP:  1.62D+00  1.20D+00  8.31D-01
 E= -188.963761911954     Delta-E=       -0.000011863368 Rises=F Damp=F
 DIIS: error= 1.02D-04 at cycle   9 NSaved=   9.
 NSaved= 9 IEnMin= 9 EnMin= -188.963761911954     IErMin= 9 ErrMin= 1.02D-04
 ErrMax= 1.02D-04  0.00D+00 EMaxC= 1.00D-01 BMatC= 6.41D-06 BMatP= 2.98D-05
 IDIUse=3 WtCom= 9.99D-01 WtEn= 1.02D-03
 Coeff-Com: -0.128D-02 0.310D-02-0.177D-02-0.695D-02-0.450D-01-0.148D+00
 Coeff-Com:  0.265D+00 0.437D+00 0.498D+00
 Coeff-En:   0.000D+00 0.000D+00 0.000D+00 0.000D+00 0.000D+00 0.000D+00
 Coeff-En:   0.000D+00 0.000D+00 0.100D+01
 Coeff:     -0.128D-02 0.310D-02-0.176D-02-0.694D-02-0.450D-01-0.148D+00
 Coeff:      0.265D+00 0.436D+00 0.499D+00
 Gap=     0.154 Goal=   None    Shift=    0.000
 Gap=     0.180 Goal=   None    Shift=    0.000
 RMSDP=1.29D-05 MaxDP=5.93D-04 DE=-1.19D-05 OVMax= 9.90D-04

 Cycle  10  Pass 1  IDiag  1:
 RMSU=  9.55D-06    CP:  9.22D-01  3.00D+00  1.06D+00  7.62D-01  9.17D-01
                    CP:  1.64D+00  1.27D+00  9.82D-01  9.32D-01
 E= -188.963764233508     Delta-E=       -0.000002321554 Rises=F Damp=F
 DIIS: error= 4.33D-05 at cycle  10 NSaved=  10.
 NSaved=10 IEnMin=10 EnMin= -188.963764233508     IErMin=10 ErrMin= 4.33D-05
 ErrMax= 4.33D-05  0.00D+00 EMaxC= 1.00D-01 BMatC= 6.67D-07 BMatP= 6.41D-06
 IDIUse=1 WtCom= 1.00D+00 WtEn= 0.00D+00
 Coeff-Com:  0.883D-03-0.122D-02 0.518D-02 0.967D-02 0.156D-01-0.488D-01
 Coeff-Com: -0.887D-01-0.116D+00 0.192D+00 0.103D+01
 Coeff:      0.883D-03-0.122D-02 0.518D-02 0.967D-02 0.156D-01-0.488D-01
 Coeff:     -0.887D-01-0.116D+00 0.192D+00 0.103D+01
 Gap=     0.154 Goal=   None    Shift=    0.000
 Gap=     0.180 Goal=   None    Shift=    0.000
 RMSDP=1.05D-05 MaxDP=6.22D-04 DE=-2.32D-06 OVMax= 1.26D-03

 Cycle  11  Pass 1  IDiag  1:
 RMSU=  5.23D-06    CP:  9.22D-01  3.00D+00  1.06D+00  7.65D-01  9.18D-01
                    CP:  1.65D+00  1.32D+00  1.07D+00  1.27D+00  1.29D+00
 E= -188.963764946895     Delta-E=       -0.000000713386 Rises=F Damp=F
 DIIS: error= 1.59D-05 at cycle  11 NSaved=  11.
 NSaved=11 IEnMin=11 EnMin= -188.963764946895     IErMin=11 ErrMin= 1.59D-05
 ErrMax= 1.59D-05  0.00D+00 EMaxC= 1.00D-01 BMatC= 8.54D-08 BMatP= 6.67D-07
 IDIUse=1 WtCom= 1.00D+00 WtEn= 0.00D+00
 Coeff-Com: -0.270D-03 0.291D-03-0.979D-03-0.127D-02-0.739D-03 0.220D-01
 Coeff-Com:  0.127D-01-0.236D-01-0.138D+00-0.166D+00 0.130D+01
 Coeff:     -0.270D-03 0.291D-03-0.979D-03-0.127D-02-0.739D-03 0.220D-01
 Coeff:      0.127D-01-0.236D-01-0.138D+00-0.166D+00 0.130D+01
 Gap=     0.154 Goal=   None    Shift=    0.000
 Gap=     0.180 Goal=   None    Shift=    0.000
 RMSDP=5.27D-06 MaxDP=2.57D-04 DE=-7.13D-07 OVMax= 3.39D-04

 Cycle  12  Pass 1  IDiag  1:
 RMSU=  2.00D-06    CP:  9.22D-01  3.00D+00  1.06D+00  7.66D-01  9.16D-01
                    CP:  1.65D+00  1.33D+00  1.09D+00  1.38D+00  1.52D+00
                    CP:  1.55D+00
 E= -188.963765080454     Delta-E=       -0.000000133560 Rises=F Damp=F
 DIIS: error= 6.38D-06 at cycle  12 NSaved=  12.
 NSaved=12 IEnMin=12 EnMin= -188.963765080454     IErMin=12 ErrMin= 6.38D-06
 ErrMax= 6.38D-06  0.00D+00 EMaxC= 1.00D-01 BMatC= 1.45D-08 BMatP= 8.54D-08
 IDIUse=1 WtCom= 1.00D+00 WtEn= 0.00D+00
 Coeff-Com:  0.262D-04-0.185D-04-0.718D-03-0.163D-02-0.286D-02-0.713D-03
 Coeff-Com:  0.155D-01 0.375D-01 0.207D-03-0.120D+00-0.595D+00 0.167D+01
 Coeff:      0.262D-04-0.185D-04-0.718D-03-0.163D-02-0.286D-02-0.713D-03
 Coeff:      0.155D-01 0.375D-01 0.207D-03-0.120D+00-0.595D+00 0.167D+01
 Gap=     0.154 Goal=   None    Shift=    0.000
 Gap=     0.180 Goal=   None    Shift=    0.000
 RMSDP=3.94D-06 MaxDP=1.96D-04 DE=-1.34D-07 OVMax= 2.78D-04

 Cycle  13  Pass 1  IDiag  1:
 RMSU=  6.89D-07    CP:  9.22D-01  3.00D+00  1.06D+00  7.66D-01  9.15D-01
                    CP:  1.65D+00  1.32D+00  1.12D+00  1.45D+00  1.66D+00
                    CP:  2.01D+00  1.98D+00
 E= -188.963765120548     Delta-E=       -0.000000040094 Rises=F Damp=F
 DIIS: error= 1.68D-06 at cycle  13 NSaved=  13.
 NSaved=13 IEnMin=13 EnMin= -188.963765120548     IErMin=13 ErrMin= 1.68D-06
 ErrMax= 1.68D-06  0.00D+00 EMaxC= 1.00D-01 BMatC= 1.46D-09 BMatP= 1.45D-08
 IDIUse=1 WtCom= 1.00D+00 WtEn= 0.00D+00
 Coeff-Com:  0.658D-04-0.781D-04 0.154D-03 0.324D-03 0.196D-03-0.371D-02
 Coeff-Com: -0.200D-02 0.110D-02 0.243D-01 0.264D-01-0.152D+00-0.114D+00
 Coeff-Com:  0.122D+01
 Coeff:      0.658D-04-0.781D-04 0.154D-03 0.324D-03 0.196D-03-0.371D-02
 Coeff:     -0.200D-02 0.110D-02 0.243D-01 0.264D-01-0.152D+00-0.114D+00
 Coeff:      0.122D+01
 Gap=     0.154 Goal=   None    Shift=    0.000
 Gap=     0.180 Goal=   None    Shift=    0.000
 RMSDP=1.29D-06 MaxDP=6.44D-05 DE=-4.01D-08 OVMax= 9.54D-05

 Cycle  14  Pass 1  IDiag  1:
 RMSU=  2.06D-07    CP:  9.22D-01  3.00D+00  1.06D+00  7.67D-01  9.15D-01
                    CP:  1.65D+00  1.32D+00  1.13D+00  1.47D+00  1.69D+00
                    CP:  2.15D+00  2.32D+00  1.39D+00
 E= -188.963765123995     Delta-E=       -0.000000003446 Rises=F Damp=F
 DIIS: error= 4.67D-07 at cycle  14 NSaved=  14.
 NSaved=14 IEnMin=14 EnMin= -188.963765123995     IErMin=14 ErrMin= 4.67D-07
 ErrMax= 4.67D-07  0.00D+00 EMaxC= 1.00D-01 BMatC= 1.73D-10 BMatP= 1.46D-09
 IDIUse=1 WtCom= 1.00D+00 WtEn= 0.00D+00
 Coeff-Com: -0.160D-04 0.174D-04 0.569D-04 0.131D-03 0.344D-03 0.460D-03
 Coeff-Com: -0.152D-02-0.380D-02-0.113D-02 0.725D-02 0.854D-01-0.190D+00
 Coeff-Com: -0.947D-01 0.120D+01
 Coeff:     -0.160D-04 0.174D-04 0.569D-04 0.131D-03 0.344D-03 0.460D-03
 Coeff:     -0.152D-02-0.380D-02-0.113D-02 0.725D-02 0.854D-01-0.190D+00
 Coeff:     -0.947D-01 0.120D+01
 Gap=     0.154 Goal=   None    Shift=    0.000
 Gap=     0.180 Goal=   None    Shift=    0.000
 RMSDP=3.49D-07 MaxDP=1.91D-05 DE=-3.45D-09 OVMax= 2.57D-05

 Cycle  15  Pass 1  IDiag  1:
 RMSU=  6.19D-08    CP:  9.22D-01  3.00D+00  1.06D+00  7.67D-01  9.15D-01
                    CP:  1.65D+00  1.32D+00  1.13D+00  1.48D+00  1.69D+00
                    CP:  2.19D+00  2.40D+00  1.54D+00  1.38D+00
 E= -188.963765124299     Delta-E=       -0.000000000305 Rises=F Damp=F
 DIIS: error= 1.75D-07 at cycle  15 NSaved=  15.
 NSaved=15 IEnMin=15 EnMin= -188.963765124299     IErMin=15 ErrMin= 1.75D-07
 ErrMax= 1.75D-07  0.00D+00 EMaxC= 1.00D-01 BMatC= 2.24D-11 BMatP= 1.73D-10
 IDIUse=1 WtCom= 1.00D+00 WtEn= 0.00D+00
 Coeff-Com: -0.930D-05 0.120D-04-0.238D-04-0.621D-04-0.584D-04 0.404D-03
 Coeff-Com:  0.239D-03 0.533D-03-0.225D-02-0.486D-02 0.107D-01 0.296D-01
 Coeff-Com: -0.125D+00-0.119D+00 0.121D+01
 Coeff:     -0.930D-05 0.120D-04-0.238D-04-0.621D-04-0.584D-04 0.404D-03
 Coeff:      0.239D-03 0.533D-03-0.225D-02-0.486D-02 0.107D-01 0.296D-01
 Coeff:     -0.125D+00-0.119D+00 0.121D+01
 Gap=     0.154 Goal=   None    Shift=    0.000
 Gap=     0.180 Goal=   None    Shift=    0.000
 RMSDP=8.71D-08 MaxDP=6.01D-06 DE=-3.05D-10 OVMax= 6.57D-06

 Cycle  16  Pass 1  IDiag  1:
 RMSU=  2.31D-08    CP:  9.22D-01  3.00D+00  1.06D+00  7.67D-01  9.15D-01
                    CP:  1.65D+00  1.32D+00  1.13D+00  1.48D+00  1.69D+00
                    CP:  2.20D+00  2.42D+00  1.57D+00  1.51D+00  1.46D+00
 E= -188.963765124334     Delta-E=       -0.000000000034 Rises=F Damp=F
 DIIS: error= 5.11D-08 at cycle  16 NSaved=  16.
 NSaved=16 IEnMin=16 EnMin= -188.963765124334     IErMin=16 ErrMin= 5.11D-08
 ErrMax= 5.11D-08  0.00D+00 EMaxC= 1.00D-01 BMatC= 2.12D-12 BMatP= 2.24D-11
 IDIUse=1 WtCom= 1.00D+00 WtEn= 0.00D+00
 Coeff-Com:  0.477D-05-0.612D-05-0.392D-05-0.127D-04-0.327D-04-0.795D-04
 Coeff-Com:  0.957D-04 0.418D-03 0.395D-03-0.551D-03-0.989D-02 0.175D-01
 Coeff-Com:  0.199D-01-0.122D+00-0.109D+00 0.120D+01
 Coeff:      0.477D-05-0.612D-05-0.392D-05-0.127D-04-0.327D-04-0.795D-04
 Coeff:      0.957D-04 0.418D-03 0.395D-03-0.551D-03-0.989D-02 0.175D-01
 Coeff:      0.199D-01-0.122D+00-0.109D+00 0.120D+01
 Gap=     0.154 Goal=   None    Shift=    0.000
 Gap=     0.180 Goal=   None    Shift=    0.000
 RMSDP=2.57D-08 MaxDP=1.76D-06 DE=-3.43D-11 OVMax= 1.80D-06

 Cycle  17  Pass 1  IDiag  1:
 RMSU=  7.13D-09    CP:  9.22D-01  3.00D+00  1.06D+00  7.67D-01  9.15D-01
                    CP:  1.65D+00  1.32D+00  1.13D+00  1.48D+00  1.69D+00
                    CP:  2.20D+00  2.42D+00  1.57D+00  1.53D+00  1.61D+00
                    CP:  1.33D+00
 E= -188.963765124335     Delta-E=       -0.000000000001 Rises=F Damp=F
 DIIS: error= 1.15D-08 at cycle  17 NSaved=  17.
 NSaved=17 IEnMin=17 EnMin= -188.963765124335     IErMin=17 ErrMin= 1.15D-08
 ErrMax= 1.15D-08  0.00D+00 EMaxC= 1.00D-01 BMatC= 6.08D-14 BMatP= 2.12D-12
 IDIUse=1 WtCom= 1.00D+00 WtEn= 0.00D+00
 Coeff-Com:  0.226D-06-0.234D-06 0.152D-05 0.401D-05 0.385D-05-0.179D-04
 Coeff-Com: -0.526D-05-0.355D-04 0.862D-04 0.197D-03 0.686D-04-0.246D-02
 Coeff-Com:  0.568D-02 0.132D-01-0.564D-01-0.955D-01 0.114D+01
 Coeff:      0.226D-06-0.234D-06 0.152D-05 0.401D-05 0.385D-05-0.179D-04
 Coeff:     -0.526D-05-0.355D-04 0.862D-04 0.197D-03 0.686D-04-0.246D-02
 Coeff:      0.568D-02 0.132D-01-0.564D-01-0.955D-01 0.114D+01
 Gap=     0.154 Goal=   None    Shift=    0.000
 Gap=     0.180 Goal=   None    Shift=    0.000
 RMSDP=3.12D-09 MaxDP=1.73D-07 DE=-1.48D-12 OVMax= 2.25D-07

 SCF Done:  E(UB3LYP) =  -188.963765124     A.U. after   17 cycles
            NFock= 17  Conv=0.31D-08     -V/T= 2.0040
 <Sx>= 0.0000 <Sy>= 0.0000 <Sz>= 1.0000 <S**2>= 2.0161 S= 1.0054
 <L.S>= 0.000000000000E+00
 KE= 1.882090441621D+02 PE=-6.535817081454D+02 EE= 1.566217345750D+02
 Annihilation of the first spin contaminant:
 S**2 before annihilation     2.0161,   after     2.0001
 Leave Link  502 at Mon Jun 20 15:11:57 2016, MaxMem=    33554432 cpu:       510.5
 (Enter /home/proyectos/fulerenos/M3C-v1.9/M3C-deps_CCC/g09-AM64L-G09RevC.01/l801.exe)
 DoSCS=F DFT=T ScalE2(SS,OS)=  1.000000  1.000000
 Range of M.O.s used for correlation:     1   205
 NBasis=   205 NAE=    15 NBE=    13 NFC=     0 NFV=     0
 NROrb=    205 NOA=    15 NOB=    13 NVA=   190 NVB=   192

 **** Warning!!: The largest alpha MO coefficient is  0.98320365D+02


 **** Warning!!: The largest beta MO coefficient is  0.97338728D+02

 Leave Link  801 at Mon Jun 20 15:11:57 2016, MaxMem=    33554432 cpu:         0.1
 (Enter /home/proyectos/fulerenos/M3C-v1.9/M3C-deps_CCC/g09-AM64L-G09RevC.01/l1101.exe)
 Using compressed storage, NAtomX=     6.
 Will process      7 centers per pass.
 Leave Link 1101 at Mon Jun 20 15:11:57 2016, MaxMem=    33554432 cpu:         1.1
 (Enter /home/proyectos/fulerenos/M3C-v1.9/M3C-deps_CCC/g09-AM64L-G09RevC.01/l1102.exe)
 Symmetrizing basis deriv contribution to polar:
 IMax=3 JMax=2 DiffMx= 0.00D+00
 Leave Link 1102 at Mon Jun 20 15:11:57 2016, MaxMem=    33554432 cpu:         0.1
 (Enter /home/proyectos/fulerenos/M3C-v1.9/M3C-deps_CCC/g09-AM64L-G09RevC.01/l1110.exe)
 Forming Gx(P) for the SCF density, NAtomX=     6.
 Integral derivatives from FoFJK, PRISM(SPDF).
 Do as many integral derivatives as possible in FoFJK.
 G2DrvN: MDV=      33554280.
 G2DrvN: will do     7 centers at a time, making    1 passes.
 Calling FoFCou, ICntrl=  3107 FMM=F I1Cent=   0 AccDes= 0.00D+00.
 FoFJK:  IHMeth= 1 ICntrl=    3107 DoSepK=F KAlg= 0 I1Cent=   0 FoldK=F
 IRaf=         0 NMat=   1 IRICut=       1 DoRegI=T DoRafI=F ISym2E= 1.
 FoFCou: FMM=F IPFlag=           0 FMFlag=      100000 FMFlg1=           0
         NFxFlg=           0 DoJE=F BraDBF=F KetDBF=F FulRan=T
         wScrn=  0.000000 ICntrl=    3107 IOpCl=  1 I1Cent=           0 NGrid=           0
         NMat0=    1 NMatS0=      1 NMatT0=    0 NMatD0=    1 NMtDS0=    0 NMtDT0=    0
 Petite list used in FoFCou.
 End of G2Drv F.D. properties file   721 does not exist.
 End of G2Drv F.D. properties file   722 does not exist.
 End of G2Drv F.D. properties file   788 does not exist.
 Leave Link 1110 at Mon Jun 20 15:12:52 2016, MaxMem=    33554432 cpu:       221.0
 (Enter /home/proyectos/fulerenos/M3C-v1.9/M3C-deps_CCC/g09-AM64L-G09RevC.01/l1002.exe)
 Minotr:  UHF open shell wavefunction.
          IDoAtm=111111
          Direct CPHF calculation.
          Differentiating once with respect to electric field.
                with respect to dipole field.
          Differentiating once with respect to nuclear coordinates.
          Using symmetry in CPHF.
          Requested convergence is 1.0D-08 RMS, and 1.0D-07 maximum.
          Secondary convergence is 1.0D-12 RMS, and 1.0D-12 maximum.
          NewPWx=T KeepS1=F KeepF1=F KeepIn=T MapXYZ=F SortEE=F KeepMc=T.
          MDV=      33553958 using IRadAn=       2.
 Generate precomputed XC quadrature information.
          Solving linear equations simultaneously, MaxMat=       0.
 FoFJK:  IHMeth= 1 ICntrl=       0 DoSepK=F KAlg= 0 I1Cent=   0 FoldK=F
 IRaf= 990000000 NMat=  21 IRICut=      52 DoRegI=T DoRafI=T ISym2E= 2.
 FoFCou: FMM=F IPFlag=           0 FMFlag=      100000 FMFlg1=           0
         NFxFlg=           0 DoJE=F BraDBF=F KetDBF=F FulRan=T
         wScrn=  0.000000 ICntrl=       0 IOpCl=  1 I1Cent=           0 NGrid=           0
         NMat0=   21 NMatS0=     21 NMatT0=    0 NMatD0=   21 NMtDS0=    0 NMtDT0=    0
 Integrals replicated using symmetry in FoFCou.
          There are    21 degrees of freedom in the 1st order CPHF.  IDoFFX=6 NUNeed=     3.
     18 vectors produced by pass  0 Test12= 2.55D-14 4.76D-09 XBig12= 1.63D+02 6.02D+00.
 AX will form    18 AO Fock derivatives at one time.
     18 vectors produced by pass  1 Test12= 2.55D-14 4.76D-09 XBig12= 4.25D+01 1.29D+00.
     18 vectors produced by pass  2 Test12= 2.55D-14 4.76D-09 XBig12= 1.03D+00 2.37D-01.
     18 vectors produced by pass  3 Test12= 2.55D-14 4.76D-09 XBig12= 2.46D-02 3.52D-02.
     18 vectors produced by pass  4 Test12= 2.55D-14 4.76D-09 XBig12= 1.94D-04 3.32D-03.
     18 vectors produced by pass  5 Test12= 2.55D-14 4.76D-09 XBig12= 1.79D-06 2.30D-04.
     18 vectors produced by pass  6 Test12= 2.55D-14 4.76D-09 XBig12= 1.69D-08 2.76D-05.
     16 vectors produced by pass  7 Test12= 2.55D-14 4.76D-09 XBig12= 9.52D-11 1.32D-06.
      3 vectors produced by pass  8 Test12= 2.55D-14 4.76D-09 XBig12= 3.49D-13 8.46D-08.
      3 vectors produced by pass  9 Test12= 2.55D-14 4.76D-09 XBig12= 3.22D-14 2.95D-08.
      1 vectors produced by pass 10 Test12= 2.55D-14 4.76D-09 XBig12= 5.17D-16 4.95D-09.
 InvSVY:  IOpt=1 It=  1 EMax= 5.33D-15
 Solved reduced A of dimension   149 with    21 vectors.
 FullF1:  Do perturbations    1 to     3.
 Isotropic polarizability for W=    0.000000       31.64 Bohr**3.
 End of Minotr F.D. properties file   721 does not exist.
 End of Minotr F.D. properties file   722 does not exist.
 End of Minotr F.D. properties file   788 does not exist.
 Leave Link 1002 at Mon Jun 20 15:15:49 2016, MaxMem=    33554432 cpu:       707.7
 (Enter /home/proyectos/fulerenos/M3C-v1.9/M3C-deps_CCC/g09-AM64L-G09RevC.01/l601.exe)
 Copying SCF densities to generalized density rwf, IOpCl= 1 IROHF=0.

 **********************************************************************

            Population analysis using the SCF density.

 **********************************************************************

 Orbital symmetries:
 Alpha Orbitals:
       Occupied  (A') (A') (A') (A') (A') (A') (A') (A') (A') (A')
                 (A") (A') (A') (A') (A")
       Virtual   (A") (A') (A") (A') (A") (A') (A') (A') (A') (A')
                 (A") (A') (A') (A') (A') (A") (A') (A") (A') (A')
                 (A") (A") (A") (A') (A') (A') (A') (A') (A") (A')
                 (A') (A") (A') (A') (A') (A') (A") (A') (A") (A')
                 (A') (A") (A') (A') (A") (A') (A') (A") (A') (A')
                 (A") (A') (A') (A') (A") (A') (A") (A") (A') (A')
                 (A') (A") (A') (A") (A') (A") (A') (A') (A') (A')
                 (A') (A') (A") (A') (A") (A') (A') (A") (A') (A')
                 (A") (A') (A') (A') (A") (A') (A') (A") (A') (A')
                 (A') (A") (A') (A") (A") (A') (A') (A') (A") (A')
                 (A') (A") (A') (A') (A') (A") (A") (A') (A") (A")
                 (A') (A") (A") (A') (A') (A") (A') (A") (A') (A")
                 (A") (A') (A') (A') (A') (A') (A") (A') (A') (A')
                 (A') (A") (A') (A") (A') (A") (A') (A') (A') (A")
                 (A") (A') (A') (A') (A') (A") (A') (A') (A") (A')
                 (A") (A') (A") (A") (A') (A') (A') (A') (A') (A')
                 (A") (A") (A") (A') (A') (A") (A') (A") (A') (A')
                 (A") (A") (A') (A") (A') (A") (A') (A") (A') (A')
                 (A') (A') (A') (A') (A') (A') (A') (A') (A') (A')
 Beta  Orbitals:
       Occupied  (A') (A') (A') (A') (A') (A') (A') (A') (A') (A')
                 (A') (A") (A')
       Virtual   (A") (A") (A') (A') (A") (A') (A") (A') (A') (A')
                 (A') (A') (A") (A') (A') (A') (A') (A") (A') (A")
                 (A') (A') (A") (A") (A") (A') (A') (A') (A') (A')
                 (A') (A") (A') (A") (A') (A') (A') (A') (A') (A")
                 (A') (A") (A') (A") (A') (A') (A') (A") (A') (A")
                 (A') (A') (A") (A') (A') (A') (A") (A") (A') (A")
                 (A') (A') (A') (A") (A') (A") (A') (A") (A') (A')
                 (A') (A') (A') (A') (A") (A') (A') (A") (A') (A")
                 (A') (A') (A") (A') (A') (A') (A') (A") (A') (A")
                 (A') (A') (A') (A") (A') (A") (A") (A') (A') (A')
                 (A") (A') (A') (A") (A') (A') (A') (A") (A') (A")
                 (A") (A") (A') (A") (A') (A") (A') (A") (A') (A")
                 (A') (A") (A") (A') (A') (A') (A') (A') (A") (A')
                 (A') (A') (A') (A") (A') (A") (A') (A') (A") (A')
                 (A') (A") (A") (A') (A') (A') (A') (A") (A') (A')
                 (A") (A') (A") (A') (A") (A') (A") (A') (A') (A')
                 (A') (A') (A") (A") (A") (A') (A') (A") (A') (A')
                 (A") (A') (A") (A") (A') (A') (A") (A") (A') (A")
                 (A') (A') (A') (A') (A') (A') (A') (A') (A') (A')
                 (A') (A')
 The electronic state is 3-A".
 Alpha  occ. eigenvalues --  -11.18742 -11.17763 -11.17669 -11.17615 -11.13931
 Alpha  occ. eigenvalues --   -1.88065  -1.68179  -1.51946  -1.37395  -1.30340
 Alpha  occ. eigenvalues --   -1.29232  -1.29047  -1.22694  -1.12649  -1.12096
 Alpha virt. eigenvalues --   -0.96702  -0.92608  -0.84424  -0.79050  -0.77210
 Alpha virt. eigenvalues --   -0.70454  -0.59887  -0.56452  -0.54132  -0.49512
 Alpha virt. eigenvalues --   -0.46898  -0.44659  -0.43333  -0.42534  -0.41606
 Alpha virt. eigenvalues --   -0.39185  -0.39077  -0.38132  -0.35549  -0.34723
 Alpha virt. eigenvalues --   -0.32000  -0.31208  -0.30444  -0.29702  -0.28704
 Alpha virt. eigenvalues --   -0.27519  -0.25056  -0.24540  -0.23393  -0.23080
 Alpha virt. eigenvalues --   -0.22473  -0.21037  -0.19859  -0.19693  -0.16860
 Alpha virt. eigenvalues --   -0.15790  -0.15113  -0.15009  -0.13611  -0.12885
 Alpha virt. eigenvalues --   -0.12316  -0.11833  -0.11218  -0.08937  -0.08858
 Alpha virt. eigenvalues --   -0.07577  -0.07163  -0.07115  -0.05100  -0.03783
 Alpha virt. eigenvalues --   -0.03219  -0.01577   0.00135   0.02900   0.03530
 Alpha virt. eigenvalues --    0.04400   0.04692   0.08591   0.09031   0.10458
 Alpha virt. eigenvalues --    0.14559   0.15906   0.16753   0.21306   0.21808
 Alpha virt. eigenvalues --    0.23357   0.27020   0.28148   0.28864   0.36298
 Alpha virt. eigenvalues --    0.40166   0.42731   0.42854   0.48126   0.51591
 Alpha virt. eigenvalues --    0.52448   0.56863   0.58262   0.58503   0.59889
 Alpha virt. eigenvalues --    0.60482   0.65358   0.67737   0.69391   0.70874
 Alpha virt. eigenvalues --    0.70916   0.76003   0.82259   0.87834   0.91025
 Alpha virt. eigenvalues --    0.93542   0.99484   0.99889   1.04802   1.07389
 Alpha virt. eigenvalues --    1.13134   1.16443   1.20821   1.25325   1.29106
 Alpha virt. eigenvalues --    1.30102   1.36889   1.44494   1.61219   1.67776
 Alpha virt. eigenvalues --    1.70507   1.73718   1.74207   1.79853   1.84753
 Alpha virt. eigenvalues --    1.86636   1.93820   1.94113   1.96198   2.00463
 Alpha virt. eigenvalues --    2.06411   2.06488   2.08128   2.09607   2.11215
 Alpha virt. eigenvalues --    2.12706   2.17862   2.22196   2.27516   2.29057
 Alpha virt. eigenvalues --    2.31264   2.31961   2.34823   2.39968   2.43075
 Alpha virt. eigenvalues --    2.50135   2.51065   2.55488   2.57349   2.75496
 Alpha virt. eigenvalues --    2.78741   2.79560   2.80422   2.90451   2.95170
 Alpha virt. eigenvalues --    2.98892   3.06330   3.09537   3.20316   3.31949
 Alpha virt. eigenvalues --    3.32115   3.37814   3.46458   3.52791   3.70308
 Alpha virt. eigenvalues --    3.72186   3.79557   3.79880   3.89894   3.91129
 Alpha virt. eigenvalues --    4.11168   4.31498   4.55924   5.21689   5.38955
 Alpha virt. eigenvalues --    6.02052   6.09963   6.14826   6.16272   6.20643
 Alpha virt. eigenvalues --    6.22528   6.25869   6.35143   6.37073   6.40519
 Alpha virt. eigenvalues --    6.41814   6.46842   6.49169   6.58717   6.59344
 Alpha virt. eigenvalues --    6.62595   6.83044   6.84804   6.95938   7.14370
 Alpha virt. eigenvalues --    7.27442   7.37996   7.58971   7.63603   7.88126
 Alpha virt. eigenvalues --   22.97306  23.60502  23.91755  24.28180  24.76886
  Beta  occ. eigenvalues --  -11.18722 -11.17511 -11.17014 -11.14753 -11.13343
  Beta  occ. eigenvalues --   -1.86739  -1.65335  -1.50628  -1.35473  -1.29535
  Beta  occ. eigenvalues --   -1.27168  -1.25809  -1.18254
  Beta virt. eigenvalues --   -1.00214  -0.94978  -0.94671  -0.90691  -0.78520
  Beta virt. eigenvalues --   -0.77095  -0.71853  -0.69356  -0.58635  -0.55876
  Beta virt. eigenvalues --   -0.51379  -0.48208  -0.46489  -0.43853  -0.42438
  Beta virt. eigenvalues --   -0.42229  -0.40847  -0.38569  -0.38177  -0.37945
  Beta virt. eigenvalues --   -0.34807  -0.33423  -0.31565  -0.30760  -0.29602
  Beta virt. eigenvalues --   -0.29069  -0.28570  -0.26653  -0.24667  -0.24393
  Beta virt. eigenvalues --   -0.22671  -0.22363  -0.22249  -0.20024  -0.19667
  Beta virt. eigenvalues --   -0.19147  -0.16578  -0.15476  -0.14797  -0.14296
  Beta virt. eigenvalues --   -0.12707  -0.12653  -0.11902  -0.11525  -0.10296
  Beta virt. eigenvalues --   -0.08638  -0.07300  -0.07298  -0.06531  -0.06004
  Beta virt. eigenvalues --   -0.04540  -0.03132  -0.01793  -0.00354   0.00840
  Beta virt. eigenvalues --    0.03495   0.04404   0.04923   0.05103   0.09168
  Beta virt. eigenvalues --    0.09401   0.10835   0.14739   0.16788   0.17216
  Beta virt. eigenvalues --    0.21795   0.22387   0.24281   0.27582   0.28615
  Beta virt. eigenvalues --    0.29527   0.36732   0.40632   0.43281   0.43757
  Beta virt. eigenvalues --    0.49170   0.53048   0.53570   0.57280   0.58858
  Beta virt. eigenvalues --    0.59806   0.61319   0.62315   0.66022   0.69580
  Beta virt. eigenvalues --    0.70398   0.72349   0.73570   0.77519   0.85864
  Beta virt. eigenvalues --    0.89404   0.92359   0.97037   1.00583   1.02496
  Beta virt. eigenvalues --    1.06770   1.10831   1.14572   1.19117   1.24393
  Beta virt. eigenvalues --    1.29008   1.30869   1.33072   1.39912   1.46679
  Beta virt. eigenvalues --    1.63057   1.69555   1.71698   1.75549   1.76489
  Beta virt. eigenvalues --    1.81870   1.86781   1.88001   1.96669   1.97259
  Beta virt. eigenvalues --    1.98072   2.02532   2.06892   2.08062   2.10403
  Beta virt. eigenvalues --    2.11827   2.13971   2.17198   2.19449   2.23975
  Beta virt. eigenvalues --    2.28296   2.31055   2.32557   2.35280   2.36429
  Beta virt. eigenvalues --    2.42856   2.45278   2.52308   2.53613   2.58778
  Beta virt. eigenvalues --    2.59830   2.76912   2.82013   2.82031   2.82581
  Beta virt. eigenvalues --    2.92090   2.96721   2.99646   3.07449   3.11341
  Beta virt. eigenvalues --    3.22161   3.33286   3.34102   3.39127   3.47958
  Beta virt. eigenvalues --    3.55475   3.71597   3.74545   3.79843   3.81719
  Beta virt. eigenvalues --    3.91741   3.91931   4.12895   4.32814   4.56967
  Beta virt. eigenvalues --    5.22325   5.40137   6.03115   6.12998   6.18234
  Beta virt. eigenvalues --    6.20169   6.23995   6.26027   6.28939   6.37378
  Beta virt. eigenvalues --    6.39451   6.44069   6.45737   6.48409   6.51306
  Beta virt. eigenvalues --    6.61169   6.62134   6.64015   6.86872   6.87501
  Beta virt. eigenvalues --    6.97373   7.16662   7.28747   7.38973   7.61235
  Beta virt. eigenvalues --    7.64971   7.88689  22.98449  23.60743  23.93654
  Beta virt. eigenvalues --   24.29522  24.77631
          Condensed to atoms (all electrons):
               1          2          3          4          5          6
     1  H    0.245503   0.357347  -0.050006   0.001269   0.001139  -0.024774
     2  C    0.357347   6.184157  -0.754253   0.138690  -0.357256   0.023544
     3  C   -0.050006  -0.754253   6.732279  -0.603067   0.245577  -0.169149
     4  C    0.001269   0.138690  -0.603067   7.197284  -1.006999  -0.058438
     5  C    0.001139  -0.357256   0.245577  -1.006999   6.615647  -0.337658
     6  C   -0.024774   0.023544  -0.169149  -0.058438  -0.337658   6.213199
          Atomic-Atomic Spin Densities.
               1          2          3          4          5          6
     1  H   -0.006524  -0.003191   0.003049   0.000513  -0.001236   0.001351
     2  C   -0.003191   0.172384   0.118555  -0.046352   0.043775   0.056066
     3  C    0.003049   0.118555   0.221280   0.112531  -0.058044  -0.050607
     4  C    0.000513  -0.046352   0.112531   0.375311  -0.601209   0.222714
     5  C   -0.001236   0.043775  -0.058044  -0.601209   2.351239  -0.448310
     6  C    0.001351   0.056066  -0.050607   0.222714  -0.448310   0.187098
 Mulliken charges and spin densities:
               1          2
     1  H    0.469521  -0.006038
     2  C    0.407772   0.341237
     3  C    0.598618   0.346764
     4  C    0.331262   0.063509
     5  C    0.839550   1.286215
     6  C    0.353276  -0.031687
 Sum of Mulliken charges =   3.00000   2.00000
 Mulliken charges and spin densities with hydrogens summed into heavy atoms:
               1          2
     2  C    0.877293   0.335200
     3  C    0.598618   0.346764
     4  C    0.331262   0.063509
     5  C    0.839550   1.286215
     6  C    0.353276  -0.031687
 APT charges:
               1
     1  H    0.478251
     2  C    0.621455
     3  C    0.490149
     4  C    0.477853
     5  C    0.890119
     6  C    0.042173
 Sum of APT charges =   3.00000
 APT charges with hydrogens summed into heavy atoms:
               1
     2  C    1.099706
     3  C    0.490149
     4  C    0.477853
     5  C    0.890119
     6  C    0.042173
 Electronic spatial extent (au):  <R**2>=            194.8925
 Charge=              3.0000 electrons
 Dipole moment (field-independent basis, Debye):
    X=              1.5004    Y=              0.1405    Z=              0.0000  Tot=              1.5070
 Quadrupole moment (field-independent basis, Debye-Ang):
   XX=              7.4753   YY=            -11.9734   ZZ=            -19.5867
   XY=              0.3547   XZ=              0.0000   YZ=             -0.0000
 Traceless Quadrupole moment (field-independent basis, Debye-Ang):
   XX=             15.5036   YY=             -3.9452   ZZ=            -11.5584
   XY=              0.3547   XZ=              0.0000   YZ=             -0.0000
 Octapole moment (field-independent basis, Debye-Ang**2):
  XXX=             23.6557  YYY=             -3.1177  ZZZ=              0.0000  XYY=             -0.6918
  XXY=              9.9576  XXZ=              0.0000  XZZ=              0.2337  YZZ=              0.0649
  YYZ=             -0.0000  XYZ=              0.0000
 Hexadecapole moment (field-independent basis, Debye-Ang**3):
 XXXX=            -32.4921 YYYY=            -56.1154 ZZZZ=            -16.2660 XXXY=             15.4145
 XXXZ=              0.0000 YYYX=              2.6349 YYYZ=             -0.0000 ZZZX=             -0.0000
 ZZZY=             -0.0000 XXYY=            -25.3169 XXZZ=            -26.7268 YYZZ=            -12.4546
 XXYZ=              0.0000 YYXZ=             -0.0000 ZZXY=              1.1832
 N-N= 1.197871642840D+02 E-N=-6.535817081708D+02  KE= 1.882090441621D+02
 Symmetry A'   KE= 1.845062873539D+02
 Symmetry A"   KE= 3.702756808158D+00
  Exact polarizability:  46.971  -1.595  29.795  -0.000  -0.000  18.148
 Approx polarizability:  98.513  -5.774  74.256   0.000   0.000  28.048
                          Isotropic Fermi Contact Couplings
        Atom                 a.u.       MegaHertz       Gauss      10(-4) cm-1
     1  H(1)              -0.00529     -11.83244      -4.22211      -3.94688
     2  C(13)              0.02818      15.83713       5.65108       5.28270
     3  C(13)              0.02458      13.81873       4.93086       4.60943
     4  C(13)              0.05662      31.82414      11.35564      10.61539
     5  C(13)              1.41409     794.85508     283.62405     265.13512
     6  C(13)              0.12749      71.65936      25.56984      23.90299
 --------------------------------------------------------
       Center         ----  Spin Dipole Couplings  ----
                      3XX-RR        3YY-RR        3ZZ-RR
 --------------------------------------------------------
     1   Atom        0.030323     -0.019559     -0.010764
     2   Atom       -0.237716     -0.274497      0.512213
     3   Atom       -0.132681     -0.060252      0.192934
     4   Atom       -0.008504     -0.092314      0.100818
     5   Atom        0.086468     -0.331812      0.245344
     6   Atom        0.097786      0.024605     -0.122391
 --------------------------------------------------------
                        XY            XZ            YZ
 --------------------------------------------------------
     1   Atom        0.019419     -0.000000     -0.000000
     2   Atom        0.013822     -0.000000     -0.000000
     3   Atom       -0.145676      0.000000     -0.000000
     4   Atom       -0.083173      0.000000      0.000000
     5   Atom       -0.542957      0.000000     -0.000000
     6   Atom       -0.014835      0.000000      0.000000
 --------------------------------------------------------


 ---------------------------------------------------------------------------------
              Anisotropic Spin Dipole Couplings in Principal Axis System
 ---------------------------------------------------------------------------------

       Atom             a.u.   MegaHertz   Gauss  10(-4) cm-1        Axes

              Baa    -0.0262   -13.994    -4.993    -4.668 -0.3248  0.9458 -0.0000
     1 H(1)   Bbb    -0.0108    -5.743    -2.049    -1.916  0.0000  0.0000  1.0000
              Bcc     0.0370    19.737     7.043     6.584  0.9458  0.3248 -0.0000
 
              Baa    -0.2791   -37.454   -13.365   -12.493 -0.3167  0.9485 -0.0000
     2 C(13)  Bbb    -0.2331   -31.280   -11.161   -10.434  0.9485  0.3167  0.0000
              Bcc     0.5122    68.734    24.526    22.927  0.0000  0.0000  1.0000
 
              Baa    -0.2466   -33.088   -11.807   -11.037  0.7878  0.6159 -0.0000
     3 C(13)  Bbb     0.0536     7.198     2.569     2.401 -0.6159  0.7878 -0.0000
              Bcc     0.1929    25.890     9.238     8.636  0.0000  0.0000  1.0000
 
              Baa    -0.1435   -19.262    -6.873    -6.425  0.5244  0.8515 -0.0000
     4 C(13)  Bbb     0.0427     5.733     2.046     1.912  0.8515 -0.5244 -0.0000
              Bcc     0.1008    13.529     4.827     4.513  0.0000  0.0000  1.0000
 
              Baa    -0.7045   -94.539   -33.734   -31.535  0.5659  0.8245 -0.0000
     5 C(13)  Bbb     0.2453    32.923    11.748    10.982  0.0000  0.0000  1.0000
              Bcc     0.4592    61.616    21.986    20.553  0.8245 -0.5659  0.0000
 
              Baa    -0.1224   -16.424    -5.860    -5.478  0.0000  0.0000  1.0000
     6 C(13)  Bbb     0.0217     2.914     1.040     0.972  0.1914  0.9815 -0.0000
              Bcc     0.1007    13.510     4.821     4.506  0.9815 -0.1914 -0.0000
 

 ---------------------------------------------------------------------------------

 No NMR shielding tensors so no spin-rotation constants.
 Leave Link  601 at Mon Jun 20 15:15:50 2016, MaxMem=    33554432 cpu:         1.6
 (Enter /home/proyectos/fulerenos/M3C-v1.9/M3C-deps_CCC/g09-AM64L-G09RevC.01/l701.exe)
 Compute integral second derivatives.
 ... and contract with generalized density number  0.
 Leave Link  701 at Mon Jun 20 15:15:50 2016, MaxMem=    33554432 cpu:         1.6
 (Enter /home/proyectos/fulerenos/M3C-v1.9/M3C-deps_CCC/g09-AM64L-G09RevC.01/l702.exe)
 L702 exits ... SP integral derivatives will be done elsewhere.
 Leave Link  702 at Mon Jun 20 15:15:50 2016, MaxMem=    33554432 cpu:         0.1
 (Enter /home/proyectos/fulerenos/M3C-v1.9/M3C-deps_CCC/g09-AM64L-G09RevC.01/l703.exe)
 Compute integral second derivatives, UseDBF=F ICtDFT=           0.
 Integral derivatives from FoFJK, PRISM(SPDF).
 Calling FoFJK, ICntrl=    100127 FMM=F ISym2X=1 I1Cent= 0 IOpClX= 1 NMat=1 NMatS=1 NMatT=0.
 FoFJK:  IHMeth= 1 ICntrl=  100127 DoSepK=F KAlg= 0 I1Cent=   0 FoldK=F
 IRaf=         0 NMat=   1 IRICut=       1 DoRegI=T DoRafI=F ISym2E= 1.
 FoFCou: FMM=F IPFlag=           0 FMFlag=      100000 FMFlg1=         800
         NFxFlg=           0 DoJE=F BraDBF=F KetDBF=F FulRan=T
         wScrn=  0.000000 ICntrl=  100127 IOpCl=  1 I1Cent=           0 NGrid=           0
         NMat0=    1 NMatS0=      1 NMatT0=    0 NMatD0=    1 NMtDS0=    0 NMtDT0=    0
 Petite list used in FoFCou.
 Leave Link  703 at Mon Jun 20 15:17:16 2016, MaxMem=    33554432 cpu:       345.0
 (Enter /home/proyectos/fulerenos/M3C-v1.9/M3C-deps_CCC/g09-AM64L-G09RevC.01/l716.exe)
 Dipole        = 5.90308550D-01 5.52745210D-02 8.44760147D-33
 Polarizability= 4.69706793D+01-1.59471694D+00 2.97948862D+01
                -1.07308692D-08-7.24284522D-10 1.81476964D+01
 Full mass-weighted force constant matrix:
 Low frequencies ---  -12.6213   -0.0009   -0.0006   -0.0005    5.3623    8.2494
 Low frequencies ---  347.9868  444.8479  483.4376
 Diagonal vibrational polarizability:
       12.1889307       3.1279154       1.9063720
 Harmonic frequencies (cm**-1), IR intensities (KM/Mole), Raman scattering
 activities (A**4/AMU), depolarization ratios for plane and unpolarized
 incident light, reduced masses (AMU), force constants (mDyne/A),
 and normal coordinates:
                      1                      2                      3
                     A"                     A'                     A"
 Frequencies --    347.9868               444.8478               483.4376
 Red. masses --      4.6519                10.9116                11.2875
 Frc consts  --      0.3319                 1.2722                 1.5543
 IR Inten    --      3.8682                 2.9643                 0.1283
  Atom  AN      X      Y      Z        X      Y      Z        X      Y      Z
     1   1    -0.00   0.00  -0.82     0.31  -0.06  -0.00     0.00  -0.00   0.25
     2   6    -0.00   0.00  -0.22     0.27  -0.06  -0.00     0.00  -0.00   0.14
     3   6     0.00  -0.00   0.16    -0.24   0.63   0.00    -0.00   0.00  -0.57
     4   6     0.00   0.00  -0.06    -0.36  -0.41  -0.00    -0.00  -0.00   0.63
     5   6     0.00   0.00  -0.24     0.08  -0.09   0.00     0.00  -0.00  -0.40
     6   6    -0.00  -0.00   0.44     0.23  -0.07  -0.00     0.00  -0.00   0.18
                      4                      5                      6
                     A'                     A'                     A"
 Frequencies --    556.1750               634.1649               745.6494
 Red. masses --      8.5552                 9.9560                 1.3594
 Frc consts  --      1.5592                 2.3591                 0.4453
 IR Inten    --      8.0636                18.6501                21.3207
  Atom  AN      X      Y      Z        X      Y      Z        X      Y      Z
     1   1     0.17  -0.53   0.00    -0.43   0.04   0.00     0.00  -0.00   0.98
     2   6     0.11  -0.35  -0.00    -0.42   0.20   0.00    -0.00   0.00  -0.17
     3   6    -0.03   0.04   0.00    -0.08  -0.21  -0.00    -0.00  -0.00   0.04
     4   6     0.12  -0.00  -0.00    -0.14  -0.35   0.00    -0.00   0.00   0.01
     5   6    -0.15  -0.29  -0.00     0.50  -0.00  -0.00    -0.00   0.00  -0.02
     6   6    -0.07   0.65   0.00     0.17   0.36  -0.00     0.00  -0.00   0.05
                      7                      8                      9
                     A'                     A'                     A'
 Frequencies --    811.2106               972.8958              1171.8381
 Red. masses --      5.3775                 1.3018                 8.7543
 Frc consts  --      2.0849                 0.7260                 7.0828
 IR Inten    --    112.4088                55.4180                 9.3791
  Atom  AN      X      Y      Z        X      Y      Z        X      Y      Z
     1   1     0.18  -0.76  -0.00    -0.32   0.93  -0.00    -0.53  -0.12  -0.00
     2   6    -0.11   0.20   0.00     0.02  -0.07   0.00    -0.37  -0.21  -0.00
     3   6    -0.10  -0.06   0.00    -0.04  -0.03   0.00    -0.19   0.38   0.00
     4   6    -0.03   0.17  -0.00    -0.03   0.05  -0.00     0.36   0.24  -0.00
     5   6    -0.23  -0.22   0.00    -0.03  -0.04   0.00     0.27  -0.22   0.00
     6   6     0.45  -0.02  -0.00     0.11   0.02  -0.00    -0.03  -0.19  -0.00
                     10                     11                     12
                     A'                     A'                     A'
 Frequencies --   1318.7479              1586.4589              2738.9266
 Red. masses --      8.6132                10.1101                 1.1378
 Frc consts  --      8.8255                14.9921                 5.0290
 IR Inten    --    228.2753                75.5370               632.1746
  Atom  AN      X      Y      Z        X      Y      Z        X      Y      Z
     1   1    -0.54  -0.13   0.00    -0.31  -0.28   0.00     0.94   0.31  -0.00
     2   6    -0.30  -0.20  -0.00    -0.17  -0.17   0.00    -0.10  -0.04  -0.00
     3   6     0.27   0.16   0.00     0.61   0.14  -0.00     0.01   0.01   0.00
     4   6     0.20  -0.32   0.00    -0.52   0.25   0.00     0.00   0.00  -0.00
     5   6    -0.36   0.36  -0.00     0.11  -0.18  -0.00    -0.00   0.00  -0.00
     6   6     0.23   0.02   0.00    -0.01  -0.01  -0.00     0.01   0.00   0.00

 -------------------
 - Thermochemistry -
 -------------------
 Temperature   298.150 Kelvin.  Pressure   1.00000 Atm.
 Atom     1 has atomic number  1 and mass   1.00783
 Atom     2 has atomic number  6 and mass  12.00000
 Atom     3 has atomic number  6 and mass  12.00000
 Atom     4 has atomic number  6 and mass  12.00000
 Atom     5 has atomic number  6 and mass  12.00000
 Atom     6 has atomic number  6 and mass  12.00000
 Molecular mass:    61.00783 amu.
 Principal axes and moments of inertia in atomic units:
                           1         2         3
     Eigenvalues --    86.54996 243.98123 330.53119
           X            0.99505   0.09939   0.00000
           Y           -0.09939   0.99505   0.00000
           Z           -0.00000   0.00000   1.00000
 This molecule is an asymmetric top.
 Rotational symmetry number  1.
 Rotational temperatures (Kelvin)      1.00074     0.35500     0.26204
 Rotational constants (GHZ):          20.85202     7.39705     5.46012
 Zero-point vibrational energy      70653.5 (Joules/Mol)
                                   16.88659 (Kcal/Mol)
 Warning -- explicit consideration of   4 degrees of freedom as
           vibrations may cause significant error
 Vibrational temperatures:    500.67   640.04   695.56   800.21   912.42
          (Kelvin)           1072.82  1167.15  1399.78  1686.01  1897.38
                             2282.56  3940.70
 
 Zero-point correction=                           0.026910 (Hartree/Particle)
 Thermal correction to Energy=                    0.031184
 Thermal correction to Enthalpy=                  0.032128
 Thermal correction to Gibbs Free Energy=        -0.000248
 Sum of electronic and zero-point Energies=           -188.936855
 Sum of electronic and thermal Energies=              -188.932582
 Sum of electronic and thermal Enthalpies=            -188.931637
 Sum of electronic and thermal Free Energies=         -188.964014
 
                     E (Thermal)             CV                S
                      KCal/Mol        Cal/Mol-Kelvin    Cal/Mol-Kelvin
 Total                   19.568             14.490             68.141
 Electronic               0.000              0.000              2.183
 Translational            0.889              2.981             38.245
 Rotational               0.889              2.981             23.461
 Vibrational             17.791              8.529              4.253
 Vibration     1          0.726              1.579              1.175
 Vibration     2          0.804              1.372              0.812
 Vibration     3          0.840              1.287              0.701
 Vibration     4          0.912              1.126              0.532
                       Q            Log10(Q)             Ln(Q)
 Total Bot       0.130096D+01          0.114263          0.263101
 Total V=0       0.310601D+13         12.492202         28.764359
 Vib (Bot)       0.774184D-12        -12.111156        -27.886967
 Vib (Bot)    1  0.530883D+00         -0.275001         -0.633214
 Vib (Bot)    2  0.387104D+00         -0.412173         -0.949063
 Vib (Bot)    3  0.344931D+00         -0.462267         -1.064410
 Vib (Bot)    4  0.280489D+00         -0.552084         -1.271221
 Vib (V=0)       0.184835D+01          0.266783          0.614292
 Vib (V=0)    1  0.122927D+01          0.089648          0.206421
 Vib (V=0)    2  0.113234D+01          0.053975          0.124283
 Vib (V=0)    3  0.110744D+01          0.044318          0.102047
 Vib (V=0)    4  0.107330D+01          0.030722          0.070739
 Electronic      0.300000D+01          0.477121          1.098612
 Translational   0.187298D+08          7.272534         16.745627
 Rotational      0.299064D+05          4.475764         10.305828
 
                                                              b3lyp opt
                                                             IR Spectrum
 
     2                                                     1           1      1                                                      
     7                                                     5           3      1        9       8  7    6   5  4 4   3                
     3                                                     8           1      7        7       1  4    3   5  8 4   4                
     9                                                     6           9      2        3       1  6    4   6  3 5   8                
 
     X                                                     X           X      X        X       X  X    X   X  X X   X                
     X                                                     X           X               X       X                                     
     X                                                                 X                       X                                     
     X                                                                 X                       X                                     
     X                                                                 X                                                             
     X                                                                 X                                                             
     X                                                                 X                                                             
     X                                                                                                                               
     X                                                                                                                               
     X                                                                                                                               
     X                                                                                                                               
     X                                                                                                                               
     X                                                                                                                               
     X                                                                                                                               
     X                                                                                                                               
     X                                                                                                                               
     X                                                                                                                               
     X                                                                                                                               
     X                                                                                                                               
     X                                                                                                                               
 
 ***** Axes restored to original set *****
 -------------------------------------------------------------------
 Center     Atomic                   Forces (Hartrees/Bohr)
 Number     Number              X              Y              Z
 -------------------------------------------------------------------
      1        1          -0.000002765   -0.000048910    0.000000000
      2        6           0.000110310    0.000035654   -0.000000000
      3        6           0.000093401    0.000019667   -0.000000000
      4        6          -0.000145043    0.000056545   -0.000000000
      5        6          -0.000000100   -0.000064308    0.000000000
      6        6          -0.000055802    0.000001352    0.000000000
 -------------------------------------------------------------------
 Cartesian Forces:  Max     0.000145043 RMS     0.000055994
 Z-matrix is all fixed cartesians, so copy forces.
 Force constants in Cartesian coordinates: 
                1             2             3             4             5 
      1  0.234151D+00
      2  0.670267D-01  0.529230D-01
      3  0.000000D+00  0.000000D+00  0.159380D-01
      4 -0.251414D+00 -0.737894D-01  0.000000D+00  0.682691D+00
      5 -0.714463D-01 -0.518842D-01  0.000000D+00  0.256737D+00  0.249277D+00
      6  0.000000D+00  0.000000D+00 -0.281928D-01  0.000000D+00  0.000000D+00
      7  0.140534D-01 -0.147976D-01  0.000000D+00 -0.220214D+00 -0.189017D+00
      8  0.162116D-02 -0.106268D-01  0.000000D+00 -0.194851D+00 -0.159533D+00
      9  0.000000D+00  0.000000D+00  0.401949D-02  0.000000D+00  0.000000D+00
     10  0.278676D-02  0.315241D-02  0.000000D+00 -0.637776D-01 -0.310299D-02
     11 -0.244624D-02  0.173359D-02  0.000000D+00 -0.159139D-01 -0.328039D-01
     12  0.000000D+00  0.000000D+00  0.447934D-02  0.000000D+00  0.000000D+00
     13 -0.339406D-02 -0.262108D-02  0.000000D+00 -0.169638D-01  0.209416D-01
     14  0.173433D-02  0.378512D-02  0.000000D+00 -0.101757D-01  0.112858D-02
     15  0.000000D+00  0.000000D+00 -0.143049D-02  0.000000D+00  0.000000D+00
     16  0.381728D-02  0.210289D-01  0.000000D+00 -0.130322D+00 -0.141122D-01
     17  0.351027D-02  0.406931D-02  0.000000D+00  0.379929D-01 -0.618483D-02
     18  0.000000D+00  0.000000D+00  0.518647D-02  0.000000D+00  0.000000D+00
                6             7             8             9            10 
      6  0.709490D-01
      7  0.000000D+00  0.649659D+00
      8  0.000000D+00  0.103567D+00  0.235807D+00
      9 -0.275555D-01  0.000000D+00  0.000000D+00  0.433601D-01
     10  0.000000D+00 -0.407813D+00  0.462878D-01  0.000000D+00  0.542544D+00
     11  0.000000D+00  0.715221D-01  0.480769D-01  0.000000D+00 -0.156563D+00
     12  0.684865D-02  0.000000D+00  0.000000D+00 -0.411515D-01  0.000000D+00
     13  0.000000D+00 -0.537193D-01  0.398476D-01  0.000000D+00 -0.844845D-01
     14  0.000000D+00  0.148115D-01 -0.366002D-01  0.000000D+00  0.149734D+00
     15  0.739169D-02  0.000000D+00  0.000000D+00  0.188900D-01  0.000000D+00
     16  0.000000D+00  0.180345D-01  0.352716D-02  0.000000D+00  0.107446D-01
     17  0.000000D+00  0.139139D-01 -0.771244D-01  0.000000D+00 -0.395078D-01
     18 -0.294410D-01  0.000000D+00  0.000000D+00  0.243748D-02  0.000000D+00
               11            12            13            14            15 
     11  0.319737D+00
     12  0.000000D+00  0.462220D-01
     13  0.145038D+00  0.000000D+00  0.317574D+00
     14 -0.264877D+00  0.000000D+00 -0.173257D+00  0.288989D+00
     15  0.000000D+00 -0.266734D-01  0.000000D+00  0.000000D+00  0.267755D-01
     16 -0.416367D-01  0.000000D+00 -0.159012D+00  0.171538D-01  0.000000D+00
     17 -0.718672D-01  0.000000D+00 -0.299483D-01  0.757347D-02  0.000000D+00
     18  0.000000D+00  0.102750D-01  0.000000D+00  0.000000D+00 -0.249533D-01
               16            17            18 
     16  0.256737D+00
     17  0.140391D-01  0.143534D+00
     18  0.000000D+00  0.000000D+00  0.364954D-01
 Leave Link  716 at Mon Jun 20 15:17:17 2016, MaxMem=    33554432 cpu:         0.1
 (Enter /home/proyectos/fulerenos/M3C-v1.9/M3C-deps_CCC/g09-AM64L-G09RevC.01/l103.exe)

 GradGradGradGradGradGradGradGradGradGradGradGradGradGradGradGradGradGrad
 Berny optimization.
 Search for a local minimum.
 Step number   1 out of a maximum of    2
 All quantities printed in internal units (Hartrees-Bohrs-Radians)
 Second derivative matrix not updated -- analytic derivatives used.
 The second derivative matrix:
                          X1        Y1        Z1        X2        Y2
           X1           0.23415
           Y1           0.06703   0.05292
           Z1           0.00000  -0.00000   0.01594
           X2          -0.25141  -0.07379   0.00000   0.68269
           Y2          -0.07145  -0.05188  -0.00000   0.25674   0.24928
           Z2           0.00000   0.00000  -0.02819  -0.00000  -0.00000
           X3           0.01405  -0.01480  -0.00000  -0.22021  -0.18902
           Y3           0.00162  -0.01063  -0.00000  -0.19485  -0.15953
           Z3          -0.00000  -0.00000   0.00402   0.00000   0.00000
           X4           0.00279   0.00315   0.00000  -0.06378  -0.00310
           Y4          -0.00245   0.00173   0.00000  -0.01591  -0.03280
           Z4           0.00000   0.00000   0.00448  -0.00000   0.00000
           X5          -0.00339  -0.00262  -0.00000  -0.01696   0.02094
           Y5           0.00173   0.00379  -0.00000  -0.01018   0.00113
           Z5           0.00000  -0.00000  -0.00143  -0.00000  -0.00000
           X6           0.00382   0.02103  -0.00000  -0.13032  -0.01411
           Y6           0.00351   0.00407   0.00000   0.03799  -0.00618
           Z6          -0.00000   0.00000   0.00519  -0.00000   0.00000
                          Z2        X3        Y3        Z3        X4
           Z2           0.07095
           X3          -0.00000   0.64966
           Y3           0.00000   0.10357   0.23581
           Z3          -0.02756   0.00000   0.00000   0.04336
           X4           0.00000  -0.40781   0.04629  -0.00000   0.54254
           Y4          -0.00000   0.07152   0.04808  -0.00000  -0.15656
           Z4           0.00685  -0.00000  -0.00000  -0.04115   0.00000
           X5          -0.00000  -0.05372   0.03985   0.00000  -0.08448
           Y5           0.00000   0.01481  -0.03660  -0.00000   0.14973
           Z5           0.00739   0.00000   0.00000   0.01889  -0.00000
           X6          -0.00000   0.01803   0.00353   0.00000   0.01074
           Y6          -0.00000   0.01391  -0.07712   0.00000  -0.03951
           Z6          -0.02944   0.00000  -0.00000   0.00244   0.00000
                          Y4        Z4        X5        Y5        Z5
           Y4           0.31974
           Z4           0.00000   0.04622
           X5           0.14504  -0.00000   0.31757
           Y5          -0.26488   0.00000  -0.17326   0.28899
           Z5          -0.00000  -0.02667  -0.00000   0.00000   0.02678
           X6          -0.04164  -0.00000  -0.15901   0.01715   0.00000
           Y6          -0.07187  -0.00000  -0.02995   0.00757  -0.00000
           Z6           0.00000   0.01027   0.00000  -0.00000  -0.02495
                          X6        Y6        Z6
           X6           0.25674
           Y6           0.01404   0.14353
           Z6          -0.00000  -0.00000   0.03650
 ITU=  0
     Eigenvalues ---    0.02294   0.04981   0.08198   0.09711   0.11198
     Eigenvalues ---    0.14469   0.15562   0.29835   0.33169   0.68896
     Eigenvalues ---    0.96352   1.23019
 Angle between quadratic step and forces=  62.02 degrees.
 ClnCor:  largest displacement from symmetrization is 5.38D-12 for atom     4.
 Linear search not attempted -- first point.
 ClnCor:  largest displacement from symmetrization is 1.83D-15 for atom     1.
 B after Tr=    -0.000057    0.000055    0.000000
         Rot=    1.000000    0.000000    0.000000    0.000027 Ang=   0.00 deg.
 Variable       Old X    -DE/DX   Delta X   Delta X   Delta X     New X
                                 (Linear)    (Quad)   (Total)
    X1       -4.72234  -0.00000   0.00000   0.00065   0.00054  -4.72181
    Y1       -0.97323  -0.00005   0.00000  -0.00092  -0.00060  -0.97384
    Z1        0.00000   0.00000   0.00000   0.00000  -0.00000  -0.00000
    X2       -2.68214   0.00011   0.00000   0.00033   0.00026  -2.68188
    Y2       -0.30705   0.00004   0.00000   0.00016   0.00036  -0.30669
    Z2        0.00000  -0.00000   0.00000  -0.00000  -0.00000  -0.00000
    X3       -0.92689   0.00009   0.00000   0.00006   0.00009  -0.92680
    Y3        1.63174   0.00002   0.00000   0.00048   0.00059   1.63233
    Z3       -0.00000  -0.00000   0.00000  -0.00000  -0.00000  -0.00000
    X4        1.63082  -0.00015   0.00000  -0.00020  -0.00019   1.63063
    Y4        1.25195   0.00006   0.00000  -0.00007  -0.00010   1.25184
    Z4       -0.00000  -0.00000   0.00000   0.00000   0.00000   0.00000
    X5        2.76526  -0.00000   0.00000  -0.00029  -0.00041   2.76486
    Y5       -1.09576  -0.00006   0.00000  -0.00028  -0.00037  -1.09613
    Z5        0.00000   0.00000   0.00000   0.00000   0.00000   0.00000
    X6        0.00000  -0.00006   0.00000  -0.00016  -0.00029  -0.00029
    Y6       -1.31867   0.00000   0.00000   0.00007   0.00013  -1.31855
    Z6        0.00000   0.00000   0.00000  -0.00000   0.00000   0.00000
         Item               Value     Threshold  Converged?
 Maximum Force            0.000145     0.000450     YES
 RMS     Force            0.000056     0.000300     YES
 Maximum Displacement     0.000604     0.001800     YES
 RMS     Displacement     0.000304     0.001200     YES
 Predicted change in Energy=-7.520354D-08
 Optimization completed.
    -- Stationary point found.
 GradGradGradGradGradGradGradGradGradGradGradGradGradGradGradGradGradGrad

 Leave Link  103 at Mon Jun 20 15:17:17 2016, MaxMem=    33554432 cpu:         0.1
 (Enter /home/proyectos/fulerenos/M3C-v1.9/M3C-deps_CCC/g09-AM64L-G09RevC.01/l9999.exe)
 1\1\GINC-BELVIS17\Freq\UB3LYP\6-311++G(3df,2p)\C5H1(3+,3)\ROOT\20-Jun-
 2016\0\\#p b3lyp/6-311++G(3df,2p) freq symmetry=Loose\\b3lyp opt\\3,3\
 H,-2.498957,-0.515012,0.\C,-1.419326,-0.162485,0.\C,-0.490488,0.86348,
 0.\C,0.862993,0.662502,0.\C,1.463315,-0.57985,0.\C,0.,-0.697811,0.\\Ve
 rsion=EM64L-G09RevE.01\State=3-A"\HF=-188.9637651\S2=2.016114\S2-1=0.\
 S2A=2.000107\RMSD=3.118e-09\RMSF=5.599e-05\ZeroPoint=0.0269105\Thermal
 =0.0311836\Dipole=-0.5903086,-0.0552743,0.\DipoleDeriv=0.8923373,0.136
 1295,0.,0.2482535,0.3234368,0.,0.,0.,0.2189774,0.8409037,0.1262775,0.,
 -0.1964816,0.4807037,0.,0.,0.,0.5427584,0.2324169,-0.4882647,0.,-0.289
 8229,0.6613574,0.,0.,0.,0.5766715,0.5171943,0.4905296,0.,0.2495389,0.3
 512081,0.,0.,0.,0.5651576,1.3368283,-0.3875937,0.,-0.165946,0.78665,0.
 ,0.,0.,0.5468799,-0.8196804,0.1229219,0.,0.1544581,0.3966438,0.,0.,0.,
 0.5495552\Polar=46.9706783,-1.5947225,29.7948872,0.,0.,18.1476964\PG=C
 S [SG(C5H1)]\NImag=0\\0.23415053,0.06702675,0.05292296,0.,0.,0.0159380
 0,-0.25141394,-0.07378937,0.,0.68269080,-0.07144627,-0.05188421,0.,0.2
 5673724,0.24927734,0.,0.,-0.02819280,0.,0.,0.07094900,0.01405343,-0.01
 479760,0.,-0.22021394,-0.18901736,0.,0.64965860,0.00162116,-0.01062677
 ,0.,-0.19485123,-0.15953297,0.,0.10356750,0.23580741,0.,0.,0.00401949,
 0.,0.,-0.02755550,0.,0.,0.04336007,0.00278676,0.00315241,0.,-0.0637776
 0,-0.00310299,0.,-0.40781326,0.04628785,0.,0.54254395,-0.00244624,0.00
 173359,0.,-0.01591394,-0.03280393,0.,0.07152214,0.04807688,0.,-0.15656
 299,0.31973711,0.,0.,0.00447934,0.,0.,0.00684865,0.,0.,-0.04115150,0.,
 0.,0.04622198,-0.00339406,-0.00262108,0.,-0.01696378,0.02094155,0.,-0.
 05371932,0.03984756,0.,-0.08448447,0.14503776,0.,0.31757376,0.00173433
 ,0.00378512,0.,-0.01017565,0.00112858,0.,0.01481147,-0.03660016,0.,0.1
 4973352,-0.26487650,0.,-0.17325746,0.28898949,0.,0.,-0.00143049,0.,0.,
 0.00739169,0.,0.,0.01888996,0.,0.,-0.02667342,0.,0.,0.02677552,0.00381
 728,0.02102888,0.,-0.13032153,-0.01411217,0.,0.01803450,0.00352716,0.,
 0.01074462,-0.04163674,0.,-0.15901212,0.01715380,0.,0.25673725,0.00351
 027,0.00406931,0.,0.03799294,-0.00618483,0.,0.01391385,-0.07712440,0.,
 -0.03950780,-0.07186715,0.,-0.02994833,0.00757347,0.,0.01403907,0.1435
 3361,0.,0.,0.00518647,0.,0.,-0.02944104,0.,0.,0.00243748,0.,0.,0.01027
 495,0.,0.,-0.02495326,0.,0.,0.03649539\\0.00000277,0.00004891,0.,-0.00
 011031,-0.00003565,0.,-0.00009340,-0.00001967,0.,0.00014504,-0.0000565
 4,0.,0.00000010,0.00006431,0.,0.00005580,-0.00000135,0.\\\@


 THE GREAT THING ABOUT BEING IMPERFECT IS THE JOY IT BRINGS OTHERS.
   -- SIGN OUTSIDE LAKE AGASSIZ JR. HIGH SCHOOL, FARGO, N.D.
 Job cpu time:       0 days  0 hours 29 minutes 55.9 seconds.
 File lengths (MBytes):  RWF=     47 Int=      0 D2E=      0 Chk=      4 Scr=      1
 Normal termination of Gaussian 09 at Mon Jun 20 15:17:17 2016.
