 Entering Gaussian System, Link 0=g09
 Initial command:
 /usr/local/gaussian/gaussian09/g09/l1.exe "/scratch/sergio/HC5.q0.m2-14.bis.com-2105443/Gau-17080.inp" -scrdir="/scratch/sergio/HC5.q0.m2-14.bis.com-2105443/"
 Default is to use a total of   4 processors:
                                4 via shared-memory
                                1 via Linda
 Entering Link 1 = /usr/local/gaussian/gaussian09/g09/l1.exe PID=     17081.
  
 Copyright (c) 1988,1990,1992,1993,1995,1998,2003,2009,2015,
            Gaussian, Inc.  All Rights Reserved.
  
 This is part of the Gaussian(R) 09 program.  It is based on
 the Gaussian(R) 03 system (copyright 2003, Gaussian, Inc.),
 the Gaussian(R) 98 system (copyright 1998, Gaussian, Inc.),
 the Gaussian(R) 94 system (copyright 1995, Gaussian, Inc.),
 the Gaussian 92(TM) system (copyright 1992, Gaussian, Inc.),
 the Gaussian 90(TM) system (copyright 1990, Gaussian, Inc.),
 the Gaussian 88(TM) system (copyright 1988, Gaussian, Inc.),
 the Gaussian 86(TM) system (copyright 1986, Carnegie Mellon
 University), and the Gaussian 82(TM) system (copyright 1983,
 Carnegie Mellon University). Gaussian is a federally registered
 trademark of Gaussian, Inc.
  
 This software contains proprietary and confidential information,
 including trade secrets, belonging to Gaussian, Inc.
  
 This software is provided under written license and may be
 used, copied, transmitted, or stored only in accord with that
 written license.
  
 The following legend is applicable only to US Government
 contracts under FAR:
  
                    RESTRICTED RIGHTS LEGEND
  
 Use, reproduction and disclosure by the US Government is
 subject to restrictions as set forth in subparagraphs (a)
 and (c) of the Commercial Computer Software - Restricted
 Rights clause in FAR 52.227-19.
  
 Gaussian, Inc.
 340 Quinnipiac St., Bldg. 40, Wallingford CT 06492
  
  
 ---------------------------------------------------------------
 Warning -- This program may not be used in any manner that
 competes with the business of Gaussian, Inc. or will provide
 assistance to any competitor of Gaussian, Inc.  The licensee
 of this program is prohibited from giving any competitor of
 Gaussian, Inc. access to this program.  By using this program,
 the user acknowledges that Gaussian, Inc. is engaged in the
 business of creating and licensing software in the field of
 computational chemistry and represents and warrants to the
 licensee that it is not a competitor of Gaussian, Inc. and that
 it will not use this program in any manner prohibited above.
 ---------------------------------------------------------------
  

 Cite this work as:
 Gaussian 09, Revision E.01,
 M. J. Frisch, G. W. Trucks, H. B. Schlegel, G. E. Scuseria, 
 M. A. Robb, J. R. Cheeseman, G. Scalmani, V. Barone, B. Mennucci, 
 G. A. Petersson, H. Nakatsuji, M. Caricato, X. Li, H. P. Hratchian, 
 A. F. Izmaylov, J. Bloino, G. Zheng, J. L. Sonnenberg, M. Hada, 
 M. Ehara, K. Toyota, R. Fukuda, J. Hasegawa, M. Ishida, T. Nakajima, 
 Y. Honda, O. Kitao, H. Nakai, T. Vreven, J. A. Montgomery, Jr., 
 J. E. Peralta, F. Ogliaro, M. Bearpark, J. J. Heyd, E. Brothers, 
 K. N. Kudin, V. N. Staroverov, T. Keith, R. Kobayashi, J. Normand, 
 K. Raghavachari, A. Rendell, J. C. Burant, S. S. Iyengar, J. Tomasi, 
 M. Cossi, N. Rega, J. M. Millam, M. Klene, J. E. Knox, J. B. Cross, 
 V. Bakken, C. Adamo, J. Jaramillo, R. Gomperts, R. E. Stratmann, 
 O. Yazyev, A. J. Austin, R. Cammi, C. Pomelli, J. W. Ochterski, 
 R. L. Martin, K. Morokuma, V. G. Zakrzewski, G. A. Voth, 
 P. Salvador, J. J. Dannenberg, S. Dapprich, A. D. Daniels, 
 O. Farkas, J. B. Foresman, J. V. Ortiz, J. Cioslowski, 
 and D. J. Fox, Gaussian, Inc., Wallingford CT, 2013.
 
 ******************************************
 Gaussian 09:  EM64L-G09RevE.01 30-Nov-2015
                 5-Jul-2016 
 ******************************************
 Default route:  MaxDisk=40000MB
 -------------------------------------------------
 #p b3lyp/6-311++G(3df,2p) opt freq symmetry=Loose
 -------------------------------------------------
 1/14=-1,18=20,19=15,26=3,38=1/1,3;
 2/9=110,12=2,17=4,18=3,40=1/2;
 3/5=4,6=6,7=1216,11=2,16=1,25=1,30=1,71=1,74=-5/1,2,3;
 4//1;
 5/5=2,38=5/2;
 6/7=2,8=2,9=2,10=2,28=1/1;
 7//1,2,3,16;
 1/14=-1,18=20,19=15,26=3/3(2);
 2/9=110/2;
 99//99;
 2/9=110/2;
 3/5=4,6=6,7=1216,11=2,16=1,25=1,30=1,71=1,74=-5/1,2,3;
 4/5=5,16=3,69=1/1;
 5/5=2,38=5/2;
 7//1,2,3,16;
 1/14=-1,18=20,19=15,26=3/3(-5);
 2/9=110/2;
 6/7=2,8=2,9=2,10=2,19=2,28=1/1;
 99/9=1/99;
 Leave Link    1 at Tue Jul  5 15:54:16 2016, MaxMem=           0 cpu:         0.7
 (Enter /usr/local/gaussian/gaussian09/g09/l101.exe)
 ---------
 b3lyp opt
 ---------
 Symbolic Z-matrix:
 Charge =  0 Multiplicity = 2
 C                     1.12      0.16      0. 
 C                    -1.12      0.16      0. 
 C                     0.        0.44     -0.94 
 C                     0.        0.44      0.94 
 C                     0.       -0.87      0. 
 H                     0.       -1.95      0. 
 
 Add atom      1 valence  3 ND=      2 dihedral       3      1      4      5
 Add atom      2 valence  3 ND=      2 dihedral       3      2      4      5
 Add atom      3 valence  3 ND=      2 dihedral       5      2      3      1
 Add atom      5 valence  5 ND=      0 dihedral       4      2      5      1
 Add atom      5 valence  5 ND=      0 dihedral       6      2      5      1
 Add atom      5 valence  5 ND=      0 dihedral       6      3      5      1
 Add atom      5 valence  5 ND=      0 dihedral       6      4      5      1
 NAtoms=      6 NQM=        6 NQMF=       0 NMMI=      0 NMMIF=      0
                NMic=       0 NMicF=      0.
                    Isotopes and Nuclear Properties:
 (Nuclear quadrupole moments (NQMom) in fm**2, nuclear magnetic moments (NMagM)
  in nuclear magnetons)

  Atom         1           2           3           4           5           6
 IAtWgt=          12          12          12          12          12           1
 AtmWgt=  12.0000000  12.0000000  12.0000000  12.0000000  12.0000000   1.0078250
 NucSpn=           0           0           0           0           0           1
 AtZEff=   0.0000000   0.0000000   0.0000000   0.0000000   0.0000000   0.0000000
 NQMom=    0.0000000   0.0000000   0.0000000   0.0000000   0.0000000   0.0000000
 NMagM=    0.0000000   0.0000000   0.0000000   0.0000000   0.0000000   2.7928460
 AtZNuc=   6.0000000   6.0000000   6.0000000   6.0000000   6.0000000   1.0000000
 Leave Link  101 at Tue Jul  5 15:54:17 2016, MaxMem=  1835008000 cpu:         5.1
 (Enter /usr/local/gaussian/gaussian09/g09/l103.exe)

 GradGradGradGradGradGradGradGradGradGradGradGradGradGradGradGradGradGrad
 Berny optimization.
 Initialization pass.
                           ----------------------------
                           !    Initial Parameters    !
                           ! (Angstroms and Degrees)  !
 --------------------------                            --------------------------
 ! Name  Definition              Value          Derivative Info.                !
 --------------------------------------------------------------------------------
 ! R1    R(1,3)                  1.4888         estimate D2E/DX2                !
 ! R2    R(1,4)                  1.4888         estimate D2E/DX2                !
 ! R3    R(1,5)                  1.5216         estimate D2E/DX2                !
 ! R4    R(2,3)                  1.4888         estimate D2E/DX2                !
 ! R5    R(2,4)                  1.4888         estimate D2E/DX2                !
 ! R6    R(2,5)                  1.5216         estimate D2E/DX2                !
 ! R7    R(3,5)                  1.6124         estimate D2E/DX2                !
 ! R8    R(4,5)                  1.6124         estimate D2E/DX2                !
 ! R9    R(5,6)                  1.08           estimate D2E/DX2                !
 ! A1    A(3,1,4)               78.3068         estimate D2E/DX2                !
 ! A2    A(3,2,4)               78.3068         estimate D2E/DX2                !
 ! A3    A(1,3,2)               97.5809         estimate D2E/DX2                !
 ! A4    A(1,4,2)               97.5809         estimate D2E/DX2                !
 ! A5    A(1,5,2)               94.7941         estimate D2E/DX2                !
 ! A6    A(1,5,6)              132.603          estimate D2E/DX2                !
 ! A7    A(2,5,6)              132.603          estimate D2E/DX2                !
 ! A8    A(3,5,4)               71.3232         estimate D2E/DX2                !
 ! A9    A(3,5,6)              144.3384         estimate D2E/DX2                !
 ! A10   A(4,5,6)              144.3384         estimate D2E/DX2                !
 ! D1    D(4,1,3,2)            -21.6009         estimate D2E/DX2                !
 ! D2    D(3,1,4,2)             21.6009         estimate D2E/DX2                !
 ! D3    D(3,1,4,5)             67.4268         estimate D2E/DX2                !
 ! D4    D(4,2,3,1)             21.6009         estimate D2E/DX2                !
 ! D5    D(5,2,3,1)            -45.8259         estimate D2E/DX2                !
 ! D6    D(3,2,4,1)            -21.6009         estimate D2E/DX2                !
 ! D7    D(3,2,4,5)            -67.4268         estimate D2E/DX2                !
 ! D8    D(4,2,5,1)            -44.2707         estimate D2E/DX2                !
 ! D9    D(6,2,5,1)            180.0            estimate D2E/DX2                !
 ! D10   D(6,3,5,1)            118.1979         estimate D2E/DX2                !
 ! D11   D(6,4,5,1)           -118.1979         estimate D2E/DX2                !
 --------------------------------------------------------------------------------
 Trust Radius=3.00D-01 FncErr=1.00D-07 GrdErr=1.00D-06
 Number of steps in this run=     40 maximum allowed number of steps=    100.
 GradGradGradGradGradGradGradGradGradGradGradGradGradGradGradGradGradGrad

 Leave Link  103 at Tue Jul  5 15:54:17 2016, MaxMem=  1835008000 cpu:         0.2
 (Enter /usr/local/gaussian/gaussian09/g09/l202.exe)
                          Input orientation:                          
 ---------------------------------------------------------------------
 Center     Atomic      Atomic             Coordinates (Angstroms)
 Number     Number       Type             X           Y           Z
 ---------------------------------------------------------------------
      1          6           0        1.120000    0.160000    0.000000
      2          6           0       -1.120000    0.160000    0.000000
      3          6           0        0.000000    0.440000   -0.940000
      4          6           0        0.000000    0.440000    0.940000
      5          6           0        0.000000   -0.870000    0.000000
      6          1           0        0.000000   -1.950000    0.000000
 ---------------------------------------------------------------------
                    Distance matrix (angstroms):
                    1          2          3          4          5
     1  C    0.000000
     2  C    2.240000   0.000000
     3  C    1.488758   1.488758   0.000000
     4  C    1.488758   1.488758   1.880000   0.000000
     5  C    1.521611   1.521611   1.612359   1.612359   0.000000
     6  H    2.388828   2.388828   2.568209   2.568209   1.080000
                    6
     6  H    0.000000
 Stoichiometry    C5H(2)
 Framework group  C2V[C2(CH),SGV(C2),SGV'(C2)]
 Deg. of freedom     5
 Full point group                 C2V     NOp   4
 Largest Abelian subgroup         C2V     NOp   4
 Largest concise Abelian subgroup C2V     NOp   4
                         Standard orientation:                         
 ---------------------------------------------------------------------
 Center     Atomic      Atomic             Coordinates (Angstroms)
 Number     Number       Type             X           Y           Z
 ---------------------------------------------------------------------
      1          6           0        0.000000    1.120000   -0.159032
      2          6           0       -0.000000   -1.120000   -0.159032
      3          6           0        0.940000   -0.000000   -0.439032
      4          6           0       -0.940000    0.000000   -0.439032
      5          6           0        0.000000    0.000000    0.870968
      6          1           0        0.000000    0.000000    1.950968
 ---------------------------------------------------------------------
 Rotational constants (GHZ):     12.8539454     10.4815114      9.8491387
 Leave Link  202 at Tue Jul  5 15:54:17 2016, MaxMem=  1835008000 cpu:         0.1
 (Enter /usr/local/gaussian/gaussian09/g09/l301.exe)
 Standard basis: 6-311++G(3df,2p) (5D, 7F)
 Ernie: Thresh=  0.10000D-02 Tol=  0.10000D-05 Strict=F.
 There are    89 symmetry adapted cartesian basis functions of A1  symmetry.
 There are    32 symmetry adapted cartesian basis functions of A2  symmetry.
 There are    57 symmetry adapted cartesian basis functions of B1  symmetry.
 There are    57 symmetry adapted cartesian basis functions of B2  symmetry.
 There are    75 symmetry adapted basis functions of A1  symmetry.
 There are    30 symmetry adapted basis functions of A2  symmetry.
 There are    50 symmetry adapted basis functions of B1  symmetry.
 There are    50 symmetry adapted basis functions of B2  symmetry.
   205 basis functions,   302 primitive gaussians,   235 cartesian basis functions
    16 alpha electrons       15 beta electrons
       nuclear repulsion energy       126.5633660376 Hartrees.
 IExCor=  402 DFT=T Ex+Corr=B3LYP ExCW=0 ScaHFX=  0.200000
 ScaDFX=  0.800000  0.720000  1.000000  0.810000 ScalE2=  1.000000  1.000000
 IRadAn=      0 IRanWt=     -1 IRanGd=            0 ICorTp=0 IEmpDi=  4
 NAtoms=    6 NActive=    6 NUniq=    4 SFac= 2.25D+00 NAtFMM=   60 NAOKFM=F Big=F
 Integral buffers will be    131072 words long.
 Raffenetti 2 integral format.
 Two-electron integral symmetry is turned on.
 Leave Link  301 at Tue Jul  5 15:54:18 2016, MaxMem=  1835008000 cpu:         1.7
 (Enter /usr/local/gaussian/gaussian09/g09/l302.exe)
 NPDir=0 NMtPBC=     1 NCelOv=     1 NCel=       1 NClECP=     1 NCelD=      1
         NCelK=      1 NCelE2=     1 NClLst=     1 CellRange=     0.0.
 One-electron integrals computed using PRISM.
 One-electron integral symmetry used in STVInt
 NBasis=   205 RedAO= T EigKep=  2.49D-05  NBF=    75    30    50    50
 NBsUse=   205 1.00D-06 EigRej= -1.00D+00 NBFU=    75    30    50    50
 Precomputing XC quadrature grid using
 IXCGrd= 4 IRadAn=           0 IRanWt=          -1 IRanGd=           0 AccXCQ= 0.00D+00.
 Generated NRdTot=       0 NPtTot=           0 NUsed=           0 NTot=          32
 NSgBfM=   235   235   235   235   235 MxSgAt=     6 MxSgA2=     6.
 Leave Link  302 at Tue Jul  5 15:54:18 2016, MaxMem=  1835008000 cpu:         2.4
 (Enter /usr/local/gaussian/gaussian09/g09/l303.exe)
 DipDrv:  MaxL=1.
 Leave Link  303 at Tue Jul  5 15:54:19 2016, MaxMem=  1835008000 cpu:         0.8
 (Enter /usr/local/gaussian/gaussian09/g09/l401.exe)
 ExpMin= 3.60D-02 ExpMax= 4.56D+03 ExpMxC= 6.82D+02 IAcc=3 IRadAn=         5 AccDes= 0.00D+00
 Harris functional with IExCor=  402 and IRadAn=       5 diagonalized for initial guess.
 HarFok:  IExCor=  402 AccDes= 0.00D+00 IRadAn=         5 IDoV= 1 UseB2=F ITyADJ=14
 ICtDFT=  3500011 ScaDFX=  1.000000  1.000000  1.000000  1.000000
 FoFCou: FMM=F IPFlag=           0 FMFlag=      100000 FMFlg1=           0
         NFxFlg=           0 DoJE=T BraDBF=F KetDBF=T FulRan=T
         wScrn=  0.000000 ICntrl=     500 IOpCl=  0 I1Cent=   200000004 NGrid=           0
         NMat0=    1 NMatS0=      1 NMatT0=    0 NMatD0=    1 NMtDS0=    0 NMtDT0=    0
 Petite list used in FoFCou.
 Harris En= -190.709476095990    
 JPrj=0 DoOrth=F DoCkMO=F.
 Initial guess orbital symmetries:
 Alpha Orbitals:
       Occupied  (A1) (B2) (A1) (B1) (A1) (A1) (B2) (B1) (A1) (A1)
                 (A2) (B2) (A1) (B1) (A1) (B2)
       Virtual   (B1) (A1) (B1) (A1) (B1) (A1) (B2) (B2) (A1) (B1)
                 (A2) (B2) (A1) (A1) (B1) (B2) (A1) (A2) (A1) (B1)
                 (A1) (B1) (B2) (B2) (A2) (A1) (A1) (B1) (B2) (A1)
                 (A1) (A2) (A1) (B2) (A2) (B1) (A1) (B2) (A1) (B1)
                 (B2) (B1) (A1) (A1) (B1) (A1) (A2) (B2) (B1) (A1)
                 (B2) (A1) (B1) (B2) (A2) (B1) (B2) (A1) (A2) (A1)
                 (A1) (B2) (A1) (B1) (B2) (A2) (B1) (A1) (A2) (A1)
                 (A1) (B2) (B1) (B1) (B2) (A2) (A1) (B2) (A1) (A1)
                 (B1) (B1) (B2) (A2) (A1) (A1) (B1) (B2) (A1) (B2)
                 (A2) (B1) (A1) (B1) (A1) (B2) (A2) (B1) (B2) (A1)
                 (A2) (A1) (B2) (A1) (B1) (A1) (A1) (B1) (B2) (A2)
                 (A2) (B2) (A1) (B1) (B2) (B1) (B2) (A2) (A1) (A1)
                 (B1) (B2) (B1) (A1) (B1) (A2) (A1) (B2) (A2) (B2)
                 (A1) (B2) (B1) (A1) (A1) (B1) (B2) (B1) (A2) (B1)
                 (A1) (A2) (B2) (B1) (A1) (A2) (A1) (B1) (A1) (B2)
                 (A1) (B2) (B1) (B2) (A1) (B1) (B2) (A2) (A1) (A2)
                 (A1) (B2) (A1) (B1) (A1) (A2) (B1) (B2) (A1) (A2)
                 (B1) (B2) (A1) (B2) (B1) (A1) (B2) (B1) (A2) (A1)
                 (A1) (B1) (B2) (A2) (A1) (A1) (A1) (B1) (B2)
 Beta  Orbitals:
       Occupied  (A1) (B2) (A1) (B1) (A1) (A1) (B2) (B1) (A1) (A1)
                 (A2) (B2) (A1) (B1) (A1)
       Virtual   (B2) (B1) (A1) (B1) (A1) (B1) (A1) (B2) (B2) (A1)
                 (B1) (A2) (B2) (A1) (A1) (B1) (B2) (A1) (A2) (A1)
                 (B1) (A1) (B1) (B2) (B2) (A2) (A1) (A1) (B1) (B2)
                 (A1) (A1) (A2) (A1) (B2) (A2) (B1) (A1) (B2) (A1)
                 (B1) (B2) (B1) (A1) (A1) (B1) (A1) (A2) (B2) (B1)
                 (A1) (B2) (A1) (B1) (B2) (A2) (B1) (B2) (A1) (A2)
                 (A1) (A1) (B2) (A1) (B1) (B2) (A2) (B1) (A1) (A2)
                 (A1) (A1) (B2) (B1) (B1) (B2) (A2) (A1) (B2) (A1)
                 (A1) (B1) (B1) (B2) (A2) (A1) (A1) (B1) (B2) (A1)
                 (B2) (A2) (B1) (A1) (B1) (A1) (B2) (A2) (B1) (B2)
                 (A1) (A2) (A1) (B2) (A1) (B1) (A1) (A1) (B1) (B2)
                 (A2) (A2) (B2) (A1) (B1) (B2) (B1) (B2) (A2) (A1)
                 (A1) (B1) (B2) (B1) (A1) (B1) (A2) (A1) (B2) (A2)
                 (B2) (A1) (B2) (B1) (A1) (A1) (B1) (B2) (B1) (A2)
                 (B1) (A1) (A2) (B2) (B1) (A1) (A2) (A1) (B1) (A1)
                 (B2) (A1) (B2) (B1) (B2) (A1) (B1) (B2) (A2) (A1)
                 (A2) (A1) (B2) (A1) (B1) (A1) (A2) (B1) (B2) (A1)
                 (A2) (B1) (B2) (A1) (B2) (B1) (A1) (B2) (B1) (A2)
                 (A1) (A1) (B1) (B2) (A2) (A1) (A1) (A1) (B1) (B2)
 The electronic state of the initial guess is 2-B2.
 Initial guess <Sx>= 0.0000 <Sy>= 0.0000 <Sz>= 0.5000 <S**2>= 0.7500 S= 0.5000
 Leave Link  401 at Tue Jul  5 15:54:20 2016, MaxMem=  1835008000 cpu:         6.1
 (Enter /usr/local/gaussian/gaussian09/g09/l502.exe)
 UHF open shell SCF:
 Using DIIS extrapolation, IDIIS=  1040.
 Integral symmetry usage will be decided dynamically.
 Keep R1 and R2 ints in memory in symmetry-blocked form, NReq=279220797.
 IVT=      188093 IEndB=      188093 NGot=  1835008000 MDV=  1722666159
 LenX=  1722666159 LenY=  1722610493
 Requested convergence on RMS density matrix=1.00D-08 within 128 cycles.
 Requested convergence on MAX density matrix=1.00D-06.
 Requested convergence on             energy=1.00D-06.
 No special actions if energy rises.
 FoFCou: FMM=F IPFlag=           0 FMFlag=           0 FMFlg1=           0
         NFxFlg=           0 DoJE=F BraDBF=F KetDBF=F FulRan=T
         wScrn=  0.000000 ICntrl=     600 IOpCl=  0 I1Cent=           0 NGrid=           0
         NMat0=    1 NMatS0=  21115 NMatT0=    0 NMatD0=    1 NMtDS0=    0 NMtDT0=    0
 Petite list used in FoFCou.

 Cycle   1  Pass 1  IDiag  1:
 E= -190.745466080691    
 DIIS: error= 1.22D-02 at cycle   1 NSaved=   1.
 NSaved= 1 IEnMin= 1 EnMin= -190.745466080691     IErMin= 1 ErrMin= 1.22D-02
 ErrMax= 1.22D-02  0.00D+00 EMaxC= 1.00D-01 BMatC= 1.22D-01 BMatP= 1.22D-01
 IDIUse=3 WtCom= 8.78D-01 WtEn= 1.22D-01
 Coeff-Com:  0.100D+01
 Coeff-En:   0.100D+01
 Coeff:      0.100D+01
 Gap=     0.183 Goal=   None    Shift=    0.000
 Gap=     0.136 Goal=   None    Shift=    0.000
 GapD=    0.136 DampG=1.000 DampE=0.500 DampFc=0.5000 IDamp=-1.
 Damping current iteration by 5.00D-01
 RMSDP=4.22D-03 MaxDP=1.92D-01              OVMax= 6.59D-02

 Cycle   2  Pass 1  IDiag  1:
 E= -190.758175579362     Delta-E=       -0.012709498671 Rises=F Damp=T
 DIIS: error= 3.70D-03 at cycle   2 NSaved=   2.
 NSaved= 2 IEnMin= 2 EnMin= -190.758175579362     IErMin= 2 ErrMin= 3.70D-03
 ErrMax= 3.70D-03  0.00D+00 EMaxC= 1.00D-01 BMatC= 1.49D-02 BMatP= 1.22D-01
 IDIUse=3 WtCom= 9.63D-01 WtEn= 3.70D-02
 Coeff-Com: -0.117D+00 0.112D+01
 Coeff-En:   0.000D+00 0.100D+01
 Coeff:     -0.112D+00 0.111D+01
 Gap=     0.185 Goal=   None    Shift=    0.000
 Gap=     0.122 Goal=   None    Shift=    0.000
 RMSDP=1.13D-03 MaxDP=5.71D-02 DE=-1.27D-02 OVMax= 5.01D-02

 Cycle   3  Pass 1  IDiag  1:
 E= -190.770409732775     Delta-E=       -0.012234153412 Rises=F Damp=F
 DIIS: error= 4.72D-03 at cycle   3 NSaved=   3.
 NSaved= 3 IEnMin= 3 EnMin= -190.770409732775     IErMin= 2 ErrMin= 3.70D-03
 ErrMax= 4.72D-03  0.00D+00 EMaxC= 1.00D-01 BMatC= 7.16D-03 BMatP= 1.49D-02
 IDIUse=3 WtCom= 9.53D-01 WtEn= 4.72D-02
 Coeff-Com: -0.163D+00 0.488D+00 0.675D+00
 Coeff-En:   0.000D+00 0.000D+00 0.100D+01
 Coeff:     -0.155D+00 0.465D+00 0.691D+00
 Gap=     0.184 Goal=   None    Shift=    0.000
 Gap=     0.125 Goal=   None    Shift=    0.000
 RMSDP=5.29D-04 MaxDP=1.73D-02 DE=-1.22D-02 OVMax= 2.70D-02

 Cycle   4  Pass 1  IDiag  1:
 E= -190.771353440915     Delta-E=       -0.000943708141 Rises=F Damp=F
 DIIS: error= 2.97D-03 at cycle   4 NSaved=   4.
 NSaved= 4 IEnMin= 4 EnMin= -190.771353440915     IErMin= 4 ErrMin= 2.97D-03
 ErrMax= 2.97D-03  0.00D+00 EMaxC= 1.00D-01 BMatC= 3.07D-03 BMatP= 7.16D-03
 IDIUse=3 WtCom= 9.70D-01 WtEn= 2.97D-02
 Coeff-Com: -0.910D-01 0.209D+00 0.459D+00 0.424D+00
 Coeff-En:   0.000D+00 0.000D+00 0.320D+00 0.680D+00
 Coeff:     -0.883D-01 0.202D+00 0.455D+00 0.431D+00
 Gap=     0.186 Goal=   None    Shift=    0.000
 Gap=     0.124 Goal=   None    Shift=    0.000
 RMSDP=2.35D-04 MaxDP=8.52D-03 DE=-9.44D-04 OVMax= 1.25D-02

 Cycle   5  Pass 1  IDiag  1:
 E= -190.772126722516     Delta-E=       -0.000773281601 Rises=F Damp=F
 DIIS: error= 3.48D-04 at cycle   5 NSaved=   5.
 NSaved= 5 IEnMin= 5 EnMin= -190.772126722516     IErMin= 5 ErrMin= 3.48D-04
 ErrMax= 3.48D-04  0.00D+00 EMaxC= 1.00D-01 BMatC= 4.63D-05 BMatP= 3.07D-03
 IDIUse=3 WtCom= 9.97D-01 WtEn= 3.48D-03
 Coeff-Com: -0.125D-01 0.120D-01 0.774D-01 0.141D+00 0.782D+00
 Coeff-En:   0.000D+00 0.000D+00 0.000D+00 0.000D+00 0.100D+01
 Coeff:     -0.125D-01 0.120D-01 0.771D-01 0.141D+00 0.782D+00
 Gap=     0.186 Goal=   None    Shift=    0.000
 Gap=     0.125 Goal=   None    Shift=    0.000
 RMSDP=6.44D-05 MaxDP=3.15D-03 DE=-7.73D-04 OVMax= 1.66D-03

 Cycle   6  Pass 1  IDiag  1:
 E= -190.772138086936     Delta-E=       -0.000011364420 Rises=F Damp=F
 DIIS: error= 8.99D-05 at cycle   6 NSaved=   6.
 NSaved= 6 IEnMin= 6 EnMin= -190.772138086936     IErMin= 6 ErrMin= 8.99D-05
 ErrMax= 8.99D-05  0.00D+00 EMaxC= 1.00D-01 BMatC= 2.21D-06 BMatP= 4.63D-05
 IDIUse=1 WtCom= 1.00D+00 WtEn= 0.00D+00
 Coeff-Com:  0.244D-02-0.904D-02-0.718D-02 0.714D-02 0.158D+00 0.849D+00
 Coeff:      0.244D-02-0.904D-02-0.718D-02 0.714D-02 0.158D+00 0.849D+00
 Gap=     0.186 Goal=   None    Shift=    0.000
 Gap=     0.125 Goal=   None    Shift=    0.000
 RMSDP=1.82D-05 MaxDP=1.34D-03 DE=-1.14D-05 OVMax= 5.23D-04

 Cycle   7  Pass 1  IDiag  1:
 E= -190.772138775812     Delta-E=       -0.000000688876 Rises=F Damp=F
 DIIS: error= 6.19D-05 at cycle   7 NSaved=   7.
 NSaved= 7 IEnMin= 7 EnMin= -190.772138775812     IErMin= 7 ErrMin= 6.19D-05
 ErrMax= 6.19D-05  0.00D+00 EMaxC= 1.00D-01 BMatC= 9.78D-07 BMatP= 2.21D-06
 IDIUse=1 WtCom= 1.00D+00 WtEn= 0.00D+00
 Coeff-Com:  0.311D-02-0.615D-02-0.151D-01-0.180D-01-0.401D-01 0.430D+00
 Coeff-Com:  0.646D+00
 Coeff:      0.311D-02-0.615D-02-0.151D-01-0.180D-01-0.401D-01 0.430D+00
 Coeff:      0.646D+00
 Gap=     0.186 Goal=   None    Shift=    0.000
 Gap=     0.125 Goal=   None    Shift=    0.000
 RMSDP=8.52D-06 MaxDP=3.95D-04 DE=-6.89D-07 OVMax= 4.12D-04

 Cycle   8  Pass 1  IDiag  1:
 E= -190.772139107688     Delta-E=       -0.000000331875 Rises=F Damp=F
 DIIS: error= 1.12D-05 at cycle   8 NSaved=   8.
 NSaved= 8 IEnMin= 8 EnMin= -190.772139107688     IErMin= 8 ErrMin= 1.12D-05
 ErrMax= 1.12D-05  0.00D+00 EMaxC= 1.00D-01 BMatC= 4.53D-08 BMatP= 9.78D-07
 IDIUse=1 WtCom= 1.00D+00 WtEn= 0.00D+00
 Coeff-Com: -0.136D-03 0.691D-03-0.149D-03-0.161D-02-0.974D-02-0.836D-01
 Coeff-Com:  0.345D-01 0.106D+01
 Coeff:     -0.136D-03 0.691D-03-0.149D-03-0.161D-02-0.974D-02-0.836D-01
 Coeff:      0.345D-01 0.106D+01
 Gap=     0.186 Goal=   None    Shift=    0.000
 Gap=     0.125 Goal=   None    Shift=    0.000
 RMSDP=2.87D-06 MaxDP=1.28D-04 DE=-3.32D-07 OVMax= 2.49D-04

 Cycle   9  Pass 1  IDiag  1:
 E= -190.772139151449     Delta-E=       -0.000000043762 Rises=F Damp=F
 DIIS: error= 5.32D-06 at cycle   9 NSaved=   9.
 NSaved= 9 IEnMin= 9 EnMin= -190.772139151449     IErMin= 9 ErrMin= 5.32D-06
 ErrMax= 5.32D-06  0.00D+00 EMaxC= 1.00D-01 BMatC= 7.91D-09 BMatP= 4.53D-08
 IDIUse=1 WtCom= 1.00D+00 WtEn= 0.00D+00
 Coeff-Com: -0.578D-03 0.118D-02 0.261D-02 0.328D-02 0.778D-02-0.970D-01
 Coeff-Com: -0.110D+00 0.144D+00 0.105D+01
 Coeff:     -0.578D-03 0.118D-02 0.261D-02 0.328D-02 0.778D-02-0.970D-01
 Coeff:     -0.110D+00 0.144D+00 0.105D+01
 Gap=     0.186 Goal=   None    Shift=    0.000
 Gap=     0.125 Goal=   None    Shift=    0.000
 RMSDP=1.32D-06 MaxDP=4.82D-05 DE=-4.38D-08 OVMax= 1.27D-04

 Cycle  10  Pass 1  IDiag  1:
 E= -190.772139159485     Delta-E=       -0.000000008036 Rises=F Damp=F
 DIIS: error= 1.45D-06 at cycle  10 NSaved=  10.
 NSaved=10 IEnMin=10 EnMin= -190.772139159485     IErMin=10 ErrMin= 1.45D-06
 ErrMax= 1.45D-06  0.00D+00 EMaxC= 1.00D-01 BMatC= 4.78D-10 BMatP= 7.91D-09
 IDIUse=1 WtCom= 1.00D+00 WtEn= 0.00D+00
 Coeff-Com: -0.615D-04 0.874D-04 0.442D-03 0.578D-03 0.191D-02-0.380D-02
 Coeff-Com: -0.161D-01-0.914D-01 0.124D+00 0.984D+00
 Coeff:     -0.615D-04 0.874D-04 0.442D-03 0.578D-03 0.191D-02-0.380D-02
 Coeff:     -0.161D-01-0.914D-01 0.124D+00 0.984D+00
 Gap=     0.186 Goal=   None    Shift=    0.000
 Gap=     0.125 Goal=   None    Shift=    0.000
 RMSDP=3.66D-07 MaxDP=1.19D-05 DE=-8.04D-09 OVMax= 3.05D-05

 Cycle  11  Pass 1  IDiag  1:
 E= -190.772139159942     Delta-E=       -0.000000000456 Rises=F Damp=F
 DIIS: error= 2.76D-07 at cycle  11 NSaved=  11.
 NSaved=11 IEnMin=11 EnMin= -190.772139159942     IErMin=11 ErrMin= 2.76D-07
 ErrMax= 2.76D-07  0.00D+00 EMaxC= 1.00D-01 BMatC= 3.23D-11 BMatP= 4.78D-10
 IDIUse=1 WtCom= 1.00D+00 WtEn= 0.00D+00
 Coeff-Com:  0.325D-04-0.655D-04-0.134D-03-0.223D-03-0.502D-03 0.534D-02
 Coeff-Com:  0.627D-02-0.806D-02-0.590D-01 0.225D-01 0.103D+01
 Coeff:      0.325D-04-0.655D-04-0.134D-03-0.223D-03-0.502D-03 0.534D-02
 Coeff:      0.627D-02-0.806D-02-0.590D-01 0.225D-01 0.103D+01
 Gap=     0.186 Goal=   None    Shift=    0.000
 Gap=     0.125 Goal=   None    Shift=    0.000
 RMSDP=5.90D-08 MaxDP=1.54D-06 DE=-4.56D-10 OVMax= 5.44D-06

 Cycle  12  Pass 1  IDiag  1:
 E= -190.772139159967     Delta-E=       -0.000000000026 Rises=F Damp=F
 DIIS: error= 1.13D-07 at cycle  12 NSaved=  12.
 NSaved=12 IEnMin=12 EnMin= -190.772139159967     IErMin=12 ErrMin= 1.13D-07
 ErrMax= 1.13D-07  0.00D+00 EMaxC= 1.00D-01 BMatC= 3.98D-12 BMatP= 3.23D-11
 IDIUse=1 WtCom= 1.00D+00 WtEn= 0.00D+00
 Coeff-Com:  0.329D-05-0.346D-05-0.383D-04-0.200D-04-0.123D-03-0.231D-03
 Coeff-Com:  0.966D-03 0.101D-01-0.651D-02-0.108D+00-0.127D+00 0.123D+01
 Coeff:      0.329D-05-0.346D-05-0.383D-04-0.200D-04-0.123D-03-0.231D-03
 Coeff:      0.966D-03 0.101D-01-0.651D-02-0.108D+00-0.127D+00 0.123D+01
 Gap=     0.186 Goal=   None    Shift=    0.000
 Gap=     0.125 Goal=   None    Shift=    0.000
 RMSDP=2.83D-08 MaxDP=8.95D-07 DE=-2.58D-11 OVMax= 3.02D-06

 Cycle  13  Pass 1  IDiag  1:
 E= -190.772139159976     Delta-E=       -0.000000000009 Rises=F Damp=F
 DIIS: error= 3.36D-08 at cycle  13 NSaved=  13.
 NSaved=13 IEnMin=13 EnMin= -190.772139159976     IErMin=13 ErrMin= 3.36D-08
 ErrMax= 3.36D-08  0.00D+00 EMaxC= 1.00D-01 BMatC= 2.83D-13 BMatP= 3.98D-12
 IDIUse=1 WtCom= 1.00D+00 WtEn= 0.00D+00
 Coeff-Com: -0.245D-05 0.475D-05 0.116D-04 0.138D-04 0.484D-04-0.395D-03
 Coeff-Com: -0.515D-03 0.290D-03 0.496D-02 0.380D-02-0.680D-01-0.981D-01
 Coeff-Com:  0.116D+01
 Coeff:     -0.245D-05 0.475D-05 0.116D-04 0.138D-04 0.484D-04-0.395D-03
 Coeff:     -0.515D-03 0.290D-03 0.496D-02 0.380D-02-0.680D-01-0.981D-01
 Coeff:      0.116D+01
 Gap=     0.186 Goal=   None    Shift=    0.000
 Gap=     0.125 Goal=   None    Shift=    0.000
 RMSDP=9.46D-09 MaxDP=3.20D-07 DE=-8.87D-12 OVMax= 9.61D-07

 SCF Done:  E(UB3LYP) =  -190.772139160     A.U. after   13 cycles
            NFock= 13  Conv=0.95D-08     -V/T= 2.0044
 <Sx>= 0.0000 <Sy>= 0.0000 <Sz>= 0.5000 <S**2>= 0.7560 S= 0.5030
 <L.S>= 0.000000000000E+00
 KE= 1.899314535050D+02 PE=-6.946468965331D+02 EE= 1.873799378305D+02
 Annihilation of the first spin contaminant:
 S**2 before annihilation     0.7560,   after     0.7500
 Leave Link  502 at Tue Jul  5 15:55:10 2016, MaxMem=  1835008000 cpu:       180.4
 (Enter /usr/local/gaussian/gaussian09/g09/l601.exe)
 Copying SCF densities to generalized density rwf, IOpCl= 1 IROHF=0.

 **********************************************************************

            Population analysis using the SCF density.

 **********************************************************************

 Orbital symmetries:
 Alpha Orbitals:
       Occupied  (A1) (A1) (B1) (B2) (A1) (A1) (B2) (B1) (A1) (A1)
                 (A2) (A1) (B2) (A1) (B1) (B2)
       Virtual   (B1) (A1) (A1) (B1) (A1) (B1) (B2) (A1) (B2) (A1)
                 (B1) (A2) (B2) (A1) (B1) (B2) (A1) (A1) (B1) (A2)
                 (B1) (A1) (B2) (B2) (A1) (A1) (A2) (B1) (B2) (A1)
                 (A1) (A2) (A1) (B2) (A2) (B1) (A1) (B2) (A1) (B1)
                 (A1) (B2) (B1) (A1) (B1) (A2) (A1) (B1) (B2) (B2)
                 (A1) (B1) (A1) (B2) (A2) (A1) (B1) (B2) (A2) (A1)
                 (A1) (A1) (B2) (B1) (B2) (A2) (B1) (A2) (A1) (A1)
                 (A1) (B2) (B1) (B1) (B2) (A2) (A1) (B2) (A1) (A1)
                 (B1) (B1) (B2) (A2) (A1) (A1) (B1) (B2) (A1) (B2)
                 (A2) (B1) (A1) (B1) (A1) (B2) (A2) (B1) (B2) (A1)
                 (A2) (A1) (B2) (B1) (A1) (A1) (A1) (B2) (B1) (A2)
                 (B2) (A2) (A1) (B1) (B2) (B1) (A2) (B2) (A1) (A1)
                 (B1) (B2) (B1) (A1) (A1) (A2) (B1) (B2) (A2) (B2)
                 (A1) (B2) (B1) (A1) (A1) (B1) (B2) (B1) (A2) (A1)
                 (B1) (A2) (B2) (B1) (A1) (A2) (A1) (B1) (B2) (A1)
                 (A1) (B2) (B1) (B2) (A1) (B1) (B2) (A2) (A1) (A2)
                 (A1) (B2) (A1) (B1) (A1) (A2) (B1) (A1) (B2) (A2)
                 (B1) (B2) (A1) (B2) (B1) (A1) (B2) (B1) (A2) (A1)
                 (A1) (B1) (B2) (A2) (A1) (A1) (A1) (B1) (B2)
 Beta  Orbitals:
       Occupied  (A1) (A1) (B1) (B2) (A1) (A1) (B2) (B1) (A1) (A1)
                 (A2) (B2) (A1) (B1) (A1)
       Virtual   (B2) (B1) (A1) (A1) (B1) (A1) (B1) (B2) (A1) (B2)
                 (A1) (B1) (A2) (B2) (A1) (B1) (B2) (A1) (A1) (B1)
                 (A2) (B1) (A1) (B2) (B2) (A1) (A1) (B1) (A2) (B2)
                 (A1) (A1) (A2) (B2) (A1) (A2) (B1) (A1) (B2) (A1)
                 (B1) (A1) (B1) (B2) (A1) (B1) (A2) (A1) (B1) (B2)
                 (B2) (A1) (B1) (A1) (B2) (A2) (B1) (A1) (B2) (A2)
                 (A1) (A1) (A1) (B2) (B1) (B2) (A2) (B1) (A2) (A1)
                 (A1) (A1) (B2) (B1) (B1) (B2) (A2) (A1) (B2) (A1)
                 (A1) (B1) (B1) (B2) (A2) (A1) (A1) (B1) (B2) (A1)
                 (B2) (A2) (B1) (A1) (B1) (A1) (B2) (A2) (B1) (B2)
                 (A1) (A2) (A1) (A1) (B2) (B1) (A1) (A1) (B1) (B2)
                 (A2) (A2) (B2) (A1) (B1) (B2) (B1) (A2) (B2) (A1)
                 (A1) (B1) (B2) (B1) (A1) (A1) (A2) (B1) (B2) (A2)
                 (B2) (A1) (B2) (B1) (A1) (A1) (B1) (B2) (B1) (A2)
                 (B1) (A1) (A2) (B2) (B1) (A1) (A2) (A1) (B1) (B2)
                 (A1) (A1) (B2) (B1) (B2) (A1) (B1) (B2) (A2) (A1)
                 (A2) (A1) (B2) (A1) (B1) (A1) (A2) (B1) (A1) (B2)
                 (A2) (B1) (B2) (A1) (B2) (B1) (A1) (B2) (B1) (A2)
                 (A1) (A1) (B1) (B2) (A2) (A1) (A1) (A1) (B1) (B2)
 The electronic state is 2-B2.
 Alpha  occ. eigenvalues --  -10.29022 -10.28385 -10.28379 -10.28088 -10.28081
 Alpha  occ. eigenvalues --   -1.09386  -0.74030  -0.67133  -0.66552  -0.49931
 Alpha  occ. eigenvalues --   -0.43818  -0.40859  -0.38699  -0.32511  -0.31857
 Alpha  occ. eigenvalues --   -0.29817
 Alpha virt. eigenvalues --   -0.11203  -0.03178  -0.00324   0.02451   0.02682
 Alpha virt. eigenvalues --    0.02944   0.03048   0.06213   0.07778   0.07988
 Alpha virt. eigenvalues --    0.08085   0.08174   0.09312   0.09817   0.11706
 Alpha virt. eigenvalues --    0.12056   0.12460   0.14398   0.14811   0.15045
 Alpha virt. eigenvalues --    0.15806   0.16437   0.17094   0.17706   0.20126
 Alpha virt. eigenvalues --    0.23576   0.24618   0.25050   0.27832   0.30387
 Alpha virt. eigenvalues --    0.33681   0.35935   0.36271   0.36877   0.38544
 Alpha virt. eigenvalues --    0.39133   0.42272   0.44976   0.48579   0.49418
 Alpha virt. eigenvalues --    0.50386   0.50507   0.51136   0.52823   0.53428
 Alpha virt. eigenvalues --    0.54967   0.55515   0.55837   0.56141   0.58538
 Alpha virt. eigenvalues --    0.60405   0.61418   0.62170   0.62893   0.64985
 Alpha virt. eigenvalues --    0.70796   0.70835   0.71233   0.72768   0.74511
 Alpha virt. eigenvalues --    0.83469   0.84547   0.84591   0.86663   0.94699
 Alpha virt. eigenvalues --    0.94992   0.95106   0.98668   0.99891   1.04602
 Alpha virt. eigenvalues --    1.05841   1.08140   1.10555   1.14511   1.16444
 Alpha virt. eigenvalues --    1.20238   1.21878   1.31145   1.33985   1.37610
 Alpha virt. eigenvalues --    1.39323   1.41774   1.43390   1.56774   1.60533
 Alpha virt. eigenvalues --    1.66111   1.67591   1.68993   1.71173   1.71181
 Alpha virt. eigenvalues --    1.74946   1.81921   1.84860   1.93284   1.97127
 Alpha virt. eigenvalues --    1.97189   1.98860   2.01246   2.03746   2.14104
 Alpha virt. eigenvalues --    2.20438   2.20734   2.28204   2.28680   2.28912
 Alpha virt. eigenvalues --    2.58733   2.66289   2.67394   2.67526   2.70859
 Alpha virt. eigenvalues --    2.75712   2.77095   2.77687   2.81149   2.86526
 Alpha virt. eigenvalues --    2.87736   2.91682   2.92738   2.94057   2.95495
 Alpha virt. eigenvalues --    3.03677   3.07090   3.12176   3.15610   3.21932
 Alpha virt. eigenvalues --    3.22244   3.23346   3.24023   3.27460   3.31188
 Alpha virt. eigenvalues --    3.41849   3.42838   3.46346   3.53234   3.56958
 Alpha virt. eigenvalues --    3.59344   3.77647   3.78033   3.93437   3.96429
 Alpha virt. eigenvalues --    3.96771   3.97713   4.09563   4.11886   4.13533
 Alpha virt. eigenvalues --    4.23598   4.26451   4.29909   4.36880   4.38040
 Alpha virt. eigenvalues --    4.44429   4.61191   4.65662   4.74303   4.92820
 Alpha virt. eigenvalues --    5.08301   5.29026   5.37574   5.90509   6.89952
 Alpha virt. eigenvalues --    7.00021   7.02236   7.13276   7.16004   7.25218
 Alpha virt. eigenvalues --    7.26819   7.30243   7.34976   7.35019   7.45811
 Alpha virt. eigenvalues --    7.49353   7.50987   7.57345   7.63100   7.68695
 Alpha virt. eigenvalues --    7.80433   7.82783   7.85825   7.86229   8.13182
 Alpha virt. eigenvalues --    8.53341   8.64154   8.82501   8.84711  24.32890
 Alpha virt. eigenvalues --   24.43131  24.47820  24.57340  24.63880
  Beta  occ. eigenvalues --  -10.29025 -10.28330 -10.28327 -10.27221 -10.27219
  Beta  occ. eigenvalues --   -1.08538  -0.72358  -0.66829  -0.66416  -0.49433
  Beta  occ. eigenvalues --   -0.43005  -0.38007  -0.36039  -0.31864  -0.30308
  Beta virt. eigenvalues --   -0.17832  -0.10854  -0.02860  -0.00057   0.02552
  Beta virt. eigenvalues --    0.02937   0.03188   0.03509   0.06402   0.07867
  Beta virt. eigenvalues --    0.08063   0.08096   0.08265   0.09717   0.09869
  Beta virt. eigenvalues --    0.11969   0.12191   0.12534   0.14480   0.14800
  Beta virt. eigenvalues --    0.15136   0.16065   0.16667   0.17569   0.18184
  Beta virt. eigenvalues --    0.20349   0.23899   0.25336   0.25779   0.28592
  Beta virt. eigenvalues --    0.30748   0.34501   0.36432   0.37289   0.37448
  Beta virt. eigenvalues --    0.38853   0.39155   0.42387   0.45692   0.48763
  Beta virt. eigenvalues --    0.49628   0.50893   0.51355   0.51589   0.53214
  Beta virt. eigenvalues --    0.53487   0.54921   0.56069   0.56105   0.56750
  Beta virt. eigenvalues --    0.59033   0.61402   0.61597   0.63253   0.64465
  Beta virt. eigenvalues --    0.65695   0.71295   0.71297   0.71652   0.73199
  Beta virt. eigenvalues --    0.75188   0.83548   0.84695   0.85100   0.86658
  Beta virt. eigenvalues --    0.94970   0.95063   0.95096   0.98957   1.00241
  Beta virt. eigenvalues --    1.04718   1.06209   1.08499   1.10759   1.14489
  Beta virt. eigenvalues --    1.16566   1.20723   1.22314   1.32652   1.34783
  Beta virt. eigenvalues --    1.38103   1.39525   1.41868   1.45588   1.57900
  Beta virt. eigenvalues --    1.60720   1.67325   1.69148   1.70872   1.71855
  Beta virt. eigenvalues --    1.72115   1.75543   1.82248   1.86559   1.93714
  Beta virt. eigenvalues --    1.98406   1.98917   1.99759   2.02065   2.04887
  Beta virt. eigenvalues --    2.15131   2.22503   2.23125   2.29186   2.29297
  Beta virt. eigenvalues --    2.29580   2.59095   2.66900   2.67748   2.67887
  Beta virt. eigenvalues --    2.71568   2.77493   2.77615   2.78032   2.82207
  Beta virt. eigenvalues --    2.87356   2.87770   2.92273   2.93802   2.94408
  Beta virt. eigenvalues --    2.96033   3.03700   3.08974   3.12302   3.16053
  Beta virt. eigenvalues --    3.22738   3.22909   3.23833   3.24474   3.28756
  Beta virt. eigenvalues --    3.32926   3.42391   3.43739   3.47224   3.54048
  Beta virt. eigenvalues --    3.58647   3.60543   3.78134   3.78435   3.94040
  Beta virt. eigenvalues --    3.97006   3.97533   3.98574   4.10444   4.12733
  Beta virt. eigenvalues --    4.14709   4.24783   4.26754   4.29894   4.38031
  Beta virt. eigenvalues --    4.40660   4.44672   4.62481   4.65982   4.75707
  Beta virt. eigenvalues --    4.93468   5.08789   5.30125   5.39113   5.90506
  Beta virt. eigenvalues --    6.90276   7.00674   7.03191   7.14187   7.16504
  Beta virt. eigenvalues --    7.25924   7.27044   7.30530   7.35641   7.35731
  Beta virt. eigenvalues --    7.46334   7.49968   7.54695   7.59195   7.63731
  Beta virt. eigenvalues --    7.70105   7.81023   7.84696   7.86592   7.87980
  Beta virt. eigenvalues --    8.15342   8.54132   8.64662   8.83491   8.86479
  Beta virt. eigenvalues --   24.33204  24.43147  24.48523  24.57436  24.64852
          Condensed to atoms (all electrons):
               1          2          3          4          5          6
     1  C    8.338589   1.262854  -1.326525  -1.326525  -0.727824  -0.082214
     2  C    1.262854   8.338589  -1.326525  -1.326525  -0.727824  -0.082214
     3  C   -1.326525  -1.326525   8.378986   0.997015  -0.389185  -0.062964
     4  C   -1.326525  -1.326525   0.997015   8.378986  -0.389185  -0.062964
     5  C   -0.727824  -0.727824  -0.389185  -0.389185   7.283924   0.468110
     6  H   -0.082214  -0.082214  -0.062964  -0.062964   0.468110   0.485918
          Atomic-Atomic Spin Densities.
               1          2          3          4          5          6
     1  C    0.469514  -0.391943   0.164125   0.164125   0.077890   0.015130
     2  C   -0.391943   0.469514   0.164125   0.164125   0.077890   0.015130
     3  C    0.164125   0.164125  -0.125466  -0.124113  -0.051041  -0.012939
     4  C    0.164125   0.164125  -0.124113  -0.125466  -0.051041  -0.012939
     5  C    0.077890   0.077890  -0.051041  -0.051041  -0.074122  -0.004846
     6  H    0.015130   0.015130  -0.012939  -0.012939  -0.004846  -0.001331
 Mulliken charges and spin densities:
               1          2
     1  C   -0.138355   0.498841
     2  C   -0.138355   0.498841
     3  C   -0.270802   0.014691
     4  C   -0.270802   0.014691
     5  C    0.481984  -0.025270
     6  H    0.336330  -0.001794
 Sum of Mulliken charges =  -0.00000   1.00000
 Mulliken charges and spin densities with hydrogens summed into heavy atoms:
               1          2
     1  C   -0.138355   0.498841
     2  C   -0.138355   0.498841
     3  C   -0.270802   0.014691
     4  C   -0.270802   0.014691
     5  C    0.818314  -0.027064
 Electronic spatial extent (au):  <R**2>=            196.8213
 Charge=              0.0000 electrons
 Dipole moment (field-independent basis, Debye):
    X=              0.0000    Y=              0.0000    Z=              2.1128  Tot=              2.1128
 Quadrupole moment (field-independent basis, Debye-Ang):
   XX=            -30.9985   YY=            -32.1655   ZZ=            -25.6247
   XY=             -0.0000   XZ=              0.0000   YZ=              0.0000
 Traceless Quadrupole moment (field-independent basis, Debye-Ang):
   XX=             -1.4023   YY=             -2.5693   ZZ=              3.9715
   XY=             -0.0000   XZ=              0.0000   YZ=              0.0000
 Octapole moment (field-independent basis, Debye-Ang**2):
  XXX=              0.0000  YYY=             -0.0000  ZZZ=             10.0551  XYY=              0.0000
  XXY=             -0.0000  XXZ=              3.6385  XZZ=              0.0000  YZZ=             -0.0000
  YYZ=              1.1155  XYZ=             -0.0000
 Hexadecapole moment (field-independent basis, Debye-Ang**3):
 XXXX=           -103.8327 YYYY=           -138.1566 ZZZZ=            -68.7381 XXXY=              0.0000
 XXXZ=             -0.0000 YYYX=             -0.0000 YYYZ=             -0.0000 ZZZX=              0.0000
 ZZZY=              0.0000 XXYY=            -36.8660 XXZZ=            -32.4383 YYZZ=            -35.5381
 XXYZ=              0.0000 YYXZ=              0.0000 ZZXY=              0.0000
 N-N= 1.265633660376D+02 E-N=-6.946468968695D+02  KE= 1.899314535050D+02
 Symmetry A1   KE= 1.098076233650D+02
 Symmetry A2   KE= 2.752055642993D+00
 Symmetry B1   KE= 3.794120230223D+01
 Symmetry B2   KE= 3.943057219473D+01
                          Isotropic Fermi Contact Couplings
        Atom                 a.u.       MegaHertz       Gauss      10(-4) cm-1
     1  C(13)              0.17477     196.47048      70.10555      65.53550
     2  C(13)              0.17477     196.47048      70.10555      65.53550
     3  C(13)             -0.02806     -31.55028     -11.25792     -10.52404
     4  C(13)             -0.02806     -31.55028     -11.25792     -10.52404
     5  C(13)             -0.01206     -13.55745      -4.83764      -4.52228
     6  H(1)              -0.00082      -3.65114      -1.30282      -1.21789
 --------------------------------------------------------
       Center         ----  Spin Dipole Couplings  ----
                      3XX-RR        3YY-RR        3ZZ-RR
 --------------------------------------------------------
     1   Atom       -0.332029      0.650988     -0.318959
     2   Atom       -0.332029      0.650988     -0.318959
     3   Atom       -0.038188      0.108470     -0.070282
     4   Atom       -0.038188      0.108470     -0.070282
     5   Atom       -0.032581      0.032186      0.000395
     6   Atom       -0.008071     -0.000413      0.008484
 --------------------------------------------------------
                        XY            XZ            YZ
 --------------------------------------------------------
     1   Atom       -0.000000     -0.000000      0.055096
     2   Atom       -0.000000      0.000000     -0.055096
     3   Atom       -0.000000     -0.013291     -0.000000
     4   Atom       -0.000000      0.013291     -0.000000
     5   Atom       -0.000000      0.000000      0.000000
     6   Atom        0.000000      0.000000      0.000000
 --------------------------------------------------------


 ---------------------------------------------------------------------------------
              Anisotropic Spin Dipole Couplings in Principal Axis System
 ---------------------------------------------------------------------------------

       Atom             a.u.   MegaHertz   Gauss  10(-4) cm-1        Axes

              Baa    -0.3320   -44.555   -15.898   -14.862  1.0000 -0.0000  0.0000
     1 C(13)  Bbb    -0.3221   -43.220   -15.422   -14.417 -0.0000 -0.0565  0.9984
              Bcc     0.6541    87.775    31.320    29.279 -0.0000  0.9984  0.0565
 
              Baa    -0.3320   -44.555   -15.898   -14.862  1.0000  0.0000  0.0000
     2 C(13)  Bbb    -0.3221   -43.220   -15.422   -14.417 -0.0000  0.0565  0.9984
              Bcc     0.6541    87.775    31.320    29.279 -0.0000  0.9984 -0.0565
 
              Baa    -0.0751   -10.074    -3.595    -3.360  0.3390  0.0000  0.9408
     3 C(13)  Bbb    -0.0334    -4.482    -1.599    -1.495  0.9408  0.0000 -0.3390
              Bcc     0.1085    14.556     5.194     4.855 -0.0000  1.0000 -0.0000
 
              Baa    -0.0751   -10.074    -3.595    -3.360 -0.3390  0.0000  0.9408
     4 C(13)  Bbb    -0.0334    -4.482    -1.599    -1.495  0.9408 -0.0000  0.3390
              Bcc     0.1085    14.556     5.194     4.855  0.0000  1.0000 -0.0000
 
              Baa    -0.0326    -4.372    -1.560    -1.458  1.0000  0.0000 -0.0000
     5 C(13)  Bbb     0.0004     0.053     0.019     0.018  0.0000 -0.0000  1.0000
              Bcc     0.0322     4.319     1.541     1.441 -0.0000  1.0000  0.0000
 
              Baa    -0.0081    -4.306    -1.537    -1.436  1.0000 -0.0000 -0.0000
     6 H(1)   Bbb    -0.0004    -0.221    -0.079    -0.074  0.0000  1.0000 -0.0000
              Bcc     0.0085     4.527     1.615     1.510  0.0000  0.0000  1.0000
 

 ---------------------------------------------------------------------------------

 No NMR shielding tensors so no spin-rotation constants.
 Leave Link  601 at Tue Jul  5 15:55:11 2016, MaxMem=  1835008000 cpu:         4.5
 (Enter /usr/local/gaussian/gaussian09/g09/l701.exe)
 Compute integral first derivatives.
 ... and contract with generalized density number  0.
 Leave Link  701 at Tue Jul  5 15:55:12 2016, MaxMem=  1835008000 cpu:         3.0
 (Enter /usr/local/gaussian/gaussian09/g09/l702.exe)
 L702 exits ... SP integral derivatives will be done elsewhere.
 Leave Link  702 at Tue Jul  5 15:55:12 2016, MaxMem=  1835008000 cpu:         0.5
 (Enter /usr/local/gaussian/gaussian09/g09/l703.exe)
 Compute integral first derivatives, UseDBF=F ICtDFT=           0.
 Integral derivatives from FoFJK, PRISM(SPDF).
 Calling FoFJK, ICntrl=      2127 FMM=F ISym2X=1 I1Cent= 0 IOpClX= 1 NMat=1 NMatS=1 NMatT=0.
 FoFJK:  IHMeth= 1 ICntrl=    2127 DoSepK=F KAlg= 0 I1Cent=   0 FoldK=F
 IRaf=         0 NMat=   1 IRICut=       1 DoRegI=T DoRafI=F ISym2E= 1.
 FoFCou: FMM=F IPFlag=           0 FMFlag=      100000 FMFlg1=         800
         NFxFlg=           0 DoJE=F BraDBF=F KetDBF=F FulRan=T
         wScrn=  0.000000 ICntrl=    2127 IOpCl=  1 I1Cent=           0 NGrid=           0
         NMat0=    1 NMatS0=      1 NMatT0=    0 NMatD0=    1 NMtDS0=    0 NMtDT0=    0
 Petite list used in FoFCou.
 Leave Link  703 at Tue Jul  5 15:55:39 2016, MaxMem=  1835008000 cpu:       105.4
 (Enter /usr/local/gaussian/gaussian09/g09/l716.exe)
 Dipole        = 1.77635684D-15 1.30523534D-15 8.31242204D-01
 ***** Axes restored to original set *****
 -------------------------------------------------------------------
 Center     Atomic                   Forces (Hartrees/Bohr)
 Number     Number              X              Y              Z
 -------------------------------------------------------------------
      1        6          -0.000725642   -0.000012832    0.000000000
      2        6           0.000725642   -0.000012832    0.000000000
      3        6          -0.000000000    0.000890658    0.001172858
      4        6          -0.000000000    0.000890658   -0.001172858
      5        6          -0.000000000   -0.006461358    0.000000000
      6        1          -0.000000000    0.004705706   -0.000000000
 -------------------------------------------------------------------
 Cartesian Forces:  Max     0.006461358 RMS     0.001961915
 Leave Link  716 at Tue Jul  5 15:55:39 2016, MaxMem=  1835008000 cpu:         0.7
 (Enter /usr/local/gaussian/gaussian09/g09/l103.exe)

 GradGradGradGradGradGradGradGradGradGradGradGradGradGradGradGradGradGrad
 Berny optimization.
 FormGI is forming the generalized inverse of G from B-inverse, IUseBI=4.
 Internal  Forces:  Max     0.004705706 RMS     0.000926134
 Search for a local minimum.
 Step number   1 out of a maximum of   40
 All quantities printed in internal units (Hartrees-Bohrs-Radians)
 RMS Force = .92613D-03 SwitMx=.10000D-02 MixMth= 2
 Mixed Optimization -- En-DIIS/RFO-DIIS
 Second derivative matrix not updated -- first step.
 ITU=  0
     Eigenvalues ---    0.04036   0.06706   0.07704   0.14739   0.22648
     Eigenvalues ---    0.25138   0.26849   0.27921   0.30157   0.31350
     Eigenvalues ---    0.31601   0.35994
 RFO step:  Lambda=-8.52176172D-05 EMin= 4.03630495D-02
 Linear search not attempted -- first point.
 Iteration  1 RMS(Cart)=  0.00248857 RMS(Int)=  0.00000637
 Iteration  2 RMS(Cart)=  0.00000326 RMS(Int)=  0.00000353
 Iteration  3 RMS(Cart)=  0.00000000 RMS(Int)=  0.00000353
 ITry= 1 IFail=0 DXMaxC= 8.49D-03 DCOld= 1.00D+10 DXMaxT= 3.00D-01 DXLimC= 3.00D+00 Rises=F
 ClnCor:  largest displacement from symmetrization is 1.16D-04 for atom     4.
 Variable       Old X    -DE/DX   Delta X   Delta X   Delta X     New X
                                 (Linear)    (Quad)   (Total)
    R1        2.81334  -0.00057   0.00000  -0.00177  -0.00179   2.81155
    R2        2.81334  -0.00050   0.00000  -0.00178  -0.00179   2.81155
    R3        2.87543   0.00017   0.00000  -0.00066  -0.00065   2.87478
    R4        2.81334  -0.00058   0.00000  -0.00177  -0.00179   2.81155
    R5        2.81334  -0.00056   0.00000  -0.00179  -0.00179   2.81155
    R6        2.87543   0.00022   0.00000  -0.00067  -0.00065   2.87478
    R7        3.04692   0.00029   0.00000   0.00351   0.00353   3.05045
    R8        3.04692   0.00044   0.00000   0.00365   0.00353   3.05045
    R9        2.04090  -0.00471   0.00000  -0.01307  -0.01307   2.02783
    A1        1.36671  -0.00030   0.00000  -0.00269  -0.00269   1.36402
    A2        1.36671  -0.00028   0.00000  -0.00268  -0.00269   1.36402
    A3        1.70311   0.00018   0.00000   0.00056   0.00057   1.70368
    A4        1.70311   0.00015   0.00000   0.00057   0.00057   1.70368
    A5        1.65447  -0.00042   0.00000  -0.00034  -0.00035   1.65412
    A6        2.31436   0.00022   0.00000   0.00020   0.00017   2.31453
    A7        2.31436   0.00020   0.00000   0.00014   0.00017   2.31453
    A8        1.24482  -0.00071   0.00000  -0.00496  -0.00494   1.23989
    A9        2.51918   0.00035   0.00000   0.00248   0.00247   2.52165
   A10        2.51918   0.00036   0.00000   0.00248   0.00247   2.52165
    D1       -0.37701  -0.00033   0.00000  -0.00548  -0.00543  -0.38244
    D2        0.37701   0.00033   0.00000   0.00549   0.00543   0.38244
    D3        1.17682   0.00035   0.00000   0.00329   0.00329   1.18011
    D4        0.37701   0.00034   0.00000   0.00548   0.00543   0.38244
    D5       -0.79981  -0.00006   0.00000   0.00212   0.00214  -0.79768
    D6       -0.37701  -0.00033   0.00000  -0.00548  -0.00543  -0.38244
    D7       -1.17682  -0.00033   0.00000  -0.00329  -0.00329  -1.18011
    D8       -0.77267   0.00029   0.00000   0.00257   0.00253  -0.77014
    D9        3.14159   0.00001   0.00000   0.00005   0.00000   3.14159
   D10        2.06294  -0.00000   0.00000  -0.00122  -0.00129   2.06165
   D11       -2.06294   0.00001   0.00000   0.00126   0.00129  -2.06165
         Item               Value     Threshold  Converged?
 Maximum Force            0.004706     0.000450     NO 
 RMS     Force            0.000926     0.000300     NO 
 Maximum Displacement     0.008486     0.001800     NO 
 RMS     Displacement     0.002483     0.001200     NO 
 Predicted change in Energy=-4.261231D-05
 Lowest energy point so far.  Saving SCF results.
 GradGradGradGradGradGradGradGradGradGradGradGradGradGradGradGradGradGrad

 Leave Link  103 at Tue Jul  5 15:55:39 2016, MaxMem=  1835008000 cpu:         0.2
 (Enter /usr/local/gaussian/gaussian09/g09/l202.exe)
                          Input orientation:                          
 ---------------------------------------------------------------------
 Center     Atomic      Atomic             Coordinates (Angstroms)
 Number     Number       Type             X           Y           Z
 ---------------------------------------------------------------------
      1          6           0        1.119568    0.157537   -0.000000
      2          6           0       -1.119568    0.157537    0.000000
      3          6           0       -0.000000    0.441410   -0.937849
      4          6           0        0.000000    0.441410    0.937849
      5          6           0        0.000000   -0.872426   -0.000000
      6          1           0       -0.000000   -1.945510   -0.000000
 ---------------------------------------------------------------------
                    Distance matrix (angstroms):
                    1          2          3          4          5
     1  C    0.000000
     2  C    2.239137   0.000000
     3  C    1.487810   1.487810   0.000000
     4  C    1.487810   1.487810   1.875698   0.000000
     5  C    1.521269   1.521269   1.614226   1.614226   0.000000
     6  H    2.382486   2.382486   2.564556   2.564556   1.073083
                    6
     6  H    0.000000
 Stoichiometry    C5H(2)
 Framework group  C2V[C2(CH),SGV(C2),SGV'(C2)]
 Deg. of freedom     5
 Full point group                 C2V     NOp   4
 RotChk:  IX=0 Diff= 2.36D-16
 Largest Abelian subgroup         C2V     NOp   4
 Largest concise Abelian subgroup C2V     NOp   4
                         Standard orientation:                         
 ---------------------------------------------------------------------
 Center     Atomic      Atomic             Coordinates (Angstroms)
 Number     Number       Type             X           Y           Z
 ---------------------------------------------------------------------
      1          6           0       -0.000000    1.119568   -0.157302
      2          6           0       -0.000000   -1.119568   -0.157302
      3          6           0        0.937849   -0.000000   -0.441174
      4          6           0       -0.937849    0.000000   -0.441174
      5          6           0        0.000000    0.000000    0.872662
      6          1           0        0.000000    0.000000    1.945745
 ---------------------------------------------------------------------
 Rotational constants (GHZ):     12.8701706     10.4762586      9.8722536
 Leave Link  202 at Tue Jul  5 15:55:39 2016, MaxMem=  1835008000 cpu:         0.2
 (Enter /usr/local/gaussian/gaussian09/g09/l301.exe)
 Standard basis: 6-311++G(3df,2p) (5D, 7F)
 Ernie: Thresh=  0.10000D-02 Tol=  0.10000D-05 Strict=F.
 There are    89 symmetry adapted cartesian basis functions of A1  symmetry.
 There are    32 symmetry adapted cartesian basis functions of A2  symmetry.
 There are    57 symmetry adapted cartesian basis functions of B1  symmetry.
 There are    57 symmetry adapted cartesian basis functions of B2  symmetry.
 There are    75 symmetry adapted basis functions of A1  symmetry.
 There are    30 symmetry adapted basis functions of A2  symmetry.
 There are    50 symmetry adapted basis functions of B1  symmetry.
 There are    50 symmetry adapted basis functions of B2  symmetry.
   205 basis functions,   302 primitive gaussians,   235 cartesian basis functions
    16 alpha electrons       15 beta electrons
       nuclear repulsion energy       126.6303498595 Hartrees.
 IExCor=  402 DFT=T Ex+Corr=B3LYP ExCW=0 ScaHFX=  0.200000
 ScaDFX=  0.800000  0.720000  1.000000  0.810000 ScalE2=  1.000000  1.000000
 IRadAn=      0 IRanWt=     -1 IRanGd=            0 ICorTp=0 IEmpDi=  4
 NAtoms=    6 NActive=    6 NUniq=    4 SFac= 2.25D+00 NAtFMM=   60 NAOKFM=F Big=F
 Integral buffers will be    131072 words long.
 Raffenetti 2 integral format.
 Two-electron integral symmetry is turned on.
 Leave Link  301 at Tue Jul  5 15:55:40 2016, MaxMem=  1835008000 cpu:         1.6
 (Enter /usr/local/gaussian/gaussian09/g09/l302.exe)
 NPDir=0 NMtPBC=     1 NCelOv=     1 NCel=       1 NClECP=     1 NCelD=      1
         NCelK=      1 NCelE2=     1 NClLst=     1 CellRange=     0.0.
 One-electron integrals computed using PRISM.
 One-electron integral symmetry used in STVInt
 NBasis=   205 RedAO= T EigKep=  2.50D-05  NBF=    75    30    50    50
 NBsUse=   205 1.00D-06 EigRej= -1.00D+00 NBFU=    75    30    50    50
 Precomputing XC quadrature grid using
 IXCGrd= 4 IRadAn=           0 IRanWt=          -1 IRanGd=           0 AccXCQ= 0.00D+00.
 Generated NRdTot=       0 NPtTot=           0 NUsed=           0 NTot=          32
 NSgBfM=   235   235   235   235   235 MxSgAt=     6 MxSgA2=     6.
 Leave Link  302 at Tue Jul  5 15:55:41 2016, MaxMem=  1835008000 cpu:         2.5
 (Enter /usr/local/gaussian/gaussian09/g09/l303.exe)
 DipDrv:  MaxL=1.
 Leave Link  303 at Tue Jul  5 15:55:41 2016, MaxMem=  1835008000 cpu:         0.9
 (Enter /usr/local/gaussian/gaussian09/g09/l401.exe)
 Initial guess from the checkpoint file:  "/scratch/sergio/HC5.q0.m2-14.bis.com-2105443/Gau-17081.chk"
 B after Tr=     0.000000   -0.000000    0.000000
         Rot=    1.000000    0.000000    0.000000   -0.000000 Ang=   0.00 deg.
 Guess basis will be translated and rotated to current coordinates.
 JPrj=2 DoOrth=T DoCkMO=T.
 Initial guess orbital symmetries:
 Alpha Orbitals:
       Occupied  (A1) (A1) (B1) (B2) (A1) (A1) (B2) (B1) (A1) (A1)
                 (A2) (A1) (B2) (A1) (B1) (B2)
       Virtual   (A1) (A1) (A1) (A1) (A1) (A1) (A1) (A1) (A1) (A1)
                 (A1) (A1) (A1) (A1) (A1) (A1) (A1) (A1) (A1) (A1)
                 (A1) (A1) (A1) (A1) (A1) (A1) (A1) (A1) (A1) (A1)
                 (A1) (A1) (A1) (A1) (A1) (A1) (A1) (A1) (A1) (A1)
                 (A1) (A1) (A1) (A1) (A1) (A1) (A1) (A1) (A1) (A1)
                 (A1) (A1) (A1) (A1) (A1) (A1) (A1) (A1) (A1) (A1)
                 (A1) (A1) (A1) (A1) (A1) (A1) (A1) (A2) (A2) (A2)
                 (A2) (A2) (A2) (A2) (A2) (A2) (A2) (A2) (A2) (A2)
                 (A2) (A2) (A2) (A2) (A2) (A2) (A2) (A2) (A2) (A2)
                 (A2) (A2) (A2) (A2) (A2) (A2) (B1) (B1) (B1) (B1)
                 (B1) (B1) (B1) (B1) (B1) (B1) (B1) (B1) (B1) (B1)
                 (B1) (B1) (B1) (B1) (B1) (B1) (B1) (B1) (B1) (B1)
                 (B1) (B1) (B1) (B1) (B1) (B1) (B1) (B1) (B1) (B1)
                 (B1) (B1) (B1) (B1) (B1) (B1) (B1) (B1) (B1) (B1)
                 (B1) (B1) (B1) (B2) (B2) (B2) (B2) (B2) (B2) (B2)
                 (B2) (B2) (B2) (B2) (B2) (B2) (B2) (B2) (B2) (B2)
                 (B2) (B2) (B2) (B2) (B2) (B2) (B2) (B2) (B2) (B2)
                 (B2) (B2) (B2) (B2) (B2) (B2) (B2) (B2) (B2) (B2)
                 (B2) (B2) (B2) (B2) (B2) (B2) (B2) (B2) (B2)
 Beta  Orbitals:
       Occupied  (A1) (A1) (B1) (B2) (A1) (A1) (B2) (B1) (A1) (A1)
                 (A2) (B2) (A1) (B1) (A1)
       Virtual   (A1) (A1) (A1) (A1) (A1) (A1) (A1) (A1) (A1) (A1)
                 (A1) (A1) (A1) (A1) (A1) (A1) (A1) (A1) (A1) (A1)
                 (A1) (A1) (A1) (A1) (A1) (A1) (A1) (A1) (A1) (A1)
                 (A1) (A1) (A1) (A1) (A1) (A1) (A1) (A1) (A1) (A1)
                 (A1) (A1) (A1) (A1) (A1) (A1) (A1) (A1) (A1) (A1)
                 (A1) (A1) (A1) (A1) (A1) (A1) (A1) (A1) (A1) (A1)
                 (A1) (A1) (A1) (A1) (A1) (A1) (A1) (A2) (A2) (A2)
                 (A2) (A2) (A2) (A2) (A2) (A2) (A2) (A2) (A2) (A2)
                 (A2) (A2) (A2) (A2) (A2) (A2) (A2) (A2) (A2) (A2)
                 (A2) (A2) (A2) (A2) (A2) (A2) (B1) (B1) (B1) (B1)
                 (B1) (B1) (B1) (B1) (B1) (B1) (B1) (B1) (B1) (B1)
                 (B1) (B1) (B1) (B1) (B1) (B1) (B1) (B1) (B1) (B1)
                 (B1) (B1) (B1) (B1) (B1) (B1) (B1) (B1) (B1) (B1)
                 (B1) (B1) (B1) (B1) (B1) (B1) (B1) (B1) (B1) (B1)
                 (B1) (B1) (B1) (B2) (B2) (B2) (B2) (B2) (B2) (B2)
                 (B2) (B2) (B2) (B2) (B2) (B2) (B2) (B2) (B2) (B2)
                 (B2) (B2) (B2) (B2) (B2) (B2) (B2) (B2) (B2) (B2)
                 (B2) (B2) (B2) (B2) (B2) (B2) (B2) (B2) (B2) (B2)
                 (B2) (B2) (B2) (B2) (B2) (B2) (B2) (B2) (B2) (B2)
 The electronic state of the initial guess is 2-B2.
 Initial guess <Sx>= 0.0000 <Sy>= 0.0000 <Sz>= 0.5000 <S**2>= 0.7560 S= 0.5030
 Leave Link  401 at Tue Jul  5 15:55:42 2016, MaxMem=  1835008000 cpu:         2.5
 (Enter /usr/local/gaussian/gaussian09/g09/l502.exe)
 UHF open shell SCF:
 Using DIIS extrapolation, IDIIS=  1040.
 Integral symmetry usage will be decided dynamically.
 Keep R1 and R2 ints in memory in symmetry-blocked form, NReq=279220797.
 IVT=      188093 IEndB=      188093 NGot=  1835008000 MDV=  1722666159
 LenX=  1722666159 LenY=  1722610493
 Requested convergence on RMS density matrix=1.00D-08 within 128 cycles.
 Requested convergence on MAX density matrix=1.00D-06.
 Requested convergence on             energy=1.00D-06.
 No special actions if energy rises.
 FoFCou: FMM=F IPFlag=           0 FMFlag=           0 FMFlg1=           0
         NFxFlg=           0 DoJE=F BraDBF=F KetDBF=F FulRan=T
         wScrn=  0.000000 ICntrl=     600 IOpCl=  0 I1Cent=           0 NGrid=           0
         NMat0=    1 NMatS0=  21115 NMatT0=    0 NMatD0=    1 NMtDS0=    0 NMtDT0=    0
 Petite list used in FoFCou.

 Cycle   1  Pass 1  IDiag  1:
 E= -190.772153872707    
 DIIS: error= 4.25D-04 at cycle   1 NSaved=   1.
 NSaved= 1 IEnMin= 1 EnMin= -190.772153872707     IErMin= 1 ErrMin= 4.25D-04
 ErrMax= 4.25D-04  0.00D+00 EMaxC= 1.00D-01 BMatC= 1.18D-04 BMatP= 1.18D-04
 IDIUse=3 WtCom= 9.96D-01 WtEn= 4.25D-03
 Coeff-Com:  0.100D+01
 Coeff-En:   0.100D+01
 Coeff:      0.100D+01
 Gap=     0.391 Goal=   None    Shift=    0.000
 Gap=     0.361 Goal=   None    Shift=    0.000
 RMSDP=1.05D-04 MaxDP=4.04D-03              OVMax= 2.28D-03

 Cycle   2  Pass 1  IDiag  1:
 E= -190.772180736399     Delta-E=       -0.000026863692 Rises=F Damp=F
 DIIS: error= 2.02D-04 at cycle   2 NSaved=   2.
 NSaved= 2 IEnMin= 2 EnMin= -190.772180736399     IErMin= 2 ErrMin= 2.02D-04
 ErrMax= 2.02D-04  0.00D+00 EMaxC= 1.00D-01 BMatC= 1.13D-05 BMatP= 1.18D-04
 IDIUse=3 WtCom= 9.98D-01 WtEn= 2.02D-03
 Coeff-Com:  0.110D+00 0.890D+00
 Coeff-En:   0.000D+00 0.100D+01
 Coeff:      0.110D+00 0.890D+00
 Gap=     0.187 Goal=   None    Shift=    0.000
 Gap=     0.124 Goal=   None    Shift=    0.000
 RMSDP=2.36D-05 MaxDP=7.23D-04 DE=-2.69D-05 OVMax= 1.78D-03

 Cycle   3  Pass 1  IDiag  1:
 E= -190.772177090900     Delta-E=        0.000003645499 Rises=F Damp=F
 DIIS: error= 3.04D-04 at cycle   3 NSaved=   3.
 NSaved= 3 IEnMin= 2 EnMin= -190.772180736399     IErMin= 2 ErrMin= 2.02D-04
 ErrMax= 3.04D-04  0.00D+00 EMaxC= 1.00D-01 BMatC= 2.69D-05 BMatP= 1.13D-05
 IDIUse=3 WtCom= 3.64D-01 WtEn= 6.36D-01
 Coeff-Com: -0.530D-02 0.613D+00 0.392D+00
 Coeff-En:   0.000D+00 0.662D+00 0.338D+00
 Coeff:     -0.193D-02 0.644D+00 0.358D+00
 Gap=     0.187 Goal=   None    Shift=    0.000
 Gap=     0.124 Goal=   None    Shift=    0.000
 RMSDP=1.47D-05 MaxDP=4.70D-04 DE= 3.65D-06 OVMax= 1.02D-03

 Cycle   4  Pass 1  IDiag  1:
 E= -190.772183657450     Delta-E=       -0.000006566550 Rises=F Damp=F
 DIIS: error= 2.16D-05 at cycle   4 NSaved=   4.
 NSaved= 4 IEnMin= 4 EnMin= -190.772183657450     IErMin= 4 ErrMin= 2.16D-05
 ErrMax= 2.16D-05  0.00D+00 EMaxC= 1.00D-01 BMatC= 1.96D-07 BMatP= 1.13D-05
 IDIUse=1 WtCom= 1.00D+00 WtEn= 0.00D+00
 Coeff-Com: -0.598D-02 0.138D+00 0.345D-01 0.834D+00
 Coeff:     -0.598D-02 0.138D+00 0.345D-01 0.834D+00
 Gap=     0.187 Goal=   None    Shift=    0.000
 Gap=     0.124 Goal=   None    Shift=    0.000
 RMSDP=2.25D-06 MaxDP=7.93D-05 DE=-6.57D-06 OVMax= 1.92D-04

 Cycle   5  Pass 1  IDiag  1:
 E= -190.772183714162     Delta-E=       -0.000000056712 Rises=F Damp=F
 DIIS: error= 9.80D-06 at cycle   5 NSaved=   5.
 NSaved= 5 IEnMin= 5 EnMin= -190.772183714162     IErMin= 5 ErrMin= 9.80D-06
 ErrMax= 9.80D-06  0.00D+00 EMaxC= 1.00D-01 BMatC= 3.86D-08 BMatP= 1.96D-07
 IDIUse=1 WtCom= 1.00D+00 WtEn= 0.00D+00
 Coeff-Com: -0.218D-02 0.207D-01-0.141D-01 0.389D+00 0.606D+00
 Coeff:     -0.218D-02 0.207D-01-0.141D-01 0.389D+00 0.606D+00
 Gap=     0.187 Goal=   None    Shift=    0.000
 Gap=     0.124 Goal=   None    Shift=    0.000
 RMSDP=1.08D-06 MaxDP=3.98D-05 DE=-5.67D-08 OVMax= 7.38D-05

 Cycle   6  Pass 1  IDiag  1:
 E= -190.772183727726     Delta-E=       -0.000000013564 Rises=F Damp=F
 DIIS: error= 2.78D-06 at cycle   6 NSaved=   6.
 NSaved= 6 IEnMin= 6 EnMin= -190.772183727726     IErMin= 6 ErrMin= 2.78D-06
 ErrMax= 2.78D-06  0.00D+00 EMaxC= 1.00D-01 BMatC= 3.41D-09 BMatP= 3.86D-08
 IDIUse=1 WtCom= 1.00D+00 WtEn= 0.00D+00
 Coeff-Com:  0.120D-02-0.307D-01-0.131D-01-0.126D+00 0.495D-01 0.112D+01
 Coeff:      0.120D-02-0.307D-01-0.131D-01-0.126D+00 0.495D-01 0.112D+01
 Gap=     0.187 Goal=   None    Shift=    0.000
 Gap=     0.124 Goal=   None    Shift=    0.000
 RMSDP=8.58D-07 MaxDP=2.54D-05 DE=-1.36D-08 OVMax= 1.02D-04

 Cycle   7  Pass 1  IDiag  1:
 E= -190.772183731818     Delta-E=       -0.000000004092 Rises=F Damp=F
 DIIS: error= 1.49D-06 at cycle   7 NSaved=   7.
 NSaved= 7 IEnMin= 7 EnMin= -190.772183731818     IErMin= 7 ErrMin= 1.49D-06
 ErrMax= 1.49D-06  0.00D+00 EMaxC= 1.00D-01 BMatC= 7.45D-10 BMatP= 3.41D-09
 IDIUse=1 WtCom= 1.00D+00 WtEn= 0.00D+00
 Coeff-Com:  0.665D-03-0.111D-01-0.140D-02-0.100D+00-0.104D+00 0.301D+00
 Coeff-Com:  0.914D+00
 Coeff:      0.665D-03-0.111D-01-0.140D-02-0.100D+00-0.104D+00 0.301D+00
 Coeff:      0.914D+00
 Gap=     0.187 Goal=   None    Shift=    0.000
 Gap=     0.124 Goal=   None    Shift=    0.000
 RMSDP=3.85D-07 MaxDP=1.67D-05 DE=-4.09D-09 OVMax= 3.55D-05

 Cycle   8  Pass 1  IDiag  1:
 E= -190.772183732360     Delta-E=       -0.000000000542 Rises=F Damp=F
 DIIS: error= 5.69D-07 at cycle   8 NSaved=   8.
 NSaved= 8 IEnMin= 8 EnMin= -190.772183732360     IErMin= 8 ErrMin= 5.69D-07
 ErrMax= 5.69D-07  0.00D+00 EMaxC= 1.00D-01 BMatC= 1.48D-10 BMatP= 7.45D-10
 IDIUse=1 WtCom= 1.00D+00 WtEn= 0.00D+00
 Coeff-Com:  0.850D-04 0.124D-02 0.184D-02-0.192D-01-0.533D-01-0.640D-01
 Coeff-Com:  0.401D+00 0.732D+00
 Coeff:      0.850D-04 0.124D-02 0.184D-02-0.192D-01-0.533D-01-0.640D-01
 Coeff:      0.401D+00 0.732D+00
 Gap=     0.187 Goal=   None    Shift=    0.000
 Gap=     0.124 Goal=   None    Shift=    0.000
 RMSDP=1.13D-07 MaxDP=4.17D-06 DE=-5.42D-10 OVMax= 7.89D-06

 Cycle   9  Pass 1  IDiag  1:
 E= -190.772183732413     Delta-E=       -0.000000000053 Rises=F Damp=F
 DIIS: error= 1.06D-07 at cycle   9 NSaved=   9.
 NSaved= 9 IEnMin= 9 EnMin= -190.772183732413     IErMin= 9 ErrMin= 1.06D-07
 ErrMax= 1.06D-07  0.00D+00 EMaxC= 1.00D-01 BMatC= 7.87D-12 BMatP= 1.48D-10
 IDIUse=1 WtCom= 1.00D+00 WtEn= 0.00D+00
 Coeff-Com: -0.346D-04 0.135D-02 0.824D-03 0.209D-02-0.836D-02-0.405D-01
 Coeff-Com:  0.670D-01 0.224D+00 0.754D+00
 Coeff:     -0.346D-04 0.135D-02 0.824D-03 0.209D-02-0.836D-02-0.405D-01
 Coeff:      0.670D-01 0.224D+00 0.754D+00
 Gap=     0.187 Goal=   None    Shift=    0.000
 Gap=     0.124 Goal=   None    Shift=    0.000
 RMSDP=2.95D-08 MaxDP=1.17D-06 DE=-5.30D-11 OVMax= 1.14D-06

 Cycle  10  Pass 1  IDiag  1:
 E= -190.772183732418     Delta-E=       -0.000000000005 Rises=F Damp=F
 DIIS: error= 4.22D-08 at cycle  10 NSaved=  10.
 NSaved=10 IEnMin=10 EnMin= -190.772183732418     IErMin=10 ErrMin= 4.22D-08
 ErrMax= 4.22D-08  0.00D+00 EMaxC= 1.00D-01 BMatC= 6.84D-13 BMatP= 7.87D-12
 IDIUse=1 WtCom= 1.00D+00 WtEn= 0.00D+00
 Coeff-Com: -0.131D-04 0.520D-04 0.311D-04 0.201D-02 0.410D-02 0.204D-02
 Coeff-Com: -0.322D-01-0.575D-01 0.619D-01 0.102D+01
 Coeff:     -0.131D-04 0.520D-04 0.311D-04 0.201D-02 0.410D-02 0.204D-02
 Coeff:     -0.322D-01-0.575D-01 0.619D-01 0.102D+01
 Gap=     0.187 Goal=   None    Shift=    0.000
 Gap=     0.124 Goal=   None    Shift=    0.000
 RMSDP=8.41D-09 MaxDP=2.41D-07 DE=-4.95D-12 OVMax= 4.75D-07

 SCF Done:  E(UB3LYP) =  -190.772183732     A.U. after   10 cycles
            NFock= 10  Conv=0.84D-08     -V/T= 2.0044
 <Sx>= 0.0000 <Sy>= 0.0000 <Sz>= 0.5000 <S**2>= 0.7560 S= 0.5030
 <L.S>= 0.000000000000E+00
 KE= 1.899451294346D+02 PE=-6.947869903831D+02 EE= 1.874393273567D+02
 Annihilation of the first spin contaminant:
 S**2 before annihilation     0.7560,   after     0.7500
 Leave Link  502 at Tue Jul  5 15:56:33 2016, MaxMem=  1835008000 cpu:       186.8
 (Enter /usr/local/gaussian/gaussian09/g09/l701.exe)
 Compute integral first derivatives.
 ... and contract with generalized density number  0.
 Leave Link  701 at Tue Jul  5 15:56:34 2016, MaxMem=  1835008000 cpu:         2.4
 (Enter /usr/local/gaussian/gaussian09/g09/l702.exe)
 L702 exits ... SP integral derivatives will be done elsewhere.
 Leave Link  702 at Tue Jul  5 15:56:34 2016, MaxMem=  1835008000 cpu:         0.6
 (Enter /usr/local/gaussian/gaussian09/g09/l703.exe)
 Compute integral first derivatives, UseDBF=F ICtDFT=           0.
 Integral derivatives from FoFJK, PRISM(SPDF).
 Calling FoFJK, ICntrl=      2127 FMM=F ISym2X=1 I1Cent= 0 IOpClX= 1 NMat=1 NMatS=1 NMatT=0.
 FoFJK:  IHMeth= 1 ICntrl=    2127 DoSepK=F KAlg= 0 I1Cent=   0 FoldK=F
 IRaf=         0 NMat=   1 IRICut=       1 DoRegI=T DoRafI=F ISym2E= 1.
 FoFCou: FMM=F IPFlag=           0 FMFlag=      100000 FMFlg1=         800
         NFxFlg=           0 DoJE=F BraDBF=F KetDBF=F FulRan=T
         wScrn=  0.000000 ICntrl=    2127 IOpCl=  1 I1Cent=           0 NGrid=           0
         NMat0=    1 NMatS0=      1 NMatT0=    0 NMatD0=    1 NMtDS0=    0 NMtDT0=    0
 Petite list used in FoFCou.
 Leave Link  703 at Tue Jul  5 15:57:00 2016, MaxMem=  1835008000 cpu:       104.2
 (Enter /usr/local/gaussian/gaussian09/g09/l716.exe)
 Dipole        = 1.72563323D-31 1.30224858D-15 8.30066070D-01
 ***** Axes restored to original set *****
 -------------------------------------------------------------------
 Center     Atomic                   Forces (Hartrees/Bohr)
 Number     Number              X              Y              Z
 -------------------------------------------------------------------
      1        6          -0.000362244    0.000037798   -0.000000000
      2        6           0.000362244    0.000037798    0.000000000
      3        6          -0.000000000    0.000420664   -0.000170028
      4        6          -0.000000000    0.000420664    0.000170028
      5        6           0.000000000   -0.000784866    0.000000000
      6        1           0.000000000   -0.000132058   -0.000000000
 -------------------------------------------------------------------
 Cartesian Forces:  Max     0.000784866 RMS     0.000269824
 Leave Link  716 at Tue Jul  5 15:57:01 2016, MaxMem=  1835008000 cpu:         0.8
 (Enter /usr/local/gaussian/gaussian09/g09/l103.exe)

 GradGradGradGradGradGradGradGradGradGradGradGradGradGradGradGradGradGrad
 Berny optimization.
 Using GEDIIS/GDIIS optimizer.
 FormGI is forming the generalized inverse of G from B-inverse, IUseBI=4.
 Internal  Forces:  Max     0.000382789 RMS     0.000133838
 Search for a local minimum.
 Step number   2 out of a maximum of   40
 All quantities printed in internal units (Hartrees-Bohrs-Radians)
 RMS Force = .13384D-03 SwitMx=.10000D-02 MixMth= 2
 Mixed Optimization -- En-DIIS/RFO-DIIS
 Swapping is turned off.
 Update second derivatives using D2CorX and points    1    2
 DE= -4.46D-05 DEPred=-4.26D-05 R= 1.05D+00
 TightC=F SS=  1.41D+00  RLast= 2.04D-02 DXNew= 5.0454D-01 6.1130D-02
 Trust test= 1.05D+00 RLast= 2.04D-02 DXMaxT set to 3.00D-01
 ITU=  1  0
     Eigenvalues ---    0.04010   0.06310   0.07685   0.14701   0.21176
     Eigenvalues ---    0.25271   0.26860   0.27921   0.30119   0.31157
     Eigenvalues ---    0.31596   0.39494
 En-DIIS/RFO-DIIS IScMMF=        0 using points:     2    1
 RFO step:  Lambda=-1.22251695D-06.
 NNeg= 0 NP= 2 Switch=  2.50D-03 Rises=F DC=  4.46D-05 SmlDif=  1.00D-05
 RMS Error=  0.3158492947D-03 NUsed= 2 EDIIS=F
 DidBck=F Rises=F RFO-DIIS coefs:    1.04382   -0.04382
 Iteration  1 RMS(Cart)=  0.00056411 RMS(Int)=  0.00000052
 Iteration  2 RMS(Cart)=  0.00000023 RMS(Int)=  0.00000037
 ITry= 1 IFail=0 DXMaxC= 1.56D-03 DCOld= 1.00D+10 DXMaxT= 3.00D-01 DXLimC= 3.00D+00 Rises=F
 ClnCor:  largest displacement from symmetrization is 2.63D-05 for atom     4.
 Variable       Old X    -DE/DX   Delta X   Delta X   Delta X     New X
                                 (Linear)    (Quad)   (Total)
    R1        2.81155  -0.00009  -0.00008  -0.00030  -0.00039   2.81117
    R2        2.81155  -0.00009  -0.00008  -0.00031  -0.00039   2.81117
    R3        2.87478   0.00003  -0.00003  -0.00015  -0.00018   2.87460
    R4        2.81155  -0.00009  -0.00008  -0.00030  -0.00039   2.81117
    R5        2.81155  -0.00009  -0.00008  -0.00031  -0.00039   2.81117
    R6        2.87478   0.00003  -0.00003  -0.00015  -0.00018   2.87460
    R7        3.05045   0.00032   0.00015   0.00200   0.00215   3.05260
    R8        3.05045   0.00038   0.00015   0.00203   0.00215   3.05260
    R9        2.02783   0.00013  -0.00057   0.00053  -0.00005   2.02779
    A1        1.36402   0.00013  -0.00012   0.00027   0.00015   1.36417
    A2        1.36402   0.00012  -0.00012   0.00027   0.00015   1.36417
    A3        1.70368  -0.00016   0.00003  -0.00073  -0.00070   1.70298
    A4        1.70368  -0.00016   0.00003  -0.00073  -0.00070   1.70298
    A5        1.65412  -0.00024  -0.00002  -0.00082  -0.00083   1.65329
    A6        2.31453   0.00009   0.00001   0.00040   0.00042   2.31495
    A7        2.31453   0.00015   0.00001   0.00041   0.00042   2.31495
    A8        1.23989  -0.00010  -0.00022  -0.00086  -0.00107   1.23882
    A9        2.52165   0.00004   0.00011   0.00043   0.00054   2.52218
   A10        2.52165   0.00006   0.00011   0.00043   0.00054   2.52218
    D1       -0.38244  -0.00007  -0.00024  -0.00115  -0.00138  -0.38382
    D2        0.38244   0.00007   0.00024   0.00115   0.00138   0.38382
    D3        1.18011   0.00011   0.00014   0.00089   0.00103   1.18115
    D4        0.38244   0.00007   0.00024   0.00115   0.00138   0.38382
    D5       -0.79768  -0.00006   0.00009   0.00025   0.00035  -0.79733
    D6       -0.38244  -0.00007  -0.00024  -0.00115  -0.00138  -0.38382
    D7       -1.18011  -0.00010  -0.00014  -0.00089  -0.00103  -1.18115
    D8       -0.77014   0.00001   0.00011   0.00028   0.00037  -0.76977
    D9        3.14159   0.00001   0.00000   0.00001   0.00000   3.14159
   D10        2.06165   0.00002  -0.00006   0.00009   0.00003   2.06169
   D11       -2.06165  -0.00001   0.00006  -0.00008  -0.00003  -2.06169
         Item               Value     Threshold  Converged?
 Maximum Force            0.000383     0.000450     YES
 RMS     Force            0.000134     0.000300     YES
 Maximum Displacement     0.001538     0.001800     YES
 RMS     Displacement     0.000562     0.001200     YES
 Predicted change in Energy=-1.496287D-06
 Optimization completed.
    -- Stationary point found.
                           ----------------------------
                           !   Optimized Parameters   !
                           ! (Angstroms and Degrees)  !
 --------------------------                            --------------------------
 ! Name  Definition              Value          Derivative Info.                !
 --------------------------------------------------------------------------------
 ! R1    R(1,3)                  1.4878         -DE/DX =   -0.0001              !
 ! R2    R(1,4)                  1.4878         -DE/DX =   -0.0001              !
 ! R3    R(1,5)                  1.5213         -DE/DX =    0.0                 !
 ! R4    R(2,3)                  1.4878         -DE/DX =   -0.0001              !
 ! R5    R(2,4)                  1.4878         -DE/DX =   -0.0001              !
 ! R6    R(2,5)                  1.5213         -DE/DX =    0.0                 !
 ! R7    R(3,5)                  1.6142         -DE/DX =    0.0003              !
 ! R8    R(4,5)                  1.6142         -DE/DX =    0.0004              !
 ! R9    R(5,6)                  1.0731         -DE/DX =    0.0001              !
 ! A1    A(3,1,4)               78.1527         -DE/DX =    0.0001              !
 ! A2    A(3,2,4)               78.1527         -DE/DX =    0.0001              !
 ! A3    A(1,3,2)               97.6138         -DE/DX =   -0.0002              !
 ! A4    A(1,4,2)               97.6138         -DE/DX =   -0.0002              !
 ! A5    A(1,5,2)               94.7741         -DE/DX =   -0.0002              !
 ! A6    A(1,5,6)              132.613          -DE/DX =    0.0001              !
 ! A7    A(2,5,6)              132.613          -DE/DX =    0.0002              !
 ! A8    A(3,5,4)               71.0404         -DE/DX =   -0.0001              !
 ! A9    A(3,5,6)              144.4798         -DE/DX =    0.0                 !
 ! A10   A(4,5,6)              144.4798         -DE/DX =    0.0001              !
 ! D1    D(4,1,3,2)            -21.912          -DE/DX =   -0.0001              !
 ! D2    D(3,1,4,2)             21.912          -DE/DX =    0.0001              !
 ! D3    D(3,1,4,5)             67.6155         -DE/DX =    0.0001              !
 ! D4    D(4,2,3,1)             21.912          -DE/DX =    0.0001              !
 ! D5    D(5,2,3,1)            -45.7035         -DE/DX =   -0.0001              !
 ! D6    D(3,2,4,1)            -21.912          -DE/DX =   -0.0001              !
 ! D7    D(3,2,4,5)            -67.6155         -DE/DX =   -0.0001              !
 ! D8    D(4,2,5,1)            -44.1259         -DE/DX =    0.0                 !
 ! D9    D(6,2,5,1)            180.0            -DE/DX =    0.0                 !
 ! D10   D(6,3,5,1)            118.1241         -DE/DX =    0.0                 !
 ! D11   D(6,4,5,1)           -118.1241         -DE/DX =    0.0                 !
 --------------------------------------------------------------------------------
 Lowest energy point so far.  Saving SCF results.
 GradGradGradGradGradGradGradGradGradGradGradGradGradGradGradGradGradGrad

 Largest change from initial coordinates is atom    6       0.005 Angstoms.
 Leave Link  103 at Tue Jul  5 15:57:01 2016, MaxMem=  1835008000 cpu:         0.2
 (Enter /usr/local/gaussian/gaussian09/g09/l202.exe)
                          Input orientation:                          
 ---------------------------------------------------------------------
 Center     Atomic      Atomic             Coordinates (Angstroms)
 Number     Number       Type             X           Y           Z
 ---------------------------------------------------------------------
      1          6           0        1.119568    0.157537   -0.000000
      2          6           0       -1.119568    0.157537    0.000000
      3          6           0       -0.000000    0.441410   -0.937849
      4          6           0        0.000000    0.441410    0.937849
      5          6           0        0.000000   -0.872426   -0.000000
      6          1           0        0.000000   -1.945510   -0.000000
 ---------------------------------------------------------------------
                    Distance matrix (angstroms):
                    1          2          3          4          5
     1  C    0.000000
     2  C    2.239137   0.000000
     3  C    1.487810   1.487810   0.000000
     4  C    1.487810   1.487810   1.875698   0.000000
     5  C    1.521269   1.521269   1.614226   1.614226   0.000000
[...]
                                                                                           X     X                 X                 
                                                                                                 X                 X                 
                                                                                                 X                                   
                                                                                                 X                                   
                                                                                                 X                                   
 
 ***** Axes restored to original set *****
 -------------------------------------------------------------------
 Center     Atomic                   Forces (Hartrees/Bohr)
 Number     Number              X              Y              Z
 -------------------------------------------------------------------
      1        6          -0.000362261    0.000037804    0.000000000
      2        6           0.000362261    0.000037804    0.000000000
      3        6           0.000000000    0.000420668   -0.000170025
      4        6           0.000000000    0.000420668    0.000170025
      5        6           0.000000000   -0.000784876   -0.000000000
      6        1          -0.000000000   -0.000132066   -0.000000000
 -------------------------------------------------------------------
 Cartesian Forces:  Max     0.000784876 RMS     0.000269829
 Force constants in Cartesian coordinates: 
                1             2             3             4             5 
      1  0.429992D+00
      2  0.251439D-02  0.956147D-01
      3  0.000000D+00  0.000000D+00  0.815734D-01
      4 -0.152944D+00  0.258036D-01  0.000000D+00  0.429992D+00
      5 -0.258036D-01  0.196602D-01  0.000000D+00 -0.251439D-02  0.956147D-01
      6  0.000000D+00  0.000000D+00 -0.269739D-02  0.000000D+00  0.000000D+00
      7 -0.948497D-01  0.116367D-01 -0.500741D-01 -0.948497D-01 -0.116367D-01
      8  0.429837D-01  0.442079D-02  0.199014D-01 -0.429837D-01  0.442081D-02
      9 -0.640722D-01 -0.775873D-02 -0.476946D-01  0.640722D-01 -0.775878D-02
     10 -0.948497D-01  0.116367D-01  0.500741D-01 -0.948497D-01 -0.116367D-01
     11  0.429837D-01  0.442081D-02 -0.199014D-01 -0.429837D-01  0.442079D-02
     12  0.640722D-01  0.775878D-02 -0.476947D-01 -0.640722D-01  0.775873D-02
     13 -0.915376D-01 -0.285173D-01  0.000000D+00 -0.915376D-01  0.285173D-01
     14 -0.631023D-01 -0.119337D+00  0.000000D+00  0.631023D-01 -0.119337D+00
     15  0.000000D+00  0.000000D+00  0.228460D-01  0.000000D+00  0.000000D+00
     16  0.418898D-02 -0.230740D-01  0.000000D+00  0.418898D-02  0.230740D-01
     17  0.424172D-03 -0.477940D-02  0.000000D+00 -0.424170D-03 -0.477940D-02
     18  0.000000D+00  0.000000D+00 -0.633266D-02  0.000000D+00  0.000000D+00
                6             7             8             9            10 
      6  0.815734D-01
      7  0.500741D-01  0.139751D+00
      8  0.199014D-01  0.000000D+00  0.116763D+00
      9 -0.476947D-01  0.000000D+00 -0.823329D-01  0.279314D+00
     10 -0.500741D-01  0.202853D-01  0.000000D+00  0.000000D+00  0.139751D+00
     11 -0.199014D-01  0.000000D+00 -0.229366D-01  0.438522D-01  0.000000D+00
     12 -0.476946D-01  0.000000D+00 -0.438522D-01 -0.106539D+00  0.000000D+00
     13  0.000000D+00  0.399114D-01  0.000000D+00  0.000000D+00  0.399114D-01
     14  0.000000D+00  0.000000D+00 -0.103973D+00  0.577854D-01  0.000000D+00
     15  0.228460D-01  0.000000D+00  0.804406D-01 -0.876413D-01  0.000000D+00
     16  0.000000D+00 -0.102479D-01  0.000000D+00  0.000000D+00 -0.102479D-01
     17  0.000000D+00  0.000000D+00  0.130458D-02 -0.378725D-02  0.000000D+00
     18 -0.633266D-02  0.000000D+00  0.594174D-02  0.102560D-01  0.000000D+00
               11            12            13            14            15 
     11  0.116763D+00
     12  0.823329D-01  0.279314D+00
     13  0.000000D+00  0.000000D+00  0.122176D+00
     14 -0.103973D+00 -0.577855D-01  0.000000D+00  0.818148D+00
     15 -0.804406D-01 -0.876413D-01  0.000000D+00  0.000000D+00  0.160738D+00
     16  0.000000D+00  0.000000D+00 -0.189233D-01  0.000000D+00  0.000000D+00
     17  0.130458D-02  0.378725D-02  0.000000D+00 -0.371528D+00  0.000000D+00
     18 -0.594174D-02  0.102560D-01  0.000000D+00  0.000000D+00 -0.311475D-01
               16            17            18 
     16  0.310411D-01
     17  0.000000D+00  0.378478D+00
     18  0.000000D+00  0.000000D+00  0.233009D-01
 FormGI is forming the generalized inverse of G from B-inverse, IUseBI=4.
 Force constants in internal coordinates: 
                1             2             3             4             5 
      1  0.100195D+00
      2  0.426833D-01  0.958822D-01
      3  0.278811D-01  0.341849D-01  0.100681D+00
      4  0.133281D-01  0.292438D-01  0.135042D-01  0.106335D+00
      5  0.266792D-01  0.105693D-01  0.125132D-01  0.359877D-01  0.106124D+00
      6  0.127032D-01  0.929452D-02 -0.645175D-02  0.236348D-01  0.282789D-01
      7  0.250241D-01 -0.835221D-02  0.263743D-01  0.231887D-01  0.541626D-03
      8 -0.103708D-01  0.237617D-01  0.133476D-01 -0.837970D-02  0.168752D-01
      9 -0.177010D-02 -0.164611D-02  0.236550D-02 -0.187955D-02 -0.165370D-02
     10 -0.180406D-01 -0.226262D-01 -0.262215D-01  0.117773D-01  0.118050D-01
     11  0.116693D-01  0.589404D-02 -0.158104D-01 -0.170313D-01 -0.184802D-01
     12 -0.427732D-02  0.152566D-01  0.226958D-01 -0.728915D-02  0.154678D-01
     13  0.136689D-01  0.122646D-02  0.205368D-01  0.148309D-01 -0.648781D-02
     14  0.244754D-01  0.258827D-01  0.196288D-02  0.252865D-01  0.235196D-01
     15 -0.166550D-01 -0.152636D-01  0.901942D-02 -0.338856D-02 -0.254831D-02
     16 -0.782038D-02 -0.106191D-01 -0.109823D-01 -0.218979D-01 -0.209713D-01
     17  0.169870D-01  0.116837D-01 -0.165886D-01  0.176966D-01  0.157592D-01
     18 -0.113194D-01 -0.401652D-02  0.107086D-01 -0.135794D-01 -0.131538D-02
     19 -0.566751D-02 -0.766714D-02  0.588006D-02 -0.411726D-02 -0.144438D-01
     20  0.563916D-02  0.270734D-02  0.169630D-02  0.605963D-02 -0.529669D-02
     21 -0.658432D-02 -0.790021D-03 -0.167061D-02  0.519415D-02 -0.591813D-02
     22 -0.113541D-01 -0.126236D-01 -0.822822D-02 -0.467561D-03 -0.143665D-01
     23 -0.585639D-02  0.709164D-02  0.525741D-03 -0.459362D-02 -0.581870D-02
     24  0.136207D-01  0.312113D-02 -0.105859D-01  0.610761D-02  0.108288D-01
     25 -0.333666D-02  0.127378D-02  0.492219D-03  0.568126D-02  0.469444D-02
     26 -0.629659D-03  0.158967D-01 -0.170500D-01  0.131313D-01  0.703771D-02
     27 -0.296656D-02 -0.964237D-02  0.807773D-02  0.139301D-02  0.469473D-04
     28 -0.183467D-02  0.219558D-02 -0.195258D-02 -0.474504D-03 -0.132232D-02
     29  0.708022D-02 -0.108331D-01  0.193664D-02 -0.796824D-02  0.562192D-02
     30  0.114577D-01 -0.646970D-02 -0.815388D-02 -0.740188D-02  0.606884D-02
                6             7             8             9            10 
      6  0.107425D+00
      7  0.213946D-01  0.844477D-01
      8  0.241192D-01 -0.774680D-02  0.975253D-01
      9  0.264866D-02  0.463116D-03  0.203019D-03  0.378478D+00
     10 -0.152348D-01  0.172847D-01  0.145612D-01 -0.941562D-03  0.438595D-01
     11 -0.238747D-01  0.152462D-01  0.159751D-01 -0.907760D-03  0.253039D-01
     12  0.214208D-01 -0.241801D-01 -0.330646D-02  0.140542D-02 -0.325214D-01
     13  0.209187D-01 -0.141309D-02 -0.274405D-01  0.126325D-02 -0.306692D-01
     14 -0.375147D-02 -0.224262D-01 -0.245617D-01 -0.196988D-02 -0.176859D-01
     15 -0.489500D-02  0.753445D-02  0.720088D-02  0.843676D-03  0.664411D-02
     16  0.864647D-02  0.148917D-01  0.173608D-01  0.112621D-02  0.110418D-01
     17 -0.184585D-01  0.147935D-02 -0.480814D-02 -0.185095D-02  0.207799D-01
     18  0.900682D-02  0.505061D-02 -0.479431D-02  0.986231D-03 -0.105376D-01
     19  0.945165D-02 -0.652995D-02  0.960244D-02  0.864720D-03 -0.102423D-01
     20  0.237391D-02  0.112867D-01 -0.211566D-02  0.980739D-03  0.712964D-02
     21 -0.306532D-02 -0.682248D-02 -0.279517D-02 -0.102070D-02 -0.703401D-02
     22  0.145314D-01  0.191715D-01 -0.116857D-01  0.437745D-03 -0.784685D-04
     23 -0.436092D-02 -0.123871D-01  0.298160D-02 -0.982505D-03 -0.104899D-01
     24  0.783921D-02  0.400909D-02 -0.252775D-01 -0.118320D-02 -0.730566D-02
     25  0.390025D-02  0.638789D-02  0.319933D-02  0.100789D-02  0.973428D-02
     26  0.123438D-01 -0.217609D-01  0.154603D-01 -0.380074D-03  0.188461D-02
     27  0.562393D-02 -0.132270D-01  0.634174D-02  0.375771D-03 -0.110142D-01
     28  0.142589D-03 -0.324600D-02  0.417804D-02 -0.894245D-04  0.274876D-03
     29 -0.639127D-02 -0.137501D-02  0.669873D-02  0.204499D-04  0.387835D-02
     30  0.868383D-02 -0.560542D-02  0.316023D-02 -0.143697D-03 -0.237582D-02
               11            12            13            14            15 
     11  0.406322D-01
     12 -0.317126D-01  0.385200D-01
     13 -0.287768D-01  0.213336D-01  0.350537D-01
     14 -0.172377D-01  0.154935D-01  0.156397D-01  0.346551D-01
     15 -0.859573D-03 -0.223108D-02 -0.313800D-02 -0.114313D-01  0.904595D-02
     16  0.180973D-01 -0.132624D-01 -0.125017D-01 -0.232238D-01  0.238535D-02
     17  0.193979D-01 -0.193701D-01 -0.164276D-01  0.823315D-02 -0.571114D-02
     18 -0.106650D-01  0.137885D-01  0.583679D-02 -0.396319D-02  0.318068D-02
     19 -0.873291D-02  0.558163D-02  0.105908D-01 -0.426996D-02  0.253046D-02
     20  0.931982D-02 -0.854498D-02 -0.273852D-02 -0.514542D-02 -0.836223D-04
     21 -0.895467D-02  0.436511D-02  0.652625D-02  0.540607D-02 -0.853547D-04
     22 -0.271919D-02 -0.185206D-02  0.431213D-02 -0.871578D-02  0.224312D-02
     23 -0.712605D-02  0.844652D-02  0.368251D-02  0.544568D-02 -0.110237D-02
     24 -0.736184D-02  0.532537D-02  0.767362D-02  0.137323D-01 -0.646717D-02
     25  0.614195D-02 -0.472776D-02 -0.620034D-02 -0.525220D-02  0.135020D-02
     26  0.468884D-03  0.115358D-02 -0.308612D-02  0.771032D-02 -0.573116D-02
     27 -0.150716D-01  0.947135D-02  0.127313D-01  0.322153D-02  0.212611D-02
     28  0.898042D-03 -0.105471D-03 -0.139876D-02 -0.308727D-03 -0.272482D-03
     29  0.347214D-02 -0.445904D-02 -0.270220D-02 -0.290112D-02  0.398074D-02
     30 -0.550275D-03  0.354002D-03  0.216511D-02  0.170445D-02 -0.472382D-02
               16            17            18            19            20 
     16  0.208385D-01
     17 -0.252201D-02  0.263258D-01
     18  0.782512D-03 -0.132172D-01  0.173205D-01
     19  0.173950D-02 -0.131086D-01 -0.410331D-02  0.172119D-01
     20  0.522904D-02  0.624069D-02 -0.341876D-02 -0.282193D-02  0.788905D-02
     21 -0.532071D-02 -0.580529D-02  0.123662D-02  0.456867D-02 -0.595212D-02
     22  0.647266D-02 -0.790841D-02  0.688283D-02  0.102557D-02  0.476211D-03
     23 -0.434331D-02 -0.670716D-02  0.304306D-02  0.366409D-02 -0.692874D-02
     24 -0.726511D-02  0.280512D-02  0.283448D-02 -0.563960D-02 -0.260629D-02
     25  0.390200D-02  0.579021D-02 -0.157070D-02 -0.421951D-02  0.619708D-02
     26 -0.197916D-02  0.700731D-02 -0.791795D-02  0.910637D-03  0.771875D-03
     27 -0.534763D-02 -0.112727D-01  0.693907D-04  0.112033D-01 -0.543441D-02
     28  0.581210D-03  0.115174D-03  0.629452D-02 -0.640969D-02 -0.319972D-03
     29 -0.107962D-02  0.121088D-02 -0.330738D-02  0.209650D-02 -0.603142D-03
     30  0.301937D-02 -0.250005D-03 -0.259645D-02  0.284646D-02 -0.132306D-02
               21            22            23            24            25 
     21  0.765813D-02
     22  0.184372D-02  0.136883D-01
     23  0.684785D-02 -0.402452D-05  0.849194D-02
     24  0.205711D-02  0.463212D-02  0.150832D-02  0.145962D-01
     25 -0.613508D-02 -0.509033D-03 -0.638335D-02 -0.313673D-02  0.712213D-02
     26 -0.128042D-03 -0.657060D-02  0.615016D-03 -0.198288D-02  0.197733D-02
     27  0.580227D-02 -0.289285D-02  0.439054D-02 -0.367386D-02 -0.552092D-02
     28  0.371727D-03 -0.732261D-03  0.770686D-03 -0.110067D-02 -0.124549D-03
     29 -0.124670D-02 -0.461647D-02 -0.171675D-02 -0.352448D-02 -0.940516D-03
     30 -0.506775D-03 -0.242001D-02 -0.624831D-03  0.125831D-02 -0.203738D-02
               26            27            28            29            30 
     26  0.165791D-01
     27  0.155787D-02  0.141411D-01
     28  0.186264D-02  0.308114D-03  0.989413D-02
     29 -0.133962D-02  0.389760D-02 -0.142749D-03  0.101626D-01
     30  0.270927D-02  0.411579D-02  0.675376D-04  0.339370D-03  0.103406D-01
 Leave Link  716 at Tue Jul  5 16:04:16 2016, MaxMem=  1835008000 cpu:         1.1
 (Enter /usr/local/gaussian/gaussian09/g09/l103.exe)

 GradGradGradGradGradGradGradGradGradGradGradGradGradGradGradGradGradGrad
 Berny optimization.
 Red2BG is reusing G-inverse.
 Internal  Forces:  Max     0.000382796 RMS     0.000133841
 Search for a local minimum.
 Step number   1 out of a maximum of    2
 All quantities printed in internal units (Hartrees-Bohrs-Radians)
 Second derivative matrix not updated -- analytic derivatives used.
 ITU=  0
     Eigenvalues ---    0.00957   0.01711   0.02617   0.05633   0.09209
     Eigenvalues ---    0.10401   0.14448   0.14705   0.15539   0.19278
     Eigenvalues ---    0.25745   0.37869
 Angle between quadratic step and forces=  47.89 degrees.
 Linear search not attempted -- first point.
 Iteration  1 RMS(Cart)=  0.00137538 RMS(Int)=  0.00000372
 Iteration  2 RMS(Cart)=  0.00000194 RMS(Int)=  0.00000227
 Iteration  3 RMS(Cart)=  0.00000000 RMS(Int)=  0.00000227
 ITry= 1 IFail=0 DXMaxC= 4.13D-03 DCOld= 1.00D+10 DXMaxT= 3.00D-01 DXLimC= 3.00D+00 Rises=F
 ClnCor:  largest displacement from symmetrization is 1.03D-06 for atom     2.
 Variable       Old X    -DE/DX   Delta X   Delta X   Delta X     New X
                                 (Linear)    (Quad)   (Total)
    R1        2.81155  -0.00009   0.00000   0.00027   0.00028   2.81183
    R2        2.81155  -0.00009   0.00000   0.00027   0.00028   2.81183
    R3        2.87478   0.00003   0.00000  -0.00152  -0.00153   2.87325
    R4        2.81155  -0.00009   0.00000   0.00027   0.00028   2.81183
    R5        2.81155  -0.00009   0.00000   0.00027   0.00028   2.81183
    R6        2.87478   0.00003   0.00000  -0.00152  -0.00153   2.87325
    R7        3.05045   0.00032   0.00000   0.00499   0.00499   3.05543
    R8        3.05045   0.00038   0.00000   0.00499   0.00499   3.05543
    R9        2.02783   0.00013   0.00000   0.00041   0.00041   2.02824
    A1        1.36402   0.00013   0.00000   0.00022   0.00021   1.36424
    A2        1.36402   0.00012   0.00000   0.00022   0.00021   1.36424
    A3        1.70368  -0.00016   0.00000  -0.00194  -0.00195   1.70174
    A4        1.70368  -0.00016   0.00000  -0.00194  -0.00195   1.70174
    A5        1.65412  -0.00024   0.00000  -0.00048  -0.00049   1.65363
    A6        2.31453   0.00009   0.00000   0.00024   0.00024   2.31478
    A7        2.31453   0.00015   0.00000   0.00024   0.00024   2.31478
    A8        1.23989  -0.00010   0.00000  -0.00200  -0.00200   1.23789
    A9        2.52165   0.00004   0.00000   0.00100   0.00100   2.52265
   A10        2.52165   0.00006   0.00000   0.00100   0.00100   2.52265
    D1       -0.38244  -0.00007   0.00000  -0.00431  -0.00431  -0.38675
    D2        0.38244   0.00007   0.00000   0.00431   0.00431   0.38675
    D3        1.18011   0.00011   0.00000   0.00245   0.00245   1.18256
    D4        0.38244   0.00007   0.00000   0.00431   0.00431   0.38675
    D5       -0.79768  -0.00006   0.00000   0.00187   0.00187  -0.79581
    D6       -0.38244  -0.00007   0.00000  -0.00431  -0.00431  -0.38675
    D7       -1.18011  -0.00010   0.00000  -0.00245  -0.00245  -1.18256
    D8       -0.77014   0.00001   0.00000   0.00095   0.00095  -0.76920
    D9        3.14159   0.00001   0.00000   0.00000   0.00000   3.14159
   D10        2.06165   0.00002   0.00000  -0.00038  -0.00038   2.06127
   D11       -2.06165  -0.00001   0.00000   0.00038   0.00038  -2.06127
         Item               Value     Threshold  Converged?
 Maximum Force            0.000383     0.000450     YES
 RMS     Force            0.000134     0.000300     YES
 Maximum Displacement     0.004131     0.001800     NO 
 RMS     Displacement     0.001376     0.001200     NO 
 Predicted change in Energy=-3.108198D-06
 GradGradGradGradGradGradGradGradGradGradGradGradGradGradGradGradGradGrad

 Leave Link  103 at Tue Jul  5 16:04:17 2016, MaxMem=  1835008000 cpu:         0.3
 (Enter /usr/local/gaussian/gaussian09/g09/l9999.exe)
 1\1\GINC-EINSTENIO\Freq\UB3LYP\6-311++G(3df,2p)\C5H1(2)\ROOT\05-Jul-20
 16\0\\#P Geom=AllCheck Guess=TCheck SCRF=Check GenChk UB3LYP/6-311++G(
 3df,2p) Freq\\b3lyp opt\\0,2\C,1.1195683695,0.1575374728,0.\C,-1.11956
 83695,0.1575374728,0.\C,0.,0.441409896,-0.937849006\C,0.,0.441409896,0
 .937849006\C,0.,-0.8724261103,0.\H,0.,-1.9455095676,0.\\Version=EM64L-
 G09RevE.01\State=2-B2\HF=-190.7721837\S2=0.755967\S2-1=0.\S2A=0.750011
 \RMSD=2.309e-09\RMSF=2.698e-04\ZeroPoint=0.0278036\Thermal=0.0318623\D
 ipole=0.,-0.8300657,0.\DipoleDeriv=-0.8322822,0.0270178,0.0000001,0.10
 77423,0.1533032,0.,0.0000002,0.,0.5101595,-0.8322821,-0.0270177,0.,-0.
 1077423,0.1533032,-0.0000001,0.0000004,0.,0.5101593,0.6389051,0.,0.,0.
 ,-0.0761715,-0.2176754,-0.0000003,0.0459104,-0.3508056,0.6389047,0.,0.
 ,0.,-0.0761715,0.2176755,-0.0000003,-0.0459104,-0.3508056,0.2354475,0.
 ,-0.0000001,0.,-0.3066187,0.,0.,0.,-0.4677,0.1513071,0.,0.,0.,0.152355
 3,0.,0.,0.,0.1489924\Polar=73.1007844,0.0000004,42.9948856,0.0000004,0
 .0000004,51.000416\PG=C02V [C2(C1H1),SGV(C2),SGV'(C2)]\NImag=0\\0.4299
 9185,0.00251439,0.09561472,-0.00000003,-0.00000002,0.08157336,-0.15294
 384,0.02580362,-0.00000001,0.42999185,-0.02580362,0.01966021,0.0000000
 2,-0.00251439,0.09561472,-0.00000001,-0.00000002,-0.00269739,-0.000000
 03,0.00000002,0.08157336,-0.09484972,0.01163666,-0.05007411,-0.0948497
 2,-0.01163666,0.05007414,0.13975059,0.04298368,0.00442079,0.01990136,-
 0.04298369,0.00442081,0.01990138,0.,0.11676331,-0.06407218,-0.00775873
 ,-0.04769464,0.06407221,-0.00775878,-0.04769468,-0.00000002,-0.0823328
 8,0.27931364,-0.09484972,0.01163666,0.05007414,-0.09484972,-0.01163666
 ,-0.05007411,0.02028532,0.,0.00000002,0.13975059,0.04298369,0.00442081
 ,-0.01990138,-0.04298368,0.00442079,-0.01990136,0.,-0.02293655,0.04385
 219,0.,0.11676331,0.06407221,0.00775878,-0.04769468,-0.06407218,0.0077
 5873,-0.04769464,0.00000002,-0.04385219,-0.10653897,-0.00000002,0.0823
 3288,0.27931364,-0.09153756,-0.02851730,0.00000003,-0.09153756,0.02851
 730,0.00000003,0.03991138,0.,-0.00000003,0.03991138,0.,-0.00000003,0.1
 2217570,-0.06310232,-0.11933712,0.00000001,0.06310232,-0.11933713,0.,0
 .,-0.10397293,0.05778544,0.,-0.10397294,-0.05778545,0.,0.81814810,0.,0
 .,0.02284600,0.,0.,0.02284601,0.,0.08044059,-0.08764132,0.,-0.08044060
 ,-0.08764133,0.,0.,0.16073814,0.00418898,-0.02307404,-0.00000001,0.004
 18898,0.02307404,-0.00000001,-0.01024785,0.,0.,-0.01024786,0.,0.,-0.01
 892335,0.,0.,0.03104109,0.00042417,-0.00477940,0.,-0.00042417,-0.00477
 940,0.,0.,0.00130458,-0.00378725,0.,0.00130458,0.00378725,0.,-0.371527
 97,0.,0.,0.37847760,0.,0.,-0.00633266,0.,0.,-0.00633266,0.,0.00594174,
 0.01025597,0.,-0.00594174,0.01025597,0.,0.,-0.03114749,0.,0.,0.0233008
 8\\0.00036226,-0.00003780,0.,-0.00036226,-0.00003780,0.,0.,-0.00042067
 ,0.00017003,0.,-0.00042067,-0.00017003,0.,0.00078488,0.,0.,0.00013207,
 0.\\\@


 IF YOU WISH TO UNDERSTAND THE FRAGRANCE OF THE ROSE, 
 OR THE TENACITY OF THE OAK; 
 IF YOU ARE NOT SATISFIED UNTIL YOU KNOW THE SECRET PATHS 
 BY WHICH THE SUNSHINE AND THE AIR ACHIEVE THESE WONDERS; 
 IF YOU WISH TO SEE THE PATTERN WHICH UNDERLIES ONE LARGE FIELD OF 
 HUMAN EXPERIENCE AND HUMAN MEASUREMENT, THEN TAKE UP CHEMISTRY.

                                         -- C. A. COULSON, 1973.
 Job cpu time:       0 days  0 hours 28 minutes 44.8 seconds.
 File lengths (MBytes):  RWF=     40 Int=      0 D2E=      0 Chk=      5 Scr=      1
 Normal termination of Gaussian 09 at Tue Jul  5 16:04:17 2016.
