 Entering Gaussian System, Link 0=/home/proyectos/fulerenos/M3C-v2.0/M3C-deps_CCC/g09-AM64L-G09RevC.01/g09
 Initial command:
 /home/proyectos/fulerenos/M3C-v2.0/M3C-deps_CCC/g09-AM64L-G09RevC.01/l1.exe "/scratch/naguirre/gaussian/Gau-15102.inp" -scrdir="/scratch/naguirre/gaussian/"
 Entering Link 1 = /home/proyectos/fulerenos/M3C-v2.0/M3C-deps_CCC/g09-AM64L-G09RevC.01/l1.exe PID=     15173.
  
 Copyright (c) 1988,1990,1992,1993,1995,1998,2003,2009,2015,
            Gaussian, Inc.  All Rights Reserved.
  
 This is part of the Gaussian(R) 09 program.  It is based on
 the Gaussian(R) 03 system (copyright 2003, Gaussian, Inc.),
 the Gaussian(R) 98 system (copyright 1998, Gaussian, Inc.),
 the Gaussian(R) 94 system (copyright 1995, Gaussian, Inc.),
 the Gaussian 92(TM) system (copyright 1992, Gaussian, Inc.),
 the Gaussian 90(TM) system (copyright 1990, Gaussian, Inc.),
 the Gaussian 88(TM) system (copyright 1988, Gaussian, Inc.),
 the Gaussian 86(TM) system (copyright 1986, Carnegie Mellon
 University), and the Gaussian 82(TM) system (copyright 1983,
 Carnegie Mellon University). Gaussian is a federally registered
 trademark of Gaussian, Inc.
  
 This software contains proprietary and confidential information,
 including trade secrets, belonging to Gaussian, Inc.
  
 This software is provided under written license and may be
 used, copied, transmitted, or stored only in accord with that
 written license.
  
 The following legend is applicable only to US Government
 contracts under FAR:
  
                    RESTRICTED RIGHTS LEGEND
  
 Use, reproduction and disclosure by the US Government is
 subject to restrictions as set forth in subparagraphs (a)
 and (c) of the Commercial Computer Software - Restricted
 Rights clause in FAR 52.227-19.
  
 Gaussian, Inc.
 340 Quinnipiac St., Bldg. 40, Wallingford CT 06492
  
  
 ---------------------------------------------------------------
 Warning -- This program may not be used in any manner that
 competes with the business of Gaussian, Inc. or will provide
 assistance to any competitor of Gaussian, Inc.  The licensee
 of this program is prohibited from giving any competitor of
 Gaussian, Inc. access to this program.  By using this program,
 the user acknowledges that Gaussian, Inc. is engaged in the
 business of creating and licensing software in the field of
 computational chemistry and represents and warrants to the
 licensee that it is not a competitor of Gaussian, Inc. and that
 it will not use this program in any manner prohibited above.
 ---------------------------------------------------------------
  

 Cite this work as:
 Gaussian 09, Revision E.01,
 M. J. Frisch, G. W. Trucks, H. B. Schlegel, G. E. Scuseria, 
 M. A. Robb, J. R. Cheeseman, G. Scalmani, V. Barone, B. Mennucci, 
 G. A. Petersson, H. Nakatsuji, M. Caricato, X. Li, H. P. Hratchian, 
 A. F. Izmaylov, J. Bloino, G. Zheng, J. L. Sonnenberg, M. Hada, 
 M. Ehara, K. Toyota, R. Fukuda, J. Hasegawa, M. Ishida, T. Nakajima, 
 Y. Honda, O. Kitao, H. Nakai, T. Vreven, J. A. Montgomery, Jr., 
 J. E. Peralta, F. Ogliaro, M. Bearpark, J. J. Heyd, E. Brothers, 
 K. N. Kudin, V. N. Staroverov, T. Keith, R. Kobayashi, J. Normand, 
 K. Raghavachari, A. Rendell, J. C. Burant, S. S. Iyengar, J. Tomasi, 
 M. Cossi, N. Rega, J. M. Millam, M. Klene, J. E. Knox, J. B. Cross, 
 V. Bakken, C. Adamo, J. Jaramillo, R. Gomperts, R. E. Stratmann, 
 O. Yazyev, A. J. Austin, R. Cammi, C. Pomelli, J. W. Ochterski, 
 R. L. Martin, K. Morokuma, V. G. Zakrzewski, G. A. Voth, 
 P. Salvador, J. J. Dannenberg, S. Dapprich, A. D. Daniels, 
 O. Farkas, J. B. Foresman, J. V. Ortiz, J. Cioslowski, 
 and D. J. Fox, Gaussian, Inc., Wallingford CT, 2013.
 
 ******************************************
 Gaussian 09:  EM64L-G09RevE.01 30-Nov-2015
                24-Oct-2016 
 ******************************************
 %NProcShared=4
 Will use up to    4 processors via shared memory.
 ---------------------------------------------
 #p b3lyp/6-311++G(3df,2p) freq symmetry=Loose
 ---------------------------------------------
 1/10=4,30=1,38=1/1,3;
 2/12=2,17=4,18=3,40=1/2;
 3/5=4,6=6,7=1216,11=2,16=1,25=1,30=1,71=2,74=-5,140=1/1,2,3;
 4//1;
 5/5=2,38=5,98=1/2;
 8/6=4,10=90,11=11/1;
 11/6=1,8=1,9=11,15=111,16=1/1,2,10;
 10/6=1/2;
 6/7=2,8=2,9=2,10=2,18=1,28=1/1;
 7/8=1,10=1,25=1/1,2,3,16;
 1/10=4,30=1/3;
 99//99;
 Leave Link    1 at Mon Oct 24 01:02:21 2016, MaxMem=           0 cpu:         0.4
 (Enter /home/proyectos/fulerenos/M3C-v2.0/M3C-deps_CCC/g09-AM64L-G09RevC.01/l101.exe)
 ---------
 b3lyp opt
 ---------
 Symbolic Z-matrix:
 Charge =  0 Multiplicity = 3
 S                    -0.00017   1.22316   1.56703 
 S                    -0.00013  -0.66028   1.27282 
 S                     0.00013  -0.71573  -1.23128 
 S                     0.00017   1.15285  -1.60857 
 
 NAtoms=      4 NQM=        4 NQMF=       0 NMMI=      0 NMMIF=      0
                NMic=       0 NMicF=      0.
                    Isotopes and Nuclear Properties:
 (Nuclear quadrupole moments (NQMom) in fm**2, nuclear magnetic moments (NMagM)
  in nuclear magnetons)

  Atom         1           2           3           4
 IAtWgt=          32          32          32          32
 AtmWgt=  31.9720718  31.9720718  31.9720718  31.9720718
 NucSpn=           0           0           0           0
 AtZEff=   0.0000000   0.0000000   0.0000000   0.0000000
 NQMom=    0.0000000   0.0000000   0.0000000   0.0000000
 NMagM=    0.0000000   0.0000000   0.0000000   0.0000000
 AtZNuc=  16.0000000  16.0000000  16.0000000  16.0000000
 Leave Link  101 at Mon Oct 24 01:02:21 2016, MaxMem=    33554432 cpu:         0.3
 (Enter /home/proyectos/fulerenos/M3C-v2.0/M3C-deps_CCC/g09-AM64L-G09RevC.01/l103.exe)

 GradGradGradGradGradGradGradGradGradGradGradGradGradGradGradGradGradGrad
 Berny optimization.
 Initialization pass.
 Trust Radius=3.00D-01 FncErr=1.00D-07 GrdErr=1.00D-07
 Number of steps in this run=      2 maximum allowed number of steps=      2.
 GradGradGradGradGradGradGradGradGradGradGradGradGradGradGradGradGradGrad

 Leave Link  103 at Mon Oct 24 01:02:21 2016, MaxMem=    33554432 cpu:         0.1
 (Enter /home/proyectos/fulerenos/M3C-v2.0/M3C-deps_CCC/g09-AM64L-G09RevC.01/l202.exe)
                          Input orientation:                          
 ---------------------------------------------------------------------
 Center     Atomic      Atomic             Coordinates (Angstroms)
 Number     Number       Type             X           Y           Z
 ---------------------------------------------------------------------
      1         16           0       -0.000171    1.223161    1.567030
      2         16           0       -0.000135   -0.660279    1.272818
      3         16           0        0.000135   -0.715726   -1.231279
      4         16           0        0.000171    1.152845   -1.608570
 ---------------------------------------------------------------------
                    Distance matrix (angstroms):
                    1          2          3          4
     1  S    0.000000
     2  S    1.906281   0.000000
     3  S    3.404382   2.504711   0.000000
     4  S    3.176379   3.404382   1.906281   0.000000
 Stoichiometry    S4(3)
 Framework group  C2V[SGV(S4)]
 Deg. of freedom     3
 Full point group                 C2V     NOp   4
 Largest Abelian subgroup         C2V     NOp   4
 Largest concise Abelian subgroup C2      NOp   2
                         Standard orientation:                         
 ---------------------------------------------------------------------
 Center     Atomic      Atomic             Coordinates (Angstroms)
 Number     Number       Type             X           Y           Z
 ---------------------------------------------------------------------
      1         16           0       -0.000000   -1.588190    0.938233
      2         16           0       -0.000000   -1.252356   -0.938233
      3         16           0        0.000000    1.252356   -0.938233
      4         16           0        0.000000    1.588190    0.938233
 ---------------------------------------------------------------------
 Rotational constants (GHZ):      4.4891625      1.9320326      1.3507156
 Leave Link  202 at Mon Oct 24 01:02:21 2016, MaxMem=    33554432 cpu:         0.0
 (Enter /home/proyectos/fulerenos/M3C-v2.0/M3C-deps_CCC/g09-AM64L-G09RevC.01/l301.exe)
 Standard basis: 6-311++G(3df,2p) (5D, 7F)
 Ernie: Thresh=  0.10000D-02 Tol=  0.10000D-05 Strict=F.
 There are    74 symmetry adapted cartesian basis functions of A1  symmetry.
 There are    32 symmetry adapted cartesian basis functions of A2  symmetry.
 There are    32 symmetry adapted cartesian basis functions of B1  symmetry.
 There are    74 symmetry adapted cartesian basis functions of B2  symmetry.
 There are    64 symmetry adapted basis functions of A1  symmetry.
 There are    30 symmetry adapted basis functions of A2  symmetry.
 There are    30 symmetry adapted basis functions of B1  symmetry.
 There are    64 symmetry adapted basis functions of B2  symmetry.
   188 basis functions,   288 primitive gaussians,   212 cartesian basis functions
    33 alpha electrons       31 beta electrons
       nuclear repulsion energy       318.4495863828 Hartrees.
 IExCor=  402 DFT=T Ex+Corr=B3LYP ExCW=0 ScaHFX=  0.200000
 ScaDFX=  0.800000  0.720000  1.000000  0.810000 ScalE2=  1.000000  1.000000
 IRadAn=      0 IRanWt=     -1 IRanGd=            0 ICorTp=0 IEmpDi=  4
 NAtoms=    4 NActive=    4 NUniq=    2 SFac= 4.00D+00 NAtFMM=   60 NAOKFM=F Big=F
 Integral buffers will be    131072 words long.
 Raffenetti 2 integral format.
 Two-electron integral symmetry is turned on.
 Leave Link  301 at Mon Oct 24 01:02:21 2016, MaxMem=    33554432 cpu:         0.2
 (Enter /home/proyectos/fulerenos/M3C-v2.0/M3C-deps_CCC/g09-AM64L-G09RevC.01/l302.exe)
 NPDir=0 NMtPBC=     1 NCelOv=     1 NCel=       1 NClECP=     1 NCelD=      1
         NCelK=      1 NCelE2=     1 NClLst=     1 CellRange=     0.0.
 One-electron integrals computed using PRISM.
 One-electron integral symmetry used in STVInt
 NBasis=   188 RedAO= T EigKep=  2.15D-04  NBF=    64    30    30    64
 NBsUse=   188 1.00D-06 EigRej= -1.00D+00 NBFU=    64    30    30    64
 Precomputing XC quadrature grid using
 IXCGrd= 4 IRadAn=           0 IRanWt=          -1 IRanGd=           0 AccXCQ= 0.00D+00.
 Generated NRdTot=       0 NPtTot=           0 NUsed=           0 NTot=          32
 NSgBfM=   200   200   200   200   200 MxSgAt=     4 MxSgA2=     4.
 Leave Link  302 at Mon Oct 24 01:02:22 2016, MaxMem=    33554432 cpu:         0.9
 (Enter /home/proyectos/fulerenos/M3C-v2.0/M3C-deps_CCC/g09-AM64L-G09RevC.01/l303.exe)
 DipDrv:  MaxL=1.
 Leave Link  303 at Mon Oct 24 01:02:22 2016, MaxMem=    33554432 cpu:         0.1
 (Enter /home/proyectos/fulerenos/M3C-v2.0/M3C-deps_CCC/g09-AM64L-G09RevC.01/l401.exe)
 ExpMin= 4.05D-02 ExpMax= 9.34D+04 ExpMxC= 3.17D+03 IAcc=2 IRadAn=         4 AccDes= 0.00D+00
 Harris functional with IExCor=  402 and IRadAn=       4 diagonalized for initial guess.
 HarFok:  IExCor=  402 AccDes= 0.00D+00 IRadAn=         4 IDoV= 1 UseB2=F ITyADJ=14
 ICtDFT=  3500011 ScaDFX=  1.000000  1.000000  1.000000  1.000000
 FoFCou: FMM=F IPFlag=           0 FMFlag=      100000 FMFlg1=           0
         NFxFlg=           0 DoJE=T BraDBF=F KetDBF=T FulRan=T
         wScrn=  0.000000 ICntrl=     500 IOpCl=  0 I1Cent=   200000004 NGrid=           0
         NMat0=    1 NMatS0=      1 NMatT0=    0 NMatD0=    1 NMtDS0=    0 NMtDT0=    0
 Petite list used in FoFCou.
 Harris En= -1592.65272513533    
 JPrj=0 DoOrth=F DoCkMO=F.
 Initial guess orbital symmetries:
 Alpha Orbitals:
       Occupied  (B2) (A1) (B2) (A1) (B2) (A1) (B2) (A1) (B2) (A1)
                 (B2) (A1) (B2) (A1) (A2) (B1) (B2) (A1) (A2) (B1)
                 (A1) (B2) (A1) (B2) (A1) (A1) (B2) (B1) (A2) (B2)
                 (A1) (B1) (A2)
       Virtual   (B2) (A1) (B2) (A1) (B2) (B1) (A1) (A1) (A1) (A2)
                 (B2) (B1) (B2) (A1) (B2) (A2) (B1) (A1) (A1) (B2)
                 (B1) (A1) (B2) (A2) (A1) (B2) (B1) (A2) (B2) (A1)
                 (B2) (A1) (B2) (B1) (B1) (B2) (A2) (A1) (A2) (A1)
                 (B2) (A2) (A1) (B2) (B1) (A1) (B2) (A2) (A1) (B2)
                 (A1) (B2) (B2) (B1) (A1) (A1) (A1) (A2) (B1) (B2)
                 (B2) (B1) (A2) (B2) (A1) (B1) (A2) (B2) (A1) (A2)
                 (B2) (B2) (A1) (A1) (B2) (B1) (A1) (B1) (A2) (A1)
                 (A1) (B2) (A1) (A1) (B1) (A2) (B2) (B1) (B2) (A2)
                 (B1) (B1) (A2) (B2) (A2) (B2) (A1) (A1) (B2) (A1)
                 (B1) (A1) (B2) (A2) (A2) (B2) (A1) (B2) (B1) (A1)
                 (A2) (B2) (A1) (B2) (B2) (A1) (B1) (B2) (A2) (A1)
                 (B1) (A2) (B2) (B1) (A1) (A2) (B2) (B2) (A1) (B1)
                 (A2) (A1) (B2) (A1) (B2) (A1) (B2) (A1) (B2) (B1)
                 (A2) (A1) (B1) (A1) (B2) (A2) (A1) (B2) (A1) (B2)
                 (B2) (A1) (B2) (A1) (B2)
 Beta  Orbitals:
       Occupied  (B2) (A1) (B2) (A1) (B2) (A1) (B2) (A1) (B2) (A1)
                 (B2) (A1) (B2) (A1) (A2) (B1) (B2) (A1) (A2) (B1)
                 (A1) (B2) (A1) (B2) (A1) (A1) (B2) (B1) (A2) (B2)
                 (A1)
       Virtual   (B1) (A2) (B2) (A1) (B2) (A1) (B2) (B1) (A1) (A1)
                 (A1) (A2) (B2) (B1) (B2) (A1) (B2) (A2) (B1) (A1)
                 (A1) (B2) (B1) (A1) (B2) (A2) (A1) (B2) (B1) (A2)
                 (B2) (A1) (B2) (A1) (B2) (B1) (B1) (B2) (A2) (A1)
                 (A2) (A1) (B2) (A2) (A1) (B2) (B1) (A1) (B2) (A2)
                 (A1) (B2) (A1) (B2) (B2) (B1) (A1) (A1) (A1) (A2)
                 (B1) (B2) (B2) (B1) (A2) (B2) (A1) (B1) (A2) (B2)
                 (A1) (A2) (B2) (B2) (A1) (A1) (B2) (B1) (A1) (B1)
                 (A2) (A1) (A1) (B2) (A1) (A1) (B1) (A2) (B2) (B1)
                 (B2) (A2) (B1) (B1) (A2) (B2) (A2) (B2) (A1) (A1)
                 (B2) (A1) (B1) (A1) (B2) (A2) (A2) (B2) (A1) (B2)
                 (B1) (A1) (A2) (B2) (A1) (B2) (B2) (A1) (B1) (B2)
                 (A2) (A1) (B1) (A2) (B2) (B1) (A1) (A2) (B2) (B2)
                 (A1) (B1) (A2) (A1) (B2) (A1) (B2) (A1) (B2) (A1)
                 (B2) (B1) (A2) (A1) (B1) (A1) (B2) (A2) (A1) (B2)
                 (A1) (B2) (B2) (A1) (B2) (A1) (B2)
 The electronic state of the initial guess is 3-B2.
 Initial guess <Sx>= 0.0000 <Sy>= 0.0000 <Sz>= 1.0000 <S**2>= 2.0000 S= 1.0000
 Leave Link  401 at Mon Oct 24 01:02:22 2016, MaxMem=    33554432 cpu:         1.3
 (Enter /home/proyectos/fulerenos/M3C-v2.0/M3C-deps_CCC/g09-AM64L-G09RevC.01/l502.exe)
 UHF open shell SCF:
 Using DIIS extrapolation, IDIIS=  1040.
 Integral symmetry usage will be decided dynamically.
 IVT=      156578 IEndB=      156578 NGot=    33554432 MDV=    33459651
 LenX=    33459651 LenY=    33414266
 Requested convergence on RMS density matrix=1.00D-08 within 128 cycles.
 Requested convergence on MAX density matrix=1.00D-06.
 Requested convergence on             energy=1.00D-06.
 No special actions if energy rises.
 Fock matrices will be formed incrementally for  20 cycles.

 Cycle   1  Pass 1  IDiag  1:
 FoFJK:  IHMeth= 1 ICntrl=       0 DoSepK=F KAlg= 0 I1Cent=   0 FoldK=F
 IRaf= 900000000 NMat=   1 IRICut=       1 DoRegI=T DoRafI=F ISym2E= 1.
 FoFCou: FMM=F IPFlag=           0 FMFlag=      100000 FMFlg1=           0
         NFxFlg=           0 DoJE=F BraDBF=F KetDBF=F FulRan=T
         wScrn=  0.000000 ICntrl=       0 IOpCl=  1 I1Cent=           0 NGrid=           0
         NMat0=    1 NMatS0=      1 NMatT0=    0 NMatD0=    1 NMtDS0=    0 NMtDT0=    0
 Petite list used in FoFCou.
 E= -1592.86022974485    
 DIIS: error= 1.95D-02 at cycle   1 NSaved=   1.
 NSaved= 1 IEnMin= 1 EnMin= -1592.86022974485     IErMin= 1 ErrMin= 1.95D-02
 ErrMax= 1.95D-02  0.00D+00 EMaxC= 1.00D-01 BMatC= 2.79D-01 BMatP= 2.79D-01
 IDIUse=3 WtCom= 8.05D-01 WtEn= 1.95D-01
 Coeff-Com:  0.100D+01
 Coeff-En:   0.100D+01
 Coeff:      0.100D+01
 Gap=     0.107 Goal=   None    Shift=    0.000
 Gap=     0.086 Goal=   None    Shift=    0.000
 GapD=    0.086 DampG=0.500 DampE=0.500 DampFc=0.2500 IDamp=-1.
 Damping current iteration by 2.50D-01
 RMSDP=1.80D-03 MaxDP=6.20D-02              OVMax= 1.82D-01

 Cycle   2  Pass 1  IDiag  1:
 RMSU=  4.50D-04    CP:  1.00D+00
 E= -1592.86493057322     Delta-E=       -0.004700828368 Rises=F Damp=T
 DIIS: error= 1.39D-02 at cycle   2 NSaved=   2.
 NSaved= 2 IEnMin= 2 EnMin= -1592.86493057322     IErMin= 2 ErrMin= 1.39D-02
 ErrMax= 1.39D-02  0.00D+00 EMaxC= 1.00D-01 BMatC= 1.26D-01 BMatP= 2.79D-01
 IDIUse=3 WtCom= 8.61D-01 WtEn= 1.39D-01
 Coeff-Com: -0.896D+00 0.190D+01
 Coeff-En:   0.198D+00 0.802D+00
 Coeff:     -0.743D+00 0.174D+01
 Gap=     0.127 Goal=   None    Shift=    0.000
 Gap=     0.095 Goal=   None    Shift=    0.000
 RMSDP=1.13D-03 MaxDP=3.81D-02 DE=-4.70D-03 OVMax= 2.52D-01

 Cycle   3  Pass 1  IDiag  1:
 RMSU=  9.33D-04    CP:  1.00D+00 -4.36D-01
 E= -1592.82119547491     Delta-E=        0.043735098306 Rises=F Damp=F
 DIIS: error= 2.29D-02 at cycle   3 NSaved=   3.
 NSaved= 3 IEnMin= 2 EnMin= -1592.86493057322     IErMin= 2 ErrMin= 1.39D-02
 ErrMax= 2.29D-02  0.00D+00 EMaxC= 1.00D-01 BMatC= 1.94D-01 BMatP= 1.26D-01
 IDIUse=2 WtCom= 0.00D+00 WtEn= 1.00D+00
 Rare condition: small coef for last iteration:  0.000D+00
 Coeff-En:   0.143D+00 0.829D+00 0.273D-01
 Coeff:      0.143D+00 0.829D+00 0.273D-01
 Gap=     0.116 Goal=   None    Shift=    0.000
 Gap=     0.091 Goal=   None    Shift=    0.000
 RMSDP=1.17D-03 MaxDP=4.49D-02 DE= 4.37D-02 OVMax= 1.29D-01

 Cycle   4  Pass 1  IDiag  1:
 RMSU=  1.30D-04    CP:  1.00D+00  1.91D+00  4.63D-01
 E= -1592.87703861679     Delta-E=       -0.055843141877 Rises=F Damp=F
 DIIS: error= 4.85D-03 at cycle   4 NSaved=   4.
 NSaved= 4 IEnMin= 4 EnMin= -1592.87703861679     IErMin= 4 ErrMin= 4.85D-03
 ErrMax= 4.85D-03  0.00D+00 EMaxC= 1.00D-01 BMatC= 1.78D-02 BMatP= 1.26D-01
 IDIUse=3 WtCom= 9.51D-01 WtEn= 4.85D-02
 Coeff-Com:  0.333D+01-0.432D+01-0.810D+00 0.280D+01
 Coeff-En:   0.000D+00 0.000D+00 0.653D-01 0.935D+00
 Coeff:      0.317D+01-0.411D+01-0.767D+00 0.271D+01
 Gap=     0.119 Goal=   None    Shift=    0.000
 Gap=     0.093 Goal=   None    Shift=    0.000
 RMSDP=2.76D-04 MaxDP=1.03D-02 DE=-5.58D-02 OVMax= 2.98D-02

 Cycle   5  Pass 1  IDiag  1:
 RMSU=  1.68D-04    CP:  1.00D+00  1.46D+00  5.39D-01  1.37D+00
 E= -1592.88005680933     Delta-E=       -0.003018192543 Rises=F Damp=F
 DIIS: error= 1.28D-03 at cycle   5 NSaved=   5.
 NSaved= 5 IEnMin= 5 EnMin= -1592.88005680933     IErMin= 5 ErrMin= 1.28D-03
 ErrMax= 1.28D-03  0.00D+00 EMaxC= 1.00D-01 BMatC= 9.71D-04 BMatP= 1.78D-02
 IDIUse=3 WtCom= 9.87D-01 WtEn= 1.28D-02
 Coeff-Com:  0.105D+01-0.139D+01-0.249D+00 0.855D+00 0.736D+00
 Coeff-En:   0.000D+00 0.000D+00 0.000D+00 0.000D+00 0.100D+01
 Coeff:      0.104D+01-0.137D+01-0.246D+00 0.844D+00 0.740D+00
 Gap=     0.119 Goal=   None    Shift=    0.000
 Gap=     0.093 Goal=   None    Shift=    0.000
 RMSDP=8.94D-05 MaxDP=2.91D-03 DE=-3.02D-03 OVMax= 5.10D-03

 Cycle   6  Pass 1  IDiag  1:
 RMSU=  7.54D-05    CP:  1.00D+00  1.46D+00  5.62D-01  1.31D+00  7.80D-01
 E= -1592.88020149372     Delta-E=       -0.000144684388 Rises=F Damp=F
 DIIS: error= 8.01D-04 at cycle   6 NSaved=   6.
 NSaved= 6 IEnMin= 6 EnMin= -1592.88020149372     IErMin= 6 ErrMin= 8.01D-04
 ErrMax= 8.01D-04  0.00D+00 EMaxC= 1.00D-01 BMatC= 2.72D-04 BMatP= 9.71D-04
 IDIUse=3 WtCom= 9.92D-01 WtEn= 8.01D-03
 Coeff-Com:  0.131D+00-0.178D+00-0.205D-01 0.118D+00 0.373D+00 0.576D+00
 Coeff-En:   0.000D+00 0.000D+00 0.000D+00 0.000D+00 0.216D+00 0.784D+00
 Coeff:      0.130D+00-0.176D+00-0.204D-01 0.117D+00 0.372D+00 0.577D+00
 Gap=     0.118 Goal=   None    Shift=    0.000
 Gap=     0.093 Goal=   None    Shift=    0.000
 RMSDP=3.53D-05 MaxDP=9.88D-04 DE=-1.45D-04 OVMax= 2.10D-03

 Cycle   7  Pass 1  IDiag  1:
 RMSU=  1.41D-05    CP:  1.00D+00  1.44D+00  5.60D-01  1.32D+00  9.01D-01
                    CP:  6.89D-01
 E= -1592.88026585786     Delta-E=       -0.000064364139 Rises=F Damp=F
 DIIS: error= 7.93D-05 at cycle   7 NSaved=   7.
 NSaved= 7 IEnMin= 7 EnMin= -1592.88026585786     IErMin= 7 ErrMin= 7.93D-05
 ErrMax= 7.93D-05  0.00D+00 EMaxC= 1.00D-01 BMatC= 4.80D-06 BMatP= 2.72D-04
 IDIUse=1 WtCom= 1.00D+00 WtEn= 0.00D+00
 Coeff-Com: -0.295D-01 0.387D-01 0.121D-01-0.158D-01 0.556D-01 0.137D+00
 Coeff-Com:  0.802D+00
 Coeff:     -0.295D-01 0.387D-01 0.121D-01-0.158D-01 0.556D-01 0.137D+00
 Coeff:      0.802D+00
 Gap=     0.118 Goal=   None    Shift=    0.000
 Gap=     0.093 Goal=   None    Shift=    0.000
 RMSDP=6.19D-06 MaxDP=1.12D-04 DE=-6.44D-05 OVMax= 4.48D-04

 Cycle   8  Pass 1  IDiag  1:
 RMSU=  5.35D-06    CP:  1.00D+00  1.44D+00  5.62D-01  1.31D+00  8.99D-01
                    CP:  7.18D-01  9.52D-01
 E= -1592.88026705281     Delta-E=       -0.000001194952 Rises=F Damp=F
 DIIS: error= 3.80D-05 at cycle   8 NSaved=   8.
 NSaved= 8 IEnMin= 8 EnMin= -1592.88026705281     IErMin= 8 ErrMin= 3.80D-05
 ErrMax= 3.80D-05  0.00D+00 EMaxC= 1.00D-01 BMatC= 8.84D-07 BMatP= 4.80D-06
 IDIUse=1 WtCom= 1.00D+00 WtEn= 0.00D+00
 Coeff-Com: -0.146D-01 0.193D-01 0.361D-02-0.131D-01-0.268D-01-0.275D-01
 Coeff-Com:  0.293D+00 0.766D+00
 Coeff:     -0.146D-01 0.193D-01 0.361D-02-0.131D-01-0.268D-01-0.275D-01
 Coeff:      0.293D+00 0.766D+00
 Gap=     0.119 Goal=   None    Shift=    0.000
 Gap=     0.093 Goal=   None    Shift=    0.000
 RMSDP=2.92D-06 MaxDP=1.01D-04 DE=-1.19D-06 OVMax= 2.43D-04

 Cycle   9  Pass 1  IDiag  1:
 RMSU=  2.02D-06    CP:  1.00D+00  1.45D+00  5.63D-01  1.31D+00  9.04D-01
                    CP:  7.27D-01  1.06D+00  8.93D-01
 E= -1592.88026730683     Delta-E=       -0.000000254014 Rises=F Damp=F
 DIIS: error= 1.14D-05 at cycle   9 NSaved=   9.
 NSaved= 9 IEnMin= 9 EnMin= -1592.88026730683     IErMin= 9 ErrMin= 1.14D-05
 ErrMax= 1.14D-05  0.00D+00 EMaxC= 1.00D-01 BMatC= 7.68D-08 BMatP= 8.84D-07
 IDIUse=1 WtCom= 1.00D+00 WtEn= 0.00D+00
 Coeff-Com: -0.157D-02 0.208D-02 0.296D-03-0.284D-02-0.929D-02-0.143D-01
 Coeff-Com:  0.124D-01 0.162D+00 0.851D+00
 Coeff:     -0.157D-02 0.208D-02 0.296D-03-0.284D-02-0.929D-02-0.143D-01
 Coeff:      0.124D-01 0.162D+00 0.851D+00
 Gap=     0.119 Goal=   None    Shift=    0.000
 Gap=     0.093 Goal=   None    Shift=    0.000
 RMSDP=1.18D-06 MaxDP=4.91D-05 DE=-2.54D-07 OVMax= 1.93D-04

 Cycle  10  Pass 1  IDiag  1:
 RMSU=  7.09D-07    CP:  1.00D+00  1.44D+00  5.63D-01  1.31D+00  9.07D-01
                    CP:  7.30D-01  1.07D+00  9.80D-01  1.10D+00
 E= -1592.88026734110     Delta-E=       -0.000000034272 Rises=F Damp=F
 DIIS: error= 3.54D-06 at cycle  10 NSaved=  10.
 NSaved=10 IEnMin=10 EnMin= -1592.88026734110     IErMin=10 ErrMin= 3.54D-06
 ErrMax= 3.54D-06  0.00D+00 EMaxC= 1.00D-01 BMatC= 6.64D-09 BMatP= 7.68D-08
 IDIUse=1 WtCom= 1.00D+00 WtEn= 0.00D+00
 Coeff-Com:  0.161D-02-0.214D-02-0.429D-03 0.834D-03-0.185D-03-0.106D-03
 Coeff-Com: -0.195D-01-0.415D-01 0.187D+00 0.875D+00
 Coeff:      0.161D-02-0.214D-02-0.429D-03 0.834D-03-0.185D-03-0.106D-03
 Coeff:     -0.195D-01-0.415D-01 0.187D+00 0.875D+00
 Gap=     0.119 Goal=   None    Shift=    0.000
 Gap=     0.093 Goal=   None    Shift=    0.000
 RMSDP=5.48D-07 MaxDP=2.37D-05 DE=-3.43D-08 OVMax= 9.25D-05

 Cycle  11  Pass 1  IDiag  1:
 RMSU=  2.37D-07    CP:  1.00D+00  1.44D+00  5.64D-01  1.32D+00  9.08D-01
                    CP:  7.32D-01  1.07D+00  9.98D-01  1.26D+00  1.31D+00
 E= -1592.88026734682     Delta-E=       -0.000000005726 Rises=F Damp=F
 DIIS: error= 1.45D-06 at cycle  11 NSaved=  11.
 NSaved=11 IEnMin=11 EnMin= -1592.88026734682     IErMin=11 ErrMin= 1.45D-06
 ErrMax= 1.45D-06  0.00D+00 EMaxC= 1.00D-01 BMatC= 9.43D-10 BMatP= 6.64D-09
 IDIUse=1 WtCom= 1.00D+00 WtEn= 0.00D+00
 Coeff-Com:  0.157D-03-0.200D-03-0.151D-04 0.422D-03 0.143D-02 0.272D-02
 Coeff-Com: -0.357D-02-0.370D-01-0.123D+00 0.879D-01 0.107D+01
 Coeff:      0.157D-03-0.200D-03-0.151D-04 0.422D-03 0.143D-02 0.272D-02
 Coeff:     -0.357D-02-0.370D-01-0.123D+00 0.879D-01 0.107D+01
 Gap=     0.119 Goal=   None    Shift=    0.000
 Gap=     0.093 Goal=   None    Shift=    0.000
 RMSDP=3.56D-07 MaxDP=1.57D-05 DE=-5.73D-09 OVMax= 5.88D-05

 Cycle  12  Pass 1  IDiag  1:
 RMSU=  6.25D-08    CP:  1.00D+00  1.44D+00  5.64D-01  1.32D+00  9.09D-01
                    CP:  7.33D-01  1.07D+00  1.01D+00  1.37D+00  1.64D+00
                    CP:  1.44D+00
 E= -1592.88026734840     Delta-E=       -0.000000001577 Rises=F Damp=F
 DIIS: error= 6.22D-07 at cycle  12 NSaved=  12.
 NSaved=12 IEnMin=12 EnMin= -1592.88026734840     IErMin=12 ErrMin= 6.22D-07
 ErrMax= 6.22D-07  0.00D+00 EMaxC= 1.00D-01 BMatC= 1.47D-10 BMatP= 9.43D-10
 IDIUse=1 WtCom= 1.00D+00 WtEn= 0.00D+00
 Coeff-Com: -0.770D-04 0.102D-03 0.397D-04-0.142D-04 0.187D-03-0.157D-04
 Coeff-Com:  0.194D-02 0.737D-02-0.320D-01-0.119D+00-0.992D-01 0.124D+01
 Coeff:     -0.770D-04 0.102D-03 0.397D-04-0.142D-04 0.187D-03-0.157D-04
 Coeff:      0.194D-02 0.737D-02-0.320D-01-0.119D+00-0.992D-01 0.124D+01
 Gap=     0.119 Goal=   None    Shift=    0.000
 Gap=     0.093 Goal=   None    Shift=    0.000
 RMSDP=1.76D-07 MaxDP=8.12D-06 DE=-1.58D-09 OVMax= 3.19D-05

 Cycle  13  Pass 1  IDiag  1:
 RMSU=  2.19D-08    CP:  1.00D+00  1.44D+00  5.64D-01  1.32D+00  9.09D-01
                    CP:  7.33D-01  1.07D+00  1.02D+00  1.41D+00  1.79D+00
                    CP:  1.73D+00  1.59D+00
 E= -1592.88026734863     Delta-E=       -0.000000000230 Rises=F Damp=F
 DIIS: error= 9.93D-08 at cycle  13 NSaved=  13.
 NSaved=13 IEnMin=13 EnMin= -1592.88026734863     IErMin=13 ErrMin= 9.93D-08
 ErrMax= 9.93D-08  0.00D+00 EMaxC= 1.00D-01 BMatC= 6.71D-12 BMatP= 1.47D-10
 IDIUse=1 WtCom= 1.00D+00 WtEn= 0.00D+00
 Coeff-Com: -0.683D-06 0.431D-06 0.191D-05-0.176D-04-0.669D-04-0.155D-03
 Coeff-Com:  0.269D-03 0.262D-02 0.449D-02-0.914D-02-0.592D-01 0.598D-01
 Coeff-Com:  0.100D+01
 Coeff:     -0.683D-06 0.431D-06 0.191D-05-0.176D-04-0.669D-04-0.155D-03
 Coeff:      0.269D-03 0.262D-02 0.449D-02-0.914D-02-0.592D-01 0.598D-01
 Coeff:      0.100D+01
 Gap=     0.119 Goal=   None    Shift=    0.000
 Gap=     0.093 Goal=   None    Shift=    0.000
 RMSDP=2.34D-08 MaxDP=9.94D-07 DE=-2.30D-10 OVMax= 4.06D-06

 Cycle  14  Pass 1  IDiag  1:
 RMSU=  7.10D-09    CP:  1.00D+00  1.44D+00  5.64D-01  1.32D+00  9.09D-01
                    CP:  7.34D-01  1.07D+00  1.02D+00  1.42D+00  1.81D+00
                    CP:  1.77D+00  1.76D+00  1.26D+00
 E= -1592.88026734863     Delta-E=        0.000000000000 Rises=F Damp=F
 DIIS: error= 5.60D-08 at cycle  14 NSaved=  14.
 NSaved=14 IEnMin=13 EnMin= -1592.88026734863     IErMin=14 ErrMin= 5.60D-08
 ErrMax= 5.60D-08  0.00D+00 EMaxC= 1.00D-01 BMatC= 1.55D-12 BMatP= 6.71D-12
 IDIUse=1 WtCom= 1.00D+00 WtEn= 0.00D+00
 Coeff-Com:  0.356D-05-0.466D-05-0.533D-05-0.782D-05-0.558D-04-0.423D-04
 Coeff-Com: -0.177D-03-0.434D-03 0.654D-02 0.149D-01 0.303D-02-0.178D+00
 Coeff-Com:  0.198D+00 0.957D+00
 Coeff:      0.356D-05-0.466D-05-0.533D-05-0.782D-05-0.558D-04-0.423D-04
 Coeff:     -0.177D-03-0.434D-03 0.654D-02 0.149D-01 0.303D-02-0.178D+00
 Coeff:      0.198D+00 0.957D+00
 Gap=     0.119 Goal=   None    Shift=    0.000
 Gap=     0.093 Goal=   None    Shift=    0.000
 RMSDP=8.59D-09 MaxDP=3.79D-07 DE= 0.00D+00 OVMax= 1.60D-06

 SCF Done:  E(UB3LYP) =  -1592.88026735     A.U. after   14 cycles
            NFock= 14  Conv=0.86D-08     -V/T= 2.0014
 <Sx>= 0.0000 <Sy>= 0.0000 <Sz>= 1.0000 <S**2>= 2.0099 S= 1.0033
 <L.S>= 0.000000000000E+00
 KE= 1.590630647172D+03 PE=-4.425330330953D+03 EE= 9.233698300495D+02
 Annihilation of the first spin contaminant:
 S**2 before annihilation     2.0099,   after     2.0001
 Leave Link  502 at Mon Oct 24 01:03:08 2016, MaxMem=    33554432 cpu:       166.6
 (Enter /home/proyectos/fulerenos/M3C-v2.0/M3C-deps_CCC/g09-AM64L-G09RevC.01/l801.exe)
 DoSCS=F DFT=T ScalE2(SS,OS)=  1.000000  1.000000
 Range of M.O.s used for correlation:     1   188
 NBasis=   188 NAE=    33 NBE=    31 NFC=     0 NFV=     0
 NROrb=    188 NOA=    33 NOB=    31 NVA=   155 NVB=   157

 **** Warning!!: The largest alpha MO coefficient is  0.26573958D+02


 **** Warning!!: The largest beta MO coefficient is  0.27034085D+02


 **** Warning!!: The smallest beta delta epsilon is  0.92939645D-01

 Leave Link  801 at Mon Oct 24 01:03:08 2016, MaxMem=    33554432 cpu:         0.1
 (Enter /home/proyectos/fulerenos/M3C-v2.0/M3C-deps_CCC/g09-AM64L-G09RevC.01/l1101.exe)
 Using compressed storage, NAtomX=     4.
 Will process      5 centers per pass.
 Leave Link 1101 at Mon Oct 24 01:03:08 2016, MaxMem=    33554432 cpu:         1.2
 (Enter /home/proyectos/fulerenos/M3C-v2.0/M3C-deps_CCC/g09-AM64L-G09RevC.01/l1102.exe)
 Symmetrizing basis deriv contribution to polar:
 IMax=3 JMax=2 DiffMx= 0.00D+00
 Leave Link 1102 at Mon Oct 24 01:03:08 2016, MaxMem=    33554432 cpu:         0.1
 (Enter /home/proyectos/fulerenos/M3C-v2.0/M3C-deps_CCC/g09-AM64L-G09RevC.01/l1110.exe)
 Forming Gx(P) for the SCF density, NAtomX=     4.
 Integral derivatives from FoFJK, PRISM(SPDF).
 Do as many integral derivatives as possible in FoFJK.
 G2DrvN: MDV=      33554296.
 G2DrvN: will do     5 centers at a time, making    1 passes.
 Calling FoFCou, ICntrl=  3107 FMM=F I1Cent=   0 AccDes= 0.00D+00.
 FoFJK:  IHMeth= 1 ICntrl=    3107 DoSepK=F KAlg= 0 I1Cent=   0 FoldK=F
 IRaf=         0 NMat=   1 IRICut=       1 DoRegI=T DoRafI=F ISym2E= 1.
 FoFCou: FMM=F IPFlag=           0 FMFlag=      100000 FMFlg1=           0
         NFxFlg=           0 DoJE=F BraDBF=F KetDBF=F FulRan=T
         wScrn=  0.000000 ICntrl=    3107 IOpCl=  1 I1Cent=           0 NGrid=           0
         NMat0=    1 NMatS0=      1 NMatT0=    0 NMatD0=    1 NMtDS0=    0 NMtDT0=    0
 Petite list used in FoFCou.
 End of G2Drv F.D. properties file   721 does not exist.
 End of G2Drv F.D. properties file   722 does not exist.
 End of G2Drv F.D. properties file   788 does not exist.
 Leave Link 1110 at Mon Oct 24 01:03:24 2016, MaxMem=    33554432 cpu:        62.1
 (Enter /home/proyectos/fulerenos/M3C-v2.0/M3C-deps_CCC/g09-AM64L-G09RevC.01/l1002.exe)
 Minotr:  UHF open shell wavefunction.
          IDoAtm=1111
          Direct CPHF calculation.
          Differentiating once with respect to electric field.
                with respect to dipole field.
          Differentiating once with respect to nuclear coordinates.
          Using symmetry in CPHF.
          Requested convergence is 1.0D-08 RMS, and 1.0D-07 maximum.
          Secondary convergence is 1.0D-12 RMS, and 1.0D-12 maximum.
          NewPWx=T KeepS1=F KeepF1=F KeepIn=T MapXYZ=F SortEE=F KeepMc=T.
          MDV=      33554012 using IRadAn=       2.
 Generate precomputed XC quadrature information.
          Solving linear equations simultaneously, MaxMat=       0.
 FoFJK:  IHMeth= 1 ICntrl=       0 DoSepK=F KAlg= 0 I1Cent=   0 FoldK=F
 IRaf= 900000000 NMat=   9 IRICut=       1 DoRegI=T DoRafI=F ISym2E= 2.
 FoFCou: FMM=F IPFlag=           0 FMFlag=      100000 FMFlg1=           0
         NFxFlg=           0 DoJE=F BraDBF=F KetDBF=F FulRan=T
         wScrn=  0.000000 ICntrl=       0 IOpCl=  1 I1Cent=           0 NGrid=           0
         NMat0=    9 NMatS0=      9 NMatT0=    0 NMatD0=    9 NMtDS0=    0 NMtDT0=    0
 Integrals replicated using symmetry in FoFCou.
          There are     9 degrees of freedom in the 1st order CPHF.  IDoFFX=4 NUNeed=     9.
      9 vectors produced by pass  0 Test12= 1.11D-13 1.11D-08 XBig12= 6.88D+02 1.68D+01.
 AX will form     9 AO Fock derivatives at one time.
      9 vectors produced by pass  1 Test12= 1.11D-13 1.11D-08 XBig12= 3.44D+02 4.78D+00.
      9 vectors produced by pass  2 Test12= 1.11D-13 1.11D-08 XBig12= 3.02D+01 1.68D+00.
      9 vectors produced by pass  3 Test12= 1.11D-13 1.11D-08 XBig12= 1.41D+00 3.27D-01.
      9 vectors produced by pass  4 Test12= 1.11D-13 1.11D-08 XBig12= 6.67D-02 1.29D-01.
      9 vectors produced by pass  5 Test12= 1.11D-13 1.11D-08 XBig12= 2.90D-03 2.38D-02.
      9 vectors produced by pass  6 Test12= 1.11D-13 1.11D-08 XBig12= 7.24D-05 1.96D-03.
      9 vectors produced by pass  7 Test12= 1.11D-13 1.11D-08 XBig12= 2.86D-06 3.38D-04.
      9 vectors produced by pass  8 Test12= 1.11D-13 1.11D-08 XBig12= 9.03D-08 7.00D-05.
      6 vectors produced by pass  9 Test12= 1.11D-13 1.11D-08 XBig12= 1.73D-09 1.17D-05.
      3 vectors produced by pass 10 Test12= 1.11D-13 1.11D-08 XBig12= 2.50D-11 9.91D-07.
      3 vectors produced by pass 11 Test12= 1.11D-13 1.11D-08 XBig12= 3.57D-13 1.34D-07.
      1 vectors produced by pass 12 Test12= 1.11D-13 1.11D-08 XBig12= 6.63D-15 1.12D-08.
 InvSVY:  IOpt=1 It=  1 EMax= 3.55D-15
 Solved reduced A of dimension    94 with     9 vectors.
 FullF1:  Do perturbations    1 to     9.
 Isotropic polarizability for W=    0.000000       90.96 Bohr**3.
 End of Minotr F.D. properties file   721 does not exist.
 End of Minotr F.D. properties file   722 does not exist.
 End of Minotr F.D. properties file   788 does not exist.
 Leave Link 1002 at Mon Oct 24 01:05:20 2016, MaxMem=    33554432 cpu:       442.9
 (Enter /home/proyectos/fulerenos/M3C-v2.0/M3C-deps_CCC/g09-AM64L-G09RevC.01/l601.exe)
 Copying SCF densities to generalized density rwf, IOpCl= 1 IROHF=0.

 **********************************************************************

            Population analysis using the SCF density.

 **********************************************************************

 Orbital symmetries:
 Alpha Orbitals:
       Occupied  (B2) (A1) (B2) (A1) (B2) (A1) (B2) (A1) (A1) (B2)
                 (A2) (B1) (A1) (B2) (A2) (B1) (B2) (A1) (B2) (A1)
                 (A1) (B2) (A1) (B2) (A1) (A1) (B1) (B2) (A2) (B2)
                 (A1) (B1) (A2)
       Virtual   (B2) (A1) (B2) (A1) (B2) (B1) (A1) (A1) (A1) (A2)
                 (B1) (B2) (B2) (A1) (A2) (B2) (B1) (A1) (B2) (A1)
                 (B1) (B2) (A1) (A2) (A1) (B2) (B1) (A2) (B2) (A1)
                 (B2) (A1) (B2) (B1) (B1) (B2) (A2) (A1) (A2) (B2)
                 (A1) (A2) (A1) (B2) (B1) (A1) (B2) (A2) (A1) (B2)
                 (A1) (B2) (B2) (A1) (B1) (A1) (A1) (A2) (B2) (B1)
                 (B2) (B1) (A2) (B2) (A1) (B1) (A2) (B2) (A1) (A2)
                 (B2) (B2) (A1) (A1) (B2) (B1) (A1) (B1) (A2) (A1)
                 (A1) (B2) (A1) (B1) (A1) (A2) (B2) (B1) (B2) (A2)
                 (B1) (B1) (A2) (A2) (B2) (B2) (A1) (A1) (B2) (A1)
                 (B1) (A1) (B2) (A2) (A2) (B2) (A1) (B2) (B1) (A1)
                 (A2) (B2) (A1) (B2) (B2) (A1) (B1) (B2) (A2) (A1)
                 (B1) (A2) (B1) (B2) (A2) (A1) (B2) (A1) (B2) (B1)
                 (A2) (A1) (B2) (A1) (B2) (A1) (B2) (A1) (B2) (B1)
                 (A2) (A1) (B1) (A1) (A2) (B2) (A1) (B2) (A1) (B2)
                 (B2) (A1) (B2) (A1) (B2)
 Beta  Orbitals:
       Occupied  (B2) (A1) (B2) (A1) (B2) (A1) (B2) (A1) (A1) (B2)
                 (A1) (B2) (A2) (B1) (B2) (A1) (B2) (A1) (A2) (B1)
                 (A1) (B2) (A1) (B2) (A1) (A1) (B2) (B1) (A2) (B2)
                 (A1)
       Virtual   (B1) (A2) (B2) (A1) (B2) (A1) (B2) (B1) (A1) (A1)
                 (A1) (A2) (B1) (B2) (B2) (A1) (A2) (B2) (B1) (A1)
                 (B2) (A1) (B1) (B2) (A1) (A2) (A1) (B2) (B2) (A1)
                 (B1) (A2) (B2) (A1) (B2) (B1) (B1) (B2) (A1) (A2)
                 (A2) (A1) (B2) (A1) (A2) (B2) (B1) (A1) (B2) (A1)
                 (A2) (B2) (A1) (B2) (B2) (A1) (B1) (A1) (A1) (A2)
                 (B2) (B1) (B2) (B1) (B2) (A2) (A1) (B1) (A2) (B2)
                 (A1) (B2) (A2) (B2) (A1) (A1) (B2) (B1) (A1) (B1)
                 (A2) (A1) (A1) (B2) (A1) (A1) (B2) (B1) (A2) (B1)
                 (B2) (A2) (B1) (A2) (B1) (B2) (A2) (B2) (A1) (A1)
                 (B2) (A1) (B1) (A1) (B2) (A2) (A2) (B2) (A1) (B2)
                 (B1) (A1) (A2) (B2) (A1) (B2) (B2) (A1) (B1) (B2)
                 (A2) (A1) (B1) (A2) (B2) (B1) (A2) (A1) (B2) (A1)
                 (B2) (B1) (A2) (A1) (B2) (A1) (B2) (A1) (B2) (A1)
                 (B2) (B1) (A1) (A2) (B1) (A1) (B2) (A2) (A1) (B2)
                 (A1) (B2) (B2) (A1) (B2) (A1) (B2)
 The electronic state is 3-B2.
 Alpha  occ. eigenvalues --  -88.91546 -88.91546 -88.89386 -88.89386  -7.99747
 Alpha  occ. eigenvalues --   -7.99745  -7.97731  -7.97727  -5.95859  -5.95859
 Alpha  occ. eigenvalues --   -5.95823  -5.95822  -5.95644  -5.95644  -5.94077
 Alpha  occ. eigenvalues --   -5.94077  -5.93880  -5.93879  -5.93358  -5.93358
 Alpha  occ. eigenvalues --   -0.85655  -0.82450  -0.65532  -0.60857  -0.43169
 Alpha  occ. eigenvalues --   -0.40569  -0.39763  -0.38744  -0.36696  -0.29873
 Alpha  occ. eigenvalues --   -0.26675  -0.26584  -0.23470
 Alpha virt. eigenvalues --   -0.11615  -0.04558  -0.00094   0.00853   0.02857
 Alpha virt. eigenvalues --    0.03757   0.04219   0.04899   0.05385   0.06245
 Alpha virt. eigenvalues --    0.07104   0.07362   0.08618   0.09234   0.10427
 Alpha virt. eigenvalues --    0.10612   0.11139   0.13087   0.14581   0.14879
 Alpha virt. eigenvalues --    0.15423   0.17210   0.17919   0.19463   0.22689
 Alpha virt. eigenvalues --    0.23860   0.24243   0.25323   0.25631   0.25816
 Alpha virt. eigenvalues --    0.28058   0.28774   0.29973   0.30236   0.32563
 Alpha virt. eigenvalues --    0.33623   0.34013   0.34853   0.35480   0.38724
 Alpha virt. eigenvalues --    0.38762   0.41677   0.42195   0.45525   0.45630
 Alpha virt. eigenvalues --    0.49263   0.50370   0.51184   0.52180   0.56284
 Alpha virt. eigenvalues --    0.62814   0.67390   0.81780   0.86253   0.87084
 Alpha virt. eigenvalues --    0.89583   0.91308   0.92417   0.93503   0.93730
 Alpha virt. eigenvalues --    0.95510   1.00550   1.01357   1.02372   1.03341
 Alpha virt. eigenvalues --    1.04427   1.04477   1.05167   1.06594   1.08610
 Alpha virt. eigenvalues --    1.09551   1.11685   1.12189   1.15829   1.22863
 Alpha virt. eigenvalues --    1.37476   1.38144   1.43922   1.45618   1.48386
 Alpha virt. eigenvalues --    1.54450   1.54509   1.56661   1.56989   1.57334
 Alpha virt. eigenvalues --    1.57642   1.58357   1.58368   1.61874   1.62307
 Alpha virt. eigenvalues --    1.62981   1.63837   1.63984   1.65795   1.65878
 Alpha virt. eigenvalues --    1.67466   1.70720   1.71696   1.77511   1.80928
 Alpha virt. eigenvalues --    1.84691   1.87187   1.87916   1.89405   1.93041
 Alpha virt. eigenvalues --    2.09653   2.23159   2.26174   2.27579   2.29733
 Alpha virt. eigenvalues --    2.30173   2.36601   2.38277   2.39299   2.48010
 Alpha virt. eigenvalues --    4.50216   4.50441   4.51173   4.53059   4.54059
 Alpha virt. eigenvalues --    4.55267   4.59270   4.60130   4.60343   4.62994
 Alpha virt. eigenvalues --    4.63215   4.64169   4.66630   4.67603   4.78937
 Alpha virt. eigenvalues --    4.79735   4.80839   4.81175   5.50816   5.53830
 Alpha virt. eigenvalues --    7.63390   7.86121   7.99564   8.06187  17.22281
 Alpha virt. eigenvalues --   17.24881  17.25275  17.27255  17.29108  17.30368
 Alpha virt. eigenvalues --   17.30713  17.47744  17.49692  17.55170  17.62197
 Alpha virt. eigenvalues --   17.65925 188.78046 189.04078 189.10823 189.20576
  Beta  occ. eigenvalues --  -88.91259 -88.91258 -88.89009 -88.89009  -7.99489
  Beta  occ. eigenvalues --   -7.99486  -7.97390  -7.97386  -5.95711  -5.95710
  Beta  occ. eigenvalues --   -5.95504  -5.95504  -5.94899  -5.94899  -5.93681
  Beta  occ. eigenvalues --   -5.93681  -5.93143  -5.93143  -5.92895  -5.92895
  Beta  occ. eigenvalues --   -0.84318  -0.81034  -0.62907  -0.58006  -0.42452
  Beta  occ. eigenvalues --   -0.39704  -0.37625  -0.35648  -0.32224  -0.29161
  Beta  occ. eigenvalues --   -0.25859
  Beta virt. eigenvalues --   -0.16565  -0.13288  -0.10748  -0.03925   0.00608
  Beta virt. eigenvalues --    0.00942   0.02862   0.03909   0.04219   0.05102
  Beta virt. eigenvalues --    0.05612   0.06392   0.07459   0.07539   0.08706
  Beta virt. eigenvalues --    0.09290   0.10642   0.10920   0.12308   0.13332
  Beta virt. eigenvalues --    0.14602   0.15072   0.17402   0.17548   0.18299
  Beta virt. eigenvalues --    0.21558   0.23722   0.24189   0.25955   0.26054
  Beta virt. eigenvalues --    0.26132   0.26755   0.28735   0.30165   0.30179
  Beta virt. eigenvalues --    0.31324   0.33993   0.34250   0.35084   0.35467
  Beta virt. eigenvalues --    0.36864   0.39245   0.39846   0.42831   0.43439
  Beta virt. eigenvalues --    0.46569   0.47218   0.49746   0.50761   0.52811
  Beta virt. eigenvalues --    0.52879   0.56507   0.63265   0.67988   0.82461
  Beta virt. eigenvalues --    0.86821   0.88549   0.90769   0.91545   0.93874
  Beta virt. eigenvalues --    0.94525   0.95893   0.96591   1.02291   1.02899
  Beta virt. eigenvalues --    1.02998   1.04892   1.06331   1.06368   1.06626
  Beta virt. eigenvalues --    1.07633   1.09747   1.10400   1.13124   1.13330
  Beta virt. eigenvalues --    1.16346   1.23406   1.38847   1.39070   1.45751
  Beta virt. eigenvalues --    1.46987   1.49426   1.55569   1.55951   1.57319
  Beta virt. eigenvalues --    1.58201   1.58765   1.58968   1.59799   1.61152
  Beta virt. eigenvalues --    1.62292   1.64524   1.65419   1.66425   1.66660
  Beta virt. eigenvalues --    1.66922   1.68960   1.69204   1.72328   1.72743
  Beta virt. eigenvalues --    1.79004   1.81148   1.86364   1.89532   1.90162
  Beta virt. eigenvalues --    1.91295   1.94739   2.09909   2.23848   2.26875
  Beta virt. eigenvalues --    2.29660   2.29935   2.32273   2.36871   2.38612
  Beta virt. eigenvalues --    2.39680   2.48516   4.50586   4.51098   4.51513
  Beta virt. eigenvalues --    4.53722   4.54120   4.56038   4.59953   4.60393
  Beta virt. eigenvalues --    4.60859   4.63816   4.63867   4.64785   4.67308
  Beta virt. eigenvalues --    4.68383   4.79724   4.80519   4.80909   4.81233
  Beta virt. eigenvalues --    5.51382   5.54431   7.63997   7.86713   8.00057
  Beta virt. eigenvalues --    8.06688  17.23539  17.25464  17.26239  17.28731
  Beta virt. eigenvalues --   17.29390  17.30999  17.31755  17.47975  17.49944
  Beta virt. eigenvalues --   17.55424  17.62439  17.66175 188.78351 189.04391
  Beta virt. eigenvalues --  189.11122 189.20867
          Condensed to atoms (all electrons):
               1          2          3          4
     1  S   15.596706   0.441344  -0.059255   0.043287
     2  S    0.441344  15.495641   0.100187  -0.059255
     3  S   -0.059255   0.100187  15.495641   0.441344
     4  S    0.043287  -0.059255   0.441344  15.596706
          Atomic-Atomic Spin Densities.
               1          2          3          4
     1  S    0.697038  -0.124434  -0.000039   0.007081
     2  S   -0.124434   0.536361   0.008468  -0.000039
     3  S   -0.000039   0.008468   0.536361  -0.124434
     4  S    0.007081  -0.000039  -0.124434   0.697038
 Mulliken charges and spin densities:
               1          2
     1  S   -0.022082   0.579645
     2  S    0.022082   0.420355
     3  S    0.022082   0.420355
     4  S   -0.022082   0.579645
 Sum of Mulliken charges =  -0.00000   2.00000
 Mulliken charges and spin densities with hydrogens summed into heavy atoms:
               1          2
     1  S   -0.022082   0.579645
     2  S    0.022082   0.420355
     3  S    0.022082   0.420355
     4  S   -0.022082   0.579645
 APT charges:
               1
     1  S   -0.045228
     2  S    0.045228
     3  S    0.045228
     4  S   -0.045228
 Sum of APT charges =   0.00000
 APT charges with hydrogens summed into heavy atoms:
               1
     1  S   -0.045228
     2  S    0.045228
     3  S    0.045228
     4  S   -0.045228
 Electronic spatial extent (au):  <R**2>=            782.7494
 Charge=             -0.0000 electrons
 Dipole moment (field-independent basis, Debye):
    X=             -0.0000    Y=             -0.0000    Z=             -0.4606  Tot=              0.4606
 Quadrupole moment (field-independent basis, Debye-Ang):
   XX=            -51.7741   YY=            -53.1201   ZZ=            -48.5706
   XY=             -0.0000   XZ=             -0.0000   YZ=             -0.0000
 Traceless Quadrupole moment (field-independent basis, Debye-Ang):
   XX=             -0.6192   YY=             -1.9651   ZZ=              2.5843
   XY=             -0.0000   XZ=             -0.0000   YZ=             -0.0000
 Octapole moment (field-independent basis, Debye-Ang**2):
  XXX=             -0.0000  YYY=             -0.0000  ZZZ=             -0.3970  XYY=             -0.0000
  XXY=              0.0000  XXZ=              0.1044  XZZ=             -0.0000  YZZ=              0.0000
  YYZ=              0.6132  XYZ=              0.0000
 Hexadecapole moment (field-independent basis, Debye-Ang**3):
 XXXX=            -70.3432 YYYY=           -721.2654 ZZZZ=           -316.4876 XXXY=             -0.0000
 XXXZ=             -0.0000 YYYX=             -0.0000 YYYZ=              0.0000 ZZZX=             -0.0000
 ZZZY=             -0.0000 XXYY=           -130.4034 XXZZ=            -68.5368 YYZZ=           -166.5881
 XXYZ=             -0.0000 YYXZ=             -0.0000 ZZXY=             -0.0000
 N-N= 3.184495863828D+02 E-N=-4.425330334126D+03  KE= 1.590630647172D+03
 Symmetry A1   KE= 7.202477311916D+02
 Symmetry A2   KE= 7.627957239030D+01
 Symmetry B1   KE= 7.567681286203D+01
 Symmetry B2   KE= 7.184265307282D+02
  Exact polarizability:  54.580  -0.000 124.878   0.000   0.000  93.429
 Approx polarizability:  92.930   0.000 266.092   0.000  -0.000 239.070
                          Isotropic Fermi Contact Couplings
        Atom                 a.u.       MegaHertz       Gauss      10(-4) cm-1
     1  S(33)              0.01748       3.00255       1.07138       1.00154
     2  S(33)              0.01445       2.48147       0.88545       0.82773
     3  S(33)              0.01445       2.48147       0.88545       0.82773
     4  S(33)              0.01748       3.00255       1.07138       1.00154
 --------------------------------------------------------
       Center         ----  Spin Dipole Couplings  ----
                      3XX-RR        3YY-RR        3ZZ-RR
 --------------------------------------------------------
     1   Atom        2.827558     -1.380415     -1.447143
     2   Atom        2.262452     -1.129904     -1.132547
     3   Atom        2.262452     -1.129904     -1.132547
     4   Atom        2.827558     -1.380415     -1.447143
 --------------------------------------------------------
                        XY            XZ            YZ
 --------------------------------------------------------
     1   Atom        0.000000     -0.000000      0.009922
     2   Atom        0.000000      0.000000     -0.017655
     3   Atom        0.000000      0.000000      0.017655
     4   Atom        0.000000      0.000000     -0.009922
 --------------------------------------------------------


 ---------------------------------------------------------------------------------
              Anisotropic Spin Dipole Couplings in Principal Axis System
 ---------------------------------------------------------------------------------

       Atom             a.u.   MegaHertz   Gauss  10(-4) cm-1        Axes

              Baa    -1.4486   -59.391   -21.192   -19.811  0.0000 -0.1440  0.9896
     1 S(33)  Bbb    -1.3790   -56.537   -20.174   -18.859 -0.0000  0.9896  0.1440
              Bcc     2.8276   115.927    41.366    38.669  1.0000  0.0000  0.0000
 
              Baa    -1.1489   -47.105   -16.808   -15.713 -0.0000  0.6802  0.7330
     2 S(33)  Bbb    -1.1135   -45.653   -16.290   -15.228 -0.0000  0.7330 -0.6802
              Bcc     2.2625    92.758    33.099    30.941  1.0000  0.0000  0.0000
 
              Baa    -1.1489   -47.105   -16.808   -15.713 -0.0000 -0.6802  0.7330
     3 S(33)  Bbb    -1.1135   -45.653   -16.290   -15.228  0.0000  0.7330  0.6802
              Bcc     2.2625    92.758    33.099    30.941  1.0000 -0.0000  0.0000
 
              Baa    -1.4486   -59.391   -21.192   -19.811 -0.0000  0.1440  0.9896
     4 S(33)  Bbb    -1.3790   -56.537   -20.174   -18.859 -0.0000  0.9896 -0.1440
              Bcc     2.8276   115.927    41.366    38.669  1.0000  0.0000  0.0000
 

 ---------------------------------------------------------------------------------

 No NMR shielding tensors so no spin-rotation constants.
 Leave Link  601 at Mon Oct 24 01:05:21 2016, MaxMem=    33554432 cpu:         1.8
 (Enter /home/proyectos/fulerenos/M3C-v2.0/M3C-deps_CCC/g09-AM64L-G09RevC.01/l701.exe)
 Compute integral second derivatives.
 ... and contract with generalized density number  0.
 Leave Link  701 at Mon Oct 24 01:05:21 2016, MaxMem=    33554432 cpu:         1.6
 (Enter /home/proyectos/fulerenos/M3C-v2.0/M3C-deps_CCC/g09-AM64L-G09RevC.01/l702.exe)
 L702 exits ... SP integral derivatives will be done elsewhere.
 Leave Link  702 at Mon Oct 24 01:05:21 2016, MaxMem=    33554432 cpu:         0.1
 (Enter /home/proyectos/fulerenos/M3C-v2.0/M3C-deps_CCC/g09-AM64L-G09RevC.01/l703.exe)
 Compute integral second derivatives, UseDBF=F ICtDFT=           0.
 Integral derivatives from FoFJK, PRISM(SPDF).
 Calling FoFJK, ICntrl=    100127 FMM=F ISym2X=1 I1Cent= 0 IOpClX= 1 NMat=1 NMatS=1 NMatT=0.
 FoFJK:  IHMeth= 1 ICntrl=  100127 DoSepK=F KAlg= 0 I1Cent=   0 FoldK=F
 IRaf=         0 NMat=   1 IRICut=       1 DoRegI=T DoRafI=F ISym2E= 1.
 FoFCou: FMM=F IPFlag=           0 FMFlag=      100000 FMFlg1=         800
         NFxFlg=           0 DoJE=F BraDBF=F KetDBF=F FulRan=T
         wScrn=  0.000000 ICntrl=  100127 IOpCl=  1 I1Cent=           0 NGrid=           0
         NMat0=    1 NMatS0=      1 NMatT0=    0 NMatD0=    1 NMtDS0=    0 NMtDT0=    0
 Petite list used in FoFCou.
 Leave Link  703 at Mon Oct 24 01:05:44 2016, MaxMem=    33554432 cpu:        91.5
 (Enter /home/proyectos/fulerenos/M3C-v2.0/M3C-deps_CCC/g09-AM64L-G09RevC.01/l716.exe)
 Dipole        =-2.84936624D-18 7.46892511D-14-1.81201107D-01
 Polarizability= 5.45797901D+01-5.73138981D-09 1.24878430D+02
                 3.76350082D-10 7.89863017D-08 9.34293359D+01
 Full mass-weighted force constant matrix:
 Low frequencies ---   -8.1609   -0.0041   -0.0028    0.0018   10.6200   16.1841
 Low frequencies ---   80.6199   87.7787  221.7119
 Diagonal vibrational polarizability:
        0.0000000       4.3335129       5.0526177
 Harmonic frequencies (cm**-1), IR intensities (KM/Mole), Raman scattering
 activities (A**4/AMU), depolarization ratios for plane and unpolarized
 incident light, reduced masses (AMU), force constants (mDyne/A),
 and normal coordinates:
                      1                      2                      3
                     A1                     A2                     A1
 Frequencies --     80.6199                87.7755               221.7119
 Red. masses --     31.9721                31.9721                31.9721
 Frc consts  --      0.1224                 0.1451                 0.9260
 IR Inten    --      1.1552                 0.0000                 0.4895
  Atom  AN      X      Y      Z        X      Y      Z        X      Y      Z
     1  16     0.00   0.62   0.06    -0.44   0.00   0.00     0.00   0.34  -0.01
     2  16    -0.00  -0.33  -0.06     0.56  -0.00  -0.00    -0.00   0.62   0.01
     3  16     0.00   0.33  -0.06    -0.56   0.00  -0.00     0.00  -0.62   0.01
     4  16    -0.00  -0.62   0.06     0.44  -0.00   0.00    -0.00  -0.34  -0.01
                      4                      5                      6
                     B2                     B2                     A1
 Frequencies --    263.8248               666.4190               694.8498
 Red. masses --     31.9721                31.9721                31.9721
 Frc consts  --      1.3111                 8.3660                 9.0950
 IR Inten    --      0.1948                70.2727                 0.0251
  Atom  AN      X      Y      Z        X      Y      Z        X      Y      Z
     1  16     0.00   0.41  -0.20    -0.00  -0.09   0.49     0.00  -0.07   0.50
     2  16    -0.00  -0.41  -0.35     0.00   0.09  -0.49    -0.00   0.06  -0.50
     3  16     0.00  -0.41   0.35    -0.00   0.09   0.49     0.00  -0.06  -0.50
     4  16    -0.00   0.41   0.20     0.00  -0.09  -0.49    -0.00   0.07   0.50

 -------------------
 - Thermochemistry -
 -------------------
 Temperature   298.150 Kelvin.  Pressure   1.00000 Atm.
 Atom     1 has atomic number 16 and mass  31.97207
 Atom     2 has atomic number 16 and mass  31.97207
 Atom     3 has atomic number 16 and mass  31.97207
 Atom     4 has atomic number 16 and mass  31.97207
 Molecular mass:   127.88829 amu.
 Principal axes and moments of inertia in atomic units:
                           1         2         3
     Eigenvalues --   402.02181 934.115301336.13711
           X            0.00000   0.00000   1.00000
           Y            1.00000   0.00000  -0.00000
           Z            0.00000   1.00000   0.00000
 This molecule is an asymmetric top.
 Rotational symmetry number  2.
 Rotational temperatures (Kelvin)      0.21545     0.09272     0.06482
 Rotational constants (GHZ):           4.48916     1.93203     1.35072
 Zero-point vibrational energy      12053.6 (Joules/Mol)
                                    2.88087 (Kcal/Mol)
 Warning -- explicit consideration of   4 degrees of freedom as
           vibrations may cause significant error
 Vibrational temperatures:    115.99   126.29   318.99   379.58   958.83
          (Kelvin)            999.73
 
 Zero-point correction=                           0.004591 (Hartree/Particle)
 Thermal correction to Energy=                    0.010191
 Thermal correction to Enthalpy=                  0.011135
 Thermal correction to Gibbs Free Energy=        -0.027252
 Sum of electronic and zero-point Energies=          -1592.875676
 Sum of electronic and thermal Energies=             -1592.870077
 Sum of electronic and thermal Enthalpies=           -1592.869132
 Sum of electronic and thermal Free Energies=        -1592.907519
 
                     E (Thermal)             CV                S
                      KCal/Mol        Cal/Mol-Kelvin    Cal/Mol-Kelvin
 Total                    6.395             15.163             80.792
 Electronic               0.000              0.000              2.183
 Translational            0.889              2.981             40.451
 Rotational               0.889              2.981             26.331
 Vibrational              4.617              9.201             11.827
 Vibration     1          0.600              1.962              3.876
 Vibration     2          0.601              1.958              3.709
 Vibration     3          0.648              1.808              1.945
 Vibration     4          0.670              1.739              1.636
                       Q            Log10(Q)             Ln(Q)
 Total Bot       0.342839D+13         12.535090         28.863111
 Total V=0       0.443387D+15         14.646783         33.725464
 Vib (Bot)       0.158562D+00         -0.799800         -1.841607
 Vib (Bot)    1  0.255425D+01          0.407264          0.937760
 Vib (Bot)    2  0.234329D+01          0.369827          0.851558
 Vib (Bot)    3  0.891523D+00         -0.049867         -0.114824
 Vib (Bot)    4  0.734822D+00         -0.133818         -0.308127
 Vib (V=0)       0.205066D+02          1.311893          3.020746
 Vib (V=0)    1  0.310273D+01          0.491744          1.132283
 Vib (V=0)    2  0.289604D+01          0.461805          1.063346
 Vib (V=0)    3  0.152216D+01          0.182461          0.420131
 Vib (V=0)    4  0.138880D+01          0.142639          0.328439
 Electronic      0.300000D+01          0.477121          1.098612
 Translational   0.568462D+08          7.754701         17.855860
 Rotational      0.126785D+06          5.103067         11.750246
 
                                                              b3lyp opt
                                                             IR Spectrum
 
                                                                                                                                     
     6     6                                                                        2       2                                        
     9     6                                                                        6       2                       8 8              
     5     6                                                                        4       2                       8 1              
 
           X                                                                        X       X                         X              
           X                                                                                                                         
           X                                                                                                                         
           X                                                                                                                         
           X                                                                                                                         
           X                                                                                                                         
           X                                                                                                                         
           X                                                                                                                         
           X                                                                                                                         
           X                                                                                                                         
           X                                                                                                                         
           X                                                                                                                         
           X                                                                                                                         
           X                                                                                                                         
           X                                                                                                                         
           X                                                                                                                         
           X                                                                                                                         
           X                                                                                                                         
           X                                                                                                                         
           X                                                                                                                         
 
 ***** Axes restored to original set *****
 -------------------------------------------------------------------
 Center     Atomic                   Forces (Hartrees/Bohr)
 Number     Number              X              Y              Z
 -------------------------------------------------------------------
      1       16           0.000000000    0.000013133   -0.000001103
      2       16           0.000000000   -0.000013205   -0.000002124
      3       16          -0.000000000   -0.000013098    0.000002706
      4       16          -0.000000000    0.000013169    0.000000521
 -------------------------------------------------------------------
 Cartesian Forces:  Max     0.000013205 RMS     0.000007666
 Z-matrix is all fixed cartesians, so copy forces.
 Force constants in Cartesian coordinates: 
                1             2             3             4             5 
      1  0.177080D-02
      2 -0.556499D-05  0.279536D+00
      3 -0.303208D-05  0.455583D-01  0.289355D-01
      4 -0.220356D-02  0.499613D-05  0.000000D+00  0.291847D-02
      5  0.346077D-05 -0.269286D+00 -0.262428D-01 -0.302319D-05  0.285216D+00
      6  0.000000D+00 -0.405094D-01 -0.829578D-02 -0.436694D-05  0.218402D-01
      7  0.224385D-02  0.164890D-05  0.309471D-05 -0.295876D-02  0.000000D+00
      8  0.105978D-05 -0.201746D-01 -0.935107D-02  0.000000D+00  0.318769D-02
      9  0.310775D-05 -0.148246D-01 -0.263044D-01  0.000000D+00 -0.463002D-02
     10 -0.181109D-02 -0.108006D-05  0.000000D+00  0.224385D-02  0.000000D+00
     11  0.104444D-05  0.992473D-02 -0.996440D-02 -0.151030D-05 -0.191176D-01
     12  0.000000D+00  0.977565D-02  0.566466D-02  0.316466D-05  0.903264D-02
                6             7             8             9            10 
      6  0.430116D-01
      7  0.000000D+00  0.291847D-02
      8  0.416294D-02  0.282693D-05  0.282810D+00
      9 -0.735438D-02 -0.449647D-05 -0.324649D-01  0.454177D-01
     10  0.315161D-05 -0.220356D-02 -0.342409D-05  0.000000D+00  0.177080D-02
     11  0.145062D-01 -0.495945D-05 -0.265823D+00  0.519196D-01  0.542533D-05
     12 -0.273615D-01  0.000000D+00  0.376531D-01 -0.117589D-01 -0.327543D-05
               11            12 
     11  0.275016D+00
     12 -0.564614D-01  0.334557D-01
 Leave Link  716 at Mon Oct 24 01:05:44 2016, MaxMem=    33554432 cpu:         0.1
 (Enter /home/proyectos/fulerenos/M3C-v2.0/M3C-deps_CCC/g09-AM64L-G09RevC.01/l103.exe)

 GradGradGradGradGradGradGradGradGradGradGradGradGradGradGradGradGradGrad
 Berny optimization.
 Search for a local minimum.
 Step number   1 out of a maximum of    2
 All quantities printed in internal units (Hartrees-Bohrs-Radians)
 Second derivative matrix not updated -- analytic derivatives used.
 The second derivative matrix:
                          X1        Y1        Z1        X2        Y2
           X1           0.00177
           Y1          -0.00001   0.27954
           Z1          -0.00000   0.04556   0.02894
           X2          -0.00220   0.00000   0.00000   0.00292
           Y2           0.00000  -0.26929  -0.02624  -0.00000   0.28522
           Z2           0.00000  -0.04051  -0.00830  -0.00000   0.02184
           X3           0.00224   0.00000   0.00000  -0.00296   0.00000
           Y3           0.00000  -0.02017  -0.00935  -0.00000   0.00319
           Z3           0.00000  -0.01482  -0.02630   0.00000  -0.00463
           X4          -0.00181  -0.00000  -0.00000   0.00224  -0.00000
           Y4           0.00000   0.00992  -0.00996  -0.00000  -0.01912
           Z4          -0.00000   0.00978   0.00566   0.00000   0.00903
                          Z2        X3        Y3        Z3        X4
           Z2           0.04301
           X3           0.00000   0.00292
           Y3           0.00416   0.00000   0.28281
           Z3          -0.00735  -0.00000  -0.03246   0.04542
           X4           0.00000  -0.00220  -0.00000   0.00000   0.00177
           Y4           0.01451  -0.00000  -0.26582   0.05192   0.00001
           Z4          -0.02736   0.00000   0.03765  -0.01176  -0.00000
                          Y4        Z4
           Y4           0.27502
           Z4          -0.05646   0.03346
 ITU=  0
     Eigenvalues ---    0.00786   0.00932   0.05948   0.08422   0.53735
     Eigenvalues ---    0.58418
 Angle between quadratic step and forces=  75.99 degrees.
 ClnCor:  largest displacement from symmetrization is 1.28D-12 for atom     3.
 Linear search not attempted -- first point.
 ClnCor:  largest displacement from symmetrization is 2.26D-15 for atom     2.
 B after Tr=    -0.000000    0.000000   -0.000000
         Rot=    1.000000    0.000000   -0.000000    0.000000 Ang=   0.00 deg.
 Variable       Old X    -DE/DX   Delta X   Delta X   Delta X     New X
                                 (Linear)    (Quad)   (Total)
    X1       -0.00032   0.00000   0.00000   0.00000   0.00000  -0.00032
    Y1        2.31144   0.00001   0.00000   0.00004   0.00004   2.31148
    Z1        2.96126  -0.00000   0.00000  -0.00023  -0.00023   2.96103
    X2       -0.00025   0.00000   0.00000  -0.00000  -0.00000  -0.00025
    Y2       -1.24775  -0.00001   0.00000  -0.00004  -0.00004  -1.24779
    Z2        2.40528  -0.00000   0.00000   0.00008   0.00008   2.40536
    X3        0.00025  -0.00000   0.00000   0.00000   0.00000   0.00025
    Y3       -1.35253  -0.00001   0.00000  -0.00005  -0.00005  -1.35257
    Z3       -2.32678   0.00000   0.00000  -0.00008  -0.00008  -2.32686
    X4        0.00032  -0.00000   0.00000  -0.00000  -0.00000   0.00032
    Y4        2.17856   0.00001   0.00000   0.00005   0.00005   2.17861
    Z4       -3.03976   0.00000   0.00000   0.00023   0.00023  -3.03953
         Item               Value     Threshold  Converged?
 Maximum Force            0.000013     0.000450     YES
 RMS     Force            0.000008     0.000300     YES
 Maximum Displacement     0.000229     0.001800     YES
 RMS     Displacement     0.000102     0.001200     YES
 Predicted change in Energy=-1.139214D-09
 Optimization completed.
    -- Stationary point found.
 GradGradGradGradGradGradGradGradGradGradGradGradGradGradGradGradGradGrad

 Leave Link  103 at Mon Oct 24 01:05:44 2016, MaxMem=    33554432 cpu:         0.1
 (Enter /home/proyectos/fulerenos/M3C-v2.0/M3C-deps_CCC/g09-AM64L-G09RevC.01/l9999.exe)
 1\1\GINC-BELVIS17\Freq\UB3LYP\6-311++G(3df,2p)\S4(3)\ROOT\24-Oct-2016\
 0\\#p b3lyp/6-311++G(3df,2p) freq symmetry=Loose\\b3lyp opt\\0,3\S,-0.
 000170966,1.223160913,1.567030484\S,-0.000134814,-0.660278981,1.272818
 14\S,0.000134814,-0.7157260191,-1.2312791402\S,0.000170966,1.152845087
 3,-1.6085704838\\Version=EM64L-G09RevE.01\State=3-B2\HF=-1592.8802673\
 S2=2.009851\S2-1=0.\S2A=2.000059\RMSD=8.594e-09\RMSF=7.666e-06\ZeroPoi
 nt=0.004591\Thermal=0.0101907\Dipole=0.,-0.1811567,0.0040113\DipoleDer
 iv=-0.0255552,0.0000088,0.0000089,0.0000775,-0.0181869,-0.7201836,0.00
 00073,-0.0817381,-0.0919423,0.0255552,-0.0000158,-0.0000087,-0.0000847
 ,0.0211099,0.786894,-0.0000072,0.1469721,0.0890193,0.0255552,0.0000154
 ,-0.0000094,0.0000843,-0.0200526,-0.7820613,-0.0000109,-0.1421395,0.13
 01817,-0.0255552,-0.0000084,0.0000092,-0.0000771,0.0171296,0.7153509,0
 .0000108,0.0769055,-0.1272587\Polar=54.579791,-0.0001675,93.4447475,-0
 .0075657,0.696021,124.8630174\PG=C02V [SGV(S4)]\NImag=0\\0.00177080,-0
 .00000556,0.27953631,-0.00000303,0.04555831,0.02893554,-0.00220356,0.0
 0000500,0.00000072,0.00291847,0.00000346,-0.26928643,-0.02624285,-0.00
 000302,0.28521632,0.00000075,-0.04050935,-0.00829578,-0.00000437,0.021
 84023,0.04301161,0.00224385,0.00000165,0.00000309,-0.00295876,0.000000
 48,0.00000046,0.00291847,0.00000106,-0.02017462,-0.00935107,-0.0000004
 6,0.00318769,0.00416294,0.00000283,0.28281024,0.00000311,-0.01482461,-
 0.02630442,0.00000048,-0.00463002,-0.00735438,-0.00000450,-0.03246493,
 0.04541770,-0.00181109,-0.00000108,-0.00000078,0.00224385,-0.00000092,
 0.00000315,-0.00220356,-0.00000342,0.00000090,0.00177080,0.00000104,0.
 00992473,-0.00996440,-0.00000151,-0.01911758,0.01450619,-0.00000496,-0
 .26582330,0.05191957,0.00000543,0.27501615,-0.00000083,0.00977565,0.00
 566466,0.00000316,0.00903264,-0.02736146,0.00000094,0.03765306,-0.0117
 5890,-0.00000328,-0.05646135,0.03345570\\0.,-0.00001313,0.00000110,0.,
 0.00001320,0.00000212,0.,0.00001310,-0.00000271,0.,-0.00001317,-0.0000
 0052\\\@


 TO DRY ONE'S EYES AND LAUGH AT A FALL
 AND BAFFLED, GET UP AND BEGIN AGAIN.
           R. BROWNING
 Job cpu time:       0 days  0 hours 12 minutes 52.0 seconds.
 File lengths (MBytes):  RWF=     50 Int=      0 D2E=      0 Chk=      4 Scr=      1
 Normal termination of Gaussian 09 at Mon Oct 24 01:05:44 2016.
