 Entering Gaussian System, Link 0=/home/proyectos/fulerenos/M3C-v2.0/M3C-deps_CCC/g09-AM64L-G09RevC.01/g09
 Initial command:
 /home/proyectos/fulerenos/M3C-v2.0/M3C-deps_CCC/g09-AM64L-G09RevC.01/l1.exe "/scratch/naguirre/gaussian/Gau-19109.inp" -scrdir="/scratch/naguirre/gaussian/"
 Entering Link 1 = /home/proyectos/fulerenos/M3C-v2.0/M3C-deps_CCC/g09-AM64L-G09RevC.01/l1.exe PID=     19116.
  
 Copyright (c) 1988,1990,1992,1993,1995,1998,2003,2009,2015,
            Gaussian, Inc.  All Rights Reserved.
  
 This is part of the Gaussian(R) 09 program.  It is based on
 the Gaussian(R) 03 system (copyright 2003, Gaussian, Inc.),
 the Gaussian(R) 98 system (copyright 1998, Gaussian, Inc.),
 the Gaussian(R) 94 system (copyright 1995, Gaussian, Inc.),
 the Gaussian 92(TM) system (copyright 1992, Gaussian, Inc.),
 the Gaussian 90(TM) system (copyright 1990, Gaussian, Inc.),
 the Gaussian 88(TM) system (copyright 1988, Gaussian, Inc.),
 the Gaussian 86(TM) system (copyright 1986, Carnegie Mellon
 University), and the Gaussian 82(TM) system (copyright 1983,
 Carnegie Mellon University). Gaussian is a federally registered
 trademark of Gaussian, Inc.
  
 This software contains proprietary and confidential information,
 including trade secrets, belonging to Gaussian, Inc.
  
 This software is provided under written license and may be
 used, copied, transmitted, or stored only in accord with that
 written license.
  
 The following legend is applicable only to US Government
 contracts under FAR:
  
                    RESTRICTED RIGHTS LEGEND
  
 Use, reproduction and disclosure by the US Government is
 subject to restrictions as set forth in subparagraphs (a)
 and (c) of the Commercial Computer Software - Restricted
 Rights clause in FAR 52.227-19.
  
 Gaussian, Inc.
 340 Quinnipiac St., Bldg. 40, Wallingford CT 06492
  
  
 ---------------------------------------------------------------
 Warning -- This program may not be used in any manner that
 competes with the business of Gaussian, Inc. or will provide
 assistance to any competitor of Gaussian, Inc.  The licensee
 of this program is prohibited from giving any competitor of
 Gaussian, Inc. access to this program.  By using this program,
 the user acknowledges that Gaussian, Inc. is engaged in the
 business of creating and licensing software in the field of
 computational chemistry and represents and warrants to the
 licensee that it is not a competitor of Gaussian, Inc. and that
 it will not use this program in any manner prohibited above.
 ---------------------------------------------------------------
  

 Cite this work as:
 Gaussian 09, Revision E.01,
 M. J. Frisch, G. W. Trucks, H. B. Schlegel, G. E. Scuseria, 
 M. A. Robb, J. R. Cheeseman, G. Scalmani, V. Barone, B. Mennucci, 
 G. A. Petersson, H. Nakatsuji, M. Caricato, X. Li, H. P. Hratchian, 
 A. F. Izmaylov, J. Bloino, G. Zheng, J. L. Sonnenberg, M. Hada, 
 M. Ehara, K. Toyota, R. Fukuda, J. Hasegawa, M. Ishida, T. Nakajima, 
 Y. Honda, O. Kitao, H. Nakai, T. Vreven, J. A. Montgomery, Jr., 
 J. E. Peralta, F. Ogliaro, M. Bearpark, J. J. Heyd, E. Brothers, 
 K. N. Kudin, V. N. Staroverov, T. Keith, R. Kobayashi, J. Normand, 
 K. Raghavachari, A. Rendell, J. C. Burant, S. S. Iyengar, J. Tomasi, 
 M. Cossi, N. Rega, J. M. Millam, M. Klene, J. E. Knox, J. B. Cross, 
 V. Bakken, C. Adamo, J. Jaramillo, R. Gomperts, R. E. Stratmann, 
 O. Yazyev, A. J. Austin, R. Cammi, C. Pomelli, J. W. Ochterski, 
 R. L. Martin, K. Morokuma, V. G. Zakrzewski, G. A. Voth, 
 P. Salvador, J. J. Dannenberg, S. Dapprich, A. D. Daniels, 
 O. Farkas, J. B. Foresman, J. V. Ortiz, J. Cioslowski, 
 and D. J. Fox, Gaussian, Inc., Wallingford CT, 2013.
 
 ******************************************
 Gaussian 09:  EM64L-G09RevE.01 30-Nov-2015
                24-Oct-2016 
 ******************************************
 %NProcShared=4
 Will use up to    4 processors via shared memory.
 ---------------------------------------------
 #p b3lyp/6-311++G(3df,2p) freq symmetry=Loose
 ---------------------------------------------
 1/10=4,30=1,38=1/1,3;
 2/12=2,17=4,18=3,40=1/2;
 3/5=4,6=6,7=1216,11=2,16=1,25=1,30=1,71=2,74=-5,140=1/1,2,3;
 4//1;
 5/5=2,38=5,98=1/2;
 8/6=4,10=90,11=11/1;
 11/6=1,8=1,9=11,15=111,16=1/1,2,10;
 10/6=1/2;
 6/7=2,8=2,9=2,10=2,18=1,28=1/1;
 7/8=1,10=1,25=1/1,2,3,16;
 1/10=4,30=1/3;
 99//99;
 Leave Link    1 at Mon Oct 24 01:00:22 2016, MaxMem=           0 cpu:         0.3
 (Enter /home/proyectos/fulerenos/M3C-v2.0/M3C-deps_CCC/g09-AM64L-G09RevC.01/l101.exe)
 ---------
 b3lyp opt
 ---------
 Symbolic Z-matrix:
 Charge =  0 Multiplicity = 1
 S                     1.26165   0.70308   0.29246 
 S                    -0.45637   1.06086  -0.91539 
 S                     0.57122  -1.31135   0.35453 
 S                    -1.3765   -0.45259   0.2684 
 
 NAtoms=      4 NQM=        4 NQMF=       0 NMMI=      0 NMMIF=      0
                NMic=       0 NMicF=      0.
                    Isotopes and Nuclear Properties:
 (Nuclear quadrupole moments (NQMom) in fm**2, nuclear magnetic moments (NMagM)
  in nuclear magnetons)

  Atom         1           2           3           4
 IAtWgt=          32          32          32          32
 AtmWgt=  31.9720718  31.9720718  31.9720718  31.9720718
 NucSpn=           0           0           0           0
 AtZEff=   0.0000000   0.0000000   0.0000000   0.0000000
 NQMom=    0.0000000   0.0000000   0.0000000   0.0000000
 NMagM=    0.0000000   0.0000000   0.0000000   0.0000000
 AtZNuc=  16.0000000  16.0000000  16.0000000  16.0000000
 Leave Link  101 at Mon Oct 24 01:00:22 2016, MaxMem=    33554432 cpu:         0.2
 (Enter /home/proyectos/fulerenos/M3C-v2.0/M3C-deps_CCC/g09-AM64L-G09RevC.01/l103.exe)

 GradGradGradGradGradGradGradGradGradGradGradGradGradGradGradGradGradGrad
 Berny optimization.
 Initialization pass.
 Trust Radius=3.00D-01 FncErr=1.00D-07 GrdErr=1.00D-07
 Number of steps in this run=      2 maximum allowed number of steps=      2.
 GradGradGradGradGradGradGradGradGradGradGradGradGradGradGradGradGradGrad

 Leave Link  103 at Mon Oct 24 01:00:22 2016, MaxMem=    33554432 cpu:         0.0
 (Enter /home/proyectos/fulerenos/M3C-v2.0/M3C-deps_CCC/g09-AM64L-G09RevC.01/l202.exe)
                          Input orientation:                          
 ---------------------------------------------------------------------
 Center     Atomic      Atomic             Coordinates (Angstroms)
 Number     Number       Type             X           Y           Z
 ---------------------------------------------------------------------
      1         16           0        1.261655    0.703083    0.292455
      2         16           0       -0.456374    1.060857   -0.915389
      3         16           0        0.571219   -1.311353    0.354533
      4         16           0       -1.376502   -0.452588    0.268401
 ---------------------------------------------------------------------
                    Distance matrix (angstroms):
                    1          2          3          4
     1  S    0.000000
     2  S    2.130378   0.000000
     3  S    2.130378   2.880283   0.000000
     4  S    2.880283   2.130378   2.130378   0.000000
 Stoichiometry    S4
 Framework group  D2D[2SGD(S2)]
 Deg. of freedom     2
 Full point group                 D2D     NOp   8
 Largest Abelian subgroup         C2V     NOp   4
 Largest concise Abelian subgroup C2V     NOp   4
                         Standard orientation:                         
 ---------------------------------------------------------------------
 Center     Atomic      Atomic             Coordinates (Angstroms)
 Number     Number       Type             X           Y           Z
 ---------------------------------------------------------------------
      1         16           0        0.000000    1.440141    0.312449
      2         16           0       -1.440141   -0.000000   -0.312449
      3         16           0        1.440141    0.000000   -0.312449
      4         16           0        0.000000   -1.440141    0.312449
 ---------------------------------------------------------------------
 Rotational constants (GHZ):      3.4828361      3.4828361      1.9053563
 Leave Link  202 at Mon Oct 24 01:00:22 2016, MaxMem=    33554432 cpu:         0.0
 (Enter /home/proyectos/fulerenos/M3C-v2.0/M3C-deps_CCC/g09-AM64L-G09RevC.01/l301.exe)
 Standard basis: 6-311++G(3df,2p) (5D, 7F)
 Ernie: Thresh=  0.10000D-02 Tol=  0.10000D-05 Strict=F.
 There are    74 symmetry adapted cartesian basis functions of A1  symmetry.
 There are    32 symmetry adapted cartesian basis functions of A2  symmetry.
 There are    53 symmetry adapted cartesian basis functions of B1  symmetry.
 There are    53 symmetry adapted cartesian basis functions of B2  symmetry.
 There are    64 symmetry adapted basis functions of A1  symmetry.
 There are    30 symmetry adapted basis functions of A2  symmetry.
 There are    47 symmetry adapted basis functions of B1  symmetry.
 There are    47 symmetry adapted basis functions of B2  symmetry.
   188 basis functions,   288 primitive gaussians,   212 cartesian basis functions
    32 alpha electrons       32 beta electrons
       nuclear repulsion energy       348.4241305866 Hartrees.
 IExCor=  402 DFT=T Ex+Corr=B3LYP ExCW=0 ScaHFX=  0.200000
 ScaDFX=  0.800000  0.720000  1.000000  0.810000 ScalE2=  1.000000  1.000000
 IRadAn=      0 IRanWt=     -1 IRanGd=            0 ICorTp=0 IEmpDi=  4
 NAtoms=    4 NActive=    4 NUniq=    1 SFac= 4.00D+00 NAtFMM=   60 NAOKFM=F Big=F
 Integral buffers will be    131072 words long.
 Raffenetti 2 integral format.
 Two-electron integral symmetry is turned on.
 Leave Link  301 at Mon Oct 24 01:00:22 2016, MaxMem=    33554432 cpu:         0.2
 (Enter /home/proyectos/fulerenos/M3C-v2.0/M3C-deps_CCC/g09-AM64L-G09RevC.01/l302.exe)
 NPDir=0 NMtPBC=     1 NCelOv=     1 NCel=       1 NClECP=     1 NCelD=      1
         NCelK=      1 NCelE2=     1 NClLst=     1 CellRange=     0.0.
 One-electron integrals computed using PRISM.
 One-electron integral symmetry used in STVInt
 NBasis=   188 RedAO= T EigKep=  5.91D-04  NBF=    64    30    47    47
 NBsUse=   188 1.00D-06 EigRej= -1.00D+00 NBFU=    64    30    47    47
 Precomputing XC quadrature grid using
 IXCGrd= 4 IRadAn=           0 IRanWt=          -1 IRanGd=           0 AccXCQ= 0.00D+00.
 Generated NRdTot=       0 NPtTot=           0 NUsed=           0 NTot=          32
 NSgBfM=   204   204   204   204   204 MxSgAt=     4 MxSgA2=     4.
 Leave Link  302 at Mon Oct 24 01:00:23 2016, MaxMem=    33554432 cpu:         1.0
 (Enter /home/proyectos/fulerenos/M3C-v2.0/M3C-deps_CCC/g09-AM64L-G09RevC.01/l303.exe)
 DipDrv:  MaxL=1.
 Leave Link  303 at Mon Oct 24 01:00:23 2016, MaxMem=    33554432 cpu:         0.1
 (Enter /home/proyectos/fulerenos/M3C-v2.0/M3C-deps_CCC/g09-AM64L-G09RevC.01/l401.exe)
 ExpMin= 4.05D-02 ExpMax= 9.34D+04 ExpMxC= 3.17D+03 IAcc=2 IRadAn=         4 AccDes= 0.00D+00
 Harris functional with IExCor=  402 and IRadAn=       4 diagonalized for initial guess.
 HarFok:  IExCor=  402 AccDes= 0.00D+00 IRadAn=         4 IDoV= 1 UseB2=F ITyADJ=14
 ICtDFT=  3500011 ScaDFX=  1.000000  1.000000  1.000000  1.000000
 FoFCou: FMM=F IPFlag=           0 FMFlag=      100000 FMFlg1=           0
         NFxFlg=           0 DoJE=T BraDBF=F KetDBF=T FulRan=T
         wScrn=  0.000000 ICntrl=     500 IOpCl=  0 I1Cent=   200000004 NGrid=           0
         NMat0=    1 NMatS0=      1 NMatT0=    0 NMatD0=    1 NMtDS0=    0 NMtDT0=    0
 Petite list used in FoFCou.
 Harris En= -1592.65504933442    
 JPrj=0 DoOrth=F DoCkMO=F.
 Initial guess orbital symmetries:
       Occupied  (E) (E) (B2) (A1) (E) (E) (B2) (A1) (A1) (E) (E)
                 (B2) (B1) (E) (E) (A2) (B2) (E) (E) (A1) (A1)
                 (E) (E) (B2) (B1) (A1) (B2) (E) (E) (E) (E) (A1)
       Virtual   (E) (E) (A2) (B2) (A1) (B2) (E) (E) (B1) (A1)
                 (E) (E) (B2) (A1) (E) (E) (A2) (E) (E) (B2) (A1)
                 (A2) (B2) (E) (E) (B1) (A1) (E) (E) (E) (E) (B2)
                 (E) (E) (B2) (A1) (A2) (E) (E) (B1) (B2) (A1)
                 (E) (E) (A1) (B1) (E) (E) (B2) (E) (E) (A2) (A1)
                 (E) (E) (A1) (B1) (E) (E) (B2) (A2) (E) (E) (B1)
                 (B2) (B2) (A1) (E) (E) (E) (E) (B2) (E) (E) (A1)
                 (A2) (A1) (B2) (E) (E) (B1) (A2) (E) (E) (B2)
                 (A1) (E) (E) (B1) (E) (E) (B2) (A1) (A2) (A1)
                 (E) (E) (B2) (E) (E) (A1) (E) (E) (B1) (A2) (B1)
                 (E) (E) (A1) (E) (E) (B2) (A2) (E) (E) (B2) (B1)
                 (E) (E) (A1) (A2) (E) (E) (B2) (B1) (E) (E) (A1)
                 (E) (E) (A1) (B2) (B2) (E) (E) (A2) (A1) (B2)
                 (E) (E) (B2) (E) (E) (A1) (B1) (A1) (E) (E) (A2)
                 (E) (E) (B2) (A1) (B2) (E) (E)
 The electronic state of the initial guess is 1-A1.
 Leave Link  401 at Mon Oct 24 01:00:23 2016, MaxMem=    33554432 cpu:         1.2
 (Enter /home/proyectos/fulerenos/M3C-v2.0/M3C-deps_CCC/g09-AM64L-G09RevC.01/l502.exe)
 Closed shell SCF:
 Using DIIS extrapolation, IDIIS=  1040.
 Integral symmetry usage will be decided dynamically.
 IVT=      157210 IEndB=      157210 NGot=    33554432 MDV=    33459019
 LenX=    33459019 LenY=    33413634
 Requested convergence on RMS density matrix=1.00D-08 within 128 cycles.
 Requested convergence on MAX density matrix=1.00D-06.
 Requested convergence on             energy=1.00D-06.
 No special actions if energy rises.
 Fock matrices will be formed incrementally for  20 cycles.

 Cycle   1  Pass 1  IDiag  1:
 FoFJK:  IHMeth= 1 ICntrl=       0 DoSepK=F KAlg= 0 I1Cent=   0 FoldK=F
 IRaf= 930000000 NMat=   1 IRICut=       1 DoRegI=T DoRafI=F ISym2E= 1.
 FoFCou: FMM=F IPFlag=           0 FMFlag=      100000 FMFlg1=           0
         NFxFlg=           0 DoJE=F BraDBF=F KetDBF=F FulRan=T
         wScrn=  0.000000 ICntrl=       0 IOpCl=  0 I1Cent=           0 NGrid=           0
         NMat0=    1 NMatS0=      1 NMatT0=    0 NMatD0=    1 NMtDS0=    0 NMtDT0=    0
 Petite list used in FoFCou.
 E= -1592.84146810108    
 DIIS: error= 2.21D-02 at cycle   1 NSaved=   1.
 NSaved= 1 IEnMin= 1 EnMin= -1592.84146810108     IErMin= 1 ErrMin= 2.21D-02
 ErrMax= 2.21D-02  0.00D+00 EMaxC= 1.00D-01 BMatC= 7.03D-02 BMatP= 7.03D-02
 IDIUse=3 WtCom= 7.79D-01 WtEn= 2.21D-01
 Coeff-Com:  0.100D+01
 Coeff-En:   0.100D+01
 Coeff:      0.100D+01
 Gap=     0.102 Goal=   None    Shift=    0.000
 GapD=    0.102 DampG=1.000 DampE=0.500 DampFc=0.5000 IDamp=-1.
 Damping current iteration by 5.00D-01
 RMSDP=1.10D-03 MaxDP=3.48D-02              OVMax= 3.95D-02

 Cycle   2  Pass 1  IDiag  1:
 RMSU=  5.48D-04    CP:  1.00D+00
 E= -1592.84851421777     Delta-E=       -0.007046116696 Rises=F Damp=T
 DIIS: error= 8.67D-03 at cycle   2 NSaved=   2.
 NSaved= 2 IEnMin= 2 EnMin= -1592.84851421777     IErMin= 2 ErrMin= 8.67D-03
 ErrMax= 8.67D-03  0.00D+00 EMaxC= 1.00D-01 BMatC= 1.16D-02 BMatP= 7.03D-02
 IDIUse=3 WtCom= 9.13D-01 WtEn= 8.67D-02
 Coeff-Com: -0.461D+00 0.146D+01
 Coeff-En:   0.000D+00 0.100D+01
 Coeff:     -0.421D+00 0.142D+01
 Gap=     0.106 Goal=   None    Shift=    0.000
 RMSDP=4.82D-04 MaxDP=8.27D-03 DE=-7.05D-03 OVMax= 3.03D-02

 Cycle   3  Pass 1  IDiag  1:
 RMSU=  4.66D-04    CP:  1.00D+00  1.17D+00
 E= -1592.85233552926     Delta-E=       -0.003821311485 Rises=F Damp=F
 DIIS: error= 6.80D-03 at cycle   3 NSaved=   3.
 NSaved= 3 IEnMin= 3 EnMin= -1592.85233552926     IErMin= 3 ErrMin= 6.80D-03
 ErrMax= 6.80D-03  0.00D+00 EMaxC= 1.00D-01 BMatC= 3.86D-03 BMatP= 1.16D-02
 IDIUse=3 WtCom= 9.32D-01 WtEn= 6.80D-02
 Coeff-Com: -0.306D+00 0.716D+00 0.591D+00
 Coeff-En:   0.000D+00 0.000D+00 0.100D+01
 Coeff:     -0.286D+00 0.667D+00 0.618D+00
 Gap=     0.106 Goal=   None    Shift=    0.000
 RMSDP=3.13D-04 MaxDP=8.06D-03 DE=-3.82D-03 OVMax= 1.57D-02

 Cycle   4  Pass 1  IDiag  1:
 RMSU=  1.08D-04    CP:  1.00D+00  1.46D+00  4.92D-01
 E= -1592.85571280567     Delta-E=       -0.003377276417 Rises=F Damp=F
 DIIS: error= 1.74D-03 at cycle   4 NSaved=   4.
 NSaved= 4 IEnMin= 4 EnMin= -1592.85571280567     IErMin= 4 ErrMin= 1.74D-03
 ErrMax= 1.74D-03  0.00D+00 EMaxC= 1.00D-01 BMatC= 2.78D-04 BMatP= 3.86D-03
 IDIUse=3 WtCom= 9.83D-01 WtEn= 1.74D-02
 Coeff-Com: -0.696D-01 0.140D+00 0.272D+00 0.657D+00
 Coeff-En:   0.000D+00 0.000D+00 0.000D+00 0.100D+01
 Coeff:     -0.684D-01 0.138D+00 0.267D+00 0.663D+00
 Gap=     0.106 Goal=   None    Shift=    0.000
 RMSDP=6.81D-05 MaxDP=1.09D-03 DE=-3.38D-03 OVMax= 3.50D-03

 Cycle   5  Pass 1  IDiag  1:
 RMSU=  1.72D-05    CP:  1.00D+00  1.42D+00  5.94D-01  6.36D-01
 E= -1592.85595645833     Delta-E=       -0.000243652655 Rises=F Damp=F
 DIIS: error= 4.46D-05 at cycle   5 NSaved=   5.
 NSaved= 5 IEnMin= 5 EnMin= -1592.85595645833     IErMin= 5 ErrMin= 4.46D-05
 ErrMax= 4.46D-05  0.00D+00 EMaxC= 1.00D-01 BMatC= 5.62D-07 BMatP= 2.78D-04
 IDIUse=1 WtCom= 1.00D+00 WtEn= 0.00D+00
 Coeff-Com: -0.105D-01 0.205D-01 0.543D-01 0.161D+00 0.774D+00
 Coeff:     -0.105D-01 0.205D-01 0.543D-01 0.161D+00 0.774D+00
 Gap=     0.106 Goal=   None    Shift=    0.000
 RMSDP=5.30D-06 MaxDP=1.84D-04 DE=-2.44D-04 OVMax= 2.16D-04

 Cycle   6  Pass 1  IDiag  1:
 RMSU=  1.32D-06    CP:  1.00D+00  1.42D+00  5.97D-01  6.76D-01  9.00D-01
 E= -1592.85595685730     Delta-E=       -0.000000398968 Rises=F Damp=F
 DIIS: error= 8.52D-06 at cycle   6 NSaved=   6.
 NSaved= 6 IEnMin= 6 EnMin= -1592.85595685730     IErMin= 6 ErrMin= 8.52D-06
 ErrMax= 8.52D-06  0.00D+00 EMaxC= 1.00D-01 BMatC= 6.85D-09 BMatP= 5.62D-07
 IDIUse=1 WtCom= 1.00D+00 WtEn= 0.00D+00
 Coeff-Com:  0.173D-03-0.423D-03-0.634D-03 0.288D-02 0.782D-01 0.920D+00
 Coeff:      0.173D-03-0.423D-03-0.634D-03 0.288D-02 0.782D-01 0.920D+00
 Gap=     0.106 Goal=   None    Shift=    0.000
 RMSDP=4.82D-07 MaxDP=8.30D-06 DE=-3.99D-07 OVMax= 3.00D-05

 Cycle   7  Pass 1  IDiag  1:
 RMSU=  2.52D-07    CP:  1.00D+00  1.42D+00  5.97D-01  6.76D-01  9.15D-01
                    CP:  1.09D+00
 E= -1592.85595686423     Delta-E=       -0.000000006936 Rises=F Damp=F
 DIIS: error= 8.24D-07 at cycle   7 NSaved=   7.
 NSaved= 7 IEnMin= 7 EnMin= -1592.85595686423     IErMin= 7 ErrMin= 8.24D-07
 ErrMax= 8.24D-07  0.00D+00 EMaxC= 1.00D-01 BMatC= 1.82D-10 BMatP= 6.85D-09
 IDIUse=1 WtCom= 1.00D+00 WtEn= 0.00D+00
 Coeff-Com:  0.193D-03-0.383D-03-0.124D-02-0.286D-02-0.350D-02 0.174D+00
 Coeff-Com:  0.834D+00
 Coeff:      0.193D-03-0.383D-03-0.124D-02-0.286D-02-0.350D-02 0.174D+00
 Coeff:      0.834D+00
 Gap=     0.106 Goal=   None    Shift=    0.000
 RMSDP=1.25D-07 MaxDP=2.49D-06 DE=-6.94D-09 OVMax= 7.28D-06

 Cycle   8  Pass 1  IDiag  1:
 RMSU=  6.83D-08    CP:  1.00D+00  1.42D+00  5.97D-01  6.77D-01  9.18D-01
                    CP:  1.12D+00  8.44D-01
 E= -1592.85595686443     Delta-E=       -0.000000000199 Rises=F Damp=F
 DIIS: error= 2.41D-07 at cycle   8 NSaved=   8.
 NSaved= 8 IEnMin= 8 EnMin= -1592.85595686443     IErMin= 8 ErrMin= 2.41D-07
 ErrMax= 2.41D-07  0.00D+00 EMaxC= 1.00D-01 BMatC= 1.16D-11 BMatP= 1.82D-10
 IDIUse=1 WtCom= 1.00D+00 WtEn= 0.00D+00
 Coeff-Com:  0.622D-04-0.121D-03-0.292D-03-0.908D-03-0.326D-02-0.750D-02
 Coeff-Com:  0.152D+00 0.860D+00
 Coeff:      0.622D-04-0.121D-03-0.292D-03-0.908D-03-0.326D-02-0.750D-02
 Coeff:      0.152D+00 0.860D+00
 Gap=     0.106 Goal=   None    Shift=    0.000
 RMSDP=2.28D-08 MaxDP=7.14D-07 DE=-1.99D-10 OVMax= 1.10D-06

 Cycle   9  Pass 1  IDiag  1:
 RMSU=  9.47D-09    CP:  1.00D+00  1.42D+00  5.97D-01  6.77D-01  9.18D-01
                    CP:  1.13D+00  8.86D-01  1.01D+00
 E= -1592.85595686445     Delta-E=       -0.000000000021 Rises=F Damp=F
 DIIS: error= 6.01D-08 at cycle   9 NSaved=   9.
 NSaved= 9 IEnMin= 9 EnMin= -1592.85595686445     IErMin= 9 ErrMin= 6.01D-08
 ErrMax= 6.01D-08  0.00D+00 EMaxC= 1.00D-01 BMatC= 4.36D-13 BMatP= 1.16D-11
 IDIUse=1 WtCom= 1.00D+00 WtEn= 0.00D+00
 Coeff-Com: -0.532D-05 0.105D-04 0.358D-04 0.588D-04 0.532D-03-0.495D-02
 Coeff-Com: -0.197D-01-0.109D-02 0.103D+01
 Coeff:     -0.532D-05 0.105D-04 0.358D-04 0.588D-04 0.532D-03-0.495D-02
 Coeff:     -0.197D-01-0.109D-02 0.103D+01
 Gap=     0.106 Goal=   None    Shift=    0.000
 RMSDP=4.82D-09 MaxDP=1.05D-07 DE=-2.14D-11 OVMax= 3.76D-07

 SCF Done:  E(RB3LYP) =  -1592.85595686     A.U. after    9 cycles
            NFock=  9  Conv=0.48D-08     -V/T= 2.0014
 KE= 1.590593818242D+03 PE=-4.484702952763D+03 EE= 9.528290470703D+02
 Leave Link  502 at Mon Oct 24 01:00:42 2016, MaxMem=    33554432 cpu:        61.9
 (Enter /home/proyectos/fulerenos/M3C-v2.0/M3C-deps_CCC/g09-AM64L-G09RevC.01/l801.exe)
 DoSCS=F DFT=T ScalE2(SS,OS)=  1.000000  1.000000
 Range of M.O.s used for correlation:     1   188
 NBasis=   188 NAE=    32 NBE=    32 NFC=     0 NFV=     0
 NROrb=    188 NOA=    32 NOB=    32 NVA=   156 NVB=   156

 **** Warning!!: The largest alpha MO coefficient is  0.13430439D+02

 Leave Link  801 at Mon Oct 24 01:00:42 2016, MaxMem=    33554432 cpu:         0.1
 (Enter /home/proyectos/fulerenos/M3C-v2.0/M3C-deps_CCC/g09-AM64L-G09RevC.01/l1101.exe)
 Using compressed storage, NAtomX=     4.
 Will process      5 centers per pass.
 Leave Link 1101 at Mon Oct 24 01:00:42 2016, MaxMem=    33554432 cpu:         1.0
 (Enter /home/proyectos/fulerenos/M3C-v2.0/M3C-deps_CCC/g09-AM64L-G09RevC.01/l1102.exe)
 Symmetrizing basis deriv contribution to polar:
 IMax=3 JMax=2 DiffMx= 0.00D+00
 Leave Link 1102 at Mon Oct 24 01:00:42 2016, MaxMem=    33554432 cpu:         0.1
 (Enter /home/proyectos/fulerenos/M3C-v2.0/M3C-deps_CCC/g09-AM64L-G09RevC.01/l1110.exe)
 Forming Gx(P) for the SCF density, NAtomX=     4.
 Integral derivatives from FoFJK, PRISM(SPDF).
 Do as many integral derivatives as possible in FoFJK.
 G2DrvN: MDV=      33554296.
 G2DrvN: will do     5 centers at a time, making    1 passes.
 Calling FoFCou, ICntrl=  3107 FMM=F I1Cent=   0 AccDes= 0.00D+00.
 FoFJK:  IHMeth= 1 ICntrl=    3107 DoSepK=F KAlg= 0 I1Cent=   0 FoldK=F
 IRaf=         0 NMat=   1 IRICut=       1 DoRegI=T DoRafI=F ISym2E= 1.
 FoFCou: FMM=F IPFlag=           0 FMFlag=      100000 FMFlg1=           0
         NFxFlg=           0 DoJE=F BraDBF=F KetDBF=F FulRan=T
         wScrn=  0.000000 ICntrl=    3107 IOpCl=  0 I1Cent=           0 NGrid=           0
         NMat0=    1 NMatS0=      1 NMatT0=    0 NMatD0=    1 NMtDS0=    0 NMtDT0=    0
 Petite list used in FoFCou.
 End of G2Drv F.D. properties file   721 does not exist.
 End of G2Drv F.D. properties file   722 does not exist.
 End of G2Drv F.D. properties file   788 does not exist.
 Leave Link 1110 at Mon Oct 24 01:00:46 2016, MaxMem=    33554432 cpu:        17.2
 (Enter /home/proyectos/fulerenos/M3C-v2.0/M3C-deps_CCC/g09-AM64L-G09RevC.01/l1002.exe)
 Minotr:  Closed shell wavefunction.
          IDoAtm=1111
          Direct CPHF calculation.
          Differentiating once with respect to electric field.
                with respect to dipole field.
          Differentiating once with respect to nuclear coordinates.
          Using symmetry in CPHF.
          Requested convergence is 1.0D-08 RMS, and 1.0D-07 maximum.
          Secondary convergence is 1.0D-12 RMS, and 1.0D-12 maximum.
          NewPWx=T KeepS1=F KeepF1=F KeepIn=T MapXYZ=F SortEE=F KeepMc=T.
          MDV=      33554200 using IRadAn=       2.
 Generate precomputed XC quadrature information.
          Solving linear equations simultaneously, MaxMat=       0.
 FoFJK:  IHMeth= 1 ICntrl=       0 DoSepK=F KAlg= 0 I1Cent=   0 FoldK=F
 IRaf= 930000000 NMat=   6 IRICut=      15 DoRegI=T DoRafI=T ISym2E= 2.
 FoFCou: FMM=F IPFlag=           0 FMFlag=      100000 FMFlg1=           0
         NFxFlg=           0 DoJE=F BraDBF=F KetDBF=F FulRan=T
         wScrn=  0.000000 ICntrl=       0 IOpCl=  0 I1Cent=           0 NGrid=           0
         NMat0=    6 NMatS0=      6 NMatT0=    0 NMatD0=    6 NMtDS0=    0 NMtDT0=    0
 Integrals replicated using symmetry in FoFCou.
          There are     6 degrees of freedom in the 1st order CPHF.  IDoFFX=4 NUNeed=     6.
      6 vectors produced by pass  0 Test12= 8.32D-14 1.67D-08 XBig12= 1.32D+02 4.58D+00.
 AX will form     6 AO Fock derivatives at one time.
      6 vectors produced by pass  1 Test12= 8.32D-14 1.67D-08 XBig12= 5.54D+01 2.11D+00.
      6 vectors produced by pass  2 Test12= 8.32D-14 1.67D-08 XBig12= 6.26D+00 1.12D+00.
      6 vectors produced by pass  3 Test12= 8.32D-14 1.67D-08 XBig12= 5.19D-01 1.65D-01.
      6 vectors produced by pass  4 Test12= 8.32D-14 1.67D-08 XBig12= 4.24D-02 8.89D-02.
      6 vectors produced by pass  5 Test12= 8.32D-14 1.67D-08 XBig12= 2.40D-03 1.36D-02.
      6 vectors produced by pass  6 Test12= 8.32D-14 1.67D-08 XBig12= 2.60D-05 1.85D-03.
      6 vectors produced by pass  7 Test12= 8.32D-14 1.67D-08 XBig12= 3.57D-07 1.81D-04.
      6 vectors produced by pass  8 Test12= 8.32D-14 1.67D-08 XBig12= 4.57D-09 1.31D-05.
      4 vectors produced by pass  9 Test12= 8.32D-14 1.67D-08 XBig12= 6.52D-11 3.92D-06.
      4 vectors produced by pass 10 Test12= 8.32D-14 1.67D-08 XBig12= 1.05D-12 3.42D-07.
      1 vectors produced by pass 11 Test12= 8.32D-14 1.67D-08 XBig12= 8.05D-15 2.83D-08.
 InvSVY:  IOpt=1 It=  1 EMax= 1.78D-15
 Solved reduced A of dimension    63 with     6 vectors.
 FullF1:  Do perturbations    1 to     6.
 Isotropic polarizability for W=    0.000000       77.91 Bohr**3.
 End of Minotr F.D. properties file   721 does not exist.
 End of Minotr F.D. properties file   722 does not exist.
 End of Minotr F.D. properties file   788 does not exist.
 Leave Link 1002 at Mon Oct 24 01:01:55 2016, MaxMem=    33554432 cpu:       268.6
 (Enter /home/proyectos/fulerenos/M3C-v2.0/M3C-deps_CCC/g09-AM64L-G09RevC.01/l601.exe)
 Copying SCF densities to generalized density rwf, IOpCl= 0 IROHF=0.

 **********************************************************************

            Population analysis using the SCF density.

 **********************************************************************

 Orbital symmetries:
       Occupied  (E) (E) (A1) (B2) (A1) (E) (E) (B2) (B1) (E) (E)
                 (A2) (A1) (E) (E) (B2) (B2) (E) (E) (A1) (A1)
                 (E) (E) (B2) (B1) (A1) (B2) (E) (E) (E) (E) (A1)
       Virtual   (E) (E) (A2) (B2) (A1) (E) (E) (B2) (B1) (A1)
                 (B2) (E) (E) (A1) (E) (E) (A2) (E) (E) (B2) (A1)
                 (A2) (B2) (E) (E) (B1) (A1) (E) (E) (E) (E) (B2)
                 (E) (E) (B2) (A1) (A2) (E) (E) (B1) (B2) (E) (E)
                 (A1) (A1) (B1) (E) (E) (B2) (E) (E) (A2) (A1)
                 (E) (E) (B1) (A1) (B2) (E) (E) (A2) (E) (E) (B1)
                 (B2) (A1) (B2) (E) (E) (E) (E) (B2) (E) (E) (A1)
                 (A2) (A1) (B2) (B1) (E) (E) (A2) (E) (E) (B2)
                 (A1) (E) (E) (B1) (E) (E) (B2) (A1) (A2) (A1)
                 (E) (E) (B2) (E) (E) (A1) (E) (E) (B1) (A2) (E)
                 (E) (B1) (A1) (E) (E) (B2) (A2) (E) (E) (B2) (B1)
                 (E) (E) (A1) (E) (E) (A2) (B2) (E) (E) (B1) (A1)
                 (E) (E) (A1) (B2) (B2) (E) (E) (A2) (A1) (B2)
                 (E) (E) (B2) (E) (E) (A1) (B1) (A1) (E) (E) (A2)
                 (E) (E) (B2) (A1) (B2) (E) (E)
 The electronic state is 1-A1.
 Alpha  occ. eigenvalues --  -88.91183 -88.91183 -88.91183 -88.91183  -7.99382
 Alpha  occ. eigenvalues --   -7.99382  -7.99382  -7.99377  -5.95827  -5.95819
 Alpha  occ. eigenvalues --   -5.95819  -5.95810  -5.95563  -5.95552  -5.95552
 Alpha  occ. eigenvalues --   -5.95542  -5.94635  -5.94634  -5.94634  -5.94633
 Alpha  occ. eigenvalues --   -0.88304  -0.73665  -0.73665  -0.59176  -0.45168
 Alpha  occ. eigenvalues --   -0.43036  -0.38839  -0.36449  -0.36449  -0.27395
 Alpha  occ. eigenvalues --   -0.27395  -0.22476
 Alpha virt. eigenvalues --   -0.11854  -0.11854  -0.06933  -0.03649   0.01015
 Alpha virt. eigenvalues --    0.03727   0.03727   0.04113   0.04296   0.05244
 Alpha virt. eigenvalues --    0.06620   0.06642   0.06642   0.09791   0.09999
 Alpha virt. eigenvalues --    0.09999   0.11368   0.12308   0.12308   0.12442
 Alpha virt. eigenvalues --    0.12984   0.18355   0.18765   0.19497   0.19497
 Alpha virt. eigenvalues --    0.19982   0.23451   0.25472   0.25472   0.26721
 Alpha virt. eigenvalues --    0.26721   0.28600   0.31759   0.31759   0.32833
 Alpha virt. eigenvalues --    0.33067   0.34923   0.38066   0.38066   0.38274
 Alpha virt. eigenvalues --    0.39535   0.41823   0.41823   0.42161   0.44224
 Alpha virt. eigenvalues --    0.45435   0.46713   0.46713   0.51926   0.55460
 Alpha virt. eigenvalues --    0.55460   0.67267   0.67532   0.90376   0.90376
 Alpha virt. eigenvalues --    0.91903   0.92656   0.94076   0.94190   0.94190
 Alpha virt. eigenvalues --    0.95531   0.98003   0.98003   1.01541   1.02116
 Alpha virt. eigenvalues --    1.03238   1.03307   1.04368   1.04368   1.05419
 Alpha virt. eigenvalues --    1.05419   1.06194   1.09373   1.09373   1.14759
 Alpha virt. eigenvalues --    1.15617   1.35963   1.38040   1.42322   1.42984
 Alpha virt. eigenvalues --    1.42984   1.44877   1.48292   1.48292   1.50906
 Alpha virt. eigenvalues --    1.60333   1.61461   1.61461   1.62730   1.64660
 Alpha virt. eigenvalues --    1.64660   1.67567   1.67906   1.70016   1.74821
 Alpha virt. eigenvalues --    1.76442   1.76442   1.79105   1.82652   1.82652
 Alpha virt. eigenvalues --    1.88380   1.96400   1.96400   1.96810   2.06242
 Alpha virt. eigenvalues --    2.14662   2.14662   2.15116   2.16231   2.20112
 Alpha virt. eigenvalues --    2.20112   2.30092   2.51274   2.52594   2.52594
 Alpha virt. eigenvalues --    2.60499   4.50752   4.54655   4.54655   4.55538
 Alpha virt. eigenvalues --    4.56591   4.56591   4.56602   4.60101   4.62926
 Alpha virt. eigenvalues --    4.62926   4.62946   4.65812   4.66327   4.66327
 Alpha virt. eigenvalues --    4.71561   4.72257   4.93593   5.09125   5.09125
 Alpha virt. eigenvalues --    5.26077   7.79461   7.83471   7.92219   7.92219
 Alpha virt. eigenvalues --   17.22775  17.27455  17.27455  17.31226  17.36149
 Alpha virt. eigenvalues --   17.36936  17.44072  17.44072  17.65095  17.68593
 Alpha virt. eigenvalues --   17.68593  17.74199 188.94155 189.01741 189.11663
 Alpha virt. eigenvalues --  189.11663
          Condensed to atoms (all electrons):
               1          2          3          4
     1  S   15.715102   0.182063   0.182063  -0.079229
     2  S    0.182063  15.715102  -0.079229   0.182063
     3  S    0.182063  -0.079229  15.715102   0.182063
     4  S   -0.079229   0.182063   0.182063  15.715102
 Mulliken charges:
               1
     1  S    0.000000
     2  S    0.000000
     3  S    0.000000
     4  S    0.000000
 Sum of Mulliken charges =   0.00000
 Mulliken charges with hydrogens summed into heavy atoms:
               1
     1  S    0.000000
     2  S    0.000000
     3  S    0.000000
     4  S    0.000000
 APT charges:
               1
     1  S   -0.000000
     2  S    0.000000
     3  S    0.000000
     4  S    0.000000
 Sum of APT charges =   0.00000
 APT charges with hydrogens summed into heavy atoms:
               1
     1  S   -0.000000
     2  S    0.000000
     3  S    0.000000
     4  S    0.000000
 Electronic spatial extent (au):  <R**2>=            610.3991
 Charge=              0.0000 electrons
 Dipole moment (field-independent basis, Debye):
    X=              0.0000    Y=             -0.0000    Z=              0.0000  Tot=              0.0000
 Quadrupole moment (field-independent basis, Debye-Ang):
   XX=            -49.2326   YY=            -49.2326   ZZ=            -54.9720
   XY=             -0.0000   XZ=             -0.0000   YZ=              0.0000
 Traceless Quadrupole moment (field-independent basis, Debye-Ang):
   XX=              1.9131   YY=              1.9131   ZZ=             -3.8263
   XY=             -0.0000   XZ=             -0.0000   YZ=              0.0000
 Octapole moment (field-independent basis, Debye-Ang**2):
  XXX=              0.0000  YYY=              0.0000  ZZZ=              0.0000  XYY=             -0.0000
  XXY=             -0.0000  XXZ=             -3.1241  XZZ=             -0.0000  YZZ=             -0.0000
  YYZ=              3.1241  XYZ=             -0.0000
 Hexadecapole moment (field-independent basis, Debye-Ang**3):
 XXXX=           -383.3340 YYYY=           -383.3340 ZZZZ=           -112.9199 XXXY=             -0.0000
 XXXZ=             -0.0000 YYYX=             -0.0000 YYYZ=              0.0000 ZZZX=             -0.0000
 ZZZY=              0.0000 XXYY=           -113.5936 XXZZ=            -83.5619 YYZZ=            -83.5619
 XXYZ=              0.0000 YYXZ=              0.0000 ZZXY=             -0.0000
 N-N= 3.484241305866D+02 E-N=-4.484702953512D+03  KE= 1.590593818242D+03
 Symmetry A1   KE= 7.203779018417D+02
 Symmetry A2   KE= 7.408681540007D+01
 Symmetry B1   KE= 3.980645505000D+02
 Symmetry B2   KE= 3.980645505000D+02
  Exact polarizability:  86.288   0.000  86.288   0.000   0.000  61.143
 Approx polarizability: 174.072  -0.000 174.072   0.000  -0.000 106.153
 No NMR shielding tensors so no spin-rotation constants.
 Leave Link  601 at Mon Oct 24 01:01:55 2016, MaxMem=    33554432 cpu:         1.1
 (Enter /home/proyectos/fulerenos/M3C-v2.0/M3C-deps_CCC/g09-AM64L-G09RevC.01/l701.exe)
 Compute integral second derivatives.
 ... and contract with generalized density number  0.
 Leave Link  701 at Mon Oct 24 01:01:56 2016, MaxMem=    33554432 cpu:         1.4
 (Enter /home/proyectos/fulerenos/M3C-v2.0/M3C-deps_CCC/g09-AM64L-G09RevC.01/l702.exe)
 L702 exits ... SP integral derivatives will be done elsewhere.
 Leave Link  702 at Mon Oct 24 01:01:56 2016, MaxMem=    33554432 cpu:         0.1
 (Enter /home/proyectos/fulerenos/M3C-v2.0/M3C-deps_CCC/g09-AM64L-G09RevC.01/l703.exe)
 Compute integral second derivatives, UseDBF=F ICtDFT=           0.
 Integral derivatives from FoFJK, PRISM(SPDF).
 Calling FoFJK, ICntrl=    100127 FMM=F ISym2X=1 I1Cent= 0 IOpClX= 0 NMat=1 NMatS=1 NMatT=0.
 FoFJK:  IHMeth= 1 ICntrl=  100127 DoSepK=F KAlg= 0 I1Cent=   0 FoldK=F
 IRaf=         0 NMat=   1 IRICut=       1 DoRegI=T DoRafI=F ISym2E= 1.
 FoFCou: FMM=F IPFlag=           0 FMFlag=      100000 FMFlg1=         800
         NFxFlg=           0 DoJE=F BraDBF=F KetDBF=F FulRan=T
         wScrn=  0.000000 ICntrl=  100127 IOpCl=  0 I1Cent=           0 NGrid=           0
         NMat0=    1 NMatS0=      1 NMatT0=    0 NMatD0=    1 NMtDS0=    0 NMtDT0=    0
 Petite list used in FoFCou.
 Leave Link  703 at Mon Oct 24 01:02:03 2016, MaxMem=    33554432 cpu:        29.2
 (Enter /home/proyectos/fulerenos/M3C-v2.0/M3C-deps_CCC/g09-AM64L-G09RevC.01/l716.exe)
 Dipole        = 1.70753428D-13-3.13340499D-13-2.00703440D-14
 Polarizability= 8.62879895D+01 1.99745189D-09 8.62879895D+01
                 2.96076194D-10 1.31368625D-08 6.11434305D+01
 Full mass-weighted force constant matrix:
 Low frequencies ---    0.0034    0.0041    0.0053    9.1368    9.1368   15.7250
 Low frequencies ---  201.4656  301.9130  413.2925
 Diagonal vibrational polarizability:
        0.0002709       0.0002709       0.0078802
 Harmonic frequencies (cm**-1), IR intensities (KM/Mole), Raman scattering
 activities (A**4/AMU), depolarization ratios for plane and unpolarized
 incident light, reduced masses (AMU), force constants (mDyne/A),
 and normal coordinates:
                      1                      2                      3
                     A1                     B2                      E
 Frequencies --    201.4656               301.9130               413.2925
 Red. masses --     31.9721                31.9721                31.9721
 Frc consts  --      0.7646                 1.7171                 3.2176
 IR Inten    --      0.0000                 0.0267                 0.0017
  Atom  AN      X      Y      Z        X      Y      Z        X      Y      Z
     1  16     0.00  -0.21   0.45     0.00   0.50  -0.00    -0.21   0.43   0.19
     2  16     0.21  -0.00  -0.45     0.50   0.00   0.00     0.21  -0.43   0.09
     3  16    -0.21   0.00  -0.45    -0.50   0.00   0.00     0.21  -0.43  -0.09
     4  16     0.00   0.21   0.45     0.00  -0.50  -0.00    -0.21   0.43  -0.19
                      4                      5                      6
                      E                     B1                     A1
 Frequencies --    413.2925               440.7274               504.9179
 Red. masses --     31.9721                31.9721                31.9721
 Frc consts  --      3.2176                 3.6590                 4.8024
 IR Inten    --      0.0017                 0.0000                 0.0000
  Atom  AN      X      Y      Z        X      Y      Z        X      Y      Z
     1  16     0.43   0.21   0.09     0.50   0.00   0.00     0.00   0.45   0.21
     2  16    -0.43  -0.21  -0.19    -0.00  -0.50  -0.00    -0.45  -0.00  -0.21
     3  16    -0.43  -0.21   0.19    -0.00   0.50   0.00     0.45   0.00  -0.21
     4  16     0.43   0.21  -0.09    -0.50   0.00  -0.00     0.00  -0.45   0.21

 -------------------
 - Thermochemistry -
 -------------------
 Temperature   298.150 Kelvin.  Pressure   1.00000 Atm.
 Atom     1 has atomic number 16 and mass  31.97207
 Atom     2 has atomic number 16 and mass  31.97207
 Atom     3 has atomic number 16 and mass  31.97207
 Atom     4 has atomic number 16 and mass  31.97207
 Molecular mass:   127.88829 amu.
 Principal axes and moments of inertia in atomic units:
                           1         2         3
     Eigenvalues --   518.18149 518.18149 947.19354
           X            0.99961   0.02810   0.00000
           Y           -0.02810   0.99961   0.00000
           Z            0.00000  -0.00000   1.00000
 This molecule is an oblate symmetric top.
 Rotational symmetry number  4.
 Warning -- assumption of classical behavior for rotation
           may cause significant error
 Rotational temperatures (Kelvin)      0.16715     0.16715     0.09144
 Rotational constants (GHZ):           3.48284     3.48284     1.90536
 Zero-point vibrational energy      13611.2 (Joules/Mol)
                                    3.25315 (Kcal/Mol)
 Warning -- explicit consideration of   6 degrees of freedom as
           vibrations may cause significant error
 Vibrational temperatures:    289.86   434.38   594.63   594.63   634.11
          (Kelvin)            726.46
 
 Zero-point correction=                           0.005184 (Hartree/Particle)
 Thermal correction to Energy=                    0.010079
 Thermal correction to Enthalpy=                  0.011023
 Thermal correction to Gibbs Free Energy=        -0.022976
 Sum of electronic and zero-point Energies=          -1592.850773
 Sum of electronic and thermal Energies=             -1592.845878
 Sum of electronic and thermal Enthalpies=           -1592.844934
 Sum of electronic and thermal Free Energies=        -1592.878933
 
                     E (Thermal)             CV                S
                      KCal/Mol        Cal/Mol-Kelvin    Cal/Mol-Kelvin
 Total                    6.324             14.973             71.556
 Electronic               0.000              0.000              0.000
 Translational            0.889              2.981             40.451
 Rotational               0.889              2.981             24.278
 Vibrational              4.547              9.011              6.826
 Vibration     1          0.638              1.838              2.120
 Vibration     2          0.694              1.670              1.406
 Vibration     3          0.777              1.441              0.915
 Vibration     4          0.777              1.441              0.915
 Vibration     5          0.801              1.381              0.824
 Vibration     6          0.860              1.239              0.646
                       Q            Log10(Q)             Ln(Q)
 Total Bot       0.369933D+11         10.568123         24.334003
 Total V=0       0.896794D+13         12.952693         29.824678
 Vib (Bot)       0.144190D-01         -1.841066         -4.239211
 Vib (Bot)    1  0.989168D+00         -0.004730         -0.010891
 Vib (Bot)    2  0.629226D+00         -0.201193         -0.463265
 Vib (Bot)    3  0.427023D+00         -0.369549         -0.850917
 Vib (Bot)    4  0.427023D+00         -0.369549         -0.850917
 Vib (Bot)    5  0.392013D+00         -0.406699         -0.936459
 Vib (Bot)    6  0.324081D+00         -0.489346         -1.126761
 Vib (V=0)       0.349546D+01          0.543504          1.251464
 Vib (V=0)    1  0.160836D+01          0.206382          0.475213
 Vib (V=0)    2  0.130369D+01          0.115176          0.265202
 Vib (V=0)    3  0.115753D+01          0.063533          0.146290
 Vib (V=0)    4  0.115753D+01          0.063533          0.146290
 Vib (V=0)    5  0.113535D+01          0.055131          0.126944
 Vib (V=0)    6  0.109584D+01          0.039748          0.091524
 Electronic      0.100000D+01          0.000000          0.000000
 Translational   0.568462D+08          7.754701         17.855860
 Rotational      0.451323D+05          4.654488         10.717354
 
                                                              b3lyp opt
                                                             IR Spectrum
 
                                                                                                                                     
     5                4      4                           3                        2                                                  
     0                4      1                           0                        0                                                  
     5                1      3                           2                        1                                                  
 
                             X                           X                                                                           
                             X                           X                                                                           
                             X                           X                                                                           
                                                         X                                                                           
                                                         X                                                                           
                                                         X                                                                           
                                                         X                                                                           
                                                         X                                                                           
                                                         X                                                                           
                                                         X                                                                           
                                                         X                                                                           
                                                         X                                                                           
                                                         X                                                                           
                                                         X                                                                           
                                                         X                                                                           
                                                         X                                                                           
                                                         X                                                                           
                                                         X                                                                           
                                                         X                                                                           
                                                         X                                                                           
 
 ***** Axes restored to original set *****
 -------------------------------------------------------------------
 Center     Atomic                   Forces (Hartrees/Bohr)
 Number     Number              X              Y              Z
 -------------------------------------------------------------------
      1       16          -0.000010890   -0.000026655   -0.000040980
      2       16          -0.000000859    0.000000920    0.000050068
      3       16          -0.000015852    0.000035530    0.000031541
      4       16           0.000027601   -0.000009794   -0.000040629
 -------------------------------------------------------------------
 Cartesian Forces:  Max     0.000050068 RMS     0.000028916
 Z-matrix is all fixed cartesians, so copy forces.
 Force constants in Cartesian coordinates: 
                1             2             3             4             5 
      1  0.117340D+00
      2  0.313292D-01  0.114315D+00
      3  0.493989D-01 -0.993962D-02  0.475249D-01
      4 -0.675417D-01  0.247464D-01 -0.507174D-01  0.102058D+00
      5  0.447107D-02 -0.379622D-02  0.552572D-02  0.855595D-02  0.878724D-01
      6 -0.442714D-01  0.396115D-02 -0.467675D-01  0.283405D-01 -0.643455D-01
      7 -0.101493D-01 -0.396111D-01  0.937278D-02 -0.150969D-01  0.823377D-02
      8 -0.230294D-01 -0.975983D-01 -0.344341D-02  0.816380D-02 -0.307683D-01
      9 -0.397283D-02 -0.486764D-02 -0.103578D-01 -0.808675D-02  0.181587D-01
     10 -0.396493D-01 -0.164645D-01 -0.805427D-02 -0.194195D-01 -0.212608D-01
     11 -0.127709D-01 -0.129202D-01  0.785731D-02 -0.414661D-01 -0.533079D-01
     12 -0.115460D-02  0.108461D-01  0.960040D-02  0.304636D-01  0.406610D-01
                6             7             8             9            10 
      6  0.892494D-01
      7 -0.114481D-01  0.113888D+00
      8  0.258319D-01 -0.179990D-01  0.147436D+00
      9  0.289614D-02  0.676535D-02 -0.136079D-01  0.178567D-01
     10  0.273790D-01 -0.886413D-01  0.328646D-01  0.529423D-02  0.147710D+00
     11  0.345524D-01  0.493763D-01 -0.190691D-01  0.316789D-03  0.486067D-02
     12 -0.453780D-01 -0.469006D-02 -0.878063D-02 -0.103950D-01 -0.246189D-01
               11            12 
     11  0.852972D-01
     12 -0.427265D-01  0.461726D-01
 Leave Link  716 at Mon Oct 24 01:02:03 2016, MaxMem=    33554432 cpu:         0.1
 (Enter /home/proyectos/fulerenos/M3C-v2.0/M3C-deps_CCC/g09-AM64L-G09RevC.01/l103.exe)

 GradGradGradGradGradGradGradGradGradGradGradGradGradGradGradGradGradGrad
 Berny optimization.
 Search for a local minimum.
 Step number   1 out of a maximum of    2
 All quantities printed in internal units (Hartrees-Bohrs-Radians)
 Second derivative matrix not updated -- analytic derivatives used.
 The second derivative matrix:
                          X1        Y1        Z1        X2        Y2
           X1           0.11734
           Y1           0.03133   0.11431
           Z1           0.04940  -0.00994   0.04752
           X2          -0.06754   0.02475  -0.05072   0.10206
           Y2           0.00447  -0.00380   0.00553   0.00856   0.08787
           Z2          -0.04427   0.00396  -0.04677   0.02834  -0.06435
           X3          -0.01015  -0.03961   0.00937  -0.01510   0.00823
           Y3          -0.02303  -0.09760  -0.00344   0.00816  -0.03077
           Z3          -0.00397  -0.00487  -0.01036  -0.00809   0.01816
           X4          -0.03965  -0.01646  -0.00805  -0.01942  -0.02126
           Y4          -0.01277  -0.01292   0.00786  -0.04147  -0.05331
           Z4          -0.00115   0.01085   0.00960   0.03046   0.04066
                          Z2        X3        Y3        Z3        X4
           Z2           0.08925
           X3          -0.01145   0.11389
           Y3           0.02583  -0.01800   0.14744
           Z3           0.00290   0.00677  -0.01361   0.01786
           X4           0.02738  -0.08864   0.03286   0.00529   0.14771
           Y4           0.03455   0.04938  -0.01907   0.00032   0.00486
           Z4          -0.04538  -0.00469  -0.00878  -0.01040  -0.02462
                          Y4        Z4
           Y4           0.08530
           Z4          -0.04273   0.04617
 ITU=  0
     Eigenvalues ---    0.04911   0.11029   0.20667   0.20667   0.23502
     Eigenvalues ---    0.30846
 Angle between quadratic step and forces=  38.97 degrees.
 ClnCor:  largest displacement from symmetrization is 1.15D-12 for atom     3.
 Linear search not attempted -- first point.
 ClnCor:  largest displacement from symmetrization is 5.09D-16 for atom     3.
 B after Tr=    -0.000000   -0.000000    0.000000
         Rot=    1.000000   -0.000000   -0.000000    0.000000 Ang=   0.00 deg.
 Variable       Old X    -DE/DX   Delta X   Delta X   Delta X     New X
                                 (Linear)    (Quad)   (Total)
    X1        2.38418  -0.00001   0.00000   0.00027   0.00027   2.38445
    Y1        1.32864  -0.00003   0.00000  -0.00020  -0.00020   1.32844
    Z1        0.55266  -0.00004   0.00000  -0.00058  -0.00058   0.55208
    X2       -0.86242  -0.00000   0.00000  -0.00018  -0.00018  -0.86260
    Y2        2.00473   0.00000   0.00000   0.00040   0.00040   2.00513
    Z2       -1.72983   0.00005   0.00000   0.00051   0.00051  -1.72932
    X3        1.07945  -0.00002   0.00000  -0.00006  -0.00006   1.07939
    Y3       -2.47810   0.00004   0.00000   0.00013   0.00013  -2.47797
    Z3        0.66997   0.00003   0.00000   0.00066   0.00066   0.67063
    X4       -2.60121   0.00003   0.00000  -0.00003  -0.00003  -2.60124
    Y4       -0.85527  -0.00001   0.00000  -0.00033  -0.00033  -0.85560
    Z4        0.50720  -0.00004   0.00000  -0.00059  -0.00059   0.50662
         Item               Value     Threshold  Converged?
 Maximum Force            0.000050     0.000450     YES
 RMS     Force            0.000029     0.000300     YES
 Maximum Displacement     0.000658     0.001800     YES
 RMS     Displacement     0.000389     0.001200     YES
 Predicted change in Energy=-5.242349D-08
 Optimization completed.
    -- Stationary point found.
 GradGradGradGradGradGradGradGradGradGradGradGradGradGradGradGradGradGrad

 Leave Link  103 at Mon Oct 24 01:02:03 2016, MaxMem=    33554432 cpu:         0.1
 (Enter /home/proyectos/fulerenos/M3C-v2.0/M3C-deps_CCC/g09-AM64L-G09RevC.01/l9999.exe)
 1\1\GINC-BELVIS17\Freq\RB3LYP\6-311++G(3df,2p)\S4\ROOT\24-Oct-2016\0\\
 #p b3lyp/6-311++G(3df,2p) freq symmetry=Loose\\b3lyp opt\\0,1\S,1.2616
 549802,0.7030834264,0.2924551293\S,-0.4563735409,1.0608570979,-0.91538
 87391\S,0.5712185298,-1.3113531342,0.3545329919\S,-1.3765019682,-0.452
 5883901,0.2684006179\\Version=EM64L-G09RevE.01\State=1-A1\HF=-1592.855
 9569\RMSD=4.822e-09\RMSF=2.892e-05\ZeroPoint=0.0051842\Thermal=0.01007
 86\Dipole=0.,0.,0.\DipoleDeriv=0.0001937,-0.0076934,-0.0116211,-0.0018
 523,-0.0007693,-0.006649,-0.0007099,-0.0019225,0.0005756,0.0036279,0.0
 000263,-0.0051493,-0.0000843,0.0035356,0.0119786,0.0001663,-0.0001558,
 -0.0071635,0.0014853,0.0047254,0.0040741,0.004836,-0.0072526,-0.009345
 5,-0.0012416,0.0027889,0.0057673,-0.0053069,0.0029417,0.0126963,-0.002
 8994,0.0044864,0.0040159,0.0017851,-0.0007106,0.0008206\Polar=85.43869
 52,1.8524325,82.2475692,4.1475685,-9.0464404,66.0331451\PG=D02D [2SGD(
 S2)]\NImag=0\\0.11734030,0.03132924,0.11431473,0.04939886,-0.00993962,
 0.04752493,-0.06754171,0.02474638,-0.05071737,0.10205813,0.00447107,-0
 .00379622,0.00552572,0.00855595,0.08787242,-0.04427143,0.00396115,-0.0
 4676753,0.02834053,-0.06434551,0.08924941,-0.01014933,-0.03961111,0.00
 937278,-0.01509687,0.00823377,-0.01144807,0.11388753,-0.02302942,-0.09
 759833,-0.00344341,0.00816380,-0.03076830,0.02583194,-0.01799900,0.147
 43576,-0.00397283,-0.00486764,-0.01035780,-0.00808675,0.01815875,0.002
 89614,0.00676535,-0.01360790,0.01785667,-0.03964925,-0.01646451,-0.008
 05427,-0.01941955,-0.02126079,0.02737897,-0.08864133,0.03286462,0.0052
 9423,0.14771013,-0.01277088,-0.01292018,0.00785731,-0.04146614,-0.0533
 0790,0.03455242,0.04937635,-0.01906913,0.00031679,0.00486067,0.0852972
 0,-0.00115460,0.01084611,0.00960040,0.03046359,0.04066104,-0.04537802,
 -0.00469006,-0.00878063,-0.01039501,-0.02461893,-0.04272652,0.04617263
 \\0.00001089,0.00002666,0.00004098,0.00000086,-0.00000092,-0.00005007,
 0.00001585,-0.00003553,-0.00003154,-0.00002760,0.00000979,0.00004063\\
 \@


 A FOOL CAN ASK MORE QUESTIONS THAN
 A WISE MAN CAN ANSWER.
 Job cpu time:       0 days  0 hours  6 minutes 24.6 seconds.
 File lengths (MBytes):  RWF=     24 Int=      0 D2E=      0 Chk=      3 Scr=      1
 Normal termination of Gaussian 09 at Mon Oct 24 01:02:03 2016.
