 Entering Gaussian System, Link 0=/home/proyectos/fulerenos/M3C-v2.0/M3C-deps_CCC/g09-AM64L-G09RevC.01/g09
 Initial command:
 /home/proyectos/fulerenos/M3C-v2.0/M3C-deps_CCC/g09-AM64L-G09RevC.01/l1.exe "/scratch/naguirre/gaussian/Gau-8853.inp" -scrdir="/scratch/naguirre/gaussian/"
 Entering Link 1 = /home/proyectos/fulerenos/M3C-v2.0/M3C-deps_CCC/g09-AM64L-G09RevC.01/l1.exe PID=      8860.
  
 Copyright (c) 1988,1990,1992,1993,1995,1998,2003,2009,2015,
            Gaussian, Inc.  All Rights Reserved.
  
 This is part of the Gaussian(R) 09 program.  It is based on
 the Gaussian(R) 03 system (copyright 2003, Gaussian, Inc.),
 the Gaussian(R) 98 system (copyright 1998, Gaussian, Inc.),
 the Gaussian(R) 94 system (copyright 1995, Gaussian, Inc.),
 the Gaussian 92(TM) system (copyright 1992, Gaussian, Inc.),
 the Gaussian 90(TM) system (copyright 1990, Gaussian, Inc.),
 the Gaussian 88(TM) system (copyright 1988, Gaussian, Inc.),
 the Gaussian 86(TM) system (copyright 1986, Carnegie Mellon
 University), and the Gaussian 82(TM) system (copyright 1983,
 Carnegie Mellon University). Gaussian is a federally registered
 trademark of Gaussian, Inc.
  
 This software contains proprietary and confidential information,
 including trade secrets, belonging to Gaussian, Inc.
  
 This software is provided under written license and may be
 used, copied, transmitted, or stored only in accord with that
 written license.
  
 The following legend is applicable only to US Government
 contracts under FAR:
  
                    RESTRICTED RIGHTS LEGEND
  
 Use, reproduction and disclosure by the US Government is
 subject to restrictions as set forth in subparagraphs (a)
 and (c) of the Commercial Computer Software - Restricted
 Rights clause in FAR 52.227-19.
  
 Gaussian, Inc.
 340 Quinnipiac St., Bldg. 40, Wallingford CT 06492
  
  
 ---------------------------------------------------------------
 Warning -- This program may not be used in any manner that
 competes with the business of Gaussian, Inc. or will provide
 assistance to any competitor of Gaussian, Inc.  The licensee
 of this program is prohibited from giving any competitor of
 Gaussian, Inc. access to this program.  By using this program,
 the user acknowledges that Gaussian, Inc. is engaged in the
 business of creating and licensing software in the field of
 computational chemistry and represents and warrants to the
 licensee that it is not a competitor of Gaussian, Inc. and that
 it will not use this program in any manner prohibited above.
 ---------------------------------------------------------------
  

 Cite this work as:
 Gaussian 09, Revision E.01,
 M. J. Frisch, G. W. Trucks, H. B. Schlegel, G. E. Scuseria, 
 M. A. Robb, J. R. Cheeseman, G. Scalmani, V. Barone, B. Mennucci, 
 G. A. Petersson, H. Nakatsuji, M. Caricato, X. Li, H. P. Hratchian, 
 A. F. Izmaylov, J. Bloino, G. Zheng, J. L. Sonnenberg, M. Hada, 
 M. Ehara, K. Toyota, R. Fukuda, J. Hasegawa, M. Ishida, T. Nakajima, 
 Y. Honda, O. Kitao, H. Nakai, T. Vreven, J. A. Montgomery, Jr., 
 J. E. Peralta, F. Ogliaro, M. Bearpark, J. J. Heyd, E. Brothers, 
 K. N. Kudin, V. N. Staroverov, T. Keith, R. Kobayashi, J. Normand, 
 K. Raghavachari, A. Rendell, J. C. Burant, S. S. Iyengar, J. Tomasi, 
 M. Cossi, N. Rega, J. M. Millam, M. Klene, J. E. Knox, J. B. Cross, 
 V. Bakken, C. Adamo, J. Jaramillo, R. Gomperts, R. E. Stratmann, 
 O. Yazyev, A. J. Austin, R. Cammi, C. Pomelli, J. W. Ochterski, 
 R. L. Martin, K. Morokuma, V. G. Zakrzewski, G. A. Voth, 
 P. Salvador, J. J. Dannenberg, S. Dapprich, A. D. Daniels, 
 O. Farkas, J. B. Foresman, J. V. Ortiz, J. Cioslowski, 
 and D. J. Fox, Gaussian, Inc., Wallingford CT, 2013.
 
 ******************************************
 Gaussian 09:  EM64L-G09RevE.01 30-Nov-2015
                23-Oct-2016 
 ******************************************
 %NProcShared=4
 Will use up to    4 processors via shared memory.
 ---------------------------------------------
 #p b3lyp/6-311++G(3df,2p) freq symmetry=Loose
 ---------------------------------------------
 1/10=4,30=1,38=1/1,3;
 2/12=2,17=4,18=3,40=1/2;
 3/5=4,6=6,7=1216,11=2,16=1,25=1,30=1,71=2,74=-5,140=1/1,2,3;
 4//1;
 5/5=2,38=5,98=1/2;
 8/6=4,10=90,11=11/1;
 11/6=1,8=1,9=11,15=111,16=1/1,2,10;
 10/6=1/2;
 6/7=2,8=2,9=2,10=2,18=1,28=1/1;
 7/8=1,10=1,25=1/1,2,3,16;
 1/10=4,30=1/3;
 99//99;
 Leave Link    1 at Sun Oct 23 23:54:23 2016, MaxMem=           0 cpu:         0.3
 (Enter /home/proyectos/fulerenos/M3C-v2.0/M3C-deps_CCC/g09-AM64L-G09RevC.01/l101.exe)
 ---------
 b3lyp opt
 ---------
 Symbolic Z-matrix:
 Charge =  1 Multiplicity = 2
 S                    -0.20388  -0.14477  -0.87542 
 S                     0.30498   1.90474   3.51601 
 S                    -0.48512   1.271     1.93419 
 S                    -1.34623  -1.62587   1.89137 
 S                    -0.81028  -2.06129   0.09287 
 S                     0.98576   0.65651   0.51262 
 
 NAtoms=      6 NQM=        6 NQMF=       0 NMMI=      0 NMMIF=      0
                NMic=       0 NMicF=      0.
                    Isotopes and Nuclear Properties:
 (Nuclear quadrupole moments (NQMom) in fm**2, nuclear magnetic moments (NMagM)
  in nuclear magnetons)

  Atom         1           2           3           4           5           6
 IAtWgt=          32          32          32          32          32          32
 AtmWgt=  31.9720718  31.9720718  31.9720718  31.9720718  31.9720718  31.9720718
 NucSpn=           0           0           0           0           0           0
 AtZEff=   0.0000000   0.0000000   0.0000000   0.0000000   0.0000000   0.0000000
 NQMom=    0.0000000   0.0000000   0.0000000   0.0000000   0.0000000   0.0000000
 NMagM=    0.0000000   0.0000000   0.0000000   0.0000000   0.0000000   0.0000000
 AtZNuc=  16.0000000  16.0000000  16.0000000  16.0000000  16.0000000  16.0000000
 Leave Link  101 at Sun Oct 23 23:54:23 2016, MaxMem=    33554432 cpu:         0.2
 (Enter /home/proyectos/fulerenos/M3C-v2.0/M3C-deps_CCC/g09-AM64L-G09RevC.01/l103.exe)

 GradGradGradGradGradGradGradGradGradGradGradGradGradGradGradGradGradGrad
 Berny optimization.
 Initialization pass.
 Trust Radius=3.00D-01 FncErr=1.00D-07 GrdErr=1.00D-07
 Number of steps in this run=      2 maximum allowed number of steps=      2.
 GradGradGradGradGradGradGradGradGradGradGradGradGradGradGradGradGradGrad

 Leave Link  103 at Sun Oct 23 23:54:23 2016, MaxMem=    33554432 cpu:         0.1
 (Enter /home/proyectos/fulerenos/M3C-v2.0/M3C-deps_CCC/g09-AM64L-G09RevC.01/l202.exe)
                          Input orientation:                          
 ---------------------------------------------------------------------
 Center     Atomic      Atomic             Coordinates (Angstroms)
 Number     Number       Type             X           Y           Z
 ---------------------------------------------------------------------
      1         16           0       -0.203882   -0.144774   -0.875424
      2         16           0        0.304975    1.904742    3.516008
      3         16           0       -0.485122    1.270999    1.934188
      4         16           0       -1.346233   -1.625868    1.891372
      5         16           0       -0.810282   -2.061293    0.092868
      6         16           0        0.985763    0.656513    0.512621
 ---------------------------------------------------------------------
                    Distance matrix (angstroms):
                    1          2          3          4          5
     1  S    0.000000
     2  S    4.872795   0.000000
     3  S    3.158707   1.878307   0.000000
     4  S    3.339725   4.222693   3.022447   0.000000
     5  S    2.231223   5.356409   3.821042   1.926514   0.000000
     6  S    1.995992   3.322933   2.135872   3.542375   3.284576
                    6
     6  S    0.000000
 Stoichiometry    S6(1+,2)
 Framework group  C1[X(S6)]
 Deg. of freedom    12
 Full point group                 C1      NOp   1
 Largest Abelian subgroup         C1      NOp   1
 Largest concise Abelian subgroup C1      NOp   1
                         Standard orientation:                         
 ---------------------------------------------------------------------
 Center     Atomic      Atomic             Coordinates (Angstroms)
 Number     Number       Type             X           Y           Z
 ---------------------------------------------------------------------
      1         16           0        1.432386   -1.421488    0.413165
      2         16           0       -3.029618    0.441976   -0.188622
      3         16           0       -1.374180    0.016979    0.590442
      4         16           0        0.946534    1.853925   -0.022014
      5         16           0        2.326098    0.523410   -0.216919
      6         16           0       -0.301220   -1.414802   -0.576052
 ---------------------------------------------------------------------
 Rotational constants (GHZ):      1.7834291      0.7729397      0.5759480
 Leave Link  202 at Sun Oct 23 23:54:23 2016, MaxMem=    33554432 cpu:         0.0
 (Enter /home/proyectos/fulerenos/M3C-v2.0/M3C-deps_CCC/g09-AM64L-G09RevC.01/l301.exe)
 Standard basis: 6-311++G(3df,2p) (5D, 7F)
 Ernie: Thresh=  0.10000D-02 Tol=  0.10000D-05 Strict=F.
 There are   318 symmetry adapted cartesian basis functions of A   symmetry.
 There are   282 symmetry adapted basis functions of A   symmetry.
   282 basis functions,   432 primitive gaussians,   318 cartesian basis functions
    48 alpha electrons       47 beta electrons
       nuclear repulsion energy       703.6066861999 Hartrees.
 IExCor=  402 DFT=T Ex+Corr=B3LYP ExCW=0 ScaHFX=  0.200000
 ScaDFX=  0.800000  0.720000  1.000000  0.810000 ScalE2=  1.000000  1.000000
 IRadAn=      0 IRanWt=     -1 IRanGd=            0 ICorTp=0 IEmpDi=  4
 NAtoms=    6 NActive=    6 NUniq=    6 SFac= 1.00D+00 NAtFMM=   60 NAOKFM=F Big=F
 Integral buffers will be    131072 words long.
 Raffenetti 2 integral format.
 Two-electron integral symmetry is turned on.
 Leave Link  301 at Sun Oct 23 23:54:23 2016, MaxMem=    33554432 cpu:         0.2
 (Enter /home/proyectos/fulerenos/M3C-v2.0/M3C-deps_CCC/g09-AM64L-G09RevC.01/l302.exe)
 NPDir=0 NMtPBC=     1 NCelOv=     1 NCel=       1 NClECP=     1 NCelD=      1
         NCelK=      1 NCelE2=     1 NClLst=     1 CellRange=     0.0.
 One-electron integrals computed using PRISM.
 NBasis=   282 RedAO= T EigKep=  1.12D-04  NBF=   282
 NBsUse=   282 1.00D-06 EigRej= -1.00D+00 NBFU=   282
 Precomputing XC quadrature grid using
 IXCGrd= 4 IRadAn=           0 IRanWt=          -1 IRanGd=           0 AccXCQ= 0.00D+00.
 Generated NRdTot=       0 NPtTot=           0 NUsed=           0 NTot=          32
 NSgBfM=   296   296   296   296   296 MxSgAt=     6 MxSgA2=     6.
 Leave Link  302 at Sun Oct 23 23:54:23 2016, MaxMem=    33554432 cpu:         1.5
 (Enter /home/proyectos/fulerenos/M3C-v2.0/M3C-deps_CCC/g09-AM64L-G09RevC.01/l303.exe)
 DipDrv:  MaxL=1.
 Leave Link  303 at Sun Oct 23 23:54:23 2016, MaxMem=    33554432 cpu:         0.2
 (Enter /home/proyectos/fulerenos/M3C-v2.0/M3C-deps_CCC/g09-AM64L-G09RevC.01/l401.exe)
 ExpMin= 4.05D-02 ExpMax= 9.34D+04 ExpMxC= 3.17D+03 IAcc=2 IRadAn=         4 AccDes= 0.00D+00
 Harris functional with IExCor=  402 and IRadAn=       4 diagonalized for initial guess.
 HarFok:  IExCor=  402 AccDes= 0.00D+00 IRadAn=         4 IDoV= 1 UseB2=F ITyADJ=14
 ICtDFT=  3500011 ScaDFX=  1.000000  1.000000  1.000000  1.000000
 FoFCou: FMM=F IPFlag=           0 FMFlag=      100000 FMFlg1=           0
         NFxFlg=           0 DoJE=T BraDBF=F KetDBF=T FulRan=T
         wScrn=  0.000000 ICntrl=     500 IOpCl=  0 I1Cent=   200000004 NGrid=           0
         NMat0=    1 NMatS0=      1 NMatT0=    0 NMatD0=    1 NMtDS0=    0 NMtDT0=    0
 Petite list used in FoFCou.
 Harris En= -2388.83732081719    
 JPrj=0 DoOrth=F DoCkMO=F.
 Initial guess <Sx>= 0.0000 <Sy>= 0.0000 <Sz>= 0.5000 <S**2>= 0.7500 S= 0.5000
 Leave Link  401 at Sun Oct 23 23:54:25 2016, MaxMem=    33554432 cpu:         4.1
 (Enter /home/proyectos/fulerenos/M3C-v2.0/M3C-deps_CCC/g09-AM64L-G09RevC.01/l502.exe)
 UHF open shell SCF:
 Using DIIS extrapolation, IDIIS=  1040.
 Integral symmetry usage will be decided dynamically.
 IVT=      326128 IEndB=      326128 NGot=    33554432 MDV=    33346387
 LenX=    33346387 LenY=    33244822
 Requested convergence on RMS density matrix=1.00D-08 within 128 cycles.
 Requested convergence on MAX density matrix=1.00D-06.
 Requested convergence on             energy=1.00D-06.
 No special actions if energy rises.
 Fock matrices will be formed incrementally for  20 cycles.

 Cycle   1  Pass 1  IDiag  1:
 FoFJK:  IHMeth= 1 ICntrl=       0 DoSepK=F KAlg= 0 I1Cent=   0 FoldK=F
 IRaf= 850000000 NMat=   1 IRICut=       1 DoRegI=T DoRafI=F ISym2E= 0.
 FoFCou: FMM=F IPFlag=           0 FMFlag=      100000 FMFlg1=           0
         NFxFlg=           0 DoJE=F BraDBF=F KetDBF=F FulRan=T
         wScrn=  0.000000 ICntrl=       0 IOpCl=  1 I1Cent=           0 NGrid=           0
         NMat0=    1 NMatS0=      1 NMatT0=    0 NMatD0=    1 NMtDS0=    0 NMtDT0=    0
 Symmetry not used in FoFCou.
 E= -2388.95843815999    
 DIIS: error= 1.45D-02 at cycle   1 NSaved=   1.
 NSaved= 1 IEnMin= 1 EnMin= -2388.95843815999     IErMin= 1 ErrMin= 1.45D-02
 ErrMax= 1.45D-02  0.00D+00 EMaxC= 1.00D-01 BMatC= 6.09D-01 BMatP= 6.09D-01
 IDIUse=3 WtCom= 8.55D-01 WtEn= 1.45D-01
 Coeff-Com:  0.100D+01
 Coeff-En:   0.100D+01
 Coeff:      0.100D+01
 Gap=     0.053 Goal=   None    Shift=    0.000
 Gap=     0.098 Goal=   None    Shift=    0.000
 GapD=    0.053 DampG=0.500 DampE=0.500 DampFc=0.2500 IDamp=-1.
 Damping current iteration by 2.50D-01
 RMSDP=3.02D-03 MaxDP=1.52D-01              OVMax= 2.67D-01

 Cycle   2  Pass 1  IDiag  1:
 RMSU=  7.52D-04    CP:  1.00D+00
 E= -2388.97889640126     Delta-E=       -0.020458241269 Rises=F Damp=T
 DIIS: error= 1.05D-02 at cycle   2 NSaved=   2.
 NSaved= 2 IEnMin= 2 EnMin= -2388.97889640126     IErMin= 2 ErrMin= 1.05D-02
 ErrMax= 1.05D-02  0.00D+00 EMaxC= 1.00D-01 BMatC= 2.15D-01 BMatP= 6.09D-01
 IDIUse=3 WtCom= 8.95D-01 WtEn= 1.05D-01
 Coeff-Com: -0.476D+00 0.148D+01
 Coeff-En:   0.230D+00 0.770D+00
 Coeff:     -0.402D+00 0.140D+01
 Gap=     0.033 Goal=   None    Shift=    0.000
 Gap=     0.065 Goal=   None    Shift=    0.000
 RMSDP=1.55D-03 MaxDP=8.38D-02 DE=-2.05D-02 OVMax= 3.38D-01

 Cycle   3  Pass 1  IDiag  1:
 RMSU=  1.50D-03    CP:  1.01D+00  5.12D-01
 E= -2388.91753325061     Delta-E=        0.061363150652 Rises=F Damp=F
 DIIS: error= 1.21D-02 at cycle   3 NSaved=   3.
 NSaved= 3 IEnMin= 2 EnMin= -2388.97889640126     IErMin= 2 ErrMin= 1.05D-02
 ErrMax= 1.21D-02  0.00D+00 EMaxC= 1.00D-01 BMatC= 3.48D-01 BMatP= 2.15D-01
 IDIUse=2 WtCom= 0.00D+00 WtEn= 1.00D+00
 Coeff-En:   0.000D+00 0.754D+00 0.246D+00
 Coeff:      0.000D+00 0.754D+00 0.246D+00
 Gap=     0.071 Goal=   None    Shift=    0.000
 Gap=     0.097 Goal=   None    Shift=    0.000
 RMSDP=1.85D-03 MaxDP=1.10D-01 DE= 6.14D-02 OVMax= 3.14D-01

 Cycle   4  Pass 1  IDiag  1:
 RMSU=  5.23D-04    CP:  1.01D+00  2.25D+00  2.02D-01
 E= -2388.99051552391     Delta-E=       -0.072982273302 Rises=F Damp=F
 DIIS: error= 7.96D-03 at cycle   4 NSaved=   4.
 NSaved= 4 IEnMin= 4 EnMin= -2388.99051552391     IErMin= 4 ErrMin= 7.96D-03
 ErrMax= 7.96D-03  0.00D+00 EMaxC= 1.00D-01 BMatC= 1.62D-01 BMatP= 2.15D-01
 IDIUse=3 WtCom= 9.20D-01 WtEn= 7.96D-02
 Coeff-Com:  0.454D+00-0.487D+00 0.245D+00 0.788D+00
 Coeff-En:   0.000D+00 0.000D+00 0.353D+00 0.647D+00
 Coeff:      0.418D+00-0.448D+00 0.254D+00 0.776D+00
 Gap=     0.071 Goal=   None    Shift=    0.000
 Gap=     0.088 Goal=   None    Shift=    0.000
 RMSDP=7.81D-04 MaxDP=3.99D-02 DE=-7.30D-02 OVMax= 1.15D-01

 Cycle   5  Pass 1  IDiag  1:
 RMSU=  2.40D-04    CP:  1.01D+00  1.38D+00  4.34D-01  8.86D-01
 E= -2389.04144137835     Delta-E=       -0.050925854435 Rises=F Damp=F
 DIIS: error= 8.88D-04 at cycle   5 NSaved=   5.
 NSaved= 5 IEnMin= 5 EnMin= -2389.04144137835     IErMin= 5 ErrMin= 8.88D-04
 ErrMax= 8.88D-04  0.00D+00 EMaxC= 1.00D-01 BMatC= 2.90D-03 BMatP= 1.62D-01
 IDIUse=3 WtCom= 9.91D-01 WtEn= 8.88D-03
 Coeff-Com:  0.252D+00-0.340D+00 0.537D-01 0.328D+00 0.706D+00
 Coeff-En:   0.000D+00 0.000D+00 0.000D+00 0.000D+00 0.100D+01
 Coeff:      0.250D+00-0.337D+00 0.532D-01 0.325D+00 0.709D+00
 Gap=     0.076 Goal=   None    Shift=    0.000
 Gap=     0.089 Goal=   None    Shift=    0.000
 RMSDP=1.49D-04 MaxDP=6.08D-03 DE=-5.09D-02 OVMax= 1.69D-02

 Cycle   6  Pass 1  IDiag  1:
 RMSU=  1.07D-04    CP:  1.01D+00  1.43D+00  4.22D-01  9.94D-01  6.83D-01
 E= -2389.04178756494     Delta-E=       -0.000346186596 Rises=F Damp=F
 DIIS: error= 6.96D-04 at cycle   6 NSaved=   6.
 NSaved= 6 IEnMin= 6 EnMin= -2389.04178756494     IErMin= 6 ErrMin= 6.96D-04
 ErrMax= 6.96D-04  0.00D+00 EMaxC= 1.00D-01 BMatC= 1.44D-03 BMatP= 2.90D-03
 IDIUse=3 WtCom= 9.93D-01 WtEn= 6.96D-03
 Coeff-Com:  0.798D-01-0.115D+00 0.166D-01 0.965D-01 0.442D+00 0.480D+00
 Coeff-En:   0.000D+00 0.000D+00 0.000D+00 0.000D+00 0.371D+00 0.629D+00
 Coeff:      0.792D-01-0.114D+00 0.164D-01 0.959D-01 0.442D+00 0.481D+00
 Gap=     0.075 Goal=   None    Shift=    0.000
 Gap=     0.089 Goal=   None    Shift=    0.000
 RMSDP=8.16D-05 MaxDP=4.18D-03 DE=-3.46D-04 OVMax= 8.40D-03

 Cycle   7  Pass 1  IDiag  1:
 RMSU=  5.50D-05    CP:  1.01D+00  1.42D+00  4.29D-01  9.99D-01  8.13D-01
                    CP:  5.40D-01
 E= -2389.04211743631     Delta-E=       -0.000329871362 Rises=F Damp=F
 DIIS: error= 2.92D-04 at cycle   7 NSaved=   7.
 NSaved= 7 IEnMin= 7 EnMin= -2389.04211743631     IErMin= 7 ErrMin= 2.92D-04
 ErrMax= 2.92D-04  0.00D+00 EMaxC= 1.00D-01 BMatC= 2.96D-04 BMatP= 1.44D-03
 IDIUse=3 WtCom= 9.97D-01 WtEn= 2.92D-03
 Coeff-Com:  0.709D-02-0.129D-01 0.675D-02 0.776D-02 0.201D+00 0.339D+00
 Coeff-Com:  0.452D+00
 Coeff-En:   0.000D+00 0.000D+00 0.000D+00 0.000D+00 0.000D+00 0.162D+00
 Coeff-En:   0.838D+00
 Coeff:      0.707D-02-0.128D-01 0.673D-02 0.774D-02 0.200D+00 0.339D+00
 Coeff:      0.453D+00
 Gap=     0.075 Goal=   None    Shift=    0.000
 Gap=     0.089 Goal=   None    Shift=    0.000
 RMSDP=4.27D-05 MaxDP=3.16D-03 DE=-3.30D-04 OVMax= 7.22D-03

 Cycle   8  Pass 1  IDiag  1:
 RMSU=  2.66D-05    CP:  1.01D+00  1.42D+00  4.36D-01  9.87D-01  8.50D-01
                    CP:  7.31D-01  6.08D-01
 E= -2389.04221016965     Delta-E=       -0.000092733347 Rises=F Damp=F
 DIIS: error= 1.07D-04 at cycle   8 NSaved=   8.
 NSaved= 8 IEnMin= 8 EnMin= -2389.04221016965     IErMin= 8 ErrMin= 1.07D-04
 ErrMax= 1.07D-04  0.00D+00 EMaxC= 1.00D-01 BMatC= 4.00D-05 BMatP= 2.96D-04
 IDIUse=3 WtCom= 9.99D-01 WtEn= 1.07D-03
 Coeff-Com: -0.110D-01 0.143D-01 0.133D-02-0.141D-01 0.448D-01 0.123D+00
 Coeff-Com:  0.313D+00 0.529D+00
 Coeff-En:   0.000D+00 0.000D+00 0.000D+00 0.000D+00 0.000D+00 0.000D+00
 Coeff-En:   0.739D-01 0.926D+00
 Coeff:     -0.110D-01 0.143D-01 0.133D-02-0.141D-01 0.447D-01 0.122D+00
 Coeff:      0.313D+00 0.529D+00
 Gap=     0.075 Goal=   None    Shift=    0.000
 Gap=     0.089 Goal=   None    Shift=    0.000
 RMSDP=1.80D-05 MaxDP=8.76D-04 DE=-9.27D-05 OVMax= 3.09D-03

 Cycle   9  Pass 1  IDiag  1:
 RMSU=  1.18D-05    CP:  1.01D+00  1.41D+00  4.37D-01  9.91D-01  8.66D-01
                    CP:  7.76D-01  8.22D-01  9.46D-01
 E= -2389.04222732193     Delta-E=       -0.000017152276 Rises=F Damp=F
 DIIS: error= 4.25D-05 at cycle   9 NSaved=   9.
 NSaved= 9 IEnMin= 9 EnMin= -2389.04222732193     IErMin= 9 ErrMin= 4.25D-05
 ErrMax= 4.25D-05  0.00D+00 EMaxC= 1.00D-01 BMatC= 5.79D-06 BMatP= 4.00D-05
 IDIUse=1 WtCom= 1.00D+00 WtEn= 0.00D+00
 Coeff-Com: -0.600D-02 0.827D-02-0.827D-03-0.808D-02-0.839D-02 0.948D-02
 Coeff-Com:  0.124D+00 0.264D+00 0.617D+00
 Coeff:     -0.600D-02 0.827D-02-0.827D-03-0.808D-02-0.839D-02 0.948D-02
 Coeff:      0.124D+00 0.264D+00 0.617D+00
 Gap=     0.075 Goal=   None    Shift=    0.000
 Gap=     0.089 Goal=   None    Shift=    0.000
 RMSDP=1.34D-05 MaxDP=4.44D-04 DE=-1.72D-05 OVMax= 2.37D-03

 Cycle  10  Pass 1  IDiag  1:
 RMSU=  6.71D-06    CP:  1.01D+00  1.42D+00  4.37D-01  9.94D-01  8.76D-01
                    CP:  8.21D-01  9.25D-01  1.23D+00  1.30D+00
 E= -2389.04223408100     Delta-E=       -0.000006759066 Rises=F Damp=F
 DIIS: error= 4.44D-05 at cycle  10 NSaved=  10.
 NSaved=10 IEnMin=10 EnMin= -2389.04223408100     IErMin= 9 ErrMin= 4.25D-05
 ErrMax= 4.44D-05  0.00D+00 EMaxC= 1.00D-01 BMatC= 2.70D-06 BMatP= 5.79D-06
 IDIUse=1 WtCom= 1.00D+00 WtEn= 0.00D+00
 Coeff-Com:  0.293D-02-0.372D-02-0.132D-02 0.289D-02-0.251D-01-0.538D-01
 Coeff-Com: -0.522D-01-0.118D+00 0.348D+00 0.901D+00
 Coeff:      0.293D-02-0.372D-02-0.132D-02 0.289D-02-0.251D-01-0.538D-01
 Coeff:     -0.522D-01-0.118D+00 0.348D+00 0.901D+00
 Gap=     0.076 Goal=   None    Shift=    0.000
 Gap=     0.088 Goal=   None    Shift=    0.000
 RMSDP=1.95D-05 MaxDP=7.91D-04 DE=-6.76D-06 OVMax= 4.16D-03

 Cycle  11  Pass 1  IDiag  1:
 RMSU=  4.15D-06    CP:  1.01D+00  1.42D+00  4.37D-01  9.98D-01  8.90D-01
                    CP:  8.75D-01  1.09D+00  1.59D+00  2.21D+00  1.69D+00
 E= -2389.04224205971     Delta-E=       -0.000007978711 Rises=F Damp=F
 DIIS: error= 3.14D-05 at cycle  11 NSaved=  11.
 NSaved=11 IEnMin=11 EnMin= -2389.04224205971     IErMin=11 ErrMin= 3.14D-05
 ErrMax= 3.14D-05  0.00D+00 EMaxC= 1.00D-01 BMatC= 1.26D-06 BMatP= 2.70D-06
 IDIUse=1 WtCom= 1.00D+00 WtEn= 0.00D+00
 Coeff-Com:  0.358D-02-0.482D-02 0.306D-03 0.382D-02-0.298D-02-0.166D-01
 Coeff-Com: -0.575D-01-0.146D+00-0.173D+00 0.286D+00 0.111D+01
 Coeff:      0.358D-02-0.482D-02 0.306D-03 0.382D-02-0.298D-02-0.166D-01
 Coeff:     -0.575D-01-0.146D+00-0.173D+00 0.286D+00 0.111D+01
 Gap=     0.076 Goal=   None    Shift=    0.000
 Gap=     0.088 Goal=   None    Shift=    0.000
 RMSDP=2.12D-05 MaxDP=8.21D-04 DE=-7.98D-06 OVMax= 4.06D-03

 Cycle  12  Pass 1  IDiag  1:
 RMSU=  3.46D-06    CP:  1.01D+00  1.42D+00  4.38D-01  1.00D+00  9.03D-01
                    CP:  9.28D-01  1.25D+00  1.98D+00  3.00D+00  2.92D+00
                    CP:  1.89D+00
 E= -2389.04224879864     Delta-E=       -0.000006738929 Rises=F Damp=F
 DIIS: error= 2.22D-05 at cycle  12 NSaved=  12.
 NSaved=12 IEnMin=12 EnMin= -2389.04224879864     IErMin=12 ErrMin= 2.22D-05
 ErrMax= 2.22D-05  0.00D+00 EMaxC= 1.00D-01 BMatC= 7.06D-07 BMatP= 1.26D-06
 IDIUse=1 WtCom= 1.00D+00 WtEn= 0.00D+00
 Coeff-Com: -0.784D-03 0.968D-03 0.108D-02-0.129D-02 0.189D-01 0.452D-01
 Coeff-Com:  0.381D-01 0.942D-01-0.285D+00-0.684D+00 0.151D+00 0.162D+01
 Coeff:     -0.784D-03 0.968D-03 0.108D-02-0.129D-02 0.189D-01 0.452D-01
 Coeff:      0.381D-01 0.942D-01-0.285D+00-0.684D+00 0.151D+00 0.162D+01
 Gap=     0.076 Goal=   None    Shift=    0.000
 Gap=     0.088 Goal=   None    Shift=    0.000
 RMSDP=3.01D-05 MaxDP=1.13D-03 DE=-6.74D-06 OVMax= 5.75D-03

 Cycle  13  Pass 1  IDiag  1:
 RMSU=  1.75D-05    CP:  1.01D+00  1.42D+00  4.39D-01  1.00D+00  9.14D-01
                    CP:  9.95D-01  1.44D+00  2.52D+00  3.00D+00  3.00D+00
                    CP:  3.00D+00  3.00D+00
 E= -2389.04225533515     Delta-E=       -0.000006536518 Rises=F Damp=F
 DIIS: error= 1.74D-05 at cycle  13 NSaved=  13.
 NSaved=13 IEnMin=13 EnMin= -2389.04225533515     IErMin=13 ErrMin= 1.74D-05
 ErrMax= 1.74D-05  0.00D+00 EMaxC= 1.00D-01 BMatC= 5.13D-07 BMatP= 7.06D-07
 IDIUse=1 WtCom= 1.00D+00 WtEn= 0.00D+00
 Coeff-Com: -0.215D-02 0.284D-02 0.570D-03-0.272D-02 0.175D-01 0.482D-01
 Coeff-Com:  0.640D-01 0.167D+00-0.142D+00-0.756D+00-0.463D+00 0.130D+01
 Coeff-Com:  0.769D+00
 Coeff:     -0.215D-02 0.284D-02 0.570D-03-0.272D-02 0.175D-01 0.482D-01
 Coeff:      0.640D-01 0.167D+00-0.142D+00-0.756D+00-0.463D+00 0.130D+01
 Coeff:      0.769D+00
 Gap=     0.076 Goal=   None    Shift=    0.000
 Gap=     0.088 Goal=   None    Shift=    0.000
 RMSDP=2.18D-05 MaxDP=8.39D-04 DE=-6.54D-06 OVMax= 4.34D-03

 Cycle  14  Pass 1  IDiag  1:
 RMSU=  6.49D-06    CP:  1.01D+00  1.42D+00  4.40D-01  1.00D+00  9.22D-01
                    CP:  1.04D+00  1.57D+00  2.92D+00  3.00D+00  3.00D+00
                    CP:  3.00D+00  3.00D+00  1.89D+00
 E= -2389.04225791790     Delta-E=       -0.000002582746 Rises=F Damp=F
 DIIS: error= 1.04D-05 at cycle  14 NSaved=  14.
 NSaved=14 IEnMin=14 EnMin= -2389.04225791790     IErMin=14 ErrMin= 1.04D-05
 ErrMax= 1.04D-05  0.00D+00 EMaxC= 1.00D-01 BMatC= 2.58D-07 BMatP= 5.13D-07
 IDIUse=1 WtCom= 1.00D+00 WtEn= 0.00D+00
 Coeff-Com: -0.385D-03 0.512D-03-0.357D-03-0.413D-03 0.226D-02 0.920D-02
 Coeff-Com:  0.216D-01 0.657D-01 0.621D-01-0.167D+00-0.412D+00 0.627D-01
 Coeff-Com:  0.604D+00 0.752D+00
 Coeff:     -0.385D-03 0.512D-03-0.357D-03-0.413D-03 0.226D-02 0.920D-02
 Coeff:      0.216D-01 0.657D-01 0.621D-01-0.167D+00-0.412D+00 0.627D-01
 Coeff:      0.604D+00 0.752D+00
 Gap=     0.077 Goal=   None    Shift=    0.000
 Gap=     0.088 Goal=   None    Shift=    0.000
 RMSDP=1.18D-05 MaxDP=4.93D-04 DE=-2.58D-06 OVMax= 2.42D-03

 Cycle  15  Pass 1  IDiag  1:
 RMSU=  3.59D-06    CP:  1.01D+00  1.42D+00  4.39D-01  1.00D+00  9.24D-01
                    CP:  1.06D+00  1.65D+00  3.00D+00  3.00D+00  3.00D+00
                    CP:  3.00D+00  3.00D+00  2.38D+00  1.49D+00
 E= -2389.04225859727     Delta-E=       -0.000000679371 Rises=F Damp=F
 DIIS: error= 3.90D-06 at cycle  15 NSaved=  15.
 NSaved=15 IEnMin=15 EnMin= -2389.04225859727     IErMin=15 ErrMin= 3.90D-06
 ErrMax= 3.90D-06  0.00D+00 EMaxC= 1.00D-01 BMatC= 3.85D-08 BMatP= 2.58D-07
 IDIUse=1 WtCom= 1.00D+00 WtEn= 0.00D+00
 Coeff-Com:  0.173D-03-0.230D-03-0.285D-03 0.401D-03-0.461D-02-0.117D-01
 Coeff-Com: -0.137D-01-0.267D-01 0.741D-01 0.185D+00-0.822D-02-0.437D+00
 Coeff-Com: -0.189D-01 0.347D+00 0.915D+00
 Coeff:      0.173D-03-0.230D-03-0.285D-03 0.401D-03-0.461D-02-0.117D-01
 Coeff:     -0.137D-01-0.267D-01 0.741D-01 0.185D+00-0.822D-02-0.437D+00
 Coeff:     -0.189D-01 0.347D+00 0.915D+00
 Gap=     0.077 Goal=   None    Shift=    0.000
 Gap=     0.088 Goal=   None    Shift=    0.000
 RMSDP=5.44D-06 MaxDP=2.11D-04 DE=-6.79D-07 OVMax= 1.08D-03

 Cycle  16  Pass 1  IDiag  1:
 RMSU=  1.10D-06    CP:  1.01D+00  1.42D+00  4.39D-01  1.00D+00  9.26D-01
                    CP:  1.07D+00  1.68D+00  3.00D+00  3.00D+00  3.00D+00
                    CP:  3.00D+00  3.00D+00  2.61D+00  1.77D+00  1.64D+00
 E= -2389.04225870216     Delta-E=       -0.000000104890 Rises=F Damp=F
 DIIS: error= 1.05D-06 at cycle  16 NSaved=  16.
 NSaved=16 IEnMin=16 EnMin= -2389.04225870216     IErMin=16 ErrMin= 1.05D-06
 ErrMax= 1.05D-06  0.00D+00 EMaxC= 1.00D-01 BMatC= 4.25D-09 BMatP= 3.85D-08
 IDIUse=1 WtCom= 1.00D+00 WtEn= 0.00D+00
 Coeff-Com: -0.863D-04 0.120D-03-0.808D-05 0.326D-05-0.175D-02-0.440D-02
 Coeff-Com: -0.747D-02-0.158D-01 0.112D-01 0.760D-01 0.556D-01-0.129D+00
 Coeff-Com: -0.966D-01-0.590D-02 0.260D+00 0.858D+00
 Coeff:     -0.863D-04 0.120D-03-0.808D-05 0.326D-05-0.175D-02-0.440D-02
 Coeff:     -0.747D-02-0.158D-01 0.112D-01 0.760D-01 0.556D-01-0.129D+00
 Coeff:     -0.966D-01-0.590D-02 0.260D+00 0.858D+00
 Gap=     0.077 Goal=   None    Shift=    0.000
 Gap=     0.088 Goal=   None    Shift=    0.000
 RMSDP=9.41D-07 MaxDP=4.02D-05 DE=-1.05D-07 OVMax= 1.87D-04

 Cycle  17  Pass 1  IDiag  1:
 RMSU=  2.04D-07    CP:  1.01D+00  1.42D+00  4.40D-01  1.00D+00  9.26D-01
                    CP:  1.07D+00  1.68D+00  3.00D+00  3.00D+00  3.00D+00
                    CP:  3.00D+00  3.00D+00  2.65D+00  1.82D+00  1.76D+00
                    CP:  1.16D+00
 E= -2389.04225870675     Delta-E=       -0.000000004585 Rises=F Damp=F
 DIIS: error= 4.04D-07 at cycle  17 NSaved=  17.
 NSaved=17 IEnMin=17 EnMin= -2389.04225870675     IErMin=17 ErrMin= 4.04D-07
 ErrMax= 4.04D-07  0.00D+00 EMaxC= 1.00D-01 BMatC= 6.66D-10 BMatP= 4.25D-09
 IDIUse=1 WtCom= 1.00D+00 WtEn= 0.00D+00
 Coeff-Com:  0.303D-04-0.410D-04 0.156D-04 0.373D-04-0.218D-03-0.464D-03
 Coeff-Com: -0.150D-02-0.323D-02-0.380D-02 0.827D-02 0.209D-01 0.913D-03
 Coeff-Com: -0.293D-01-0.457D-01-0.156D-01 0.291D+00 0.779D+00
 Coeff:      0.303D-04-0.410D-04 0.156D-04 0.373D-04-0.218D-03-0.464D-03
 Coeff:     -0.150D-02-0.323D-02-0.380D-02 0.827D-02 0.209D-01 0.913D-03
 Coeff:     -0.293D-01-0.457D-01-0.156D-01 0.291D+00 0.779D+00
 Gap=     0.077 Goal=   None    Shift=    0.000
 Gap=     0.088 Goal=   None    Shift=    0.000
 RMSDP=1.92D-07 MaxDP=9.03D-06 DE=-4.58D-09 OVMax= 4.08D-05

 Cycle  18  Pass 1  IDiag  1:
 RMSU=  8.13D-08    CP:  1.01D+00  1.42D+00  4.40D-01  1.00D+00  9.26D-01
                    CP:  1.07D+00  1.68D+00  3.00D+00  3.00D+00  3.00D+00
                    CP:  3.00D+00  3.00D+00  2.65D+00  1.83D+00  1.79D+00
                    CP:  1.18D+00  1.12D+00
 E= -2389.04225870714     Delta-E=       -0.000000000398 Rises=F Damp=F
 DIIS: error= 1.91D-07 at cycle  18 NSaved=  18.
 NSaved=18 IEnMin=18 EnMin= -2389.04225870714     IErMin=18 ErrMin= 1.91D-07
 ErrMax= 1.91D-07  0.00D+00 EMaxC= 1.00D-01 BMatC= 8.21D-11 BMatP= 6.66D-10
 IDIUse=1 WtCom= 1.00D+00 WtEn= 0.00D+00
 Coeff-Com:  0.123D-04-0.165D-04 0.722D-05-0.513D-05 0.144D-03 0.436D-03
 Coeff-Com:  0.568D-03 0.131D-02-0.193D-02-0.715D-02-0.209D-02 0.148D-01
 Coeff-Com:  0.328D-02-0.672D-02-0.300D-01-0.397D-01 0.153D+00 0.914D+00
 Coeff:      0.123D-04-0.165D-04 0.722D-05-0.513D-05 0.144D-03 0.436D-03
 Coeff:      0.568D-03 0.131D-02-0.193D-02-0.715D-02-0.209D-02 0.148D-01
 Coeff:      0.328D-02-0.672D-02-0.300D-01-0.397D-01 0.153D+00 0.914D+00
 Gap=     0.077 Goal=   None    Shift=    0.000
 Gap=     0.088 Goal=   None    Shift=    0.000
 RMSDP=4.65D-08 MaxDP=2.00D-06 DE=-3.98D-10 OVMax= 8.70D-06

 Cycle  19  Pass 1  IDiag  1:
 RMSU=  2.50D-08    CP:  1.01D+00  1.42D+00  4.40D-01  1.00D+00  9.26D-01
                    CP:  1.07D+00  1.68D+00  3.00D+00  3.00D+00  3.00D+00
                    CP:  3.00D+00  3.00D+00  2.66D+00  1.83D+00  1.79D+00
                    CP:  1.19D+00  1.24D+00  1.28D+00
 E= -2389.04225870725     Delta-E=       -0.000000000104 Rises=F Damp=F
 DIIS: error= 1.21D-07 at cycle  19 NSaved=  19.
 NSaved=19 IEnMin=19 EnMin= -2389.04225870725     IErMin=19 ErrMin= 1.21D-07
 ErrMax= 1.21D-07  0.00D+00 EMaxC= 1.00D-01 BMatC= 2.40D-11 BMatP= 8.21D-11
 IDIUse=1 WtCom= 1.00D+00 WtEn= 0.00D+00
 Coeff-Com: -0.437D-05 0.593D-05 0.198D-05-0.139D-04 0.991D-04 0.245D-03
 Coeff-Com:  0.465D-03 0.107D-02-0.741D-05-0.413D-02-0.485D-02 0.560D-02
 Coeff-Com:  0.605D-02 0.797D-02-0.845D-02-0.732D-01-0.100D+00 0.302D+00
 Coeff-Com:  0.868D+00
 Coeff:     -0.437D-05 0.593D-05 0.198D-05-0.139D-04 0.991D-04 0.245D-03
 Coeff:      0.465D-03 0.107D-02-0.741D-05-0.413D-02-0.485D-02 0.560D-02
 Coeff:      0.605D-02 0.797D-02-0.845D-02-0.732D-01-0.100D+00 0.302D+00
 Coeff:      0.868D+00
 Gap=     0.077 Goal=   None    Shift=    0.000
 Gap=     0.088 Goal=   None    Shift=    0.000
 RMSDP=2.55D-08 MaxDP=1.34D-06 DE=-1.04D-10 OVMax= 4.56D-06

 Cycle  20  Pass 1  IDiag  1:
 RMSU=  1.17D-08    CP:  1.01D+00  1.42D+00  4.40D-01  1.00D+00  9.26D-01
                    CP:  1.07D+00  1.68D+00  3.00D+00  3.00D+00  3.00D+00
                    CP:  3.00D+00  3.00D+00  2.65D+00  1.83D+00  1.79D+00
                    CP:  1.19D+00  1.30D+00  1.46D+00  1.31D+00
 E= -2389.04225870724     Delta-E=        0.000000000009 Rises=F Damp=F
 DIIS: error= 3.40D-08 at cycle  20 NSaved=  20.
 NSaved=20 IEnMin=19 EnMin= -2389.04225870725     IErMin=20 ErrMin= 3.40D-08
 ErrMax= 3.40D-08  0.00D+00 EMaxC= 1.00D-01 BMatC= 2.25D-12 BMatP= 2.40D-11
 IDIUse=1 WtCom= 1.00D+00 WtEn= 0.00D+00
 Coeff-Com: -0.890D-06 0.116D-05-0.154D-05 0.189D-05-0.936D-05-0.510D-04
 Coeff-Com: -0.327D-04-0.115D-03 0.385D-03 0.731D-03-0.497D-03-0.159D-02
 Coeff-Com:  0.434D-03 0.247D-02 0.253D-02-0.486D-02-0.334D-01-0.964D-01
 Coeff-Com:  0.120D+00 0.101D+01
 Coeff:     -0.890D-06 0.116D-05-0.154D-05 0.189D-05-0.936D-05-0.510D-04
 Coeff:     -0.327D-04-0.115D-03 0.385D-03 0.731D-03-0.497D-03-0.159D-02
 Coeff:      0.434D-03 0.247D-02 0.253D-02-0.486D-02-0.334D-01-0.964D-01
 Coeff:      0.120D+00 0.101D+01
 Gap=     0.077 Goal=   None    Shift=    0.000
 Gap=     0.088 Goal=   None    Shift=    0.000
 RMSDP=1.36D-08 MaxDP=8.33D-07 DE= 9.09D-12 OVMax= 2.78D-06

 Cycle  21  Pass 1  IDiag  1:
 Restarting incremental Fock formation.
 E= -2389.04225870755     Delta-E=       -0.000000000311 Rises=F Damp=F
 DIIS: error= 1.51D-08 at cycle  21 NSaved=  20.
 NSaved=20 IEnMin=20 EnMin= -2389.04225870755     IErMin=20 ErrMin= 1.51D-08
 ErrMax= 1.51D-08  0.00D+00 EMaxC= 1.00D-01 BMatC= 6.55D-13 BMatP= 2.25D-12
 IDIUse=1 WtCom= 1.00D+00 WtEn= 0.00D+00
 Coeff-Com: -0.301D-06 0.436D-06 0.244D-05-0.768D-05-0.278D-04-0.481D-04
 Coeff-Com: -0.162D-03-0.793D-04 0.523D-03 0.831D-03-0.627D-03-0.102D-02
 Coeff-Com: -0.138D-02 0.105D-02 0.126D-01 0.122D-01-0.701D-01-0.128D+00
 Coeff-Com:  0.227D+00 0.948D+00
 Coeff:     -0.301D-06 0.436D-06 0.244D-05-0.768D-05-0.278D-04-0.481D-04
 Coeff:     -0.162D-03-0.793D-04 0.523D-03 0.831D-03-0.627D-03-0.102D-02
 Coeff:     -0.138D-02 0.105D-02 0.126D-01 0.122D-01-0.701D-01-0.128D+00
 Coeff:      0.227D+00 0.948D+00
 Gap=     0.077 Goal=   None    Shift=    0.000
 Gap=     0.088 Goal=   None    Shift=    0.000
 RMSDP=6.68D-09 MaxDP=4.64D-07 DE=-3.11D-10 OVMax= 1.28D-06

 SCF Done:  E(UB3LYP) =  -2389.04225871     A.U. after   21 cycles
            NFock= 21  Conv=0.67D-08     -V/T= 2.0014
 <Sx>= 0.0000 <Sy>= 0.0000 <Sz>= 0.5000 <S**2>= 0.7699 S= 0.5099
 <L.S>= 0.000000000000E+00
 KE= 2.385674119979D+03 PE=-7.070460742922D+03 EE= 1.592137678035D+03
 Annihilation of the first spin contaminant:
 S**2 before annihilation     0.7699,   after     0.7502
 Leave Link  502 at Mon Oct 24 00:00:31 2016, MaxMem=    33554432 cpu:      1423.9
 (Enter /home/proyectos/fulerenos/M3C-v2.0/M3C-deps_CCC/g09-AM64L-G09RevC.01/l801.exe)
 DoSCS=F DFT=T ScalE2(SS,OS)=  1.000000  1.000000
 Range of M.O.s used for correlation:     1   282
 NBasis=   282 NAE=    48 NBE=    47 NFC=     0 NFV=     0
 NROrb=    282 NOA=    48 NOB=    47 NVA=   234 NVB=   235

 **** Warning!!: The largest alpha MO coefficient is  0.21774391D+02


 **** Warning!!: The smallest alpha delta epsilon is  0.76719261D-01


 **** Warning!!: The largest beta MO coefficient is  0.20843987D+02


 **** Warning!!: The smallest beta delta epsilon is  0.88027200D-01

 Leave Link  801 at Mon Oct 24 00:00:31 2016, MaxMem=    33554432 cpu:         0.1
 (Enter /home/proyectos/fulerenos/M3C-v2.0/M3C-deps_CCC/g09-AM64L-G09RevC.01/l1101.exe)
 Using compressed storage, NAtomX=     6.
 Will process      7 centers per pass.
 Leave Link 1101 at Mon Oct 24 00:00:31 2016, MaxMem=    33554432 cpu:         1.4
 (Enter /home/proyectos/fulerenos/M3C-v2.0/M3C-deps_CCC/g09-AM64L-G09RevC.01/l1102.exe)
 Symmetrizing basis deriv contribution to polar:
 IMax=3 JMax=2 DiffMx= 0.00D+00
 Leave Link 1102 at Mon Oct 24 00:00:31 2016, MaxMem=    33554432 cpu:         0.2
 (Enter /home/proyectos/fulerenos/M3C-v2.0/M3C-deps_CCC/g09-AM64L-G09RevC.01/l1110.exe)
 Forming Gx(P) for the SCF density, NAtomX=     6.
 Integral derivatives from FoFJK, PRISM(SPDF).
 Do as many integral derivatives as possible in FoFJK.
 G2DrvN: MDV=      33554280.
 G2DrvN: will do     7 centers at a time, making    1 passes.
 Calling FoFCou, ICntrl=  3107 FMM=F I1Cent=   0 AccDes= 0.00D+00.
 FoFJK:  IHMeth= 1 ICntrl=    3107 DoSepK=F KAlg= 0 I1Cent=   0 FoldK=F
 IRaf=         0 NMat=   1 IRICut=       1 DoRegI=T DoRafI=F ISym2E= 0.
 FoFCou: FMM=F IPFlag=           0 FMFlag=      100000 FMFlg1=           0
         NFxFlg=           0 DoJE=F BraDBF=F KetDBF=F FulRan=T
         wScrn=  0.000000 ICntrl=    3107 IOpCl=  1 I1Cent=           0 NGrid=           0
         NMat0=    1 NMatS0=      1 NMatT0=    0 NMatD0=    1 NMtDS0=    0 NMtDT0=    0
 Symmetry not used in FoFCou.
 End of G2Drv F.D. properties file   721 does not exist.
 End of G2Drv F.D. properties file   722 does not exist.
 End of G2Drv F.D. properties file   788 does not exist.
 Leave Link 1110 at Mon Oct 24 00:02:57 2016, MaxMem=    33554432 cpu:       555.0
 (Enter /home/proyectos/fulerenos/M3C-v2.0/M3C-deps_CCC/g09-AM64L-G09RevC.01/l1002.exe)
 Minotr:  UHF open shell wavefunction.
          IDoAtm=111111
          Direct CPHF calculation.
          Differentiating once with respect to electric field.
                with respect to dipole field.
          Differentiating once with respect to nuclear coordinates.
          Requested convergence is 1.0D-08 RMS, and 1.0D-07 maximum.
          Secondary convergence is 1.0D-12 RMS, and 1.0D-12 maximum.
          NewPWx=T KeepS1=F KeepF1=F KeepIn=T MapXYZ=F SortEE=F KeepMc=T.
          MDV=      33553804 using IRadAn=       2.
 Generate precomputed XC quadrature information.
          Solving linear equations simultaneously, MaxMat=       0.
 FoFJK:  IHMeth= 1 ICntrl=       0 DoSepK=F KAlg= 0 I1Cent=   0 FoldK=F
 IRaf= 850000000 NMat=  21 IRICut=       1 DoRegI=T DoRafI=F ISym2E= 2.
 FoFCou: FMM=F IPFlag=           0 FMFlag=      100000 FMFlg1=           0
         NFxFlg=           0 DoJE=F BraDBF=F KetDBF=F FulRan=T
         wScrn=  0.000000 ICntrl=       0 IOpCl=  1 I1Cent=           0 NGrid=           0
         NMat0=   21 NMatS0=     21 NMatT0=    0 NMatD0=   21 NMtDS0=    0 NMtDT0=    0
 Integrals replicated using symmetry in FoFCou.
          There are    21 degrees of freedom in the 1st order CPHF.  IDoFFX=6 NUNeed=     3.
     18 vectors produced by pass  0 Test12= 1.06D-13 4.76D-09 XBig12= 1.94D+03 2.53D+01.
 AX will form    18 AO Fock derivatives at one time.
     18 vectors produced by pass  1 Test12= 1.06D-13 4.76D-09 XBig12= 6.61D+02 4.13D+00.
     18 vectors produced by pass  2 Test12= 1.06D-13 4.76D-09 XBig12= 7.09D+01 1.66D+00.
     18 vectors produced by pass  3 Test12= 1.06D-13 4.76D-09 XBig12= 4.78D+00 5.17D-01.
     18 vectors produced by pass  4 Test12= 1.06D-13 4.76D-09 XBig12= 2.35D-01 9.57D-02.
     18 vectors produced by pass  5 Test12= 1.06D-13 4.76D-09 XBig12= 5.34D-03 1.07D-02.
     18 vectors produced by pass  6 Test12= 1.06D-13 4.76D-09 XBig12= 1.16D-04 1.60D-03.
     18 vectors produced by pass  7 Test12= 1.06D-13 4.76D-09 XBig12= 2.78D-06 2.53D-04.
     17 vectors produced by pass  8 Test12= 1.06D-13 4.76D-09 XBig12= 5.80D-08 3.25D-05.
      9 vectors produced by pass  9 Test12= 1.06D-13 4.76D-09 XBig12= 1.05D-09 4.57D-06.
      3 vectors produced by pass 10 Test12= 1.06D-13 4.76D-09 XBig12= 1.48D-11 4.33D-07.
      3 vectors produced by pass 11 Test12= 1.06D-13 4.76D-09 XBig12= 1.66D-13 3.86D-08.
      2 vectors produced by pass 12 Test12= 1.06D-13 4.76D-09 XBig12= 5.75D-15 7.69D-09.
 InvSVY:  IOpt=1 It=  1 EMax= 2.13D-14
 Solved reduced A of dimension   178 with    21 vectors.
 FullF1:  Do perturbations    1 to     3.
 Isotropic polarizability for W=    0.000000      134.82 Bohr**3.
 End of Minotr F.D. properties file   721 does not exist.
 End of Minotr F.D. properties file   722 does not exist.
 End of Minotr F.D. properties file   788 does not exist.
 Leave Link 1002 at Mon Oct 24 00:22:00 2016, MaxMem=    33554432 cpu:      4436.8
 (Enter /home/proyectos/fulerenos/M3C-v2.0/M3C-deps_CCC/g09-AM64L-G09RevC.01/l601.exe)
 Copying SCF densities to generalized density rwf, IOpCl= 1 IROHF=0.

 **********************************************************************

            Population analysis using the SCF density.

 **********************************************************************

 Orbital symmetries:
 Alpha Orbitals:
       Occupied  (A) (A) (A) (A) (A) (A) (A) (A) (A) (A) (A) (A)
                 (A) (A) (A) (A) (A) (A) (A) (A) (A) (A) (A) (A)
                 (A) (A) (A) (A) (A) (A) (A) (A) (A) (A) (A) (A)
                 (A) (A) (A) (A) (A) (A) (A) (A) (A) (A) (A) (A)
       Virtual   (A) (A) (A) (A) (A) (A) (A) (A) (A) (A) (A) (A)
                 (A) (A) (A) (A) (A) (A) (A) (A) (A) (A) (A) (A)
                 (A) (A) (A) (A) (A) (A) (A) (A) (A) (A) (A) (A)
                 (A) (A) (A) (A) (A) (A) (A) (A) (A) (A) (A) (A)
                 (A) (A) (A) (A) (A) (A) (A) (A) (A) (A) (A) (A)
                 (A) (A) (A) (A) (A) (A) (A) (A) (A) (A) (A) (A)
                 (A) (A) (A) (A) (A) (A) (A) (A) (A) (A) (A) (A)
                 (A) (A) (A) (A) (A) (A) (A) (A) (A) (A) (A) (A)
                 (A) (A) (A) (A) (A) (A) (A) (A) (A) (A) (A) (A)
                 (A) (A) (A) (A) (A) (A) (A) (A) (A) (A) (A) (A)
                 (A) (A) (A) (A) (A) (A) (A) (A) (A) (A) (A) (A)
                 (A) (A) (A) (A) (A) (A) (A) (A) (A) (A) (A) (A)
                 (A) (A) (A) (A) (A) (A) (A) (A) (A) (A) (A) (A)
                 (A) (A) (A) (A) (A) (A) (A) (A) (A) (A) (A) (A)
                 (A) (A) (A) (A) (A) (A) (A) (A) (A) (A) (A) (A)
                 (A) (A) (A) (A) (A) (A) (A) (A) (A) (A) (A) (A)
                 (A) (A) (A) (A) (A) (A) (A) (A) (A) (A) (A) (A)
                 (A) (A) (A) (A) (A) (A) (A) (A) (A) (A) (A) (A)
                 (A) (A) (A) (A) (A) (A) (A) (A) (A) (A) (A) (A)
                 (A) (A) (A) (A) (A) (A)
 Beta  Orbitals:
       Occupied  (A) (A) (A) (A) (A) (A) (A) (A) (A) (A) (A) (A)
                 (A) (A) (A) (A) (A) (A) (A) (A) (A) (A) (A) (A)
                 (A) (A) (A) (A) (A) (A) (A) (A) (A) (A) (A) (A)
                 (A) (A) (A) (A) (A) (A) (A) (A) (A) (A) (A)
       Virtual   (A) (A) (A) (A) (A) (A) (A) (A) (A) (A) (A) (A)
                 (A) (A) (A) (A) (A) (A) (A) (A) (A) (A) (A) (A)
                 (A) (A) (A) (A) (A) (A) (A) (A) (A) (A) (A) (A)
                 (A) (A) (A) (A) (A) (A) (A) (A) (A) (A) (A) (A)
                 (A) (A) (A) (A) (A) (A) (A) (A) (A) (A) (A) (A)
                 (A) (A) (A) (A) (A) (A) (A) (A) (A) (A) (A) (A)
                 (A) (A) (A) (A) (A) (A) (A) (A) (A) (A) (A) (A)
                 (A) (A) (A) (A) (A) (A) (A) (A) (A) (A) (A) (A)
                 (A) (A) (A) (A) (A) (A) (A) (A) (A) (A) (A) (A)
                 (A) (A) (A) (A) (A) (A) (A) (A) (A) (A) (A) (A)
                 (A) (A) (A) (A) (A) (A) (A) (A) (A) (A) (A) (A)
                 (A) (A) (A) (A) (A) (A) (A) (A) (A) (A) (A) (A)
                 (A) (A) (A) (A) (A) (A) (A) (A) (A) (A) (A) (A)
                 (A) (A) (A) (A) (A) (A) (A) (A) (A) (A) (A) (A)
                 (A) (A) (A) (A) (A) (A) (A) (A) (A) (A) (A) (A)
                 (A) (A) (A) (A) (A) (A) (A) (A) (A) (A) (A) (A)
                 (A) (A) (A) (A) (A) (A) (A) (A) (A) (A) (A) (A)
                 (A) (A) (A) (A) (A) (A) (A) (A) (A) (A) (A) (A)
                 (A) (A) (A) (A) (A) (A) (A) (A) (A) (A) (A) (A)
                 (A) (A) (A) (A) (A) (A) (A)
 The electronic state is 2-A.
 Alpha  occ. eigenvalues --  -89.15750 -89.11437 -89.11306 -89.09479 -89.07990
 Alpha  occ. eigenvalues --  -89.07974  -8.23498  -8.19473  -8.19460  -8.17680
 Alpha  occ. eigenvalues --   -8.16355  -8.16273  -6.19639  -6.19564  -6.19236
 Alpha  occ. eigenvalues --   -6.15766  -6.15689  -6.15454  -6.15446  -6.15349
 Alpha  occ. eigenvalues --   -6.15078  -6.14042  -6.13766  -6.13082  -6.12641
 Alpha  occ. eigenvalues --   -6.12565  -6.12417  -6.12395  -6.11993  -6.11802
 Alpha  occ. eigenvalues --   -1.07659  -1.03851  -0.99761  -0.88516  -0.81489
 Alpha  occ. eigenvalues --   -0.78370  -0.64646  -0.62079  -0.61310  -0.58308
 Alpha  occ. eigenvalues --   -0.56868  -0.56190  -0.54384  -0.50056  -0.48344
 Alpha  occ. eigenvalues --   -0.45334  -0.44305  -0.42463
 Alpha virt. eigenvalues --   -0.34791  -0.27491  -0.25998  -0.23975  -0.19051
 Alpha virt. eigenvalues --   -0.18599  -0.13376  -0.11001  -0.10668  -0.09568
 Alpha virt. eigenvalues --   -0.09015  -0.08686  -0.07390  -0.07173  -0.06285
 Alpha virt. eigenvalues --   -0.06201  -0.05901  -0.05740  -0.04711  -0.04190
 Alpha virt. eigenvalues --   -0.03542  -0.02855  -0.02793  -0.01933  -0.01451
 Alpha virt. eigenvalues --   -0.00718  -0.00297  -0.00017   0.00800   0.01669
 Alpha virt. eigenvalues --    0.02209   0.02932   0.04261   0.04473   0.05379
 Alpha virt. eigenvalues --    0.06725   0.06789   0.07534   0.09368   0.09741
 Alpha virt. eigenvalues --    0.10214   0.10584   0.10934   0.11815   0.12565
 Alpha virt. eigenvalues --    0.13589   0.14161   0.14749   0.16150   0.16430
 Alpha virt. eigenvalues --    0.16532   0.17175   0.18165   0.19134   0.19679
 Alpha virt. eigenvalues --    0.20271   0.20893   0.21545   0.22656   0.22888
 Alpha virt. eigenvalues --    0.25494   0.26175   0.27798   0.28276   0.29486
 Alpha virt. eigenvalues --    0.30748   0.31136   0.32707   0.33099   0.34193
 Alpha virt. eigenvalues --    0.35800   0.36662   0.37974   0.38247   0.40203
 Alpha virt. eigenvalues --    0.41855   0.47243   0.48813   0.53431   0.63307
 Alpha virt. eigenvalues --    0.68922   0.73105   0.73342   0.73869   0.74600
 Alpha virt. eigenvalues --    0.76085   0.76553   0.77042   0.77398   0.78455
 Alpha virt. eigenvalues --    0.79735   0.80054   0.81987   0.82433   0.83741
 Alpha virt. eigenvalues --    0.84342   0.85280   0.86445   0.87486   0.87965
 Alpha virt. eigenvalues --    0.89492   0.89658   0.90018   0.90875   0.91482
 Alpha virt. eigenvalues --    0.93341   0.93840   0.94641   0.96233   0.97056
 Alpha virt. eigenvalues --    0.99207   1.01714   1.05092   1.05601   1.18667
 Alpha virt. eigenvalues --    1.20835   1.21519   1.23203   1.25613   1.29618
 Alpha virt. eigenvalues --    1.33221   1.33953   1.36430   1.37049   1.38333
 Alpha virt. eigenvalues --    1.39370   1.40539   1.40968   1.42167   1.42672
 Alpha virt. eigenvalues --    1.42974   1.43720   1.44819   1.45509   1.46058
 Alpha virt. eigenvalues --    1.46398   1.47150   1.48664   1.49058   1.49817
 Alpha virt. eigenvalues --    1.50626   1.51052   1.52526   1.54518   1.55869
 Alpha virt. eigenvalues --    1.58233   1.60992   1.63356   1.63768   1.65340
 Alpha virt. eigenvalues --    1.67675   1.69606   1.71113   1.74584   1.75812
 Alpha virt. eigenvalues --    1.79910   1.91794   1.92299   1.94916   1.95727
 Alpha virt. eigenvalues --    1.99807   2.04060   2.06346   2.08912   2.10956
 Alpha virt. eigenvalues --    2.14422   2.14982   2.15735   2.18145   2.26132
 Alpha virt. eigenvalues --    2.28465   2.30115   2.38966   2.42086   4.31545
 Alpha virt. eigenvalues --    4.31953   4.33296   4.34194   4.34997   4.35521
 Alpha virt. eigenvalues --    4.37417   4.37679   4.39703   4.40889   4.41017
 Alpha virt. eigenvalues --    4.41793   4.42880   4.44992   4.45316   4.46137
 Alpha virt. eigenvalues --    4.46967   4.49066   4.51852   4.54386   4.55811
 Alpha virt. eigenvalues --    4.58861   4.59466   4.62077   4.63318   4.72450
 Alpha virt. eigenvalues --    4.85932   5.21902   5.31893   5.36725   7.56058
 Alpha virt. eigenvalues --    7.65026   7.71907   7.76806   7.82908   7.90518
 Alpha virt. eigenvalues --   17.04436  17.05474  17.08234  17.09705  17.11140
 Alpha virt. eigenvalues --   17.11853  17.12767  17.15745  17.17226  17.19810
 Alpha virt. eigenvalues --   17.29709  17.30744  17.33197  17.39398  17.43750
 Alpha virt. eigenvalues --   17.50597  17.51596  17.53369 188.71874 188.82371
 Alpha virt. eigenvalues --  188.89895 188.93717 188.96495 189.03576
  Beta  occ. eigenvalues --  -89.15749 -89.11276 -89.11150 -89.09470 -89.08029
  Beta  occ. eigenvalues --  -89.07567  -8.23496  -8.19447  -8.19202  -8.17670
  Beta  occ. eigenvalues --   -8.16404  -8.15892  -6.19636  -6.19565  -6.19238
  Beta  occ. eigenvalues --   -6.15722  -6.15524  -6.15428  -6.15206  -6.15021
  Beta  occ. eigenvalues --   -6.14546  -6.14045  -6.13762  -6.13042  -6.12673
  Beta  occ. eigenvalues --   -6.12560  -6.12198  -6.11838  -6.11653  -6.11340
  Beta  occ. eigenvalues --   -1.07563  -1.03099  -0.99130  -0.88031  -0.80389
  Beta  occ. eigenvalues --   -0.77285  -0.64428  -0.61782  -0.61083  -0.57753
  Beta  occ. eigenvalues --   -0.56267  -0.54900  -0.52562  -0.49035  -0.47864
  Beta  occ. eigenvalues --   -0.44950  -0.43829
  Beta virt. eigenvalues --   -0.35026  -0.33004  -0.27032  -0.25792  -0.23716
  Beta virt. eigenvalues --   -0.18742  -0.18126  -0.13286  -0.10890  -0.10519
  Beta virt. eigenvalues --   -0.09516  -0.08917  -0.08577  -0.07281  -0.06988
  Beta virt. eigenvalues --   -0.06219  -0.06095  -0.05766  -0.05547  -0.04538
  Beta virt. eigenvalues --   -0.04054  -0.03412  -0.02799  -0.02633  -0.01769
  Beta virt. eigenvalues --   -0.01291  -0.00623  -0.00071   0.00470   0.01017
  Beta virt. eigenvalues --    0.01869   0.02473   0.03139   0.04550   0.04890
  Beta virt. eigenvalues --    0.05881   0.06801   0.06901   0.07715   0.09466
  Beta virt. eigenvalues --    0.09848   0.10366   0.10973   0.11079   0.12382
  Beta virt. eigenvalues --    0.12658   0.13786   0.14382   0.15043   0.16230
  Beta virt. eigenvalues --    0.16716   0.16904   0.17812   0.18470   0.19430
  Beta virt. eigenvalues --    0.19910   0.20609   0.21600   0.21853   0.22841
  Beta virt. eigenvalues --    0.23253   0.25918   0.26433   0.27883   0.28674
  Beta virt. eigenvalues --    0.29790   0.31059   0.31601   0.33043   0.33516
  Beta virt. eigenvalues --    0.34526   0.36227   0.36993   0.38139   0.38451
  Beta virt. eigenvalues --    0.40365   0.42075   0.47334   0.49219   0.53568
  Beta virt. eigenvalues --    0.63475   0.69007   0.73477   0.73740   0.74172
  Beta virt. eigenvalues --    0.75457   0.76201   0.76898   0.77308   0.77784
  Beta virt. eigenvalues --    0.78663   0.80038   0.80793   0.82160   0.82906
  Beta virt. eigenvalues --    0.83942   0.84550   0.85485   0.86575   0.88238
  Beta virt. eigenvalues --    0.88497   0.89725   0.90242   0.90890   0.91808
  Beta virt. eigenvalues --    0.92161   0.93701   0.94272   0.95390   0.96652
  Beta virt. eigenvalues --    0.97209   0.99415   1.02034   1.05220   1.06015
  Beta virt. eigenvalues --    1.19250   1.20948   1.21688   1.23734   1.26181
  Beta virt. eigenvalues --    1.30013   1.33352   1.34492   1.36616   1.37636
  Beta virt. eigenvalues --    1.39563   1.40106   1.41290   1.41641   1.42309
  Beta virt. eigenvalues --    1.42913   1.43122   1.44044   1.44963   1.46109
  Beta virt. eigenvalues --    1.47068   1.47513   1.48263   1.49107   1.49528
  Beta virt. eigenvalues --    1.50619   1.51288   1.51996   1.53327   1.54701
  Beta virt. eigenvalues --    1.56254   1.58886   1.61506   1.63436   1.64392
  Beta virt. eigenvalues --    1.65769   1.68203   1.71194   1.72221   1.74934
  Beta virt. eigenvalues --    1.75978   1.80205   1.92065   1.92728   1.95204
  Beta virt. eigenvalues --    1.95859   2.00028   2.04757   2.06566   2.09050
  Beta virt. eigenvalues --    2.12736   2.14382   2.15007   2.15967   2.18156
  Beta virt. eigenvalues --    2.26507   2.28491   2.30200   2.39080   2.42269
  Beta virt. eigenvalues --    4.31589   4.32255   4.33336   4.34386   4.35136
  Beta virt. eigenvalues --    4.35830   4.37461   4.37922   4.39736   4.40908
  Beta virt. eigenvalues --    4.41132   4.41984   4.43015   4.45394   4.45463
  Beta virt. eigenvalues --    4.46453   4.47088   4.49534   4.52300   4.54477
  Beta virt. eigenvalues --    4.55864   4.59185   4.60068   4.62106   4.63267
  Beta virt. eigenvalues --    4.72656   4.85958   5.21940   5.32462   5.36686
  Beta virt. eigenvalues --    7.56316   7.65263   7.72063   7.76836   7.83380
  Beta virt. eigenvalues --    7.90541  17.04451  17.06541  17.08412  17.10269
  Beta virt. eigenvalues --   17.11242  17.12115  17.13265  17.15907  17.17304
  Beta virt. eigenvalues --   17.19987  17.29848  17.30886  17.33254  17.39397
  Beta virt. eigenvalues --   17.43996  17.50639  17.51725  17.53392 188.72004
  Beta virt. eigenvalues --  188.82491 188.89993 188.93754 188.96677 189.03642
          Condensed to atoms (all electrons):
               1          2          3          4          5          6
     1  S   15.327992  -0.024357  -0.007558  -0.059893   0.170811   0.359372
     2  S   -0.024357  15.633595   0.261398   0.046916  -0.003242   0.119902
     3  S   -0.007558   0.261398  15.050211   0.008320   0.017775   0.062647
     4  S   -0.059893   0.046916   0.008320  15.455817   0.446053   0.030619
     5  S    0.170811  -0.003242   0.017775   0.446053  15.254447  -0.040680
     6  S    0.359372   0.119902   0.062647   0.030619  -0.040680  15.501771
          Atomic-Atomic Spin Densities.
               1          2          3          4          5          6
     1  S    0.021062  -0.000737   0.001012  -0.003601   0.006041  -0.006138
     2  S   -0.000737  -0.091989   0.009088   0.002727  -0.000233  -0.000776
     3  S    0.001012   0.009088  -0.007547  -0.002558  -0.003156  -0.000661
     4  S   -0.003601   0.002727  -0.002558   0.727023  -0.101859   0.004857
     5  S    0.006041  -0.000233  -0.003156  -0.101859   0.495573   0.002066
     6  S   -0.006138  -0.000776  -0.000661   0.004857   0.002066   0.043734
 Mulliken charges and spin densities:
               1          2
     1  S    0.233634   0.017638
     2  S   -0.034213  -0.081920
     3  S    0.607207  -0.003822
     4  S    0.072168   0.626590
     5  S    0.154836   0.398431
     6  S   -0.033632   0.043082
 Sum of Mulliken charges =   1.00000   1.00000
 Mulliken charges and spin densities with hydrogens summed into heavy atoms:
               1          2
     1  S    0.233634   0.017638
     2  S   -0.034213  -0.081920
     3  S    0.607207  -0.003822
     4  S    0.072168   0.626590
     5  S    0.154836   0.398431
     6  S   -0.033632   0.043082
 APT charges:
               1
     1  S   -0.011336
     2  S   -0.124021
     3  S    0.745219
     4  S    0.000615
     5  S    0.251039
     6  S    0.138485
 Sum of APT charges =   1.00000
 APT charges with hydrogens summed into heavy atoms:
               1
     1  S   -0.011336
     2  S   -0.124021
     3  S    0.745219
     4  S    0.000615
     5  S    0.251039
     6  S    0.138485
 Electronic spatial extent (au):  <R**2>=           1758.5898
 Charge=              1.0000 electrons
 Dipole moment (field-independent basis, Debye):
    X=             -0.7165    Y=             -0.0907    Z=              0.0657  Tot=              0.7252
 Quadrupole moment (field-independent basis, Debye-Ang):
   XX=            -49.0640   YY=            -63.6360   ZZ=            -71.6802
   XY=             -0.7689   XZ=              0.3774   YZ=             -0.3569
 Traceless Quadrupole moment (field-independent basis, Debye-Ang):
   XX=             12.3960   YY=             -2.1759   ZZ=            -10.2201
   XY=             -0.7689   XZ=              0.3774   YZ=             -0.3569
 Octapole moment (field-independent basis, Debye-Ang**2):
  XXX=            -21.3551  YYY=              1.9195  ZZZ=              0.5722  XYY=              3.2213
  XXY=              6.2129  XXZ=             -3.1026  XZZ=             -1.0940  YZZ=             -1.6323
  YYZ=             -0.5231  XYZ=             -0.6972
 Hexadecapole moment (field-independent basis, Debye-Ang**3):
 XXXX=          -1250.7718 YYYY=           -623.9143 ZZZZ=           -157.8982 XXXY=            -18.4094
 XXXZ=             15.1328 YYYX=             -0.8570 YYYZ=              0.7112 ZZZX=             -2.1719
 ZZZY=              0.9578 XXYY=           -343.8505 XXZZ=           -272.0373 YYZZ=           -132.5417
 XXYZ=            -13.0426 YYXZ=              5.7113 ZZXY=             -1.5015
 N-N= 7.036066861999D+02 E-N=-7.070460747043D+03  KE= 2.385674119979D+03
  Exact polarizability: 202.134  -5.630 126.054   1.697  -0.019  76.273
 Approx polarizability: 567.493 -48.897 311.823   6.431   3.087 154.109
                          Isotropic Fermi Contact Couplings
        Atom                 a.u.       MegaHertz       Gauss      10(-4) cm-1
     1  S(33)              0.01425       4.89569       1.74690       1.63303
     2  S(33)             -0.00199      -0.68362      -0.24393      -0.22803
     3  S(33)              0.02153       7.39392       2.63833       2.46634
     4  S(33)              0.01970       6.76776       2.41490       2.25748
     5  S(33)              0.02557       8.78168       3.13352       2.92925
     6  S(33)             -0.00310      -1.06605      -0.38039      -0.35560
 --------------------------------------------------------
       Center         ----  Spin Dipole Couplings  ----
                      3XX-RR        3YY-RR        3ZZ-RR
 --------------------------------------------------------
     1   Atom        0.009725     -0.088728      0.079003
     2   Atom        0.120207     -0.104426     -0.015780
     3   Atom        0.042277      0.017054     -0.059332
     4   Atom       -1.153372     -1.314468      2.467840
     5   Atom       -0.919993     -1.027573      1.947566
     6   Atom        0.006274      0.034598     -0.040872
 --------------------------------------------------------
                        XY            XZ            YZ
 --------------------------------------------------------
     1   Atom       -0.036223     -0.117125     -0.006418
     2   Atom       -0.160746      0.155562      0.254251
     3   Atom        0.023330      0.017706      0.049858
     4   Atom        0.358017      0.763054      0.504248
     5   Atom        0.112944      0.689575      0.328635
     6   Atom       -0.006182      0.039915     -0.091578
 --------------------------------------------------------


 ---------------------------------------------------------------------------------
              Anisotropic Spin Dipole Couplings in Principal Axis System
 ---------------------------------------------------------------------------------

       Atom             a.u.   MegaHertz   Gauss  10(-4) cm-1        Axes

              Baa    -0.1171    -4.802    -1.714    -1.602  0.5397  0.7668  0.3474
     1 S(33)  Bbb    -0.0505    -2.069    -0.738    -0.690 -0.5862  0.6385 -0.4987
              Bcc     0.1676     6.871     2.452     2.292 -0.6042  0.0655  0.7941
 
              Baa    -0.4118   -16.885    -6.025    -5.632  0.3870  0.6994 -0.6009
     2 S(33)  Bbb     0.1895     7.769     2.772     2.592 -0.4669  0.7106  0.5263
              Bcc     0.2223     9.116     3.253     3.041  0.7951  0.0769  0.6015
 
              Baa    -0.0842    -3.452    -1.232    -1.152 -0.0462 -0.4327  0.9004
     3 S(33)  Bbb     0.0134     0.548     0.196     0.183  0.7008 -0.6563 -0.2794
              Bcc     0.0708     2.904     1.036     0.969  0.7118  0.6181  0.3336
 
              Baa    -1.6032   -65.731   -23.454   -21.925 -0.6513  0.7583  0.0281
     4 S(33)  Bbb    -1.0987   -45.045   -16.073   -15.025  0.7307  0.6367 -0.2464
              Bcc     2.7019   110.776    39.527    36.951  0.2047  0.1399  0.9688
 
              Baa    -1.1086   -45.450   -16.218   -15.160  0.7580 -0.6442 -0.1018
     5 S(33)  Bbb    -1.0339   -42.388   -15.125   -14.139  0.6132  0.7571 -0.2253
              Bcc     2.1424    87.838    31.343    29.300  0.2222  0.1084  0.9690
 
              Baa    -0.1100    -4.511    -1.610    -1.505 -0.2550  0.5095  0.8218
     6 S(33)  Bbb     0.0061     0.250     0.089     0.084  0.9253  0.3754  0.0543
              Bcc     0.1039     4.261     1.520     1.421 -0.2808  0.7743 -0.5671
 

 ---------------------------------------------------------------------------------

 No NMR shielding tensors so no spin-rotation constants.
 Leave Link  601 at Mon Oct 24 00:22:01 2016, MaxMem=    33554432 cpu:         2.4
 (Enter /home/proyectos/fulerenos/M3C-v2.0/M3C-deps_CCC/g09-AM64L-G09RevC.01/l701.exe)
 Compute integral second derivatives.
 ... and contract with generalized density number  0.
 Leave Link  701 at Mon Oct 24 00:22:01 2016, MaxMem=    33554432 cpu:         1.7
 (Enter /home/proyectos/fulerenos/M3C-v2.0/M3C-deps_CCC/g09-AM64L-G09RevC.01/l702.exe)
 L702 exits ... SP integral derivatives will be done elsewhere.
 Leave Link  702 at Mon Oct 24 00:22:01 2016, MaxMem=    33554432 cpu:         0.1
 (Enter /home/proyectos/fulerenos/M3C-v2.0/M3C-deps_CCC/g09-AM64L-G09RevC.01/l703.exe)
 Compute integral second derivatives, UseDBF=F ICtDFT=           0.
 Integral derivatives from FoFJK, PRISM(SPDF).
 Calling FoFJK, ICntrl=    100127 FMM=F ISym2X=0 I1Cent= 0 IOpClX= 1 NMat=1 NMatS=1 NMatT=0.
 FoFJK:  IHMeth= 1 ICntrl=  100127 DoSepK=F KAlg= 0 I1Cent=   0 FoldK=F
 IRaf=         0 NMat=   1 IRICut=       1 DoRegI=T DoRafI=F ISym2E= 0.
 FoFCou: FMM=F IPFlag=           0 FMFlag=      100000 FMFlg1=         800
         NFxFlg=           0 DoJE=F BraDBF=F KetDBF=F FulRan=T
         wScrn=  0.000000 ICntrl=  100127 IOpCl=  1 I1Cent=           0 NGrid=           0
         NMat0=    1 NMatS0=      1 NMatT0=    0 NMatD0=    1 NMtDS0=    0 NMtDT0=    0
 Symmetry not used in FoFCou.
 Leave Link  703 at Mon Oct 24 00:24:40 2016, MaxMem=    33554432 cpu:       635.7
 (Enter /home/proyectos/fulerenos/M3C-v2.0/M3C-deps_CCC/g09-AM64L-G09RevC.01/l716.exe)
 Dipole        =-2.81877579D-01-3.56866140D-02 2.58620506D-02
 Polarizability= 2.02133564D+02-5.63045191D+00 1.26054380D+02
                 1.69654378D+00-1.90506124D-02 7.62733825D+01
 Full mass-weighted force constant matrix:
 Low frequencies ---   -3.9675   -0.0007    0.0016    0.0016    6.8999    7.0768
 Low frequencies ---   59.4250   69.1444  122.9354
 Diagonal vibrational polarizability:
       30.6305436       2.6710716       1.1100888
 Harmonic frequencies (cm**-1), IR intensities (KM/Mole), Raman scattering
 activities (A**4/AMU), depolarization ratios for plane and unpolarized
 incident light, reduced masses (AMU), force constants (mDyne/A),
 and normal coordinates:
                      1                      2                      3
                      A                      A                      A
 Frequencies --     59.4169                69.1418               122.9341
 Red. masses --     31.9721                31.9721                31.9721
 Frc consts  --      0.0665                 0.0901                 0.2847
 IR Inten    --      0.0089                 3.0738                 0.5910
  Atom  AN      X      Y      Z        X      Y      Z        X      Y      Z
     1  16    -0.08  -0.12  -0.06    -0.16   0.07   0.07    -0.23   0.26   0.46
     2  16    -0.03   0.06   0.32    -0.42  -0.44   0.14     0.01   0.22   0.32
     3  16     0.11  -0.01  -0.04    -0.19   0.03  -0.08     0.16  -0.29  -0.32
     4  16    -0.20  -0.11  -0.57     0.58   0.22  -0.06     0.05   0.13   0.07
     5  16     0.14   0.08   0.61     0.26  -0.10   0.04    -0.17  -0.09  -0.17
     6  16     0.07   0.10  -0.26    -0.06   0.22  -0.10     0.18  -0.22  -0.37
                      4                      5                      6
                      A                      A                      A
 Frequencies --    157.1054               177.9108               200.8234
 Red. masses --     31.9721                31.9721                31.9721
 Frc consts  --      0.4649                 0.5962                 0.7597
 IR Inten    --      4.9999                 0.3924                 0.9898
  Atom  AN      X      Y      Z        X      Y      Z        X      Y      Z
     1  16    -0.00   0.03   0.13     0.07   0.13   0.21    -0.28  -0.02   0.10
     2  16    -0.07  -0.32   0.11    -0.08   0.16  -0.08     0.47  -0.27  -0.16
     3  16     0.32   0.56  -0.24    -0.36  -0.27   0.29     0.25  -0.19   0.31
     4  16    -0.25  -0.35   0.19    -0.11  -0.41  -0.07     0.04   0.23  -0.13
     5  16    -0.10  -0.22  -0.10     0.18  -0.09  -0.21    -0.29  -0.15  -0.00
     6  16     0.10   0.29  -0.09     0.31   0.48  -0.13    -0.19   0.40  -0.12
                      7                      8                      9
                      A                      A                      A
 Frequencies --    263.9632               296.9610               411.4996
 Red. masses --     31.9721                31.9721                31.9721
 Frc consts  --      1.3125                 1.6612                 3.1898
 IR Inten    --      0.3573                 9.4830                 6.6545
  Atom  AN      X      Y      Z        X      Y      Z        X      Y      Z
     1  16    -0.18   0.69  -0.16    -0.45  -0.36   0.20    -0.28   0.08  -0.06
     2  16     0.15  -0.08  -0.03     0.09  -0.07  -0.00     0.06  -0.10  -0.09
     3  16     0.10  -0.09   0.03     0.11  -0.00  -0.02    -0.16   0.41   0.51
     4  16    -0.03  -0.33   0.05    -0.06  -0.14   0.08     0.02   0.06  -0.00
     5  16     0.34  -0.04   0.10     0.40   0.58  -0.25     0.00  -0.04  -0.00
     6  16    -0.39  -0.15   0.01    -0.09  -0.00   0.00     0.36  -0.42  -0.35
                     10                     11                     12
                      A                      A                      A
 Frequencies --    536.1522               629.7270               707.7342
 Red. masses --     31.9721                31.9721                31.9721
 Frc consts  --      5.4150                 7.4701                 9.4354
 IR Inten    --      8.3397                 2.3864                83.9477
  Atom  AN      X      Y      Z        X      Y      Z        X      Y      Z
     1  16    -0.51   0.11  -0.38    -0.08  -0.06  -0.03    -0.02   0.01   0.00
     2  16     0.00   0.03   0.04    -0.01   0.01   0.01    -0.61   0.16  -0.29
     3  16     0.06  -0.13  -0.17     0.01  -0.05  -0.04     0.63  -0.15   0.31
     4  16     0.07  -0.07  -0.00    -0.50   0.50   0.07     0.00  -0.00  -0.00
     5  16    -0.14  -0.04   0.05     0.53  -0.43  -0.08    -0.00  -0.00   0.00
     6  16     0.52   0.10   0.47     0.06   0.03   0.08     0.01  -0.02  -0.02

 -------------------
 - Thermochemistry -
 -------------------
 Temperature   298.150 Kelvin.  Pressure   1.00000 Atm.
 Atom     1 has atomic number 16 and mass  31.97207
 Atom     2 has atomic number 16 and mass  31.97207
 Atom     3 has atomic number 16 and mass  31.97207
 Atom     4 has atomic number 16 and mass  31.97207
 Atom     5 has atomic number 16 and mass  31.97207
 Atom     6 has atomic number 16 and mass  31.97207
 Molecular mass:   191.83243 amu.
 Principal axes and moments of inertia in atomic units:
                           1         2         3
     Eigenvalues --  1011.950072334.905663133.51416
           X            1.00000  -0.00000   0.00000
           Y            0.00000   1.00000   0.00000
           Z           -0.00000  -0.00000   1.00000
 This molecule is an asymmetric top.
 Rotational symmetry number  1.
 Warning -- assumption of classical behavior for rotation
           may cause significant error
 Rotational temperatures (Kelvin)      0.08559     0.03710     0.02764
 Rotational constants (GHZ):           1.78343     0.77294     0.57595
 Zero-point vibrational energy      21732.4 (Joules/Mol)
                                    5.19416 (Kcal/Mol)
 Warning -- explicit consideration of  10 degrees of freedom as
           vibrations may cause significant error
 Vibrational temperatures:     85.49    99.48   176.87   226.04   255.97
          (Kelvin)            288.94   379.78   427.26   592.06   771.40
                              906.04  1018.27
 
 Zero-point correction=                           0.008277 (Hartree/Particle)
 Thermal correction to Energy=                    0.016841
 Thermal correction to Enthalpy=                  0.017785
 Thermal correction to Gibbs Free Energy=        -0.028517
 Sum of electronic and zero-point Energies=          -2389.033981
 Sum of electronic and thermal Energies=             -2389.025418
 Sum of electronic and thermal Enthalpies=           -2389.024473
 Sum of electronic and thermal Free Energies=        -2389.070775
 
                     E (Thermal)             CV                S
                      KCal/Mol        Cal/Mol-Kelvin    Cal/Mol-Kelvin
 Total                   10.568             25.255             97.451
 Electronic               0.000              0.000              1.377
 Translational            0.889              2.981             41.660
 Rotational               0.889              2.981             30.383
 Vibrational              8.790             19.293             24.031
 Vibration     1          0.597              1.974              4.476
 Vibration     2          0.598              1.969              4.178
 Vibration     3          0.610              1.930              3.054
 Vibration     4          0.621              1.895              2.584
 Vibration     5          0.628              1.870              2.350
 Vibration     6          0.638              1.839              2.126
 Vibration     7          0.671              1.739              1.635
 Vibration     8          0.691              1.679              1.434
 Vibration     9          0.775              1.445              0.921
 Vibration    10          0.891              1.170              0.574
                       Q            Log10(Q)             Ln(Q)
 Total Bot       0.130844D+14         13.116754         30.202441
 Total V=0       0.839647D+17         16.924097         38.969172
 Vib (Bot)       0.643145D-01         -1.191691         -2.743970
 Vib (Bot)    1  0.347572D+01          0.541045          1.245803
 Vib (Bot)    2  0.298324D+01          0.474688          1.093010
 Vib (Bot)    3  0.166119D+01          0.220420          0.507535
 Vib (Bot)    4  0.128795D+01          0.109899          0.253052
 Vib (Bot)    5  0.112975D+01          0.052982          0.121997
 Vib (Bot)    6  0.992576D+00         -0.003236         -0.007452
 Vib (Bot)    7  0.734386D+00         -0.134076         -0.308721
 Vib (Bot)    8  0.641501D+00         -0.192803         -0.443944
 Vib (Bot)    9  0.429462D+00         -0.367075         -0.845222
 Vib (Bot)   10  0.296578D+00         -0.527861         -1.215446
 Vib (V=0)       0.412717D+03          2.615652          6.022761
 Vib (V=0)    1  0.401150D+01          0.603307          1.389166
 Vib (V=0)    2  0.352485D+01          0.547141          1.259838
 Vib (V=0)    3  0.223481D+01          0.349240          0.804155
 Vib (V=0)    4  0.188160D+01          0.274527          0.632122
 Vib (V=0)    5  0.173545D+01          0.239412          0.551267
 Vib (V=0)    6  0.161140D+01          0.207203          0.477103
 Vib (V=0)    7  0.138844D+01          0.142527          0.328179
 Vib (V=0)    8  0.131334D+01          0.118378          0.272574
 Vib (V=0)    9  0.115912D+01          0.064128          0.147660
 Vib (V=0)   10  0.108134D+01          0.033963          0.078203
 Electronic      0.200000D+01          0.301030          0.693147
 Translational   0.104433D+09          8.018838         18.464057
 Rotational      0.974039D+06          5.988576         13.789207
 
                                                              b3lyp opt
                                                             IR Spectrum
 
                                                                                                                                     
     7             6                5                      4                   2     2          2    1  1     1                      
     0             3                3                      1                   9     6          0    7  5     2         6 5          
     8             0                6                      1                   7     4          1    8  7     3         9 9          
 
     X             X                X                      X                   X     X          X    X  X     X         X            
     X                              X                      X                   X                                                     
     X                                                                                                                               
     X                                                                                                                               
     X                                                                                                                               
     X                                                                                                                               
     X                                                                                                                               
     X                                                                                                                               
     X                                                                                                                               
     X                                                                                                                               
     X                                                                                                                               
     X                                                                                                                               
     X                                                                                                                               
     X                                                                                                                               
     X                                                                                                                               
     X                                                                                                                               
     X                                                                                                                               
     X                                                                                                                               
     X                                                                                                                               
     X                                                                                                                               
 
 ***** Axes restored to original set *****
 -------------------------------------------------------------------
 Center     Atomic                   Forces (Hartrees/Bohr)
 Number     Number              X              Y              Z
 -------------------------------------------------------------------
      1       16           0.000119820    0.000104586   -0.000043821
      2       16           0.000022043   -0.000018825   -0.000069001
      3       16          -0.000023326   -0.000062855    0.000039422
      4       16           0.000014364    0.000076404    0.000006165
      5       16          -0.000043259   -0.000102666    0.000029563
      6       16          -0.000089642    0.000003355    0.000037672
 -------------------------------------------------------------------
 Cartesian Forces:  Max     0.000119820 RMS     0.000061328
 Z-matrix is all fixed cartesians, so copy forces.
 Force constants in Cartesian coordinates: 
                1             2             3             4             5 
      1  0.625895D-01
      2  0.320436D-01  0.646454D-01
      3  0.585658D-01  0.192076D-01  0.140810D+00
      4 -0.273121D-02  0.295739D-02  0.405696D-02  0.618749D-01
      5  0.183972D-03 -0.180330D-02 -0.346547D-02  0.392645D-01  0.422251D-01
      6 -0.998863D-03 -0.707993D-02 -0.511381D-02  0.980325D-01  0.889659D-01
      7  0.173295D-01 -0.689926D-02 -0.832032D-03 -0.796306D-01 -0.381605D-01
      8 -0.787827D-02 -0.693575D-02 -0.656502D-02 -0.384810D-01 -0.410001D-01
      9 -0.404138D-02 -0.769769D-02 -0.198417D-01 -0.100668D+00 -0.768805D-01
     10 -0.805561D-02 -0.102170D-01  0.561200D-02  0.825925D-03 -0.103470D-02
     11 -0.251262D-02  0.512254D-02  0.457140D-02 -0.122011D-02  0.228846D-02
     12  0.155678D-01  0.231016D-01 -0.205786D-01 -0.123742D-02 -0.652588D-03
     13  0.281937D-02  0.331280D-02 -0.991422D-03 -0.381480D-03  0.581640D-03
     14  0.627530D-02 -0.363598D-01  0.173024D-01 -0.270382D-03  0.117875D-02
     15 -0.920969D-02  0.155540D-03 -0.136800D-01  0.992525D-03 -0.198803D-02
     16 -0.719515D-01 -0.211975D-01 -0.664113D-01  0.200425D-01 -0.834953D-03
     17 -0.281119D-01 -0.246691D-01 -0.310509D-01 -0.225038D-02 -0.288898D-02
     18 -0.598837D-01 -0.276871D-01 -0.815955D-01 -0.117687D-02 -0.597939D-02
                6             7             8             9            10 
      6  0.226060D+00
      7 -0.969138D-01  0.157194D+00
      8 -0.796098D-01  0.240239D-01  0.639745D-01
      9 -0.207204D+00  0.773574D-01  0.903929D-01  0.243410D+00
     10  0.499407D-03 -0.226896D-02  0.265075D-02 -0.155633D-02  0.258723D-01
     11  0.929640D-03  0.726133D-02 -0.650317D-02 -0.389320D-03 -0.729198D-02
     12  0.248299D-02  0.597405D-02  0.272068D-02 -0.433841D-02 -0.686495D-01
     13  0.123020D-02  0.125505D-02  0.243983D-02 -0.779322D-04 -0.180282D-01
     14  0.195527D-02 -0.163226D-02 -0.179680D-02  0.348078D-03  0.166168D-01
     15 -0.399458D-02 -0.967680D-02 -0.524939D-02  0.328497D-02  0.566204D-01
     16 -0.184939D-02 -0.938786D-01  0.172448D-01  0.289859D-01  0.165453D-02
     17 -0.516110D-02  0.154068D-01 -0.773872D-02 -0.577352D-02 -0.723845D-03
     18 -0.122311D-01  0.240912D-01 -0.168937D-02 -0.153115D-01  0.747401D-02
               11            12            13            14            15 
     11  0.292141D-01
     12  0.364001D-01  0.222445D+00
     13  0.103364D-01  0.579030D-01  0.247769D-01
     14 -0.331596D-01 -0.583063D-01 -0.205602D-02  0.896971D-01
     15 -0.479416D-01 -0.196922D+00 -0.535364D-01  0.566459D-01  0.206422D+00
     16 -0.657299D-02 -0.955800D-02 -0.104416D-01 -0.189334D-01  0.148100D-01
     17  0.303773D-02 -0.326344D-02 -0.146146D-01 -0.195596D-01 -0.162246D-02
     18  0.642979D-02 -0.308902D-02 -0.452745D-02 -0.179454D-01  0.488990D-02
               16            17            18 
     16  0.154575D+00
     17  0.302940D-01  0.518186D-01
     18  0.340228D-01  0.468714D-01  0.107337D+00
 Leave Link  716 at Mon Oct 24 00:24:40 2016, MaxMem=    33554432 cpu:         0.1
 (Enter /home/proyectos/fulerenos/M3C-v2.0/M3C-deps_CCC/g09-AM64L-G09RevC.01/l103.exe)

 GradGradGradGradGradGradGradGradGradGradGradGradGradGradGradGradGradGrad
 Berny optimization.
 Search for a local minimum.
 Step number   1 out of a maximum of    2
 All quantities printed in internal units (Hartrees-Bohrs-Radians)
 Second derivative matrix not updated -- analytic derivatives used.
 The second derivative matrix:
                          X1        Y1        Z1        X2        Y2
           X1           0.06259
           Y1           0.03204   0.06465
           Z1           0.05857   0.01921   0.14081
           X2          -0.00273   0.00296   0.00406   0.06187
           Y2           0.00018  -0.00180  -0.00347   0.03926   0.04223
           Z2          -0.00100  -0.00708  -0.00511   0.09803   0.08897
           X3           0.01733  -0.00690  -0.00083  -0.07963  -0.03816
           Y3          -0.00788  -0.00694  -0.00657  -0.03848  -0.04100
           Z3          -0.00404  -0.00770  -0.01984  -0.10067  -0.07688
           X4          -0.00806  -0.01022   0.00561   0.00083  -0.00103
           Y4          -0.00251   0.00512   0.00457  -0.00122   0.00229
           Z4           0.01557   0.02310  -0.02058  -0.00124  -0.00065
           X5           0.00282   0.00331  -0.00099  -0.00038   0.00058
           Y5           0.00628  -0.03636   0.01730  -0.00027   0.00118
           Z5          -0.00921   0.00016  -0.01368   0.00099  -0.00199
           X6          -0.07195  -0.02120  -0.06641   0.02004  -0.00083
           Y6          -0.02811  -0.02467  -0.03105  -0.00225  -0.00289
           Z6          -0.05988  -0.02769  -0.08160  -0.00118  -0.00598
                          Z2        X3        Y3        Z3        X4
           Z2           0.22606
           X3          -0.09691   0.15719
           Y3          -0.07961   0.02402   0.06397
           Z3          -0.20720   0.07736   0.09039   0.24341
           X4           0.00050  -0.00227   0.00265  -0.00156   0.02587
           Y4           0.00093   0.00726  -0.00650  -0.00039  -0.00729
           Z4           0.00248   0.00597   0.00272  -0.00434  -0.06865
           X5           0.00123   0.00126   0.00244  -0.00008  -0.01803
           Y5           0.00196  -0.00163  -0.00180   0.00035   0.01662
           Z5          -0.00399  -0.00968  -0.00525   0.00328   0.05662
           X6          -0.00185  -0.09388   0.01724   0.02899   0.00165
           Y6          -0.00516   0.01541  -0.00774  -0.00577  -0.00072
           Z6          -0.01223   0.02409  -0.00169  -0.01531   0.00747
                          Y4        Z4        X5        Y5        Z5
           Y4           0.02921
           Z4           0.03640   0.22245
           X5           0.01034   0.05790   0.02478
           Y5          -0.03316  -0.05831  -0.00206   0.08970
           Z5          -0.04794  -0.19692  -0.05354   0.05665   0.20642
           X6          -0.00657  -0.00956  -0.01044  -0.01893   0.01481
           Y6           0.00304  -0.00326  -0.01461  -0.01956  -0.00162
           Z6           0.00643  -0.00309  -0.00453  -0.01795   0.00489
                          X6        Y6        Z6
           X6           0.15457
           Y6           0.03029   0.05182
           Z6           0.03402   0.04687   0.10734
 ITU=  0
     Eigenvalues ---    0.00427   0.00578   0.01829   0.02986   0.03830
     Eigenvalues ---    0.04880   0.08430   0.10670   0.20488   0.34781
     Eigenvalues ---    0.47981   0.60604
 Angle between quadratic step and forces=  50.55 degrees.
 Linear search not attempted -- first point.
 B after Tr=     0.000000   -0.000000    0.000000
         Rot=    1.000000    0.000000    0.000000    0.000000 Ang=   0.00 deg.
 Variable       Old X    -DE/DX   Delta X   Delta X   Delta X     New X
                                 (Linear)    (Quad)   (Total)
    X1       -0.38528   0.00012   0.00000   0.00441   0.00441  -0.38087
    Y1       -0.27358   0.00010   0.00000  -0.00058  -0.00058  -0.27416
    Z1       -1.65431  -0.00004   0.00000  -0.00268  -0.00268  -1.65700
    X2        0.57632   0.00002   0.00000   0.00045   0.00045   0.57677
    Y2        3.59944  -0.00002   0.00000  -0.00264  -0.00264   3.59680
    Z2        6.64429  -0.00007   0.00000  -0.00111  -0.00111   6.64319
    X3       -0.91675  -0.00002   0.00000  -0.00345  -0.00345  -0.92020
    Y3        2.40184  -0.00006   0.00000  -0.00223  -0.00223   2.39961
    Z3        3.65509   0.00004   0.00000   0.00073   0.00073   3.65582
    X4       -2.54401   0.00001   0.00000   0.00445   0.00445  -2.53956
    Y4       -3.07245   0.00008   0.00000   0.00460   0.00460  -3.06784
    Z4        3.57418   0.00001   0.00000   0.00170   0.00170   3.57587
    X5       -1.53121  -0.00004   0.00000  -0.00366  -0.00366  -1.53487
    Y5       -3.89528  -0.00010   0.00000   0.00019   0.00019  -3.89509
    Z5        0.17550   0.00003   0.00000   0.00051   0.00051   0.17600
    X6        1.86282  -0.00009   0.00000  -0.00221  -0.00221   1.86062
    Y6        1.24063   0.00000   0.00000   0.00066   0.00066   1.24129
    Z6        0.96871   0.00004   0.00000   0.00086   0.00086   0.96957
         Item               Value     Threshold  Converged?
 Maximum Force            0.000120     0.000450     YES
 RMS     Force            0.000061     0.000300     YES
 Maximum Displacement     0.004602     0.001800     NO 
 RMS     Displacement     0.002542     0.001200     NO 
 Predicted change in Energy=-8.915005D-07
 GradGradGradGradGradGradGradGradGradGradGradGradGradGradGradGradGradGrad

 Leave Link  103 at Mon Oct 24 00:24:40 2016, MaxMem=    33554432 cpu:         0.1
 (Enter /home/proyectos/fulerenos/M3C-v2.0/M3C-deps_CCC/g09-AM64L-G09RevC.01/l9999.exe)
 1\1\GINC-BELVIS20\Freq\UB3LYP\6-311++G(3df,2p)\S6(1+,2)\ROOT\24-Oct-20
 16\0\\#p b3lyp/6-311++G(3df,2p) freq symmetry=Loose\\b3lyp opt\\1,2\S,
 -0.203882,-0.144774,-0.875424\S,0.304975,1.904742,3.516008\S,-0.485122
 ,1.270999,1.934188\S,-1.346233,-1.625868,1.891372\S,-0.810282,-2.06129
 3,0.092868\S,0.985763,0.656513,0.512621\\Version=EM64L-G09RevE.01\Stat
 e=2-A\HF=-2389.0422587\S2=0.769948\S2-1=0.\S2A=0.75019\RMSD=6.683e-09\
 RMSF=6.133e-05\ZeroPoint=0.0082774\Thermal=0.0168411\Dipole=0.0535094,
 0.2357676,0.1514851\DipoleDeriv=0.0918408,-0.1499618,-0.1662701,-0.042
 5453,-0.1436335,-0.1137303,0.1046546,-0.0718423,0.0177838,0.1029893,-0
 .2887072,-0.3305991,-0.0234653,-0.0331579,-0.2198129,-0.0698618,-0.590
 7925,-0.4418954,0.3522182,0.2471366,0.1403845,0.1149411,0.8038336,0.54
 1166,-0.0160703,0.6948949,1.0796039,0.1082877,-0.078407,-0.0237308,-0.
 1090383,-0.163718,-0.2161023,0.0535711,0.1793189,0.0572755,0.1684954,0
 .0676558,-0.0542346,0.0299051,0.3912326,-0.0086318,-0.1074148,-0.28275
 35,0.1933877,0.1761686,0.2022836,0.4344501,0.0302027,0.1454432,0.01711
 14,0.0351212,0.0711745,0.0938444\Polar=93.0446787,29.3542209,150.55507
 02,-0.5933338,43.0687897,160.8615781\PG=C01 [X(S6)]\NImag=0\\0.0625895
 2,0.03204357,0.06464542,0.05856580,0.01920758,0.14080953,-0.00273121,0
 .00295739,0.00405696,0.06187489,0.00018397,-0.00180330,-0.00346547,0.0
 3926452,0.04222512,-0.00099886,-0.00707993,-0.00511381,0.09803249,0.08
 896594,0.22606014,0.01732946,-0.00689926,-0.00083203,-0.07963064,-0.03
 816048,-0.09691384,0.15719374,-0.00787827,-0.00693575,-0.00656502,-0.0
 3848103,-0.04100005,-0.07960982,0.02402390,0.06397449,-0.00404138,-0.0
 0769769,-0.01984171,-0.10066768,-0.07688046,-0.20720366,0.07735743,0.0
 9039291,0.24341026,-0.00805561,-0.01021701,0.00561200,0.00082593,-0.00
 103470,0.00049941,-0.00226896,0.00265075,-0.00155633,0.02587234,-0.002
 51262,0.00512254,0.00457140,-0.00122011,0.00228846,0.00092964,0.007261
 33,-0.00650317,-0.00038932,-0.00729198,0.02921406,0.01556785,0.0231015
 9,-0.02057856,-0.00123742,-0.00065259,0.00248299,0.00597405,0.00272068
 ,-0.00433841,-0.06864952,0.03640010,0.22244504,0.00281937,0.00331280,-
 0.00099142,-0.00038148,0.00058164,0.00123020,0.00125505,0.00243983,-0.
 00007793,-0.01802822,0.01033638,0.05790304,0.02477686,0.00627530,-0.03
 635985,0.01730243,-0.00027038,0.00117875,0.00195527,-0.00163226,-0.001
 79680,0.00034808,0.01661678,-0.03315962,-0.05830634,-0.00205602,0.0896
 9713,-0.00920969,0.00015554,-0.01367996,0.00099253,-0.00198803,-0.0039
 9458,-0.00967680,-0.00524939,0.00328497,0.05662043,-0.04794161,-0.1969
 2205,-0.05353644,0.05664595,0.20642171,-0.07195152,-0.02119750,-0.0664
 1131,0.02004251,-0.00083495,-0.00184939,-0.09387865,0.01724484,0.02898
 589,0.00165453,-0.00657299,-0.00955800,-0.01044158,-0.01893342,0.01480
 997,0.15457471,-0.02811194,-0.02466906,-0.03105092,-0.00225038,-0.0028
 8898,-0.00516110,0.01540676,-0.00773872,-0.00577352,-0.00072385,0.0030
 3773,-0.00326344,-0.01461462,-0.01955962,-0.00162246,0.03029403,0.0518
 1864,-0.05988371,-0.02768709,-0.08159549,-0.00117687,-0.00597939,-0.01
 223109,0.02409119,-0.00168937,-0.01531145,0.00747401,0.00642979,-0.003
 08902,-0.00452745,-0.01794539,0.00488990,0.03402283,0.04687145,0.10733
 716\\-0.00011982,-0.00010459,0.00004382,-0.00002204,0.00001882,0.00006
 900,0.00002333,0.00006285,-0.00003942,-0.00001436,-0.00007640,-0.00000
 617,0.00004326,0.00010267,-0.00002956,0.00008964,-0.00000335,-0.000037
 67\\\@


 NEVER TEACH A PIG TO SING.
 IT WASTES YOUR TIME AND ANNOYS THE PIG.
     -- SEEN ON A GREETING CARD
 Job cpu time:       0 days  1 hours 57 minutes 44.3 seconds.
 File lengths (MBytes):  RWF=    127 Int=      0 D2E=      0 Chk=      7 Scr=      1
 Normal termination of Gaussian 09 at Mon Oct 24 00:24:40 2016.
