 Entering Gaussian System, Link 0=/home/proyectos/fulerenos/M3C-v2.0/M3C-deps_CCC/g09-AM64L-G09RevC.01/g09
 Initial command:
 /home/proyectos/fulerenos/M3C-v2.0/M3C-deps_CCC/g09-AM64L-G09RevC.01/l1.exe "/scratch/naguirre/gaussian/Gau-10838.inp" -scrdir="/scratch/naguirre/gaussian/"
 Entering Link 1 = /home/proyectos/fulerenos/M3C-v2.0/M3C-deps_CCC/g09-AM64L-G09RevC.01/l1.exe PID=     10845.
  
 Copyright (c) 1988,1990,1992,1993,1995,1998,2003,2009,2015,
            Gaussian, Inc.  All Rights Reserved.
  
 This is part of the Gaussian(R) 09 program.  It is based on
 the Gaussian(R) 03 system (copyright 2003, Gaussian, Inc.),
 the Gaussian(R) 98 system (copyright 1998, Gaussian, Inc.),
 the Gaussian(R) 94 system (copyright 1995, Gaussian, Inc.),
 the Gaussian 92(TM) system (copyright 1992, Gaussian, Inc.),
 the Gaussian 90(TM) system (copyright 1990, Gaussian, Inc.),
 the Gaussian 88(TM) system (copyright 1988, Gaussian, Inc.),
 the Gaussian 86(TM) system (copyright 1986, Carnegie Mellon
 University), and the Gaussian 82(TM) system (copyright 1983,
 Carnegie Mellon University). Gaussian is a federally registered
 trademark of Gaussian, Inc.
  
 This software contains proprietary and confidential information,
 including trade secrets, belonging to Gaussian, Inc.
  
 This software is provided under written license and may be
 used, copied, transmitted, or stored only in accord with that
 written license.
  
 The following legend is applicable only to US Government
 contracts under FAR:
  
                    RESTRICTED RIGHTS LEGEND
  
 Use, reproduction and disclosure by the US Government is
 subject to restrictions as set forth in subparagraphs (a)
 and (c) of the Commercial Computer Software - Restricted
 Rights clause in FAR 52.227-19.
  
 Gaussian, Inc.
 340 Quinnipiac St., Bldg. 40, Wallingford CT 06492
  
  
 ---------------------------------------------------------------
 Warning -- This program may not be used in any manner that
 competes with the business of Gaussian, Inc. or will provide
 assistance to any competitor of Gaussian, Inc.  The licensee
 of this program is prohibited from giving any competitor of
 Gaussian, Inc. access to this program.  By using this program,
 the user acknowledges that Gaussian, Inc. is engaged in the
 business of creating and licensing software in the field of
 computational chemistry and represents and warrants to the
 licensee that it is not a competitor of Gaussian, Inc. and that
 it will not use this program in any manner prohibited above.
 ---------------------------------------------------------------
  

 Cite this work as:
 Gaussian 09, Revision E.01,
 M. J. Frisch, G. W. Trucks, H. B. Schlegel, G. E. Scuseria, 
 M. A. Robb, J. R. Cheeseman, G. Scalmani, V. Barone, B. Mennucci, 
 G. A. Petersson, H. Nakatsuji, M. Caricato, X. Li, H. P. Hratchian, 
 A. F. Izmaylov, J. Bloino, G. Zheng, J. L. Sonnenberg, M. Hada, 
 M. Ehara, K. Toyota, R. Fukuda, J. Hasegawa, M. Ishida, T. Nakajima, 
 Y. Honda, O. Kitao, H. Nakai, T. Vreven, J. A. Montgomery, Jr., 
 J. E. Peralta, F. Ogliaro, M. Bearpark, J. J. Heyd, E. Brothers, 
 K. N. Kudin, V. N. Staroverov, T. Keith, R. Kobayashi, J. Normand, 
 K. Raghavachari, A. Rendell, J. C. Burant, S. S. Iyengar, J. Tomasi, 
 M. Cossi, N. Rega, J. M. Millam, M. Klene, J. E. Knox, J. B. Cross, 
 V. Bakken, C. Adamo, J. Jaramillo, R. Gomperts, R. E. Stratmann, 
 O. Yazyev, A. J. Austin, R. Cammi, C. Pomelli, J. W. Ochterski, 
 R. L. Martin, K. Morokuma, V. G. Zakrzewski, G. A. Voth, 
 P. Salvador, J. J. Dannenberg, S. Dapprich, A. D. Daniels, 
 O. Farkas, J. B. Foresman, J. V. Ortiz, J. Cioslowski, 
 and D. J. Fox, Gaussian, Inc., Wallingford CT, 2013.
 
 ******************************************
 Gaussian 09:  EM64L-G09RevE.01 30-Nov-2015
                24-Oct-2016 
 ******************************************
 %NProcShared=4
 Will use up to    4 processors via shared memory.
 ---------------------------------------------
 #p b3lyp/6-311++G(3df,2p) freq symmetry=Loose
 ---------------------------------------------
 1/10=4,30=1,38=1/1,3;
 2/12=2,17=4,18=3,40=1/2;
 3/5=4,6=6,7=1216,11=2,16=1,25=1,30=1,71=2,74=-5,140=1/1,2,3;
 4//1;
 5/5=2,38=5,98=1/2;
 8/6=4,10=90,11=11/1;
 11/6=1,8=1,9=11,15=111,16=1/1,2,10;
 10/6=1/2;
 6/7=2,8=2,9=2,10=2,18=1,28=1/1;
 7/8=1,10=1,25=1/1,2,3,16;
 1/10=4,30=1/3;
 99//99;
 Leave Link    1 at Mon Oct 24 01:28:47 2016, MaxMem=           0 cpu:         0.2
 (Enter /home/proyectos/fulerenos/M3C-v2.0/M3C-deps_CCC/g09-AM64L-G09RevC.01/l101.exe)
 ---------
 b3lyp opt
 ---------
 Symbolic Z-matrix:
 Charge =  0 Multiplicity = 1
 S                     1.21519   0.51707   0.75436 
 S                    -1.31996   0.88637  -1.26382 
 S                     0.02364  -0.60161   2.04644 
 S                    -1.82905   0.34178   1.91119 
 S                     0.53273  -0.05702  -1.12857 
 S                    -2.51152  -0.23231   0.02827 
 
 NAtoms=      6 NQM=        6 NQMF=       0 NMMI=      0 NMMIF=      0
                NMic=       0 NMicF=      0.
                    Isotopes and Nuclear Properties:
 (Nuclear quadrupole moments (NQMom) in fm**2, nuclear magnetic moments (NMagM)
  in nuclear magnetons)

  Atom         1           2           3           4           5           6
 IAtWgt=          32          32          32          32          32          32
 AtmWgt=  31.9720718  31.9720718  31.9720718  31.9720718  31.9720718  31.9720718
 NucSpn=           0           0           0           0           0           0
 AtZEff=   0.0000000   0.0000000   0.0000000   0.0000000   0.0000000   0.0000000
 NQMom=    0.0000000   0.0000000   0.0000000   0.0000000   0.0000000   0.0000000
 NMagM=    0.0000000   0.0000000   0.0000000   0.0000000   0.0000000   0.0000000
 AtZNuc=  16.0000000  16.0000000  16.0000000  16.0000000  16.0000000  16.0000000
 Leave Link  101 at Mon Oct 24 01:28:47 2016, MaxMem=    33554432 cpu:         0.2
 (Enter /home/proyectos/fulerenos/M3C-v2.0/M3C-deps_CCC/g09-AM64L-G09RevC.01/l103.exe)

 GradGradGradGradGradGradGradGradGradGradGradGradGradGradGradGradGradGrad
 Berny optimization.
 Initialization pass.
 Trust Radius=3.00D-01 FncErr=1.00D-07 GrdErr=1.00D-07
 Number of steps in this run=      2 maximum allowed number of steps=      2.
 GradGradGradGradGradGradGradGradGradGradGradGradGradGradGradGradGradGrad

 Leave Link  103 at Mon Oct 24 01:28:47 2016, MaxMem=    33554432 cpu:         0.1
 (Enter /home/proyectos/fulerenos/M3C-v2.0/M3C-deps_CCC/g09-AM64L-G09RevC.01/l202.exe)
                          Input orientation:                          
 ---------------------------------------------------------------------
 Center     Atomic      Atomic             Coordinates (Angstroms)
 Number     Number       Type             X           Y           Z
 ---------------------------------------------------------------------
      1         16           0        1.215195    0.517068    0.754356
      2         16           0       -1.319961    0.886367   -1.263821
      3         16           0        0.023637   -0.601607    2.046442
      4         16           0       -1.829053    0.341777    1.911188
      5         16           0        0.532730   -0.057018   -1.128567
      6         16           0       -2.511518   -0.232309    0.028265
 ---------------------------------------------------------------------
                    Distance matrix (angstroms):
                    1          2          3          4          5
     1  S    0.000000
     2  S    3.261355   0.000000
     3  S    2.083442   3.870034   0.000000
     4  S    3.261355   3.261355   2.083442   0.000000
     5  S    2.083442   2.083442   3.261355   3.870034   0.000000
     6  S    3.870034   2.083442   3.261355   2.083442   3.261355
                    6
     6  S    0.000000
 Stoichiometry    S6
 Framework group  D3D[3SGD(S2)]
 Deg. of freedom     2
 Full point group                 D3D     NOp  12
 Largest Abelian subgroup         C2H     NOp   4
 Largest concise Abelian subgroup C2H     NOp   4
                         Standard orientation:                         
 ---------------------------------------------------------------------
 Center     Atomic      Atomic             Coordinates (Angstroms)
 Number     Number       Type             X           Y           Z
 ---------------------------------------------------------------------
      1         16           0       -0.000000    1.882944    0.445885
      2         16           0       -1.630677   -0.941472    0.445885
      3         16           0        1.630677    0.941472   -0.445885
      4         16           0        1.630677   -0.941472    0.445885
      5         16           0       -1.630677    0.941472   -0.445885
      6         16           0       -0.000000   -1.882944   -0.445885
 ---------------------------------------------------------------------
 Rotational constants (GHZ):      1.3362474      1.3362474      0.7430540
 Leave Link  202 at Mon Oct 24 01:28:47 2016, MaxMem=    33554432 cpu:         0.1
 (Enter /home/proyectos/fulerenos/M3C-v2.0/M3C-deps_CCC/g09-AM64L-G09RevC.01/l301.exe)
 Standard basis: 6-311++G(3df,2p) (5D, 7F)
 Ernie: Thresh=  0.10000D-02 Tol=  0.10000D-05 Strict=F.
 There are    90 symmetry adapted cartesian basis functions of AG  symmetry.
 There are    69 symmetry adapted cartesian basis functions of BG  symmetry.
 There are    69 symmetry adapted cartesian basis functions of AU  symmetry.
 There are    90 symmetry adapted cartesian basis functions of BU  symmetry.
 There are    79 symmetry adapted basis functions of AG  symmetry.
 There are    62 symmetry adapted basis functions of BG  symmetry.
 There are    62 symmetry adapted basis functions of AU  symmetry.
 There are    79 symmetry adapted basis functions of BU  symmetry.
   282 basis functions,   432 primitive gaussians,   318 cartesian basis functions
    48 alpha electrons       48 beta electrons
       nuclear repulsion energy       744.3720547901 Hartrees.
 IExCor=  402 DFT=T Ex+Corr=B3LYP ExCW=0 ScaHFX=  0.200000
 ScaDFX=  0.800000  0.720000  1.000000  0.810000 ScalE2=  1.000000  1.000000
 IRadAn=      0 IRanWt=     -1 IRanGd=            0 ICorTp=0 IEmpDi=  4
 NAtoms=    6 NActive=    6 NUniq=    1 SFac= 4.00D+00 NAtFMM=   60 NAOKFM=F Big=F
 Integral buffers will be    131072 words long.
 Raffenetti 2 integral format.
 Two-electron integral symmetry is turned on.
 Leave Link  301 at Mon Oct 24 01:28:47 2016, MaxMem=    33554432 cpu:         0.2
 (Enter /home/proyectos/fulerenos/M3C-v2.0/M3C-deps_CCC/g09-AM64L-G09RevC.01/l302.exe)
 NPDir=0 NMtPBC=     1 NCelOv=     1 NCel=       1 NClECP=     1 NCelD=      1
         NCelK=      1 NCelE2=     1 NClLst=     1 CellRange=     0.0.
 One-electron integrals computed using PRISM.
 One-electron integral symmetry used in STVInt
 NBasis=   282 RedAO= T EigKep=  1.26D-04  NBF=    79    62    62    79
 NBsUse=   282 1.00D-06 EigRej= -1.00D+00 NBFU=    79    62    62    79
 Precomputing XC quadrature grid using
 IXCGrd= 4 IRadAn=           0 IRanWt=          -1 IRanGd=           0 AccXCQ= 0.00D+00.
 Generated NRdTot=       0 NPtTot=           0 NUsed=           0 NTot=          32
 NSgBfM=   296   296   296   296   296 MxSgAt=     6 MxSgA2=     6.
 Leave Link  302 at Mon Oct 24 01:28:48 2016, MaxMem=    33554432 cpu:         1.4
 (Enter /home/proyectos/fulerenos/M3C-v2.0/M3C-deps_CCC/g09-AM64L-G09RevC.01/l303.exe)
 DipDrv:  MaxL=1.
 Leave Link  303 at Mon Oct 24 01:28:48 2016, MaxMem=    33554432 cpu:         0.2
 (Enter /home/proyectos/fulerenos/M3C-v2.0/M3C-deps_CCC/g09-AM64L-G09RevC.01/l401.exe)
 ExpMin= 4.05D-02 ExpMax= 9.34D+04 ExpMxC= 3.17D+03 IAcc=2 IRadAn=         4 AccDes= 0.00D+00
 Harris functional with IExCor=  402 and IRadAn=       4 diagonalized for initial guess.
 HarFok:  IExCor=  402 AccDes= 0.00D+00 IRadAn=         4 IDoV= 1 UseB2=F ITyADJ=14
 ICtDFT=  3500011 ScaDFX=  1.000000  1.000000  1.000000  1.000000
 FoFCou: FMM=F IPFlag=           0 FMFlag=      100000 FMFlg1=           0
         NFxFlg=           0 DoJE=T BraDBF=F KetDBF=T FulRan=T
         wScrn=  0.000000 ICntrl=     500 IOpCl=  0 I1Cent=   200000004 NGrid=           0
         NMat0=    1 NMatS0=      1 NMatT0=    0 NMatD0=    1 NMtDS0=    0 NMtDT0=    0
 Petite list used in FoFCou.
 Harris En= -2389.05839521725    
 JPrj=0 DoOrth=F DoCkMO=F.
 Initial guess orbital symmetries:
       Occupied  (EG) (EG) (A2U) (EU) (EU) (A1G) (EG) (EG) (EU)
                 (EU) (A2U) (A1G) (A1U) (EG) (EG) (EU) (EU) (A2G)
                 (A1G) (EU) (EU) (EG) (EG) (A2U) (A2U) (EG) (EG)
                 (A1G) (EU) (EU) (A1G) (EU) (EU) (EG) (EG) (A2U)
                 (A1U) (A1G) (EG) (EG) (EU) (EU) (A2U) (EU) (EU)
                 (EG) (EG) (A1G)
       Virtual   (EG) (EG) (A2U) (EU) (EU) (A2G) (A1G) (EU) (EU)
                 (A2U) (A1G) (EG) (EG) (EG) (EG) (A1U) (A2U) (EU)
                 (EU) (EU) (EU) (A2U) (A1G) (EG) (EG) (A1G) (A2G)
                 (EG) (EG) (EU) (EU) (EG) (EG) (A2U) (EU) (EU)
                 (A1U) (EG) (EG) (EU) (EU) (A2U) (A1G) (EU) (EU)
                 (EG) (EG) (A1G) (A2G) (EU) (EU) (EG) (EG) (A2U)
                 (A1U) (A2U) (A2G) (EG) (EG) (A1G) (EU) (EU) (EG)
                 (EG) (EU) (EU) (A1G) (EG) (EG) (A2U) (A1U) (EU)
                 (EU) (EU) (EU) (EG) (EG) (A1G) (A2G) (EU) (EU)
                 (EU) (EU) (EG) (EG) (A1G) (EG) (EG) (A2U) (EG)
                 (EG) (A1G) (A2U) (A1U) (EU) (EU) (A2G) (A2U) (A1G)
                 (A2U) (EG) (EG) (EU) (EU) (A1U) (EG) (EG) (EU)
                 (EU) (A2G) (EG) (EG) (EU) (EU) (EU) (EU) (EG)
                 (EG) (A1G) (A2G) (A2U) (EU) (EU) (EG) (EG) (A1U)
                 (A1G) (EU) (EU) (EG) (EG) (A2G) (EU) (EU) (A1U)
                 (A2U) (EG) (EG) (A1G) (EU) (EU) (A2U) (EG) (EG)
                 (EU) (EU) (A1G) (EG) (EG) (A1G) (A2U) (EU) (EU)
                 (EG) (EG) (A1U) (A2U) (A1G) (EG) (EG) (EU) (EU)
                 (A1U) (EG) (EG) (EU) (EU) (A2G) (EU) (EU) (A2G)
                 (EG) (EG) (A2U) (EG) (EG) (EU) (EU) (A1G) (A1U)
                 (EG) (EG) (A1G) (A2U) (EU) (EU) (A2G) (A1G) (EU)
                 (EU) (A1U) (EG) (EG) (A2U) (EG) (EG) (EU) (EU)
                 (A2U) (EG) (EG) (EU) (EU) (A2G) (A1G) (A2U) (EU)
                 (EU) (EG) (EG) (EG) (EG) (A2U) (EU) (EU) (A1G)
                 (EU) (EU) (A1G) (A1U) (EG) (EG) (A2U) (EU) (EU)
                 (EG) (EG) (A2G) (A1G) (A2U) (EU) (EU) (EG) (EG)
 The electronic state of the initial guess is 1-A1G.
 Leave Link  401 at Mon Oct 24 01:28:48 2016, MaxMem=    33554432 cpu:         1.7
 (Enter /home/proyectos/fulerenos/M3C-v2.0/M3C-deps_CCC/g09-AM64L-G09RevC.01/l502.exe)
 Closed shell SCF:
 Using DIIS extrapolation, IDIIS=  1040.
 Integral symmetry usage will be decided dynamically.
 IVT=      328042 IEndB=      328042 NGot=    33554432 MDV=    33344473
 LenX=    33344473 LenY=    33242908
 Requested convergence on RMS density matrix=1.00D-08 within 128 cycles.
 Requested convergence on MAX density matrix=1.00D-06.
 Requested convergence on             energy=1.00D-06.
 No special actions if energy rises.
 Fock matrices will be formed incrementally for  20 cycles.

 Cycle   1  Pass 1  IDiag  1:
 FoFJK:  IHMeth= 1 ICntrl=       0 DoSepK=F KAlg= 0 I1Cent=   0 FoldK=F
 IRaf= 880000000 NMat=   1 IRICut=       1 DoRegI=T DoRafI=F ISym2E= 1.
 FoFCou: FMM=F IPFlag=           0 FMFlag=      100000 FMFlg1=           0
         NFxFlg=           0 DoJE=F BraDBF=F KetDBF=F FulRan=T
         wScrn=  0.000000 ICntrl=       0 IOpCl=  0 I1Cent=           0 NGrid=           0
         NMat0=    1 NMatS0=      1 NMatT0=    0 NMatD0=    1 NMtDS0=    0 NMtDT0=    0
 Petite list used in FoFCou.
 E= -2389.35620316157    
 DIIS: error= 1.65D-02 at cycle   1 NSaved=   1.
 NSaved= 1 IEnMin= 1 EnMin= -2389.35620316157     IErMin= 1 ErrMin= 1.65D-02
 ErrMax= 1.65D-02  0.00D+00 EMaxC= 1.00D-01 BMatC= 1.02D-01 BMatP= 1.02D-01
 IDIUse=3 WtCom= 8.35D-01 WtEn= 1.65D-01
 Coeff-Com:  0.100D+01
 Coeff-En:   0.100D+01
 Coeff:      0.100D+01
 Gap=     0.157 Goal=   None    Shift=    0.000
 GapD=    0.157 DampG=1.000 DampE=0.500 DampFc=0.5000 IDamp=-1.
 Damping current iteration by 5.00D-01
 RMSDP=9.09D-04 MaxDP=3.33D-02              OVMax= 3.84D-02

 Cycle   2  Pass 1  IDiag  1:
 RMSU=  4.50D-04    CP:  1.00D+00
 E= -2389.36497372430     Delta-E=       -0.008770562732 Rises=F Damp=T
 DIIS: error= 6.78D-03 at cycle   2 NSaved=   2.
 NSaved= 2 IEnMin= 2 EnMin= -2389.36497372430     IErMin= 2 ErrMin= 6.78D-03
 ErrMax= 6.78D-03  0.00D+00 EMaxC= 1.00D-01 BMatC= 1.70D-02 BMatP= 1.02D-01
 IDIUse=3 WtCom= 9.32D-01 WtEn= 6.78D-02
 Coeff-Com: -0.452D+00 0.145D+01
 Coeff-En:   0.000D+00 0.100D+01
 Coeff:     -0.421D+00 0.142D+01
 Gap=     0.164 Goal=   None    Shift=    0.000
 RMSDP=4.17D-04 MaxDP=7.63D-03 DE=-8.77D-03 OVMax= 3.36D-02

 Cycle   3  Pass 1  IDiag  1:
 RMSU=  3.89D-04    CP:  9.99D-01  7.01D-01
 E= -2389.36792238884     Delta-E=       -0.002948664544 Rises=F Damp=F
 DIIS: error= 5.90D-03 at cycle   3 NSaved=   3.
 NSaved= 3 IEnMin= 3 EnMin= -2389.36792238884     IErMin= 3 ErrMin= 5.90D-03
 ErrMax= 5.90D-03  0.00D+00 EMaxC= 1.00D-01 BMatC= 7.31D-03 BMatP= 1.70D-02
 IDIUse=3 WtCom= 9.41D-01 WtEn= 5.90D-02
 Coeff-Com: -0.323D+00 0.762D+00 0.561D+00
 Coeff-En:   0.000D+00 0.258D+00 0.742D+00
 Coeff:     -0.304D+00 0.732D+00 0.572D+00
 Gap=     0.163 Goal=   None    Shift=    0.000
 RMSDP=3.38D-04 MaxDP=8.18D-03 DE=-2.95D-03 OVMax= 1.90D-02

 Cycle   4  Pass 1  IDiag  1:
 RMSU=  1.06D-04    CP:  1.00D+00  1.24D+00  4.89D-01
 E= -2389.37454643847     Delta-E=       -0.006624049631 Rises=F Damp=F
 DIIS: error= 1.33D-03 at cycle   4 NSaved=   4.
 NSaved= 4 IEnMin= 4 EnMin= -2389.37454643847     IErMin= 4 ErrMin= 1.33D-03
 ErrMax= 1.33D-03  0.00D+00 EMaxC= 1.00D-01 BMatC= 4.13D-04 BMatP= 7.31D-03
 IDIUse=3 WtCom= 9.87D-01 WtEn= 1.33D-02
 Coeff-Com: -0.782D-01 0.157D+00 0.252D+00 0.669D+00
 Coeff-En:   0.000D+00 0.000D+00 0.000D+00 0.100D+01
 Coeff:     -0.771D-01 0.155D+00 0.249D+00 0.673D+00
 Gap=     0.162 Goal=   None    Shift=    0.000
 RMSDP=6.51D-05 MaxDP=1.29D-03 DE=-6.62D-03 OVMax= 4.06D-03

 Cycle   5  Pass 1  IDiag  1:
 RMSU=  1.49D-05    CP:  1.00D+00  1.19D+00  5.93D-01  6.22D-01
 E= -2389.37491452493     Delta-E=       -0.000368086459 Rises=F Damp=F
 DIIS: error= 5.65D-05 at cycle   5 NSaved=   5.
 NSaved= 5 IEnMin= 5 EnMin= -2389.37491452493     IErMin= 5 ErrMin= 5.65D-05
 ErrMax= 5.65D-05  0.00D+00 EMaxC= 1.00D-01 BMatC= 2.15D-06 BMatP= 4.13D-04
 IDIUse=1 WtCom= 1.00D+00 WtEn= 0.00D+00
 Coeff-Com: -0.163D-01 0.319D-01 0.655D-01 0.210D+00 0.709D+00
 Coeff:     -0.163D-01 0.319D-01 0.655D-01 0.210D+00 0.709D+00
 Gap=     0.162 Goal=   None    Shift=    0.000
 RMSDP=7.70D-06 MaxDP=2.61D-04 DE=-3.68D-04 OVMax= 5.29D-04

 Cycle   6  Pass 1  IDiag  1:
 RMSU=  1.63D-06    CP:  1.00D+00  1.18D+00  5.96D-01  6.82D-01  8.72D-01
 E= -2389.37491654732     Delta-E=       -0.000002022391 Rises=F Damp=F
 DIIS: error= 6.66D-06 at cycle   6 NSaved=   6.
 NSaved= 6 IEnMin= 6 EnMin= -2389.37491654732     IErMin= 6 ErrMin= 6.66D-06
 ErrMax= 6.66D-06  0.00D+00 EMaxC= 1.00D-01 BMatC= 2.04D-08 BMatP= 2.15D-06
 IDIUse=1 WtCom= 1.00D+00 WtEn= 0.00D+00
 Coeff-Com:  0.125D-02-0.259D-02-0.404D-02-0.691D-02 0.559D-01 0.956D+00
 Coeff:      0.125D-02-0.259D-02-0.404D-02-0.691D-02 0.559D-01 0.956D+00
 Gap=     0.162 Goal=   None    Shift=    0.000
 RMSDP=7.45D-07 MaxDP=1.28D-05 DE=-2.02D-06 OVMax= 5.62D-05

 Cycle   7  Pass 1  IDiag  1:
 RMSU=  5.52D-07    CP:  1.00D+00  1.18D+00  5.97D-01  6.85D-01  8.90D-01
                    CP:  9.95D-01
 E= -2389.37491656751     Delta-E=       -0.000000020187 Rises=F Damp=F
 DIIS: error= 1.29D-06 at cycle   7 NSaved=   7.
 NSaved= 7 IEnMin= 7 EnMin= -2389.37491656751     IErMin= 7 ErrMin= 1.29D-06
 ErrMax= 1.29D-06  0.00D+00 EMaxC= 1.00D-01 BMatC= 1.32D-09 BMatP= 2.04D-08
 IDIUse=1 WtCom= 1.00D+00 WtEn= 0.00D+00
 Coeff-Com:  0.495D-03-0.982D-03-0.246D-02-0.697D-02-0.648D-02 0.211D+00
 Coeff-Com:  0.806D+00
 Coeff:      0.495D-03-0.982D-03-0.246D-02-0.697D-02-0.648D-02 0.211D+00
 Coeff:      0.806D+00
 Gap=     0.162 Goal=   None    Shift=    0.000
 RMSDP=2.07D-07 MaxDP=7.36D-06 DE=-2.02D-08 OVMax= 1.37D-05

 Cycle   8  Pass 1  IDiag  1:
 RMSU=  7.24D-08    CP:  1.00D+00  1.18D+00  5.97D-01  6.85D-01  8.96D-01
                    CP:  1.06D+00  8.74D-01
 E= -2389.37491656885     Delta-E=       -0.000000001342 Rises=F Damp=F
 DIIS: error= 2.86D-07 at cycle   8 NSaved=   8.
 NSaved= 8 IEnMin= 8 EnMin= -2389.37491656885     IErMin= 8 ErrMin= 2.86D-07
 ErrMax= 2.86D-07  0.00D+00 EMaxC= 1.00D-01 BMatC= 2.97D-11 BMatP= 1.32D-09
 IDIUse=1 WtCom= 1.00D+00 WtEn= 0.00D+00
 Coeff-Com:  0.467D-04-0.908D-04-0.176D-03-0.711D-03-0.154D-02-0.117D-01
 Coeff-Com:  0.730D-01 0.941D+00
 Coeff:      0.467D-04-0.908D-04-0.176D-03-0.711D-03-0.154D-02-0.117D-01
 Coeff:      0.730D-01 0.941D+00
 Gap=     0.162 Goal=   None    Shift=    0.000
 RMSDP=2.94D-08 MaxDP=1.07D-06 DE=-1.34D-09 OVMax= 2.18D-06

 Cycle   9  Pass 1  IDiag  1:
 RMSU=  1.09D-08    CP:  1.00D+00  1.18D+00  5.97D-01  6.85D-01  8.97D-01
                    CP:  1.06D+00  9.07D-01  1.04D+00
 E= -2389.37491656885     Delta-E=        0.000000000007 Rises=F Damp=F
 DIIS: error= 4.96D-08 at cycle   9 NSaved=   9.
 NSaved= 9 IEnMin= 8 EnMin= -2389.37491656885     IErMin= 9 ErrMin= 4.96D-08
 ErrMax= 4.96D-08  0.00D+00 EMaxC= 1.00D-01 BMatC= 6.91D-13 BMatP= 2.97D-11
 IDIUse=1 WtCom= 1.00D+00 WtEn= 0.00D+00
 Coeff-Com: -0.510D-05 0.101D-04 0.306D-04 0.521D-04 0.257D-03-0.381D-02
 Coeff-Com: -0.767D-02 0.393D-01 0.972D+00
 Coeff:     -0.510D-05 0.101D-04 0.306D-04 0.521D-04 0.257D-03-0.381D-02
 Coeff:     -0.767D-02 0.393D-01 0.972D+00
 Gap=     0.162 Goal=   None    Shift=    0.000
 RMSDP=4.27D-09 MaxDP=8.55D-08 DE= 6.82D-12 OVMax= 2.81D-07

 SCF Done:  E(RB3LYP) =  -2389.37491657     A.U. after    9 cycles
            NFock=  9  Conv=0.43D-08     -V/T= 2.0014
 KE= 2.385978698201D+03 PE=-7.170534091391D+03 EE= 1.650808421830D+03
 Leave Link  502 at Mon Oct 24 01:29:13 2016, MaxMem=    33554432 cpu:        90.3
 (Enter /home/proyectos/fulerenos/M3C-v2.0/M3C-deps_CCC/g09-AM64L-G09RevC.01/l801.exe)
 DoSCS=F DFT=T ScalE2(SS,OS)=  1.000000  1.000000
 Range of M.O.s used for correlation:     1   282
 NBasis=   282 NAE=    48 NBE=    48 NFC=     0 NFV=     0
 NROrb=    282 NOA=    48 NOB=    48 NVA=   234 NVB=   234

 **** Warning!!: The largest alpha MO coefficient is  0.17075318D+02

 Leave Link  801 at Mon Oct 24 01:29:14 2016, MaxMem=    33554432 cpu:         0.1
 (Enter /home/proyectos/fulerenos/M3C-v2.0/M3C-deps_CCC/g09-AM64L-G09RevC.01/l1101.exe)
 Using compressed storage, NAtomX=     6.
 Will process      7 centers per pass.
 Leave Link 1101 at Mon Oct 24 01:29:14 2016, MaxMem=    33554432 cpu:         1.3
 (Enter /home/proyectos/fulerenos/M3C-v2.0/M3C-deps_CCC/g09-AM64L-G09RevC.01/l1102.exe)
 Symmetrizing basis deriv contribution to polar:
 IMax=3 JMax=2 DiffMx= 0.00D+00
 Leave Link 1102 at Mon Oct 24 01:29:14 2016, MaxMem=    33554432 cpu:         0.2
 (Enter /home/proyectos/fulerenos/M3C-v2.0/M3C-deps_CCC/g09-AM64L-G09RevC.01/l1110.exe)
 Forming Gx(P) for the SCF density, NAtomX=     6.
 Integral derivatives from FoFJK, PRISM(SPDF).
 Do as many integral derivatives as possible in FoFJK.
 G2DrvN: MDV=      33554280.
 G2DrvN: will do     7 centers at a time, making    1 passes.
 Calling FoFCou, ICntrl=  3107 FMM=F I1Cent=   0 AccDes= 0.00D+00.
 FoFJK:  IHMeth= 1 ICntrl=    3107 DoSepK=F KAlg= 0 I1Cent=   0 FoldK=F
 IRaf=         0 NMat=   1 IRICut=       1 DoRegI=T DoRafI=F ISym2E= 1.
 FoFCou: FMM=F IPFlag=           0 FMFlag=      100000 FMFlg1=           0
         NFxFlg=           0 DoJE=F BraDBF=F KetDBF=F FulRan=T
         wScrn=  0.000000 ICntrl=    3107 IOpCl=  0 I1Cent=           0 NGrid=           0
         NMat0=    1 NMatS0=      1 NMatT0=    0 NMatD0=    1 NMtDS0=    0 NMtDT0=    0
 Petite list used in FoFCou.
 End of G2Drv F.D. properties file   721 does not exist.
 End of G2Drv F.D. properties file   722 does not exist.
 End of G2Drv F.D. properties file   788 does not exist.
 Leave Link 1110 at Mon Oct 24 01:29:24 2016, MaxMem=    33554432 cpu:        40.4
 (Enter /home/proyectos/fulerenos/M3C-v2.0/M3C-deps_CCC/g09-AM64L-G09RevC.01/l1002.exe)
 Minotr:  Closed shell wavefunction.
          IDoAtm=111111
          Direct CPHF calculation.
          Differentiating once with respect to electric field.
                with respect to dipole field.
          Differentiating once with respect to nuclear coordinates.
          Using symmetry in CPHF.
          Requested convergence is 1.0D-08 RMS, and 1.0D-07 maximum.
          Secondary convergence is 1.0D-12 RMS, and 1.0D-12 maximum.
          NewPWx=T KeepS1=F KeepF1=F KeepIn=T MapXYZ=F SortEE=F KeepMc=T.
          MDV=      33554086 using IRadAn=       2.
 Generate precomputed XC quadrature information.
          Solving linear equations simultaneously, MaxMat=       0.
 FoFJK:  IHMeth= 1 ICntrl=       0 DoSepK=F KAlg= 0 I1Cent=   0 FoldK=F
 IRaf= 880000000 NMat=   6 IRICut=       1 DoRegI=T DoRafI=F ISym2E= 2.
 FoFCou: FMM=F IPFlag=           0 FMFlag=      100000 FMFlg1=           0
         NFxFlg=           0 DoJE=F BraDBF=F KetDBF=F FulRan=T
         wScrn=  0.000000 ICntrl=       0 IOpCl=  0 I1Cent=           0 NGrid=           0
         NMat0=    6 NMatS0=      6 NMatT0=    0 NMatD0=    6 NMtDS0=    0 NMtDT0=    0
 Integrals replicated using symmetry in FoFCou.
          There are     6 degrees of freedom in the 1st order CPHF.  IDoFFX=4 NUNeed=     6.
      6 vectors produced by pass  0 Test12= 1.87D-13 1.67D-08 XBig12= 2.40D+02 5.86D+00.
 AX will form     6 AO Fock derivatives at one time.
      6 vectors produced by pass  1 Test12= 1.87D-13 1.67D-08 XBig12= 9.80D+01 2.60D+00.
      6 vectors produced by pass  2 Test12= 1.87D-13 1.67D-08 XBig12= 1.27D+01 8.53D-01.
      6 vectors produced by pass  3 Test12= 1.87D-13 1.67D-08 XBig12= 5.67D-01 2.40D-01.
      6 vectors produced by pass  4 Test12= 1.87D-13 1.67D-08 XBig12= 4.25D-02 7.48D-02.
      6 vectors produced by pass  5 Test12= 1.87D-13 1.67D-08 XBig12= 1.89D-03 1.92D-02.
      6 vectors produced by pass  6 Test12= 1.87D-13 1.67D-08 XBig12= 1.08D-04 2.16D-03.
      6 vectors produced by pass  7 Test12= 1.87D-13 1.67D-08 XBig12= 3.51D-06 6.58D-04.
      6 vectors produced by pass  8 Test12= 1.87D-13 1.67D-08 XBig12= 7.74D-08 6.12D-05.
      6 vectors produced by pass  9 Test12= 1.87D-13 1.67D-08 XBig12= 2.46D-09 1.85D-05.
      5 vectors produced by pass 10 Test12= 1.87D-13 1.67D-08 XBig12= 7.53D-11 3.92D-06.
      4 vectors produced by pass 11 Test12= 1.87D-13 1.67D-08 XBig12= 4.95D-13 1.89D-07.
      3 vectors produced by pass 12 Test12= 1.87D-13 1.67D-08 XBig12= 1.07D-14 2.09D-08.
 InvSVY:  IOpt=1 It=  1 EMax= 1.78D-15
 Solved reduced A of dimension    72 with     6 vectors.
 FullF1:  Do perturbations    1 to     6.
 Isotropic polarizability for W=    0.000000      121.95 Bohr**3.
 End of Minotr F.D. properties file   721 does not exist.
 End of Minotr F.D. properties file   722 does not exist.
 End of Minotr F.D. properties file   788 does not exist.
 Leave Link 1002 at Mon Oct 24 01:34:31 2016, MaxMem=    33554432 cpu:      1229.5
 (Enter /home/proyectos/fulerenos/M3C-v2.0/M3C-deps_CCC/g09-AM64L-G09RevC.01/l601.exe)
 Copying SCF densities to generalized density rwf, IOpCl= 0 IROHF=0.

 **********************************************************************

            Population analysis using the SCF density.

 **********************************************************************

 Orbital symmetries:
       Occupied  (EG) (EG) (EU) (EU) (A2U) (A1G) (EU) (EU) (A1G)
                 (EG) (EG) (A2U) (A1U) (EG) (EG) (EU) (EU) (A2G)
                 (A1G) (EU) (EU) (EG) (EG) (A2U) (A2U) (EG) (EG)
                 (A1G) (EU) (EU) (A1G) (EU) (EU) (EG) (EG) (A2U)
                 (A1U) (A1G) (EG) (EG) (A2U) (EU) (EU) (EU) (EU)
                 (EG) (EG) (A1G)
       Virtual   (EG) (EG) (A2U) (EU) (EU) (A2G) (A1G) (EU) (EU)
                 (A2U) (A1G) (EG) (EG) (EG) (EG) (A1U) (A2U) (EU)
                 (EU) (EU) (EU) (A2U) (A1G) (EG) (EG) (A1G) (A2G)
                 (EG) (EG) (EU) (EU) (EG) (EG) (EU) (EU) (A2U)
                 (A1U) (EG) (EG) (EU) (EU) (A2U) (A1G) (EU) (EU)
                 (EG) (EG) (A1G) (EU) (EU) (A2G) (EG) (EG) (A2U)
                 (A2U) (A1U) (A2G) (EG) (EG) (A1G) (EU) (EU) (EG)
                 (EG) (EU) (EU) (A1G) (EG) (EG) (A2U) (A1U) (EU)
                 (EU) (EU) (EU) (EG) (EG) (A1G) (A2G) (EU) (EU)
                 (EU) (EU) (EG) (EG) (EG) (EG) (A2U) (A1G) (EG)
                 (EG) (A1G) (A1U) (A2U) (EU) (EU) (A2G) (A2U) (A1G)
                 (A2U) (A1U) (EG) (EG) (EU) (EU) (EG) (EG) (EU)
                 (EU) (A2G) (EG) (EG) (EU) (EU) (EU) (EU) (EG)
                 (EG) (A1G) (A2G) (A2U) (EU) (EU) (EG) (EG) (A1U)
                 (A1G) (EU) (EU) (EG) (EG) (A2G) (EU) (EU) (A1U)
                 (A2U) (EG) (EG) (A1G) (EU) (EU) (A2U) (EG) (EG)
                 (EU) (EU) (A1G) (EG) (EG) (A1G) (A2U) (EU) (EU)
                 (EG) (EG) (A1U) (A2U) (A1G) (EG) (EG) (EU) (EU)
                 (A1U) (EG) (EG) (EU) (EU) (A2G) (EU) (EU) (A2G)
                 (EG) (EG) (A2U) (EG) (EG) (EU) (EU) (A1U) (A1G)
                 (EG) (EG) (A1G) (A2U) (EU) (EU) (A2G) (A1G) (EU)
                 (EU) (A1U) (EG) (EG) (A2U) (EG) (EG) (EU) (EU)
                 (A2U) (EG) (EG) (EU) (EU) (A2G) (A1G) (A2U) (EU)
                 (EU) (EG) (EG) (EG) (EG) (A2U) (EU) (EU) (A1G)
                 (EU) (EU) (A1G) (A1U) (EG) (EG) (A2U) (EU) (EU)
                 (EG) (EG) (A2G) (A1G) (A2U) (EU) (EU) (EG) (EG)
 The electronic state is 1-A1G.
 Alpha  occ. eigenvalues --  -88.91168 -88.91168 -88.91168 -88.91168 -88.91168
 Alpha  occ. eigenvalues --  -88.91168  -7.99389  -7.99389  -7.99387  -7.99386
 Alpha  occ. eigenvalues --   -7.99386  -7.99381  -5.95761  -5.95754  -5.95754
 Alpha  occ. eigenvalues --   -5.95738  -5.95738  -5.95730  -5.95493  -5.95488
 Alpha  occ. eigenvalues --   -5.95488  -5.95478  -5.95478  -5.95474  -5.94786
 Alpha  occ. eigenvalues --   -5.94786  -5.94786  -5.94785  -5.94785  -5.94785
 Alpha  occ. eigenvalues --   -0.88100  -0.81784  -0.81784  -0.68459  -0.68459
 Alpha  occ. eigenvalues --   -0.57902  -0.47132  -0.42920  -0.42132  -0.42132
 Alpha  occ. eigenvalues --   -0.37090  -0.36965  -0.36965  -0.28459  -0.28459
 Alpha  occ. eigenvalues --   -0.27638  -0.27638  -0.25703
 Alpha virt. eigenvalues --   -0.09477  -0.09477  -0.06296  -0.04834  -0.04834
 Alpha virt. eigenvalues --   -0.04664   0.00537   0.02852   0.02852   0.03542
 Alpha virt. eigenvalues --    0.04520   0.04958   0.04958   0.05779   0.05779
 Alpha virt. eigenvalues --    0.06247   0.07901   0.08155   0.08155   0.09317
 Alpha virt. eigenvalues --    0.09317   0.10927   0.11184   0.12538   0.12538
 Alpha virt. eigenvalues --    0.13455   0.13832   0.14691   0.14691   0.14810
 Alpha virt. eigenvalues --    0.14810   0.16812   0.16812   0.19818   0.19818
 Alpha virt. eigenvalues --    0.20183   0.20191   0.23589   0.23589   0.24214
 Alpha virt. eigenvalues --    0.24214   0.26963   0.27397   0.28206   0.28206
 Alpha virt. eigenvalues --    0.28577   0.28577   0.31213   0.31749   0.31749
 Alpha virt. eigenvalues --    0.32225   0.32991   0.32991   0.34720   0.35811
 Alpha virt. eigenvalues --    0.35950   0.36635   0.38991   0.38991   0.40243
 Alpha virt. eigenvalues --    0.44105   0.44105   0.46664   0.46664   0.47511
 Alpha virt. eigenvalues --    0.47511   0.47594   0.50681   0.50681   0.51323
 Alpha virt. eigenvalues --    0.52430   0.53231   0.53231   0.59582   0.59582
 Alpha virt. eigenvalues --    0.60100   0.60100   0.65609   0.69903   0.84674
 Alpha virt. eigenvalues --    0.84674   0.93100   0.93100   0.93852   0.93852
 Alpha virt. eigenvalues --    0.94853   0.94853   0.95174   0.95873   0.98185
 Alpha virt. eigenvalues --    0.98185   1.00625   1.00708   1.01011   1.01284
 Alpha virt. eigenvalues --    1.01284   1.04864   1.05174   1.05527   1.07020
 Alpha virt. eigenvalues --    1.07080   1.07728   1.07728   1.07902   1.07902
 Alpha virt. eigenvalues --    1.09901   1.09901   1.11753   1.11753   1.19465
 Alpha virt. eigenvalues --    1.21690   1.21690   1.21951   1.21951   1.38886
 Alpha virt. eigenvalues --    1.38886   1.39729   1.39729   1.39945   1.46092
 Alpha virt. eigenvalues --    1.46517   1.50144   1.50144   1.51052   1.51052
 Alpha virt. eigenvalues --    1.52994   1.58732   1.60233   1.60233   1.63867
 Alpha virt. eigenvalues --    1.63867   1.64863   1.65628   1.65628   1.66361
 Alpha virt. eigenvalues --    1.67652   1.68194   1.68194   1.68458   1.70593
 Alpha virt. eigenvalues --    1.70593   1.72172   1.72325   1.72325   1.77596
 Alpha virt. eigenvalues --    1.77596   1.87273   1.88299   1.88299   1.92645
 Alpha virt. eigenvalues --    1.93622   1.96441   1.96441   2.01782   2.01782
 Alpha virt. eigenvalues --    2.05450   2.10266   2.17900   2.20185   2.20185
 Alpha virt. eigenvalues --    2.21298   2.21298   2.23443   2.25351   2.25351
 Alpha virt. eigenvalues --    2.25575   2.25575   2.26698   2.49720   2.49720
 Alpha virt. eigenvalues --    2.54024   2.60254   2.60254   2.60293   4.52720
 Alpha virt. eigenvalues --    4.52720   4.53587   4.53587   4.55198   4.55745
 Alpha virt. eigenvalues --    4.56526   4.56526   4.58263   4.59327   4.60548
 Alpha virt. eigenvalues --    4.60548   4.64380   4.66884   4.69734   4.69734
 Alpha virt. eigenvalues --    4.70149   4.70287   4.70287   4.70652   4.71922
 Alpha virt. eigenvalues --    4.71922   4.73272   4.73272   4.98979   5.13816
 Alpha virt. eigenvalues --    5.13816   5.27463   5.27463   5.36095   7.74068
 Alpha virt. eigenvalues --    7.87980   7.88780   7.88780   7.95259   7.95259
 Alpha virt. eigenvalues --   17.27165  17.27165  17.28011  17.29885  17.29885
 Alpha virt. eigenvalues --   17.35820  17.39001  17.39001  17.43423  17.45212
 Alpha virt. eigenvalues --   17.46785  17.46785  17.67032  17.67222  17.67222
 Alpha virt. eigenvalues --   17.71308  17.71308  17.72129 188.89740 189.06236
 Alpha virt. eigenvalues --  189.06364 189.06364 189.14192 189.14192
          Condensed to atoms (all electrons):
               1          2          3          4          5          6
     1  S   15.577836  -0.055714   0.270202  -0.055714   0.270202  -0.006814
     2  S   -0.055714  15.577836  -0.006814  -0.055714   0.270202   0.270202
     3  S    0.270202  -0.006814  15.577836   0.270202  -0.055714  -0.055714
     4  S   -0.055714  -0.055714   0.270202  15.577836  -0.006814   0.270202
     5  S    0.270202   0.270202  -0.055714  -0.006814  15.577836  -0.055714
     6  S   -0.006814   0.270202  -0.055714   0.270202  -0.055714  15.577836
 Mulliken charges:
               1
     1  S    0.000000
     2  S   -0.000000
     3  S   -0.000000
     4  S   -0.000000
     5  S   -0.000000
     6  S    0.000000
 Sum of Mulliken charges =  -0.00000
 Mulliken charges with hydrogens summed into heavy atoms:
               1
     1  S    0.000000
     2  S   -0.000000
     3  S   -0.000000
     4  S   -0.000000
     5  S   -0.000000
     6  S    0.000000
 APT charges:
               1
     1  S   -0.000035
     2  S   -0.000009
     3  S   -0.000009
     4  S   -0.000009
     5  S   -0.000009
     6  S   -0.000035
 Sum of APT charges =  -0.00010
 APT charges with hydrogens summed into heavy atoms:
               1
     1  S   -0.000035
     2  S   -0.000009
     3  S   -0.000009
     4  S   -0.000009
     5  S   -0.000009
     6  S   -0.000035
 Electronic spatial extent (au):  <R**2>=           1455.0904
 Charge=             -0.0000 electrons
 Dipole moment (field-independent basis, Debye):
    X=              0.0000    Y=              0.0000    Z=             -0.0000  Tot=              0.0000
 Quadrupole moment (field-independent basis, Debye-Ang):
   XX=            -75.7845   YY=            -75.7845   ZZ=            -79.0562
   XY=             -0.0000   XZ=             -0.0000   YZ=              0.0000
 Traceless Quadrupole moment (field-independent basis, Debye-Ang):
   XX=              1.0906   YY=              1.0906   ZZ=             -2.1811
   XY=             -0.0000   XZ=             -0.0000   YZ=              0.0000
 Octapole moment (field-independent basis, Debye-Ang**2):
  XXX=              0.0000  YYY=              0.0000  ZZZ=              0.0000  XYY=              0.0000
  XXY=              0.0000  XXZ=             -0.0000  XZZ=              0.0000  YZZ=              0.0000
  YYZ=              0.0000  XYZ=              0.0000
 Hexadecapole moment (field-independent basis, Debye-Ang**3):
 XXXX=           -914.1256 YYYY=           -914.1256 ZZZZ=           -206.4466 XXXY=              0.0000
 XXXZ=             -0.0000 YYYX=              0.0000 YYYZ=              4.6299 ZZZX=              0.0000
 ZZZY=             -0.0000 XXYY=           -304.7085 XXZZ=           -182.2755 YYZZ=           -182.2755
 XXYZ=             -4.6299 YYXZ=              0.0000 ZZXY=              0.0000
 N-N= 7.443720547901D+02 E-N=-7.170534088114D+03  KE= 2.385978698201D+03
 Symmetry AG   KE= 7.595184998612D+02
 Symmetry BG   KE= 4.334160518061D+02
 Symmetry AU   KE= 4.367475268298D+02
 Symmetry BU   KE= 7.562966197042D+02
  Exact polarizability: 138.748  -0.000 138.756  -0.000  -0.003  88.350
 Approx polarizability: 289.346   0.000 289.346   0.000   0.000 173.714
 No NMR shielding tensors so no spin-rotation constants.
 Leave Link  601 at Mon Oct 24 01:34:32 2016, MaxMem=    33554432 cpu:         1.9
 (Enter /home/proyectos/fulerenos/M3C-v2.0/M3C-deps_CCC/g09-AM64L-G09RevC.01/l701.exe)
 Compute integral second derivatives.
 ... and contract with generalized density number  0.
 Leave Link  701 at Mon Oct 24 01:34:32 2016, MaxMem=    33554432 cpu:         1.9
 (Enter /home/proyectos/fulerenos/M3C-v2.0/M3C-deps_CCC/g09-AM64L-G09RevC.01/l702.exe)
 L702 exits ... SP integral derivatives will be done elsewhere.
 Leave Link  702 at Mon Oct 24 01:34:32 2016, MaxMem=    33554432 cpu:         0.1
 (Enter /home/proyectos/fulerenos/M3C-v2.0/M3C-deps_CCC/g09-AM64L-G09RevC.01/l703.exe)
 Compute integral second derivatives, UseDBF=F ICtDFT=           0.
 Integral derivatives from FoFJK, PRISM(SPDF).
 Calling FoFJK, ICntrl=    100127 FMM=F ISym2X=1 I1Cent= 0 IOpClX= 0 NMat=1 NMatS=1 NMatT=0.
 FoFJK:  IHMeth= 1 ICntrl=  100127 DoSepK=F KAlg= 0 I1Cent=   0 FoldK=F
 IRaf=         0 NMat=   1 IRICut=       1 DoRegI=T DoRafI=F ISym2E= 1.
 FoFCou: FMM=F IPFlag=           0 FMFlag=      100000 FMFlg1=         800
         NFxFlg=           0 DoJE=F BraDBF=F KetDBF=F FulRan=T
         wScrn=  0.000000 ICntrl=  100127 IOpCl=  0 I1Cent=           0 NGrid=           0
         NMat0=    1 NMatS0=      1 NMatT0=    0 NMatD0=    1 NMtDS0=    0 NMtDT0=    0
 Petite list used in FoFCou.
 Leave Link  703 at Mon Oct 24 01:34:56 2016, MaxMem=    33554432 cpu:        93.7
 (Enter /home/proyectos/fulerenos/M3C-v2.0/M3C-deps_CCC/g09-AM64L-G09RevC.01/l716.exe)
 Dipole        = 5.97366126D-14 4.76172921D-14-1.86319547D-13
 Polarizability= 1.38748282D+02-4.15829001D-10 1.38755960D+02
                -7.13399791D-10-3.09611881D-03 8.83504662D+01
 Full mass-weighted force constant matrix:
 Low frequencies ---   -0.0055   -0.0018    0.0030    8.7318    9.5382    9.5382
 Low frequencies ---  163.7274  163.7274  202.7626
 Diagonal vibrational polarizability:
        1.1949556       1.1954025       0.2032761
 Harmonic frequencies (cm**-1), IR intensities (KM/Mole), Raman scattering
 activities (A**4/AMU), depolarization ratios for plane and unpolarized
 incident light, reduced masses (AMU), force constants (mDyne/A),
 and normal coordinates:
                      1                      2                      3
                     EU                     EU                     EG
 Frequencies --    163.7274               163.7274               202.7625
 Red. masses --     31.9721                31.9721                31.9721
 Frc consts  --      0.5050                 0.5050                 0.7745
 IR Inten    --      0.7505                 0.7510                 0.0000
  Atom  AN      X      Y      Z        X      Y      Z        X      Y      Z
     1  16    -0.24   0.02  -0.04    -0.02  -0.24   0.46    -0.11   0.41   0.07
     2  16     0.14   0.20   0.42    -0.20   0.14  -0.19     0.47   0.21  -0.08
     3  16     0.14   0.20   0.42    -0.20   0.14  -0.19    -0.47  -0.21   0.08
     4  16     0.10  -0.22  -0.38     0.22   0.10  -0.27     0.01  -0.20   0.02
     5  16     0.10  -0.22  -0.38     0.22   0.10  -0.27    -0.01   0.20  -0.02
     6  16    -0.24   0.02  -0.04    -0.02  -0.24   0.46     0.11  -0.41  -0.07
                      4                      5                      6
                     EG                     A1G                    A2U
 Frequencies --    202.7625               264.0084               313.9639
 Red. masses --     31.9721                31.9721                31.9721
 Frc consts  --      0.7745                 1.3130                 1.8569
 IR Inten    --      0.0000                 0.0000                 0.7446
  Atom  AN      X      Y      Z        X      Y      Z        X      Y      Z
     1  16    -0.13  -0.36  -0.06    -0.00   0.33  -0.24    -0.00   0.41  -0.00
     2  16     0.07   0.23  -0.03    -0.28  -0.16  -0.24    -0.35  -0.20  -0.00
     3  16    -0.07  -0.23   0.03     0.28   0.16   0.24    -0.35  -0.20   0.00
     4  16     0.48  -0.24   0.09     0.28  -0.16  -0.24     0.35  -0.20  -0.00
     5  16    -0.48   0.24  -0.09    -0.28   0.16   0.24     0.35  -0.20   0.00
     6  16     0.13   0.36   0.06    -0.00  -0.33   0.24    -0.00   0.41   0.00
                      7                      8                      9
                     A1U                    EG                     EG
 Frequencies --    340.3486               430.5530               430.5530
 Red. masses --     31.9721                31.9721                31.9721
 Frc consts  --      2.1821                 3.4920                 3.4920
 IR Inten    --      0.0000                 0.0000                 0.0000
  Atom  AN      X      Y      Z        X      Y      Z        X      Y      Z
     1  16     0.41   0.00  -0.00     0.52  -0.03  -0.04     0.12   0.14   0.16
     2  16    -0.20   0.35   0.00     0.27  -0.26  -0.12    -0.11   0.39  -0.11
     3  16    -0.20   0.35   0.00    -0.27   0.26   0.12     0.11  -0.39   0.11
     4  16    -0.20  -0.35   0.00     0.20   0.07   0.15     0.22   0.46  -0.05
     5  16    -0.20  -0.35  -0.00    -0.20  -0.07  -0.15    -0.22  -0.46   0.05
     6  16     0.41   0.00  -0.00    -0.52   0.03   0.04    -0.12  -0.14  -0.16
                     10                     11                     12
                     EU                     EU                     A1G
 Frequencies --    452.8039               452.8039               472.4334
 Red. masses --     31.9721                31.9721                31.9721
 Frc consts  --      3.8623                 3.8623                 4.2044
 IR Inten    --      3.3638                 3.3638                 0.0000
  Atom  AN      X      Y      Z        X      Y      Z        X      Y      Z
     1  16     0.32   0.05   0.05    -0.05   0.32   0.34    -0.00   0.24   0.33
     2  16    -0.12  -0.30   0.27     0.30  -0.12  -0.22    -0.21  -0.12   0.33
     3  16    -0.12  -0.30   0.27     0.30  -0.12  -0.22     0.21   0.12  -0.33
     4  16    -0.20   0.25  -0.32    -0.25  -0.20  -0.13     0.21  -0.12   0.33
     5  16    -0.20   0.25  -0.32    -0.25  -0.20  -0.13    -0.21   0.12  -0.33
     6  16     0.32   0.05   0.05    -0.05   0.32   0.34     0.00  -0.24  -0.33

 -------------------
 - Thermochemistry -
 -------------------
 Temperature   298.150 Kelvin.  Pressure   1.00000 Atm.
 Atom     1 has atomic number 16 and mass  31.97207
 Atom     2 has atomic number 16 and mass  31.97207
 Atom     3 has atomic number 16 and mass  31.97207
 Atom     4 has atomic number 16 and mass  31.97207
 Atom     5 has atomic number 16 and mass  31.97207
 Atom     6 has atomic number 16 and mass  31.97207
 Molecular mass:   191.83243 amu.
 Principal axes and moments of inertia in atomic units:
                           1         2         3
     Eigenvalues --  1350.604051350.604052428.81573
           X            0.89240   0.45124   0.00000
           Y           -0.45124   0.89240   0.00000
           Z           -0.00000  -0.00000   1.00000
 This molecule is an oblate symmetric top.
 Rotational symmetry number  6.
 Warning -- assumption of classical behavior for rotation
           may cause significant error
 Rotational temperatures (Kelvin)      0.06413     0.06413     0.03566
 Rotational constants (GHZ):           1.33625     1.33625     0.74305
 Zero-point vibrational energy      23270.0 (Joules/Mol)
                                    5.56167 (Kcal/Mol)
 Warning -- explicit consideration of  12 degrees of freedom as
           vibrations may cause significant error
 Vibrational temperatures:    235.57   235.57   291.73   291.73   379.85
          (Kelvin)            451.72   489.69   619.47   619.47   651.48
                              651.48   679.73
 
 Zero-point correction=                           0.008863 (Hartree/Particle)
 Thermal correction to Energy=                    0.016620
 Thermal correction to Enthalpy=                  0.017564
 Thermal correction to Gibbs Free Energy=        -0.023015
 Sum of electronic and zero-point Energies=          -2389.366053
 Sum of electronic and thermal Energies=             -2389.358296
 Sum of electronic and thermal Enthalpies=           -2389.357352
 Sum of electronic and thermal Free Energies=        -2389.397932
 
                     E (Thermal)             CV                S
                      KCal/Mol        Cal/Mol-Kelvin    Cal/Mol-Kelvin
 Total                   10.429             25.216             85.406
 Electronic               0.000              0.000              0.000
 Translational            0.889              2.981             41.660
 Rotational               0.889              2.981             26.312
 Vibrational              8.652             19.255             17.435
 Vibration     1          0.623              1.887              2.506
 Vibration     2          0.623              1.887              2.506
 Vibration     3          0.639              1.836              2.108
 Vibration     4          0.639              1.836              2.108
 Vibration     5          0.671              1.739              1.635
 Vibration     6          0.702              1.647              1.341
 Vibration     7          0.720              1.595              1.211
 Vibration     8          0.792              1.404              0.857
 Vibration     9          0.792              1.404              0.857
 Vibration    10          0.811              1.355              0.787
 Vibration    11          0.811              1.355              0.787
 Vibration    12          0.829              1.311              0.731
                       Q            Log10(Q)             Ln(Q)
 Total Bot       0.385640D+11         10.586182         24.375586
 Total V=0       0.460165D+15         14.662913         33.762606
 Vib (Bot)       0.294052D-02         -2.531576         -5.829170
 Vib (Bot)    1  0.123334D+01          0.091082          0.209725
 Vib (Bot)    2  0.123334D+01          0.091082          0.209725
 Vib (Bot)    3  0.982349D+00         -0.007734         -0.017809
 Vib (Bot)    4  0.982349D+00         -0.007734         -0.017809
 Vib (Bot)    5  0.734243D+00         -0.134160         -0.308915
 Vib (Bot)    6  0.600884D+00         -0.221209         -0.509353
 Vib (Bot)    7  0.545453D+00         -0.263243         -0.606139
 Vib (Bot)    8  0.404511D+00         -0.393069         -0.905075
 Vib (Bot)    9  0.404511D+00         -0.393069         -0.905075
 Vib (Bot)   10  0.377860D+00         -0.422669         -0.973231
 Vib (Bot)   11  0.377860D+00         -0.422669         -0.973231
 Vib (Bot)   12  0.356300D+00         -0.448184         -1.031982
 Vib (V=0)       0.350877D+02          1.545155          3.557850
 Vib (V=0)    1  0.183084D+01          0.262649          0.604773
 Vib (V=0)    2  0.183084D+01          0.262649          0.604773
 Vib (V=0)    3  0.160227D+01          0.204737          0.471424
 Vib (V=0)    4  0.160227D+01          0.204737          0.471424
 Vib (V=0)    5  0.138832D+01          0.142490          0.328095
 Vib (V=0)    6  0.128170D+01          0.107788          0.248191
 Vib (V=0)    7  0.123995D+01          0.093402          0.215067
 Vib (V=0)    8  0.114314D+01          0.058100          0.133779
 Vib (V=0)    9  0.114314D+01          0.058100          0.133779
 Vib (V=0)   10  0.112672D+01          0.051816          0.119311
 Vib (V=0)   11  0.112672D+01          0.051816          0.119311
 Vib (V=0)   12  0.111396D+01          0.046871          0.107923
 Electronic      0.100000D+01          0.000000          0.000000
 Translational   0.104433D+09          8.018838         18.464057
 Rotational      0.125580D+06          5.098920         11.740698
 
                                                              b3lyp opt
                                                             IR Spectrum
 
                                                                                                                                     
     4     4     4                       3      3             2               2         1                                            
     7     5     3                       4      1             6               0         6                                            
     2     3     1                       0      4             4               3         4                                            
 
           X                                    X                                       X                                            
           X                                    X                                       X                                            
           X                                                                            X                                            
           X                                                                            X                                            
           X                                                                                                                         
           X                                                                                                                         
           X                                                                                                                         
           X                                                                                                                         
           X                                                                                                                         
           X                                                                                                                         
           X                                                                                                                         
           X                                                                                                                         
           X                                                                                                                         
           X                                                                                                                         
           X                                                                                                                         
           X                                                                                                                         
           X                                                                                                                         
           X                                                                                                                         
           X                                                                                                                         
           X                                                                                                                         
 
 ***** Axes restored to original set *****
 -------------------------------------------------------------------
 Center     Atomic                   Forces (Hartrees/Bohr)
 Number     Number              X              Y              Z
 -------------------------------------------------------------------
      1       16           0.000019579   -0.000023282   -0.000000854
      2       16          -0.000007359   -0.000019358   -0.000022299
      3       16           0.000007359    0.000019358    0.000022299
      4       16          -0.000012768   -0.000025145    0.000011438
      5       16           0.000012768    0.000025145   -0.000011438
      6       16          -0.000019579    0.000023282    0.000000854
 -------------------------------------------------------------------
 Cartesian Forces:  Max     0.000025145 RMS     0.000017570
 Z-matrix is all fixed cartesians, so copy forces.
 Force constants in Cartesian coordinates: 
                1             2             3             4             5 
      1  0.939363D-01
      2  0.459727D-01  0.749830D-01
      3  0.408844D-02  0.587609D-04  0.118282D+00
      4 -0.158642D-01  0.109692D-02 -0.301336D-01  0.114128D+00
      5  0.623713D-03  0.108587D-01  0.803340D-02 -0.153133D-01  0.924097D-01
      6 -0.138138D-01  0.603279D-02 -0.459281D-02 -0.115018D-01 -0.441170D-01
      7 -0.339534D-01 -0.298444D-01  0.169431D-01 -0.117119D-01 -0.169449D-02
      8 -0.333925D-01 -0.601385D-01  0.302032D-01 -0.169449D-02 -0.290180D-02
      9  0.238965D-01  0.320148D-01 -0.330499D-01  0.582814D-02 -0.277377D-02
     10 -0.277647D-01 -0.672035D-02  0.221734D-01  0.101514D-01  0.482845D-02
     11 -0.123010D-02  0.141312D-01 -0.384430D-02  0.252725D-02  0.110970D-01
     12  0.671414D-02 -0.264814D-02  0.403519D-02  0.156487D-01  0.964102D-02
     13 -0.199834D-01 -0.119820D-01 -0.161555D-01 -0.627490D-01  0.449480D-01
     14 -0.134492D-01 -0.356829D-01 -0.363811D-01  0.432272D-01 -0.513246D-01
     15 -0.239691D-01 -0.373886D-01 -0.714755D-01  0.321499D-02 -0.987194D-03
     16  0.362894D-02  0.147780D-02  0.308404D-02 -0.339534D-01 -0.333925D-01
     17  0.147780D-02 -0.415155D-02  0.193034D-02 -0.298444D-01 -0.601385D-01
     18  0.308404D-02  0.193034D-02 -0.131986D-01  0.169431D-01  0.302032D-01
                6             7             8             9            10 
      6  0.806643D-01
      7  0.582814D-02  0.114128D+00
      8 -0.277377D-02 -0.153133D-01  0.924097D-01
      9  0.892495D-03 -0.115018D-01 -0.441170D-01  0.806643D-01
     10 -0.394206D-03 -0.627490D-01  0.449480D-01 -0.401527D-02  0.107243D+00
     11  0.683122D-02  0.432272D-01 -0.513246D-01  0.200987D-02 -0.313220D-01
     12 -0.308466D-01  0.321499D-02 -0.987194D-03 -0.130683D-01  0.729882D-02
     13 -0.401527D-02  0.101514D-01  0.482845D-02 -0.394206D-03 -0.689759D-02
     14  0.200987D-02  0.252725D-02  0.110970D-01  0.683122D-02  0.246379D-03
     15 -0.130683D-01  0.156487D-01  0.964102D-02 -0.308466D-01 -0.890704D-02
     16  0.238965D-01 -0.158642D-01  0.623713D-03 -0.138138D-01 -0.199834D-01
     17  0.320148D-01  0.109692D-02  0.108587D-01  0.603279D-02 -0.119820D-01
     18 -0.330499D-01 -0.301336D-01  0.803340D-02 -0.459281D-02 -0.161555D-01
               11            12            13            14            15 
     11  0.660374D-01
     12  0.299072D-01  0.113921D+00
     13  0.246379D-03 -0.890704D-02  0.107243D+00
     14 -0.425846D-02  0.147750D-02 -0.313220D-01  0.660374D-01
     15  0.147750D-02 -0.256512D-02  0.729882D-02  0.299072D-01  0.113921D+00
     16 -0.134492D-01 -0.239691D-01 -0.277647D-01 -0.123010D-02  0.671414D-02
     17 -0.356829D-01 -0.373886D-01 -0.672035D-02  0.141312D-01 -0.264814D-02
     18 -0.363811D-01 -0.714755D-01  0.221734D-01 -0.384430D-02  0.403519D-02
               16            17            18 
     16  0.939363D-01
     17  0.459727D-01  0.749830D-01
     18  0.408844D-02  0.587609D-04  0.118282D+00
 Leave Link  716 at Mon Oct 24 01:34:56 2016, MaxMem=    33554432 cpu:         0.2
 (Enter /home/proyectos/fulerenos/M3C-v2.0/M3C-deps_CCC/g09-AM64L-G09RevC.01/l103.exe)

 GradGradGradGradGradGradGradGradGradGradGradGradGradGradGradGradGradGrad
 Berny optimization.
 Search for a local minimum.
 Step number   1 out of a maximum of    2
 All quantities printed in internal units (Hartrees-Bohrs-Radians)
 Second derivative matrix not updated -- analytic derivatives used.
 The second derivative matrix:
                          X1        Y1        Z1        X2        Y2
           X1           0.09394
           Y1           0.04597   0.07498
           Z1           0.00409   0.00006   0.11828
           X2          -0.01586   0.00110  -0.03013   0.11413
           Y2           0.00062   0.01086   0.00803  -0.01531   0.09241
           Z2          -0.01381   0.00603  -0.00459  -0.01150  -0.04412
           X3          -0.03395  -0.02984   0.01694  -0.01171  -0.00169
           Y3          -0.03339  -0.06014   0.03020  -0.00169  -0.00290
           Z3           0.02390   0.03201  -0.03305   0.00583  -0.00277
           X4          -0.02776  -0.00672   0.02217   0.01015   0.00483
           Y4          -0.00123   0.01413  -0.00384   0.00253   0.01110
           Z4           0.00671  -0.00265   0.00404   0.01565   0.00964
           X5          -0.01998  -0.01198  -0.01616  -0.06275   0.04495
           Y5          -0.01345  -0.03568  -0.03638   0.04323  -0.05132
           Z5          -0.02397  -0.03739  -0.07148   0.00321  -0.00099
           X6           0.00363   0.00148   0.00308  -0.03395  -0.03339
           Y6           0.00148  -0.00415   0.00193  -0.02984  -0.06014
           Z6           0.00308   0.00193  -0.01320   0.01694   0.03020
                          Z2        X3        Y3        Z3        X4
           Z2           0.08066
           X3           0.00583   0.11413
           Y3          -0.00277  -0.01531   0.09241
           Z3           0.00089  -0.01150  -0.04412   0.08066
           X4          -0.00039  -0.06275   0.04495  -0.00402   0.10724
           Y4           0.00683   0.04323  -0.05132   0.00201  -0.03132
           Z4          -0.03085   0.00321  -0.00099  -0.01307   0.00730
           X5          -0.00402   0.01015   0.00483  -0.00039  -0.00690
           Y5           0.00201   0.00253   0.01110   0.00683   0.00025
           Z5          -0.01307   0.01565   0.00964  -0.03085  -0.00891
           X6           0.02390  -0.01586   0.00062  -0.01381  -0.01998
           Y6           0.03201   0.00110   0.01086   0.00603  -0.01198
           Z6          -0.03305  -0.03013   0.00803  -0.00459  -0.01616
                          Y4        Z4        X5        Y5        Z5
           Y4           0.06604
           Z4           0.02991   0.11392
           X5           0.00025  -0.00891   0.10724
           Y5          -0.00426   0.00148  -0.03132   0.06604
           Z5           0.00148  -0.00257   0.00730   0.02991   0.11392
           X6          -0.01345  -0.02397  -0.02776  -0.00123   0.00671
           Y6          -0.03568  -0.03739  -0.00672   0.01413  -0.00265
           Z6          -0.03638  -0.07148   0.02217  -0.00384   0.00404
                          X6        Y6        Z6
           X6           0.09394
           Y6           0.04597   0.07498
           Z6           0.00409   0.00006   0.11828
 ITU=  0
     Eigenvalues ---    0.03243   0.03243   0.04974   0.04974   0.08433
     Eigenvalues ---    0.11927   0.14016   0.22429   0.22429   0.24807
     Eigenvalues ---    0.24807   0.27005
 Angle between quadratic step and forces=   8.59 degrees.
 ClnCor:  largest displacement from symmetrization is 9.61D-12 for atom     4.
 Linear search not attempted -- first point.
 ClnCor:  largest displacement from symmetrization is 8.92D-16 for atom     6.
 B after Tr=     0.000000    0.000000    0.000000
         Rot=    1.000000    0.000000   -0.000000    0.000000 Ang=   0.00 deg.
 Variable       Old X    -DE/DX   Delta X   Delta X   Delta X     New X
                                 (Linear)    (Quad)   (Total)
    X1        2.29639   0.00002   0.00000   0.00026   0.00026   2.29665
    Y1        0.97712  -0.00002   0.00000  -0.00023  -0.00023   0.97688
    Z1        1.42553  -0.00000   0.00000   0.00000   0.00000   1.42553
    X2       -2.49437  -0.00001   0.00000  -0.00010  -0.00010  -2.49446
    Y2        1.67499  -0.00002   0.00000  -0.00018  -0.00018   1.67481
    Z2       -2.38828  -0.00002   0.00000  -0.00029  -0.00029  -2.38856
    X3        0.04467   0.00001   0.00000   0.00010   0.00010   0.04477
    Y3       -1.13687   0.00002   0.00000   0.00018   0.00018  -1.13669
    Z3        3.86722   0.00002   0.00000   0.00029   0.00029   3.86750
    X4       -3.45641  -0.00001   0.00000  -0.00017  -0.00017  -3.45658
    Y4        0.64587  -0.00003   0.00000  -0.00026  -0.00026   0.64561
    Z4        3.61162   0.00001   0.00000   0.00017   0.00017   3.61179
    X5        1.00671   0.00001   0.00000   0.00017   0.00017   1.00688
    Y5       -0.10775   0.00003   0.00000   0.00026   0.00026  -0.10749
    Z5       -2.13268  -0.00001   0.00000  -0.00017  -0.00017  -2.13285
    X6       -4.74608  -0.00002   0.00000  -0.00026  -0.00026  -4.74635
    Y6       -0.43900   0.00002   0.00000   0.00023   0.00023  -0.43877
    Z6        0.05341   0.00000   0.00000  -0.00000  -0.00000   0.05341
         Item               Value     Threshold  Converged?
 Maximum Force            0.000025     0.000450     YES
 RMS     Force            0.000018     0.000300     YES
 Maximum Displacement     0.000286     0.001800     YES
 RMS     Displacement     0.000204     0.001200     YES
 Predicted change in Energy=-3.187242D-08
 Optimization completed.
    -- Stationary point found.
 GradGradGradGradGradGradGradGradGradGradGradGradGradGradGradGradGradGrad

 Leave Link  103 at Mon Oct 24 01:34:56 2016, MaxMem=    33554432 cpu:         0.1
 (Enter /home/proyectos/fulerenos/M3C-v2.0/M3C-deps_CCC/g09-AM64L-G09RevC.01/l9999.exe)
 1\1\GINC-BELVIS17\Freq\RB3LYP\6-311++G(3df,2p)\S6\ROOT\24-Oct-2016\0\\
 #p b3lyp/6-311++G(3df,2p) freq symmetry=Loose\\b3lyp opt\\0,1\S,1.2151
 94762,0.517068495,0.7543557177\S,-1.3199611313,0.8863666439,-1.2638210
 821\S,0.0236374646,-0.6016069772,2.0464420821\S,-1.8290533472,0.341777
 2624,1.911187838\S,0.5327296805,-0.0570175958,-1.128566838\S,-2.511518
 4287,-0.2323088284,0.0282652823\\Version=EM64L-G09RevE.01\State=1-A1G\
 HF=-2389.3749166\RMSD=4.274e-09\RMSF=1.757e-05\ZeroPoint=0.0088631\The
 rmal=0.0166201\Dipole=0.,0.,0.\DipoleDeriv=-0.1396617,0.0709425,-0.033
 7804,-0.0324627,0.0031917,-0.029855,-0.0515169,-0.0132746,0.1363652,0.
 1090524,-0.0067201,-0.1006877,0.0309566,-0.0000181,0.0592349,-0.094955
 3,-0.039884,-0.1090605,0.1090524,-0.0067201,-0.1006877,0.0309566,-0.00
 00181,0.0592349,-0.0949553,-0.039884,-0.1090605,0.0305352,-0.0642219,0
 .1344682,0.0015066,-0.0031845,-0.029369,0.1464723,0.0531695,-0.0273769
 ,0.0305352,-0.0642219,0.1344682,0.0015066,-0.0031845,-0.029369,0.14647
 23,0.0531695,-0.0273769,-0.1396617,0.0709425,-0.0337804,-0.0324627,0.0
 031917,-0.029855,-0.0515169,-0.0132746,0.1363652\Polar=138.7525198,-0.
 3992374,89.815383,-0.0677991,-8.4571686,137.2868053\PG=D03D [3SGD(S2)]
 \NImag=0\\0.09393634,0.04597271,0.07498299,0.00408844,0.00005876,0.118
 28218,-0.01586424,0.00109692,-0.03013365,0.11412756,0.00062371,0.01085
 874,0.00803340,-0.01531330,0.09240969,-0.01381380,0.00603279,-0.004592
 81,-0.01150178,-0.04411704,0.08066426,-0.03395343,-0.02984444,0.016943
 12,-0.01171187,-0.00169449,0.00582814,0.11412756,-0.03339248,-0.060138
 54,0.03020319,-0.00169449,-0.00290180,-0.00277377,-0.01531330,0.092409
 69,0.02389650,0.03201480,-0.03304989,0.00582814,-0.00277377,0.00089250
 ,-0.01150178,-0.04411704,0.08066426,-0.02776469,-0.00672035,0.02217345
 ,0.01015139,0.00482845,-0.00039421,-0.06274900,0.04494796,-0.00401527,
 0.10724343,-0.00123010,0.01413119,-0.00384430,0.00252725,0.01109696,0.
 00683122,0.04322723,-0.05132459,0.00200987,-0.03132200,0.06603744,0.00
 671414,-0.00264814,0.00403519,0.01564865,0.00964102,-0.03084665,0.0032
 1499,-0.00098719,-0.01306828,0.00729882,0.02990724,0.11392065,-0.01998
 343,-0.01198205,-0.01615547,-0.06274900,0.04494796,-0.00401527,0.01015
 139,0.00482845,-0.00039421,-0.00689759,0.00024638,-0.00890704,0.107243
 43,-0.01344922,-0.03568293,-0.03638112,0.04322723,-0.05132459,0.002009
 87,0.00252725,0.01109696,0.00683122,0.00024638,-0.00425846,0.00147750,
 -0.03132200,0.06603744,-0.02396907,-0.03738857,-0.07147551,0.00321499,
 -0.00098719,-0.01306828,0.01564865,0.00964102,-0.03084665,-0.00890704,
 0.00147750,-0.00256512,0.00729882,0.02990724,0.11392065,0.00362894,0.0
 0147780,0.00308404,-0.03395343,-0.03339248,0.02389650,-0.01586424,0.00
 062371,-0.01381380,-0.01998343,-0.01344922,-0.02396907,-0.02776469,-0.
 00123010,0.00671414,0.09393634,0.00147780,-0.00415155,0.00193034,-0.02
 984444,-0.06013854,0.03201480,0.00109692,0.01085874,0.00603279,-0.0119
 8205,-0.03568293,-0.03738857,-0.00672035,0.01413119,-0.00264814,0.0459
 7271,0.07498299,0.00308404,0.00193034,-0.01319856,0.01694312,0.0302031
 9,-0.03304989,-0.03013365,0.00803340,-0.00459281,-0.01615547,-0.036381
 12,-0.07147551,0.02217345,-0.00384430,0.00403519,0.00408844,0.00005876
 ,0.11828218\\-0.00001958,0.00002328,0.00000085,0.00000736,0.00001936,0
 .00002230,-0.00000736,-0.00001936,-0.00002230,0.00001277,0.00002514,-0
 .00001144,-0.00001277,-0.00002514,0.00001144,0.00001958,-0.00002328,-0
 .00000085\\\@


 EDUCATION IS NOT TRAINING BUT RATHER THE PROCESS THAT EQUIPS YOU TO
 ENTERTAIN YOURSELF, A FRIEND, OR AN IDEA.  -- WALLACE STERLING
 Job cpu time:       0 days  0 hours 24 minutes 24.2 seconds.
 File lengths (MBytes):  RWF=     51 Int=      0 D2E=      0 Chk=      6 Scr=      1
 Normal termination of Gaussian 09 at Mon Oct 24 01:34:56 2016.
