 Entering Gaussian System, Link 0=/home/proyectos/fulerenos/M3C-v2.0/M3C-deps_CCC/g09-AM64L-G09RevC.01/g09
 Initial command:
 /home/proyectos/fulerenos/M3C-v2.0/M3C-deps_CCC/g09-AM64L-G09RevC.01/l1.exe "/scratch/naguirre/gaussian/Gau-24936.inp" -scrdir="/scratch/naguirre/gaussian/"
 Entering Link 1 = /home/proyectos/fulerenos/M3C-v2.0/M3C-deps_CCC/g09-AM64L-G09RevC.01/l1.exe PID=     24944.
  
 Copyright (c) 1988,1990,1992,1993,1995,1998,2003,2009,2015,
            Gaussian, Inc.  All Rights Reserved.
  
 This is part of the Gaussian(R) 09 program.  It is based on
 the Gaussian(R) 03 system (copyright 2003, Gaussian, Inc.),
 the Gaussian(R) 98 system (copyright 1998, Gaussian, Inc.),
 the Gaussian(R) 94 system (copyright 1995, Gaussian, Inc.),
 the Gaussian 92(TM) system (copyright 1992, Gaussian, Inc.),
 the Gaussian 90(TM) system (copyright 1990, Gaussian, Inc.),
 the Gaussian 88(TM) system (copyright 1988, Gaussian, Inc.),
 the Gaussian 86(TM) system (copyright 1986, Carnegie Mellon
 University), and the Gaussian 82(TM) system (copyright 1983,
 Carnegie Mellon University). Gaussian is a federally registered
 trademark of Gaussian, Inc.
  
 This software contains proprietary and confidential information,
 including trade secrets, belonging to Gaussian, Inc.
  
 This software is provided under written license and may be
 used, copied, transmitted, or stored only in accord with that
 written license.
  
 The following legend is applicable only to US Government
 contracts under FAR:
  
                    RESTRICTED RIGHTS LEGEND
  
 Use, reproduction and disclosure by the US Government is
 subject to restrictions as set forth in subparagraphs (a)
 and (c) of the Commercial Computer Software - Restricted
 Rights clause in FAR 52.227-19.
  
 Gaussian, Inc.
 340 Quinnipiac St., Bldg. 40, Wallingford CT 06492
  
  
 ---------------------------------------------------------------
 Warning -- This program may not be used in any manner that
 competes with the business of Gaussian, Inc. or will provide
 assistance to any competitor of Gaussian, Inc.  The licensee
 of this program is prohibited from giving any competitor of
 Gaussian, Inc. access to this program.  By using this program,
 the user acknowledges that Gaussian, Inc. is engaged in the
 business of creating and licensing software in the field of
 computational chemistry and represents and warrants to the
 licensee that it is not a competitor of Gaussian, Inc. and that
 it will not use this program in any manner prohibited above.
 ---------------------------------------------------------------
  

 Cite this work as:
 Gaussian 09, Revision E.01,
 M. J. Frisch, G. W. Trucks, H. B. Schlegel, G. E. Scuseria, 
 M. A. Robb, J. R. Cheeseman, G. Scalmani, V. Barone, B. Mennucci, 
 G. A. Petersson, H. Nakatsuji, M. Caricato, X. Li, H. P. Hratchian, 
 A. F. Izmaylov, J. Bloino, G. Zheng, J. L. Sonnenberg, M. Hada, 
 M. Ehara, K. Toyota, R. Fukuda, J. Hasegawa, M. Ishida, T. Nakajima, 
 Y. Honda, O. Kitao, H. Nakai, T. Vreven, J. A. Montgomery, Jr., 
 J. E. Peralta, F. Ogliaro, M. Bearpark, J. J. Heyd, E. Brothers, 
 K. N. Kudin, V. N. Staroverov, T. Keith, R. Kobayashi, J. Normand, 
 K. Raghavachari, A. Rendell, J. C. Burant, S. S. Iyengar, J. Tomasi, 
 M. Cossi, N. Rega, J. M. Millam, M. Klene, J. E. Knox, J. B. Cross, 
 V. Bakken, C. Adamo, J. Jaramillo, R. Gomperts, R. E. Stratmann, 
 O. Yazyev, A. J. Austin, R. Cammi, C. Pomelli, J. W. Ochterski, 
 R. L. Martin, K. Morokuma, V. G. Zakrzewski, G. A. Voth, 
 P. Salvador, J. J. Dannenberg, S. Dapprich, A. D. Daniels, 
 O. Farkas, J. B. Foresman, J. V. Ortiz, J. Cioslowski, 
 and D. J. Fox, Gaussian, Inc., Wallingford CT, 2013.
 
 ******************************************
 Gaussian 09:  EM64L-G09RevE.01 30-Nov-2015
                 3-Aug-2016 
 ******************************************
 %NProcShared=4
 Will use up to    4 processors via shared memory.
 ------------------------------
 #p b3lyp/6-311++G(3df,2p) freq
 ------------------------------
 1/10=4,30=1,38=1/1,3;
 2/12=2,17=6,18=5,40=1/2;
 3/5=4,6=6,7=1216,11=2,16=1,25=1,30=1,71=2,74=-5,140=1/1,2,3;
 4//1;
 5/5=2,38=5,98=1/2;
 8/6=4,10=90,11=11/1;
 11/6=1,8=1,9=11,15=111,16=1/1,2,10;
 10/6=1/2;
 6/7=2,8=2,9=2,10=2,18=1,28=1/1;
 7/8=1,10=1,25=1/1,2,3,16;
 1/10=4,30=1/3;
 99//99;
 Leave Link    1 at Wed Aug  3 20:49:26 2016, MaxMem=           0 cpu:         0.3
 (Enter /home/proyectos/fulerenos/M3C-v2.0/M3C-deps_CCC/g09-AM64L-G09RevC.01/l101.exe)
 ---------
 b3lyp opt
 ---------
 Symbolic Z-matrix:
 Charge =  1 Multiplicity = 2
 S                     0.51985   0.        0. 
 C                     2.00605   0.        0. 
 
 NAtoms=      2 NQM=        2 NQMF=       0 NMMI=      0 NMMIF=      0
                NMic=       0 NMicF=      0.
                    Isotopes and Nuclear Properties:
 (Nuclear quadrupole moments (NQMom) in fm**2, nuclear magnetic moments (NMagM)
  in nuclear magnetons)

  Atom         1           2
 IAtWgt=          32          12
 AtmWgt=  31.9720718  12.0000000
 NucSpn=           0           0
 AtZEff=   0.0000000   0.0000000
 NQMom=    0.0000000   0.0000000
 NMagM=    0.0000000   0.0000000
 AtZNuc=  16.0000000   6.0000000
 Leave Link  101 at Wed Aug  3 20:49:26 2016, MaxMem=    33554432 cpu:         0.2
 (Enter /home/proyectos/fulerenos/M3C-v2.0/M3C-deps_CCC/g09-AM64L-G09RevC.01/l103.exe)

 GradGradGradGradGradGradGradGradGradGradGradGradGradGradGradGradGradGrad
 Berny optimization.
 Initialization pass.
 Trust Radius=3.00D-01 FncErr=1.00D-07 GrdErr=1.00D-07
 Number of steps in this run=      2 maximum allowed number of steps=      2.
 GradGradGradGradGradGradGradGradGradGradGradGradGradGradGradGradGradGrad

 Leave Link  103 at Wed Aug  3 20:49:27 2016, MaxMem=    33554432 cpu:         0.1
 (Enter /home/proyectos/fulerenos/M3C-v2.0/M3C-deps_CCC/g09-AM64L-G09RevC.01/l202.exe)
                          Input orientation:                          
 ---------------------------------------------------------------------
 Center     Atomic      Atomic             Coordinates (Angstroms)
 Number     Number       Type             X           Y           Z
 ---------------------------------------------------------------------
      1         16           0        0.519848    0.000000    0.000000
      2          6           0        2.006046    0.000000    0.000000
 ---------------------------------------------------------------------
 Stoichiometry    CS(1+,2)
 Framework group  C*V[C*(CS)]
 Deg. of freedom     1
 Full point group                 C*V     NOp   4
 Largest Abelian subgroup         C2V     NOp   4
 Largest concise Abelian subgroup C1      NOp   1
                         Standard orientation:                         
 ---------------------------------------------------------------------
 Center     Atomic      Atomic             Coordinates (Angstroms)
 Number     Number       Type             X           Y           Z
 ---------------------------------------------------------------------
      1         16           0        0.000000    0.000000    0.405327
      2          6           0        0.000000    0.000000   -1.080871
 ---------------------------------------------------------------------
 Rotational constants (GHZ):      0.0000000     26.2233852     26.2233852
 Leave Link  202 at Wed Aug  3 20:49:27 2016, MaxMem=    33554432 cpu:         0.0
 (Enter /home/proyectos/fulerenos/M3C-v2.0/M3C-deps_CCC/g09-AM64L-G09RevC.01/l301.exe)
 Standard basis: 6-311++G(3df,2p) (5D, 7F)
 Ernie: Thresh=  0.10000D-02 Tol=  0.10000D-05 Strict=F.
 There are    46 symmetry adapted cartesian basis functions of A1  symmetry.
 There are     8 symmetry adapted cartesian basis functions of A2  symmetry.
 There are    22 symmetry adapted cartesian basis functions of B1  symmetry.
 There are    22 symmetry adapted cartesian basis functions of B2  symmetry.
 There are    38 symmetry adapted basis functions of A1  symmetry.
 There are     8 symmetry adapted basis functions of A2  symmetry.
 There are    20 symmetry adapted basis functions of B1  symmetry.
 There are    20 symmetry adapted basis functions of B2  symmetry.
    86 basis functions,   130 primitive gaussians,    98 cartesian basis functions
    11 alpha electrons       10 beta electrons
       nuclear repulsion energy        34.1818600379 Hartrees.
 IExCor=  402 DFT=T Ex+Corr=B3LYP ExCW=0 ScaHFX=  0.200000
 ScaDFX=  0.800000  0.720000  1.000000  0.810000 ScalE2=  1.000000  1.000000
 IRadAn=      0 IRanWt=     -1 IRanGd=            0 ICorTp=0 IEmpDi=  4
 NAtoms=    2 NActive=    2 NUniq=    2 SFac= 1.00D+00 NAtFMM=   60 NAOKFM=F Big=F
 Integral buffers will be    131072 words long.
 Raffenetti 2 integral format.
 Two-electron integral symmetry is turned on.
 Leave Link  301 at Wed Aug  3 20:49:27 2016, MaxMem=    33554432 cpu:         0.2
 (Enter /home/proyectos/fulerenos/M3C-v2.0/M3C-deps_CCC/g09-AM64L-G09RevC.01/l302.exe)
 NPDir=0 NMtPBC=     1 NCelOv=     1 NCel=       1 NClECP=     1 NCelD=      1
         NCelK=      1 NCelE2=     1 NClLst=     1 CellRange=     0.0.
 One-electron integrals computed using PRISM.
 NBasis=    86 RedAO= T EigKep=  7.37D-04  NBF=    38     8    20    20
 NBsUse=    86 1.00D-06 EigRej= -1.00D+00 NBFU=    38     8    20    20
 Precomputing XC quadrature grid using
 IXCGrd= 4 IRadAn=           0 IRanWt=          -1 IRanGd=           0 AccXCQ= 0.00D+00.
 Generated NRdTot=       0 NPtTot=           0 NUsed=           0 NTot=          32
 NSgBfM=    98    98    98    98    98 MxSgAt=     2 MxSgA2=     2.
 Leave Link  302 at Wed Aug  3 20:49:27 2016, MaxMem=    33554432 cpu:         0.8
 (Enter /home/proyectos/fulerenos/M3C-v2.0/M3C-deps_CCC/g09-AM64L-G09RevC.01/l303.exe)
 DipDrv:  MaxL=1.
 Leave Link  303 at Wed Aug  3 20:49:27 2016, MaxMem=    33554432 cpu:         0.1
 (Enter /home/proyectos/fulerenos/M3C-v2.0/M3C-deps_CCC/g09-AM64L-G09RevC.01/l401.exe)
 ExpMin= 4.05D-02 ExpMax= 9.34D+04 ExpMxC= 3.17D+03 IAcc=2 IRadAn=         4 AccDes= 0.00D+00
 Harris functional with IExCor=  402 and IRadAn=       4 diagonalized for initial guess.
 HarFok:  IExCor=  402 AccDes= 0.00D+00 IRadAn=         4 IDoV= 1 UseB2=F ITyADJ=14
 ICtDFT=  3500011 ScaDFX=  1.000000  1.000000  1.000000  1.000000
 FoFCou: FMM=F IPFlag=           0 FMFlag=      100000 FMFlg1=           0
         NFxFlg=           0 DoJE=T BraDBF=F KetDBF=T FulRan=T
         wScrn=  0.000000 ICntrl=     500 IOpCl=  0 I1Cent=   200000004 NGrid=           0
         NMat0=    1 NMatS0=      1 NMatT0=    0 NMatD0=    1 NMtDS0=    0 NMtDT0=    0
 Petite list used in FoFCou.
 Harris En= -435.913097370776    
 JPrj=0 DoOrth=F DoCkMO=F.
 Initial guess orbital symmetries:
 Alpha Orbitals:
       Occupied  (SG) (SG) (SG) (SG) (PI) (PI) (SG) (SG) (PI) (PI)
                 (SG)
       Virtual   (PI) (PI) (SG) (SG) (PI) (PI) (SG) (PI) (PI) (SG)
                 (SG) (DLTA) (DLTA) (PI) (PI) (SG) (PI) (PI) (SG)
                 (DLTA) (DLTA) (PI) (PI) (SG) (SG) (PI) (PI) (SG)
                 (SG) (PI) (PI) (DLTA) (DLTA) (SG) (DLTA) (DLTA)
                 (PI) (PI) (PHI) (PHI) (PI) (PI) (DLTA) (DLTA)
                 (SG) (SG) (PI) (PI) (SG) (PI) (PI) (PHI) (PHI)
                 (SG) (DLTA) (DLTA) (PI) (PI) (SG) (DLTA) (DLTA)
                 (PI) (PI) (SG) (DLTA) (DLTA) (PI) (PI) (SG) (SG)
                 (PI) (PI) (SG) (SG) (SG)
 Beta  Orbitals:
       Occupied  (SG) (SG) (SG) (SG) (PI) (PI) (SG) (SG) (PI) (PI)
       Virtual   (SG) (PI) (PI) (SG) (SG) (PI) (PI) (SG) (PI) (PI)
                 (SG) (SG) (DLTA) (DLTA) (PI) (PI) (SG) (PI) (PI)
                 (SG) (DLTA) (DLTA) (PI) (PI) (SG) (SG) (PI) (PI)
                 (SG) (SG) (PI) (PI) (DLTA) (DLTA) (SG) (DLTA)
                 (DLTA) (PI) (PI) (PHI) (PHI) (PI) (PI) (DLTA)
                 (DLTA) (SG) (SG) (PI) (PI) (SG) (PI) (PI) (PHI)
                 (PHI) (SG) (DLTA) (DLTA) (PI) (PI) (SG) (DLTA)
                 (DLTA) (PI) (PI) (SG) (DLTA) (DLTA) (PI) (PI)
                 (SG) (SG) (PI) (PI) (SG) (SG) (SG)
 The electronic state of the initial guess is 2-SG.
 Initial guess <Sx>= 0.0000 <Sy>= 0.0000 <Sz>= 0.5000 <S**2>= 0.7500 S= 0.5000
 Leave Link  401 at Wed Aug  3 20:49:27 2016, MaxMem=    33554432 cpu:         0.8
 (Enter /home/proyectos/fulerenos/M3C-v2.0/M3C-deps_CCC/g09-AM64L-G09RevC.01/l502.exe)
 UHF open shell SCF:
 Using DIIS extrapolation, IDIIS=  1040.
 Integral symmetry usage will be decided dynamically.
 Keep R1 and R2 ints in memory in symmetry-blocked form, NReq=9022508.
 IVT=       48740 IEndB=       48740 NGot=    33554432 MDV=    29870235
 LenX=    29870235 LenY=    29860190
 Requested convergence on RMS density matrix=1.00D-08 within 128 cycles.
 Requested convergence on MAX density matrix=1.00D-06.
 Requested convergence on             energy=1.00D-06.
 No special actions if energy rises.
 FoFCou: FMM=F IPFlag=           0 FMFlag=           0 FMFlg1=           0
         NFxFlg=           0 DoJE=F BraDBF=F KetDBF=F FulRan=T
         wScrn=  0.000000 ICntrl=     600 IOpCl=  0 I1Cent=           0 NGrid=           0
         NMat0=    1 NMatS0=   3741 NMatT0=    0 NMatD0=    1 NMtDS0=    0 NMtDT0=    0
 Petite list used in FoFCou.

 Cycle   1  Pass 1  IDiag  1:
 E= -435.775371505279    
 DIIS: error= 2.91D-02 at cycle   1 NSaved=   1.
 NSaved= 1 IEnMin= 1 EnMin= -435.775371505279     IErMin= 1 ErrMin= 2.91D-02
 ErrMax= 2.91D-02  0.00D+00 EMaxC= 1.00D-01 BMatC= 2.67D-01 BMatP= 2.67D-01
 IDIUse=3 WtCom= 7.09D-01 WtEn= 2.91D-01
 Coeff-Com:  0.100D+01
 Coeff-En:   0.100D+01
 Coeff:      0.100D+01
 Gap=     0.244 Goal=   None    Shift=    0.000
 Gap=     0.170 Goal=   None    Shift=    0.000
 GapD=    0.170 DampG=1.000 DampE=0.500 DampFc=0.5000 IDamp=-1.
 Damping current iteration by 5.00D-01
 RMSDP=6.17D-03 MaxDP=1.57D-01              OVMax= 2.93D-01

 Cycle   2  Pass 1  IDiag  1:
 E= -435.764644250644     Delta-E=        0.010727254635 Rises=F Damp=T
 DIIS: error= 2.79D-02 at cycle   2 NSaved=   2.
 NSaved= 2 IEnMin= 1 EnMin= -435.775371505279     IErMin= 2 ErrMin= 2.79D-02
 ErrMax= 2.79D-02  0.00D+00 EMaxC= 1.00D-01 BMatC= 1.13D-01 BMatP= 2.67D-01
 IDIUse=3 WtCom= 7.21D-01 WtEn= 2.79D-01
 Coeff-Com:  0.353D+00 0.647D+00
 Coeff-En:   0.558D+00 0.442D+00
 Coeff:      0.410D+00 0.590D+00
 Gap=     0.242 Goal=   None    Shift=    0.000
 Gap=     0.111 Goal=   None    Shift=    0.000
 RMSDP=2.47D-03 MaxDP=6.40D-02 DE= 1.07D-02 OVMax= 2.51D-01

 Cycle   3  Pass 1  IDiag  1:
 E= -435.830800579724     Delta-E=       -0.066156329079 Rises=F Damp=F
 DIIS: error= 1.31D-02 at cycle   3 NSaved=   3.
 NSaved= 3 IEnMin= 3 EnMin= -435.830800579724     IErMin= 3 ErrMin= 1.31D-02
 ErrMax= 1.31D-02  0.00D+00 EMaxC= 1.00D-01 BMatC= 2.15D-02 BMatP= 1.13D-01
 IDIUse=3 WtCom= 8.69D-01 WtEn= 1.31D-01
 Coeff-Com:  0.646D-02 0.284D+00 0.710D+00
 Coeff-En:   0.000D+00 0.000D+00 0.100D+01
 Coeff:      0.561D-02 0.247D+00 0.748D+00
 Gap=     0.271 Goal=   None    Shift=    0.000
 Gap=     0.148 Goal=   None    Shift=    0.000
 RMSDP=8.98D-04 MaxDP=3.13D-02 DE=-6.62D-02 OVMax= 5.54D-02

 Cycle   4  Pass 1  IDiag  1:
 E= -435.835098657792     Delta-E=       -0.004298078069 Rises=F Damp=F
 DIIS: error= 8.28D-03 at cycle   4 NSaved=   4.
 NSaved= 4 IEnMin= 4 EnMin= -435.835098657792     IErMin= 4 ErrMin= 8.28D-03
 ErrMax= 8.28D-03  0.00D+00 EMaxC= 1.00D-01 BMatC= 6.83D-03 BMatP= 2.15D-02
 IDIUse=3 WtCom= 9.17D-01 WtEn= 8.28D-02
 Coeff-Com:  0.249D-01-0.797D-01 0.245D+00 0.810D+00
 Coeff-En:   0.000D+00 0.000D+00 0.287D+00 0.713D+00
 Coeff:      0.228D-01-0.731D-01 0.248D+00 0.802D+00
 Gap=     0.271 Goal=   None    Shift=    0.000
 Gap=     0.147 Goal=   None    Shift=    0.000
 RMSDP=3.62D-04 MaxDP=1.31D-02 DE=-4.30D-03 OVMax= 2.94D-02

 Cycle   5  Pass 1  IDiag  1:
 E= -435.837251462834     Delta-E=       -0.002152805042 Rises=F Damp=F
 DIIS: error= 1.17D-03 at cycle   5 NSaved=   5.
 NSaved= 5 IEnMin= 5 EnMin= -435.837251462834     IErMin= 5 ErrMin= 1.17D-03
 ErrMax= 1.17D-03  0.00D+00 EMaxC= 1.00D-01 BMatC= 9.18D-05 BMatP= 6.83D-03
 IDIUse=3 WtCom= 9.88D-01 WtEn= 1.17D-02
 Coeff-Com: -0.103D-01 0.230D-01-0.703D-01-0.161D+00 0.122D+01
 Coeff-En:   0.000D+00 0.000D+00 0.000D+00 0.000D+00 0.100D+01
 Coeff:     -0.101D-01 0.228D-01-0.694D-01-0.159D+00 0.122D+01
 Gap=     0.271 Goal=   None    Shift=    0.000
 Gap=     0.150 Goal=   None    Shift=    0.000
 RMSDP=1.52D-04 MaxDP=4.60D-03 DE=-2.15D-03 OVMax= 9.83D-03

 Cycle   6  Pass 1  IDiag  1:
 E= -435.837414124482     Delta-E=       -0.000162661648 Rises=F Damp=F
 DIIS: error= 5.01D-04 at cycle   6 NSaved=   6.
 NSaved= 6 IEnMin= 6 EnMin= -435.837414124482     IErMin= 6 ErrMin= 5.01D-04
 ErrMax= 5.01D-04  0.00D+00 EMaxC= 1.00D-01 BMatC= 2.68D-05 BMatP= 9.18D-05
 IDIUse=3 WtCom= 9.95D-01 WtEn= 5.01D-03
 Coeff-Com: -0.224D-02 0.698D-02-0.329D-01-0.884D-01-0.508D-01 0.117D+01
 Coeff-En:   0.000D+00 0.000D+00 0.000D+00 0.000D+00 0.000D+00 0.100D+01
 Coeff:     -0.222D-02 0.695D-02-0.327D-01-0.880D-01-0.506D-01 0.117D+01
 Gap=     0.271 Goal=   None    Shift=    0.000
 Gap=     0.150 Goal=   None    Shift=    0.000
 RMSDP=1.07D-04 MaxDP=3.52D-03 DE=-1.63D-04 OVMax= 7.56D-03

 Cycle   7  Pass 1  IDiag  1:
 E= -435.837481871314     Delta-E=       -0.000067746832 Rises=F Damp=F
 DIIS: error= 3.45D-04 at cycle   7 NSaved=   7.
 NSaved= 7 IEnMin= 7 EnMin= -435.837481871314     IErMin= 7 ErrMin= 3.45D-04
 ErrMax= 3.45D-04  0.00D+00 EMaxC= 1.00D-01 BMatC= 1.25D-05 BMatP= 2.68D-05
 IDIUse=3 WtCom= 9.97D-01 WtEn= 3.45D-03
 Coeff-Com:  0.273D-02-0.171D-02 0.161D-01 0.140D-01-0.717D+00 0.405D+00
 Coeff-Com:  0.128D+01
 Coeff-En:   0.000D+00 0.000D+00 0.000D+00 0.000D+00 0.000D+00 0.000D+00
 Coeff-En:   0.100D+01
 Coeff:      0.273D-02-0.170D-02 0.161D-01 0.140D-01-0.715D+00 0.404D+00
 Coeff:      0.128D+01
 Gap=     0.271 Goal=   None    Shift=    0.000
 Gap=     0.151 Goal=   None    Shift=    0.000
 RMSDP=1.26D-04 MaxDP=3.93D-03 DE=-6.77D-05 OVMax= 8.56D-03

 Cycle   8  Pass 1  IDiag  1:
 E= -435.837515935408     Delta-E=       -0.000034064095 Rises=F Damp=F
 DIIS: error= 7.47D-05 at cycle   8 NSaved=   8.
 NSaved= 8 IEnMin= 8 EnMin= -435.837515935408     IErMin= 8 ErrMin= 7.47D-05
 ErrMax= 7.47D-05  0.00D+00 EMaxC= 1.00D-01 BMatC= 5.10D-07 BMatP= 1.25D-05
 IDIUse=1 WtCom= 1.00D+00 WtEn= 0.00D+00
 Coeff-Com:  0.255D-03-0.811D-03 0.429D-02 0.171D-01 0.352D-01-0.410D-01
 Coeff-Com: -0.229D+00 0.121D+01
 Coeff:      0.255D-03-0.811D-03 0.429D-02 0.171D-01 0.352D-01-0.410D-01
 Coeff:     -0.229D+00 0.121D+01
 Gap=     0.271 Goal=   None    Shift=    0.000
 Gap=     0.151 Goal=   None    Shift=    0.000
 RMSDP=1.53D-05 MaxDP=5.62D-04 DE=-3.41D-05 OVMax= 1.13D-03

 Cycle   9  Pass 1  IDiag  1:
 E= -435.837516537991     Delta-E=       -0.000000602582 Rises=F Damp=F
 DIIS: error= 1.02D-05 at cycle   9 NSaved=   9.
 NSaved= 9 IEnMin= 9 EnMin= -435.837516537991     IErMin= 9 ErrMin= 1.02D-05
 ErrMax= 1.02D-05  0.00D+00 EMaxC= 1.00D-01 BMatC= 1.66D-08 BMatP= 5.10D-07
 IDIUse=1 WtCom= 1.00D+00 WtEn= 0.00D+00
 Coeff-Com: -0.799D-04 0.123D-03-0.169D-02-0.475D-02 0.217D-01-0.591D-02
 Coeff-Com: -0.982D-02-0.218D+00 0.122D+01
 Coeff:     -0.799D-04 0.123D-03-0.169D-02-0.475D-02 0.217D-01-0.591D-02
 Coeff:     -0.982D-02-0.218D+00 0.122D+01
 Gap=     0.271 Goal=   None    Shift=    0.000
 Gap=     0.151 Goal=   None    Shift=    0.000
 RMSDP=2.01D-06 MaxDP=4.50D-05 DE=-6.03D-07 OVMax= 1.11D-04

 Cycle  10  Pass 1  IDiag  1:
 E= -435.837516549776     Delta-E=       -0.000000011785 Rises=F Damp=F
 DIIS: error= 9.77D-07 at cycle  10 NSaved=  10.
 NSaved=10 IEnMin=10 EnMin= -435.837516549776     IErMin=10 ErrMin= 9.77D-07
 ErrMax= 9.77D-07  0.00D+00 EMaxC= 1.00D-01 BMatC= 2.54D-10 BMatP= 1.66D-08
 IDIUse=1 WtCom= 1.00D+00 WtEn= 0.00D+00
 Coeff-Com: -0.212D-04 0.581D-04-0.139D-03-0.707D-03-0.899D-03 0.126D-02
 Coeff-Com:  0.887D-02-0.464D-01-0.226D-01 0.106D+01
 Coeff:     -0.212D-04 0.581D-04-0.139D-03-0.707D-03-0.899D-03 0.126D-02
 Coeff:      0.887D-02-0.464D-01-0.226D-01 0.106D+01
 Gap=     0.271 Goal=   None    Shift=    0.000
 Gap=     0.151 Goal=   None    Shift=    0.000
 RMSDP=2.60D-07 MaxDP=7.28D-06 DE=-1.18D-08 OVMax= 1.46D-05

 Cycle  11  Pass 1  IDiag  1:
 E= -435.837516549913     Delta-E=       -0.000000000138 Rises=F Damp=F
 DIIS: error= 2.15D-07 at cycle  11 NSaved=  11.
 NSaved=11 IEnMin=11 EnMin= -435.837516549913     IErMin=11 ErrMin= 2.15D-07
 ErrMax= 2.15D-07  0.00D+00 EMaxC= 1.00D-01 BMatC= 8.61D-12 BMatP= 2.54D-10
 IDIUse=1 WtCom= 1.00D+00 WtEn= 0.00D+00
 Coeff-Com:  0.107D-05-0.267D-05 0.478D-04 0.136D-03-0.718D-03-0.361D-04
 Coeff-Com:  0.615D-03 0.801D-02-0.302D-01 0.229D-01 0.999D+00
 Coeff:      0.107D-05-0.267D-05 0.478D-04 0.136D-03-0.718D-03-0.361D-04
 Coeff:      0.615D-03 0.801D-02-0.302D-01 0.229D-01 0.999D+00
 Gap=     0.271 Goal=   None    Shift=    0.000
 Gap=     0.151 Goal=   None    Shift=    0.000
 RMSDP=2.27D-08 MaxDP=5.69D-07 DE=-1.38D-10 OVMax= 1.18D-06

 Cycle  12  Pass 1  IDiag  1:
 E= -435.837516549917     Delta-E=       -0.000000000004 Rises=F Damp=F
 DIIS: error= 8.55D-08 at cycle  12 NSaved=  12.
 NSaved=12 IEnMin=12 EnMin= -435.837516549917     IErMin=12 ErrMin= 8.55D-08
 ErrMax= 8.55D-08  0.00D+00 EMaxC= 1.00D-01 BMatC= 1.03D-12 BMatP= 8.61D-12
 IDIUse=1 WtCom= 1.00D+00 WtEn= 0.00D+00
 Coeff-Com:  0.622D-06-0.160D-05-0.105D-06 0.161D-04 0.680D-04 0.419D-04
 Coeff-Com: -0.328D-03 0.140D-03 0.471D-02-0.442D-01-0.134D+00 0.117D+01
 Coeff:      0.622D-06-0.160D-05-0.105D-06 0.161D-04 0.680D-04 0.419D-04
 Coeff:     -0.328D-03 0.140D-03 0.471D-02-0.442D-01-0.134D+00 0.117D+01
 Gap=     0.271 Goal=   None    Shift=    0.000
 Gap=     0.151 Goal=   None    Shift=    0.000
 RMSDP=1.05D-08 MaxDP=3.04D-07 DE=-3.81D-12 OVMax= 6.13D-07

 Cycle  13  Pass 1  IDiag  1:
 E= -435.837516549917     Delta-E=       -0.000000000000 Rises=F Damp=F
 DIIS: error= 1.35D-08 at cycle  13 NSaved=  13.
 NSaved=13 IEnMin=13 EnMin= -435.837516549917     IErMin=13 ErrMin= 1.35D-08
 ErrMax= 1.35D-08  0.00D+00 EMaxC= 1.00D-01 BMatC= 2.09D-14 BMatP= 1.03D-12
 IDIUse=1 WtCom= 1.00D+00 WtEn= 0.00D+00
 Coeff-Com:  0.216D-08 0.113D-07-0.371D-06-0.265D-05 0.107D-04-0.997D-05
 Coeff-Com: -0.422D-05-0.889D-05-0.141D-03 0.230D-02-0.181D-02-0.830D-01
 Coeff-Com:  0.108D+01
 Coeff:      0.216D-08 0.113D-07-0.371D-06-0.265D-05 0.107D-04-0.997D-05
 Coeff:     -0.422D-05-0.889D-05-0.141D-03 0.230D-02-0.181D-02-0.830D-01
 Coeff:      0.108D+01
 Gap=     0.271 Goal=   None    Shift=    0.000
 Gap=     0.151 Goal=   None    Shift=    0.000
 RMSDP=8.80D-10 MaxDP=2.85D-08 DE=-3.41D-13 OVMax= 6.46D-08

 SCF Done:  E(UB3LYP) =  -435.837516550     A.U. after   13 cycles
            NFock= 13  Conv=0.88D-09     -V/T= 2.0016
 <Sx>= 0.0000 <Sy>= 0.0000 <Sz>= 0.5000 <S**2>= 0.7852 S= 0.5175
 <L.S>= 0.000000000000E+00
 KE= 4.351580253668D+02 PE=-1.095973576845D+03 EE= 1.907961748898D+02
 Annihilation of the first spin contaminant:
 S**2 before annihilation     0.7852,   after     0.7508
 Leave Link  502 at Wed Aug  3 20:49:29 2016, MaxMem=    33554432 cpu:         6.5
 (Enter /home/proyectos/fulerenos/M3C-v2.0/M3C-deps_CCC/g09-AM64L-G09RevC.01/l801.exe)
 DoSCS=F DFT=T ScalE2(SS,OS)=  1.000000  1.000000
 Range of M.O.s used for correlation:     1    86
 NBasis=    86 NAE=    11 NBE=    10 NFC=     0 NFV=     0
 NROrb=     86 NOA=    11 NOB=    10 NVA=    75 NVB=    76

 **** Warning!!: The largest alpha MO coefficient is  0.25543370D+02


 **** Warning!!: The largest beta MO coefficient is  0.26147701D+02

 Leave Link  801 at Wed Aug  3 20:49:29 2016, MaxMem=    33554432 cpu:         0.1
 (Enter /home/proyectos/fulerenos/M3C-v2.0/M3C-deps_CCC/g09-AM64L-G09RevC.01/l1101.exe)
 Using compressed storage, NAtomX=     2.
 Will process      3 centers per pass.
 Leave Link 1101 at Wed Aug  3 20:49:29 2016, MaxMem=    33554432 cpu:         0.8
 (Enter /home/proyectos/fulerenos/M3C-v2.0/M3C-deps_CCC/g09-AM64L-G09RevC.01/l1102.exe)
 Symmetrizing basis deriv contribution to polar:
 IMax=3 JMax=2 DiffMx= 0.00D+00
 Leave Link 1102 at Wed Aug  3 20:49:29 2016, MaxMem=    33554432 cpu:         0.1
 (Enter /home/proyectos/fulerenos/M3C-v2.0/M3C-deps_CCC/g09-AM64L-G09RevC.01/l1110.exe)
 Forming Gx(P) for the SCF density, NAtomX=     2.
 Integral derivatives from FoFJK, PRISM(SPDF).
 Do as many integral derivatives as possible in FoFJK.
 G2DrvN: MDV=      33554312.
 G2DrvN: will do     3 centers at a time, making    1 passes.
 Calling FoFCou, ICntrl=  3107 FMM=F I1Cent=   0 AccDes= 0.00D+00.
 FoFJK:  IHMeth= 1 ICntrl=    3107 DoSepK=F KAlg= 0 I1Cent=   0 FoldK=F
 IRaf=         0 NMat=   1 IRICut=       1 DoRegI=T DoRafI=F ISym2E= 1.
 FoFCou: FMM=F IPFlag=           0 FMFlag=      100000 FMFlg1=           0
         NFxFlg=           0 DoJE=F BraDBF=F KetDBF=F FulRan=T
         wScrn=  0.000000 ICntrl=    3107 IOpCl=  1 I1Cent=           0 NGrid=           0
         NMat0=    1 NMatS0=      1 NMatT0=    0 NMatD0=    1 NMtDS0=    0 NMtDT0=    0
 Petite list used in FoFCou.
 End of G2Drv F.D. properties file   721 does not exist.
 End of G2Drv F.D. properties file   722 does not exist.
 End of G2Drv F.D. properties file   788 does not exist.
 Leave Link 1110 at Wed Aug  3 20:49:32 2016, MaxMem=    33554432 cpu:         9.7
 (Enter /home/proyectos/fulerenos/M3C-v2.0/M3C-deps_CCC/g09-AM64L-G09RevC.01/l1002.exe)
 Minotr:  UHF open shell wavefunction.
          IDoAtm=11
          Direct CPHF calculation.
          Differentiating once with respect to electric field.
                with respect to dipole field.
          Differentiating once with respect to nuclear coordinates.
          Using symmetry in CPHF.
          Requested convergence is 1.0D-08 RMS, and 1.0D-07 maximum.
          Secondary convergence is 1.0D-12 RMS, and 1.0D-12 maximum.
          NewPWx=T KeepS1=F KeepF1=F KeepIn=T MapXYZ=F SortEE=F KeepMc=T.
          MDV=      33554236 using IRadAn=       2.
 Generate precomputed XC quadrature information.
 Keep R1 and R2 ints in memory in symmetry-blocked form, NReq=8986178.
 FoFCou: FMM=F IPFlag=           0 FMFlag=           0 FMFlg1=           0
         NFxFlg=           0 DoJE=F BraDBF=F KetDBF=F FulRan=T
         wScrn=  0.000000 ICntrl=     600 IOpCl=  0 I1Cent=           0 NGrid=           0
         NMat0=    1 NMatS0=   3741 NMatT0=    0 NMatD0=    1 NMtDS0=    0 NMtDT0=    0
 Petite list used in FoFCou.
          Solving linear equations simultaneously, MaxMat=       0.
          There are     9 degrees of freedom in the 1st order CPHF.  IDoFFX=6 NUNeed=     3.
      6 vectors produced by pass  0 Test12= 1.76D-14 1.11D-08 XBig12= 1.21D+02 5.15D+00.
 AX will form     6 AO Fock derivatives at one time.
      6 vectors produced by pass  1 Test12= 1.76D-14 1.11D-08 XBig12= 4.73D+01 2.02D+00.
      6 vectors produced by pass  2 Test12= 1.76D-14 1.11D-08 XBig12= 1.92D+00 3.55D-01.
      6 vectors produced by pass  3 Test12= 1.76D-14 1.11D-08 XBig12= 2.31D-01 2.30D-01.
      6 vectors produced by pass  4 Test12= 1.76D-14 1.11D-08 XBig12= 2.03D-03 1.45D-02.
      6 vectors produced by pass  5 Test12= 1.76D-14 1.11D-08 XBig12= 5.45D-05 2.81D-03.
      6 vectors produced by pass  6 Test12= 1.76D-14 1.11D-08 XBig12= 9.65D-07 3.64D-04.
      4 vectors produced by pass  7 Test12= 1.76D-14 1.11D-08 XBig12= 7.89D-09 2.79D-05.
      4 vectors produced by pass  8 Test12= 1.76D-14 1.11D-08 XBig12= 5.18D-11 1.95D-06.
      1 vectors produced by pass  9 Test12= 1.76D-14 1.11D-08 XBig12= 2.66D-13 1.26D-07.
 InvSVY:  IOpt=1 It=  1 EMax= 2.22D-16
 Solved reduced A of dimension    51 with     6 vectors.
 FullF1:  Do perturbations    1 to     3.
 Isotropic polarizability for W=    0.000000       20.67 Bohr**3.
 End of Minotr F.D. properties file   721 does not exist.
 End of Minotr F.D. properties file   722 does not exist.
 End of Minotr F.D. properties file   788 does not exist.
 Leave Link 1002 at Wed Aug  3 20:49:35 2016, MaxMem=    33554432 cpu:        13.3
 (Enter /home/proyectos/fulerenos/M3C-v2.0/M3C-deps_CCC/g09-AM64L-G09RevC.01/l601.exe)
 Copying SCF densities to generalized density rwf, IOpCl= 1 IROHF=0.

 **********************************************************************

            Population analysis using the SCF density.

 **********************************************************************

 Orbital symmetries:
 Alpha Orbitals:
       Occupied  (SG) (SG) (SG) (SG) (PI) (PI) (SG) (SG) (SG) (PI)
                 (PI)
       Virtual   (PI) (PI) (SG) (SG) (PI) (PI) (SG) (DLTA) (DLTA)
                 (SG) (PI) (PI) (SG) (PI) (PI) (SG) (PI) (PI) (SG)
                 (DLTA) (DLTA) (PI) (PI) (SG) (SG) (PI) (PI) (SG)
                 (SG) (PI) (PI) (DLTA) (DLTA) (SG) (DLTA) (DLTA)
                 (PI) (PI) (PHI) (PHI) (PI) (PI) (DLTA) (DLTA)
                 (SG) (SG) (PI) (PI) (SG) (PI) (PI) (PHI) (PHI)
                 (SG) (DLTA) (DLTA) (PI) (PI) (SG) (DLTA) (DLTA)
                 (PI) (PI) (SG) (DLTA) (DLTA) (PI) (PI) (SG) (SG)
                 (PI) (PI) (SG) (SG) (SG)
 Beta  Orbitals:
       Occupied  (SG) (SG) (SG) (PI) (PI) (SG) (SG) (SG) (PI) (PI)
       Virtual   (SG) (PI) (PI) (SG) (SG) (PI) (PI) (SG) (DLTA)
                 (DLTA) (SG) (PI) (PI) (SG) (PI) (PI) (SG) (PI)
                 (PI) (DLTA) (DLTA) (SG) (PI) (PI) (SG) (SG) (PI)
                 (PI) (SG) (DLTA) (DLTA) (PI) (PI) (SG) (SG) (DLTA)
                 (DLTA) (PI) (PI) (PHI) (PHI) (PI) (PI) (DLTA)
                 (DLTA) (SG) (SG) (PI) (PI) (SG) (PI) (PI) (PHI)
                 (PHI) (SG) (DLTA) (DLTA) (PI) (PI) (SG) (DLTA)
                 (DLTA) (PI) (PI) (SG) (DLTA) (DLTA) (PI) (PI)
                 (SG) (SG) (PI) (PI) (SG) (SG) (SG)
 The electronic state is 2-SG.
 Alpha  occ. eigenvalues --  -89.24751 -10.65067  -8.33030  -6.29289  -6.28822
 Alpha  occ. eigenvalues --   -6.28822  -1.17946  -0.85238  -0.70770  -0.67703
 Alpha  occ. eigenvalues --   -0.67703
 Alpha virt. eigenvalues --   -0.40625  -0.40625  -0.20288  -0.16033  -0.11637
 Alpha virt. eigenvalues --   -0.11637  -0.10201  -0.06836  -0.06836  -0.05827
 Alpha virt. eigenvalues --   -0.05349  -0.05349  -0.00137   0.03414   0.03414
 Alpha virt. eigenvalues --    0.09338   0.10708   0.10708   0.16099   0.16561
 Alpha virt. eigenvalues --    0.16563   0.27844   0.27844   0.30660   0.41934
 Alpha virt. eigenvalues --    0.43373   0.43373   0.56404   0.64160   0.65637
 Alpha virt. eigenvalues --    0.65637   0.66408   0.66409   0.80839   1.15967
 Alpha virt. eigenvalues --    1.15968   1.22088   1.22088   1.29634   1.29634
 Alpha virt. eigenvalues --    1.41406   1.41406   1.43812   1.43812   1.55850
 Alpha virt. eigenvalues --    1.76581   1.86207   1.86207   1.99775   2.42370
 Alpha virt. eigenvalues --    2.42370   2.47292   2.47292   2.61332   2.69376
 Alpha virt. eigenvalues --    2.69376   3.07719   3.07719   3.47083   4.25812
 Alpha virt. eigenvalues --    4.25813   4.61760   4.61760   4.85609   6.55514
 Alpha virt. eigenvalues --    6.55515   6.79452   6.79452   6.92406   7.95975
 Alpha virt. eigenvalues --   16.97419  16.97419  17.65793  23.56959 189.04972
  Beta  occ. eigenvalues --  -89.24768 -10.62799  -8.33049  -6.29056  -6.29056
  Beta  occ. eigenvalues --   -6.28871  -1.16103  -0.81672  -0.66782  -0.66782
  Beta virt. eigenvalues --   -0.51632  -0.38021  -0.38021  -0.19739  -0.15399
  Beta virt. eigenvalues --   -0.11500  -0.11500  -0.08682  -0.07412  -0.07412
  Beta virt. eigenvalues --   -0.04927  -0.04884  -0.04884   0.00450   0.04870
  Beta virt. eigenvalues --    0.04870   0.09803   0.10778   0.10778   0.17115
  Beta virt. eigenvalues --    0.17116   0.18036   0.29335   0.29335   0.34217
  Beta virt. eigenvalues --    0.42933   0.44198   0.44198   0.57163   0.65562
  Beta virt. eigenvalues --    0.65563   0.66674   0.66674   0.66987   0.82982
  Beta virt. eigenvalues --    1.17459   1.17460   1.24926   1.24926   1.28368
  Beta virt. eigenvalues --    1.28368   1.42203   1.42203   1.46175   1.46176
  Beta virt. eigenvalues --    1.60015   1.81099   1.89685   1.89685   2.01110
  Beta virt. eigenvalues --    2.45143   2.45143   2.50533   2.50533   2.67377
  Beta virt. eigenvalues --    2.74044   2.74045   3.12409   3.12409   3.53188
  Beta virt. eigenvalues --    4.25428   4.25430   4.62273   4.62273   4.85712
  Beta virt. eigenvalues --    6.59147   6.59148   6.86590   6.86590   7.00353
  Beta virt. eigenvalues --    7.96560  16.97109  16.97109  17.66349  23.59564
  Beta virt. eigenvalues --  189.04957
          Condensed to atoms (all electrons):
               1          2
     1  S   14.720020   0.705828
     2  C    0.705828   4.868325
          Atomic-Atomic Spin Densities.
               1          2
     1  S   -0.080842   0.004948
     2  C    0.004948   1.070946
 Mulliken charges and spin densities:
               1          2
     1  S    0.574152  -0.075894
     2  C    0.425848   1.075894
 Sum of Mulliken charges =   1.00000   1.00000
 Mulliken charges and spin densities with hydrogens summed into heavy atoms:
               1          2
     1  S    0.574152  -0.075894
     2  C    0.425848   1.075894
 APT charges:
               1
     1  S    0.547894
     2  C    0.452106
 Sum of APT charges =   1.00000
 APT charges with hydrogens summed into heavy atoms:
               1
     1  S    0.547894
     2  C    0.452106
 Electronic spatial extent (au):  <R**2>=             63.7268
 Charge=              1.0000 electrons
 Dipole moment (field-independent basis, Debye):
    X=              0.0000    Y=              0.0000    Z=             -0.5181  Tot=              0.5181
 Quadrupole moment (field-independent basis, Debye-Ang):
   XX=            -14.9815   YY=            -14.9815   ZZ=             -9.4569
   XY=              0.0000   XZ=              0.0000   YZ=              0.0000
 Traceless Quadrupole moment (field-independent basis, Debye-Ang):
   XX=             -1.8415   YY=             -1.8415   ZZ=              3.6831
   XY=              0.0000   XZ=              0.0000   YZ=              0.0000
 Octapole moment (field-independent basis, Debye-Ang**2):
  XXX=              0.0000  YYY=              0.0000  ZZZ=             -1.2055  XYY=              0.0000
  XXY=              0.0000  XXZ=              1.2319  XZZ=              0.0000  YZZ=              0.0000
  YYZ=              1.2319  XYZ=              0.0000
 Hexadecapole moment (field-independent basis, Debye-Ang**3):
 XXXX=            -15.8174 YYYY=            -15.8174 ZZZZ=            -46.8172 XXXY=              0.0000
 XXXZ=              0.0000 YYYX=              0.0000 YYYZ=              0.0000 ZZZX=              0.0000
 ZZZY=              0.0000 XXYY=             -5.2725 XXZZ=            -11.2177 YYZZ=            -11.2177
 XXYZ=              0.0000 YYXZ=              0.0000 ZZXY=              0.0000
 N-N= 3.418186003792D+01 E-N=-1.095973576493D+03  KE= 4.351580253668D+02
 Symmetry A1   KE= 3.578886395495D+02
 Symmetry A2   KE= 2.256154757478D-52
 Symmetry B1   KE= 3.863469290867D+01
 Symmetry B2   KE= 3.863469290867D+01
  Exact polarizability:  17.331  -0.000  17.331   0.000   0.000  27.361
 Approx polarizability:  24.968  -0.000  24.968  -0.000  -0.000  72.985
                          Isotropic Fermi Contact Couplings
        Atom                 a.u.       MegaHertz       Gauss      10(-4) cm-1
     1  S(33)             -0.10014     -34.39397     -12.27262     -11.47259
     2  C(13)              0.89506    1006.21472     359.04242     335.63710
 --------------------------------------------------------
       Center         ----  Spin Dipole Couplings  ----
                      3XX-RR        3YY-RR        3ZZ-RR
 --------------------------------------------------------
     1   Atom       -0.967207     -0.967207      1.934415
     2   Atom       -0.395536     -0.395536      0.791072
 --------------------------------------------------------
                        XY            XZ            YZ
 --------------------------------------------------------
     1   Atom        0.000000      0.000000      0.000000
     2   Atom        0.000000      0.000000      0.000000
 --------------------------------------------------------


 ---------------------------------------------------------------------------------
              Anisotropic Spin Dipole Couplings in Principal Axis System
 ---------------------------------------------------------------------------------

       Atom             a.u.   MegaHertz   Gauss  10(-4) cm-1        Axes

              Baa    -0.9672   -39.655   -14.150   -13.227 -0.0000  1.0000  0.0000
     1 S(33)  Bbb    -0.9672   -39.655   -14.150   -13.227  1.0000  0.0000  0.0000
              Bcc     1.9344    79.309    28.300    26.455  0.0000  0.0000  1.0000
 
              Baa    -0.3955   -53.077   -18.939   -17.705  1.0000  0.0000  0.0000
     2 C(13)  Bbb    -0.3955   -53.077   -18.939   -17.705 -0.0000  1.0000  0.0000
              Bcc     0.7911   106.154    37.878    35.409  0.0000  0.0000  1.0000
 

 ---------------------------------------------------------------------------------

 No NMR shielding tensors so no spin-rotation constants.
 Leave Link  601 at Wed Aug  3 20:49:36 2016, MaxMem=    33554432 cpu:         1.2
 (Enter /home/proyectos/fulerenos/M3C-v2.0/M3C-deps_CCC/g09-AM64L-G09RevC.01/l701.exe)
 Compute integral second derivatives.
 ... and contract with generalized density number  0.
 Leave Link  701 at Wed Aug  3 20:49:36 2016, MaxMem=    33554432 cpu:         1.4
 (Enter /home/proyectos/fulerenos/M3C-v2.0/M3C-deps_CCC/g09-AM64L-G09RevC.01/l702.exe)
 L702 exits ... SP integral derivatives will be done elsewhere.
 Leave Link  702 at Wed Aug  3 20:49:36 2016, MaxMem=    33554432 cpu:         0.1
 (Enter /home/proyectos/fulerenos/M3C-v2.0/M3C-deps_CCC/g09-AM64L-G09RevC.01/l703.exe)
 Compute integral second derivatives, UseDBF=F ICtDFT=           0.
 Integral derivatives from FoFJK, PRISM(SPDF).
 Calling FoFJK, ICntrl=    100127 FMM=F ISym2X=1 I1Cent= 0 IOpClX= 1 NMat=1 NMatS=1 NMatT=0.
 FoFJK:  IHMeth= 1 ICntrl=  100127 DoSepK=F KAlg= 0 I1Cent=   0 FoldK=F
 IRaf=         0 NMat=   1 IRICut=       1 DoRegI=T DoRafI=F ISym2E= 1.
 FoFCou: FMM=F IPFlag=           0 FMFlag=      100000 FMFlg1=         800
         NFxFlg=           0 DoJE=F BraDBF=F KetDBF=F FulRan=T
         wScrn=  0.000000 ICntrl=  100127 IOpCl=  1 I1Cent=           0 NGrid=           0
         NMat0=    1 NMatS0=      1 NMatT0=    0 NMatD0=    1 NMtDS0=    0 NMtDT0=    0
 Petite list used in FoFCou.
 Leave Link  703 at Wed Aug  3 20:49:42 2016, MaxMem=    33554432 cpu:        23.2
 (Enter /home/proyectos/fulerenos/M3C-v2.0/M3C-deps_CCC/g09-AM64L-G09RevC.01/l716.exe)
 Dipole        = 0.00000000D+00 0.00000000D+00-2.03845069D-01
 Polarizability= 1.73306409D+01-1.26779780D-08 1.73306409D+01
                 2.19760786D-08 2.18140462D-10 2.73614470D+01
 Full mass-weighted force constant matrix:
 Low frequencies ---   -5.9108   -5.9108    0.0008    0.0008    0.0034 1419.5027
 Diagonal vibrational polarizability:
        0.0000000       0.0000000       0.2300938
 Harmonic frequencies (cm**-1), IR intensities (KM/Mole), Raman scattering
 activities (A**4/AMU), depolarization ratios for plane and unpolarized
 incident light, reduced masses (AMU), force constants (mDyne/A),
 and normal coordinates:
                      1
                     SG
 Frequencies --   1419.5027
 Red. masses --     14.4661
 Frc consts  --     17.1741
 IR Inten    --     17.2284
  Atom  AN      X      Y      Z
     1  16    -0.00  -0.00  -0.35
     2   6    -0.00  -0.00   0.94

 -------------------
 - Thermochemistry -
 -------------------
 Temperature   298.150 Kelvin.  Pressure   1.00000 Atm.
 Atom     1 has atomic number 16 and mass  31.97207
 Atom     2 has atomic number  6 and mass  12.00000
 Molecular mass:    43.97207 amu.
 Principal axes and moments of inertia in atomic units:
                           1         2         3
     Eigenvalues --     0.00000  68.82182  68.82182
           X            0.00000  -0.00000   1.00000
           Y            0.00000   1.00000   0.00000
           Z            1.00000   0.00000   0.00000
 This molecule is a prolate symmetric top.
 Rotational symmetry number  1.
 Rotational temperature (Kelvin)      1.25852
 Rotational constant (GHZ):          26.223385
 Zero-point vibrational energy       8490.5 (Joules/Mol)
                                    2.02928 (Kcal/Mol)
 Vibrational temperatures:   2042.35
          (Kelvin)
 
 Zero-point correction=                           0.003234 (Hartree/Particle)
 Thermal correction to Energy=                    0.005601
 Thermal correction to Enthalpy=                  0.006545
 Thermal correction to Gibbs Free Energy=        -0.017931
 Sum of electronic and zero-point Energies=           -435.834283
 Sum of electronic and thermal Energies=              -435.831915
 Sum of electronic and thermal Enthalpies=            -435.830971
 Sum of electronic and thermal Free Energies=         -435.855448
 
                     E (Thermal)             CV                S
                      KCal/Mol        Cal/Mol-Kelvin    Cal/Mol-Kelvin
 Total                    3.515              5.067             51.516
 Electronic               0.000              0.000              1.377
 Translational            0.889              2.981             37.269
 Rotational               0.592              1.987             12.853
 Vibrational              2.034              0.099              0.017
                       Q            Log10(Q)             Ln(Q)
 Total Bot       0.176935D+09          8.247813         18.991292
 Total V=0       0.543607D+10          9.735285         22.416322
 Vib (Bot)       0.325828D-01         -1.487011         -3.423970
 Vib (V=0)       0.100106D+01          0.000460          0.001060
 Electronic      0.200000D+01          0.301030          0.693147
 Translational   0.114609D+08          7.059221         16.254456
 Rotational      0.236905D+03          2.374574          5.467658
 ***** Axes restored to original set *****
 -------------------------------------------------------------------
 Center     Atomic                   Forces (Hartrees/Bohr)
 Number     Number              X              Y              Z
 -------------------------------------------------------------------
      1       16          -0.000011280   -0.000000000   -0.000000000
      2        6           0.000011280   -0.000000000   -0.000000000
 -------------------------------------------------------------------
 Cartesian Forces:  Max     0.000011280 RMS     0.000006513
 Z-matrix is all fixed cartesians, so copy forces.
 Force constants in Cartesian coordinates: 
                1             2             3             4             5 
      1  0.665333D+00
      2  0.000000D+00 -0.115362D-04
      3  0.000000D+00  0.000000D+00 -0.115362D-04
      4 -0.665333D+00  0.000000D+00  0.000000D+00  0.665333D+00
      5  0.000000D+00  0.115362D-04  0.000000D+00  0.000000D+00 -0.115362D-04
      6  0.000000D+00  0.000000D+00  0.115362D-04  0.000000D+00  0.000000D+00
                6 
      6 -0.115362D-04
 Leave Link  716 at Wed Aug  3 20:49:42 2016, MaxMem=    33554432 cpu:         0.1
 (Enter /home/proyectos/fulerenos/M3C-v2.0/M3C-deps_CCC/g09-AM64L-G09RevC.01/l103.exe)

 GradGradGradGradGradGradGradGradGradGradGradGradGradGradGradGradGradGrad
 Berny optimization.
 Search for a local minimum.
 Step number   1 out of a maximum of    2
 All quantities printed in internal units (Hartrees-Bohrs-Radians)
 Second derivative matrix not updated -- analytic derivatives used.
 The second derivative matrix:
                          X1        Y1        Z1        X2        Y2
           X1           0.66533
           Y1           0.00000  -0.00001
           Z1          -0.00000   0.00000  -0.00001
           X2          -0.66533  -0.00000   0.00000   0.66533
           Y2          -0.00000   0.00001  -0.00000   0.00000  -0.00001
           Z2           0.00000  -0.00000   0.00001  -0.00000   0.00000
                          Z2
           Z2          -0.00001
 ITU=  0
     Eigenvalues ---    1.25796
 Angle between quadratic step and forces=  13.52 degrees.
 ClnCor:  largest displacement from symmetrization is 0.00D+00 for atom     0.
 Linear search not attempted -- first point.
 ClnCor:  largest displacement from symmetrization is 4.44D-16 for atom     2.
 B after Tr=    -0.000002    0.000000    0.000000
         Rot=    1.000000    0.000000    0.000000    0.000000 Ang=   0.00 deg.
 Variable       Old X    -DE/DX   Delta X   Delta X   Delta X     New X
                                 (Linear)    (Quad)   (Total)
    X1        0.98237  -0.00001   0.00000  -0.00001  -0.00001   0.98236
    Y1        0.00000  -0.00000   0.00000   0.00000   0.00000   0.00000
    Z1        0.00000  -0.00000   0.00000   0.00000   0.00000   0.00000
    X2        3.79088   0.00001   0.00000   0.00001   0.00001   3.79089
    Y2        0.00000  -0.00000   0.00000   0.00000   0.00000   0.00000
    Z2        0.00000  -0.00000   0.00000   0.00000   0.00000   0.00000
         Item               Value     Threshold  Converged?
 Maximum Force            0.000011     0.000450     YES
 RMS     Force            0.000007     0.000300     YES
 Maximum Displacement     0.000008     0.001800     YES
 RMS     Displacement     0.000005     0.001200     YES
 Predicted change in Energy=-9.562737D-11
 Optimization completed.
    -- Stationary point found.
 GradGradGradGradGradGradGradGradGradGradGradGradGradGradGradGradGradGrad

 Leave Link  103 at Wed Aug  3 20:49:42 2016, MaxMem=    33554432 cpu:         0.1
 (Enter /home/proyectos/fulerenos/M3C-v2.0/M3C-deps_CCC/g09-AM64L-G09RevC.01/l9999.exe)
 1\1\GINC-DEPAZ30\Freq\UB3LYP\6-311++G(3df,2p)\C1S1(1+,2)\NAGUIRRE\03-A
 ug-2016\0\\#p b3lyp/6-311++G(3df,2p) freq\\b3lyp opt\\1,2\S,0.519848,0
 .,0.\C,2.006046,0.,0.\\Version=EM64L-G09RevE.01\State=2-SG\HF=-435.837
 5165\S2=0.785242\S2-1=0.\S2A=0.75076\RMSD=8.797e-10\RMSF=6.513e-06\Zer
 oPoint=0.0032339\Thermal=0.0056012\Dipole=0.2038451,0.,0.\DipoleDeriv=
 0.3344238,0.,0.,0.,0.6546287,0.,0.,0.,0.6546287,0.6655762,0.,0.,0.,0.3
 453713,0.,0.,0.,0.3453713\Polar=27.361447,0.,17.3306409,0.,0.,17.33064
 09\PG=C*V [C*(C1S1)]\NImag=0\\0.66533292,0.,-0.00001154,0.,0.,-0.00001
 154,-0.66533292,0.,0.,0.66533292,0.,0.00001154,0.,0.,-0.00001154,0.,0.
 ,0.00001154,0.,0.,-0.00001154\\0.00001128,0.,0.,-0.00001128,0.,0.\\\@


 When I told the people of Northern Ireland that I was
 an atheist, a woman in the audience stood up and said,
 "Yes, but is it the God of the Catholics or the God
 of the Protestants in whom you don't believe?"
                               -- Quentin Crisp
 Job cpu time:       0 days  0 hours  0 minutes 59.8 seconds.
 File lengths (MBytes):  RWF=      7 Int=      0 D2E=      0 Chk=      2 Scr=      1
 Normal termination of Gaussian 09 at Wed Aug  3 20:49:42 2016.
