 Entering Gaussian System, Link 0=/home/proyectos/fulerenos/M3C-v1.9/M3C-deps_CCC/g09-AM64L-G09RevC.01/g09
 Initial command:
 /home/proyectos/fulerenos/M3C-v1.9/M3C-deps_CCC/g09-AM64L-G09RevC.01/l1.exe "/scratch/naguirre/gaussian/Gau-5060.inp" -scrdir="/scratch/naguirre/gaussian/"
 Entering Link 1 = /home/proyectos/fulerenos/M3C-v1.9/M3C-deps_CCC/g09-AM64L-G09RevC.01/l1.exe PID=      5066.
  
 Copyright (c) 1988,1990,1992,1993,1995,1998,2003,2009,2015,
            Gaussian, Inc.  All Rights Reserved.
  
 This is part of the Gaussian(R) 09 program.  It is based on
 the Gaussian(R) 03 system (copyright 2003, Gaussian, Inc.),
 the Gaussian(R) 98 system (copyright 1998, Gaussian, Inc.),
 the Gaussian(R) 94 system (copyright 1995, Gaussian, Inc.),
 the Gaussian 92(TM) system (copyright 1992, Gaussian, Inc.),
 the Gaussian 90(TM) system (copyright 1990, Gaussian, Inc.),
 the Gaussian 88(TM) system (copyright 1988, Gaussian, Inc.),
 the Gaussian 86(TM) system (copyright 1986, Carnegie Mellon
 University), and the Gaussian 82(TM) system (copyright 1983,
 Carnegie Mellon University). Gaussian is a federally registered
 trademark of Gaussian, Inc.
  
 This software contains proprietary and confidential information,
 including trade secrets, belonging to Gaussian, Inc.
  
 This software is provided under written license and may be
 used, copied, transmitted, or stored only in accord with that
 written license.
  
 The following legend is applicable only to US Government
 contracts under FAR:
  
                    RESTRICTED RIGHTS LEGEND
  
 Use, reproduction and disclosure by the US Government is
 subject to restrictions as set forth in subparagraphs (a)
 and (c) of the Commercial Computer Software - Restricted
 Rights clause in FAR 52.227-19.
  
 Gaussian, Inc.
 340 Quinnipiac St., Bldg. 40, Wallingford CT 06492
  
  
 ---------------------------------------------------------------
 Warning -- This program may not be used in any manner that
 competes with the business of Gaussian, Inc. or will provide
 assistance to any competitor of Gaussian, Inc.  The licensee
 of this program is prohibited from giving any competitor of
 Gaussian, Inc. access to this program.  By using this program,
 the user acknowledges that Gaussian, Inc. is engaged in the
 business of creating and licensing software in the field of
 computational chemistry and represents and warrants to the
 licensee that it is not a competitor of Gaussian, Inc. and that
 it will not use this program in any manner prohibited above.
 ---------------------------------------------------------------
  

 Cite this work as:
 Gaussian 09, Revision E.01,
 M. J. Frisch, G. W. Trucks, H. B. Schlegel, G. E. Scuseria, 
 M. A. Robb, J. R. Cheeseman, G. Scalmani, V. Barone, B. Mennucci, 
 G. A. Petersson, H. Nakatsuji, M. Caricato, X. Li, H. P. Hratchian, 
 A. F. Izmaylov, J. Bloino, G. Zheng, J. L. Sonnenberg, M. Hada, 
 M. Ehara, K. Toyota, R. Fukuda, J. Hasegawa, M. Ishida, T. Nakajima, 
 Y. Honda, O. Kitao, H. Nakai, T. Vreven, J. A. Montgomery, Jr., 
 J. E. Peralta, F. Ogliaro, M. Bearpark, J. J. Heyd, E. Brothers, 
 K. N. Kudin, V. N. Staroverov, T. Keith, R. Kobayashi, J. Normand, 
 K. Raghavachari, A. Rendell, J. C. Burant, S. S. Iyengar, J. Tomasi, 
 M. Cossi, N. Rega, J. M. Millam, M. Klene, J. E. Knox, J. B. Cross, 
 V. Bakken, C. Adamo, J. Jaramillo, R. Gomperts, R. E. Stratmann, 
 O. Yazyev, A. J. Austin, R. Cammi, C. Pomelli, J. W. Ochterski, 
 R. L. Martin, K. Morokuma, V. G. Zakrzewski, G. A. Voth, 
 P. Salvador, J. J. Dannenberg, S. Dapprich, A. D. Daniels, 
 O. Farkas, J. B. Foresman, J. V. Ortiz, J. Cioslowski, 
 and D. J. Fox, Gaussian, Inc., Wallingford CT, 2013.
 
 ******************************************
 Gaussian 09:  EM64L-G09RevE.01 30-Nov-2015
                16-Jun-2016 
 ******************************************
 %NProcShared=4
 Will use up to    4 processors via shared memory.
 -----------------------------------------------------
 #p ccsd(t)/6-311+G(3df) scf(MaxCyc=300) guess(Huckel)
 -----------------------------------------------------
 1/38=1/1;
 2/12=2,17=6,18=5,40=1/2;
 3/5=4,6=6,7=16,11=9,16=1,25=1,30=1/1,2,3;
 4/11=4/1;
 5/5=2,7=300,38=5/2;
 8/6=4,9=120000,10=2/1,4;
 9/5=7,14=2/13;
 6/7=2,8=2,9=2,10=2/1;
 99/5=1,9=1/99;
 Leave Link    1 at Thu Jun 16 18:23:47 2016, MaxMem=           0 cpu:         0.2
 (Enter /home/proyectos/fulerenos/M3C-v1.9/M3C-deps_CCC/g09-AM64L-G09RevC.01/l101.exe)
 -------------
 ccsd(t) iener
 -------------
 Symbolic Z-matrix:
 Charge =  2 Multiplicity = 1
 C                     0.62417   0.79759   0.11753 
 C                    -0.77364   0.55074   0.37103 
 C                     0.77365  -0.55074  -0.37102 
 C                    -0.62418  -0.79758  -0.11754 
 
 NAtoms=      4 NQM=        4 NQMF=       0 NMMI=      0 NMMIF=      0
                NMic=       0 NMicF=      0.
                    Isotopes and Nuclear Properties:
 (Nuclear quadrupole moments (NQMom) in fm**2, nuclear magnetic moments (NMagM)
  in nuclear magnetons)

  Atom         1           2           3           4
 IAtWgt=          12          12          12          12
 AtmWgt=  12.0000000  12.0000000  12.0000000  12.0000000
 NucSpn=           0           0           0           0
 AtZEff=   0.0000000   0.0000000   0.0000000   0.0000000
 NQMom=    0.0000000   0.0000000   0.0000000   0.0000000
 NMagM=    0.0000000   0.0000000   0.0000000   0.0000000
 AtZNuc=   6.0000000   6.0000000   6.0000000   6.0000000
 Leave Link  101 at Thu Jun 16 18:23:47 2016, MaxMem=    33554432 cpu:         0.3
 (Enter /home/proyectos/fulerenos/M3C-v1.9/M3C-deps_CCC/g09-AM64L-G09RevC.01/l202.exe)
                          Input orientation:                          
 ---------------------------------------------------------------------
 Center     Atomic      Atomic             Coordinates (Angstroms)
 Number     Number       Type             X           Y           Z
 ---------------------------------------------------------------------
      1          6           0        0.624166    0.797590    0.117530
      2          6           0       -0.773639    0.550738    0.371028
      3          6           0        0.773653   -0.550744   -0.371021
      4          6           0       -0.624181   -0.797584   -0.117536
 ---------------------------------------------------------------------
                    Distance matrix (angstroms):
                    1          2          3          4
     1  C    0.000000
     2  C    1.441893   0.000000
     3  C    1.441885   2.039120   0.000000
     4  C    2.039168   1.441875   1.441917   0.000000
 Stoichiometry    C4(2+)
 Framework group  C1[X(C4)]
 Deg. of freedom     6
 Full point group                 C1      NOp   1
 Largest Abelian subgroup         C1      NOp   1
 Largest concise Abelian subgroup C1      NOp   1
                         Standard orientation:                         
 ---------------------------------------------------------------------
 Center     Atomic      Atomic             Coordinates (Angstroms)
 Number     Number       Type             X           Y           Z
 ---------------------------------------------------------------------
      1          6           0        0.968904   -0.317446    0.000006
      2          6           0       -0.317446   -0.968875   -0.000006
      3          6           0        0.317455    0.968885   -0.000006
      4          6           0       -0.968912    0.317436    0.000006
 ---------------------------------------------------------------------
 Rotational constants (GHZ):     20.2573516     20.2561762     10.1283819
 Leave Link  202 at Thu Jun 16 18:23:47 2016, MaxMem=    33554432 cpu:         0.0
 (Enter /home/proyectos/fulerenos/M3C-v1.9/M3C-deps_CCC/g09-AM64L-G09RevC.01/l301.exe)
 Standard basis: 6-311+G(3df) (5D, 7F)
 Ernie: Thresh=  0.10000D-02 Tol=  0.10000D-05 Strict=F.
 There are   180 symmetry adapted cartesian basis functions of A   symmetry.
 There are   156 symmetry adapted basis functions of A   symmetry.
   156 basis functions,   232 primitive gaussians,   180 cartesian basis functions
    11 alpha electrons       11 beta electrons
       nuclear repulsion energy        71.5329395575 Hartrees.
 IExCor=    0 DFT=F Ex=HF Corr=None ExCW=0 ScaHFX=  1.000000
 ScaDFX=  1.000000  1.000000  1.000000  1.000000 ScalE2=  1.000000  1.000000
 IRadAn=      0 IRanWt=     -1 IRanGd=            0 ICorTp=0 IEmpDi=  4
 NAtoms=    4 NActive=    4 NUniq=    4 SFac= 1.00D+00 NAtFMM=   60 NAOKFM=F Big=F
 Integral buffers will be    131072 words long.
 Raffenetti 1 integral format.
 Two-electron integral symmetry is turned on.
 Leave Link  301 at Thu Jun 16 18:23:47 2016, MaxMem=    33554432 cpu:         0.3
 (Enter /home/proyectos/fulerenos/M3C-v1.9/M3C-deps_CCC/g09-AM64L-G09RevC.01/l302.exe)
 NPDir=0 NMtPBC=     1 NCelOv=     1 NCel=       1 NClECP=     1 NCelD=      1
         NCelK=      1 NCelE2=     1 NClLst=     1 CellRange=     0.0.
 One-electron integrals computed using PRISM.
 NBasis=   156 RedAO= T EigKep=  1.09D-05  NBF=   156
 NBsUse=   156 1.00D-06 EigRej= -1.00D+00 NBFU=   156
 Leave Link  302 at Thu Jun 16 18:23:48 2016, MaxMem=    33554432 cpu:         1.1
 (Enter /home/proyectos/fulerenos/M3C-v1.9/M3C-deps_CCC/g09-AM64L-G09RevC.01/l303.exe)
 DipDrv:  MaxL=1.
 Leave Link  303 at Thu Jun 16 18:23:48 2016, MaxMem=    33554432 cpu:         0.1
 (Enter /home/proyectos/fulerenos/M3C-v1.9/M3C-deps_CCC/g09-AM64L-G09RevC.01/l401.exe)
 Projected New-EHT guess.
 Enter ItEHT:  IZDO=4 IZDPar=0 Conv= 1.00D-06 N=   16
 It=   1                  EEH= -62.8892091808     EQH= 0.000000000000E+00 EH= -62.8892091808    
 JPrj=0 DoOrth=T DoCkMO=T.
 Leave Link  401 at Thu Jun 16 18:23:48 2016, MaxMem=    33554432 cpu:         0.6
 (Enter /home/proyectos/fulerenos/M3C-v1.9/M3C-deps_CCC/g09-AM64L-G09RevC.01/l502.exe)
 Closed shell SCF:
 Using DIIS extrapolation, IDIIS=  1040.
 Integral symmetry usage will be decided dynamically.
 IVT=      192586 IEndB=      192586 NGot=    33554432 MDV=    33485027
 LenX=    33485027 LenY=    33452186
 Requested convergence on RMS density matrix=1.00D-08 within 300 cycles.
 Requested convergence on MAX density matrix=1.00D-06.
 Requested convergence on             energy=1.00D-06.
 No special actions if energy rises.
 Fock matrices will be formed incrementally for  20 cycles.

 Cycle   1  Pass 0  IDiag  1:
 FoFJK:  IHMeth= 1 ICntrl=       0 DoSepK=F KAlg= 0 I1Cent=   0 FoldK=F
 IRaf= 990000000 NMat=   1 IRICut=       1 DoRegI=T DoRafI=F ISym2E= 0.
 FoFCou: FMM=F IPFlag=           0 FMFlag=      100000 FMFlg1=           0
         NFxFlg=           0 DoJE=F BraDBF=F KetDBF=F FulRan=T
         wScrn=  0.000000 ICntrl=       0 IOpCl=  0 I1Cent=           0 NGrid=           0
         NMat0=    1 NMatS0=      1 NMatT0=    0 NMatD0=    1 NMtDS0=    0 NMtDT0=    0
 Symmetry not used in FoFCou.
 E= -148.735398821421    
 DIIS: error= 2.72D-01 at cycle   1 NSaved=   1.
 NSaved= 1 IEnMin= 1 EnMin= -148.735398821421     IErMin= 1 ErrMin= 2.72D-01
 ErrMax= 2.72D-01  0.00D+00 EMaxC= 1.00D-01 BMatC= 3.68D+00 BMatP= 3.68D+00
 IDIUse=3 WtCom= 0.00D+00 WtEn= 1.00D+00
 Coeff-Com:  0.100D+01
 Coeff-En:   0.100D+01
 Coeff:      0.100D+01
 Gap=     0.614 Goal=   None    Shift=    0.000
 GapD=    0.614 DampG=2.000 DampE=0.250 DampFc=0.5000 IDamp=-1.
 Damping current iteration by 5.00D-01
 RMSDP=2.79D-02 MaxDP=7.84D-01              OVMax= 3.20D-01

 Cycle   2  Pass 0  IDiag  1:
 RMSU=  1.35D-02    CP:  8.29D-01
 E= -149.397017376983     Delta-E=       -0.661618555562 Rises=F Damp=T
 DIIS: error= 1.27D-01 at cycle   2 NSaved=   2.
 NSaved= 2 IEnMin= 2 EnMin= -149.397017376983     IErMin= 2 ErrMin= 1.27D-01
 ErrMax= 1.27D-01  0.00D+00 EMaxC= 1.00D-01 BMatC= 9.27D-01 BMatP= 3.68D+00
 IDIUse=3 WtCom= 0.00D+00 WtEn= 1.00D+00
 Coeff-Com: -0.947D+00 0.195D+01
 Coeff-En:   0.000D+00 0.100D+01
 Coeff:      0.000D+00 0.100D+01
 Gap=     0.331 Goal=   None    Shift=    0.000
 RMSDP=1.43D-02 MaxDP=4.04D-01 DE=-6.62D-01 OVMax= 3.66D-02

 Cycle   3  Pass 0  IDiag  1:
 RMSU=  1.43D-03    CP:  6.16D-01  2.00D+00
 E= -150.055570954317     Delta-E=       -0.658553577334 Rises=F Damp=F
 DIIS: error= 1.92D-02 at cycle   3 NSaved=   3.
 NSaved= 3 IEnMin= 3 EnMin= -150.055570954317     IErMin= 3 ErrMin= 1.92D-02
 ErrMax= 1.92D-02  0.00D+00 EMaxC= 1.00D-01 BMatC= 1.37D-02 BMatP= 9.27D-01
 IDIUse=3 WtCom= 8.08D-01 WtEn= 1.92D-01
 Coeff-Com:  0.677D+00-0.137D+01 0.169D+01
 Coeff-En:   0.000D+00 0.000D+00 0.100D+01
 Coeff:      0.546D+00-0.110D+01 0.156D+01
 Gap=     0.361 Goal=   None    Shift=    0.000
 RMSDP=2.19D-03 MaxDP=4.78D-02 DE=-6.59D-01 OVMax= 3.09D-02

 Cycle   4  Pass 0  IDiag  1:
 RMSU=  6.53D-04    CP:  5.65D-01  2.03D+00  2.22D+00
 E= -150.066486273951     Delta-E=       -0.010915319635 Rises=F Damp=F
 DIIS: error= 1.68D-03 at cycle   4 NSaved=   4.
 NSaved= 4 IEnMin= 4 EnMin= -150.066486273951     IErMin= 4 ErrMin= 1.68D-03
 ErrMax= 1.68D-03  0.00D+00 EMaxC= 1.00D-01 BMatC= 1.45D-04 BMatP= 1.37D-02
 IDIUse=3 WtCom= 9.83D-01 WtEn= 1.68D-02
 Coeff-Com:  0.212D-01-0.427D-01-0.108D-01 0.103D+01
 Coeff-En:   0.000D+00 0.000D+00 0.000D+00 0.100D+01
 Coeff:      0.208D-01-0.419D-01-0.106D-01 0.103D+01
 Gap=     0.359 Goal=   None    Shift=    0.000
 RMSDP=3.51D-04 MaxDP=7.69D-03 DE=-1.09D-02 OVMax= 4.74D-03

 Cycle   5  Pass 0  IDiag  1:
 RMSU=  2.82D-05    CP:  5.59D-01  2.04D+00  2.38D+00  1.29D+00
 E= -150.066731780351     Delta-E=       -0.000245506400 Rises=F Damp=F
 DIIS: error= 8.68D-04 at cycle   5 NSaved=   5.
 NSaved= 5 IEnMin= 5 EnMin= -150.066731780351     IErMin= 5 ErrMin= 8.68D-04
 ErrMax= 8.68D-04  0.00D+00 EMaxC= 1.00D-01 BMatC= 1.92D-05 BMatP= 1.45D-04
 IDIUse=3 WtCom= 9.91D-01 WtEn= 8.68D-03
 Coeff-Com:  0.544D-02-0.933D-02-0.132D-01-0.221D+00 0.124D+01
 Coeff-En:   0.000D+00 0.000D+00 0.000D+00 0.000D+00 0.100D+01
 Coeff:      0.539D-02-0.925D-02-0.131D-01-0.219D+00 0.124D+01
 Gap=     0.359 Goal=   None    Shift=    0.000
 RMSDP=1.13D-04 MaxDP=2.54D-03 DE=-2.46D-04 OVMax= 1.68D-03

 Cycle   6  Pass 0  IDiag  1:
 RMSU=  2.09D-05    CP:  5.57D-01  2.04D+00  2.43D+00  1.36D+00  1.23D+00
 E= -150.066756170370     Delta-E=       -0.000024390018 Rises=F Damp=F
 DIIS: error= 8.87D-05 at cycle   6 NSaved=   6.
 NSaved= 6 IEnMin= 6 EnMin= -150.066756170370     IErMin= 6 ErrMin= 8.87D-05
 ErrMax= 8.87D-05  0.00D+00 EMaxC= 1.00D-01 BMatC= 2.08D-07 BMatP= 1.92D-05
 IDIUse=1 WtCom= 1.00D+00 WtEn= 0.00D+00
 Coeff-Com: -0.460D-03 0.664D-03 0.382D-02 0.343D-01-0.275D+00 0.124D+01
 Coeff:     -0.460D-03 0.664D-03 0.382D-02 0.343D-01-0.275D+00 0.124D+01
 Gap=     0.359 Goal=   None    Shift=    0.000
 RMSDP=7.94D-06 MaxDP=3.49D-04 DE=-2.44D-05 OVMax= 2.78D-04

 Initial convergence to 1.0D-05 achieved.  Increase integral accuracy.
 Cycle   7  Pass 1  IDiag  1:
 E= -150.066756529329     Delta-E=       -0.000000358960 Rises=F Damp=F
 DIIS: error= 4.19D-05 at cycle   1 NSaved=   1.
 NSaved= 1 IEnMin= 1 EnMin= -150.066756529329     IErMin= 1 ErrMin= 4.19D-05
 ErrMax= 4.19D-05  0.00D+00 EMaxC= 1.00D-01 BMatC= 8.60D-08 BMatP= 8.60D-08
 IDIUse=1 WtCom= 1.00D+00 WtEn= 0.00D+00
 Coeff-Com:  0.100D+01
 Coeff:      0.100D+01
 Gap=     0.359 Goal=   None    Shift=    0.000
 RMSDP=7.94D-06 MaxDP=3.49D-04 DE=-3.59D-07 OVMax= 2.78D-04

 Cycle   8  Pass 1  IDiag  1:
 RMSU=  7.17D-06    CP:  1.00D+00
 E= -150.066756431066     Delta-E=        0.000000098263 Rises=F Damp=F
 DIIS: error= 6.39D-05 at cycle   2 NSaved=   2.
 NSaved= 2 IEnMin= 1 EnMin= -150.066756529329     IErMin= 1 ErrMin= 4.19D-05
 ErrMax= 6.39D-05  0.00D+00 EMaxC= 1.00D-01 BMatC= 1.85D-07 BMatP= 8.60D-08
 IDIUse=1 WtCom= 1.00D+00 WtEn= 0.00D+00
 Coeff-Com:  0.598D+00 0.402D+00
 Coeff:      0.598D+00 0.402D+00
 Gap=     0.359 Goal=   None    Shift=    0.000
 RMSDP=4.39D-06 MaxDP=1.76D-04 DE= 9.83D-08 OVMax= 1.71D-04

 Cycle   9  Pass 1  IDiag  1:
 RMSU=  9.69D-07    CP:  1.00D+00  4.04D-01
 E= -150.066756632109     Delta-E=       -0.000000201043 Rises=F Damp=F
 DIIS: error= 3.20D-06 at cycle   3 NSaved=   3.
 NSaved= 3 IEnMin= 3 EnMin= -150.066756632109     IErMin= 3 ErrMin= 3.20D-06
 ErrMax= 3.20D-06  0.00D+00 EMaxC= 1.00D-01 BMatC= 6.84D-10 BMatP= 8.60D-08
 IDIUse=1 WtCom= 1.00D+00 WtEn= 0.00D+00
 Coeff-Com: -0.371D+00-0.214D+00 0.158D+01
 Coeff:     -0.371D+00-0.214D+00 0.158D+01
 Gap=     0.359 Goal=   None    Shift=    0.000
 RMSDP=1.02D-06 MaxDP=3.47D-05 DE=-2.01D-07 OVMax= 2.27D-05

 Cycle  10  Pass 1  IDiag  1:
 RMSU=  3.09D-07    CP:  1.00D+00  4.22D-01  1.58D+00
 E= -150.066756633979     Delta-E=       -0.000000001870 Rises=F Damp=F
 DIIS: error= 3.75D-07 at cycle   4 NSaved=   4.
 NSaved= 4 IEnMin= 4 EnMin= -150.066756633979     IErMin= 4 ErrMin= 3.75D-07
 ErrMax= 3.75D-07  0.00D+00 EMaxC= 1.00D-01 BMatC= 6.09D-12 BMatP= 6.84D-10
 IDIUse=1 WtCom= 1.00D+00 WtEn= 0.00D+00
 Coeff-Com: -0.145D-02-0.105D-02-0.367D-01 0.104D+01
 Coeff:     -0.145D-02-0.105D-02-0.367D-01 0.104D+01
 Gap=     0.359 Goal=   None    Shift=    0.000
 RMSDP=9.47D-08 MaxDP=2.91D-06 DE=-1.87D-09 OVMax= 1.01D-06

 Cycle  11  Pass 1  IDiag  1:
 RMSU=  2.16D-08    CP:  1.00D+00  4.19D-01  1.61D+00  1.28D+00
 E= -150.066756633989     Delta-E=       -0.000000000011 Rises=F Damp=F
 DIIS: error= 9.09D-08 at cycle   5 NSaved=   5.
 NSaved= 5 IEnMin= 5 EnMin= -150.066756633989     IErMin= 5 ErrMin= 9.09D-08
 ErrMax= 9.09D-08  0.00D+00 EMaxC= 1.00D-01 BMatC= 4.16D-13 BMatP= 6.09D-12
 IDIUse=1 WtCom= 1.00D+00 WtEn= 0.00D+00
 Coeff-Com:  0.302D-01 0.180D-01-0.125D+00 0.379D-01 0.104D+01
 Coeff:      0.302D-01 0.180D-01-0.125D+00 0.379D-01 0.104D+01
 Gap=     0.359 Goal=   None    Shift=    0.000
 RMSDP=3.11D-08 MaxDP=9.38D-07 DE=-1.06D-11 OVMax= 7.49D-07

 Cycle  12  Pass 1  IDiag  1:
 RMSU=  8.52D-09    CP:  1.00D+00  4.17D-01  1.60D+00  1.34D+00  1.30D+00
 E= -150.066756633989     Delta-E=        0.000000000000 Rises=F Damp=F
 DIIS: error= 7.39D-08 at cycle   6 NSaved=   6.
 NSaved= 6 IEnMin= 5 EnMin= -150.066756633989     IErMin= 6 ErrMin= 7.39D-08
 ErrMax= 7.39D-08  0.00D+00 EMaxC= 1.00D-01 BMatC= 1.25D-13 BMatP= 4.16D-13
 IDIUse=1 WtCom= 1.00D+00 WtEn= 0.00D+00
 Coeff-Com: -0.254D-01-0.144D-01 0.105D+00-0.583D-01-0.910D+00 0.190D+01
 Coeff:     -0.254D-01-0.144D-01 0.105D+00-0.583D-01-0.910D+00 0.190D+01
 Gap=     0.359 Goal=   None    Shift=    0.000
 RMSDP=2.63D-08 MaxDP=1.38D-06 DE= 1.14D-13 OVMax= 9.56D-07

 Cycle  13  Pass 1  IDiag  1:
 RMSU=  5.17D-09    CP:  1.00D+00  4.14D-01  1.61D+00  1.34D+00  1.55D+00
                    CP:  2.37D+00
 E= -150.066756633991     Delta-E=       -0.000000000001 Rises=F Damp=F
 DIIS: error= 5.04D-08 at cycle   7 NSaved=   7.
 NSaved= 7 IEnMin= 7 EnMin= -150.066756633991     IErMin= 7 ErrMin= 5.04D-08
 ErrMax= 5.04D-08  0.00D+00 EMaxC= 1.00D-01 BMatC= 5.42D-14 BMatP= 1.25D-13
 IDIUse=1 WtCom= 1.00D+00 WtEn= 0.00D+00
 Coeff-Com:  0.444D-02 0.265D-02-0.189D-01 0.384D-01 0.204D+00-0.177D+01
 Coeff-Com:  0.254D+01
 Coeff:      0.444D-02 0.265D-02-0.189D-01 0.384D-01 0.204D+00-0.177D+01
 Coeff:      0.254D+01
 Gap=     0.359 Goal=   None    Shift=    0.000
 RMSDP=3.72D-08 MaxDP=1.85D-06 DE=-1.31D-12 OVMax= 1.37D-06

 Cycle  14  Pass 1  IDiag  1:
 RMSU=  1.07D-08    CP:  1.00D+00  4.09D-01  1.61D+00  1.34D+00  1.86D+00
                    CP:  3.00D+00  2.73D+00
 E= -150.066756633994     Delta-E=       -0.000000000003 Rises=F Damp=F
 DIIS: error= 2.08D-08 at cycle   8 NSaved=   8.
 NSaved= 8 IEnMin= 8 EnMin= -150.066756633994     IErMin= 8 ErrMin= 2.08D-08
 ErrMax= 2.08D-08  0.00D+00 EMaxC= 1.00D-01 BMatC= 2.03D-14 BMatP= 5.42D-14
 IDIUse=1 WtCom= 1.00D+00 WtEn= 0.00D+00
 Coeff-Com:  0.787D-02 0.459D-02-0.329D-01 0.375D-01 0.311D+00-0.155D+01
 Coeff-Com:  0.169D+01 0.532D+00
 Coeff:      0.787D-02 0.459D-02-0.329D-01 0.375D-01 0.311D+00-0.155D+01
 Coeff:      0.169D+01 0.532D+00
 Gap=     0.359 Goal=   None    Shift=    0.000
 RMSDP=8.26D-09 MaxDP=3.94D-07 DE=-3.50D-12 OVMax= 3.06D-07

 SCF Done:  E(RHF) =  -150.066756634     A.U. after   14 cycles
            NFock= 14  Conv=0.83D-08     -V/T= 2.0007
 KE= 1.499639369410D+02 PE=-4.785782618801D+02 EE= 1.070146287476D+02
 Leave Link  502 at Thu Jun 16 18:24:44 2016, MaxMem=    33554432 cpu:       198.5
 (Enter /home/proyectos/fulerenos/M3C-v1.9/M3C-deps_CCC/g09-AM64L-G09RevC.01/l801.exe)
 Windowed orbitals will be sorted by symmetry type.
 ExpMin= 4.38D-02 ExpMax= 4.56D+03 ExpMxC= 6.82D+02 IAcc=3 IRadAn=         5 AccDes= 0.00D+00
 HarFok:  IExCor=  205 AccDes= 0.00D+00 IRadAn=         5 IDoV=-2 UseB2=F ITyADJ=14
 ICtDFT= 12500011 ScaDFX=  1.000000  1.000000  1.000000  1.000000
 Largest valence mixing into a core orbital is  1.61D-04
 Largest core mixing into a valence orbital is  8.91D-05
 Range of M.O.s used for correlation:     5   156
 NBasis=   156 NAE=    11 NBE=    11 NFC=     4 NFV=     0
 NROrb=    152 NOA=     7 NOB=     7 NVA=   145 NVB=   145

 **** Warning!!: The largest alpha MO coefficient is  0.97490905D+02

 Leave Link  801 at Thu Jun 16 18:24:44 2016, MaxMem=    33554432 cpu:         0.7
 (Enter /home/proyectos/fulerenos/M3C-v1.9/M3C-deps_CCC/g09-AM64L-G09RevC.01/l804.exe)
 Closed-shell transformation, MDV=    33554432 ITran=4 ISComp=1.
 Semi-Direct transformation.
 ModeAB=           2 MOrb=             7 LenV=      32850591
 LASXX=     11867611 LTotXX=    11867611 LenRXX=    11867611
 LTotAB=    12099584 MaxLAS=    17332560 LenRXY=    17332560
 NonZer=    23735222 LenScr=    36360704 LnRSAI=           0
 LnScr1=           0 LExtra=           0 Total=     65560875
 MaxDsk=          -1 SrtSym=           F ITran=            4
 DoSDTr:  NPSUse=  4
 JobTyp=0 Pass  1:  I=   1 to   7.
 Complete sort for first half transformation.
 First half transformation complete.
 Complete sort for second half transformation.
 Second half transformation complete.
 SymMOI:  orbitals are not symmetric.
 Spin components of T(2) and E(2):
     alpha-alpha T2 =       0.5212879354D-01 E2=     -0.8904557561D-01
     alpha-beta  T2 =       0.3040163286D+00 E2=     -0.4954686376D+00
     beta-beta   T2 =       0.5212879354D-01 E2=     -0.8904557561D-01
 ANorm=    0.1186707174D+01
 E2 =    -0.6735597888D+00 EUMP2 =    -0.15074031642278D+03
 Leave Link  804 at Thu Jun 16 18:25:17 2016, MaxMem=    33554432 cpu:       115.9
 (Enter /home/proyectos/fulerenos/M3C-v1.9/M3C-deps_CCC/g09-AM64L-G09RevC.01/l913.exe)
 CIDS:  MDV=    33554432.
 Frozen-core window:  NFC=   4 NFV=   0.
 IFCWin=0 IBDFC=1 NFBD=     0     0 NFCmp=     0     0 NFFFC=     0     0
 Using DD3R+UMP44R for 1st iteration, S=T.
 Using DD4RQ for 2nd and later iterations.
 Would need an additional       119389055 words for in-memory AO integral storage.
 CCSD(T)
 =======
 Iterations=  50 Convergence= 0.100D-06
 Iteration Nr.   1
 **********************
 DD1Dir will call FoFJK   1 times, MxPair=        56
 NAB=    28 NAA=     0 NBB=     0 NumPrc=  4.
 FoFJK:  IHMeth= 1 ICntrl=     200 DoSepK=F KAlg= 0 I1Cent=   0 FoldK=F
 IRaf= 990000000 NMat=  56 IRICut=      70 DoRegI=T DoRafI=T ISym2E= 2.
 FoFCou: FMM=F IPFlag=           0 FMFlag=      100000 FMFlg1=           0
         NFxFlg=           0 DoJE=F BraDBF=F KetDBF=F FulRan=T
         wScrn=  0.000000 ICntrl=     200 IOpCl=  0 I1Cent=           0 NGrid=           0
         NMat0=   56 NMatS0=      0 NMatT0=   28 NMatD0=   56 NMtDS0=    0 NMtDT0=    0
 Integrals replicated using symmetry in FoFCou.
 MP4(R+Q)=  0.57425749D-01
 Maximum subspace dimension=  5
 Norm of the A-vectors is  1.8151809D+00 conv= 1.00D-05.
 RLE energy=       -0.5571968572
 E3=        0.82690644D-01        EUMP3=      -0.15065762578D+03
 E4(DQ)=   -0.12179272D-01        UMP4(DQ)=   -0.15066980505D+03
 E4(SDQ)=  -0.32832570D-01        UMP4(SDQ)=  -0.15069045835D+03
 VARIATIONAL ENERGIES WITH THE FIRST-ORDER WAVEFUNCTION:
 DE(Corr)= -0.53289642     E(Corr)=     -150.59965305    
 NORM(A)=   0.11294474D+01
 Iteration Nr.   2
 **********************
 DD1Dir will call FoFJK   1 times, MxPair=        56
 NAB=    28 NAA=     0 NBB=     0 NumPrc=  4.
 Norm of the A-vectors is  5.8888138D-01 conv= 1.00D-05.
 RLE energy=       -0.6141555096
 DE(Corr)= -0.62243010     E(CORR)=     -150.68918673     Delta=-8.95D-02
 NORM(A)=   0.11703063D+01
 Iteration Nr.   3
 **********************
 DD1Dir will call FoFJK   1 times, MxPair=        56
 NAB=    28 NAA=     0 NBB=     0 NumPrc=  4.
 Norm of the A-vectors is  1.6204996D-01 conv= 1.00D-05.
 RLE energy=       -0.6157161257
 DE(Corr)= -0.60918369     E(CORR)=     -150.67594033     Delta= 1.32D-02
 NORM(A)=   0.11831088D+01
 Iteration Nr.   4
 **********************
 DD1Dir will call FoFJK   1 times, MxPair=        56
 NAB=    28 NAA=     0 NBB=     0 NumPrc=  4.
 Norm of the A-vectors is  7.2304156D-02 conv= 1.00D-05.
 RLE energy=       -0.6174979669
 DE(Corr)= -0.61713149     E(CORR)=     -150.68388812     Delta=-7.95D-03
 NORM(A)=   0.11893483D+01
 Iteration Nr.   5
 **********************
 DD1Dir will call FoFJK   1 times, MxPair=        56
 NAB=    28 NAA=     0 NBB=     0 NumPrc=  4.
 Norm of the A-vectors is  1.9326608D-02 conv= 1.00D-05.
 RLE energy=       -0.6184329795
 DE(Corr)= -0.61804008     E(CORR)=     -150.68479672     Delta=-9.09D-04
 NORM(A)=   0.11914841D+01
 Iteration Nr.   6
 **********************
 DD1Dir will call FoFJK   1 times, MxPair=        56
 NAB=    28 NAA=     0 NBB=     0 NumPrc=  4.
 Norm of the A-vectors is  7.3775389D-03 conv= 1.00D-05.
 RLE energy=       -0.6181362091
 DE(Corr)= -0.61816850     E(CORR)=     -150.68492513     Delta=-1.28D-04
 NORM(A)=   0.11912692D+01
 Iteration Nr.   7
 **********************
 DD1Dir will call FoFJK   1 times, MxPair=        56
 NAB=    28 NAA=     0 NBB=     0 NumPrc=  4.
 Norm of the A-vectors is  2.2317777D-03 conv= 1.00D-05.
 RLE energy=       -0.6182139528
 DE(Corr)= -0.61820014     E(CORR)=     -150.68495677     Delta=-3.16D-05
 NORM(A)=   0.11913467D+01
 Iteration Nr.   8
 **********************
 DD1Dir will call FoFJK   1 times, MxPair=        56
 NAB=    28 NAA=     0 NBB=     0 NumPrc=  4.
 Norm of the A-vectors is  8.9813730D-04 conv= 1.00D-05.
 RLE energy=       -0.6181688650
 DE(Corr)= -0.61817705     E(CORR)=     -150.68493369     Delta= 2.31D-05
 NORM(A)=   0.11913072D+01
 Iteration Nr.   9
 **********************
 DD1Dir will call FoFJK   1 times, MxPair=        56
 NAB=    28 NAA=     0 NBB=     0 NumPrc=  4.
 Norm of the A-vectors is  3.6263761D-04 conv= 1.00D-05.
 RLE energy=       -0.6181946043
 DE(Corr)= -0.61819767     E(CORR)=     -150.68495431     Delta=-2.06D-05
 NORM(A)=   0.11913290D+01
 Iteration Nr.  10
 **********************
 DD1Dir will call FoFJK   1 times, MxPair=        56
 NAB=    28 NAA=     0 NBB=     0 NumPrc=  4.
 Norm of the A-vectors is  1.3508874D-04 conv= 1.00D-05.
 RLE energy=       -0.6181895540
 DE(Corr)= -0.61818839     E(CORR)=     -150.68494503     Delta= 9.28D-06
 NORM(A)=   0.11913275D+01
 Iteration Nr.  11
 **********************
 DD1Dir will call FoFJK   1 times, MxPair=        56
 NAB=    28 NAA=     0 NBB=     0 NumPrc=  4.
 Norm of the A-vectors is  5.4906807D-05 conv= 1.00D-05.
 RLE energy=       -0.6181908945
 DE(Corr)= -0.61819197     E(CORR)=     -150.68494860     Delta=-3.58D-06
 NORM(A)=   0.11913303D+01
 Iteration Nr.  12
 **********************
 DD1Dir will call FoFJK   1 times, MxPair=        56
 NAB=    28 NAA=     0 NBB=     0 NumPrc=  4.
 Norm of the A-vectors is  2.1628044D-05 conv= 1.00D-05.
 RLE energy=       -0.6181918927
 DE(Corr)= -0.61819189     E(CORR)=     -150.68494853     Delta= 7.83D-08
 NORM(A)=   0.11913317D+01
 Iteration Nr.  13
 **********************
 DD1Dir will call FoFJK   1 times, MxPair=        56
 NAB=    28 NAA=     0 NBB=     0 NumPrc=  4.
 Norm of the A-vectors is  9.1703051D-06 conv= 1.00D-05.
 RLE energy=       -0.6181918236
 DE(Corr)= -0.61819173     E(CORR)=     -150.68494836     Delta= 1.63D-07
 NORM(A)=   0.11913320D+01
 Iteration Nr.  14
 **********************
 DD1Dir will call FoFJK   1 times, MxPair=        56
 NAB=    28 NAA=     0 NBB=     0 NumPrc=  4.
 Norm of the A-vectors is  4.2181813D-06 conv= 1.00D-05.
 RLE energy=       -0.6181918453
 DE(Corr)= -0.61819188     E(CORR)=     -150.68494851     Delta=-1.48D-07
 NORM(A)=   0.11913322D+01
 Iteration Nr.  15
 **********************
 DD1Dir will call FoFJK   1 times, MxPair=        56
 NAB=    28 NAA=     0 NBB=     0 NumPrc=  4.
 Norm of the A-vectors is  1.6032143D-06 conv= 1.00D-05.
 RLE energy=       -0.6181919112
 DE(Corr)= -0.61819189     E(CORR)=     -150.68494853     Delta=-1.47D-08
 NORM(A)=   0.11913323D+01
 CI/CC converged in   15 iterations to DelEn=-1.47D-08 Conv= 1.00D-07 ErrA1= 1.60D-06 Conv= 1.00D-05
 Dominant configurations:
 ***********************
 Spin Case        I    J    A    B          Value
   ABAB          10   10   12   12      -0.122943D+00
   ABAB          10   10   13   13      -0.122920D+00
   ABAB          10   11   12   12      -0.114508D+00
   ABAB          10   11   13   13       0.114496D+00
   ABAB          11   10   12   12      -0.114508D+00
   ABAB          11   10   13   13       0.114496D+00
   ABAB          11   11   12   12      -0.171416D+00
   ABAB          11   11   13   13      -0.171420D+00
 Largest amplitude= 1.71D-01
 T4(AAA)= -0.12267399D-02
 T4(AAB)= -0.36011771D-01
 T5(AAA)=  0.53754927D-04
 T5(AAB)=  0.20202021D-02
 Time for triples=      848.66 seconds.
 T4(CCSD)= -0.74477023D-01
 T5(CCSD)=  0.41479140D-02
 CCSD(T)= -0.15075527763D+03
 Discarding MO integrals.
 Leave Link  913 at Thu Jun 16 19:51:48 2016, MaxMem=    33554432 cpu:     15887.6
 (Enter /home/proyectos/fulerenos/M3C-v1.9/M3C-deps_CCC/g09-AM64L-G09RevC.01/l601.exe)
 Copying SCF densities to generalized density rwf, IOpCl= 0 IROHF=0.

 **********************************************************************

            Population analysis using the SCF density.

 **********************************************************************

 Orbital symmetries:
       Occupied  (A) (A) (A) (A) (A) (A) (A) (A) (A) (A) (A)
       Virtual   (A) (A) (A) (A) (A) (A) (A) (A) (A) (A) (A) (A)
                 (A) (A) (A) (A) (A) (A) (A) (A) (A) (A) (A) (A)
                 (A) (A) (A) (A) (A) (A) (A) (A) (A) (A) (A) (A)
                 (A) (A) (A) (A) (A) (A) (A) (A) (A) (A) (A) (A)
                 (A) (A) (A) (A) (A) (A) (A) (A) (A) (A) (A) (A)
                 (A) (A) (A) (A) (A) (A) (A) (A) (A) (A) (A) (A)
                 (A) (A) (A) (A) (A) (A) (A) (A) (A) (A) (A) (A)
                 (A) (A) (A) (A) (A) (A) (A) (A) (A) (A) (A) (A)
                 (A) (A) (A) (A) (A) (A) (A) (A) (A) (A) (A) (A)
                 (A) (A) (A) (A) (A) (A) (A) (A) (A) (A) (A) (A)
                 (A) (A) (A) (A) (A) (A) (A) (A) (A) (A) (A) (A)
                 (A) (A) (A) (A) (A) (A) (A) (A) (A) (A) (A) (A)
                 (A)
 The electronic state is 1-A.
 Alpha  occ. eigenvalues --  -12.02689 -12.02582 -12.02581 -12.02509  -1.89148
 Alpha  occ. eigenvalues --   -1.47766  -1.47764  -1.21502  -1.09842  -1.05388
 Alpha  occ. eigenvalues --   -0.97481
 Alpha virt. eigenvalues --   -0.61607  -0.61605  -0.55906  -0.55905  -0.29631
 Alpha virt. eigenvalues --   -0.26429  -0.24717  -0.24716  -0.23135  -0.19989
 Alpha virt. eigenvalues --   -0.18421  -0.16390  -0.16268  -0.16267  -0.16083
 Alpha virt. eigenvalues --   -0.16083  -0.09669  -0.09668  -0.08988  -0.08507
 Alpha virt. eigenvalues --   -0.08506  -0.06397  -0.02576   0.00226   0.00769
 Alpha virt. eigenvalues --    0.02175   0.02176   0.08225   0.12956   0.13387
 Alpha virt. eigenvalues --    0.14517   0.14518   0.18457   0.18457   0.19487
 Alpha virt. eigenvalues --    0.20522   0.20522   0.21408   0.21408   0.26138
 Alpha virt. eigenvalues --    0.28187   0.28578   0.28579   0.29104   0.38241
 Alpha virt. eigenvalues --    0.38241   0.40878   0.40878   0.41156   0.42758
 Alpha virt. eigenvalues --    0.44471   0.49635   0.56847   0.62899   0.63333
 Alpha virt. eigenvalues --    0.65268   0.65268   0.76639   0.81174   0.90706
 Alpha virt. eigenvalues --    0.93982   0.98198   0.98198   1.09678   1.13420
 Alpha virt. eigenvalues --    1.13421   1.23881   1.26697   1.42054   1.42054
 Alpha virt. eigenvalues --    1.49717   1.49719   1.52445   1.52448   1.69343
 Alpha virt. eigenvalues --    1.71007   1.75199   1.75349   1.75351   1.96870
 Alpha virt. eigenvalues --    2.03141   2.08014   2.28083   2.28825   2.32564
 Alpha virt. eigenvalues --    2.46901   2.47546   2.47547   2.54140   2.56338
 Alpha virt. eigenvalues --    2.57359   2.58779   2.58780   2.67357   2.73449
 Alpha virt. eigenvalues --    2.73450   2.82892   2.82894   2.84255   2.84261
 Alpha virt. eigenvalues --    3.08524   3.08525   3.08937   3.12064   3.13638
 Alpha virt. eigenvalues --    3.25979   3.25987   3.32605   3.57520   3.75491
 Alpha virt. eigenvalues --    3.75500   3.83964   3.83971   4.01821   4.02283
 Alpha virt. eigenvalues --    4.07285   4.09306   4.31448   4.31453   4.66534
 Alpha virt. eigenvalues --    5.52708   6.70645   6.71233   6.78889   6.83656
 Alpha virt. eigenvalues --    6.83658   6.90224   6.93860   6.93866   7.02669
 Alpha virt. eigenvalues --    7.11277   7.11278   7.32924   7.35737   7.35743
 Alpha virt. eigenvalues --    7.42999   7.60761   7.60772   7.73763   8.38153
 Alpha virt. eigenvalues --    9.12133  23.93424  25.28776  25.30763  25.30782
          Condensed to atoms (all electrons):
               1          2          3          4
     1  C    8.225912  -2.110809  -2.110977   1.495917
     2  C   -2.110809   8.225837   1.495879  -2.110978
     3  C   -2.110977   1.495879   8.225874  -2.110807
     4  C    1.495917  -2.110978  -2.110807   8.225928
 Mulliken charges:
               1
     1  C    0.499957
     2  C    0.500072
     3  C    0.500031
     4  C    0.499940
 Sum of Mulliken charges =   2.00000
 Mulliken charges with hydrogens summed into heavy atoms:
               1
     1  C    0.499957
     2  C    0.500072
     3  C    0.500031
     4  C    0.499940
 Electronic spatial extent (au):  <R**2>=            117.6520
 Charge=              2.0000 electrons
 Dipole moment (field-independent basis, Debye):
    X=              0.0000    Y=             -0.0002    Z=              0.0000  Tot=              0.0002
 Quadrupole moment (field-independent basis, Debye-Ang):
   XX=            -10.8087   YY=            -10.8096   ZZ=            -16.7943
   XY=             -0.0001   XZ=              0.0000   YZ=              0.0000
 Traceless Quadrupole moment (field-independent basis, Debye-Ang):
   XX=              1.9955   YY=              1.9946   ZZ=             -3.9901
   XY=             -0.0001   XZ=              0.0000   YZ=              0.0000
 Octapole moment (field-independent basis, Debye-Ang**2):
  XXX=              0.0001  YYY=             -0.0008  ZZZ=              0.0000  XYY=             -0.0000
  XXY=             -0.0003  XXZ=              0.0001  XZZ=             -0.0000  YZZ=              0.0000
  YYZ=             -0.0001  XYZ=             -0.0000
 Hexadecapole moment (field-independent basis, Debye-Ang**3):
 XXXX=            -60.7625 YYYY=            -60.7621 ZZZZ=            -15.4875 XXXY=             -2.9440
 XXXZ=              0.0000 YYYX=              2.9437 YYYZ=              0.0000 ZZZX=              0.0000
 ZZZY=              0.0000 XXYY=            -21.4870 XXZZ=            -13.0736 YYZZ=            -13.0733
 XXYZ=             -0.0000 YYXZ=              0.0000 ZZXY=             -0.0000
 N-N= 7.153293955752D+01 E-N=-4.785782618775D+02  KE= 1.499639369410D+02
 Leave Link  601 at Thu Jun 16 19:51:48 2016, MaxMem=    33554432 cpu:         0.2
 (Enter /home/proyectos/fulerenos/M3C-v1.9/M3C-deps_CCC/g09-AM64L-G09RevC.01/l9999.exe)
 1\1\GINC-BLADI22\SP\RCCSD(T)-FC\6-311+G(3df)\C4(2+)\ROOT\16-Jun-2016\0
 \\#p ccsd(t)/6-311+G(3df) scf(MaxCyc=300) guess(Huckel)\\ccsd(t) iener
 \\2,1\C,0,0.624166,0.79759,0.11753\C,0,-0.773639,0.550738,0.371028\C,0
 ,0.773653,-0.550744,-0.371021\C,0,-0.624181,-0.797584,-0.117536\\Versi
 on=EM64L-G09RevE.01\State=1-A\HF=-150.0667566\MP2=-150.7403164\MP3=-15
 0.6576258\MP4D=-150.7272308\MP4DQ=-150.6698051\MP4SDQ=-150.6904583\CCS
 D=-150.6849485\CCSD(T)=-150.7552776\RMSD=8.264e-09\PG=C01 [X(C4)]\\@


 THE MOST INCOMPREHENSIBLE THING ABOUT THE WORLD
 IS THAT IT IS COMPREHENSIBLE. -- A. EINSTEIN
 Job cpu time:       0 days  4 hours 30 minutes  6.5 seconds.
 File lengths (MBytes):  RWF=   1074 Int=      0 D2E=      0 Chk=      2 Scr=      1
 Normal termination of Gaussian 09 at Thu Jun 16 19:51:49 2016.
