 Entering Gaussian System, Link 0=/home/proyectos/fulerenos/M3C-v1.9/M3C-deps_CCC/g09-AM64L-G09RevC.01/g09
 Initial command:
 /home/proyectos/fulerenos/M3C-v1.9/M3C-deps_CCC/g09-AM64L-G09RevC.01/l1.exe "/scratch/naguirre/gaussian/Gau-5058.inp" -scrdir="/scratch/naguirre/gaussian/"
 Entering Link 1 = /home/proyectos/fulerenos/M3C-v1.9/M3C-deps_CCC/g09-AM64L-G09RevC.01/l1.exe PID=      5064.
  
 Copyright (c) 1988,1990,1992,1993,1995,1998,2003,2009,2015,
            Gaussian, Inc.  All Rights Reserved.
  
 This is part of the Gaussian(R) 09 program.  It is based on
 the Gaussian(R) 03 system (copyright 2003, Gaussian, Inc.),
 the Gaussian(R) 98 system (copyright 1998, Gaussian, Inc.),
 the Gaussian(R) 94 system (copyright 1995, Gaussian, Inc.),
 the Gaussian 92(TM) system (copyright 1992, Gaussian, Inc.),
 the Gaussian 90(TM) system (copyright 1990, Gaussian, Inc.),
 the Gaussian 88(TM) system (copyright 1988, Gaussian, Inc.),
 the Gaussian 86(TM) system (copyright 1986, Carnegie Mellon
 University), and the Gaussian 82(TM) system (copyright 1983,
 Carnegie Mellon University). Gaussian is a federally registered
 trademark of Gaussian, Inc.
  
 This software contains proprietary and confidential information,
 including trade secrets, belonging to Gaussian, Inc.
  
 This software is provided under written license and may be
 used, copied, transmitted, or stored only in accord with that
 written license.
  
 The following legend is applicable only to US Government
 contracts under FAR:
  
                    RESTRICTED RIGHTS LEGEND
  
 Use, reproduction and disclosure by the US Government is
 subject to restrictions as set forth in subparagraphs (a)
 and (c) of the Commercial Computer Software - Restricted
 Rights clause in FAR 52.227-19.
  
 Gaussian, Inc.
 340 Quinnipiac St., Bldg. 40, Wallingford CT 06492
  
  
 ---------------------------------------------------------------
 Warning -- This program may not be used in any manner that
 competes with the business of Gaussian, Inc. or will provide
 assistance to any competitor of Gaussian, Inc.  The licensee
 of this program is prohibited from giving any competitor of
 Gaussian, Inc. access to this program.  By using this program,
 the user acknowledges that Gaussian, Inc. is engaged in the
 business of creating and licensing software in the field of
 computational chemistry and represents and warrants to the
 licensee that it is not a competitor of Gaussian, Inc. and that
 it will not use this program in any manner prohibited above.
 ---------------------------------------------------------------
  

 Cite this work as:
 Gaussian 09, Revision E.01,
 M. J. Frisch, G. W. Trucks, H. B. Schlegel, G. E. Scuseria, 
 M. A. Robb, J. R. Cheeseman, G. Scalmani, V. Barone, B. Mennucci, 
 G. A. Petersson, H. Nakatsuji, M. Caricato, X. Li, H. P. Hratchian, 
 A. F. Izmaylov, J. Bloino, G. Zheng, J. L. Sonnenberg, M. Hada, 
 M. Ehara, K. Toyota, R. Fukuda, J. Hasegawa, M. Ishida, T. Nakajima, 
 Y. Honda, O. Kitao, H. Nakai, T. Vreven, J. A. Montgomery, Jr., 
 J. E. Peralta, F. Ogliaro, M. Bearpark, J. J. Heyd, E. Brothers, 
 K. N. Kudin, V. N. Staroverov, T. Keith, R. Kobayashi, J. Normand, 
 K. Raghavachari, A. Rendell, J. C. Burant, S. S. Iyengar, J. Tomasi, 
 M. Cossi, N. Rega, J. M. Millam, M. Klene, J. E. Knox, J. B. Cross, 
 V. Bakken, C. Adamo, J. Jaramillo, R. Gomperts, R. E. Stratmann, 
 O. Yazyev, A. J. Austin, R. Cammi, C. Pomelli, J. W. Ochterski, 
 R. L. Martin, K. Morokuma, V. G. Zakrzewski, G. A. Voth, 
 P. Salvador, J. J. Dannenberg, S. Dapprich, A. D. Daniels, 
 O. Farkas, J. B. Foresman, J. V. Ortiz, J. Cioslowski, 
 and D. J. Fox, Gaussian, Inc., Wallingford CT, 2013.
 
 ******************************************
 Gaussian 09:  EM64L-G09RevE.01 30-Nov-2015
                16-Jun-2016 
 ******************************************
 %NProcShared=4
 Will use up to    4 processors via shared memory.
 -----------------------------------------------------
 #p ccsd(t)/6-311+G(3df) scf(MaxCyc=300) guess(Huckel)
 -----------------------------------------------------
 1/38=1/1;
 2/12=2,17=6,18=5,40=1/2;
 3/5=4,6=6,7=16,11=9,16=1,25=1,30=1/1,2,3;
 4/11=4/1;
 5/5=2,7=300,38=5/2;
 8/6=4,9=120000,10=2/1,4;
 9/5=7,14=2/13;
 6/7=2,8=2,9=2,10=2/1;
 99/5=1,9=1/99;
 Leave Link    1 at Thu Jun 16 18:23:47 2016, MaxMem=           0 cpu:         0.1
 (Enter /home/proyectos/fulerenos/M3C-v1.9/M3C-deps_CCC/g09-AM64L-G09RevC.01/l101.exe)
 -------------
 ccsd(t) iener
 -------------
 Symbolic Z-matrix:
 Charge =  2 Multiplicity = 1
 C                     0.24198  -0.1967    0.83419 
 C                     0.65493   0.45092  -0.40009 
 C                    -0.15906  -0.75248  -0.44861 
 C                    -0.73785   0.49826   0.01451 
 
 NAtoms=      4 NQM=        4 NQMF=       0 NMMI=      0 NMMIF=      0
                NMic=       0 NMicF=      0.
                    Isotopes and Nuclear Properties:
 (Nuclear quadrupole moments (NQMom) in fm**2, nuclear magnetic moments (NMagM)
  in nuclear magnetons)

  Atom         1           2           3           4
 IAtWgt=          12          12          12          12
 AtmWgt=  12.0000000  12.0000000  12.0000000  12.0000000
 NucSpn=           0           0           0           0
 AtZEff=   0.0000000   0.0000000   0.0000000   0.0000000
 NQMom=    0.0000000   0.0000000   0.0000000   0.0000000
 NMagM=    0.0000000   0.0000000   0.0000000   0.0000000
 AtZNuc=   6.0000000   6.0000000   6.0000000   6.0000000
 Leave Link  101 at Thu Jun 16 18:23:47 2016, MaxMem=    33554432 cpu:         0.3
 (Enter /home/proyectos/fulerenos/M3C-v1.9/M3C-deps_CCC/g09-AM64L-G09RevC.01/l202.exe)
                          Input orientation:                          
 ---------------------------------------------------------------------
 Center     Atomic      Atomic             Coordinates (Angstroms)
 Number     Number       Type             X           Y           Z
 ---------------------------------------------------------------------
      1          6           0        0.241979   -0.196698    0.834190
      2          6           0        0.654933    0.450919   -0.400093
      3          6           0       -0.159060   -0.752479   -0.448606
      4          6           0       -0.737852    0.498259    0.014509
 ---------------------------------------------------------------------
                    Distance matrix (angstroms):
                    1          2          3          4
     1  C    0.000000
     2  C    1.453751   0.000000
     3  C    1.454404   1.453652   0.000000
     4  C    1.454273   1.453955   1.453899   0.000000
 Stoichiometry    C4(2+)
 Framework group  C1[X(C4)]
 Deg. of freedom     6
 Full point group                 C1      NOp   1
 Largest Abelian subgroup         C1      NOp   1
 Largest concise Abelian subgroup C1      NOp   1
                         Standard orientation:                         
 ---------------------------------------------------------------------
 Center     Atomic      Atomic             Coordinates (Angstroms)
 Number     Number       Type             X           Y           Z
 ---------------------------------------------------------------------
      1          6           0       -0.790487    0.127505   -0.389859
      2          6           0       -0.118235   -0.401950    0.785364
      3          6           0        0.509419   -0.511463   -0.521221
      4          6           0        0.399303    0.785907    0.125716
 ---------------------------------------------------------------------
 Rotational constants (GHZ):     19.9282518     19.9213356     19.9137597
 Leave Link  202 at Thu Jun 16 18:23:47 2016, MaxMem=    33554432 cpu:         0.0
 (Enter /home/proyectos/fulerenos/M3C-v1.9/M3C-deps_CCC/g09-AM64L-G09RevC.01/l301.exe)
 Standard basis: 6-311+G(3df) (5D, 7F)
 Ernie: Thresh=  0.10000D-02 Tol=  0.10000D-05 Strict=F.
 There are   180 symmetry adapted cartesian basis functions of A   symmetry.
 There are   156 symmetry adapted basis functions of A   symmetry.
   156 basis functions,   232 primitive gaussians,   180 cartesian basis functions
    11 alpha electrons       11 beta electrons
       nuclear repulsion energy        78.6128857339 Hartrees.
 IExCor=    0 DFT=F Ex=HF Corr=None ExCW=0 ScaHFX=  1.000000
 ScaDFX=  1.000000  1.000000  1.000000  1.000000 ScalE2=  1.000000  1.000000
 IRadAn=      0 IRanWt=     -1 IRanGd=            0 ICorTp=0 IEmpDi=  4
 NAtoms=    4 NActive=    4 NUniq=    4 SFac= 1.00D+00 NAtFMM=   60 NAOKFM=F Big=F
 Integral buffers will be    131072 words long.
 Raffenetti 1 integral format.
 Two-electron integral symmetry is turned on.
 Leave Link  301 at Thu Jun 16 18:23:47 2016, MaxMem=    33554432 cpu:         0.3
 (Enter /home/proyectos/fulerenos/M3C-v1.9/M3C-deps_CCC/g09-AM64L-G09RevC.01/l302.exe)
 NPDir=0 NMtPBC=     1 NCelOv=     1 NCel=       1 NClECP=     1 NCelD=      1
         NCelK=      1 NCelE2=     1 NClLst=     1 CellRange=     0.0.
 One-electron integrals computed using PRISM.
 NBasis=   156 RedAO= T EigKep=  4.85D-05  NBF=   156
 NBsUse=   156 1.00D-06 EigRej= -1.00D+00 NBFU=   156
 Leave Link  302 at Thu Jun 16 18:23:48 2016, MaxMem=    33554432 cpu:         1.0
 (Enter /home/proyectos/fulerenos/M3C-v1.9/M3C-deps_CCC/g09-AM64L-G09RevC.01/l303.exe)
 DipDrv:  MaxL=1.
 Leave Link  303 at Thu Jun 16 18:23:48 2016, MaxMem=    33554432 cpu:         0.1
 (Enter /home/proyectos/fulerenos/M3C-v1.9/M3C-deps_CCC/g09-AM64L-G09RevC.01/l401.exe)
 Projected New-EHT guess.
 Enter ItEHT:  IZDO=4 IZDPar=0 Conv= 1.00D-06 N=   16
 It=   1                  EEH= -72.2341260180     EQH= 0.000000000000E+00 EH= -72.2341260180    
 JPrj=0 DoOrth=T DoCkMO=T.
 Leave Link  401 at Thu Jun 16 18:23:48 2016, MaxMem=    33554432 cpu:         0.4
 (Enter /home/proyectos/fulerenos/M3C-v1.9/M3C-deps_CCC/g09-AM64L-G09RevC.01/l502.exe)
 Closed shell SCF:
 Using DIIS extrapolation, IDIIS=  1040.
 Integral symmetry usage will be decided dynamically.
 IVT=      192586 IEndB=      192586 NGot=    33554432 MDV=    33485027
 LenX=    33485027 LenY=    33452186
 Requested convergence on RMS density matrix=1.00D-08 within 300 cycles.
 Requested convergence on MAX density matrix=1.00D-06.
 Requested convergence on             energy=1.00D-06.
 No special actions if energy rises.
 Fock matrices will be formed incrementally for  20 cycles.

 Cycle   1  Pass 0  IDiag  1:
 FoFJK:  IHMeth= 1 ICntrl=       0 DoSepK=F KAlg= 0 I1Cent=   0 FoldK=F
 IRaf= 990000000 NMat=   1 IRICut=       1 DoRegI=T DoRafI=F ISym2E= 0.
 FoFCou: FMM=F IPFlag=           0 FMFlag=      100000 FMFlg1=           0
         NFxFlg=           0 DoJE=F BraDBF=F KetDBF=F FulRan=T
         wScrn=  0.000000 ICntrl=       0 IOpCl=  0 I1Cent=           0 NGrid=           0
         NMat0=    1 NMatS0=      1 NMatT0=    0 NMatD0=    1 NMtDS0=    0 NMtDT0=    0
 Symmetry not used in FoFCou.
 E= -147.537824187015    
 DIIS: error= 2.16D-01 at cycle   1 NSaved=   1.
 NSaved= 1 IEnMin= 1 EnMin= -147.537824187015     IErMin= 1 ErrMin= 2.16D-01
 ErrMax= 2.16D-01  0.00D+00 EMaxC= 1.00D-01 BMatC= 4.65D+00 BMatP= 4.65D+00
 IDIUse=3 WtCom= 0.00D+00 WtEn= 1.00D+00
 Coeff-Com:  0.100D+01
 Coeff-En:   0.100D+01
 Coeff:      0.100D+01
 Gap=     0.310 Goal=   None    Shift=    0.000
 GapD=    0.310 DampG=1.000 DampE=0.250 DampFc=0.2500 IDamp=-1.
 Damping current iteration by 2.50D-01
 RMSDP=1.41D-02 MaxDP=3.82D-01              OVMax= 8.28D-01

 Cycle   2  Pass 0  IDiag  1:
 RMSU=  3.29D-03    CP:  9.29D-01
 E= -148.059092568453     Delta-E=       -0.521268381438 Rises=F Damp=T
 DIIS: error= 1.62D-01 at cycle   2 NSaved=   2.
 NSaved= 2 IEnMin= 2 EnMin= -148.059092568453     IErMin= 2 ErrMin= 1.62D-01
 ErrMax= 1.62D-01  0.00D+00 EMaxC= 1.00D-01 BMatC= 2.52D+00 BMatP= 4.65D+00
 IDIUse=3 WtCom= 0.00D+00 WtEn= 1.00D+00
 Coeff-Com: -0.250D+01 0.350D+01
 Coeff-En:   0.000D+00 0.100D+01
 Coeff:      0.000D+00 0.100D+01
 Gap=     0.061 Goal=   None    Shift=    0.000
 RMSDP=9.95D-03 MaxDP=2.72D-01 DE=-5.21D-01 OVMax= 1.37D-01

 Cycle   3  Pass 0  IDiag  1:
 RMSU=  2.83D-03    CP:  6.84D-01  3.00D+00
 E= -149.585868734186     Delta-E=       -1.526776165733 Rises=F Damp=F
 DIIS: error= 6.75D-02 at cycle   3 NSaved=   3.
 NSaved= 3 IEnMin= 3 EnMin= -149.585868734186     IErMin= 3 ErrMin= 6.75D-02
 ErrMax= 6.75D-02  0.00D+00 EMaxC= 1.00D-01 BMatC= 2.10D-01 BMatP= 2.52D+00
 IDIUse=3 WtCom= 3.25D-01 WtEn= 6.75D-01
 Coeff-Com:  0.274D+00-0.273D+00 0.999D+00
 Coeff-En:   0.000D+00 0.000D+00 0.100D+01
 Coeff:      0.889D-01-0.885D-01 0.100D+01
 Gap=     0.243 Goal=   None    Shift=    0.000
 RMSDP=4.16D-03 MaxDP=1.36D-01 DE=-1.53D+00 OVMax= 2.25D-01

 Cycle   4  Pass 0  IDiag  1:
 RMSU=  3.91D-03    CP:  6.35D-01  2.92D+00  9.08D-01
 E= -149.735041273844     Delta-E=       -0.149172539657 Rises=F Damp=F
 DIIS: error= 2.18D-02 at cycle   4 NSaved=   4.
 NSaved= 4 IEnMin= 4 EnMin= -149.735041273844     IErMin= 4 ErrMin= 2.18D-02
 ErrMax= 2.18D-02  0.00D+00 EMaxC= 1.00D-01 BMatC= 5.21D-02 BMatP= 2.10D-01
 IDIUse=3 WtCom= 7.82D-01 WtEn= 2.18D-01
 Coeff-Com: -0.714D-01 0.938D-01 0.283D+00 0.695D+00
 Coeff-En:   0.000D+00 0.000D+00 0.000D+00 0.100D+01
 Coeff:     -0.558D-01 0.733D-01 0.221D+00 0.761D+00
 Gap=     0.388 Goal=   None    Shift=    0.000
 RMSDP=1.82D-03 MaxDP=4.95D-02 DE=-1.49D-01 OVMax= 7.15D-02

 Cycle   5  Pass 0  IDiag  1:
 RMSU=  1.52D-03    CP:  6.25D-01  2.89D+00  7.66D-01  7.74D-01
 E= -149.778682811771     Delta-E=       -0.043641537927 Rises=F Damp=F
 DIIS: error= 8.86D-03 at cycle   5 NSaved=   5.
 NSaved= 5 IEnMin= 5 EnMin= -149.778682811771     IErMin= 5 ErrMin= 8.86D-03
 ErrMax= 8.86D-03  0.00D+00 EMaxC= 1.00D-01 BMatC= 4.73D-03 BMatP= 5.21D-02
 IDIUse=3 WtCom= 9.11D-01 WtEn= 8.86D-02
 Coeff-Com: -0.582D-02 0.297D-02 0.381D-01 0.239D+00 0.726D+00
 Coeff-En:   0.000D+00 0.000D+00 0.000D+00 0.000D+00 0.100D+01
 Coeff:     -0.531D-02 0.271D-02 0.348D-01 0.218D+00 0.750D+00
 Gap=     0.367 Goal=   None    Shift=    0.000
 RMSDP=6.43D-04 MaxDP=1.85D-02 DE=-4.36D-02 OVMax= 5.70D-02

 Cycle   6  Pass 0  IDiag  1:
 RMSU=  4.49D-04    CP:  6.20D-01  2.81D+00  8.25D-01  8.60D-01  9.53D-01
 E= -149.786698869549     Delta-E=       -0.008016057778 Rises=F Damp=F
 DIIS: error= 3.30D-03 at cycle   6 NSaved=   6.
 NSaved= 6 IEnMin= 6 EnMin= -149.786698869549     IErMin= 6 ErrMin= 3.30D-03
 ErrMax= 3.30D-03  0.00D+00 EMaxC= 1.00D-01 BMatC= 1.01D-03 BMatP= 4.73D-03
 IDIUse=3 WtCom= 9.67D-01 WtEn= 3.30D-02
 Coeff-Com: -0.330D-01 0.475D-01-0.646D-01-0.172D+00 0.452D-01 0.118D+01
 Coeff-En:   0.000D+00 0.000D+00 0.000D+00 0.000D+00 0.000D+00 0.100D+01
 Coeff:     -0.319D-01 0.459D-01-0.624D-01-0.166D+00 0.437D-01 0.117D+01
 Gap=     0.361 Goal=   None    Shift=    0.000
 RMSDP=5.55D-04 MaxDP=2.21D-02 DE=-8.02D-03 OVMax= 4.23D-02

 Cycle   7  Pass 0  IDiag  1:
 RMSU=  2.51D-04    CP:  6.17D-01  2.75D+00  8.23D-01  8.55D-01  1.19D+00
                    CP:  1.58D+00
 E= -149.790038637809     Delta-E=       -0.003339768260 Rises=F Damp=F
 DIIS: error= 2.05D-03 at cycle   7 NSaved=   7.
 NSaved= 7 IEnMin= 7 EnMin= -149.790038637809     IErMin= 7 ErrMin= 2.05D-03
 ErrMax= 2.05D-03  0.00D+00 EMaxC= 1.00D-01 BMatC= 1.68D-04 BMatP= 1.01D-03
 IDIUse=3 WtCom= 9.79D-01 WtEn= 2.05D-02
 Coeff-Com: -0.829D-02 0.108D-01 0.156D-01 0.221D-01-0.100D+00-0.545D+00
 Coeff-Com:  0.161D+01
 Coeff-En:   0.000D+00 0.000D+00 0.000D+00 0.000D+00 0.000D+00 0.000D+00
 Coeff-En:   0.100D+01
 Coeff:     -0.812D-02 0.105D-01 0.153D-01 0.217D-01-0.982D-01-0.534D+00
 Coeff:      0.159D+01
 Gap=     0.359 Goal=   None    Shift=    0.000
 RMSDP=4.24D-04 MaxDP=1.49D-02 DE=-3.34D-03 OVMax= 3.64D-02

 Cycle   8  Pass 0  IDiag  1:
 RMSU=  1.20D-04    CP:  6.15D-01  2.72D+00  8.21D-01  8.52D-01  1.32D+00
                    CP:  2.12D+00  1.95D+00
 E= -149.791354045448     Delta-E=       -0.001315407639 Rises=F Damp=F
 DIIS: error= 1.09D-03 at cycle   8 NSaved=   8.
 NSaved= 8 IEnMin= 8 EnMin= -149.791354045448     IErMin= 8 ErrMin= 1.09D-03
 ErrMax= 1.09D-03  0.00D+00 EMaxC= 1.00D-01 BMatC= 5.36D-05 BMatP= 1.68D-04
 IDIUse=3 WtCom= 9.89D-01 WtEn= 1.09D-02
 Coeff-Com:  0.866D-03-0.219D-02 0.221D-01 0.547D-01-0.161D-01-0.489D+00
 Coeff-Com:  0.498D+00 0.931D+00
 Coeff-En:   0.000D+00 0.000D+00 0.000D+00 0.000D+00 0.000D+00 0.000D+00
 Coeff-En:   0.000D+00 0.100D+01
 Coeff:      0.856D-03-0.217D-02 0.219D-01 0.541D-01-0.160D-01-0.483D+00
 Coeff:      0.493D+00 0.932D+00
 Gap=     0.361 Goal=   None    Shift=    0.000
 RMSDP=1.83D-04 MaxDP=5.12D-03 DE=-1.32D-03 OVMax= 1.75D-02

 Cycle   9  Pass 0  IDiag  1:
 RMSU=  6.08D-05    CP:  6.15D-01  2.71D+00  8.19D-01  8.47D-01  1.36D+00
                    CP:  2.31D+00  2.42D+00  1.42D+00
 E= -149.791692573276     Delta-E=       -0.000338527827 Rises=F Damp=F
 DIIS: error= 5.45D-04 at cycle   9 NSaved=   9.
 NSaved= 9 IEnMin= 9 EnMin= -149.791692573276     IErMin= 9 ErrMin= 5.45D-04
 ErrMax= 5.45D-04  0.00D+00 EMaxC= 1.00D-01 BMatC= 1.82D-05 BMatP= 5.36D-05
 IDIUse=3 WtCom= 9.95D-01 WtEn= 5.45D-03
 Coeff-Com:  0.302D-03-0.282D-03-0.535D-02-0.535D-02 0.492D-01 0.156D+00
 Coeff-Com: -0.659D+00 0.958D-01 0.137D+01
 Coeff-En:   0.000D+00 0.000D+00 0.000D+00 0.000D+00 0.000D+00 0.000D+00
 Coeff-En:   0.000D+00 0.000D+00 0.100D+01
 Coeff:      0.301D-03-0.281D-03-0.532D-02-0.532D-02 0.489D-01 0.155D+00
 Coeff:     -0.656D+00 0.952D-01 0.137D+01
 Gap=     0.361 Goal=   None    Shift=    0.000
 RMSDP=1.93D-04 MaxDP=5.11D-03 DE=-3.39D-04 OVMax= 1.51D-02

 Cycle  10  Pass 0  IDiag  1:
 RMSU=  3.95D-05    CP:  6.15D-01  2.70D+00  8.16D-01  8.41D-01  1.40D+00
                    CP:  2.48D+00  2.88D+00  2.21D+00  1.70D+00
 E= -149.791876802110     Delta-E=       -0.000184228835 Rises=F Damp=F
 DIIS: error= 3.76D-04 at cycle  10 NSaved=  10.
 NSaved=10 IEnMin=10 EnMin= -149.791876802110     IErMin=10 ErrMin= 3.76D-04
 ErrMax= 3.76D-04  0.00D+00 EMaxC= 1.00D-01 BMatC= 4.00D-06 BMatP= 1.82D-05
 IDIUse=3 WtCom= 9.96D-01 WtEn= 3.76D-03
 Coeff-Com: -0.225D-03 0.386D-03-0.503D-04-0.303D-02-0.229D-01-0.814D-02
 Coeff-Com:  0.301D+00-0.234D+00-0.749D+00 0.172D+01
 Coeff-En:   0.000D+00 0.000D+00 0.000D+00 0.000D+00 0.000D+00 0.000D+00
 Coeff-En:   0.000D+00 0.000D+00 0.000D+00 0.100D+01
 Coeff:     -0.224D-03 0.385D-03-0.501D-04-0.302D-02-0.228D-01-0.810D-02
 Coeff:      0.300D+00-0.233D+00-0.747D+00 0.171D+01
 Gap=     0.362 Goal=   None    Shift=    0.000
 RMSDP=8.95D-05 MaxDP=1.35D-03 DE=-1.84D-04 OVMax= 8.38D-03

 Cycle  11  Pass 0  IDiag  1:
 RMSU=  1.94D-05    CP:  6.15D-01  2.70D+00  8.15D-01  8.38D-01  1.41D+00
                    CP:  2.51D+00  3.00D+00  2.64D+00  2.33D+00  2.13D+00
 E= -149.791936779430     Delta-E=       -0.000059977319 Rises=F Damp=F
 DIIS: error= 2.83D-04 at cycle  11 NSaved=  11.
 NSaved=11 IEnMin=11 EnMin= -149.791936779430     IErMin=11 ErrMin= 2.83D-04
 ErrMax= 2.83D-04  0.00D+00 EMaxC= 1.00D-01 BMatC= 2.22D-06 BMatP= 4.00D-06
 IDIUse=3 WtCom= 9.97D-01 WtEn= 2.83D-03
 Coeff-Com: -0.425D-03 0.493D-03 0.341D-03 0.374D-02 0.513D-02-0.995D-02
 Coeff-Com: -0.178D+00 0.165D+00 0.617D+00-0.235D+01 0.275D+01
 Coeff-En:   0.000D+00 0.000D+00 0.000D+00 0.000D+00 0.000D+00 0.000D+00
 Coeff-En:   0.000D+00 0.000D+00 0.000D+00 0.000D+00 0.100D+01
 Coeff:     -0.424D-03 0.492D-03 0.340D-03 0.373D-02 0.512D-02-0.992D-02
 Coeff:     -0.178D+00 0.164D+00 0.615D+00-0.234D+01 0.274D+01
 Gap=     0.363 Goal=   None    Shift=    0.000
 RMSDP=1.20D-04 MaxDP=1.89D-03 DE=-6.00D-05 OVMax= 1.20D-02

 Cycle  12  Pass 0  IDiag  1:
 RMSU=  5.38D-05    CP:  6.14D-01  2.69D+00  8.13D-01  8.34D-01  1.42D+00
                    CP:  2.53D+00  3.00D+00  3.00D+00  3.00D+00  3.00D+00
                    CP:  3.00D+00
 E= -149.791990093167     Delta-E=       -0.000053313738 Rises=F Damp=F
 DIIS: error= 1.46D-04 at cycle  12 NSaved=  12.
 NSaved=12 IEnMin=12 EnMin= -149.791990093167     IErMin=12 ErrMin= 1.46D-04
 ErrMax= 1.46D-04  0.00D+00 EMaxC= 1.00D-01 BMatC= 8.99D-07 BMatP= 2.22D-06
 IDIUse=3 WtCom= 9.99D-01 WtEn= 1.46D-03
 Coeff-Com:  0.112D-03-0.239D-03 0.216D-03 0.270D-02 0.159D-01 0.110D-01
 Coeff-Com: -0.235D+00 0.153D+00 0.680D+00-0.173D+01 0.928D+00 0.117D+01
 Coeff-En:   0.000D+00 0.000D+00 0.000D+00 0.000D+00 0.000D+00 0.000D+00
 Coeff-En:   0.000D+00 0.000D+00 0.000D+00 0.000D+00 0.000D+00 0.100D+01
 Coeff:      0.112D-03-0.239D-03 0.215D-03 0.270D-02 0.158D-01 0.110D-01
 Coeff:     -0.235D+00 0.153D+00 0.679D+00-0.173D+01 0.927D+00 0.117D+01
 Gap=     0.363 Goal=   None    Shift=    0.000
 RMSDP=7.41D-05 MaxDP=1.18D-03 DE=-5.33D-05 OVMax= 7.57D-03

 Cycle  13  Pass 0  IDiag  1:
 RMSU=  4.44D-05    CP:  6.14D-01  2.69D+00  8.11D-01  8.31D-01  1.43D+00
                    CP:  2.54D+00  3.00D+00  3.00D+00  3.00D+00  3.00D+00
                    CP:  3.00D+00  2.07D+00
 E= -149.792006671724     Delta-E=       -0.000016578557 Rises=F Damp=F
 DIIS: error= 5.78D-05 at cycle  13 NSaved=  13.
 NSaved=13 IEnMin=13 EnMin= -149.792006671724     IErMin=13 ErrMin= 5.78D-05
 ErrMax= 5.78D-05  0.00D+00 EMaxC= 1.00D-01 BMatC= 1.80D-07 BMatP= 8.99D-07
 IDIUse=1 WtCom= 1.00D+00 WtEn= 0.00D+00
 Coeff-Com: -0.299D-04 0.266D-04-0.169D-03-0.528D-03 0.585D-02 0.127D-01
 Coeff-Com: -0.511D-01-0.418D-02 0.951D-01 0.101D+00-0.606D+00 0.377D+00
 Coeff-Com:  0.107D+01
 Coeff:     -0.299D-04 0.266D-04-0.169D-03-0.528D-03 0.585D-02 0.127D-01
 Coeff:     -0.511D-01-0.418D-02 0.951D-01 0.101D+00-0.606D+00 0.377D+00
 Coeff:      0.107D+01
 Gap=     0.363 Goal=   None    Shift=    0.000
 RMSDP=4.58D-05 MaxDP=7.06D-04 DE=-1.66D-05 OVMax= 4.64D-03

 Cycle  14  Pass 0  IDiag  1:
 RMSU=  4.21D-06    CP:  6.14D-01  2.69D+00  8.10D-01  8.29D-01  1.43D+00
                    CP:  2.55D+00  3.00D+00  3.00D+00  3.00D+00  3.00D+00
                    CP:  3.00D+00  2.75D+00  1.56D+00
 E= -149.792010060527     Delta-E=       -0.000003388803 Rises=F Damp=F
 DIIS: error= 3.12D-05 at cycle  14 NSaved=  14.
 NSaved=14 IEnMin=14 EnMin= -149.792010060527     IErMin=14 ErrMin= 3.12D-05
 ErrMax= 3.12D-05  0.00D+00 EMaxC= 1.00D-01 BMatC= 2.21D-08 BMatP= 1.80D-07
 IDIUse=1 WtCom= 1.00D+00 WtEn= 0.00D+00
 Coeff-Com: -0.173D-04 0.268D-04 0.172D-04-0.141D-04-0.147D-02-0.237D-02
 Coeff-Com:  0.128D-01-0.152D-02-0.276D-01 0.226D-02 0.139D+00-0.188D+00
 Coeff-Com: -0.192D+00 0.126D+01
 Coeff:     -0.173D-04 0.268D-04 0.172D-04-0.141D-04-0.147D-02-0.237D-02
 Coeff:      0.128D-01-0.152D-02-0.276D-01 0.226D-02 0.139D+00-0.188D+00
 Coeff:     -0.192D+00 0.126D+01
 Gap=     0.363 Goal=   None    Shift=    0.000
 RMSDP=6.28D-06 MaxDP=1.28D-04 DE=-3.39D-06 OVMax= 6.01D-04

 Initial convergence to 1.0D-05 achieved.  Increase integral accuracy.
 Cycle  15  Pass 1  IDiag  1:
 E= -149.792010296893     Delta-E=       -0.000000236366 Rises=F Damp=F
 DIIS: error= 2.69D-05 at cycle   1 NSaved=   1.
 NSaved= 1 IEnMin= 1 EnMin= -149.792010296893     IErMin= 1 ErrMin= 2.69D-05
 ErrMax= 2.69D-05  0.00D+00 EMaxC= 1.00D-01 BMatC= 1.51D-08 BMatP= 1.51D-08
 IDIUse=1 WtCom= 1.00D+00 WtEn= 0.00D+00
 Coeff-Com:  0.100D+01
 Coeff:      0.100D+01
 Gap=     0.363 Goal=   None    Shift=    0.000
 RMSDP=6.28D-06 MaxDP=1.28D-04 DE=-2.36D-07 OVMax= 2.27D-04

 Cycle  16  Pass 1  IDiag  1:
 RMSU=  2.59D-06    CP:  1.00D+00
 E= -149.792010421160     Delta-E=       -0.000000124267 Rises=F Damp=F
 DIIS: error= 2.57D-05 at cycle   2 NSaved=   2.
 NSaved= 2 IEnMin= 2 EnMin= -149.792010421160     IErMin= 2 ErrMin= 2.57D-05
 ErrMax= 2.57D-05  0.00D+00 EMaxC= 1.00D-01 BMatC= 1.34D-08 BMatP= 1.51D-08
 IDIUse=1 WtCom= 1.00D+00 WtEn= 0.00D+00
 Coeff-Com: -0.366D+00 0.137D+01
 Coeff:     -0.366D+00 0.137D+01
 Gap=     0.363 Goal=   None    Shift=    0.000
 RMSDP=3.36D-06 MaxDP=6.78D-05 DE=-1.24D-07 OVMax= 2.99D-04

 Cycle  17  Pass 1  IDiag  1:
 RMSU=  4.59D-07    CP:  1.00D+00  2.28D+00
 E= -149.792010575621     Delta-E=       -0.000000154461 Rises=F Damp=F
 DIIS: error= 2.45D-05 at cycle   3 NSaved=   3.
 NSaved= 3 IEnMin= 3 EnMin= -149.792010575621     IErMin= 3 ErrMin= 2.45D-05
 ErrMax= 2.45D-05  0.00D+00 EMaxC= 1.00D-01 BMatC= 1.25D-08 BMatP= 1.34D-08
 IDIUse=1 WtCom= 1.00D+00 WtEn= 0.00D+00
 Coeff-Com: -0.383D+01 0.867D+00 0.396D+01
 Coeff:     -0.383D+01 0.867D+00 0.396D+01
 Gap=     0.363 Goal=   None    Shift=    0.000
 RMSDP=2.13D-05 MaxDP=4.19D-04 DE=-1.54D-07 OVMax= 1.89D-03

 Cycle  18  Pass 1  IDiag  1:
 RMSU=  1.94D-05    CP:  1.00D+00  3.00D+00  3.00D+00
 E= -149.792011361155     Delta-E=       -0.000000785534 Rises=F Damp=F
 DIIS: error= 1.59D-05 at cycle   4 NSaved=   4.
 NSaved= 4 IEnMin= 4 EnMin= -149.792011361155     IErMin= 4 ErrMin= 1.59D-05
 ErrMax= 1.59D-05  0.00D+00 EMaxC= 1.00D-01 BMatC= 6.53D-09 BMatP= 1.25D-08
 IDIUse=1 WtCom= 1.00D+00 WtEn= 0.00D+00
 Coeff-Com:  0.417D+01-0.315D+01-0.255D+01 0.253D+01
 Coeff:      0.417D+01-0.315D+01-0.255D+01 0.253D+01
 Gap=     0.363 Goal=   None    Shift=    0.000
 RMSDP=1.93D-05 MaxDP=3.95D-04 DE=-7.86D-07 OVMax= 1.72D-03

 Cycle  19  Pass 1  IDiag  1:
 RMSU=  2.12D-06    CP:  1.00D+00  3.00D+00  3.00D+00  1.99D+00
 E= -149.792011808262     Delta-E=       -0.000000447107 Rises=F Damp=F
 DIIS: error= 8.87D-06 at cycle   5 NSaved=   5.
 NSaved= 5 IEnMin= 5 EnMin= -149.792011808262     IErMin= 5 ErrMin= 8.87D-06
 ErrMax= 8.87D-06  0.00D+00 EMaxC= 1.00D-01 BMatC= 2.93D-09 BMatP= 6.53D-09
 IDIUse=1 WtCom= 1.00D+00 WtEn= 0.00D+00
 Coeff-Com:  0.173D+01-0.838D+00-0.106D+01-0.802D+00 0.197D+01
 Coeff:      0.173D+01-0.838D+00-0.106D+01-0.802D+00 0.197D+01
 Gap=     0.363 Goal=   None    Shift=    0.000
 RMSDP=1.54D-05 MaxDP=3.24D-04 DE=-4.47D-07 OVMax= 1.37D-03

 Cycle  20  Pass 1  IDiag  1:
 RMSU=  5.14D-07    CP:  1.00D+00  3.00D+00  3.00D+00  2.77D+00  2.24D+00
 E= -149.792011989034     Delta-E=       -0.000000180773 Rises=F Damp=F
 DIIS: error= 3.77D-06 at cycle   6 NSaved=   6.
 NSaved= 6 IEnMin= 6 EnMin= -149.792011989034     IErMin= 6 ErrMin= 3.77D-06
 ErrMax= 3.77D-06  0.00D+00 EMaxC= 1.00D-01 BMatC= 7.70D-10 BMatP= 2.93D-09
 IDIUse=1 WtCom= 1.00D+00 WtEn= 0.00D+00
 Coeff-Com: -0.253D+01 0.134D+01 0.201D+01-0.896D+00-0.745D+00 0.181D+01
 Coeff:     -0.253D+01 0.134D+01 0.201D+01-0.896D+00-0.745D+00 0.181D+01
 Gap=     0.363 Goal=   None    Shift=    0.000
 RMSDP=6.69D-06 MaxDP=1.47D-04 DE=-1.81D-07 OVMax= 5.87D-04

 Cycle  21  Pass 1  IDiag  1:
 RMSU=  1.98D-06    CP:  1.00D+00  3.00D+00  3.00D+00  3.00D+00  3.00D+00
                    CP:  2.11D+00
 E= -149.792012019128     Delta-E=       -0.000000030094 Rises=F Damp=F
 DIIS: error= 1.93D-06 at cycle   7 NSaved=   7.
 NSaved= 7 IEnMin= 7 EnMin= -149.792012019128     IErMin= 7 ErrMin= 1.93D-06
 ErrMax= 1.93D-06  0.00D+00 EMaxC= 1.00D-01 BMatC= 1.30D-10 BMatP= 7.70D-10
 IDIUse=1 WtCom= 1.00D+00 WtEn= 0.00D+00
 Coeff-Com:  0.211D+00-0.108D+00-0.275D+00 0.406D+00-0.288D+00-0.307D+00
 Coeff-Com:  0.136D+01
 Coeff:      0.211D+00-0.108D+00-0.275D+00 0.406D+00-0.288D+00-0.307D+00
 Coeff:      0.136D+01
 Gap=     0.363 Goal=   None    Shift=    0.000
 RMSDP=1.51D-06 MaxDP=3.61D-05 DE=-3.01D-08 OVMax= 1.30D-04

 Cycle  22  Pass 1  IDiag  1:
 RMSU=  4.34D-07    CP:  1.00D+00  3.00D+00  3.00D+00  3.00D+00  3.00D+00
                    CP:  2.49D+00  1.72D+00
 E= -149.792012021946     Delta-E=       -0.000000002818 Rises=F Damp=F
 DIIS: error= 1.38D-06 at cycle   8 NSaved=   8.
 NSaved= 8 IEnMin= 8 EnMin= -149.792012021946     IErMin= 8 ErrMin= 1.38D-06
 ErrMax= 1.38D-06  0.00D+00 EMaxC= 1.00D-01 BMatC= 7.28D-11 BMatP= 1.30D-10
 IDIUse=1 WtCom= 1.00D+00 WtEn= 0.00D+00
 Coeff-Com:  0.529D+00-0.228D+00-0.499D+00 0.260D+00 0.614D-01-0.342D+00
 Coeff-Com:  0.206D+00 0.101D+01
 Coeff:      0.529D+00-0.228D+00-0.499D+00 0.260D+00 0.614D-01-0.342D+00
 Coeff:      0.206D+00 0.101D+01
 Gap=     0.363 Goal=   None    Shift=    0.000
 RMSDP=3.35D-07 MaxDP=8.92D-06 DE=-2.82D-09 OVMax= 2.73D-05

 Cycle  23  Pass 1  IDiag  1:
 RMSU=  1.18D-07    CP:  1.00D+00  3.00D+00  3.00D+00  3.00D+00  3.00D+00
                    CP:  2.58D+00  1.85D+00  1.41D+00
 E= -149.792012022695     Delta-E=       -0.000000000749 Rises=F Damp=F
 DIIS: error= 1.08D-06 at cycle   9 NSaved=   9.
 NSaved= 9 IEnMin= 9 EnMin= -149.792012022695     IErMin= 9 ErrMin= 1.08D-06
 ErrMax= 1.08D-06  0.00D+00 EMaxC= 1.00D-01 BMatC= 4.67D-11 BMatP= 7.28D-11
 IDIUse=1 WtCom= 1.00D+00 WtEn= 0.00D+00
 Coeff-Com:  0.120D+00 0.178D-01-0.898D-01-0.271D+00 0.353D+00 0.161D+00
 Coeff-Com: -0.137D+01 0.294D-01 0.205D+01
 Coeff:      0.120D+00 0.178D-01-0.898D-01-0.271D+00 0.353D+00 0.161D+00
 Coeff:     -0.137D+01 0.294D-01 0.205D+01
 Gap=     0.363 Goal=   None    Shift=    0.000
 RMSDP=6.79D-07 MaxDP=1.80D-05 DE=-7.49D-10 OVMax= 5.30D-05

 Cycle  24  Pass 1  IDiag  1:
 RMSU=  1.22D-07    CP:  1.00D+00  3.00D+00  3.00D+00  3.00D+00  3.00D+00
                    CP:  2.73D+00  2.07D+00  2.33D+00  3.00D+00
 E= -149.792012023854     Delta-E=       -0.000000001160 Rises=F Damp=F
 DIIS: error= 5.26D-07 at cycle  10 NSaved=  10.
 NSaved=10 IEnMin=10 EnMin= -149.792012023854     IErMin=10 ErrMin= 5.26D-07
 ErrMax= 5.26D-07  0.00D+00 EMaxC= 1.00D-01 BMatC= 1.42D-11 BMatP= 4.67D-11
 IDIUse=1 WtCom= 1.00D+00 WtEn= 0.00D+00
 Coeff-Com: -0.202D+00 0.539D-01 0.147D+00 0.164D+00-0.275D+00-0.107D+00
 Coeff-Com:  0.119D+01-0.728D+00-0.168D+01 0.243D+01
 Coeff:     -0.202D+00 0.539D-01 0.147D+00 0.164D+00-0.275D+00-0.107D+00
 Coeff:      0.119D+01-0.728D+00-0.168D+01 0.243D+01
 Gap=     0.363 Goal=   None    Shift=    0.000
 RMSDP=5.37D-07 MaxDP=1.24D-05 DE=-1.16D-09 OVMax= 4.39D-05

 Cycle  25  Pass 1  IDiag  1:
 RMSU=  2.10D-07    CP:  1.00D+00  3.00D+00  3.00D+00  3.00D+00  3.00D+00
                    CP:  2.84D+00  2.15D+00  3.00D+00  3.00D+00  3.00D+00
 E= -149.792012024276     Delta-E=       -0.000000000421 Rises=F Damp=F
 DIIS: error= 1.08D-07 at cycle  11 NSaved=  11.
 NSaved=11 IEnMin=11 EnMin= -149.792012024276     IErMin=11 ErrMin= 1.08D-07
 ErrMax= 1.08D-07  0.00D+00 EMaxC= 1.00D-01 BMatC= 7.13D-13 BMatP= 1.42D-11
 IDIUse=1 WtCom= 1.00D+00 WtEn= 0.00D+00
 Coeff-Com:  0.239D-01-0.875D-02-0.199D-01-0.610D-02 0.226D-01-0.156D-03
 Coeff-Com: -0.616D-01 0.127D+00 0.749D-01-0.488D+00 0.134D+01
 Coeff:      0.239D-01-0.875D-02-0.199D-01-0.610D-02 0.226D-01-0.156D-03
 Coeff:     -0.616D-01 0.127D+00 0.749D-01-0.488D+00 0.134D+01
 Gap=     0.363 Goal=   None    Shift=    0.000
 RMSDP=8.65D-08 MaxDP=1.58D-06 DE=-4.21D-10 OVMax= 7.23D-06

 Cycle  26  Pass 1  IDiag  1:
 RMSU=  5.60D-08    CP:  1.00D+00  3.00D+00  3.00D+00  3.00D+00  3.00D+00
                    CP:  2.85D+00  2.15D+00  3.00D+00  3.00D+00  3.00D+00
                    CP:  1.30D+00
 E= -149.792012024288     Delta-E=       -0.000000000012 Rises=F Damp=F
 DIIS: error= 8.29D-08 at cycle  12 NSaved=  12.
 NSaved=12 IEnMin=12 EnMin= -149.792012024288     IErMin=12 ErrMin= 8.29D-08
 ErrMax= 8.29D-08  0.00D+00 EMaxC= 1.00D-01 BMatC= 1.37D-13 BMatP= 7.13D-13
 IDIUse=1 WtCom= 1.00D+00 WtEn= 0.00D+00
 Coeff-Com:  0.387D-02 0.128D-03-0.206D-02-0.879D-02 0.107D-01 0.506D-02
 Coeff-Com: -0.538D-01 0.108D-01 0.818D-01-0.143D-01-0.321D+00 0.129D+01
 Coeff:      0.387D-02 0.128D-03-0.206D-02-0.879D-02 0.107D-01 0.506D-02
 Coeff:     -0.538D-01 0.108D-01 0.818D-01-0.143D-01-0.321D+00 0.129D+01
 Gap=     0.363 Goal=   None    Shift=    0.000
 RMSDP=1.32D-08 MaxDP=2.48D-07 DE=-1.17D-11 OVMax= 1.37D-06

 Cycle  27  Pass 1  IDiag  1:
 RMSU=  1.03D-08    CP:  1.00D+00  3.00D+00  3.00D+00  3.00D+00  3.00D+00
                    CP:  2.85D+00  2.14D+00  3.00D+00  3.00D+00  3.00D+00
                    CP:  1.31D+00  1.03D+00
 E= -149.792012024291     Delta-E=       -0.000000000003 Rises=F Damp=F
 DIIS: error= 7.80D-08 at cycle  13 NSaved=  13.
 NSaved=13 IEnMin=13 EnMin= -149.792012024291     IErMin=13 ErrMin= 7.80D-08
 ErrMax= 7.80D-08  0.00D+00 EMaxC= 1.00D-01 BMatC= 1.13D-13 BMatP= 1.37D-13
 IDIUse=1 WtCom= 1.00D+00 WtEn= 0.00D+00
 Coeff-Com: -0.816D-02 0.829D-03 0.493D-02 0.138D-01-0.184D-01-0.825D-02
 Coeff-Com:  0.894D-01-0.352D-01-0.135D+00 0.980D-01 0.257D+00-0.194D+01
 Coeff-Com:  0.268D+01
 Coeff:     -0.816D-02 0.829D-03 0.493D-02 0.138D-01-0.184D-01-0.825D-02
 Coeff:      0.894D-01-0.352D-01-0.135D+00 0.980D-01 0.257D+00-0.194D+01
 Coeff:      0.268D+01
 Gap=     0.363 Goal=   None    Shift=    0.000
 RMSDP=2.12D-08 MaxDP=4.06D-07 DE=-3.21D-12 OVMax= 2.02D-06

 Cycle  28  Pass 1  IDiag  1:
 RMSU=  4.39D-09    CP:  1.00D+00  3.00D+00  3.00D+00  3.00D+00  3.00D+00
                    CP:  2.85D+00  2.14D+00  3.00D+00  3.00D+00  3.00D+00
                    CP:  1.32D+00  1.12D+00  2.93D+00
 E= -149.792012024292     Delta-E=       -0.000000000001 Rises=F Damp=F
 DIIS: error= 6.96D-08 at cycle  14 NSaved=  14.
 NSaved=14 IEnMin=14 EnMin= -149.792012024292     IErMin=14 ErrMin= 6.96D-08
 ErrMax= 6.96D-08  0.00D+00 EMaxC= 1.00D-01 BMatC= 8.98D-14 BMatP= 1.13D-13
 IDIUse=1 WtCom= 1.00D+00 WtEn= 0.00D+00
 Coeff-Com:  0.121D-01-0.150D-02-0.748D-02-0.202D-01 0.273D-01 0.155D-01
 Coeff-Com: -0.147D+00 0.825D-01 0.224D+00-0.265D+00-0.498D-01 0.303D+01
 Coeff-Com: -0.937D+01 0.747D+01
 Coeff:      0.121D-01-0.150D-02-0.748D-02-0.202D-01 0.273D-01 0.155D-01
 Coeff:     -0.147D+00 0.825D-01 0.224D+00-0.265D+00-0.498D-01 0.303D+01
 Coeff:     -0.937D+01 0.747D+01
 Gap=     0.363 Goal=   None    Shift=    0.000
 RMSDP=1.10D-07 MaxDP=2.05D-06 DE=-1.17D-12 OVMax= 1.02D-05

 Cycle  29  Pass 1  IDiag  1:
 RMSU=  1.05D-07    CP:  1.00D+00  3.00D+00  3.00D+00  3.00D+00  3.00D+00
                    CP:  2.86D+00  2.14D+00  3.00D+00  3.00D+00  3.00D+00
                    CP:  1.37D+00  1.50D+00  3.00D+00  3.00D+00
 E= -149.792012024303     Delta-E=       -0.000000000011 Rises=F Damp=F
 DIIS: error= 2.54D-08 at cycle  15 NSaved=  15.
 NSaved=15 IEnMin=15 EnMin= -149.792012024303     IErMin=15 ErrMin= 2.54D-08
 ErrMax= 2.54D-08  0.00D+00 EMaxC= 1.00D-01 BMatC= 2.06D-14 BMatP= 8.98D-14
 IDIUse=1 WtCom= 1.00D+00 WtEn= 0.00D+00
 Coeff-Com:  0.665D-02-0.131D-02-0.323D-02-0.116D-01 0.146D-01 0.918D-02
 Coeff-Com: -0.801D-01 0.413D-01 0.120D+00-0.127D+00-0.884D-01 0.169D+01
 Coeff-Com: -0.381D+01 0.215D+01 0.109D+01
 Coeff:      0.665D-02-0.131D-02-0.323D-02-0.116D-01 0.146D-01 0.918D-02
 Coeff:     -0.801D-01 0.413D-01 0.120D+00-0.127D+00-0.884D-01 0.169D+01
 Coeff:     -0.381D+01 0.215D+01 0.109D+01
 Gap=     0.363 Goal=   None    Shift=    0.000
 RMSDP=4.36D-08 MaxDP=8.09D-07 DE=-1.12D-11 OVMax= 3.97D-06

 Cycle  30  Pass 1  IDiag  1:
 RMSU=  4.12D-09    CP:  1.00D+00  3.00D+00  3.00D+00  3.00D+00  3.00D+00
                    CP:  2.86D+00  2.14D+00  3.00D+00  3.00D+00  3.00D+00
                    CP:  1.39D+00  1.66D+00  3.00D+00  3.00D+00  1.40D+00
 E= -149.792012024302     Delta-E=        0.000000000001 Rises=F Damp=F
 DIIS: error= 9.08D-09 at cycle  16 NSaved=  16.
 NSaved=16 IEnMin=15 EnMin= -149.792012024303     IErMin=16 ErrMin= 9.08D-09
 ErrMax= 9.08D-09  0.00D+00 EMaxC= 1.00D-01 BMatC= 5.43D-15 BMatP= 2.06D-14
 IDIUse=1 WtCom= 1.00D+00 WtEn= 0.00D+00
 Large coefficients: NSaved= 16 BigCof=    0.00 CofMax=   10.00 Det=-2.29D-16
 Inversion failed.  Reducing to 15 matrices.
 Coeff-Com: -0.179D-02 0.348D-03 0.567D-02-0.644D-02-0.401D-02 0.344D-01
 Coeff-Com: -0.195D-01-0.550D-01 0.667D-01 0.166D-02-0.864D+00 0.300D+01
 Coeff-Com: -0.263D+01 0.377D+00 0.110D+01
 Coeff:     -0.179D-02 0.348D-03 0.567D-02-0.644D-02-0.401D-02 0.344D-01
 Coeff:     -0.195D-01-0.550D-01 0.667D-01 0.166D-02-0.864D+00 0.300D+01
 Coeff:     -0.263D+01 0.377D+00 0.110D+01
 Gap=     0.363 Goal=   None    Shift=    0.000
 RMSDP=1.95D-08 MaxDP=3.55D-07 DE= 9.09D-13 OVMax= 1.75D-06

 Cycle  31  Pass 1  IDiag  1:
 RMSU=  7.47D-10    CP:  1.00D+00  3.00D+00  3.00D+00  3.00D+00  3.00D+00
                    CP:  2.86D+00  2.14D+00  3.00D+00  3.00D+00  3.00D+00
                    CP:  1.40D+00  1.73D+00  3.00D+00  3.00D+00  1.58D+00
                    CP:  1.48D+00
 E= -149.792012024304     Delta-E=       -0.000000000002 Rises=F Damp=F
 DIIS: error= 1.60D-09 at cycle  17 NSaved=  16.
 NSaved=16 IEnMin=16 EnMin= -149.792012024304     IErMin=16 ErrMin= 1.60D-09
 ErrMax= 1.60D-09  0.00D+00 EMaxC= 1.00D-01 BMatC= 1.87D-16 BMatP= 5.43D-15
 IDIUse=1 WtCom= 1.00D+00 WtEn= 0.00D+00
 Large coefficients: NSaved= 16 BigCof=    0.00 CofMax=   10.00 Det=-6.17D-17
 Inversion failed.  Reducing to 15 matrices.
 Coeff-Com: -0.147D-03 0.330D-03-0.225D-03-0.101D-03 0.905D-03 0.430D-03
 Coeff-Com: -0.809D-03-0.315D-02 0.173D-01-0.131D-01-0.175D+00 0.249D+00
 Coeff-Com: -0.905D-01-0.285D+00 0.130D+01
 Coeff:     -0.147D-03 0.330D-03-0.225D-03-0.101D-03 0.905D-03 0.430D-03
 Coeff:     -0.809D-03-0.315D-02 0.173D-01-0.131D-01-0.175D+00 0.249D+00
 Coeff:     -0.905D-01-0.285D+00 0.130D+01
 Gap=     0.363 Goal=   None    Shift=    0.000
 RMSDP=1.68D-09 MaxDP=2.97D-08 DE=-1.76D-12 OVMax= 1.37D-07

 SCF Done:  E(RHF) =  -149.792012024     A.U. after   31 cycles
            NFock= 31  Conv=0.17D-08     -V/T= 2.0025
 KE= 1.494193150716D+02 PE=-4.917241902132D+02 EE= 1.138999773834D+02
 Leave Link  502 at Thu Jun 16 18:27:04 2016, MaxMem=    33554432 cpu:       665.1
 (Enter /home/proyectos/fulerenos/M3C-v1.9/M3C-deps_CCC/g09-AM64L-G09RevC.01/l801.exe)
 Windowed orbitals will be sorted by symmetry type.
 ExpMin= 4.38D-02 ExpMax= 4.56D+03 ExpMxC= 6.82D+02 IAcc=3 IRadAn=         5 AccDes= 0.00D+00
 HarFok:  IExCor=  205 AccDes= 0.00D+00 IRadAn=         5 IDoV=-2 UseB2=F ITyADJ=14
 ICtDFT= 12500011 ScaDFX=  1.000000  1.000000  1.000000  1.000000
 Largest valence mixing into a core orbital is  1.28D-04
 Largest core mixing into a valence orbital is  3.41D-05
 Range of M.O.s used for correlation:     5   156
 NBasis=   156 NAE=    11 NBE=    11 NFC=     4 NFV=     0
 NROrb=    152 NOA=     7 NOB=     7 NVA=   145 NVB=   145

 **** Warning!!: The largest alpha MO coefficient is  0.47362389D+02

 Leave Link  801 at Thu Jun 16 18:27:07 2016, MaxMem=    33554432 cpu:         0.8
 (Enter /home/proyectos/fulerenos/M3C-v1.9/M3C-deps_CCC/g09-AM64L-G09RevC.01/l804.exe)
 Closed-shell transformation, MDV=    33554432 ITran=4 ISComp=1.
 Semi-Direct transformation.
 ModeAB=           2 MOrb=             7 LenV=      32850089
 LASXX=     11867611 LTotXX=    11867611 LenRXX=    11867611
 LTotAB=    12099584 MaxLAS=    17332560 LenRXY=    17332560
 NonZer=    23735222 LenScr=    36360704 LnRSAI=           0
 LnScr1=           0 LExtra=           0 Total=     65560875
 MaxDsk=          -1 SrtSym=           F ITran=            4
 DoSDTr:  NPSUse=  4
 JobTyp=0 Pass  1:  I=   1 to   7.
 Complete sort for first half transformation.
 First half transformation complete.
 Complete sort for second half transformation.
 Second half transformation complete.
 SymMOI:  orbitals are not symmetric.
 Spin components of T(2) and E(2):
     alpha-alpha T2 =       0.3159092254D-01 E2=     -0.7407226106D-01
     alpha-beta  T2 =       0.2202804683D+00 E2=     -0.4611306355D+00
     beta-beta   T2 =       0.3159092254D-01 E2=     -0.7407226106D-01
 ANorm=    0.1132899957D+01
 E2 =    -0.6092751576D+00 EUMP2 =    -0.15040128718188D+03
 Leave Link  804 at Thu Jun 16 18:27:48 2016, MaxMem=    33554432 cpu:       137.9
 (Enter /home/proyectos/fulerenos/M3C-v1.9/M3C-deps_CCC/g09-AM64L-G09RevC.01/l913.exe)
 CIDS:  MDV=    33554432.
 Frozen-core window:  NFC=   4 NFV=   0.
 IFCWin=0 IBDFC=1 NFBD=     0     0 NFCmp=     0     0 NFFFC=     0     0
 Using DD3R+UMP44R for 1st iteration, S=T.
 Using DD4RQ for 2nd and later iterations.
 Would need an additional       119389055 words for in-memory AO integral storage.
 CCSD(T)
 =======
 Iterations=  50 Convergence= 0.100D-06
 Iteration Nr.   1
 **********************
 DD1Dir will call FoFJK   1 times, MxPair=        56
 NAB=    28 NAA=     0 NBB=     0 NumPrc=  4.
 FoFJK:  IHMeth= 1 ICntrl=     200 DoSepK=F KAlg= 0 I1Cent=   0 FoldK=F
 IRaf= 990000000 NMat=  56 IRICut=      70 DoRegI=T DoRafI=T ISym2E= 2.
 FoFCou: FMM=F IPFlag=           0 FMFlag=      100000 FMFlg1=           0
         NFxFlg=           0 DoJE=F BraDBF=F KetDBF=F FulRan=T
         wScrn=  0.000000 ICntrl=     200 IOpCl=  0 I1Cent=           0 NGrid=           0
         NMat0=   56 NMatS0=      0 NMatT0=   28 NMatD0=   56 NMtDS0=    0 NMtDT0=    0
 Integrals replicated using symmetry in FoFCou.
 MP4(R+Q)=  0.34505527D-01
 Maximum subspace dimension=  5
 Norm of the A-vectors is  1.0028968D+00 conv= 1.00D-05.
 RLE energy=       -0.5660238577
 E3=        0.11509744D-01        EUMP3=      -0.15038977744D+03
 E4(DQ)=    0.56390002D-02        UMP4(DQ)=   -0.15038413844D+03
 E4(SDQ)=  -0.74574196D-02        UMP4(SDQ)=  -0.15039723486D+03
 VARIATIONAL ENERGIES WITH THE FIRST-ORDER WAVEFUNCTION:
 DE(Corr)= -0.56271936     E(Corr)=     -150.35473139    
 NORM(A)=   0.11239034D+01
 Iteration Nr.   2
 **********************
 DD1Dir will call FoFJK   1 times, MxPair=        56
 NAB=    28 NAA=     0 NBB=     0 NumPrc=  4.
 Norm of the A-vectors is  4.4031626D-01 conv= 1.00D-05.
 RLE energy=       -0.6050305285
 DE(Corr)= -0.60063918     E(CORR)=     -150.39265121     Delta=-3.79D-02
 NORM(A)=   0.11544925D+01
 Iteration Nr.   3
 **********************
 DD1Dir will call FoFJK   1 times, MxPair=        56
 NAB=    28 NAA=     0 NBB=     0 NumPrc=  4.
 Norm of the A-vectors is  2.0927104D-01 conv= 1.00D-05.
 RLE energy=       -0.6080474233
 DE(Corr)= -0.60241752     E(CORR)=     -150.39442955     Delta=-1.78D-03
 NORM(A)=   0.11680972D+01
 Iteration Nr.   4
 **********************
 DD1Dir will call FoFJK   1 times, MxPair=        56
 NAB=    28 NAA=     0 NBB=     0 NumPrc=  4.
 Norm of the A-vectors is  7.8826652D-02 conv= 1.00D-05.
 RLE energy=       -0.6102324272
 DE(Corr)= -0.60919954     E(CORR)=     -150.40121156     Delta=-6.78D-03
 NORM(A)=   0.11748455D+01
 Iteration Nr.   5
 **********************
 DD1Dir will call FoFJK   1 times, MxPair=        56
 NAB=    28 NAA=     0 NBB=     0 NumPrc=  4.
 Norm of the A-vectors is  3.2485622D-02 conv= 1.00D-05.
 RLE energy=       -0.6108724381
 DE(Corr)= -0.61038608     E(CORR)=     -150.40239811     Delta=-1.19D-03
 NORM(A)=   0.11768279D+01
 Iteration Nr.   6
 **********************
 DD1Dir will call FoFJK   1 times, MxPair=        56
 NAB=    28 NAA=     0 NBB=     0 NumPrc=  4.
 Norm of the A-vectors is  1.5417943D-02 conv= 1.00D-05.
 RLE energy=       -0.6104801685
 DE(Corr)= -0.61064568     E(CORR)=     -150.40265770     Delta=-2.60D-04
 NORM(A)=   0.11769529D+01
 Iteration Nr.   7
 **********************
 DD1Dir will call FoFJK   1 times, MxPair=        56
 NAB=    28 NAA=     0 NBB=     0 NumPrc=  4.
 Norm of the A-vectors is  7.2805379D-03 conv= 1.00D-05.
 RLE energy=       -0.6107358512
 DE(Corr)= -0.61069102     E(CORR)=     -150.40270305     Delta=-4.53D-05
 NORM(A)=   0.11772655D+01
 Iteration Nr.   8
 **********************
 DD1Dir will call FoFJK   1 times, MxPair=        56
 NAB=    28 NAA=     0 NBB=     0 NumPrc=  4.
 Norm of the A-vectors is  3.4291694D-03 conv= 1.00D-05.
 RLE energy=       -0.6106322138
 DE(Corr)= -0.61065817     E(CORR)=     -150.40267019     Delta= 3.29D-05
 NORM(A)=   0.11771977D+01
 Iteration Nr.   9
 **********************
 DD1Dir will call FoFJK   1 times, MxPair=        56
 NAB=    28 NAA=     0 NBB=     0 NumPrc=  4.
 Norm of the A-vectors is  1.6086489D-03 conv= 1.00D-05.
 RLE energy=       -0.6106862027
 DE(Corr)= -0.61068395     E(CORR)=     -150.40269597     Delta=-2.58D-05
 NORM(A)=   0.11772417D+01
 Iteration Nr.  10
 **********************
 DD1Dir will call FoFJK   1 times, MxPair=        56
 NAB=    28 NAA=     0 NBB=     0 NumPrc=  4.
 Norm of the A-vectors is  7.0417991D-04 conv= 1.00D-05.
 RLE energy=       -0.6106732964
 DE(Corr)= -0.61067331     E(CORR)=     -150.40268533     Delta= 1.06D-05
 NORM(A)=   0.11772353D+01
 Iteration Nr.  11
 **********************
 DD1Dir will call FoFJK   1 times, MxPair=        56
 NAB=    28 NAA=     0 NBB=     0 NumPrc=  4.
 Norm of the A-vectors is  3.2623406D-04 conv= 1.00D-05.
 RLE energy=       -0.6106808051
 DE(Corr)= -0.61068193     E(CORR)=     -150.40269395     Delta=-8.62D-06
 NORM(A)=   0.11772467D+01
 Iteration Nr.  12
 **********************
 DD1Dir will call FoFJK   1 times, MxPair=        56
 NAB=    28 NAA=     0 NBB=     0 NumPrc=  4.
 Norm of the A-vectors is  1.5363276D-04 conv= 1.00D-05.
 RLE energy=       -0.6106837660
 DE(Corr)= -0.61068292     E(CORR)=     -150.40269494     Delta=-9.92D-07
 NORM(A)=   0.11772524D+01
 Iteration Nr.  13
 **********************
 DD1Dir will call FoFJK   1 times, MxPair=        56
 NAB=    28 NAA=     0 NBB=     0 NumPrc=  4.
 Norm of the A-vectors is  7.8901845D-05 conv= 1.00D-05.
 RLE energy=       -0.6106840705
 DE(Corr)= -0.61068404     E(CORR)=     -150.40269606     Delta=-1.12D-06
 NORM(A)=   0.11772555D+01
 Iteration Nr.  14
 **********************
 DD1Dir will call FoFJK   1 times, MxPair=        56
 NAB=    28 NAA=     0 NBB=     0 NumPrc=  4.
 Norm of the A-vectors is  4.0442964D-05 conv= 1.00D-05.
 RLE energy=       -0.6106855371
 DE(Corr)= -0.61068494     E(CORR)=     -150.40269697     Delta=-9.01D-07
 NORM(A)=   0.11772585D+01
 Iteration Nr.  15
 **********************
 DD1Dir will call FoFJK   1 times, MxPair=        56
 NAB=    28 NAA=     0 NBB=     0 NumPrc=  4.
 Norm of the A-vectors is  2.2629052D-05 conv= 1.00D-05.
 RLE energy=       -0.6106852174
 DE(Corr)= -0.61068513     E(CORR)=     -150.40269716     Delta=-1.90D-07
 NORM(A)=   0.11772592D+01
 Iteration Nr.  16
 **********************
 DD1Dir will call FoFJK   1 times, MxPair=        56
 NAB=    28 NAA=     0 NBB=     0 NumPrc=  4.
 Norm of the A-vectors is  1.2107006D-05 conv= 1.00D-05.
 RLE energy=       -0.6106854192
 DE(Corr)= -0.61068540     E(CORR)=     -150.40269743     Delta=-2.71D-07
 NORM(A)=   0.11772597D+01
 Iteration Nr.  17
 **********************
 DD1Dir will call FoFJK   1 times, MxPair=        56
 NAB=    28 NAA=     0 NBB=     0 NumPrc=  4.
 Norm of the A-vectors is  7.4706209D-06 conv= 1.00D-05.
 RLE energy=       -0.6106853455
 DE(Corr)= -0.61068535     E(CORR)=     -150.40269738     Delta= 4.78D-08
 NORM(A)=   0.11772597D+01
 CI/CC converged in   17 iterations to DelEn= 4.78D-08 Conv= 1.00D-07 ErrA1= 7.47D-06 Conv= 1.00D-05
 Dominant configurations:
 ***********************
 Spin Case        I    J    A    B          Value
   ABAB           9    9   12   12      -0.109212D+00
   ABAB           9    9   13   13      -0.109213D+00
   ABAB           9    9   14   14      -0.109035D+00
 Largest amplitude= 1.09D-01
 T4(AAA)= -0.84675235D-03
 T4(AAB)= -0.30596768D-01
 T5(AAA)=  0.34367552D-04
 T5(AAB)=  0.98643883D-03
 Time for triples=     2057.18 seconds.
 T4(CCSD)= -0.62887041D-01
 T5(CCSD)=  0.20416128D-02
 CCSD(T)= -0.15046354281D+03
 Discarding MO integrals.
 Leave Link  913 at Thu Jun 16 19:46:34 2016, MaxMem=    33554432 cpu:     14536.2
 (Enter /home/proyectos/fulerenos/M3C-v1.9/M3C-deps_CCC/g09-AM64L-G09RevC.01/l601.exe)
 Copying SCF densities to generalized density rwf, IOpCl= 0 IROHF=0.

 **********************************************************************

            Population analysis using the SCF density.

 **********************************************************************

 Orbital symmetries:
       Occupied  (A) (A) (A) (A) (A) (A) (A) (A) (A) (A) (A)
       Virtual   (A) (A) (A) (A) (A) (A) (A) (A) (A) (A) (A) (A)
                 (A) (A) (A) (A) (A) (A) (A) (A) (A) (A) (A) (A)
                 (A) (A) (A) (A) (A) (A) (A) (A) (A) (A) (A) (A)
                 (A) (A) (A) (A) (A) (A) (A) (A) (A) (A) (A) (A)
                 (A) (A) (A) (A) (A) (A) (A) (A) (A) (A) (A) (A)
                 (A) (A) (A) (A) (A) (A) (A) (A) (A) (A) (A) (A)
                 (A) (A) (A) (A) (A) (A) (A) (A) (A) (A) (A) (A)
                 (A) (A) (A) (A) (A) (A) (A) (A) (A) (A) (A) (A)
                 (A) (A) (A) (A) (A) (A) (A) (A) (A) (A) (A) (A)
                 (A) (A) (A) (A) (A) (A) (A) (A) (A) (A) (A) (A)
                 (A) (A) (A) (A) (A) (A) (A) (A) (A) (A) (A) (A)
                 (A) (A) (A) (A) (A) (A) (A) (A) (A) (A) (A) (A)
                 (A)
 The electronic state is 1-A.
 Alpha  occ. eigenvalues --  -12.01849 -12.01683 -12.01678 -12.01670  -2.00315
 Alpha  occ. eigenvalues --   -1.37387  -1.37371  -1.37353  -1.05030  -1.00469
 Alpha  occ. eigenvalues --   -1.00440
 Alpha virt. eigenvalues --   -0.64137  -0.64129  -0.64116  -0.25706  -0.25702
 Alpha virt. eigenvalues --   -0.25697  -0.24022  -0.23557  -0.23545  -0.23538
 Alpha virt. eigenvalues --   -0.17303  -0.17300  -0.16851  -0.16849  -0.16848
 Alpha virt. eigenvalues --   -0.10447  -0.09881  -0.09876  -0.09871  -0.08478
 Alpha virt. eigenvalues --   -0.08476  -0.08474  -0.03317  -0.03311  -0.03299
 Alpha virt. eigenvalues --    0.04305   0.07025   0.07035   0.07050   0.12676
 Alpha virt. eigenvalues --    0.12685   0.15921   0.15926   0.15932   0.25701
 Alpha virt. eigenvalues --    0.25705   0.26379   0.26386   0.26390   0.27914
 Alpha virt. eigenvalues --    0.27919   0.27924   0.28221   0.29852   0.29860
 Alpha virt. eigenvalues --    0.29865   0.34183   0.34197   0.34217   0.61087
 Alpha virt. eigenvalues --    0.61088   0.62541   0.62543   0.62544   0.65270
 Alpha virt. eigenvalues --    0.65281   0.65297   0.75873   0.94117   0.94126
 Alpha virt. eigenvalues --    0.94140   1.08054   1.08064   1.08072   1.23173
 Alpha virt. eigenvalues --    1.23189   1.38449   1.47358   1.47372   1.47395
 Alpha virt. eigenvalues --    1.51424   1.51449   1.51470   1.62215   1.62242
 Alpha virt. eigenvalues --    1.68425   1.68444   1.68465   1.92092   1.92116
 Alpha virt. eigenvalues --    1.92130   2.15945   2.52270   2.52304   2.52321
 Alpha virt. eigenvalues --    2.55116   2.55125   2.55132   2.57907   2.57912
 Alpha virt. eigenvalues --    2.58911   2.60401   2.60410   2.60426   2.96907
 Alpha virt. eigenvalues --    2.96958   2.97016   3.03604   3.12298   3.12324
 Alpha virt. eigenvalues --    3.12337   3.21670   3.21731   3.21778   3.24771
 Alpha virt. eigenvalues --    3.24795   3.35601   3.92367   3.92408   3.92443
 Alpha virt. eigenvalues --    3.94631   3.94686   3.97470   3.97525   3.97592
 Alpha virt. eigenvalues --    4.13386   4.13434   4.13476   5.21399   5.21531
 Alpha virt. eigenvalues --    5.21604   6.76155   6.76176   6.76187   6.92440
 Alpha virt. eigenvalues --    6.92492   6.92536   7.06593   7.06607   7.17897
 Alpha virt. eigenvalues --    7.17910   7.17919   7.41070   7.80704   7.80743
 Alpha virt. eigenvalues --    7.80776   7.81544   7.81630   8.60036   8.60067
 Alpha virt. eigenvalues --    8.60107  24.37345  25.36117  25.36242  25.36409
          Condensed to atoms (all electrons):
               1          2          3          4
     1  C    5.998748  -0.168043  -0.164663  -0.165587
     2  C   -0.168043   6.002241  -0.168229  -0.166570
     3  C   -0.164663  -0.168229   6.000295  -0.167416
     4  C   -0.165587  -0.166570  -0.167416   5.999731
 Mulliken charges:
               1
     1  C    0.499545
     2  C    0.500601
     3  C    0.500012
     4  C    0.499842
 Sum of Mulliken charges =   2.00000
 Mulliken charges with hydrogens summed into heavy atoms:
               1
     1  C    0.499545
     2  C    0.500601
     3  C    0.500012
     4  C    0.499842
 Electronic spatial extent (au):  <R**2>=             94.8468
 Charge=              2.0000 electrons
 Dipole moment (field-independent basis, Debye):
    X=              0.0002    Y=             -0.0004    Z=              0.0006  Tot=              0.0007
 Quadrupole moment (field-independent basis, Debye-Ang):
   XX=            -12.0541   YY=            -12.0607   ZZ=            -12.0680
   XY=             -0.0000   XZ=              0.0002   YZ=              0.0002
 Traceless Quadrupole moment (field-independent basis, Debye-Ang):
   XX=              0.0068   YY=              0.0002   ZZ=             -0.0070
   XY=             -0.0000   XZ=              0.0002   YZ=              0.0002
 Octapole moment (field-independent basis, Debye-Ang**2):
  XXX=             -2.8096  YYY=              2.7041  ZZZ=              2.6804  XYY=              3.2630
  XXY=              0.6239  XXZ=             -3.2601  XZZ=             -0.4528  YZZ=             -3.3290
  YYZ=              0.5813  XYZ=              2.3614
 Hexadecapole moment (field-independent basis, Debye-Ang**3):
 XXXX=            -35.3808 YYYY=            -35.5145 ZZZZ=            -35.4684 XXXY=             -1.6705
 XXXZ=              2.7261 YYYX=              2.7549 YYYZ=              1.6522 ZZZX=             -1.7121
 ZZZY=             -2.6870 XXYY=            -11.4217 XXZZ=            -11.4647 YYZZ=            -11.3283
 XXYZ=              1.0350 YYXZ=             -1.0137 ZZXY=             -1.0844
 N-N= 7.861288573389D+01 E-N=-4.917241902121D+02  KE= 1.494193150716D+02
 Leave Link  601 at Thu Jun 16 19:46:34 2016, MaxMem=    33554432 cpu:         0.2
 (Enter /home/proyectos/fulerenos/M3C-v1.9/M3C-deps_CCC/g09-AM64L-G09RevC.01/l9999.exe)
 1\1\GINC-BLADI22\SP\RCCSD(T)-FC\6-311+G(3df)\C4(2+)\ROOT\16-Jun-2016\0
 \\#p ccsd(t)/6-311+G(3df) scf(MaxCyc=300) guess(Huckel)\\ccsd(t) iener
 \\2,1\C,0,0.241979,-0.196698,0.83419\C,0,0.654933,0.450919,-0.400093\C
 ,0,-0.15906,-0.752479,-0.448606\C,0,-0.737852,0.498259,0.014509\\Versi
 on=EM64L-G09RevE.01\State=1-A\HF=-149.792012\MP2=-150.4012872\MP3=-150
 .3897774\MP4D=-150.418644\MP4DQ=-150.3841384\MP4SDQ=-150.3972349\CCSD=
 -150.4026974\CCSD(T)=-150.4635428\RMSD=1.678e-09\PG=C01 [X(C4)]\\@


 OUR LITTLE SYSTEMS HAVE THEIR DAY,    
   THEY HAVE THEIR DAY AND CEASE TO BE.
   THEY ARE BUT BROKEN LIGHTS OF THEE, 
 AND THOU, OH LORD, ART MORE THAN THEY.
          -------------------          
 LET KNOWLEDGE GROW FROM MORE TO MORE, 
   BUT MORE OF REVERENCE IN US DWELL.  
   THAT MIND AND SOUL, ACCORDING WELL, 
 MAY MAKE ONE MUSIC AS BEFORE.....     
          -------------------          
                    LORD TENNYSON      
 Job cpu time:       0 days  4 hours 15 minutes 43.2 seconds.
 File lengths (MBytes):  RWF=   1074 Int=      0 D2E=      0 Chk=      2 Scr=      1
 Normal termination of Gaussian 09 at Thu Jun 16 19:46:34 2016.
