 Entering Gaussian System, Link 0=/home/proyectos/fulerenos/M3C-v1.9/M3C-deps_CCC/g09-AM64L-G09RevC.01/g09
 Initial command:
 /home/proyectos/fulerenos/M3C-v1.9/M3C-deps_CCC/g09-AM64L-G09RevC.01/l1.exe "/scratch/naguirre/gaussian/Gau-20744.inp" -scrdir="/scratch/naguirre/gaussian/"
 Entering Link 1 = /home/proyectos/fulerenos/M3C-v1.9/M3C-deps_CCC/g09-AM64L-G09RevC.01/l1.exe PID=     20751.
  
 Copyright (c) 1988,1990,1992,1993,1995,1998,2003,2009,2015,
            Gaussian, Inc.  All Rights Reserved.
  
 This is part of the Gaussian(R) 09 program.  It is based on
 the Gaussian(R) 03 system (copyright 2003, Gaussian, Inc.),
 the Gaussian(R) 98 system (copyright 1998, Gaussian, Inc.),
 the Gaussian(R) 94 system (copyright 1995, Gaussian, Inc.),
 the Gaussian 92(TM) system (copyright 1992, Gaussian, Inc.),
 the Gaussian 90(TM) system (copyright 1990, Gaussian, Inc.),
 the Gaussian 88(TM) system (copyright 1988, Gaussian, Inc.),
 the Gaussian 86(TM) system (copyright 1986, Carnegie Mellon
 University), and the Gaussian 82(TM) system (copyright 1983,
 Carnegie Mellon University). Gaussian is a federally registered
 trademark of Gaussian, Inc.
  
 This software contains proprietary and confidential information,
 including trade secrets, belonging to Gaussian, Inc.
  
 This software is provided under written license and may be
 used, copied, transmitted, or stored only in accord with that
 written license.
  
 The following legend is applicable only to US Government
 contracts under FAR:
  
                    RESTRICTED RIGHTS LEGEND
  
 Use, reproduction and disclosure by the US Government is
 subject to restrictions as set forth in subparagraphs (a)
 and (c) of the Commercial Computer Software - Restricted
 Rights clause in FAR 52.227-19.
  
 Gaussian, Inc.
 340 Quinnipiac St., Bldg. 40, Wallingford CT 06492
  
  
 ---------------------------------------------------------------
 Warning -- This program may not be used in any manner that
 competes with the business of Gaussian, Inc. or will provide
 assistance to any competitor of Gaussian, Inc.  The licensee
 of this program is prohibited from giving any competitor of
 Gaussian, Inc. access to this program.  By using this program,
 the user acknowledges that Gaussian, Inc. is engaged in the
 business of creating and licensing software in the field of
 computational chemistry and represents and warrants to the
 licensee that it is not a competitor of Gaussian, Inc. and that
 it will not use this program in any manner prohibited above.
 ---------------------------------------------------------------
  

 Cite this work as:
 Gaussian 09, Revision E.01,
 M. J. Frisch, G. W. Trucks, H. B. Schlegel, G. E. Scuseria, 
 M. A. Robb, J. R. Cheeseman, G. Scalmani, V. Barone, B. Mennucci, 
 G. A. Petersson, H. Nakatsuji, M. Caricato, X. Li, H. P. Hratchian, 
 A. F. Izmaylov, J. Bloino, G. Zheng, J. L. Sonnenberg, M. Hada, 
 M. Ehara, K. Toyota, R. Fukuda, J. Hasegawa, M. Ishida, T. Nakajima, 
 Y. Honda, O. Kitao, H. Nakai, T. Vreven, J. A. Montgomery, Jr., 
 J. E. Peralta, F. Ogliaro, M. Bearpark, J. J. Heyd, E. Brothers, 
 K. N. Kudin, V. N. Staroverov, T. Keith, R. Kobayashi, J. Normand, 
 K. Raghavachari, A. Rendell, J. C. Burant, S. S. Iyengar, J. Tomasi, 
 M. Cossi, N. Rega, J. M. Millam, M. Klene, J. E. Knox, J. B. Cross, 
 V. Bakken, C. Adamo, J. Jaramillo, R. Gomperts, R. E. Stratmann, 
 O. Yazyev, A. J. Austin, R. Cammi, C. Pomelli, J. W. Ochterski, 
 R. L. Martin, K. Morokuma, V. G. Zakrzewski, G. A. Voth, 
 P. Salvador, J. J. Dannenberg, S. Dapprich, A. D. Daniels, 
 O. Farkas, J. B. Foresman, J. V. Ortiz, J. Cioslowski, 
 and D. J. Fox, Gaussian, Inc., Wallingford CT, 2013.
 
 ******************************************
 Gaussian 09:  EM64L-G09RevE.01 30-Nov-2015
                20-Jun-2016 
 ******************************************
 %NProcShared=4
 Will use up to    4 processors via shared memory.
 -----------------------------------------------------
 #p ccsd(t)/6-311+G(3df) scf(MaxCyc=300) guess(Huckel)
 -----------------------------------------------------
 1/38=1/1;
 2/12=2,17=6,18=5,40=1/2;
 3/5=4,6=6,7=16,11=9,16=1,25=1,30=1/1,2,3;
 4/11=4/1;
 5/5=2,7=300,38=5/2;
 8/6=4,9=120000,10=2/1,4;
 9/5=7,14=2/13;
 6/7=2,8=2,9=2,10=2/1;
 99/5=1,9=1/99;
 Leave Link    1 at Mon Jun 20 17:58:50 2016, MaxMem=           0 cpu:         0.2
 (Enter /home/proyectos/fulerenos/M3C-v1.9/M3C-deps_CCC/g09-AM64L-G09RevC.01/l101.exe)
 -------------
 ccsd(t) iener
 -------------
 Symbolic Z-matrix:
 Charge =  2 Multiplicity = 3
 C                     0.45514  -0.69717  -0.17241 
 C                    -0.9307   -0.65091   0.17521 
 C                     0.93067   0.65095  -0.17525 
 C                    -0.45508   0.69716   0.17269 
 C                     2.10816   1.47459  -0.39712 
 C                    -2.10819  -1.47461   0.39688 
 
 NAtoms=      6 NQM=        6 NQMF=       0 NMMI=      0 NMMIF=      0
                NMic=       0 NMicF=      0.
                    Isotopes and Nuclear Properties:
 (Nuclear quadrupole moments (NQMom) in fm**2, nuclear magnetic moments (NMagM)
  in nuclear magnetons)

  Atom         1           2           3           4           5           6
 IAtWgt=          12          12          12          12          12          12
 AtmWgt=  12.0000000  12.0000000  12.0000000  12.0000000  12.0000000  12.0000000
 NucSpn=           0           0           0           0           0           0
 AtZEff=   0.0000000   0.0000000   0.0000000   0.0000000   0.0000000   0.0000000
 NQMom=    0.0000000   0.0000000   0.0000000   0.0000000   0.0000000   0.0000000
 NMagM=    0.0000000   0.0000000   0.0000000   0.0000000   0.0000000   0.0000000
 AtZNuc=   6.0000000   6.0000000   6.0000000   6.0000000   6.0000000   6.0000000
 Leave Link  101 at Mon Jun 20 17:58:50 2016, MaxMem=    33554432 cpu:         0.2
 (Enter /home/proyectos/fulerenos/M3C-v1.9/M3C-deps_CCC/g09-AM64L-G09RevC.01/l202.exe)
                          Input orientation:                          
 ---------------------------------------------------------------------
 Center     Atomic      Atomic             Coordinates (Angstroms)
 Number     Number       Type             X           Y           Z
 ---------------------------------------------------------------------
      1          6           0        0.455139   -0.697172   -0.172408
      2          6           0       -0.930702   -0.650913    0.175208
      3          6           0        0.930668    0.650949   -0.175249
      4          6           0       -0.455083    0.697162    0.172692
      5          6           0        2.108164    1.474588   -0.397120
      6          6           0       -2.108186   -1.474614    0.396877
 ---------------------------------------------------------------------
                    Distance matrix (angstroms):
                    1          2          3          4          5
     1  C    0.000000
     2  C    1.429522   0.000000
     3  C    1.429534   2.298339   0.000000
     4  C    1.700519   1.429519   1.429512   0.000000
     5  C    2.738527   3.752335   1.453996   2.738487   0.000000
     6  C    2.738455   1.453991   3.752330   2.738543   5.206326
                    6
     6  C    0.000000
 Stoichiometry    C6(2+,3)
 Framework group  C1[X(C6)]
 Deg. of freedom    12
 Full point group                 C1      NOp   1
 Largest Abelian subgroup         C1      NOp   1
 Largest concise Abelian subgroup C1      NOp   1
                         Standard orientation:                         
 ---------------------------------------------------------------------
 Center     Atomic      Atomic             Coordinates (Angstroms)
 Number     Number       Type             X           Y           Z
 ---------------------------------------------------------------------
      1          6           0       -0.000034   -0.850250    0.000144
      2          6           0       -1.149170    0.000055   -0.000055
      3          6           0        1.149169   -0.000015    0.000004
      4          6           0        0.000030    0.850269    0.000144
      5          6           0        2.603165   -0.000024   -0.000132
      6          6           0       -2.603161   -0.000034   -0.000106
 ---------------------------------------------------------------------
 Rotational constants (GHZ):     29.1274768      2.6006339      2.3874697
 Leave Link  202 at Mon Jun 20 17:58:50 2016, MaxMem=    33554432 cpu:         0.0
 (Enter /home/proyectos/fulerenos/M3C-v1.9/M3C-deps_CCC/g09-AM64L-G09RevC.01/l301.exe)
 Standard basis: 6-311+G(3df) (5D, 7F)
 Ernie: Thresh=  0.10000D-02 Tol=  0.10000D-05 Strict=F.
 There are   270 symmetry adapted cartesian basis functions of A   symmetry.
 There are   234 symmetry adapted basis functions of A   symmetry.
   234 basis functions,   348 primitive gaussians,   270 cartesian basis functions
    18 alpha electrons       16 beta electrons
       nuclear repulsion energy       140.6402104762 Hartrees.
 IExCor=    0 DFT=F Ex=HF Corr=None ExCW=0 ScaHFX=  1.000000
 ScaDFX=  1.000000  1.000000  1.000000  1.000000 ScalE2=  1.000000  1.000000
 IRadAn=      0 IRanWt=     -1 IRanGd=            0 ICorTp=0 IEmpDi=  4
 NAtoms=    6 NActive=    6 NUniq=    6 SFac= 1.00D+00 NAtFMM=   60 NAOKFM=F Big=F
 Integral buffers will be    131072 words long.
 Raffenetti 2 integral format.
 Two-electron integral symmetry is turned on.
 Leave Link  301 at Mon Jun 20 17:58:50 2016, MaxMem=    33554432 cpu:         0.2
 (Enter /home/proyectos/fulerenos/M3C-v1.9/M3C-deps_CCC/g09-AM64L-G09RevC.01/l302.exe)
 NPDir=0 NMtPBC=     1 NCelOv=     1 NCel=       1 NClECP=     1 NCelD=      1
         NCelK=      1 NCelE2=     1 NClLst=     1 CellRange=     0.0.
 One-electron integrals computed using PRISM.
 NBasis=   234 RedAO= T EigKep=  2.38D-06  NBF=   234
 NBsUse=   234 1.00D-06 EigRej= -1.00D+00 NBFU=   234
 Leave Link  302 at Mon Jun 20 17:58:51 2016, MaxMem=    33554432 cpu:         1.0
 (Enter /home/proyectos/fulerenos/M3C-v1.9/M3C-deps_CCC/g09-AM64L-G09RevC.01/l303.exe)
 DipDrv:  MaxL=1.
 Leave Link  303 at Mon Jun 20 17:58:51 2016, MaxMem=    33554432 cpu:         0.1
 (Enter /home/proyectos/fulerenos/M3C-v1.9/M3C-deps_CCC/g09-AM64L-G09RevC.01/l401.exe)
 Projected New-EHT guess.
 Enter ItEHT:  IZDO=4 IZDPar=0 Conv= 1.00D-06 N=   24
 It=   1                  EEH= -29.4238337930     EQH= 0.000000000000E+00 EH= -29.4238337930    
 JPrj=0 DoOrth=T DoCkMO=T.
 Initial guess <Sx>= 0.0000 <Sy>= 0.0000 <Sz>= 1.0000 <S**2>= 2.0000 S= 1.0000
 Leave Link  401 at Mon Jun 20 17:58:51 2016, MaxMem=    33554432 cpu:         0.9
 (Enter /home/proyectos/fulerenos/M3C-v1.9/M3C-deps_CCC/g09-AM64L-G09RevC.01/l502.exe)
 UHF open shell SCF:
 Using DIIS extrapolation, IDIIS=  1040.
 Integral symmetry usage will be decided dynamically.
 IVT=      315266 IEndB=      315266 NGot=    33554432 MDV=    33402937
 LenX=    33402937 LenY=    33329596
 Requested convergence on RMS density matrix=1.00D-08 within 300 cycles.
 Requested convergence on MAX density matrix=1.00D-06.
 Requested convergence on             energy=1.00D-06.
 No special actions if energy rises.
 Fock matrices will be formed incrementally for  20 cycles.

 Cycle   1  Pass 0  IDiag  1:
 FoFJK:  IHMeth= 1 ICntrl=       0 DoSepK=F KAlg= 0 I1Cent=   0 FoldK=F
 IRaf= 970000000 NMat=   1 IRICut=       1 DoRegI=T DoRafI=F ISym2E= 0.
 FoFCou: FMM=F IPFlag=           0 FMFlag=      100000 FMFlg1=           0
         NFxFlg=           0 DoJE=F BraDBF=F KetDBF=F FulRan=T
         wScrn=  0.000000 ICntrl=       0 IOpCl=  1 I1Cent=           0 NGrid=           0
         NMat0=    1 NMatS0=      1 NMatT0=    0 NMatD0=    1 NMtDS0=    0 NMtDT0=    0
 Symmetry not used in FoFCou.
 E= -223.444780693305    
 DIIS: error= 2.42D-01 at cycle   1 NSaved=   1.
 NSaved= 1 IEnMin= 1 EnMin= -223.444780693305     IErMin= 1 ErrMin= 2.42D-01
 ErrMax= 2.42D-01  0.00D+00 EMaxC= 1.00D-01 BMatC= 2.37D+01 BMatP= 2.37D+01
 IDIUse=3 WtCom= 0.00D+00 WtEn= 1.00D+00
 Coeff-Com:  0.100D+01
 Coeff-En:   0.100D+01
 Coeff:      0.100D+01
 Gap=     0.199 Goal=   None    Shift=    0.000
 Gap=    -0.017 Goal=   None    Shift=    0.000
 GapD=   -0.017 DampG=0.250 DampE=0.250 DampFc=0.2500 IDamp=-1.
 Damping current iteration by 2.50D-01
 RMSDP=3.36D-02 MaxDP=1.55D+00              OVMax= 1.00D+00

 Cycle   2  Pass 0  IDiag  1:
 RMSU=  6.69D-03    CP:  9.07D-01
 E= -224.004887630384     Delta-E=       -0.560106937079 Rises=F Damp=T
 DIIS: error= 1.67D-01 at cycle   2 NSaved=   2.
 NSaved= 2 IEnMin= 2 EnMin= -224.004887630384     IErMin= 2 ErrMin= 1.67D-01
 ErrMax= 1.67D-01  0.00D+00 EMaxC= 1.00D-01 BMatC= 1.22D+01 BMatP= 2.37D+01
 IDIUse=3 WtCom= 0.00D+00 WtEn= 1.00D+00
 Coeff-Com: -0.159D+01 0.259D+01
 Coeff-En:   0.000D+00 0.100D+01
 Coeff:      0.000D+00 0.100D+01
 Gap=     0.023 Goal=   None    Shift=    0.000
 Gap=    -0.220 Goal=   None    Shift=    0.000
 RMSDP=1.81D-02 MaxDP=7.97D-01 DE=-5.60D-01 OVMax= 9.95D-01

 Cycle   3  Pass 0  IDiag  1:
 RMSU=  1.55D-02    CP:  7.34D-01  1.15D+00
 E= -225.763987179875     Delta-E=       -1.759099549491 Rises=F Damp=F
 DIIS: error= 2.26D-02 at cycle   3 NSaved=   3.
 NSaved= 3 IEnMin= 3 EnMin= -225.763987179875     IErMin= 3 ErrMin= 2.26D-02
 ErrMax= 2.26D-02  0.00D+00 EMaxC= 1.00D-01 BMatC= 2.58D-01 BMatP= 1.22D+01
 IDIUse=3 WtCom= 7.74D-01 WtEn= 2.26D-01
 Coeff-Com:  0.554D-01-0.962D-01 0.104D+01
 Coeff-En:   0.000D+00 0.000D+00 0.100D+01
 Coeff:      0.429D-01-0.744D-01 0.103D+01
 Gap=     0.315 Goal=   None    Shift=    0.000
 Gap=     0.382 Goal=   None    Shift=    0.000
 RMSDP=5.48D-03 MaxDP=2.65D-01 DE=-1.76D+00 OVMax= 1.07D-01

 Cycle   4  Pass 0  IDiag  1:
 RMSU=  4.17D-03    CP:  6.94D-01  1.54D+00  9.35D-01
 E= -225.828929624379     Delta-E=       -0.064942444503 Rises=F Damp=F
 DIIS: error= 1.21D-02 at cycle   4 NSaved=   4.
 NSaved= 4 IEnMin= 4 EnMin= -225.828929624379     IErMin= 4 ErrMin= 1.21D-02
 ErrMax= 1.21D-02  0.00D+00 EMaxC= 1.00D-01 BMatC= 3.77D-02 BMatP= 2.58D-01
 IDIUse=3 WtCom= 8.79D-01 WtEn= 1.21D-01
 Coeff-Com:  0.275D-01-0.512D-01 0.234D+00 0.790D+00
 Coeff-En:   0.000D+00 0.000D+00 0.000D+00 0.100D+01
 Coeff:      0.242D-01-0.450D-01 0.206D+00 0.815D+00
 Gap=     0.312 Goal=   None    Shift=    0.000
 Gap=     0.313 Goal=   None    Shift=    0.000
 RMSDP=2.91D-03 MaxDP=1.79D-01 DE=-6.49D-02 OVMax= 6.81D-02

 Cycle   5  Pass 0  IDiag  1:
 RMSU=  2.16D-03    CP:  6.79D-01  1.33D+00  9.29D-01  7.67D-01
 E= -225.842284088342     Delta-E=       -0.013354463963 Rises=F Damp=F
 DIIS: error= 4.78D-03 at cycle   5 NSaved=   5.
 NSaved= 5 IEnMin= 5 EnMin= -225.842284088342     IErMin= 5 ErrMin= 4.78D-03
 ErrMax= 4.78D-03  0.00D+00 EMaxC= 1.00D-01 BMatC= 5.99D-03 BMatP= 3.77D-02
 IDIUse=3 WtCom= 9.52D-01 WtEn= 4.78D-02
 Coeff-Com:  0.261D-01-0.287D-01-0.120D+00-0.112D+00 0.124D+01
 Coeff-En:   0.000D+00 0.000D+00 0.000D+00 0.000D+00 0.100D+01
 Coeff:      0.249D-01-0.273D-01-0.115D+00-0.107D+00 0.122D+01
 Gap=     0.310 Goal=   None    Shift=    0.000
 Gap=     0.323 Goal=   None    Shift=    0.000
 RMSDP=1.27D-03 MaxDP=6.02D-02 DE=-1.34D-02 OVMax= 7.61D-02

 Cycle   6  Pass 0  IDiag  1:
 RMSU=  7.50D-04    CP:  6.79D-01  1.25D+00  9.22D-01  7.23D-01  1.39D+00
 E= -225.848005300150     Delta-E=       -0.005721211809 Rises=F Damp=F
 DIIS: error= 4.23D-03 at cycle   6 NSaved=   6.
 NSaved= 6 IEnMin= 6 EnMin= -225.848005300150     IErMin= 6 ErrMin= 4.23D-03
 ErrMax= 4.23D-03  0.00D+00 EMaxC= 1.00D-01 BMatC= 1.62D-03 BMatP= 5.99D-03
 IDIUse=3 WtCom= 9.58D-01 WtEn= 4.23D-02
 Coeff-Com:  0.133D-01-0.185D-01 0.325D-01-0.462D-01-0.437D+00 0.146D+01
 Coeff-En:   0.000D+00 0.000D+00 0.000D+00 0.000D+00 0.000D+00 0.100D+01
 Coeff:      0.127D-01-0.177D-01 0.311D-01-0.442D-01-0.419D+00 0.144D+01
 Gap=     0.318 Goal=   None    Shift=    0.000
 Gap=     0.332 Goal=   None    Shift=    0.000
 RMSDP=8.47D-04 MaxDP=4.56D-02 DE=-5.72D-03 OVMax= 6.90D-02

 Cycle   7  Pass 0  IDiag  1:
 RMSU=  2.47D-04    CP:  6.82D-01  1.21D+00  9.25D-01  6.67D-01  1.56D+00
                    CP:  1.83D+00
 E= -225.850807225376     Delta-E=       -0.002801925226 Rises=F Damp=F
 DIIS: error= 3.15D-03 at cycle   7 NSaved=   7.
 NSaved= 7 IEnMin= 7 EnMin= -225.850807225376     IErMin= 7 ErrMin= 3.15D-03
 ErrMax= 3.15D-03  0.00D+00 EMaxC= 1.00D-01 BMatC= 6.85D-04 BMatP= 1.62D-03
 IDIUse=3 WtCom= 9.68D-01 WtEn= 3.15D-02
 Coeff-Com:  0.666D-02-0.990D-02 0.145D-01 0.603D-01 0.119D+00-0.138D+01
 Coeff-Com:  0.219D+01
 Coeff-En:   0.000D+00 0.000D+00 0.000D+00 0.000D+00 0.000D+00 0.000D+00
 Coeff-En:   0.100D+01
 Coeff:      0.645D-02-0.959D-02 0.141D-01 0.584D-01 0.115D+00-0.134D+01
 Coeff:      0.216D+01
 Gap=     0.324 Goal=   None    Shift=    0.000
 Gap=     0.339 Goal=   None    Shift=    0.000
 RMSDP=7.88D-04 MaxDP=4.05D-02 DE=-2.80D-03 OVMax= 7.59D-02

 Cycle   8  Pass 0  IDiag  1:
 RMSU=  2.33D-04    CP:  6.79D-01  1.21D+00  9.23D-01  6.36D-01  1.63D+00
                    CP:  2.60D+00  2.64D+00
 E= -225.852580468240     Delta-E=       -0.001773242864 Rises=F Damp=F
 DIIS: error= 1.49D-03 at cycle   8 NSaved=   8.
 NSaved= 8 IEnMin= 8 EnMin= -225.852580468240     IErMin= 8 ErrMin= 1.49D-03
 ErrMax= 1.49D-03  0.00D+00 EMaxC= 1.00D-01 BMatC= 1.62D-04 BMatP= 6.85D-04
 IDIUse=3 WtCom= 9.85D-01 WtEn= 1.49D-02
 Coeff-Com:  0.206D-02-0.160D-02-0.180D-01-0.426D-01 0.135D+00 0.459D+00
 Coeff-Com: -0.148D+01 0.195D+01
 Coeff-En:   0.000D+00 0.000D+00 0.000D+00 0.000D+00 0.000D+00 0.000D+00
 Coeff-En:   0.000D+00 0.100D+01
 Coeff:      0.203D-02-0.158D-02-0.177D-01-0.420D-01 0.133D+00 0.453D+00
 Coeff:     -0.146D+01 0.193D+01
 Gap=     0.327 Goal=   None    Shift=    0.000
 Gap=     0.342 Goal=   None    Shift=    0.000
 RMSDP=5.61D-04 MaxDP=4.33D-02 DE=-1.77D-03 OVMax= 3.85D-02

 Cycle   9  Pass 0  IDiag  1:
 RMSU=  1.84D-04    CP:  6.72D-01  1.22D+00  9.20D-01  6.27D-01  1.64D+00
                    CP:  2.87D+00  3.00D+00  2.05D+00
 E= -225.852967839472     Delta-E=       -0.000387371232 Rises=F Damp=F
 DIIS: error= 4.34D-04 at cycle   9 NSaved=   9.
 NSaved= 9 IEnMin= 9 EnMin= -225.852967839472     IErMin= 9 ErrMin= 4.34D-04
 ErrMax= 4.34D-04  0.00D+00 EMaxC= 1.00D-01 BMatC= 2.14D-05 BMatP= 1.62D-04
 IDIUse=3 WtCom= 9.96D-01 WtEn= 4.34D-03
 Coeff-Com: -0.456D-04-0.220D-03 0.530D-02 0.591D-02-0.729D-01 0.369D-01
 Coeff-Com:  0.261D+00-0.896D+00 0.166D+01
 Coeff-En:   0.000D+00 0.000D+00 0.000D+00 0.000D+00 0.000D+00 0.000D+00
 Coeff-En:   0.000D+00 0.000D+00 0.100D+01
 Coeff:     -0.454D-04-0.219D-03 0.527D-02 0.589D-02-0.726D-01 0.367D-01
 Coeff:      0.260D+00-0.892D+00 0.166D+01
 Gap=     0.328 Goal=   None    Shift=    0.000
 Gap=     0.343 Goal=   None    Shift=    0.000
 RMSDP=2.32D-04 MaxDP=1.87D-02 DE=-3.87D-04 OVMax= 1.31D-02

 Cycle  10  Pass 0  IDiag  1:
 RMSU=  3.52D-05    CP:  6.69D-01  1.21D+00  9.20D-01  6.18D-01  1.64D+00
                    CP:  2.98D+00  3.00D+00  2.45D+00  1.54D+00
 E= -225.853012082710     Delta-E=       -0.000044243237 Rises=F Damp=F
 DIIS: error= 1.34D-04 at cycle  10 NSaved=  10.
 NSaved=10 IEnMin=10 EnMin= -225.853012082710     IErMin=10 ErrMin= 1.34D-04
 ErrMax= 1.34D-04  0.00D+00 EMaxC= 1.00D-01 BMatC= 2.50D-06 BMatP= 2.14D-05
 IDIUse=3 WtCom= 9.99D-01 WtEn= 1.34D-03
 Coeff-Com: -0.173D-03 0.242D-03-0.821D-03 0.354D-02 0.287D-01-0.113D+00
 Coeff-Com:  0.102D+00 0.204D+00-0.916D+00 0.169D+01
 Coeff-En:   0.000D+00 0.000D+00 0.000D+00 0.000D+00 0.000D+00 0.000D+00
 Coeff-En:   0.000D+00 0.000D+00 0.000D+00 0.100D+01
 Coeff:     -0.172D-03 0.242D-03-0.819D-03 0.353D-02 0.287D-01-0.113D+00
 Coeff:      0.102D+00 0.203D+00-0.915D+00 0.169D+01
 Gap=     0.328 Goal=   None    Shift=    0.000
 Gap=     0.343 Goal=   None    Shift=    0.000
 RMSDP=3.63D-05 MaxDP=1.31D-03 DE=-4.42D-05 OVMax= 2.18D-03

 Cycle  11  Pass 0  IDiag  1:
 RMSU=  1.40D-05    CP:  6.69D-01  1.21D+00  9.21D-01  6.17D-01  1.63D+00
                    CP:  2.99D+00  3.00D+00  2.48D+00  1.64D+00  1.41D+00
 E= -225.853015679489     Delta-E=       -0.000003596780 Rises=F Damp=F
 DIIS: error= 5.43D-05 at cycle  11 NSaved=  11.
 NSaved=11 IEnMin=11 EnMin= -225.853015679489     IErMin=11 ErrMin= 5.43D-05
 ErrMax= 5.43D-05  0.00D+00 EMaxC= 1.00D-01 BMatC= 2.68D-07 BMatP= 2.50D-06
 IDIUse=1 WtCom= 1.00D+00 WtEn= 0.00D+00
 Coeff-Com:  0.335D-05 0.277D-04-0.479D-03-0.147D-02-0.113D-03 0.268D-01
 Coeff-Com: -0.605D-01 0.486D-01 0.771D-01-0.550D+00 0.146D+01
 Coeff:      0.335D-05 0.277D-04-0.479D-03-0.147D-02-0.113D-03 0.268D-01
 Coeff:     -0.605D-01 0.486D-01 0.771D-01-0.550D+00 0.146D+01
 Gap=     0.329 Goal=   None    Shift=    0.000
 Gap=     0.343 Goal=   None    Shift=    0.000
 RMSDP=1.34D-05 MaxDP=8.40D-04 DE=-3.60D-06 OVMax= 5.64D-04

 Cycle  12  Pass 0  IDiag  1:
 RMSU=  4.52D-06    CP:  6.69D-01  1.21D+00  9.21D-01  6.17D-01  1.64D+00
                    CP:  2.99D+00  3.00D+00  2.48D+00  1.65D+00  1.36D+00
                    CP:  1.73D+00
 E= -225.853016081931     Delta-E=       -0.000000402441 Rises=F Damp=F
 DIIS: error= 2.81D-05 at cycle  12 NSaved=  12.
 NSaved=12 IEnMin=12 EnMin= -225.853016081931     IErMin=12 ErrMin= 2.81D-05
 ErrMax= 2.81D-05  0.00D+00 EMaxC= 1.00D-01 BMatC= 4.57D-08 BMatP= 2.68D-07
 IDIUse=1 WtCom= 1.00D+00 WtEn= 0.00D+00
 Coeff-Com:  0.110D-04-0.126D-04 0.262D-04-0.438D-03-0.249D-02 0.131D-01
 Coeff-Com: -0.160D-01-0.105D-01 0.852D-01-0.210D+00 0.173D+00 0.968D+00
 Coeff:      0.110D-04-0.126D-04 0.262D-04-0.438D-03-0.249D-02 0.131D-01
 Coeff:     -0.160D-01-0.105D-01 0.852D-01-0.210D+00 0.173D+00 0.968D+00
 Gap=     0.329 Goal=   None    Shift=    0.000
 Gap=     0.343 Goal=   None    Shift=    0.000
 RMSDP=5.06D-06 MaxDP=3.38D-04 DE=-4.02D-07 OVMax= 1.80D-04

 Initial convergence to 1.0D-05 achieved.  Increase integral accuracy.
 Cycle  13  Pass 1  IDiag  1:
 E= -225.853016136541     Delta-E=       -0.000000054610 Rises=F Damp=F
 DIIS: error= 1.68D-05 at cycle   1 NSaved=   1.
 NSaved= 1 IEnMin= 1 EnMin= -225.853016136541     IErMin= 1 ErrMin= 1.68D-05
 ErrMax= 1.68D-05  0.00D+00 EMaxC= 1.00D-01 BMatC= 1.86D-08 BMatP= 1.86D-08
 IDIUse=1 WtCom= 1.00D+00 WtEn= 0.00D+00
 Coeff-Com:  0.100D+01
 Coeff:      0.100D+01
 Gap=     0.329 Goal=   None    Shift=    0.000
 Gap=     0.343 Goal=   None    Shift=    0.000
 RMSDP=5.06D-06 MaxDP=3.38D-04 DE=-5.46D-08 OVMax= 8.31D-05

 Cycle  14  Pass 1  IDiag  1:
 RMSU=  1.80D-06    CP:  1.00D+00
 E= -225.853016157622     Delta-E=       -0.000000021081 Rises=F Damp=F
 DIIS: error= 1.42D-05 at cycle   2 NSaved=   2.
 NSaved= 2 IEnMin= 2 EnMin= -225.853016157622     IErMin= 2 ErrMin= 1.42D-05
 ErrMax= 1.42D-05  0.00D+00 EMaxC= 1.00D-01 BMatC= 1.13D-08 BMatP= 1.86D-08
 IDIUse=1 WtCom= 1.00D+00 WtEn= 0.00D+00
 Coeff-Com:  0.154D+00 0.846D+00
 Coeff:      0.154D+00 0.846D+00
 Gap=     0.329 Goal=   None    Shift=    0.000
 Gap=     0.343 Goal=   None    Shift=    0.000
 RMSDP=1.06D-06 MaxDP=4.01D-05 DE=-2.11D-08 OVMax= 5.91D-05

 Cycle  15  Pass 1  IDiag  1:
 RMSU=  8.14D-07    CP:  1.00D+00  1.36D+00
 E= -225.853016169613     Delta-E=       -0.000000011991 Rises=F Damp=F
 DIIS: error= 1.11D-05 at cycle   3 NSaved=   3.
 NSaved= 3 IEnMin= 3 EnMin= -225.853016169613     IErMin= 3 ErrMin= 1.11D-05
 ErrMax= 1.11D-05  0.00D+00 EMaxC= 1.00D-01 BMatC= 7.50D-09 BMatP= 1.13D-08
 IDIUse=1 WtCom= 1.00D+00 WtEn= 0.00D+00
 Coeff-Com: -0.998D+00-0.336D+00 0.233D+01
 Coeff:     -0.998D+00-0.336D+00 0.233D+01
 Gap=     0.329 Goal=   None    Shift=    0.000
 Gap=     0.343 Goal=   None    Shift=    0.000
 RMSDP=2.99D-06 MaxDP=1.09D-04 DE=-1.20D-08 OVMax= 1.79D-04

 Cycle  16  Pass 1  IDiag  1:
 RMSU=  6.54D-07    CP:  1.00D+00  2.78D+00  2.54D+00
 E= -225.853016196716     Delta-E=       -0.000000027103 Rises=F Damp=F
 DIIS: error= 4.22D-06 at cycle   4 NSaved=   4.
 NSaved= 4 IEnMin= 4 EnMin= -225.853016196716     IErMin= 4 ErrMin= 4.22D-06
 ErrMax= 4.22D-06  0.00D+00 EMaxC= 1.00D-01 BMatC= 3.29D-09 BMatP= 7.50D-09
 IDIUse=1 WtCom= 1.00D+00 WtEn= 0.00D+00
 Coeff-Com:  0.953D+00 0.214D+00-0.225D+01 0.208D+01
 Coeff:      0.953D+00 0.214D+00-0.225D+01 0.208D+01
 Gap=     0.329 Goal=   None    Shift=    0.000
 Gap=     0.343 Goal=   None    Shift=    0.000
 RMSDP=1.20D-06 MaxDP=3.20D-05 DE=-2.71D-08 OVMax= 8.83D-05

 Cycle  17  Pass 1  IDiag  1:
 RMSU=  5.24D-07    CP:  1.00D+00  3.00D+00  3.00D+00  2.32D+00
 E= -225.853016208316     Delta-E=       -0.000000011600 Rises=F Damp=F
 DIIS: error= 3.93D-06 at cycle   5 NSaved=   5.
 NSaved= 5 IEnMin= 5 EnMin= -225.853016208316     IErMin= 5 ErrMin= 3.93D-06
 ErrMax= 3.93D-06  0.00D+00 EMaxC= 1.00D-01 BMatC= 3.10D-09 BMatP= 3.29D-09
 IDIUse=1 WtCom= 1.00D+00 WtEn= 0.00D+00
 Coeff-Com:  0.100D+01 0.225D+00-0.237D+01 0.219D+01-0.531D-01
 Coeff:      0.100D+01 0.225D+00-0.237D+01 0.219D+01-0.531D-01
 Gap=     0.329 Goal=   None    Shift=    0.000
 Gap=     0.343 Goal=   None    Shift=    0.000
 RMSDP=2.68D-08 MaxDP=8.43D-07 DE=-1.16D-08 OVMax= 1.69D-06

 Cycle  18  Pass 1  IDiag  1:
 RMSU=  7.40D-09    CP:  1.00D+00  3.00D+00  3.00D+00  2.30D+00  9.61D-01
 E= -225.853016208077     Delta-E=        0.000000000239 Rises=F Damp=F
 DIIS: error= 3.93D-06 at cycle   6 NSaved=   6.
 NSaved= 6 IEnMin= 5 EnMin= -225.853016208316     IErMin= 5 ErrMin= 3.93D-06
 ErrMax= 3.93D-06  0.00D+00 EMaxC= 1.00D-01 BMatC= 3.09D-09 BMatP= 3.10D-09
 IDIUse=1 WtCom= 1.00D+00 WtEn= 0.00D+00
 Large coefficients: NSaved=  6 BigCof=   87.00 CofMax=   10.00 Det=-5.63D-14
 Inversion failed.  Reducing to  5 matrices.
 Large coefficients: NSaved=  5 BigCof=   90.25 CofMax=   10.00 Det=-5.73D-14
 Inversion failed.  Reducing to  4 matrices.
 Large coefficients: NSaved=  4 BigCof=   89.35 CofMax=   10.00 Det=-5.82D-14
 Inversion failed.  Reducing to  3 matrices.
 Large coefficients: NSaved=  3 BigCof=   85.80 CofMax=   10.00 Det=-6.15D-14
 Inversion failed.  Reducing to  2 matrices.
 Large coefficients: NSaved=  2 BigCof=   63.30 CofMax=   10.00 Det=-9.64D-14
 Coeff-Com: -0.623D+02 0.633D+02
 Coeff:     -0.623D+02 0.633D+02
 Gap=     0.329 Goal=   None    Shift=    0.000
 Gap=     0.343 Goal=   None    Shift=    0.000
 RMSDP=1.26D-06 MaxDP=4.11D-05 DE= 2.39D-10 OVMax= 6.93D-05

 Cycle  19  Pass 1  IDiag  1:
 RMSU=  3.82D-07    CP:  1.00D+00  2.91D+00  2.78D+00  1.12D+00 -6.84D-01
                    CP:  3.00D+00
 E= -225.853016198038     Delta-E=        0.000000010039 Rises=F Damp=F
 DIIS: error= 4.16D-06 at cycle   7 NSaved=   3.
 NSaved= 3 IEnMin= 1 EnMin= -225.853016208316     IErMin= 1 ErrMin= 3.93D-06
 ErrMax= 4.16D-06  0.00D+00 EMaxC= 1.00D-01 BMatC= 2.50D-09 BMatP= 3.09D-09
 IDIUse=1 WtCom= 1.00D+00 WtEn= 0.00D+00
 Large coefficients: NSaved=  3 BigCof=   11.78 CofMax=   10.00 Det=-6.15D-14
 Inversion failed.  Reducing to  2 matrices.
 Coeff-Com: -0.119D+01 0.219D+01
 Coeff:     -0.119D+01 0.219D+01
 Gap=     0.329 Goal=   None    Shift=    0.000
 Gap=     0.343 Goal=   None    Shift=    0.000
 RMSDP=1.22D-06 MaxDP=4.02D-05 DE= 1.00D-08 OVMax= 6.59D-05

 Cycle  20  Pass 1  IDiag  1:
 RMSU=  1.64D-07    CP:  1.00D+00  2.79D+00  2.44D+00  2.26D-02 -2.10D+00
                    CP:  3.00D+00  2.36D+00
 E= -225.853016191093     Delta-E=        0.000000006945 Rises=F Damp=F
 DIIS: error= 4.30D-06 at cycle   8 NSaved=   3.
 NSaved= 3 IEnMin= 1 EnMin= -225.853016208077     IErMin= 1 ErrMin= 3.93D-06
 ErrMax= 4.30D-06  0.00D+00 EMaxC= 1.00D-01 BMatC= 1.92D-09 BMatP= 2.50D-09
 IDIUse=1 WtCom= 1.00D+00 WtEn= 0.00D+00
 Coeff-Com: -0.894D+00 0.284D+00 0.161D+01
 Coeff:     -0.894D+00 0.284D+00 0.161D+01
 Gap=     0.329 Goal=   None    Shift=    0.000
 Gap=     0.343 Goal=   None    Shift=    0.000
 RMSDP=1.72D-06 MaxDP=5.75D-05 DE= 6.95D-09 OVMax= 9.36D-05

 Cycle  21  Pass 1  IDiag  1:
 RMSU=  8.19D-07    CP:  1.00D+00  2.61D+00  2.02D+00 -1.44D+00 -3.00D+00
                    CP:  3.00D+00  3.00D+00  1.87D+00
 E= -225.853016184738     Delta-E=        0.000000006355 Rises=F Damp=F
 DIIS: error= 4.47D-06 at cycle   9 NSaved=   4.
 NSaved= 4 IEnMin= 1 EnMin= -225.853016208077     IErMin= 1 ErrMin= 3.93D-06
 ErrMax= 4.47D-06  0.00D+00 EMaxC= 1.00D-01 BMatC= 1.33D-09 BMatP= 1.92D-09
 IDIUse=1 WtCom= 1.00D+00 WtEn= 0.00D+00
 Coeff-Com:  0.345D+01-0.437D+01-0.157D+01 0.348D+01
 Coeff:      0.345D+01-0.437D+01-0.157D+01 0.348D+01
 Gap=     0.329 Goal=   None    Shift=    0.000
 Gap=     0.343 Goal=   None    Shift=    0.000
 RMSDP=1.32D-06 MaxDP=3.71D-05 DE= 6.35D-09 OVMax= 1.08D-04

 Cycle  22  Pass 1  IDiag  1:
 RMSU=  6.48D-07    CP:  1.00D+00  2.55D+00  1.85D+00 -1.96D+00 -3.00D+00
                    CP:  3.00D+00  3.00D+00  3.00D+00  2.25D+00
 E= -225.853016188586     Delta-E=       -0.000000003848 Rises=F Damp=F
 DIIS: error= 4.12D-06 at cycle  10 NSaved=   5.
 NSaved= 5 IEnMin= 1 EnMin= -225.853016208077     IErMin= 1 ErrMin= 3.93D-06
 ErrMax= 4.12D-06  0.00D+00 EMaxC= 1.00D-01 BMatC= 6.48D-10 BMatP= 1.33D-09
 IDIUse=1 WtCom= 1.00D+00 WtEn= 0.00D+00
 Coeff-Com: -0.530D-01 0.176D+00-0.113D+00-0.196D+00 0.119D+01
 Coeff:     -0.530D-01 0.176D+00-0.113D+00-0.196D+00 0.119D+01
 Gap=     0.329 Goal=   None    Shift=    0.000
 Gap=     0.343 Goal=   None    Shift=    0.000
 RMSDP=2.99D-07 MaxDP=1.40D-05 DE=-3.85D-09 OVMax= 5.65D-05

 Cycle  23  Pass 1  IDiag  1:
 RMSU=  1.22D-07    CP:  1.00D+00  2.60D+00  1.93D+00 -1.92D+00 -3.00D+00
                    CP:  3.00D+00  3.00D+00  3.00D+00  2.40D+00  1.33D+00
 E= -225.853016190427     Delta-E=       -0.000000001841 Rises=F Damp=F
 DIIS: error= 3.93D-06 at cycle  11 NSaved=   6.
 NSaved= 6 IEnMin= 1 EnMin= -225.853016208077     IErMin= 1 ErrMin= 3.93D-06
 ErrMax= 3.93D-06  0.00D+00 EMaxC= 1.00D-01 BMatC= 5.71D-10 BMatP= 6.48D-10
 IDIUse=1 WtCom= 1.00D+00 WtEn= 0.00D+00
 Coeff-Com: -0.534D+01 0.669D+01 0.247D+01-0.525D+01-0.748D+00 0.318D+01
 Coeff:     -0.534D+01 0.669D+01 0.247D+01-0.525D+01-0.748D+00 0.318D+01
 Gap=     0.329 Goal=   None    Shift=    0.000
 Gap=     0.343 Goal=   None    Shift=    0.000
 RMSDP=9.51D-07 MaxDP=4.74D-05 DE=-1.84D-09 OVMax= 1.91D-04

 Cycle  24  Pass 1  IDiag  1:
 RMSU=  2.91D-07    CP:  1.00D+00  2.80D+00  2.18D+00 -1.67D+00 -3.00D+00
                    CP:  3.00D+00  3.00D+00  3.00D+00  2.71D+00  2.27D+00
                    CP:  3.00D+00
 E= -225.853016195869     Delta-E=       -0.000000005442 Rises=F Damp=F
 DIIS: error= 3.31D-06 at cycle  12 NSaved=   7.
 NSaved= 7 IEnMin= 1 EnMin= -225.853016208077     IErMin= 7 ErrMin= 3.31D-06
 ErrMax= 3.31D-06  0.00D+00 EMaxC= 1.00D-01 BMatC= 4.14D-10 BMatP= 5.71D-10
 IDIUse=1 WtCom= 1.00D+00 WtEn= 0.00D+00
 Coeff-Com:  0.132D+01-0.170D+01-0.564D+00 0.139D+01-0.454D+00-0.626D+00
 Coeff-Com:  0.164D+01
 Coeff:      0.132D+01-0.170D+01-0.564D+00 0.139D+01-0.454D+00-0.626D+00
 Coeff:      0.164D+01
 Gap=     0.329 Goal=   None    Shift=    0.000
 Gap=     0.343 Goal=   None    Shift=    0.000
 RMSDP=5.92D-07 MaxDP=3.12D-05 DE=-5.44D-09 OVMax= 1.26D-04

 Cycle  25  Pass 1  IDiag  1:
 RMSU=  8.71D-08    CP:  1.00D+00  2.87D+00  2.32D+00 -1.47D+00 -3.00D+00
                    CP:  3.00D+00  3.00D+00  3.00D+00  2.85D+00  2.88D+00
                    CP:  3.00D+00  2.23D+00
 E= -225.853016198925     Delta-E=       -0.000000003057 Rises=F Damp=F
 DIIS: error= 2.90D-06 at cycle  13 NSaved=   8.
 NSaved= 8 IEnMin= 1 EnMin= -225.853016208077     IErMin= 8 ErrMin= 2.90D-06
 ErrMax= 2.90D-06  0.00D+00 EMaxC= 1.00D-01 BMatC= 3.38D-10 BMatP= 4.14D-10
 IDIUse=1 WtCom= 1.00D+00 WtEn= 0.00D+00
 Large coefficients: NSaved=  8 BigCof=   13.29 CofMax=   10.00 Det=-4.37D-13
 Inversion failed.  Reducing to  7 matrices.
 Coeff-Com:  0.236D-01-0.236D-01-0.184D-02 0.349D+00-0.646D+00-0.582D+00
 Coeff-Com:  0.188D+01
 Coeff:      0.236D-01-0.236D-01-0.184D-02 0.349D+00-0.646D+00-0.582D+00
 Coeff:      0.188D+01
 Gap=     0.329 Goal=   None    Shift=    0.000
 Gap=     0.343 Goal=   None    Shift=    0.000
 RMSDP=7.90D-07 MaxDP=4.22D-05 DE=-3.06D-09 OVMax= 1.70D-04

 Cycle  26  Pass 1  IDiag  1:
 RMSU=  5.46D-07    CP:  1.00D+00  2.94D+00  2.43D+00 -1.18D+00 -3.00D+00
                    CP:  3.00D+00  3.00D+00  3.00D+00  2.95D+00  3.00D+00
                    CP:  3.00D+00  3.00D+00  2.15D+00
 E= -225.853016202493     Delta-E=       -0.000000003568 Rises=F Damp=F
 DIIS: error= 2.35D-06 at cycle  14 NSaved=   8.
 NSaved= 8 IEnMin= 1 EnMin= -225.853016208077     IErMin= 8 ErrMin= 2.35D-06
 ErrMax= 2.35D-06  0.00D+00 EMaxC= 1.00D-01 BMatC= 2.53D-10 BMatP= 3.38D-10
 IDIUse=1 WtCom= 1.00D+00 WtEn= 0.00D+00
 Coeff-Com:  0.148D+00-0.185D+00-0.641D-01 0.133D+01-0.324D+00-0.361D+01
 Coeff-Com:  0.553D+00 0.316D+01
 Coeff:      0.148D+00-0.185D+00-0.641D-01 0.133D+01-0.324D+00-0.361D+01
 Coeff:      0.553D+00 0.316D+01
 Gap=     0.329 Goal=   None    Shift=    0.000
 Gap=     0.343 Goal=   None    Shift=    0.000
 RMSDP=2.26D-06 MaxDP=1.20D-04 DE=-3.57D-09 OVMax= 4.86D-04

 Cycle  27  Pass 1  IDiag  1:
 RMSU=  1.16D-06    CP:  1.00D+00  3.00D+00  2.69D+00 -3.70D-01 -3.00D+00
                    CP:  3.00D+00  3.00D+00  3.00D+00  3.00D+00  3.00D+00
                    CP:  3.00D+00  3.00D+00  3.00D+00  3.00D+00
 E= -225.853016208898     Delta-E=       -0.000000006404 Rises=F Damp=F
 DIIS: error= 7.73D-07 at cycle  15 NSaved=   9.
 NSaved= 9 IEnMin= 9 EnMin= -225.853016208898     IErMin= 9 ErrMin= 7.73D-07
 ErrMax= 7.73D-07  0.00D+00 EMaxC= 1.00D-01 BMatC= 7.45D-11 BMatP= 2.53D-10
 IDIUse=1 WtCom= 1.00D+00 WtEn= 0.00D+00
 Coeff-Com: -0.209D+00 0.214D+00 0.129D+00-0.157D+01 0.381D+00 0.480D+01
 Coeff-Com: -0.161D+01-0.364D+01 0.251D+01
 Coeff:     -0.209D+00 0.214D+00 0.129D+00-0.157D+01 0.381D+00 0.480D+01
 Coeff:     -0.161D+01-0.364D+01 0.251D+01
 Gap=     0.329 Goal=   None    Shift=    0.000
 Gap=     0.343 Goal=   None    Shift=    0.000
 RMSDP=8.04D-07 MaxDP=4.08D-05 DE=-6.40D-09 OVMax= 1.66D-04

 Cycle  28  Pass 1  IDiag  1:
 RMSU=  2.46D-07    CP:  1.00D+00  2.99D+00  2.69D+00 -1.50D-01 -3.00D+00
                    CP:  3.00D+00  3.00D+00  3.00D+00  3.00D+00  3.00D+00
                    CP:  3.00D+00  3.00D+00  3.00D+00  3.00D+00  1.64D+00
 E= -225.853016209865     Delta-E=       -0.000000000968 Rises=F Damp=F
 DIIS: error= 4.15D-07 at cycle  16 NSaved=  10.
 NSaved=10 IEnMin=10 EnMin= -225.853016209865     IErMin=10 ErrMin= 4.15D-07
 ErrMax= 4.15D-07  0.00D+00 EMaxC= 1.00D-01 BMatC= 4.26D-11 BMatP= 7.45D-11
 IDIUse=1 WtCom= 1.00D+00 WtEn= 0.00D+00
 Coeff-Com: -0.218D-01 0.200D-01 0.198D-01-0.193D+00 0.110D-01 0.683D+00
 Coeff-Com: -0.217D+00-0.485D+00 0.158D+00 0.102D+01
 Coeff:     -0.218D-01 0.200D-01 0.198D-01-0.193D+00 0.110D-01 0.683D+00
 Coeff:     -0.217D+00-0.485D+00 0.158D+00 0.102D+01
 Gap=     0.329 Goal=   None    Shift=    0.000
 Gap=     0.343 Goal=   None    Shift=    0.000
 RMSDP=9.30D-08 MaxDP=3.69D-06 DE=-9.68D-10 OVMax= 1.55D-05

 Cycle  29  Pass 1  IDiag  1:
 RMSU=  3.67D-08    CP:  1.00D+00  2.98D+00  2.69D+00 -1.28D-01 -3.00D+00
                    CP:  3.00D+00  3.00D+00  3.00D+00  3.00D+00  3.00D+00
                    CP:  3.00D+00  3.00D+00  3.00D+00  3.00D+00  1.71D+00
                    CP:  1.15D+00
 E= -225.853016209972     Delta-E=       -0.000000000106 Rises=F Damp=F
 DIIS: error= 4.22D-07 at cycle  17 NSaved=  11.
 NSaved=11 IEnMin=11 EnMin= -225.853016209972     IErMin=10 ErrMin= 4.15D-07
 ErrMax= 4.22D-07  0.00D+00 EMaxC= 1.00D-01 BMatC= 4.28D-11 BMatP= 4.26D-11
 IDIUse=1 WtCom= 1.00D+00 WtEn= 0.00D+00
 Coeff-Com: -0.323D-01 0.313D-01 0.292D-01-0.306D+00 0.563D-02 0.111D+01
 Coeff-Com: -0.333D+00-0.789D+00 0.173D+00 0.212D+01-0.100D+01
 Coeff:     -0.323D-01 0.313D-01 0.292D-01-0.306D+00 0.563D-02 0.111D+01
 Coeff:     -0.333D+00-0.789D+00 0.173D+00 0.212D+01-0.100D+01
 Gap=     0.329 Goal=   None    Shift=    0.000
 Gap=     0.343 Goal=   None    Shift=    0.000
 RMSDP=3.64D-08 MaxDP=1.80D-06 DE=-1.06D-10 OVMax= 3.44D-06

 Cycle  30  Pass 1  IDiag  1:
 RMSU=  9.78D-09    CP:  1.00D+00  2.98D+00  2.69D+00 -1.28D-01 -3.00D+00
                    CP:  3.00D+00  3.00D+00  3.00D+00  3.00D+00  3.00D+00
                    CP:  3.00D+00  3.00D+00  3.00D+00  3.00D+00  1.70D+00
                    CP:  1.11D+00  1.06D-01
 E= -225.853016209922     Delta-E=        0.000000000049 Rises=F Damp=F
 DIIS: error= 4.18D-07 at cycle  18 NSaved=  12.
 NSaved=12 IEnMin=11 EnMin= -225.853016209972     IErMin=10 ErrMin= 4.15D-07
 ErrMax= 4.18D-07  0.00D+00 EMaxC= 1.00D-01 BMatC= 4.17D-11 BMatP= 4.26D-11
 IDIUse=1 WtCom= 1.00D+00 WtEn= 0.00D+00
 Coeff-Com:  0.567D-01-0.678D-01-0.183D-01 0.412D+00-0.122D+00-0.119D+01
 Coeff-Com:  0.379D+00 0.943D+00-0.763D+00 0.798D+00-0.781D+01 0.838D+01
 Coeff:      0.567D-01-0.678D-01-0.183D-01 0.412D+00-0.122D+00-0.119D+01
 Coeff:      0.379D+00 0.943D+00-0.763D+00 0.798D+00-0.781D+01 0.838D+01
 Gap=     0.329 Goal=   None    Shift=    0.000
 Gap=     0.343 Goal=   None    Shift=    0.000
 RMSDP=2.36D-07 MaxDP=1.14D-05 DE= 4.93D-11 OVMax= 2.16D-05

 Cycle  31  Pass 1  IDiag  1:
 RMSU=  1.18D-07    CP:  1.00D+00  2.98D+00  2.68D+00 -1.20D-01 -3.00D+00
                    CP:  3.00D+00  3.00D+00  3.00D+00  3.00D+00  3.00D+00
                    CP:  3.00D+00  3.00D+00  3.00D+00  3.00D+00  1.69D+00
                    CP:  8.74D-01 -3.00D+00  3.00D+00
 E= -225.853016209606     Delta-E=        0.000000000316 Rises=F Damp=F
 DIIS: error= 3.85D-07 at cycle  19 NSaved=  13.
 NSaved=13 IEnMin=11 EnMin= -225.853016209972     IErMin=13 ErrMin= 3.85D-07
 ErrMax= 3.85D-07  0.00D+00 EMaxC= 1.00D-01 BMatC= 3.50D-11 BMatP= 4.17D-11
 IDIUse=1 WtCom= 1.00D+00 WtEn= 0.00D+00
 Coeff-Com:  0.111D+00-0.131D+00-0.580D-01 0.986D+00-0.937D-01-0.340D+01
 Coeff-Com:  0.101D+01 0.253D+01-0.104D+01-0.392D+01-0.353D+01 0.612D+01
 Coeff-Com:  0.242D+01
 Coeff:      0.111D+00-0.131D+00-0.580D-01 0.986D+00-0.937D-01-0.340D+01
 Coeff:      0.101D+01 0.253D+01-0.104D+01-0.392D+01-0.353D+01 0.612D+01
 Coeff:      0.242D+01
 Gap=     0.329 Goal=   None    Shift=    0.000
 Gap=     0.343 Goal=   None    Shift=    0.000
 RMSDP=4.38D-07 MaxDP=2.00D-05 DE= 3.16D-10 OVMax= 3.79D-05

 Cycle  32  Pass 1  IDiag  1:
 RMSU=  1.98D-07    CP:  1.00D+00  2.98D+00  2.67D+00 -1.16D-01 -3.00D+00
                    CP:  3.00D+00  3.00D+00  3.00D+00  3.00D+00  3.00D+00
                    CP:  3.00D+00  3.00D+00  3.00D+00  3.00D+00  1.68D+00
                    CP:  4.88D-01 -3.00D+00  3.00D+00  3.00D+00
 E= -225.853016209183     Delta-E=        0.000000000424 Rises=F Damp=F
 DIIS: error= 3.28D-07 at cycle  20 NSaved=  14.
 NSaved=14 IEnMin=11 EnMin= -225.853016209972     IErMin=14 ErrMin= 3.28D-07
 ErrMax= 3.28D-07  0.00D+00 EMaxC= 1.00D-01 BMatC= 2.86D-11 BMatP= 3.50D-11
 IDIUse=1 WtCom= 1.00D+00 WtEn= 0.00D+00
 Coeff-Com:  0.458D-01-0.550D-01-0.238D-01 0.420D+00-0.256D-01-0.149D+01
 Coeff-Com:  0.443D+00 0.110D+01-0.434D+00-0.178D+01-0.126D+01 0.237D+01
 Coeff-Com:  0.109D+01 0.594D+00
 Coeff:      0.458D-01-0.550D-01-0.238D-01 0.420D+00-0.256D-01-0.149D+01
 Coeff:      0.443D+00 0.110D+01-0.434D+00-0.178D+01-0.126D+01 0.237D+01
 Coeff:      0.109D+01 0.594D+00
 Gap=     0.329 Goal=   None    Shift=    0.000
 Gap=     0.343 Goal=   None    Shift=    0.000
 RMSDP=2.71D-08 MaxDP=9.49D-07 DE= 4.24D-10 OVMax= 2.80D-06

 Cycle  33  Pass 1  IDiag  1:
 Restarting incremental Fock formation.
 E= -225.853016209198     Delta-E=       -0.000000000016 Rises=F Damp=F
 DIIS: error= 3.28D-07 at cycle  21 NSaved=  15.
 NSaved=15 IEnMin=11 EnMin= -225.853016209972     IErMin=14 ErrMin= 3.28D-07
 ErrMax= 3.28D-07  0.00D+00 EMaxC= 1.00D-01 BMatC= 2.92D-11 BMatP= 2.86D-11
 IDIUse=1 WtCom= 1.00D+00 WtEn= 0.00D+00
 Coeff-Com:  0.621D-01-0.765D-01-0.320D-01 0.597D+00-0.160D-01-0.218D+01
 Coeff-Com:  0.630D+00 0.160D+01-0.535D+00-0.303D+01-0.543D+00 0.214D+01
 Coeff-Com:  0.189D+01 0.333D+01-0.284D+01
 Coeff:      0.621D-01-0.765D-01-0.320D-01 0.597D+00-0.160D-01-0.218D+01
 Coeff:      0.630D+00 0.160D+01-0.535D+00-0.303D+01-0.543D+00 0.214D+01
 Coeff:      0.189D+01 0.333D+01-0.284D+01
 Gap=     0.329 Goal=   None    Shift=    0.000
 Gap=     0.343 Goal=   None    Shift=    0.000
 RMSDP=8.46D-08 MaxDP=4.53D-06 DE=-1.59D-11 OVMax= 8.64D-06

 Cycle  34  Pass 1  IDiag  1:
 RMSU=  8.45D-08    CP:  1.00D+00
 E= -225.853016209089     Delta-E=        0.000000000110 Rises=F Damp=F
 DIIS: error= 3.16D-07 at cycle  22 NSaved=  16.
 NSaved=16 IEnMin=11 EnMin= -225.853016209972     IErMin=16 ErrMin= 3.16D-07
 ErrMax= 3.16D-07  0.00D+00 EMaxC= 1.00D-01 BMatC= 2.69D-11 BMatP= 2.86D-11
 IDIUse=1 WtCom= 1.00D+00 WtEn= 0.00D+00
 Large coefficients: NSaved= 16 BigCof=    0.00 CofMax=   10.00 Det=-5.64D-15
 Inversion failed.  Reducing to 15 matrices.
 Coeff-Com:  0.725D-02 0.812D-02-0.197D-01-0.536D-01 0.148D+00 0.285D-01
 Coeff-Com: -0.125D+00-0.287D+00 0.299D+01 0.478D+01-0.642D+01-0.226D+01
 Coeff-Com:  0.241D+01-0.715D+01 0.695D+01
 Coeff:      0.725D-02 0.812D-02-0.197D-01-0.536D-01 0.148D+00 0.285D-01
 Coeff:     -0.125D+00-0.287D+00 0.299D+01 0.478D+01-0.642D+01-0.226D+01
 Coeff:      0.241D+01-0.715D+01 0.695D+01
 Gap=     0.329 Goal=   None    Shift=    0.000
 Gap=     0.343 Goal=   None    Shift=    0.000
 RMSDP=5.31D-07 MaxDP=2.99D-05 DE= 1.10D-10 OVMax= 5.69D-05

 Cycle  35  Pass 1  IDiag  1:
 RMSU=  3.67D-07    CP:  1.00D+00  3.00D+00
 E= -225.853016208524     Delta-E=        0.000000000565 Rises=F Damp=F
 DIIS: error= 2.33D-07 at cycle  23 NSaved=  16.
 NSaved=16 IEnMin=10 EnMin= -225.853016209972     IErMin=16 ErrMin= 2.33D-07
 ErrMax= 2.33D-07  0.00D+00 EMaxC= 1.00D-01 BMatC= 1.55D-11 BMatP= 2.69D-11
 IDIUse=1 WtCom= 1.00D+00 WtEn= 0.00D+00
 Large coefficients: NSaved= 16 BigCof=   12.99 CofMax=   10.00 Det=-2.65D-14
 Inversion failed.  Reducing to 15 matrices.
 Large coefficients: NSaved= 15 BigCof=   12.69 CofMax=   10.00 Det=-2.80D-14
 Inversion failed.  Reducing to 14 matrices.
 Large coefficients: NSaved= 14 BigCof=   12.70 CofMax=   10.00 Det=-2.85D-14
 Inversion failed.  Reducing to 13 matrices.
 Large coefficients: NSaved= 13 BigCof=   12.70 CofMax=   10.00 Det=-2.88D-14
 Inversion failed.  Reducing to 12 matrices.
 Large coefficients: NSaved= 12 BigCof=   12.70 CofMax=   10.00 Det=-2.88D-14
 Inversion failed.  Reducing to 11 matrices.
 Large coefficients: NSaved= 11 BigCof=   12.60 CofMax=   10.00 Det=-2.89D-14
 Inversion failed.  Reducing to 10 matrices.
 Large coefficients: NSaved= 10 BigCof=   12.59 CofMax=   10.00 Det=-2.89D-14
 Inversion failed.  Reducing to  9 matrices.
 Large coefficients: NSaved=  9 BigCof=   12.59 CofMax=   10.00 Det=-2.89D-14
 Inversion failed.  Reducing to  8 matrices.
 Large coefficients: NSaved=  8 BigCof=   12.66 CofMax=   10.00 Det=-2.93D-14
 Inversion failed.  Reducing to  7 matrices.
 Coeff-Com:  0.554D+00 0.153D+01-0.206D+01-0.217D+00-0.282D+00-0.113D+01
 Coeff-Com:  0.261D+01
 Coeff:      0.554D+00 0.153D+01-0.206D+01-0.217D+00-0.282D+00-0.113D+01
 Coeff:      0.261D+01
 Gap=     0.329 Goal=   None    Shift=    0.000
 Gap=     0.343 Goal=   None    Shift=    0.000
 RMSDP=9.06D-07 MaxDP=5.13D-05 DE= 5.65D-10 OVMax= 9.76D-05

 Cycle  36  Pass 1  IDiag  1:
 RMSU=  1.84D-07    CP:  1.00D+00  3.00D+00  3.00D+00
 E= -225.853016207967     Delta-E=        0.000000000557 Rises=F Damp=F
 DIIS: error= 1.14D-07 at cycle  24 NSaved=   8.
 NSaved= 8 IEnMin= 2 EnMin= -225.853016209972     IErMin= 8 ErrMin= 1.14D-07
 ErrMax= 1.14D-07  0.00D+00 EMaxC= 1.00D-01 BMatC= 3.69D-12 BMatP= 1.55D-11
 IDIUse=1 WtCom= 1.00D+00 WtEn= 0.00D+00
 Coeff-Com: -0.436D+00-0.641D+00 0.103D+01 0.205D+00 0.345D+01-0.416D+01
 Coeff-Com: -0.427D-01 0.160D+01
 Coeff:     -0.436D+00-0.641D+00 0.103D+01 0.205D+00 0.345D+01-0.416D+01
 Coeff:     -0.427D-01 0.160D+01
 Gap=     0.329 Goal=   None    Shift=    0.000
 Gap=     0.343 Goal=   None    Shift=    0.000
 RMSDP=5.12D-07 MaxDP=2.90D-05 DE= 5.57D-10 OVMax= 5.49D-05

 Cycle  37  Pass 1  IDiag  1:
 RMSU=  2.27D-07    CP:  1.00D+00  3.00D+00  3.00D+00  3.00D+00
 E= -225.853016207882     Delta-E=        0.000000000085 Rises=F Damp=F
 DIIS: error= 4.53D-08 at cycle  25 NSaved=   9.
 NSaved= 9 IEnMin= 2 EnMin= -225.853016209972     IErMin= 9 ErrMin= 4.53D-08
 ErrMax= 4.53D-08  0.00D+00 EMaxC= 1.00D-01 BMatC= 3.11D-13 BMatP= 3.69D-12
 IDIUse=1 WtCom= 1.00D+00 WtEn= 0.00D+00
 Coeff-Com:  0.130D-01-0.264D+00 0.260D+00 0.200D-01 0.301D+00-0.325D+00
 Coeff-Com: -0.808D-01 0.104D+00 0.971D+00
 Coeff:      0.130D-01-0.264D+00 0.260D+00 0.200D-01 0.301D+00-0.325D+00
 Coeff:     -0.808D-01 0.104D+00 0.971D+00
 Gap=     0.329 Goal=   None    Shift=    0.000
 Gap=     0.343 Goal=   None    Shift=    0.000
 RMSDP=2.17D-08 MaxDP=1.16D-06 DE= 8.47D-11 OVMax= 2.18D-06

 Cycle  38  Pass 1  IDiag  1:
 RMSU=  1.71D-08    CP:  1.00D+00  3.00D+00  3.00D+00  3.00D+00  1.06D+00
 E= -225.853016207881     Delta-E=        0.000000000001 Rises=F Damp=F
 DIIS: error= 2.75D-08 at cycle  26 NSaved=  10.
 NSaved=10 IEnMin= 2 EnMin= -225.853016209972     IErMin=10 ErrMin= 2.75D-08
 ErrMax= 2.75D-08  0.00D+00 EMaxC= 1.00D-01 BMatC= 2.54D-13 BMatP= 3.11D-13
 IDIUse=1 WtCom= 1.00D+00 WtEn= 0.00D+00
 Coeff-Com:  0.407D-01 0.175D+00-0.230D+00-0.199D-01-0.982D+00 0.115D+01
 Coeff-Com:  0.446D-01-0.443D+00 0.835D-01 0.118D+01
 Coeff:      0.407D-01 0.175D+00-0.230D+00-0.199D-01-0.982D+00 0.115D+01
 Coeff:      0.446D-01-0.443D+00 0.835D-01 0.118D+01
 Gap=     0.329 Goal=   None    Shift=    0.000
 Gap=     0.343 Goal=   None    Shift=    0.000
 RMSDP=1.00D-08 MaxDP=3.21D-07 DE= 9.66D-13 OVMax= 1.26D-06

 Cycle  39  Pass 1  IDiag  1:
 RMSU=  8.30D-09    CP:  1.00D+00  3.00D+00  3.00D+00  3.00D+00  1.08D+00
                    CP:  1.07D+00
 E= -225.853016207887     Delta-E=       -0.000000000006 Rises=F Damp=F
 DIIS: error= 2.54D-08 at cycle  27 NSaved=  11.
 NSaved=11 IEnMin= 2 EnMin= -225.853016209972     IErMin=11 ErrMin= 2.54D-08
 ErrMax= 2.54D-08  0.00D+00 EMaxC= 1.00D-01 BMatC= 2.45D-13 BMatP= 2.54D-13
 IDIUse=1 WtCom= 1.00D+00 WtEn= 0.00D+00
 Coeff-Com:  0.591D-01 0.297D+00-0.381D+00-0.312D-01-0.155D+01 0.182D+01
 Coeff-Com:  0.655D-01-0.694D+00 0.597D-01 0.195D+01-0.588D+00
 Coeff:      0.591D-01 0.297D+00-0.381D+00-0.312D-01-0.155D+01 0.182D+01
 Coeff:      0.655D-01-0.694D+00 0.597D-01 0.195D+01-0.588D+00
 Gap=     0.329 Goal=   None    Shift=    0.000
 Gap=     0.343 Goal=   None    Shift=    0.000
 RMSDP=2.57D-09 MaxDP=1.06D-07 DE=-5.51D-12 OVMax= 1.36D-07

 SCF Done:  E(UHF) =  -225.853016208     A.U. after   39 cycles
            NFock= 39  Conv=0.26D-08     -V/T= 2.0015
 <Sx>= 0.0000 <Sy>= 0.0000 <Sz>= 1.0000 <S**2>= 2.0155 S= 1.0052
 <L.S>= 0.000000000000E+00
 KE= 2.255047505878D+02 PE=-7.902143976987D+02 EE= 1.982164204268D+02
 Annihilation of the first spin contaminant:
 S**2 before annihilation     2.0155,   after     2.0001
 Leave Link  502 at Mon Jun 20 18:07:45 2016, MaxMem=    33554432 cpu:      1963.8
 (Enter /home/proyectos/fulerenos/M3C-v1.9/M3C-deps_CCC/g09-AM64L-G09RevC.01/l801.exe)
 Windowed orbitals will be sorted by symmetry type.
 ExpMin= 4.38D-02 ExpMax= 4.56D+03 ExpMxC= 6.82D+02 IAcc=3 IRadAn=         5 AccDes= 0.00D+00
 HarFok:  IExCor=  205 AccDes= 0.00D+00 IRadAn=         5 IDoV=-2 UseB2=F ITyADJ=14
 ICtDFT= 12500011 ScaDFX=  1.000000  1.000000  1.000000  1.000000
 Largest valence mixing into a core orbital is  1.72D-04
 Largest core mixing into a valence orbital is  6.27D-05
 Largest valence mixing into a core orbital is  1.74D-04
 Largest core mixing into a valence orbital is  6.14D-05
 Range of M.O.s used for correlation:     7   234
 NBasis=   234 NAE=    18 NBE=    16 NFC=     6 NFV=     0
 NROrb=    228 NOA=    12 NOB=    10 NVA=   216 NVB=   218

 **** Warning!!: The largest alpha MO coefficient is  0.20992210D+03


 **** Warning!!: The largest beta MO coefficient is  0.21057985D+03

 Leave Link  801 at Mon Jun 20 18:09:17 2016, MaxMem=    33554432 cpu:       166.6
 (Enter /home/proyectos/fulerenos/M3C-v1.9/M3C-deps_CCC/g09-AM64L-G09RevC.01/l804.exe)
 Open-shell transformation, MDV=    33554432 ITran=4 ISComp=1.
 Semi-Direct transformation.
 ModeAB=           4 MOrb=            12 LenV=      31975846
 LASXX=     68610507 LTotXX=    68610507 LenRXX=   138313527
 LTotAB=    69703020 MaxLAS=    99497376 LenRXY=           0
 NonZer=   206924034 LenScr=   314293248 LnRSAI=    99497376
 LnScr1=   152369152 LExtra=           0 Total=    704473303
 MaxDsk=          -1 SrtSym=           T ITran=            4
 DoSDTr:  NPSUse=  4
 JobTyp=1 Pass  1:  I=   1 to  12.
 Complete sort for first half transformation.
 First half transformation complete.
 Begin second half transformation for I=  10.
 Complete sort for second half transformation.
 Second half transformation complete.
 ModeAB=           4 MOrb=            10 LenV=      31975846
 LASXX=     57479460 LTotXX=    57479460 LenRXX=   109858920
 LTotAB=    52379460 MaxLAS=    82914480 LenRXY=           0
 NonZer=   167338380 LenScr=   254140416 LnRSAI=    82914480
 LnScr1=   126686208 LExtra=           0 Total=    573600024
 MaxDsk=          -1 SrtSym=           T ITran=            4
 DoSDTr:  NPSUse=  4
 JobTyp=2 Pass  1:  I=   1 to  10.
 Complete sort for first half transformation.
 First half transformation complete.
 Begin second half transformation for I=  10.
 Complete sort for second half transformation.
 Second half transformation complete.
 SymMOI:  orbitals are not symmetric.
 Spin components of T(2) and E(2):
     alpha-alpha T2 =       0.4314701799D-01 E2=     -0.1031369174D+00
     alpha-beta  T2 =       0.2094522819D+00 E2=     -0.5330734485D+00
     beta-beta   T2 =       0.2923820315D-01 E2=     -0.7287106932D-01
 ANorm=    0.1132182628D+01
 E2 =    -0.7090814352D+00 EUMP2 =    -0.22656209764308D+03
 (S**2,0)=  0.20155D+01           (S**2,1)=  0.20040D+01
 E(PUHF)=      -0.22585574041D+03        E(PMP2)=      -0.22656381166D+03
 Leave Link  804 at Mon Jun 20 18:26:18 2016, MaxMem=    33554432 cpu:      3250.7
 (Enter /home/proyectos/fulerenos/M3C-v1.9/M3C-deps_CCC/g09-AM64L-G09RevC.01/l913.exe)
 CIDS:  MDV=    33554432.
 Frozen-core window:  NFC=   6 NFV=   0.
 IFCWin=0 IBDFC=1 NFBD=     0     0 NFCmp=     0     0 NFFFC=     0     0
 Using original routines for 1st iteration, S=T.
 Using DD4UQ or CC4UQ for 2nd and later iterations.
 Would need an additional       732401483 words for in-memory AO integral storage.
 CCSD(T)
 =======
 Iterations=  50 Convergence= 0.100D-06
 Iteration Nr.   1
 **********************
 DD1Dir will call FoFJK   7 times, MxPair=        52
 NAB=   120 NAA=    66 NBB=    45 NumPrc=  4.
 DD1Dir:  Pass   1 NRAB=    26 NRAA=     0 NRBB=     0 NR=    52.
 FoFJK:  IHMeth= 1 ICntrl=     200 DoSepK=F KAlg= 0 I1Cent=   0 FoldK=F
 IRaf= 990000000 NMat=  52 IRICut=      65 DoRegI=T DoRafI=T ISym2E= 2.
 FoFCou: FMM=F IPFlag=           0 FMFlag=      100000 FMFlg1=           0
         NFxFlg=           0 DoJE=F BraDBF=F KetDBF=F FulRan=T
         wScrn=  0.000000 ICntrl=     200 IOpCl=  0 I1Cent=           0 NGrid=           0
         NMat0=   52 NMatS0=      0 NMatT0=   26 NMatD0=   52 NMtDS0=    0 NMtDT0=    0
 Integrals replicated using symmetry in FoFCou.
 DD1Dir:  Pass   2 NRAB=    26 NRAA=     0 NRBB=     0 NR=    52.
 DD1Dir:  Pass   3 NRAB=    26 NRAA=     0 NRBB=     0 NR=    52.
 DD1Dir:  Pass   4 NRAB=    26 NRAA=     0 NRBB=     0 NR=    52.
 DD1Dir:  Pass   5 NRAB=    16 NRAA=    20 NRBB=     0 NR=    52.
 DD1Dir:  Pass   6 NRAB=     0 NRAA=    46 NRBB=     6 NR=    52.
 DD1Dir:  Pass   7 NRAB=     0 NRAA=     0 NRBB=    39 NR=    39.
 E(PMP3)=      -0.22659455899D+03
 MP4(R+Q)=  0.30379007D-01
 Maximum subspace dimension=  5
 Norm of the A-vectors is  1.3030635D+00 conv= 1.00D-05.
 RLE energy=       -0.7097245573
 E3=       -0.31191082D-01        EUMP3=      -0.22659328873D+03
 E4(DQ)=    0.50016421D-02        UMP4(DQ)=   -0.22658828708D+03
 E4(SDQ)=  -0.11979153D-01        UMP4(SDQ)=  -0.22660526788D+03
 VARIATIONAL ENERGIES WITH THE FIRST-ORDER WAVEFUNCTION:
 DE(Corr)= -0.70972402     E(Corr)=     -226.56274022    
 NORM(A)=   0.11436401D+01
 Iteration Nr.   2
 **********************
 DD1Dir will call FoFJK   7 times, MxPair=        52
 NAB=   120 NAA=    66 NBB=    45 NumPrc=  4.
 DD1Dir:  Pass   1 NRAB=    26 NRAA=     0 NRBB=     0 NR=    52.
 DD1Dir:  Pass   2 NRAB=    26 NRAA=     0 NRBB=     0 NR=    52.
 DD1Dir:  Pass   3 NRAB=    26 NRAA=     0 NRBB=     0 NR=    52.
 DD1Dir:  Pass   4 NRAB=    26 NRAA=     0 NRBB=     0 NR=    52.
 DD1Dir:  Pass   5 NRAB=    16 NRAA=    20 NRBB=     0 NR=    52.
 DD1Dir:  Pass   6 NRAB=     0 NRAA=    46 NRBB=     6 NR=    52.
 DD1Dir:  Pass   7 NRAB=     0 NRAA=     0 NRBB=    39 NR=    39.
 Norm of the A-vectors is  7.6992986D-01 conv= 1.00D-05.
 RLE energy=       -0.7505426483
 DE(Corr)= -0.74835703     E(CORR)=     -226.60137324     Delta=-3.86D-02
 NORM(A)=   0.11704851D+01
 Iteration Nr.   3
 **********************
 DD1Dir will call FoFJK   7 times, MxPair=        52
 NAB=   120 NAA=    66 NBB=    45 NumPrc=  4.
 DD1Dir:  Pass   1 NRAB=    26 NRAA=     0 NRBB=     0 NR=    52.
 DD1Dir:  Pass   2 NRAB=    26 NRAA=     0 NRBB=     0 NR=    52.
 DD1Dir:  Pass   3 NRAB=    26 NRAA=     0 NRBB=     0 NR=    52.
 DD1Dir:  Pass   4 NRAB=    26 NRAA=     0 NRBB=     0 NR=    52.
 DD1Dir:  Pass   5 NRAB=    16 NRAA=    20 NRBB=     0 NR=    52.
 DD1Dir:  Pass   6 NRAB=     0 NRAA=    46 NRBB=     6 NR=    52.
 DD1Dir:  Pass   7 NRAB=     0 NRAA=     0 NRBB=    39 NR=    39.
 Norm of the A-vectors is  2.7821584D-01 conv= 1.00D-05.
 RLE energy=       -0.7570355020
 DE(Corr)= -0.74813556     E(CORR)=     -226.60115176     Delta= 2.21D-04
 NORM(A)=   0.11894964D+01
 Iteration Nr.   4
 **********************
 DD1Dir will call FoFJK   7 times, MxPair=        52
 NAB=   120 NAA=    66 NBB=    45 NumPrc=  4.
 DD1Dir:  Pass   1 NRAB=    26 NRAA=     0 NRBB=     0 NR=    52.
 DD1Dir:  Pass   2 NRAB=    26 NRAA=     0 NRBB=     0 NR=    52.
 DD1Dir:  Pass   3 NRAB=    26 NRAA=     0 NRBB=     0 NR=    52.
 DD1Dir:  Pass   4 NRAB=    26 NRAA=     0 NRBB=     0 NR=    52.
 DD1Dir:  Pass   5 NRAB=    16 NRAA=    20 NRBB=     0 NR=    52.
 DD1Dir:  Pass   6 NRAB=     0 NRAA=    46 NRBB=     6 NR=    52.
 DD1Dir:  Pass   7 NRAB=     0 NRAA=     0 NRBB=    39 NR=    39.
 Norm of the A-vectors is  2.0304918D-01 conv= 1.00D-05.
 RLE energy=       -0.7589312711
 DE(Corr)= -0.75688766     E(CORR)=     -226.60990387     Delta=-8.75D-03
 NORM(A)=   0.12030053D+01
 Iteration Nr.   5
 **********************
 DD1Dir will call FoFJK   7 times, MxPair=        52
 NAB=   120 NAA=    66 NBB=    45 NumPrc=  4.
 DD1Dir:  Pass   1 NRAB=    26 NRAA=     0 NRBB=     0 NR=    52.
 DD1Dir:  Pass   2 NRAB=    26 NRAA=     0 NRBB=     0 NR=    52.
 DD1Dir:  Pass   3 NRAB=    26 NRAA=     0 NRBB=     0 NR=    52.
 DD1Dir:  Pass   4 NRAB=    26 NRAA=     0 NRBB=     0 NR=    52.
 DD1Dir:  Pass   5 NRAB=    16 NRAA=    20 NRBB=     0 NR=    52.
 DD1Dir:  Pass   6 NRAB=     0 NRAA=    46 NRBB=     6 NR=    52.
 DD1Dir:  Pass   7 NRAB=     0 NRAA=     0 NRBB=    39 NR=    39.
 Norm of the A-vectors is  1.0848340D-01 conv= 1.00D-05.
 RLE energy=       -0.7612030624
 DE(Corr)= -0.75952466     E(CORR)=     -226.61254087     Delta=-2.64D-03
 NORM(A)=   0.12172661D+01
 Iteration Nr.   6
 **********************
 DD1Dir will call FoFJK   7 times, MxPair=        52
 NAB=   120 NAA=    66 NBB=    45 NumPrc=  4.
 DD1Dir:  Pass   1 NRAB=    26 NRAA=     0 NRBB=     0 NR=    52.
 DD1Dir:  Pass   2 NRAB=    26 NRAA=     0 NRBB=     0 NR=    52.
 DD1Dir:  Pass   3 NRAB=    26 NRAA=     0 NRBB=     0 NR=    52.
 DD1Dir:  Pass   4 NRAB=    26 NRAA=     0 NRBB=     0 NR=    52.
 DD1Dir:  Pass   5 NRAB=    16 NRAA=    20 NRBB=     0 NR=    52.
 DD1Dir:  Pass   6 NRAB=     0 NRAA=    46 NRBB=     6 NR=    52.
 DD1Dir:  Pass   7 NRAB=     0 NRAA=     0 NRBB=    39 NR=    39.
 Norm of the A-vectors is  8.2071006D-02 conv= 1.00D-05.
 RLE energy=       -0.7614094287
 DE(Corr)= -0.76084456     E(CORR)=     -226.61386077     Delta=-1.32D-03
 NORM(A)=   0.12291438D+01
 Iteration Nr.   7
 **********************
 DD1Dir will call FoFJK   7 times, MxPair=        52
 NAB=   120 NAA=    66 NBB=    45 NumPrc=  4.
 DD1Dir:  Pass   1 NRAB=    26 NRAA=     0 NRBB=     0 NR=    52.
 DD1Dir:  Pass   2 NRAB=    26 NRAA=     0 NRBB=     0 NR=    52.
 DD1Dir:  Pass   3 NRAB=    26 NRAA=     0 NRBB=     0 NR=    52.
 DD1Dir:  Pass   4 NRAB=    26 NRAA=     0 NRBB=     0 NR=    52.
 DD1Dir:  Pass   5 NRAB=    16 NRAA=    20 NRBB=     0 NR=    52.
 DD1Dir:  Pass   6 NRAB=     0 NRAA=    46 NRBB=     6 NR=    52.
 DD1Dir:  Pass   7 NRAB=     0 NRAA=     0 NRBB=    39 NR=    39.
 Norm of the A-vectors is  6.9607388D-02 conv= 1.00D-05.
 RLE energy=       -0.7614244949
 DE(Corr)= -0.76166238     E(CORR)=     -226.61467859     Delta=-8.18D-04
 NORM(A)=   0.12360329D+01
 Iteration Nr.   8
 **********************
 DD1Dir will call FoFJK   7 times, MxPair=        52
 NAB=   120 NAA=    66 NBB=    45 NumPrc=  4.
 DD1Dir:  Pass   1 NRAB=    26 NRAA=     0 NRBB=     0 NR=    52.
 DD1Dir:  Pass   2 NRAB=    26 NRAA=     0 NRBB=     0 NR=    52.
 DD1Dir:  Pass   3 NRAB=    26 NRAA=     0 NRBB=     0 NR=    52.
 DD1Dir:  Pass   4 NRAB=    26 NRAA=     0 NRBB=     0 NR=    52.
 DD1Dir:  Pass   5 NRAB=    16 NRAA=    20 NRBB=     0 NR=    52.
 DD1Dir:  Pass   6 NRAB=     0 NRAA=    46 NRBB=     6 NR=    52.
 DD1Dir:  Pass   7 NRAB=     0 NRAA=     0 NRBB=    39 NR=    39.
 Norm of the A-vectors is  5.2621554D-02 conv= 1.00D-05.
 RLE energy=       -0.7617892929
 DE(Corr)= -0.76178815     E(CORR)=     -226.61480435     Delta=-1.26D-04
 NORM(A)=   0.12423577D+01
 Iteration Nr.   9
 **********************
 DD1Dir will call FoFJK   7 times, MxPair=        52
 NAB=   120 NAA=    66 NBB=    45 NumPrc=  4.
 DD1Dir:  Pass   1 NRAB=    26 NRAA=     0 NRBB=     0 NR=    52.
 DD1Dir:  Pass   2 NRAB=    26 NRAA=     0 NRBB=     0 NR=    52.
 DD1Dir:  Pass   3 NRAB=    26 NRAA=     0 NRBB=     0 NR=    52.
 DD1Dir:  Pass   4 NRAB=    26 NRAA=     0 NRBB=     0 NR=    52.
 DD1Dir:  Pass   5 NRAB=    16 NRAA=    20 NRBB=     0 NR=    52.
 DD1Dir:  Pass   6 NRAB=     0 NRAA=    46 NRBB=     6 NR=    52.
 DD1Dir:  Pass   7 NRAB=     0 NRAA=     0 NRBB=    39 NR=    39.
 Norm of the A-vectors is  5.0464800D-02 conv= 1.00D-05.
 RLE energy=       -0.7621188703
 DE(Corr)= -0.76213458     E(CORR)=     -226.61515078     Delta=-3.46D-04
 NORM(A)=   0.12451073D+01
 Iteration Nr.  10
 **********************
 DD1Dir will call FoFJK   7 times, MxPair=        52
 NAB=   120 NAA=    66 NBB=    45 NumPrc=  4.
 DD1Dir:  Pass   1 NRAB=    26 NRAA=     0 NRBB=     0 NR=    52.
 DD1Dir:  Pass   2 NRAB=    26 NRAA=     0 NRBB=     0 NR=    52.
 DD1Dir:  Pass   3 NRAB=    26 NRAA=     0 NRBB=     0 NR=    52.
 DD1Dir:  Pass   4 NRAB=    26 NRAA=     0 NRBB=     0 NR=    52.
 DD1Dir:  Pass   5 NRAB=    16 NRAA=    20 NRBB=     0 NR=    52.
 DD1Dir:  Pass   6 NRAB=     0 NRAA=    46 NRBB=     6 NR=    52.
 DD1Dir:  Pass   7 NRAB=     0 NRAA=     0 NRBB=    39 NR=    39.
 Norm of the A-vectors is  4.4942754D-02 conv= 1.00D-05.
 RLE energy=       -0.7619815839
 DE(Corr)= -0.76198622     E(CORR)=     -226.61500242     Delta= 1.48D-04
 NORM(A)=   0.12469104D+01
 Iteration Nr.  11
 **********************
 DD1Dir will call FoFJK   7 times, MxPair=        52
 NAB=   120 NAA=    66 NBB=    45 NumPrc=  4.
 DD1Dir:  Pass   1 NRAB=    26 NRAA=     0 NRBB=     0 NR=    52.
 DD1Dir:  Pass   2 NRAB=    26 NRAA=     0 NRBB=     0 NR=    52.
 DD1Dir:  Pass   3 NRAB=    26 NRAA=     0 NRBB=     0 NR=    52.
 DD1Dir:  Pass   4 NRAB=    26 NRAA=     0 NRBB=     0 NR=    52.
 DD1Dir:  Pass   5 NRAB=    16 NRAA=    20 NRBB=     0 NR=    52.
 DD1Dir:  Pass   6 NRAB=     0 NRAA=    46 NRBB=     6 NR=    52.
 DD1Dir:  Pass   7 NRAB=     0 NRAA=     0 NRBB=    39 NR=    39.
 Norm of the A-vectors is  3.6789853D-02 conv= 1.00D-05.
 RLE energy=       -0.7623997192
 DE(Corr)= -0.76237597     E(CORR)=     -226.61539218     Delta=-3.90D-04
 NORM(A)=   0.12478766D+01
 Iteration Nr.  12
 **********************
 DD1Dir will call FoFJK   7 times, MxPair=        52
 NAB=   120 NAA=    66 NBB=    45 NumPrc=  4.
 DD1Dir:  Pass   1 NRAB=    26 NRAA=     0 NRBB=     0 NR=    52.
 DD1Dir:  Pass   2 NRAB=    26 NRAA=     0 NRBB=     0 NR=    52.
 DD1Dir:  Pass   3 NRAB=    26 NRAA=     0 NRBB=     0 NR=    52.
 DD1Dir:  Pass   4 NRAB=    26 NRAA=     0 NRBB=     0 NR=    52.
 DD1Dir:  Pass   5 NRAB=    16 NRAA=    20 NRBB=     0 NR=    52.
 DD1Dir:  Pass   6 NRAB=     0 NRAA=    46 NRBB=     6 NR=    52.
 DD1Dir:  Pass   7 NRAB=     0 NRAA=     0 NRBB=    39 NR=    39.
 Norm of the A-vectors is  1.9881069D-02 conv= 1.00D-05.
 RLE energy=       -0.7623646841
 DE(Corr)= -0.76228294     E(CORR)=     -226.61529915     Delta= 9.30D-05
 NORM(A)=   0.12483815D+01
 Iteration Nr.  13
 **********************
 DD1Dir will call FoFJK   7 times, MxPair=        52
 NAB=   120 NAA=    66 NBB=    45 NumPrc=  4.
 DD1Dir:  Pass   1 NRAB=    26 NRAA=     0 NRBB=     0 NR=    52.
 DD1Dir:  Pass   2 NRAB=    26 NRAA=     0 NRBB=     0 NR=    52.
 DD1Dir:  Pass   3 NRAB=    26 NRAA=     0 NRBB=     0 NR=    52.
 DD1Dir:  Pass   4 NRAB=    26 NRAA=     0 NRBB=     0 NR=    52.
 DD1Dir:  Pass   5 NRAB=    16 NRAA=    20 NRBB=     0 NR=    52.
 DD1Dir:  Pass   6 NRAB=     0 NRAA=    46 NRBB=     6 NR=    52.
 DD1Dir:  Pass   7 NRAB=     0 NRAA=     0 NRBB=    39 NR=    39.
 Norm of the A-vectors is  1.3410541D-02 conv= 1.00D-05.
 RLE energy=       -0.7624742505
 DE(Corr)= -0.76243822     E(CORR)=     -226.61545442     Delta=-1.55D-04
 NORM(A)=   0.12488548D+01
 Iteration Nr.  14
 **********************
 DD1Dir will call FoFJK   7 times, MxPair=        52
 NAB=   120 NAA=    66 NBB=    45 NumPrc=  4.
 DD1Dir:  Pass   1 NRAB=    26 NRAA=     0 NRBB=     0 NR=    52.
 DD1Dir:  Pass   2 NRAB=    26 NRAA=     0 NRBB=     0 NR=    52.
 DD1Dir:  Pass   3 NRAB=    26 NRAA=     0 NRBB=     0 NR=    52.
 DD1Dir:  Pass   4 NRAB=    26 NRAA=     0 NRBB=     0 NR=    52.
 DD1Dir:  Pass   5 NRAB=    16 NRAA=    20 NRBB=     0 NR=    52.
 DD1Dir:  Pass   6 NRAB=     0 NRAA=    46 NRBB=     6 NR=    52.
 DD1Dir:  Pass   7 NRAB=     0 NRAA=     0 NRBB=    39 NR=    39.
 Norm of the A-vectors is  7.2333529D-03 conv= 1.00D-05.
 RLE energy=       -0.7625245332
 DE(Corr)= -0.76247793     E(CORR)=     -226.61549414     Delta=-3.97D-05
 NORM(A)=   0.12493024D+01
 Iteration Nr.  15
 **********************
 DD1Dir will call FoFJK   7 times, MxPair=        52
 NAB=   120 NAA=    66 NBB=    45 NumPrc=  4.
 DD1Dir:  Pass   1 NRAB=    26 NRAA=     0 NRBB=     0 NR=    52.
 DD1Dir:  Pass   2 NRAB=    26 NRAA=     0 NRBB=     0 NR=    52.
 DD1Dir:  Pass   3 NRAB=    26 NRAA=     0 NRBB=     0 NR=    52.
 DD1Dir:  Pass   4 NRAB=    26 NRAA=     0 NRBB=     0 NR=    52.
 DD1Dir:  Pass   5 NRAB=    16 NRAA=    20 NRBB=     0 NR=    52.
 DD1Dir:  Pass   6 NRAB=     0 NRAA=    46 NRBB=     6 NR=    52.
 DD1Dir:  Pass   7 NRAB=     0 NRAA=     0 NRBB=    39 NR=    39.
 Norm of the A-vectors is  4.8882952D-03 conv= 1.00D-05.
 RLE energy=       -0.7625299163
 DE(Corr)= -0.76251460     E(CORR)=     -226.61553081     Delta=-3.67D-05
 NORM(A)=   0.12498569D+01
 Iteration Nr.  16
 **********************
 DD1Dir will call FoFJK   7 times, MxPair=        52
 NAB=   120 NAA=    66 NBB=    45 NumPrc=  4.
 DD1Dir:  Pass   1 NRAB=    26 NRAA=     0 NRBB=     0 NR=    52.
 DD1Dir:  Pass   2 NRAB=    26 NRAA=     0 NRBB=     0 NR=    52.
 DD1Dir:  Pass   3 NRAB=    26 NRAA=     0 NRBB=     0 NR=    52.
 DD1Dir:  Pass   4 NRAB=    26 NRAA=     0 NRBB=     0 NR=    52.
 DD1Dir:  Pass   5 NRAB=    16 NRAA=    20 NRBB=     0 NR=    52.
 DD1Dir:  Pass   6 NRAB=     0 NRAA=    46 NRBB=     6 NR=    52.
 DD1Dir:  Pass   7 NRAB=     0 NRAA=     0 NRBB=    39 NR=    39.
 Norm of the A-vectors is  4.7982085D-03 conv= 1.00D-05.
 RLE energy=       -0.7626113547
 DE(Corr)= -0.76257411     E(CORR)=     -226.61559032     Delta=-5.95D-05
 NORM(A)=   0.12504070D+01
 Iteration Nr.  17
 **********************
 DD1Dir will call FoFJK   7 times, MxPair=        52
 NAB=   120 NAA=    66 NBB=    45 NumPrc=  4.
 DD1Dir:  Pass   1 NRAB=    26 NRAA=     0 NRBB=     0 NR=    52.
 DD1Dir:  Pass   2 NRAB=    26 NRAA=     0 NRBB=     0 NR=    52.
 DD1Dir:  Pass   3 NRAB=    26 NRAA=     0 NRBB=     0 NR=    52.
 DD1Dir:  Pass   4 NRAB=    26 NRAA=     0 NRBB=     0 NR=    52.
 DD1Dir:  Pass   5 NRAB=    16 NRAA=    20 NRBB=     0 NR=    52.
 DD1Dir:  Pass   6 NRAB=     0 NRAA=    46 NRBB=     6 NR=    52.
 DD1Dir:  Pass   7 NRAB=     0 NRAA=     0 NRBB=    39 NR=    39.
 Norm of the A-vectors is  3.8894567D-03 conv= 1.00D-05.
 RLE energy=       -0.7626043359
 DE(Corr)= -0.76257944     E(CORR)=     -226.61559564     Delta=-5.32D-06
 NORM(A)=   0.12508201D+01
 Iteration Nr.  18
 **********************
 DD1Dir will call FoFJK   7 times, MxPair=        52
 NAB=   120 NAA=    66 NBB=    45 NumPrc=  4.
 DD1Dir:  Pass   1 NRAB=    26 NRAA=     0 NRBB=     0 NR=    52.
 DD1Dir:  Pass   2 NRAB=    26 NRAA=     0 NRBB=     0 NR=    52.
 DD1Dir:  Pass   3 NRAB=    26 NRAA=     0 NRBB=     0 NR=    52.
 DD1Dir:  Pass   4 NRAB=    26 NRAA=     0 NRBB=     0 NR=    52.
 DD1Dir:  Pass   5 NRAB=    16 NRAA=    20 NRBB=     0 NR=    52.
 DD1Dir:  Pass   6 NRAB=     0 NRAA=    46 NRBB=     6 NR=    52.
 DD1Dir:  Pass   7 NRAB=     0 NRAA=     0 NRBB=    39 NR=    39.
 Norm of the A-vectors is  2.6054201D-03 conv= 1.00D-05.
 RLE energy=       -0.7626424048
 DE(Corr)= -0.76261903     E(CORR)=     -226.61563524     Delta=-3.96D-05
 NORM(A)=   0.12513234D+01
 Iteration Nr.  19
 **********************
 DD1Dir will call FoFJK   7 times, MxPair=        52
 NAB=   120 NAA=    66 NBB=    45 NumPrc=  4.
 DD1Dir:  Pass   1 NRAB=    26 NRAA=     0 NRBB=     0 NR=    52.
 DD1Dir:  Pass   2 NRAB=    26 NRAA=     0 NRBB=     0 NR=    52.
 DD1Dir:  Pass   3 NRAB=    26 NRAA=     0 NRBB=     0 NR=    52.
 DD1Dir:  Pass   4 NRAB=    26 NRAA=     0 NRBB=     0 NR=    52.
 DD1Dir:  Pass   5 NRAB=    16 NRAA=    20 NRBB=     0 NR=    52.
 DD1Dir:  Pass   6 NRAB=     0 NRAA=    46 NRBB=     6 NR=    52.
 DD1Dir:  Pass   7 NRAB=     0 NRAA=     0 NRBB=    39 NR=    39.
 Norm of the A-vectors is  3.0378960D-03 conv= 1.00D-05.
 RLE energy=       -0.7626445022
 DE(Corr)= -0.76263248     E(CORR)=     -226.61564868     Delta=-1.34D-05
 NORM(A)=   0.12516766D+01
 Iteration Nr.  20
 **********************
 DD1Dir will call FoFJK   7 times, MxPair=        52
 NAB=   120 NAA=    66 NBB=    45 NumPrc=  4.
 DD1Dir:  Pass   1 NRAB=    26 NRAA=     0 NRBB=     0 NR=    52.
 DD1Dir:  Pass   2 NRAB=    26 NRAA=     0 NRBB=     0 NR=    52.
 DD1Dir:  Pass   3 NRAB=    26 NRAA=     0 NRBB=     0 NR=    52.
 DD1Dir:  Pass   4 NRAB=    26 NRAA=     0 NRBB=     0 NR=    52.
 DD1Dir:  Pass   5 NRAB=    16 NRAA=    20 NRBB=     0 NR=    52.
 DD1Dir:  Pass   6 NRAB=     0 NRAA=    46 NRBB=     6 NR=    52.
 DD1Dir:  Pass   7 NRAB=     0 NRAA=     0 NRBB=    39 NR=    39.
 Norm of the A-vectors is  2.8573503D-03 conv= 1.00D-05.
 RLE energy=       -0.7626503159
 DE(Corr)= -0.76265223     E(CORR)=     -226.61566844     Delta=-1.98D-05
 NORM(A)=   0.12518601D+01
 Iteration Nr.  21
 **********************
 DD1Dir will call FoFJK   7 times, MxPair=        52
 NAB=   120 NAA=    66 NBB=    45 NumPrc=  4.
 DD1Dir:  Pass   1 NRAB=    26 NRAA=     0 NRBB=     0 NR=    52.
 DD1Dir:  Pass   2 NRAB=    26 NRAA=     0 NRBB=     0 NR=    52.
 DD1Dir:  Pass   3 NRAB=    26 NRAA=     0 NRBB=     0 NR=    52.
 DD1Dir:  Pass   4 NRAB=    26 NRAA=     0 NRBB=     0 NR=    52.
 DD1Dir:  Pass   5 NRAB=    16 NRAA=    20 NRBB=     0 NR=    52.
 DD1Dir:  Pass   6 NRAB=     0 NRAA=    46 NRBB=     6 NR=    52.
 DD1Dir:  Pass   7 NRAB=     0 NRAA=     0 NRBB=    39 NR=    39.
 Norm of the A-vectors is  1.9198447D-03 conv= 1.00D-05.
 RLE energy=       -0.7626569519
 DE(Corr)= -0.76265531     E(CORR)=     -226.61567152     Delta=-3.08D-06
 NORM(A)=   0.12519633D+01
 Iteration Nr.  22
 **********************
 DD1Dir will call FoFJK   7 times, MxPair=        52
 NAB=   120 NAA=    66 NBB=    45 NumPrc=  4.
 DD1Dir:  Pass   1 NRAB=    26 NRAA=     0 NRBB=     0 NR=    52.
 DD1Dir:  Pass   2 NRAB=    26 NRAA=     0 NRBB=     0 NR=    52.
 DD1Dir:  Pass   3 NRAB=    26 NRAA=     0 NRBB=     0 NR=    52.
 DD1Dir:  Pass   4 NRAB=    26 NRAA=     0 NRBB=     0 NR=    52.
 DD1Dir:  Pass   5 NRAB=    16 NRAA=    20 NRBB=     0 NR=    52.
 DD1Dir:  Pass   6 NRAB=     0 NRAA=    46 NRBB=     6 NR=    52.
 DD1Dir:  Pass   7 NRAB=     0 NRAA=     0 NRBB=    39 NR=    39.
 Norm of the A-vectors is  1.8418824D-03 conv= 1.00D-05.
 RLE energy=       -0.7626504491
 DE(Corr)= -0.76265170     E(CORR)=     -226.61566791     Delta= 3.61D-06
 NORM(A)=   0.12520262D+01
 Iteration Nr.  23
 **********************
 DD1Dir will call FoFJK   7 times, MxPair=        52
 NAB=   120 NAA=    66 NBB=    45 NumPrc=  4.
 DD1Dir:  Pass   1 NRAB=    26 NRAA=     0 NRBB=     0 NR=    52.
 DD1Dir:  Pass   2 NRAB=    26 NRAA=     0 NRBB=     0 NR=    52.
 DD1Dir:  Pass   3 NRAB=    26 NRAA=     0 NRBB=     0 NR=    52.
 DD1Dir:  Pass   4 NRAB=    26 NRAA=     0 NRBB=     0 NR=    52.
 DD1Dir:  Pass   5 NRAB=    16 NRAA=    20 NRBB=     0 NR=    52.
 DD1Dir:  Pass   6 NRAB=     0 NRAA=    46 NRBB=     6 NR=    52.
 DD1Dir:  Pass   7 NRAB=     0 NRAA=     0 NRBB=    39 NR=    39.
 Norm of the A-vectors is  1.2387055D-03 conv= 1.00D-05.
 RLE energy=       -0.7626588127
 DE(Corr)= -0.76265896     E(CORR)=     -226.61567517     Delta=-7.26D-06
 NORM(A)=   0.12520547D+01
 Iteration Nr.  24
 **********************
 DD1Dir will call FoFJK   7 times, MxPair=        52
 NAB=   120 NAA=    66 NBB=    45 NumPrc=  4.
 DD1Dir:  Pass   1 NRAB=    26 NRAA=     0 NRBB=     0 NR=    52.
 DD1Dir:  Pass   2 NRAB=    26 NRAA=     0 NRBB=     0 NR=    52.
 DD1Dir:  Pass   3 NRAB=    26 NRAA=     0 NRBB=     0 NR=    52.
 DD1Dir:  Pass   4 NRAB=    26 NRAA=     0 NRBB=     0 NR=    52.
 DD1Dir:  Pass   5 NRAB=    16 NRAA=    20 NRBB=     0 NR=    52.
 DD1Dir:  Pass   6 NRAB=     0 NRAA=    46 NRBB=     6 NR=    52.
 DD1Dir:  Pass   7 NRAB=     0 NRAA=     0 NRBB=    39 NR=    39.
 Norm of the A-vectors is  6.8113159D-04 conv= 1.00D-05.
 RLE energy=       -0.7626580232
 DE(Corr)= -0.76265555     E(CORR)=     -226.61567176     Delta= 3.41D-06
 NORM(A)=   0.12520890D+01
 Iteration Nr.  25
 **********************
 DD1Dir will call FoFJK   7 times, MxPair=        52
 NAB=   120 NAA=    66 NBB=    45 NumPrc=  4.
 DD1Dir:  Pass   1 NRAB=    26 NRAA=     0 NRBB=     0 NR=    52.
 DD1Dir:  Pass   2 NRAB=    26 NRAA=     0 NRBB=     0 NR=    52.
 DD1Dir:  Pass   3 NRAB=    26 NRAA=     0 NRBB=     0 NR=    52.
 DD1Dir:  Pass   4 NRAB=    26 NRAA=     0 NRBB=     0 NR=    52.
 DD1Dir:  Pass   5 NRAB=    16 NRAA=    20 NRBB=     0 NR=    52.
 DD1Dir:  Pass   6 NRAB=     0 NRAA=    46 NRBB=     6 NR=    52.
 DD1Dir:  Pass   7 NRAB=     0 NRAA=     0 NRBB=    39 NR=    39.
 Norm of the A-vectors is  4.6719145D-04 conv= 1.00D-05.
 RLE energy=       -0.7626634253
 DE(Corr)= -0.76266086     E(CORR)=     -226.61567707     Delta=-5.31D-06
 NORM(A)=   0.12521244D+01
 Iteration Nr.  26
 **********************
 DD1Dir will call FoFJK   7 times, MxPair=        52
 NAB=   120 NAA=    66 NBB=    45 NumPrc=  4.
 DD1Dir:  Pass   1 NRAB=    26 NRAA=     0 NRBB=     0 NR=    52.
 DD1Dir:  Pass   2 NRAB=    26 NRAA=     0 NRBB=     0 NR=    52.
 DD1Dir:  Pass   3 NRAB=    26 NRAA=     0 NRBB=     0 NR=    52.
 DD1Dir:  Pass   4 NRAB=    26 NRAA=     0 NRBB=     0 NR=    52.
 DD1Dir:  Pass   5 NRAB=    16 NRAA=    20 NRBB=     0 NR=    52.
 DD1Dir:  Pass   6 NRAB=     0 NRAA=    46 NRBB=     6 NR=    52.
 DD1Dir:  Pass   7 NRAB=     0 NRAA=     0 NRBB=    39 NR=    39.
 Norm of the A-vectors is  3.5232221D-04 conv= 1.00D-05.
 RLE energy=       -0.7626641317
 DE(Corr)= -0.76266159     E(CORR)=     -226.61567780     Delta=-7.32D-07
 NORM(A)=   0.12521571D+01
 Iteration Nr.  27
 **********************
 DD1Dir will call FoFJK   7 times, MxPair=        52
 NAB=   120 NAA=    66 NBB=    45 NumPrc=  4.
 DD1Dir:  Pass   1 NRAB=    26 NRAA=     0 NRBB=     0 NR=    52.
 DD1Dir:  Pass   2 NRAB=    26 NRAA=     0 NRBB=     0 NR=    52.
 DD1Dir:  Pass   3 NRAB=    26 NRAA=     0 NRBB=     0 NR=    52.
 DD1Dir:  Pass   4 NRAB=    26 NRAA=     0 NRBB=     0 NR=    52.
 DD1Dir:  Pass   5 NRAB=    16 NRAA=    20 NRBB=     0 NR=    52.
 DD1Dir:  Pass   6 NRAB=     0 NRAA=    46 NRBB=     6 NR=    52.
 DD1Dir:  Pass   7 NRAB=     0 NRAA=     0 NRBB=    39 NR=    39.
 Norm of the A-vectors is  2.8677249D-04 conv= 1.00D-05.
 RLE energy=       -0.7626672341
 DE(Corr)= -0.76266526     E(CORR)=     -226.61568146     Delta=-3.66D-06
 NORM(A)=   0.12521953D+01
 Iteration Nr.  28
 **********************
 DD1Dir will call FoFJK   7 times, MxPair=        52
 NAB=   120 NAA=    66 NBB=    45 NumPrc=  4.
 DD1Dir:  Pass   1 NRAB=    26 NRAA=     0 NRBB=     0 NR=    52.
 DD1Dir:  Pass   2 NRAB=    26 NRAA=     0 NRBB=     0 NR=    52.
 DD1Dir:  Pass   3 NRAB=    26 NRAA=     0 NRBB=     0 NR=    52.
 DD1Dir:  Pass   4 NRAB=    26 NRAA=     0 NRBB=     0 NR=    52.
 DD1Dir:  Pass   5 NRAB=    16 NRAA=    20 NRBB=     0 NR=    52.
 DD1Dir:  Pass   6 NRAB=     0 NRAA=    46 NRBB=     6 NR=    52.
 DD1Dir:  Pass   7 NRAB=     0 NRAA=     0 NRBB=    39 NR=    39.
 Norm of the A-vectors is  2.2541489D-04 conv= 1.00D-05.
 RLE energy=       -0.7626686928
 DE(Corr)= -0.76266727     E(CORR)=     -226.61568348     Delta=-2.01D-06
 NORM(A)=   0.12522190D+01
 Iteration Nr.  29
 **********************
 DD1Dir will call FoFJK   7 times, MxPair=        52
 NAB=   120 NAA=    66 NBB=    45 NumPrc=  4.
 DD1Dir:  Pass   1 NRAB=    26 NRAA=     0 NRBB=     0 NR=    52.
 DD1Dir:  Pass   2 NRAB=    26 NRAA=     0 NRBB=     0 NR=    52.
 DD1Dir:  Pass   3 NRAB=    26 NRAA=     0 NRBB=     0 NR=    52.
 DD1Dir:  Pass   4 NRAB=    26 NRAA=     0 NRBB=     0 NR=    52.
 DD1Dir:  Pass   5 NRAB=    16 NRAA=    20 NRBB=     0 NR=    52.
 DD1Dir:  Pass   6 NRAB=     0 NRAA=    46 NRBB=     6 NR=    52.
 DD1Dir:  Pass   7 NRAB=     0 NRAA=     0 NRBB=    39 NR=    39.
 Norm of the A-vectors is  1.9616169D-04 conv= 1.00D-05.
 RLE energy=       -0.7626686457
 DE(Corr)= -0.76266821     E(CORR)=     -226.61568442     Delta=-9.40D-07
 NORM(A)=   0.12522446D+01
 Iteration Nr.  30
 **********************
 DD1Dir will call FoFJK   7 times, MxPair=        52
 NAB=   120 NAA=    66 NBB=    45 NumPrc=  4.
 DD1Dir:  Pass   1 NRAB=    26 NRAA=     0 NRBB=     0 NR=    52.
 DD1Dir:  Pass   2 NRAB=    26 NRAA=     0 NRBB=     0 NR=    52.
 DD1Dir:  Pass   3 NRAB=    26 NRAA=     0 NRBB=     0 NR=    52.
 DD1Dir:  Pass   4 NRAB=    26 NRAA=     0 NRBB=     0 NR=    52.
 DD1Dir:  Pass   5 NRAB=    16 NRAA=    20 NRBB=     0 NR=    52.
 DD1Dir:  Pass   6 NRAB=     0 NRAA=    46 NRBB=     6 NR=    52.
 DD1Dir:  Pass   7 NRAB=     0 NRAA=     0 NRBB=    39 NR=    39.
 Norm of the A-vectors is  2.1995569D-04 conv= 1.00D-05.
 RLE energy=       -0.7626706579
 DE(Corr)= -0.76267001     E(CORR)=     -226.61568622     Delta=-1.80D-06
 NORM(A)=   0.12522672D+01
 Iteration Nr.  31
 **********************
 DD1Dir will call FoFJK   7 times, MxPair=        52
 NAB=   120 NAA=    66 NBB=    45 NumPrc=  4.
 DD1Dir:  Pass   1 NRAB=    26 NRAA=     0 NRBB=     0 NR=    52.
 DD1Dir:  Pass   2 NRAB=    26 NRAA=     0 NRBB=     0 NR=    52.
 DD1Dir:  Pass   3 NRAB=    26 NRAA=     0 NRBB=     0 NR=    52.
 DD1Dir:  Pass   4 NRAB=    26 NRAA=     0 NRBB=     0 NR=    52.
 DD1Dir:  Pass   5 NRAB=    16 NRAA=    20 NRBB=     0 NR=    52.
 DD1Dir:  Pass   6 NRAB=     0 NRAA=    46 NRBB=     6 NR=    52.
 DD1Dir:  Pass   7 NRAB=     0 NRAA=     0 NRBB=    39 NR=    39.
 Norm of the A-vectors is  1.7412991D-04 conv= 1.00D-05.
 RLE energy=       -0.7626695664
 DE(Corr)= -0.76266947     E(CORR)=     -226.61568568     Delta= 5.38D-07
 NORM(A)=   0.12522811D+01
 Iteration Nr.  32
 **********************
 DD1Dir will call FoFJK   7 times, MxPair=        52
 NAB=   120 NAA=    66 NBB=    45 NumPrc=  4.
 DD1Dir:  Pass   1 NRAB=    26 NRAA=     0 NRBB=     0 NR=    52.
 DD1Dir:  Pass   2 NRAB=    26 NRAA=     0 NRBB=     0 NR=    52.
 DD1Dir:  Pass   3 NRAB=    26 NRAA=     0 NRBB=     0 NR=    52.
 DD1Dir:  Pass   4 NRAB=    26 NRAA=     0 NRBB=     0 NR=    52.
 DD1Dir:  Pass   5 NRAB=    16 NRAA=    20 NRBB=     0 NR=    52.
 DD1Dir:  Pass   6 NRAB=     0 NRAA=    46 NRBB=     6 NR=    52.
 DD1Dir:  Pass   7 NRAB=     0 NRAA=     0 NRBB=    39 NR=    39.
 Norm of the A-vectors is  1.6892034D-04 conv= 1.00D-05.
 RLE energy=       -0.7626709640
 DE(Corr)= -0.76267072     E(CORR)=     -226.61568692     Delta=-1.24D-06
 NORM(A)=   0.12522904D+01
 Iteration Nr.  33
 **********************
 DD1Dir will call FoFJK   7 times, MxPair=        52
 NAB=   120 NAA=    66 NBB=    45 NumPrc=  4.
 DD1Dir:  Pass   1 NRAB=    26 NRAA=     0 NRBB=     0 NR=    52.
 DD1Dir:  Pass   2 NRAB=    26 NRAA=     0 NRBB=     0 NR=    52.
 DD1Dir:  Pass   3 NRAB=    26 NRAA=     0 NRBB=     0 NR=    52.
 DD1Dir:  Pass   4 NRAB=    26 NRAA=     0 NRBB=     0 NR=    52.
 DD1Dir:  Pass   5 NRAB=    16 NRAA=    20 NRBB=     0 NR=    52.
 DD1Dir:  Pass   6 NRAB=     0 NRAA=    46 NRBB=     6 NR=    52.
 DD1Dir:  Pass   7 NRAB=     0 NRAA=     0 NRBB=    39 NR=    39.
 Norm of the A-vectors is  1.2693588D-04 conv= 1.00D-05.
 RLE energy=       -0.7626707013
 DE(Corr)= -0.76267005     E(CORR)=     -226.61568625     Delta= 6.72D-07
 NORM(A)=   0.12522969D+01
 Iteration Nr.  34
 **********************
 DD1Dir will call FoFJK   7 times, MxPair=        52
 NAB=   120 NAA=    66 NBB=    45 NumPrc=  4.
 DD1Dir:  Pass   1 NRAB=    26 NRAA=     0 NRBB=     0 NR=    52.
 DD1Dir:  Pass   2 NRAB=    26 NRAA=     0 NRBB=     0 NR=    52.
 DD1Dir:  Pass   3 NRAB=    26 NRAA=     0 NRBB=     0 NR=    52.
 DD1Dir:  Pass   4 NRAB=    26 NRAA=     0 NRBB=     0 NR=    52.
 DD1Dir:  Pass   5 NRAB=    16 NRAA=    20 NRBB=     0 NR=    52.
 DD1Dir:  Pass   6 NRAB=     0 NRAA=    46 NRBB=     6 NR=    52.
 DD1Dir:  Pass   7 NRAB=     0 NRAA=     0 NRBB=    39 NR=    39.
 Norm of the A-vectors is  8.3349532D-05 conv= 1.00D-05.
 RLE energy=       -0.7626708687
 DE(Corr)= -0.76267068     E(CORR)=     -226.61568689     Delta=-6.36D-07
 NORM(A)=   0.12523014D+01
 Iteration Nr.  35
 **********************
 DD1Dir will call FoFJK   7 times, MxPair=        52
 NAB=   120 NAA=    66 NBB=    45 NumPrc=  4.
 DD1Dir:  Pass   1 NRAB=    26 NRAA=     0 NRBB=     0 NR=    52.
 DD1Dir:  Pass   2 NRAB=    26 NRAA=     0 NRBB=     0 NR=    52.
 DD1Dir:  Pass   3 NRAB=    26 NRAA=     0 NRBB=     0 NR=    52.
 DD1Dir:  Pass   4 NRAB=    26 NRAA=     0 NRBB=     0 NR=    52.
 DD1Dir:  Pass   5 NRAB=    16 NRAA=    20 NRBB=     0 NR=    52.
 DD1Dir:  Pass   6 NRAB=     0 NRAA=    46 NRBB=     6 NR=    52.
 DD1Dir:  Pass   7 NRAB=     0 NRAA=     0 NRBB=    39 NR=    39.
 Norm of the A-vectors is  6.4578535D-05 conv= 1.00D-05.
 RLE energy=       -0.7626714302
 DE(Corr)= -0.76267102     E(CORR)=     -226.61568723     Delta=-3.38D-07
 NORM(A)=   0.12523058D+01
 Iteration Nr.  36
 **********************
 DD1Dir will call FoFJK   7 times, MxPair=        52
 NAB=   120 NAA=    66 NBB=    45 NumPrc=  4.
 DD1Dir:  Pass   1 NRAB=    26 NRAA=     0 NRBB=     0 NR=    52.
 DD1Dir:  Pass   2 NRAB=    26 NRAA=     0 NRBB=     0 NR=    52.
 DD1Dir:  Pass   3 NRAB=    26 NRAA=     0 NRBB=     0 NR=    52.
 DD1Dir:  Pass   4 NRAB=    26 NRAA=     0 NRBB=     0 NR=    52.
 DD1Dir:  Pass   5 NRAB=    16 NRAA=    20 NRBB=     0 NR=    52.
 DD1Dir:  Pass   6 NRAB=     0 NRAA=    46 NRBB=     6 NR=    52.
 DD1Dir:  Pass   7 NRAB=     0 NRAA=     0 NRBB=    39 NR=    39.
 Norm of the A-vectors is  4.5962816D-05 conv= 1.00D-05.
 RLE energy=       -0.7626713729
 DE(Corr)= -0.76267110     E(CORR)=     -226.61568731     Delta=-8.53D-08
 NORM(A)=   0.12523101D+01
 Iteration Nr.  37
 **********************
 DD1Dir will call FoFJK   7 times, MxPair=        52
 NAB=   120 NAA=    66 NBB=    45 NumPrc=  4.
 DD1Dir:  Pass   1 NRAB=    26 NRAA=     0 NRBB=     0 NR=    52.
 DD1Dir:  Pass   2 NRAB=    26 NRAA=     0 NRBB=     0 NR=    52.
 DD1Dir:  Pass   3 NRAB=    26 NRAA=     0 NRBB=     0 NR=    52.
 DD1Dir:  Pass   4 NRAB=    26 NRAA=     0 NRBB=     0 NR=    52.
 DD1Dir:  Pass   5 NRAB=    16 NRAA=    20 NRBB=     0 NR=    52.
 DD1Dir:  Pass   6 NRAB=     0 NRAA=    46 NRBB=     6 NR=    52.
[...]
 DD1Dir:  Pass   2 NRAB=    26 NRAA=     0 NRBB=     0 NR=    52.
 DD1Dir:  Pass   3 NRAB=    26 NRAA=     0 NRBB=     0 NR=    52.
 DD1Dir:  Pass   4 NRAB=    26 NRAA=     0 NRBB=     0 NR=    52.
 DD1Dir:  Pass   5 NRAB=    16 NRAA=    20 NRBB=     0 NR=    52.
 DD1Dir:  Pass   6 NRAB=     0 NRAA=    46 NRBB=     6 NR=    52.
 DD1Dir:  Pass   7 NRAB=     0 NRAA=     0 NRBB=    39 NR=    39.
 Norm of the A-vectors is  1.7977549D-05 conv= 1.00D-05.
 RLE energy=       -0.7626721156
 DE(Corr)= -0.76267212     E(CORR)=     -226.61568833     Delta=-5.21D-08
 NORM(A)=   0.12523232D+01
 Iteration Nr.  42
 **********************
 DD1Dir will call FoFJK   7 times, MxPair=        52
 NAB=   120 NAA=    66 NBB=    45 NumPrc=  4.
 DD1Dir:  Pass   1 NRAB=    26 NRAA=     0 NRBB=     0 NR=    52.
 DD1Dir:  Pass   2 NRAB=    26 NRAA=     0 NRBB=     0 NR=    52.
 DD1Dir:  Pass   3 NRAB=    26 NRAA=     0 NRBB=     0 NR=    52.
 DD1Dir:  Pass   4 NRAB=    26 NRAA=     0 NRBB=     0 NR=    52.
 DD1Dir:  Pass   5 NRAB=    16 NRAA=    20 NRBB=     0 NR=    52.
 DD1Dir:  Pass   6 NRAB=     0 NRAA=    46 NRBB=     6 NR=    52.
 DD1Dir:  Pass   7 NRAB=     0 NRAA=     0 NRBB=    39 NR=    39.
 Norm of the A-vectors is  1.7297509D-05 conv= 1.00D-05.
 RLE energy=       -0.7626722634
 DE(Corr)= -0.76267222     E(CORR)=     -226.61568843     Delta=-1.01D-07
 NORM(A)=   0.12523241D+01
 Iteration Nr.  43
 **********************
 DD1Dir will call FoFJK   7 times, MxPair=        52
 NAB=   120 NAA=    66 NBB=    45 NumPrc=  4.
 DD1Dir:  Pass   1 NRAB=    26 NRAA=     0 NRBB=     0 NR=    52.
 DD1Dir:  Pass   2 NRAB=    26 NRAA=     0 NRBB=     0 NR=    52.
 DD1Dir:  Pass   3 NRAB=    26 NRAA=     0 NRBB=     0 NR=    52.
 DD1Dir:  Pass   4 NRAB=    26 NRAA=     0 NRBB=     0 NR=    52.
 DD1Dir:  Pass   5 NRAB=    16 NRAA=    20 NRBB=     0 NR=    52.
 DD1Dir:  Pass   6 NRAB=     0 NRAA=    46 NRBB=     6 NR=    52.
 DD1Dir:  Pass   7 NRAB=     0 NRAA=     0 NRBB=    39 NR=    39.
 Norm of the A-vectors is  1.4988321D-05 conv= 1.00D-05.
 RLE energy=       -0.7626721288
 DE(Corr)= -0.76267215     E(CORR)=     -226.61568835     Delta= 7.66D-08
 NORM(A)=   0.12523246D+01
 Iteration Nr.  44
 **********************
 DD1Dir will call FoFJK   7 times, MxPair=        52
 NAB=   120 NAA=    66 NBB=    45 NumPrc=  4.
 DD1Dir:  Pass   1 NRAB=    26 NRAA=     0 NRBB=     0 NR=    52.
 DD1Dir:  Pass   2 NRAB=    26 NRAA=     0 NRBB=     0 NR=    52.
 DD1Dir:  Pass   3 NRAB=    26 NRAA=     0 NRBB=     0 NR=    52.
 DD1Dir:  Pass   4 NRAB=    26 NRAA=     0 NRBB=     0 NR=    52.
 DD1Dir:  Pass   5 NRAB=    16 NRAA=    20 NRBB=     0 NR=    52.
 DD1Dir:  Pass   6 NRAB=     0 NRAA=    46 NRBB=     6 NR=    52.
 DD1Dir:  Pass   7 NRAB=     0 NRAA=     0 NRBB=    39 NR=    39.
 Norm of the A-vectors is  1.1955324D-05 conv= 1.00D-05.
 RLE energy=       -0.7626722364
 DE(Corr)= -0.76267223     E(CORR)=     -226.61568844     Delta=-8.82D-08
 NORM(A)=   0.12523252D+01
 Iteration Nr.  45
 **********************
 DD1Dir will call FoFJK   7 times, MxPair=        52
 NAB=   120 NAA=    66 NBB=    45 NumPrc=  4.
 DD1Dir:  Pass   1 NRAB=    26 NRAA=     0 NRBB=     0 NR=    52.
 DD1Dir:  Pass   2 NRAB=    26 NRAA=     0 NRBB=     0 NR=    52.
 DD1Dir:  Pass   3 NRAB=    26 NRAA=     0 NRBB=     0 NR=    52.
 DD1Dir:  Pass   4 NRAB=    26 NRAA=     0 NRBB=     0 NR=    52.
 DD1Dir:  Pass   5 NRAB=    16 NRAA=    20 NRBB=     0 NR=    52.
 DD1Dir:  Pass   6 NRAB=     0 NRAA=    46 NRBB=     6 NR=    52.
 DD1Dir:  Pass   7 NRAB=     0 NRAA=     0 NRBB=    39 NR=    39.
 Norm of the A-vectors is  9.0274304D-06 conv= 1.00D-05.
 RLE energy=       -0.7626722083
 DE(Corr)= -0.76267219     E(CORR)=     -226.61568839     Delta= 4.83D-08
 NORM(A)=   0.12523258D+01
 CI/CC converged in   45 iterations to DelEn= 4.83D-08 Conv= 1.00D-07 ErrA1= 9.03D-06 Conv= 1.00D-05
 Dominant configurations:
 ***********************
 Spin Case        I    J    A    B          Value
    AA           18        22           -0.278360D+00
    BB           14        17           -0.103107D+00
    BB           14        18           -0.158775D+00
   ABAB          18   15   21   18       0.100536D+00
 Largest amplitude= 2.78D-01
 Time for triples=    17683.50 seconds.
 T4(CCSD)= -0.70464155D-01
 T5(CCSD)=  0.61247042D-02
 CCSD(T)= -0.22668002784D+03

 S**2, projected HF & approx projected MPn energies after annihilation of
 unwanted spin states (see manual for definitions):

 spins       (S**2,0) (S**2,1)    PUHF        PMP2        PMP3        PMP4
 annihilated
 s+1         1.99994  2.00003 -225.855740 -226.563812 -226.594559
 s+1,s+2     2.00000  2.00000 -225.855731 -226.563804 -226.594552
 s+1 to s+3  2.00000  2.00000 -225.855731 -226.563804 -226.594552
 s+1 to s+4  2.00000  2.00000 -225.855731 -226.563804 -226.594552
 s+1 to s+5  2.00000  2.00000 -225.855731
 s+1 to s+6  2.00000  2.00000 -225.855731

 Discarding MO integrals.
 Leave Link  913 at Wed Jun 22 11:11:09 2016, MaxMem=    33554432 cpu:    452744.8
 (Enter /home/proyectos/fulerenos/M3C-v1.9/M3C-deps_CCC/g09-AM64L-G09RevC.01/l601.exe)
 Copying SCF densities to generalized density rwf, IOpCl= 1 IROHF=0.

 **********************************************************************

            Population analysis using the SCF density.

 **********************************************************************

 Orbital symmetries:
 Alpha Orbitals:
       Occupied  (A) (A) (A) (A) (A) (A) (A) (A) (A) (A) (A) (A)
                 (A) (A) (A) (A) (A) (A)
       Virtual   (A) (A) (A) (A) (A) (A) (A) (A) (A) (A) (A) (A)
                 (A) (A) (A) (A) (A) (A) (A) (A) (A) (A) (A) (A)
                 (A) (A) (A) (A) (A) (A) (A) (A) (A) (A) (A) (A)
                 (A) (A) (A) (A) (A) (A) (A) (A) (A) (A) (A) (A)
                 (A) (A) (A) (A) (A) (A) (A) (A) (A) (A) (A) (A)
                 (A) (A) (A) (A) (A) (A) (A) (A) (A) (A) (A) (A)
                 (A) (A) (A) (A) (A) (A) (A) (A) (A) (A) (A) (A)
                 (A) (A) (A) (A) (A) (A) (A) (A) (A) (A) (A) (A)
                 (A) (A) (A) (A) (A) (A) (A) (A) (A) (A) (A) (A)
                 (A) (A) (A) (A) (A) (A) (A) (A) (A) (A) (A) (A)
                 (A) (A) (A) (A) (A) (A) (A) (A) (A) (A) (A) (A)
                 (A) (A) (A) (A) (A) (A) (A) (A) (A) (A) (A) (A)
                 (A) (A) (A) (A) (A) (A) (A) (A) (A) (A) (A) (A)
                 (A) (A) (A) (A) (A) (A) (A) (A) (A) (A) (A) (A)
                 (A) (A) (A) (A) (A) (A) (A) (A) (A) (A) (A) (A)
                 (A) (A) (A) (A) (A) (A) (A) (A) (A) (A) (A) (A)
                 (A) (A) (A) (A) (A) (A) (A) (A) (A) (A) (A) (A)
                 (A) (A) (A) (A) (A) (A) (A) (A) (A) (A) (A) (A)
 Beta  Orbitals:
       Occupied  (A) (A) (A) (A) (A) (A) (A) (A) (A) (A) (A) (A)
                 (A) (A) (A) (A)
       Virtual   (A) (A) (A) (A) (A) (A) (A) (A) (A) (A) (A) (A)
                 (A) (A) (A) (A) (A) (A) (A) (A) (A) (A) (A) (A)
                 (A) (A) (A) (A) (A) (A) (A) (A) (A) (A) (A) (A)
                 (A) (A) (A) (A) (A) (A) (A) (A) (A) (A) (A) (A)
                 (A) (A) (A) (A) (A) (A) (A) (A) (A) (A) (A) (A)
                 (A) (A) (A) (A) (A) (A) (A) (A) (A) (A) (A) (A)
                 (A) (A) (A) (A) (A) (A) (A) (A) (A) (A) (A) (A)
                 (A) (A) (A) (A) (A) (A) (A) (A) (A) (A) (A) (A)
                 (A) (A) (A) (A) (A) (A) (A) (A) (A) (A) (A) (A)
                 (A) (A) (A) (A) (A) (A) (A) (A) (A) (A) (A) (A)
                 (A) (A) (A) (A) (A) (A) (A) (A) (A) (A) (A) (A)
                 (A) (A) (A) (A) (A) (A) (A) (A) (A) (A) (A) (A)
                 (A) (A) (A) (A) (A) (A) (A) (A) (A) (A) (A) (A)
                 (A) (A) (A) (A) (A) (A) (A) (A) (A) (A) (A) (A)
                 (A) (A) (A) (A) (A) (A) (A) (A) (A) (A) (A) (A)
                 (A) (A) (A) (A) (A) (A) (A) (A) (A) (A) (A) (A)
                 (A) (A) (A) (A) (A) (A) (A) (A) (A) (A) (A) (A)
                 (A) (A) (A) (A) (A) (A) (A) (A) (A) (A) (A) (A)
                 (A) (A)
 The electronic state is 3-A.
 Alpha  occ. eigenvalues --  -11.90819 -11.90793 -11.89430 -11.89429 -11.75723
 Alpha  occ. eigenvalues --  -11.75720  -1.78677  -1.52324  -1.42111  -1.34859
 Alpha  occ. eigenvalues --   -1.26942  -1.11313  -1.10433  -1.03856  -0.96699
 Alpha  occ. eigenvalues --   -0.94547  -0.81956  -0.81715
 Alpha virt. eigenvalues --   -0.48841  -0.43671  -0.42706  -0.41743  -0.32048
 Alpha virt. eigenvalues --   -0.24029  -0.20416  -0.19882  -0.18341  -0.17140
 Alpha virt. eigenvalues --   -0.15193  -0.14868  -0.14663  -0.13817  -0.13605
 Alpha virt. eigenvalues --   -0.12428  -0.10683  -0.10580  -0.09445  -0.08754
 Alpha virt. eigenvalues --   -0.07465  -0.07205  -0.06334  -0.05737  -0.04470
 Alpha virt. eigenvalues --   -0.03275  -0.03222  -0.02624   0.00576   0.00931
 Alpha virt. eigenvalues --    0.00981   0.01843   0.03854   0.04589   0.07425
 Alpha virt. eigenvalues --    0.07515   0.10543   0.11987   0.12398   0.12529
 Alpha virt. eigenvalues --    0.18600   0.18755   0.19060   0.19646   0.20823
 Alpha virt. eigenvalues --    0.21530   0.23696   0.24274   0.24420   0.26126
 Alpha virt. eigenvalues --    0.26912   0.27211   0.28745   0.30449   0.32161
 Alpha virt. eigenvalues --    0.32521   0.34668   0.36222   0.36590   0.36776
 Alpha virt. eigenvalues --    0.38079   0.38179   0.38635   0.38974   0.41638
 Alpha virt. eigenvalues --    0.48824   0.50238   0.50372   0.53339   0.54520
 Alpha virt. eigenvalues --    0.54799   0.56288   0.56991   0.58521   0.61049
 Alpha virt. eigenvalues --    0.63508   0.71129   0.78874   0.81147   0.84902
 Alpha virt. eigenvalues --    0.86147   0.87054   0.87419   0.96100   0.99654
 Alpha virt. eigenvalues --    1.03090   1.04829   1.06513   1.09323   1.11634
 Alpha virt. eigenvalues --    1.16359   1.18635   1.26984   1.29260   1.30879
 Alpha virt. eigenvalues --    1.36261   1.38876   1.39221   1.41105   1.41580
 Alpha virt. eigenvalues --    1.42111   1.43160   1.48303   1.48339   1.53412
 Alpha virt. eigenvalues --    1.62990   1.65355   1.68879   1.75604   1.77646
 Alpha virt. eigenvalues --    1.80461   1.88331   1.88695   1.89003   1.99007
 Alpha virt. eigenvalues --    2.02523   2.13621   2.20936   2.24422   2.25251
 Alpha virt. eigenvalues --    2.39799   2.45579   2.45622   2.51544   2.54294
 Alpha virt. eigenvalues --    2.57895   2.58302   2.59954   2.60798   2.61835
 Alpha virt. eigenvalues --    2.63593   2.65454   2.65838   2.66206   2.67186
 Alpha virt. eigenvalues --    2.70578   2.70908   2.73007   2.75585   2.82071
 Alpha virt. eigenvalues --    2.82677   2.84115   2.87270   2.89323   2.90433
 Alpha virt. eigenvalues --    2.99085   2.99378   3.03156   3.07188   3.07888
 Alpha virt. eigenvalues --    3.11083   3.11747   3.12737   3.21975   3.28393
 Alpha virt. eigenvalues --    3.32530   3.35973   3.40556   3.41772   3.42787
 Alpha virt. eigenvalues --    3.50856   3.72245   3.75230   3.80894   3.81311
 Alpha virt. eigenvalues --    3.90756   3.97672   4.08616   4.17642   4.23159
 Alpha virt. eigenvalues --    4.23713   4.38975   4.61626   4.64573   4.67075
 Alpha virt. eigenvalues --    4.67749   4.85704   5.48147   5.78949   5.94836
 Alpha virt. eigenvalues --    6.82223   6.83828   6.84367   6.84757   6.87397
 Alpha virt. eigenvalues --    6.95132   7.03981   7.04025   7.04389   7.06495
 Alpha virt. eigenvalues --    7.12995   7.13712   7.15114   7.17054   7.20459
 Alpha virt. eigenvalues --    7.23486   7.23559   7.28172   7.45686   7.48525
 Alpha virt. eigenvalues --    7.57565   7.59079   7.66663   7.84619   7.89054
 Alpha virt. eigenvalues --    7.96742   8.14105   8.23680   8.36567   8.64787
 Alpha virt. eigenvalues --   24.56967  24.83723  25.02986  25.67001  25.77744
 Alpha virt. eigenvalues --   25.86796
  Beta  occ. eigenvalues --  -11.89381 -11.89380 -11.87977 -11.87960 -11.75257
  Beta  occ. eigenvalues --  -11.75252  -1.75155  -1.50562  -1.40712  -1.25894
  Beta  occ. eigenvalues --   -1.20804  -1.06580  -1.02463  -0.96507  -0.94209
  Beta  occ. eigenvalues --   -0.82242
  Beta virt. eigenvalues --   -0.47931  -0.47919  -0.43211  -0.39690  -0.38562
  Beta virt. eigenvalues --   -0.32054  -0.27432  -0.22182  -0.20039  -0.19525
  Beta virt. eigenvalues --   -0.16580  -0.14657  -0.14182  -0.13993  -0.13603
  Beta virt. eigenvalues --   -0.13464  -0.12964  -0.11941  -0.10346  -0.10224
  Beta virt. eigenvalues --   -0.08386  -0.07807  -0.07346  -0.06540  -0.06214
  Beta virt. eigenvalues --   -0.05658  -0.04460  -0.02022  -0.01824  -0.00689
  Beta virt. eigenvalues --    0.00981   0.01242   0.02369   0.02657   0.04380
  Beta virt. eigenvalues --    0.04680   0.08121   0.10980   0.12053   0.12956
  Beta virt. eigenvalues --    0.13384   0.13881   0.18920   0.19817   0.20550
  Beta virt. eigenvalues --    0.20588   0.22538   0.24014   0.25720   0.26289
  Beta virt. eigenvalues --    0.26831   0.26961   0.27086   0.27371   0.29988
  Beta virt. eigenvalues --    0.30840   0.32601   0.33184   0.35498   0.36350
  Beta virt. eigenvalues --    0.37091   0.39410   0.39457   0.39501   0.39534
  Beta virt. eigenvalues --    0.39930   0.42136   0.48864   0.50941   0.51354
  Beta virt. eigenvalues --    0.53850   0.55653   0.56314   0.57385   0.58353
  Beta virt. eigenvalues --    0.59106   0.62242   0.63616   0.71937   0.79023
  Beta virt. eigenvalues --    0.81473   0.86730   0.87608   0.87914   0.88125
  Beta virt. eigenvalues --    0.96588   1.01885   1.03572   1.08155   1.10172
  Beta virt. eigenvalues --    1.10556   1.15536   1.16672   1.18863   1.31706
  Beta virt. eigenvalues --    1.32126   1.32698   1.36392   1.39560   1.39603
  Beta virt. eigenvalues --    1.41869   1.41873   1.45251   1.45571   1.49157
  Beta virt. eigenvalues --    1.49245   1.56145   1.66855   1.67659   1.71543
  Beta virt. eigenvalues --    1.77512   1.77921   1.87577   1.89726   1.90462
  Beta virt. eigenvalues --    1.90887   1.99722   2.04803   2.15163   2.23991
  Beta virt. eigenvalues --    2.25547   2.28972   2.43318   2.46210   2.46704
  Beta virt. eigenvalues --    2.51812   2.55579   2.58267   2.58776   2.60242
  Beta virt. eigenvalues --    2.62163   2.62308   2.65318   2.66375   2.67107
  Beta virt. eigenvalues --    2.67554   2.68571   2.71134   2.71653   2.74501
  Beta virt. eigenvalues --    2.76718   2.82640   2.82779   2.86236   2.87732
  Beta virt. eigenvalues --    2.91097   2.92698   3.00463   3.00880   3.04432
  Beta virt. eigenvalues --    3.07724   3.08753   3.11875   3.12354   3.13570
  Beta virt. eigenvalues --    3.22431   3.29089   3.33960   3.36823   3.41585
  Beta virt. eigenvalues --    3.44474   3.46151   3.51707   3.73198   3.75649
  Beta virt. eigenvalues --    3.82837   3.83953   3.91880   4.01696   4.09139
  Beta virt. eigenvalues --    4.18424   4.24316   4.24320   4.42039   4.62344
  Beta virt. eigenvalues --    4.66599   4.68122   4.68438   4.87073   5.49034
  Beta virt. eigenvalues --    5.79901   5.96355   6.82576   6.84069   6.84625
  Beta virt. eigenvalues --    6.85019   6.91187   6.96048   7.04995   7.05197
  Beta virt. eigenvalues --    7.06611   7.06623   7.14095   7.15029   7.17142
  Beta virt. eigenvalues --    7.17972   7.20764   7.24689   7.25542   7.31188
  Beta virt. eigenvalues --    7.46732   7.49277   7.58615   7.59373   7.67086
  Beta virt. eigenvalues --    7.85861   7.91632   7.97379   8.16614   8.24338
  Beta virt. eigenvalues --    8.40080   8.66258  24.57731  24.83769  25.04016
  Beta virt. eigenvalues --   25.68920  25.78348  25.87103
          Condensed to atoms (all electrons):
               1          2          3          4          5          6
     1  C   10.095227  -2.675868  -2.675917   1.868402  -1.064096  -1.063635
     2  C   -2.675868   9.995299   2.352839  -2.676228   0.375424  -0.854922
     3  C   -2.675917   2.352839   9.995251  -2.676170  -0.854859   0.375417
     4  C    1.868402  -2.676228  -2.676170  10.096288  -1.063940  -1.064400
     5  C   -1.064096   0.375424  -0.854859  -1.063940   8.700436  -0.093556
     6  C   -1.063635  -0.854922   0.375417  -1.064400  -0.093556   8.700516
          Atomic-Atomic Spin Densities.
               1          2          3          4          5          6
     1  C    2.299295  -1.204450  -1.204383   1.327959  -0.406501  -0.406451
     2  C   -1.204450   1.332460   0.966713  -1.204510   0.290030   0.255614
     3  C   -1.204383   0.966713   1.332464  -1.204578   0.255614   0.290032
     4  C    1.327959  -1.204510  -1.204578   2.299634  -0.406515  -0.406569
     5  C   -0.406501   0.290030   0.255614  -0.406515   0.388032   0.038034
     6  C   -0.406451   0.255614   0.290032  -0.406569   0.038034   0.388035
 Mulliken charges and spin densities:
               1          2
     1  C    1.515886   0.405469
     2  C   -0.516545   0.435857
     3  C   -0.516560   0.435862
     4  C    1.516049   0.405422
     5  C    0.000591   0.158694
     6  C    0.000580   0.158695
 Sum of Mulliken charges =   2.00000   2.00000
 Mulliken charges and spin densities with hydrogens summed into heavy atoms:
               1          2
     1  C    1.515886   0.405469
     2  C   -0.516545   0.435857
     3  C   -0.516560   0.435862
     4  C    1.516049   0.405422
     5  C    0.000591   0.158694
     6  C    0.000580   0.158695
 Electronic spatial extent (au):  <R**2>=            415.0592
 Charge=              2.0000 electrons
 Dipole moment (field-independent basis, Debye):
    X=              0.0001    Y=             -0.0000    Z=             -0.0012  Tot=              0.0012
 Quadrupole moment (field-independent basis, Debye-Ang):
   XX=              0.7911   YY=            -22.6156   ZZ=            -28.0737
   XY=             -0.0003   XZ=             -0.0000   YZ=             -0.0000
 Traceless Quadrupole moment (field-independent basis, Debye-Ang):
   XX=             17.4239   YY=             -5.9829   ZZ=            -11.4410
   XY=             -0.0003   XZ=             -0.0000   YZ=             -0.0000
 Octapole moment (field-independent basis, Debye-Ang**2):
  XXX=              0.0007  YYY=              0.0000  ZZZ=              0.0001  XYY=             -0.0000
  XXY=              0.0005  XXZ=              0.0011  XZZ=              0.0000  YZZ=             -0.0000
  YYZ=             -0.0070  XYZ=             -0.0000
 Hexadecapole moment (field-independent basis, Debye-Ang**3):
 XXXX=           -388.8093 YYYY=            -60.0470 ZZZZ=            -28.2343 XXXY=             -0.0042
 XXXZ=              0.0014 YYYX=             -0.0002 YYYZ=             -0.0000 ZZZX=             -0.0002
 ZZZY=             -0.0000 XXYY=            -81.4233 XXZZ=            -83.9145 YYZZ=            -13.9339
 XXYZ=             -0.0000 YYXZ=             -0.0001 ZZXY=             -0.0000
 N-N= 1.406402104762D+02 E-N=-7.902143976379D+02  KE= 2.255047505878D+02
 Leave Link  601 at Wed Jun 22 11:11:09 2016, MaxMem=    33554432 cpu:         0.2
 (Enter /home/proyectos/fulerenos/M3C-v1.9/M3C-deps_CCC/g09-AM64L-G09RevC.01/l9999.exe)
 1\1\GINC-BELVIS16\SP\UCCSD(T)-FC\6-311+G(3df)\C6(2+,3)\ROOT\22-Jun-201
 6\0\\#p ccsd(t)/6-311+G(3df) scf(MaxCyc=300) guess(Huckel)\\ccsd(t) ie
 ner\\2,3\C,0,0.455139,-0.697172,-0.172408\C,0,-0.930702,-0.650913,0.17
 5208\C,0,0.930668,0.650949,-0.175249\C,0,-0.455083,0.697162,0.172692\C
 ,0,2.108164,1.474588,-0.39712\C,0,-2.108186,-1.474614,0.396877\\Versio
 n=EM64L-G09RevE.01\State=3-A\HF=-225.8530162\MP2=-226.5620976\MP3=-226
 .5932887\MP4D=-226.6186661\MP4DQ=-226.5882871\PUHF=-225.8557404\PMP2-0
 =-226.5638117\PMP3-0=-226.594559\MP4SDQ=-226.6052679\CCSD=-226.6156884
 \CCSD(T)=-226.6800278\S2=2.01548\S2-1=2.003954\S2A=2.000092\RMSD=2.566
 e-09\PG=C01 [X(C6)]\\@


 NATURE GIVES TO EVERY TIME AND SEASON SOME BEAUTY OF ITS OWN.

                                                    --DICKENS
 Job cpu time:       5 days  7 hours 15 minutes 29.3 seconds.
 File lengths (MBytes):  RWF=   6607 Int=      0 D2E=      0 Chk=      5 Scr=      1
 Normal termination of Gaussian 09 at Wed Jun 22 11:11:12 2016.
