 Entering Gaussian System, Link 0=/home/proyectos/fulerenos/M3C-v2.0/M3C-deps_CCC/g09-AM64L-G09RevC.01/g09
 Initial command:
 /home/proyectos/fulerenos/M3C-v2.0/M3C-deps_CCC/g09-AM64L-G09RevC.01/l1.exe "/scratch/naguirre/gaussian/Gau-22506.inp" -scrdir="/scratch/naguirre/gaussian/"
 Entering Link 1 = /home/proyectos/fulerenos/M3C-v2.0/M3C-deps_CCC/g09-AM64L-G09RevC.01/l1.exe PID=     22510.
  
 Copyright (c) 1988,1990,1992,1993,1995,1998,2003,2009,2015,
            Gaussian, Inc.  All Rights Reserved.
  
 This is part of the Gaussian(R) 09 program.  It is based on
 the Gaussian(R) 03 system (copyright 2003, Gaussian, Inc.),
 the Gaussian(R) 98 system (copyright 1998, Gaussian, Inc.),
 the Gaussian(R) 94 system (copyright 1995, Gaussian, Inc.),
 the Gaussian 92(TM) system (copyright 1992, Gaussian, Inc.),
 the Gaussian 90(TM) system (copyright 1990, Gaussian, Inc.),
 the Gaussian 88(TM) system (copyright 1988, Gaussian, Inc.),
 the Gaussian 86(TM) system (copyright 1986, Carnegie Mellon
 University), and the Gaussian 82(TM) system (copyright 1983,
 Carnegie Mellon University). Gaussian is a federally registered
 trademark of Gaussian, Inc.
  
 This software contains proprietary and confidential information,
 including trade secrets, belonging to Gaussian, Inc.
  
 This software is provided under written license and may be
 used, copied, transmitted, or stored only in accord with that
 written license.
  
 The following legend is applicable only to US Government
 contracts under FAR:
  
                    RESTRICTED RIGHTS LEGEND
  
 Use, reproduction and disclosure by the US Government is
 subject to restrictions as set forth in subparagraphs (a)
 and (c) of the Commercial Computer Software - Restricted
 Rights clause in FAR 52.227-19.
  
 Gaussian, Inc.
 340 Quinnipiac St., Bldg. 40, Wallingford CT 06492
  
  
 ---------------------------------------------------------------
 Warning -- This program may not be used in any manner that
 competes with the business of Gaussian, Inc. or will provide
 assistance to any competitor of Gaussian, Inc.  The licensee
 of this program is prohibited from giving any competitor of
 Gaussian, Inc. access to this program.  By using this program,
 the user acknowledges that Gaussian, Inc. is engaged in the
 business of creating and licensing software in the field of
 computational chemistry and represents and warrants to the
 licensee that it is not a competitor of Gaussian, Inc. and that
 it will not use this program in any manner prohibited above.
 ---------------------------------------------------------------
  

 Cite this work as:
 Gaussian 09, Revision E.01,
 M. J. Frisch, G. W. Trucks, H. B. Schlegel, G. E. Scuseria, 
 M. A. Robb, J. R. Cheeseman, G. Scalmani, V. Barone, B. Mennucci, 
 G. A. Petersson, H. Nakatsuji, M. Caricato, X. Li, H. P. Hratchian, 
 A. F. Izmaylov, J. Bloino, G. Zheng, J. L. Sonnenberg, M. Hada, 
 M. Ehara, K. Toyota, R. Fukuda, J. Hasegawa, M. Ishida, T. Nakajima, 
 Y. Honda, O. Kitao, H. Nakai, T. Vreven, J. A. Montgomery, Jr., 
 J. E. Peralta, F. Ogliaro, M. Bearpark, J. J. Heyd, E. Brothers, 
 K. N. Kudin, V. N. Staroverov, T. Keith, R. Kobayashi, J. Normand, 
 K. Raghavachari, A. Rendell, J. C. Burant, S. S. Iyengar, J. Tomasi, 
 M. Cossi, N. Rega, J. M. Millam, M. Klene, J. E. Knox, J. B. Cross, 
 V. Bakken, C. Adamo, J. Jaramillo, R. Gomperts, R. E. Stratmann, 
 O. Yazyev, A. J. Austin, R. Cammi, C. Pomelli, J. W. Ochterski, 
 R. L. Martin, K. Morokuma, V. G. Zakrzewski, G. A. Voth, 
 P. Salvador, J. J. Dannenberg, S. Dapprich, A. D. Daniels, 
 O. Farkas, J. B. Foresman, J. V. Ortiz, J. Cioslowski, 
 and D. J. Fox, Gaussian, Inc., Wallingford CT, 2013.
 
 ******************************************
 Gaussian 09:  EM64L-G09RevE.01 30-Nov-2015
                 6-Mar-2019 
 ******************************************
 %NProcShared=4
 Will use up to    4 processors via shared memory.
 --------------------------------------
 #p ccsd(t,maxcyc=200)/6-311++G(3df,2p)
 --------------------------------------
 1/38=1/1;
 2/12=2,17=6,18=5,40=1/2;
 3/5=4,6=6,7=1216,11=9,16=1,25=1,30=1/1,2,3;
 4//1;
 5/5=2,38=5/2;
 8/6=4,9=120000,10=2/1,4;
 9/5=7,6=200,14=2/13;
 6/7=2,8=2,9=2,10=2/1;
 99/5=1,9=1/99;
 Leave Link    1 at Wed Mar  6 17:45:30 2019, MaxMem=           0 cpu:         0.2
 (Enter /home/proyectos/fulerenos/M3C-v2.0/M3C-deps_CCC/g09-AM64L-G09RevC.01/l101.exe)
 -------------
 ccsd(t) iener
 -------------
 Symbolic Z-matrix:
 Charge =  0 Multiplicity = 1
 C                    -1.95132  -1.83378   0.05675 
 C                    -0.99906  -0.9467    0.02792 
 C                     0.98314   0.67748  -0.05833 
 C                    -0.06591  -0.06411   0.00123 
 O                     1.89283   1.40092  -0.1005 
 
 NAtoms=      5 NQM=        5 NQMF=       0 NMMI=      0 NMMIF=      0
                NMic=       0 NMicF=      0.
                    Isotopes and Nuclear Properties:
 (Nuclear quadrupole moments (NQMom) in fm**2, nuclear magnetic moments (NMagM)
  in nuclear magnetons)

  Atom         1           2           3           4           5
 IAtWgt=          12          12          12          12          16
 AtmWgt=  12.0000000  12.0000000  12.0000000  12.0000000  15.9949146
 NucSpn=           0           0           0           0           0
 AtZEff=   0.0000000   0.0000000   0.0000000   0.0000000   0.0000000
 NQMom=    0.0000000   0.0000000   0.0000000   0.0000000   0.0000000
 NMagM=    0.0000000   0.0000000   0.0000000   0.0000000   0.0000000
 AtZNuc=   6.0000000   6.0000000   6.0000000   6.0000000   8.0000000
 Leave Link  101 at Wed Mar  6 17:45:31 2019, MaxMem=    33554432 cpu:         0.4
 (Enter /home/proyectos/fulerenos/M3C-v2.0/M3C-deps_CCC/g09-AM64L-G09RevC.01/l202.exe)
                          Input orientation:                          
 ---------------------------------------------------------------------
 Center     Atomic      Atomic             Coordinates (Angstroms)
 Number     Number       Type             X           Y           Z
 ---------------------------------------------------------------------
      1          6           0       -1.951319   -1.833777    0.056753
      2          6           0       -0.999062   -0.946696    0.027917
      3          6           0        0.983143    0.677484   -0.058331
      4          6           0       -0.065908   -0.064114    0.001227
      5          8           0        1.892830    1.400923   -0.100500
 ---------------------------------------------------------------------
                    Distance matrix (angstroms):
                    1          2          3          4          5
     1  C    0.000000
     2  C    1.301744   0.000000
     3  C    3.864032   2.564086   0.000000
     4  C    2.586419   1.284695   1.286088   0.000000
     5  O    5.026479   3.727042   1.163044   2.448129   0.000000
 Stoichiometry    C4O
 Framework group  CS[SG(C4O)]
 Deg. of freedom     7
 Full point group                 CS      NOp   2
 Largest Abelian subgroup         CS      NOp   2
 Largest concise Abelian subgroup C1      NOp   1
                         Standard orientation:                         
 ---------------------------------------------------------------------
 Center     Atomic      Atomic             Coordinates (Angstroms)
 Number     Number       Type             X           Y           Z
 ---------------------------------------------------------------------
      1          6           0        1.684591    2.122096    0.000000
      2          6           0        0.840520    1.131096    0.000000
      3          6           0       -0.692724   -0.924068   -0.000000
      4          6           0       -0.000000    0.159516    0.000000
      5          8           0       -1.374290   -1.866480   -0.000000
 ---------------------------------------------------------------------
 Rotational constants (GHZ):   2899.2964768      2.3616779      2.3597557
 Leave Link  202 at Wed Mar  6 17:45:31 2019, MaxMem=    33554432 cpu:         0.1
 (Enter /home/proyectos/fulerenos/M3C-v2.0/M3C-deps_CCC/g09-AM64L-G09RevC.01/l301.exe)
 Standard basis: 6-311++G(3df,2p) (5D, 7F)
 Ernie: Thresh=  0.10000D-02 Tol=  0.10000D-05 Strict=F.
 There are   155 symmetry adapted cartesian basis functions of A'  symmetry.
 There are    70 symmetry adapted cartesian basis functions of A"  symmetry.
 There are   130 symmetry adapted basis functions of A'  symmetry.
 There are    65 symmetry adapted basis functions of A"  symmetry.
   195 basis functions,   290 primitive gaussians,   225 cartesian basis functions
    16 alpha electrons       16 beta electrons
       nuclear repulsion energy       108.0849938672 Hartrees.
 IExCor=    0 DFT=F Ex=HF Corr=None ExCW=0 ScaHFX=  1.000000
 ScaDFX=  1.000000  1.000000  1.000000  1.000000 ScalE2=  1.000000  1.000000
 IRadAn=      0 IRanWt=     -1 IRanGd=            0 ICorTp=0 IEmpDi=  4
 NAtoms=    5 NActive=    5 NUniq=    5 SFac= 1.00D+00 NAtFMM=   60 NAOKFM=F Big=F
 Integral buffers will be    131072 words long.
 Raffenetti 1 integral format.
 Two-electron integral symmetry is turned on.
 Leave Link  301 at Wed Mar  6 17:45:31 2019, MaxMem=    33554432 cpu:         0.3
 (Enter /home/proyectos/fulerenos/M3C-v2.0/M3C-deps_CCC/g09-AM64L-G09RevC.01/l302.exe)
 NPDir=0 NMtPBC=     1 NCelOv=     1 NCel=       1 NClECP=     1 NCelD=      1
         NCelK=      1 NCelE2=     1 NClLst=     1 CellRange=     0.0.
 One-electron integrals computed using PRISM.
 NBasis=   195 RedAO= T EigKep=  2.02D-06  NBF=   130    65
 NBsUse=   194 1.00D-06 EigRej=  1.80D-07 NBFU=   129    65
 Leave Link  302 at Wed Mar  6 17:45:31 2019, MaxMem=    33554432 cpu:         1.3
 (Enter /home/proyectos/fulerenos/M3C-v2.0/M3C-deps_CCC/g09-AM64L-G09RevC.01/l303.exe)
 DipDrv:  MaxL=1.
 Leave Link  303 at Wed Mar  6 17:45:31 2019, MaxMem=    33554432 cpu:         0.1
 (Enter /home/proyectos/fulerenos/M3C-v2.0/M3C-deps_CCC/g09-AM64L-G09RevC.01/l401.exe)
 ExpMin= 4.38D-02 ExpMax= 8.59D+03 ExpMxC= 1.30D+03 IAcc=2 IRadAn=         4 AccDes= 0.00D+00
 Harris functional with IExCor=  205 and IRadAn=       4 diagonalized for initial guess.
 HarFok:  IExCor=  205 AccDes= 0.00D+00 IRadAn=         4 IDoV= 1 UseB2=F ITyADJ=14
 ICtDFT=  3500011 ScaDFX=  1.000000  1.000000  1.000000  1.000000
 FoFCou: FMM=F IPFlag=           0 FMFlag=      100000 FMFlg1=           0
         NFxFlg=           0 DoJE=T BraDBF=F KetDBF=T FulRan=T
         wScrn=  0.000000 ICntrl=     500 IOpCl=  0 I1Cent=   200000004 NGrid=           0
         NMat0=    1 NMatS0=      1 NMatT0=    0 NMatD0=    1 NMtDS0=    0 NMtDT0=    0
 Petite list used in FoFCou.
 Harris En= -226.258542114981    
 JPrj=0 DoOrth=F DoCkMO=F.
 Initial guess orbital symmetries:
       Occupied  (A') (A') (A') (A') (A') (A') (A') (A') (A') (A')
                 (A") (A') (A") (A') (A') (A')
       Virtual   (A") (A') (A") (A') (A') (A') (A") (A') (A") (A')
                 (A') (A') (A") (A') (A') (A") (A') (A') (A") (A')
                 (A') (A") (A') (A') (A') (A") (A') (A") (A') (A')
                 (A') (A') (A") (A') (A') (A') (A") (A") (A') (A")
                 (A') (A") (A') (A') (A") (A') (A') (A") (A') (A')
                 (A') (A") (A') (A') (A") (A') (A') (A") (A') (A')
                 (A") (A') (A") (A') (A') (A') (A') (A") (A') (A')
                 (A") (A') (A") (A') (A') (A") (A') (A") (A') (A')
                 (A') (A") (A') (A") (A') (A') (A") (A') (A') (A")
                 (A") (A') (A') (A") (A') (A') (A") (A') (A") (A')
                 (A") (A') (A") (A') (A') (A") (A") (A') (A') (A')
                 (A") (A') (A") (A') (A") (A') (A") (A') (A') (A')
                 (A") (A') (A') (A") (A') (A') (A') (A") (A') (A")
                 (A') (A') (A") (A') (A") (A') (A') (A") (A') (A')
                 (A") (A') (A') (A') (A") (A') (A") (A') (A") (A')
                 (A") (A') (A") (A') (A") (A') (A') (A") (A') (A")
                 (A') (A") (A') (A") (A') (A') (A') (A') (A') (A")
                 (A') (A") (A') (A') (A') (A') (A') (A')
 The electronic state of the initial guess is 1-A'.
 Leave Link  401 at Wed Mar  6 17:45:32 2019, MaxMem=    33554432 cpu:         3.0
 (Enter /home/proyectos/fulerenos/M3C-v2.0/M3C-deps_CCC/g09-AM64L-G09RevC.01/l502.exe)
 Closed shell SCF:
 Using DIIS extrapolation, IDIIS=  1040.
 Integral symmetry usage will be decided dynamically.
 IVT=      173424 IEndB=      173424 NGot=    33554432 MDV=    33448499
 LenX=    33448499 LenY=    33397433
 Requested convergence on RMS density matrix=1.00D-08 within 128 cycles.
 Requested convergence on MAX density matrix=1.00D-06.
 Requested convergence on             energy=1.00D-06.
 No special actions if energy rises.
 Fock matrices will be formed incrementally for  20 cycles.

 Cycle   1  Pass 0  IDiag  1:
 FoFJK:  IHMeth= 1 ICntrl=       0 DoSepK=F KAlg= 0 I1Cent=   0 FoldK=F
 IRaf= 950000000 NMat=   1 IRICut=       1 DoRegI=T DoRafI=F ISym2E= 1.
 FoFCou: FMM=F IPFlag=           0 FMFlag=      100000 FMFlg1=           0
         NFxFlg=           0 DoJE=F BraDBF=F KetDBF=F FulRan=T
         wScrn=  0.000000 ICntrl=       0 IOpCl=  0 I1Cent=           0 NGrid=           0
         NMat0=    1 NMatS0=      1 NMatT0=    0 NMatD0=    1 NMtDS0=    0 NMtDT0=    0
 Petite list used in FoFCou.
 E= -225.998601817798    
 DIIS: error= 4.67D-02 at cycle   1 NSaved=   1.
 NSaved= 1 IEnMin= 1 EnMin= -225.998601817798     IErMin= 1 ErrMin= 4.67D-02
 ErrMax= 4.67D-02  0.00D+00 EMaxC= 1.00D-01 BMatC= 3.78D-01 BMatP= 3.78D-01
 IDIUse=3 WtCom= 5.33D-01 WtEn= 4.67D-01
 Coeff-Com:  0.100D+01
 Coeff-En:   0.100D+01
 Coeff:      0.100D+01
 Gap=     0.284 Goal=   None    Shift=    0.000
 GapD=    0.284 DampG=1.000 DampE=0.500 DampFc=0.5000 IDamp=-1.
 Damping current iteration by 5.00D-01
 RMSDP=1.11D-02 MaxDP=7.14D-01              OVMax= 1.82D-01

 Cycle   2  Pass 0  IDiag  1:
 RMSU=  4.41D-03    CP:  9.12D-01
 E= -226.080118134944     Delta-E=       -0.081516317146 Rises=F Damp=T
 DIIS: error= 2.51D-02 at cycle   2 NSaved=   2.
 NSaved= 2 IEnMin= 2 EnMin= -226.080118134944     IErMin= 2 ErrMin= 2.51D-02
 ErrMax= 2.51D-02  0.00D+00 EMaxC= 1.00D-01 BMatC= 9.42D-02 BMatP= 3.78D-01
 IDIUse=3 WtCom= 7.49D-01 WtEn= 2.51D-01
 Coeff-Com: -0.817D+00 0.182D+01
 Coeff-En:   0.000D+00 0.100D+01
 Coeff:     -0.612D+00 0.161D+01
 Gap=     0.310 Goal=   None    Shift=    0.000
 RMSDP=6.83D-03 MaxDP=3.26D-01 DE=-8.15D-02 OVMax= 8.65D-02

 Cycle   3  Pass 0  IDiag  1:
 RMSU=  2.93D-03    CP:  7.61D-01  1.47D+00
 E= -226.158193058732     Delta-E=       -0.078074923789 Rises=F Damp=F
 DIIS: error= 8.88D-03 at cycle   3 NSaved=   3.
 NSaved= 3 IEnMin= 3 EnMin= -226.158193058732     IErMin= 3 ErrMin= 8.88D-03
 ErrMax= 8.88D-03  0.00D+00 EMaxC= 1.00D-01 BMatC= 4.89D-03 BMatP= 9.42D-02
 IDIUse=3 WtCom= 9.11D-01 WtEn= 8.88D-02
 Coeff-Com: -0.288D+00 0.542D+00 0.746D+00
 Coeff-En:   0.000D+00 0.000D+00 0.100D+01
 Coeff:     -0.262D+00 0.494D+00 0.769D+00
 Gap=     0.289 Goal=   None    Shift=    0.000
 RMSDP=1.04D-03 MaxDP=3.07D-02 DE=-7.81D-02 OVMax= 3.95D-02

 Cycle   4  Pass 0  IDiag  1:
 RMSU=  9.58D-04    CP:  7.64D-01  1.46D+00  8.74D-01
 E= -226.163815646531     Delta-E=       -0.005622587799 Rises=F Damp=F
 DIIS: error= 2.48D-03 at cycle   4 NSaved=   4.
 NSaved= 4 IEnMin= 4 EnMin= -226.163815646531     IErMin= 4 ErrMin= 2.48D-03
 ErrMax= 2.48D-03  0.00D+00 EMaxC= 1.00D-01 BMatC= 2.94D-04 BMatP= 4.89D-03
 IDIUse=3 WtCom= 9.75D-01 WtEn= 2.48D-02
 Coeff-Com: -0.128D-01 0.115D-01 0.159D+00 0.842D+00
 Coeff-En:   0.000D+00 0.000D+00 0.000D+00 0.100D+01
 Coeff:     -0.125D-01 0.112D-01 0.155D+00 0.846D+00
 Gap=     0.290 Goal=   None    Shift=    0.000
 RMSDP=5.15D-04 MaxDP=3.67D-02 DE=-5.62D-03 OVMax= 8.60D-03

 Cycle   5  Pass 0  IDiag  1:
 RMSU=  3.22D-04    CP:  7.67D-01  1.40D+00  9.67D-01  1.06D+00
 E= -226.164312730633     Delta-E=       -0.000497084102 Rises=F Damp=F
 DIIS: error= 1.07D-03 at cycle   5 NSaved=   5.
 NSaved= 5 IEnMin= 5 EnMin= -226.164312730633     IErMin= 5 ErrMin= 1.07D-03
 ErrMax= 1.07D-03  0.00D+00 EMaxC= 1.00D-01 BMatC= 3.93D-05 BMatP= 2.94D-04
 IDIUse=3 WtCom= 9.89D-01 WtEn= 1.07D-02
 Coeff-Com:  0.247D-01-0.472D-01-0.664D-01 0.946D-03 0.109D+01
 Coeff-En:   0.000D+00 0.000D+00 0.000D+00 0.000D+00 0.100D+01
 Coeff:      0.245D-01-0.467D-01-0.656D-01 0.936D-03 0.109D+01
 Gap=     0.292 Goal=   None    Shift=    0.000
 RMSDP=2.43D-04 MaxDP=1.93D-02 DE=-4.97D-04 OVMax= 8.45D-03

 Cycle   6  Pass 0  IDiag  1:
 RMSU=  1.00D-04    CP:  7.70D-01  1.37D+00  9.88D-01  1.15D+00  1.23D+00
 E= -226.164439758142     Delta-E=       -0.000127027509 Rises=F Damp=F
 DIIS: error= 5.62D-04 at cycle   6 NSaved=   6.
 NSaved= 6 IEnMin= 6 EnMin= -226.164439758142     IErMin= 6 ErrMin= 5.62D-04
 ErrMax= 5.62D-04  0.00D+00 EMaxC= 1.00D-01 BMatC= 1.25D-05 BMatP= 3.93D-05
 IDIUse=3 WtCom= 9.94D-01 WtEn= 5.62D-03
 Coeff-Com:  0.127D-01-0.218D-01-0.528D-01-0.176D+00 0.387D+00 0.851D+00
 Coeff-En:   0.000D+00 0.000D+00 0.000D+00 0.000D+00 0.000D+00 0.100D+01
 Coeff:      0.126D-01-0.217D-01-0.525D-01-0.175D+00 0.385D+00 0.852D+00
 Gap=     0.293 Goal=   None    Shift=    0.000
 RMSDP=1.03D-04 MaxDP=7.28D-03 DE=-1.27D-04 OVMax= 3.20D-03

 Cycle   7  Pass 0  IDiag  1:
 RMSU=  3.18D-05    CP:  7.70D-01  1.36D+00  1.00D+00  1.19D+00  1.37D+00
                    CP:  1.09D+00
 E= -226.164468951180     Delta-E=       -0.000029193038 Rises=F Damp=F
 DIIS: error= 1.52D-04 at cycle   7 NSaved=   7.
 NSaved= 7 IEnMin= 7 EnMin= -226.164468951180     IErMin= 7 ErrMin= 1.52D-04
 ErrMax= 1.52D-04  0.00D+00 EMaxC= 1.00D-01 BMatC= 1.28D-06 BMatP= 1.25D-05
 IDIUse=3 WtCom= 9.98D-01 WtEn= 1.52D-03
 Coeff-Com: -0.163D-02 0.327D-02 0.532D-02-0.302D-01-0.777D-01 0.893D-01
 Coeff-Com:  0.101D+01
 Coeff-En:   0.000D+00 0.000D+00 0.000D+00 0.000D+00 0.000D+00 0.000D+00
 Coeff-En:   0.100D+01
 Coeff:     -0.163D-02 0.326D-02 0.531D-02-0.301D-01-0.776D-01 0.892D-01
 Coeff:      0.101D+01
 Gap=     0.294 Goal=   None    Shift=    0.000
 RMSDP=3.16D-05 MaxDP=1.05D-03 DE=-2.92D-05 OVMax= 1.25D-03

 Cycle   8  Pass 0  IDiag  1:
 RMSU=  1.59D-05    CP:  7.70D-01  1.36D+00  9.98D-01  1.19D+00  1.33D+00
                    CP:  1.21D+00  1.45D+00
 E= -226.164472940919     Delta-E=       -0.000003989739 Rises=F Damp=F
 DIIS: error= 6.87D-05 at cycle   8 NSaved=   8.
 NSaved= 8 IEnMin= 8 EnMin= -226.164472940919     IErMin= 8 ErrMin= 6.87D-05
 ErrMax= 6.87D-05  0.00D+00 EMaxC= 1.00D-01 BMatC= 2.95D-07 BMatP= 1.28D-06
 IDIUse=1 WtCom= 1.00D+00 WtEn= 0.00D+00
 Coeff-Com: -0.277D-02 0.481D-02 0.151D-01 0.361D-01-0.928D-01-0.183D+00
 Coeff-Com:  0.161D+00 0.106D+01
 Coeff:     -0.277D-02 0.481D-02 0.151D-01 0.361D-01-0.928D-01-0.183D+00
 Coeff:      0.161D+00 0.106D+01
 Gap=     0.294 Goal=   None    Shift=    0.000
 RMSDP=3.14D-05 MaxDP=1.60D-03 DE=-3.99D-06 OVMax= 7.06D-04

 Cycle   9  Pass 0  IDiag  1:
 RMSU=  6.83D-06    CP:  7.70D-01  1.36D+00  9.95D-01  1.17D+00  1.29D+00
                    CP:  1.24D+00  1.71D+00  1.48D+00
 E= -226.164473972912     Delta-E=       -0.000001031993 Rises=F Damp=F
 DIIS: error= 3.66D-05 at cycle   9 NSaved=   9.
 NSaved= 9 IEnMin= 9 EnMin= -226.164473972912     IErMin= 9 ErrMin= 3.66D-05
 ErrMax= 3.66D-05  0.00D+00 EMaxC= 1.00D-01 BMatC= 4.02D-08 BMatP= 2.95D-07
 IDIUse=1 WtCom= 1.00D+00 WtEn= 0.00D+00
 Coeff-Com:  0.469D-03-0.903D-03-0.174D-02-0.340D-02 0.249D-01 0.369D-02
 Coeff-Com: -0.194D+00-0.188D-01 0.119D+01
 Coeff:      0.469D-03-0.903D-03-0.174D-02-0.340D-02 0.249D-01 0.369D-02
 Coeff:     -0.194D+00-0.188D-01 0.119D+01
 Gap=     0.294 Goal=   None    Shift=    0.000
 RMSDP=1.04D-05 MaxDP=5.14D-04 DE=-1.03D-06 OVMax= 3.60D-04

 Cycle  10  Pass 0  IDiag  1:
 RMSU=  1.74D-06    CP:  7.70D-01  1.36D+00  9.94D-01  1.17D+00  1.28D+00
                    CP:  1.24D+00  1.78D+00  1.76D+00  1.28D+00
 E= -226.164474179355     Delta-E=       -0.000000206443 Rises=F Damp=F
 DIIS: error= 1.28D-05 at cycle  10 NSaved=  10.
 NSaved=10 IEnMin=10 EnMin= -226.164474179355     IErMin=10 ErrMin= 1.28D-05
 ErrMax= 1.28D-05  0.00D+00 EMaxC= 1.00D-01 BMatC= 9.31D-09 BMatP= 4.02D-08
 IDIUse=1 WtCom= 1.00D+00 WtEn= 0.00D+00
 Coeff-Com:  0.627D-03-0.111D-02-0.286D-02-0.722D-02 0.233D-01 0.297D-01
 Coeff-Com: -0.857D-01-0.137D+00 0.223D+00 0.957D+00
 Coeff:      0.627D-03-0.111D-02-0.286D-02-0.722D-02 0.233D-01 0.297D-01
 Coeff:     -0.857D-01-0.137D+00 0.223D+00 0.957D+00
 Gap=     0.294 Goal=   None    Shift=    0.000
 RMSDP=3.10D-06 MaxDP=1.13D-04 DE=-2.06D-07 OVMax= 1.40D-04

 Initial convergence to 1.0D-05 achieved.  Increase integral accuracy.
 Cycle  11  Pass 1  IDiag  1:
 E= -226.164474216954     Delta-E=       -0.000000037600 Rises=F Damp=F
 DIIS: error= 7.97D-06 at cycle   1 NSaved=   1.
 NSaved= 1 IEnMin= 1 EnMin= -226.164474216954     IErMin= 1 ErrMin= 7.97D-06
 ErrMax= 7.97D-06  0.00D+00 EMaxC= 1.00D-01 BMatC= 1.98D-09 BMatP= 1.98D-09
 IDIUse=1 WtCom= 1.00D+00 WtEn= 0.00D+00
 Coeff-Com:  0.100D+01
 Coeff:      0.100D+01
 Gap=     0.294 Goal=   None    Shift=    0.000
 RMSDP=3.10D-06 MaxDP=1.13D-04 DE=-3.76D-08 OVMax= 5.00D-05

 Cycle  12  Pass 1  IDiag  1:
 RMSU=  1.33D-06    CP:  1.00D+00
 E= -226.164474225351     Delta-E=       -0.000000008397 Rises=F Damp=F
 DIIS: error= 4.33D-06 at cycle   2 NSaved=   2.
 NSaved= 2 IEnMin= 2 EnMin= -226.164474225351     IErMin= 2 ErrMin= 4.33D-06
 ErrMax= 4.33D-06  0.00D+00 EMaxC= 1.00D-01 BMatC= 8.05D-10 BMatP= 1.98D-09
 IDIUse=1 WtCom= 1.00D+00 WtEn= 0.00D+00
 Coeff-Com: -0.506D+00 0.151D+01
 Coeff:     -0.506D+00 0.151D+01
 Gap=     0.294 Goal=   None    Shift=    0.000
 RMSDP=9.79D-07 MaxDP=2.98D-05 DE=-8.40D-09 OVMax= 5.72D-05

 Cycle  13  Pass 1  IDiag  1:
 RMSU=  5.64D-07    CP:  1.00D+00  1.50D+00
 E= -226.164474230452     Delta-E=       -0.000000005101 Rises=F Damp=F
 DIIS: error= 3.65D-06 at cycle   3 NSaved=   3.
 NSaved= 3 IEnMin= 3 EnMin= -226.164474230452     IErMin= 3 ErrMin= 3.65D-06
 ErrMax= 3.65D-06  0.00D+00 EMaxC= 1.00D-01 BMatC= 4.16D-10 BMatP= 8.05D-10
 IDIUse=1 WtCom= 1.00D+00 WtEn= 0.00D+00
 Coeff-Com: -0.810D+00 0.694D+00 0.112D+01
 Coeff:     -0.810D+00 0.694D+00 0.112D+01
 Gap=     0.294 Goal=   None    Shift=    0.000
 RMSDP=8.78D-07 MaxDP=2.55D-05 DE=-5.10D-09 OVMax= 4.64D-05

 Cycle  14  Pass 1  IDiag  1:
 RMSU=  2.59D-07    CP:  1.00D+00  2.00D+00  1.54D+00
 E= -226.164474232553     Delta-E=       -0.000000002100 Rises=F Damp=F
 DIIS: error= 4.97D-07 at cycle   4 NSaved=   4.
 NSaved= 4 IEnMin= 4 EnMin= -226.164474232553     IErMin= 4 ErrMin= 4.97D-07
 ErrMax= 4.97D-07  0.00D+00 EMaxC= 1.00D-01 BMatC= 1.41D-11 BMatP= 4.16D-10
 IDIUse=1 WtCom= 1.00D+00 WtEn= 0.00D+00
 Coeff-Com:  0.417D+00-0.362D+00-0.623D+00 0.157D+01
 Coeff:      0.417D+00-0.362D+00-0.623D+00 0.157D+01
 Gap=     0.294 Goal=   None    Shift=    0.000
 RMSDP=2.94D-07 MaxDP=1.44D-05 DE=-2.10D-09 OVMax= 7.21D-06

 Cycle  15  Pass 1  IDiag  1:
 RMSU=  4.32D-08    CP:  1.00D+00  1.85D+00  1.78D+00  1.55D+00
 E= -226.164474232630     Delta-E=       -0.000000000077 Rises=F Damp=F
 DIIS: error= 2.53D-07 at cycle   5 NSaved=   5.
 NSaved= 5 IEnMin= 5 EnMin= -226.164474232630     IErMin= 5 ErrMin= 2.53D-07
 ErrMax= 2.53D-07  0.00D+00 EMaxC= 1.00D-01 BMatC= 3.55D-12 BMatP= 1.41D-11
 IDIUse=1 WtCom= 1.00D+00 WtEn= 0.00D+00
 Coeff-Com:  0.263D+00-0.235D+00-0.396D+00 0.545D+00 0.822D+00
 Coeff:      0.263D+00-0.235D+00-0.396D+00 0.545D+00 0.822D+00
 Gap=     0.294 Goal=   None    Shift=    0.000
 RMSDP=6.45D-08 MaxDP=2.33D-06 DE=-7.71D-11 OVMax= 2.62D-06

 Cycle  16  Pass 1  IDiag  1:
 RMSU=  1.98D-08    CP:  1.00D+00  1.84D+00  1.86D+00  1.72D+00  1.20D+00
 E= -226.164474232636     Delta-E=       -0.000000000006 Rises=F Damp=F
 DIIS: error= 6.63D-08 at cycle   6 NSaved=   6.
 NSaved= 6 IEnMin= 6 EnMin= -226.164474232636     IErMin= 6 ErrMin= 6.63D-08
 ErrMax= 6.63D-08  0.00D+00 EMaxC= 1.00D-01 BMatC= 2.24D-13 BMatP= 3.55D-12
 IDIUse=1 WtCom= 1.00D+00 WtEn= 0.00D+00
 Coeff-Com: -0.218D-01 0.200D-01 0.302D-01-0.121D+00 0.677D-01 0.102D+01
 Coeff:     -0.218D-01 0.200D-01 0.302D-01-0.121D+00 0.677D-01 0.102D+01
 Gap=     0.294 Goal=   None    Shift=    0.000
 RMSDP=1.55D-08 MaxDP=9.39D-07 DE=-6.37D-12 OVMax= 5.78D-07

 Cycle  17  Pass 1  IDiag  1:
 RMSU=  7.94D-09    CP:  1.00D+00  1.85D+00  1.86D+00  1.71D+00  1.33D+00
                    CP:  1.02D+00
 E= -226.164474232639     Delta-E=       -0.000000000003 Rises=F Damp=F
 DIIS: error= 2.60D-08 at cycle   7 NSaved=   7.
 NSaved= 7 IEnMin= 7 EnMin= -226.164474232639     IErMin= 7 ErrMin= 2.60D-08
 ErrMax= 2.60D-08  0.00D+00 EMaxC= 1.00D-01 BMatC= 3.49D-14 BMatP= 2.24D-13
 IDIUse=1 WtCom= 1.00D+00 WtEn= 0.00D+00
 Coeff-Com: -0.413D-01 0.383D-01 0.623D-01-0.103D+00-0.106D+00 0.221D+00
 Coeff-Com:  0.928D+00
 Coeff:     -0.413D-01 0.383D-01 0.623D-01-0.103D+00-0.106D+00 0.221D+00
 Coeff:      0.928D+00
 Gap=     0.294 Goal=   None    Shift=    0.000
 RMSDP=1.08D-08 MaxDP=5.88D-07 DE=-2.56D-12 OVMax= 1.69D-07

 Cycle  18  Pass 1  IDiag  1:
 RMSU=  2.07D-09    CP:  1.00D+00  1.85D+00  1.85D+00  1.70D+00  1.34D+00
                    CP:  1.08D+00  1.29D+00
 E= -226.164474232641     Delta-E=       -0.000000000002 Rises=F Damp=F
 DIIS: error= 7.72D-09 at cycle   8 NSaved=   8.
 NSaved= 8 IEnMin= 8 EnMin= -226.164474232641     IErMin= 8 ErrMin= 7.72D-09
 ErrMax= 7.72D-09  0.00D+00 EMaxC= 1.00D-01 BMatC= 5.29D-15 BMatP= 3.49D-14
 IDIUse=1 WtCom= 1.00D+00 WtEn= 0.00D+00
 Coeff-Com: -0.651D-02 0.605D-02 0.998D-02-0.958D-02-0.343D-01-0.798D-01
 Coeff-Com:  0.257D+00 0.857D+00
 Coeff:     -0.651D-02 0.605D-02 0.998D-02-0.958D-02-0.343D-01-0.798D-01
 Coeff:      0.257D+00 0.857D+00
 Gap=     0.294 Goal=   None    Shift=    0.000
 RMSDP=2.31D-09 MaxDP=1.54D-07 DE=-2.05D-12 OVMax= 6.15D-08

 SCF Done:  E(RHF) =  -226.164474233     A.U. after   18 cycles
            NFock= 18  Conv=0.23D-08     -V/T= 2.0014
 KE= 2.258460771080D+02 PE=-7.450753041591D+02 EE= 1.849797589513D+02
 Leave Link  502 at Wed Mar  6 17:46:44 2019, MaxMem=    33554432 cpu:       286.3
 (Enter /home/proyectos/fulerenos/M3C-v2.0/M3C-deps_CCC/g09-AM64L-G09RevC.01/l801.exe)
 Windowed orbitals will be sorted by symmetry type.
 ExpMin= 4.38D-02 ExpMax= 8.59D+03 ExpMxC= 1.30D+03 IAcc=3 IRadAn=         5 AccDes= 0.00D+00
 HarFok:  IExCor=  205 AccDes= 0.00D+00 IRadAn=         5 IDoV=-2 UseB2=F ITyADJ=14
 ICtDFT= 12500011 ScaDFX=  1.000000  1.000000  1.000000  1.000000
 Largest valence mixing into a core orbital is  1.57D-04
 Largest core mixing into a valence orbital is  4.45D-05
 Range of M.O.s used for correlation:     6   194
 NBasis=   195 NAE=    16 NBE=    16 NFC=     5 NFV=     0
 NROrb=    189 NOA=    11 NOB=    11 NVA=   178 NVB=   178

 **** Warning!!: The largest alpha MO coefficient is  0.17591359D+03

 Leave Link  801 at Wed Mar  6 17:46:47 2019, MaxMem=    33554432 cpu:         3.9
 (Enter /home/proyectos/fulerenos/M3C-v2.0/M3C-deps_CCC/g09-AM64L-G09RevC.01/l804.exe)
 Closed-shell transformation, MDV=    33554432 ITran=4 ISComp=2.
 Semi-Direct transformation.
 ModeAB=           4 MOrb=            11 LenV=      32570016
 LASXX=     18138566 LTotXX=    18138566 LenRXX=    36600447
 LTotAB=    18461881 MaxLAS=    51525936 LenRXY=           0
 NonZer=    54739013 LenScr=    83655168 LnRSAI=    51525936
 LnScr1=    78809088 LExtra=           0 Total=    250590639
 MaxDsk=          -1 SrtSym=           T ITran=            4
 DoSDTr:  NPSUse=  4
 JobTyp=0 Pass  1:  I=   1 to  11.
 Complete sort for first half transformation.
 First half transformation complete.
 Begin second half transformation for I=  10.
 Complete sort for second half transformation.
 Second half transformation complete.
 Spin components of T(2) and E(2):
     alpha-alpha T2 =       0.3701741939D-01 E2=     -0.1015290334D+00
     alpha-beta  T2 =       0.2067084499D+00 E2=     -0.5856336884D+00
     beta-beta   T2 =       0.3701741939D-01 E2=     -0.1015290334D+00
 ANorm=    0.1131699292D+01
 E2 =    -0.7886917553D+00 EUMP2 =    -0.22695316598793D+03
 Leave Link  804 at Wed Mar  6 17:47:21 2019, MaxMem=    33554432 cpu:       135.1
 (Enter /home/proyectos/fulerenos/M3C-v2.0/M3C-deps_CCC/g09-AM64L-G09RevC.01/l913.exe)
 CIDS:  MDV=    33554432.
 Frozen-core window:  NFC=   5 NFV=   0.
 IFCWin=0 IBDFC=1 NFBD=     0     0 NFCmp=     0     0 NFFFC=     0     0
 Using DD3R+UMP44R for 1st iteration, S=T.
 Using DD4RQ for 2nd and later iterations.
 Would need an additional       244074484 words for in-memory AO integral storage.
 CCSD(T)
 =======
 Iterations= 200 Convergence= 0.100D-06
 Iteration Nr.   1
 **********************
 DD1Dir will call FoFJK   2 times, MxPair=        66
 NAB=    66 NAA=     0 NBB=     0 NumPrc=  4.
 DD1Dir:  Pass   1 NRAB=    33 NRAA=     0 NRBB=     0 NR=    66.
 FoFJK:  IHMeth= 1 ICntrl=     200 DoSepK=F KAlg= 0 I1Cent=   0 FoldK=F
 IRaf= 990000000 NMat=  66 IRICut=      82 DoRegI=T DoRafI=T ISym2E=-1.
 FoFCou: FMM=F IPFlag=           0 FMFlag=      100000 FMFlg1=           0
         NFxFlg=           0 DoJE=F BraDBF=F KetDBF=F FulRan=T
         wScrn=  0.000000 ICntrl=     200 IOpCl=  0 I1Cent=           0 NGrid=           0
         NMat0=   66 NMatS0=      0 NMatT0=   33 NMatD0=   66 NMtDS0=    0 NMtDT0=    0
 Petite list used in FoFCou.
 DD1Dir:  Pass   2 NRAB=    33 NRAA=     0 NRBB=     0 NR=    66.
 MP4(R+Q)=  0.28880756D-01
 Maximum subspace dimension=  5
 Norm of the A-vectors is  1.2570863D+00 conv= 1.00D-05.
 RLE energy=       -0.7604769528
 E3=       -0.42950465D-03        EUMP3=      -0.22695359549D+03
 E4(DQ)=    0.42370565D-02        UMP4(DQ)=   -0.22694935844D+03
 E4(SDQ)=  -0.11198742D-01        UMP4(SDQ)=  -0.22696479423D+03
 VARIATIONAL ENERGIES WITH THE FIRST-ORDER WAVEFUNCTION:
 DE(Corr)= -0.75943095     E(Corr)=     -226.92390518    
 NORM(A)=   0.11284460D+01
 Iteration Nr.   2
 **********************
 DD1Dir will call FoFJK   2 times, MxPair=        66
 NAB=    66 NAA=     0 NBB=     0 NumPrc=  4.
 DD1Dir:  Pass   1 NRAB=    33 NRAA=     0 NRBB=     0 NR=    66.
 DD1Dir:  Pass   2 NRAB=    33 NRAA=     0 NRBB=     0 NR=    66.
 Norm of the A-vectors is  5.8137055D-01 conv= 1.00D-05.
 RLE energy=       -0.7935130676
 DE(Corr)= -0.79511154     E(CORR)=     -226.95958577     Delta=-3.57D-02
 NORM(A)=   0.11441686D+01
 Iteration Nr.   3
 **********************
 DD1Dir will call FoFJK   2 times, MxPair=        66
 NAB=    66 NAA=     0 NBB=     0 NumPrc=  4.
 DD1Dir:  Pass   1 NRAB=    33 NRAA=     0 NRBB=     0 NR=    66.
 DD1Dir:  Pass   2 NRAB=    33 NRAA=     0 NRBB=     0 NR=    66.
 Norm of the A-vectors is  1.9086338D-01 conv= 1.00D-05.
 RLE energy=       -0.7960867696
 DE(Corr)= -0.79174514     E(CORR)=     -226.95621937     Delta= 3.37D-03
 NORM(A)=   0.11502071D+01
 Iteration Nr.   4
 **********************
 DD1Dir will call FoFJK   2 times, MxPair=        66
 NAB=    66 NAA=     0 NBB=     0 NumPrc=  4.
 DD1Dir:  Pass   1 NRAB=    33 NRAA=     0 NRBB=     0 NR=    66.
 DD1Dir:  Pass   2 NRAB=    33 NRAA=     0 NRBB=     0 NR=    66.
 Norm of the A-vectors is  9.8696683D-02 conv= 1.00D-05.
 RLE energy=       -0.7963385074
 DE(Corr)= -0.79591666     E(CORR)=     -226.96039089     Delta=-4.17D-03
 NORM(A)=   0.11524465D+01
 Iteration Nr.   5
 **********************
 DD1Dir will call FoFJK   2 times, MxPair=        66
 NAB=    66 NAA=     0 NBB=     0 NumPrc=  4.
 DD1Dir:  Pass   1 NRAB=    33 NRAA=     0 NRBB=     0 NR=    66.
 DD1Dir:  Pass   2 NRAB=    33 NRAA=     0 NRBB=     0 NR=    66.
 Norm of the A-vectors is  3.3081522D-02 conv= 1.00D-05.
 RLE energy=       -0.7966389005
 DE(Corr)= -0.79656634     E(CORR)=     -226.96104057     Delta=-6.50D-04
 NORM(A)=   0.11533922D+01
 Iteration Nr.   6
 **********************
 DD1Dir will call FoFJK   2 times, MxPair=        66
 NAB=    66 NAA=     0 NBB=     0 NumPrc=  4.
 DD1Dir:  Pass   1 NRAB=    33 NRAA=     0 NRBB=     0 NR=    66.
 DD1Dir:  Pass   2 NRAB=    33 NRAA=     0 NRBB=     0 NR=    66.
 Norm of the A-vectors is  1.6378166D-02 conv= 1.00D-05.
 RLE energy=       -0.7967955975
 DE(Corr)= -0.79666006     E(CORR)=     -226.96113429     Delta=-9.37D-05
 NORM(A)=   0.11536913D+01
 Iteration Nr.   7
 **********************
 DD1Dir will call FoFJK   2 times, MxPair=        66
 NAB=    66 NAA=     0 NBB=     0 NumPrc=  4.
 DD1Dir:  Pass   1 NRAB=    33 NRAA=     0 NRBB=     0 NR=    66.
 DD1Dir:  Pass   2 NRAB=    33 NRAA=     0 NRBB=     0 NR=    66.
 Norm of the A-vectors is  6.1409200D-03 conv= 1.00D-05.
 RLE energy=       -0.7966193835
 DE(Corr)= -0.79666879     E(CORR)=     -226.96114303     Delta=-8.73D-06
 NORM(A)=   0.11536971D+01
 Iteration Nr.   8
 **********************
 DD1Dir will call FoFJK   2 times, MxPair=        66
 NAB=    66 NAA=     0 NBB=     0 NumPrc=  4.
 DD1Dir:  Pass   1 NRAB=    33 NRAA=     0 NRBB=     0 NR=    66.
 DD1Dir:  Pass   2 NRAB=    33 NRAA=     0 NRBB=     0 NR=    66.
 Norm of the A-vectors is  3.3912566D-03 conv= 1.00D-05.
 RLE energy=       -0.7966883412
 DE(Corr)= -0.79669297     E(CORR)=     -226.96116720     Delta=-2.42D-05
 NORM(A)=   0.11537349D+01
 Iteration Nr.   9
 **********************
 DD1Dir will call FoFJK   2 times, MxPair=        66
 NAB=    66 NAA=     0 NBB=     0 NumPrc=  4.
 DD1Dir:  Pass   1 NRAB=    33 NRAA=     0 NRBB=     0 NR=    66.
 DD1Dir:  Pass   2 NRAB=    33 NRAA=     0 NRBB=     0 NR=    66.
 Norm of the A-vectors is  1.5685627D-03 conv= 1.00D-05.
 RLE energy=       -0.7966702013
 DE(Corr)= -0.79666973     E(CORR)=     -226.96114396     Delta= 2.32D-05
 NORM(A)=   0.11537360D+01
 Iteration Nr.  10
 **********************
 DD1Dir will call FoFJK   2 times, MxPair=        66
 NAB=    66 NAA=     0 NBB=     0 NumPrc=  4.
 DD1Dir:  Pass   1 NRAB=    33 NRAA=     0 NRBB=     0 NR=    66.
 DD1Dir:  Pass   2 NRAB=    33 NRAA=     0 NRBB=     0 NR=    66.
 Norm of the A-vectors is  8.3375860D-04 conv= 1.00D-05.
 RLE energy=       -0.7966773544
 DE(Corr)= -0.79668071     E(CORR)=     -226.96115494     Delta=-1.10D-05
 NORM(A)=   0.11537380D+01
 Iteration Nr.  11
 **********************
 DD1Dir will call FoFJK   2 times, MxPair=        66
 NAB=    66 NAA=     0 NBB=     0 NumPrc=  4.
 DD1Dir:  Pass   1 NRAB=    33 NRAA=     0 NRBB=     0 NR=    66.
 DD1Dir:  Pass   2 NRAB=    33 NRAA=     0 NRBB=     0 NR=    66.
 Norm of the A-vectors is  5.5907766D-04 conv= 1.00D-05.
 RLE energy=       -0.7966759851
 DE(Corr)= -0.79667498     E(CORR)=     -226.96114922     Delta= 5.73D-06
 NORM(A)=   0.11537416D+01
 Iteration Nr.  12
 **********************
 DD1Dir will call FoFJK   2 times, MxPair=        66
 NAB=    66 NAA=     0 NBB=     0 NumPrc=  4.
 DD1Dir:  Pass   1 NRAB=    33 NRAA=     0 NRBB=     0 NR=    66.
 DD1Dir:  Pass   2 NRAB=    33 NRAA=     0 NRBB=     0 NR=    66.
 Norm of the A-vectors is  2.9815906D-04 conv= 1.00D-05.
 RLE energy=       -0.7966780730
 DE(Corr)= -0.79667845     E(CORR)=     -226.96115268     Delta=-3.47D-06
 NORM(A)=   0.11537433D+01
 Iteration Nr.  13
 **********************
 DD1Dir will call FoFJK   2 times, MxPair=        66
 NAB=    66 NAA=     0 NBB=     0 NumPrc=  4.
 DD1Dir:  Pass   1 NRAB=    33 NRAA=     0 NRBB=     0 NR=    66.
 DD1Dir:  Pass   2 NRAB=    33 NRAA=     0 NRBB=     0 NR=    66.
 Norm of the A-vectors is  1.4163949D-04 conv= 1.00D-05.
 RLE energy=       -0.7966783778
 DE(Corr)= -0.79667820     E(CORR)=     -226.96115244     Delta= 2.47D-07
 NORM(A)=   0.11537447D+01
 Iteration Nr.  14
 **********************
 DD1Dir will call FoFJK   2 times, MxPair=        66
 NAB=    66 NAA=     0 NBB=     0 NumPrc=  4.
 DD1Dir:  Pass   1 NRAB=    33 NRAA=     0 NRBB=     0 NR=    66.
 DD1Dir:  Pass   2 NRAB=    33 NRAA=     0 NRBB=     0 NR=    66.
 Norm of the A-vectors is  6.7840460D-05 conv= 1.00D-05.
 RLE energy=       -0.7966785556
 DE(Corr)= -0.79667838     E(CORR)=     -226.96115261     Delta=-1.76D-07
 NORM(A)=   0.11537452D+01
 Iteration Nr.  15
 **********************
 DD1Dir will call FoFJK   2 times, MxPair=        66
 NAB=    66 NAA=     0 NBB=     0 NumPrc=  4.
 DD1Dir:  Pass   1 NRAB=    33 NRAA=     0 NRBB=     0 NR=    66.
 DD1Dir:  Pass   2 NRAB=    33 NRAA=     0 NRBB=     0 NR=    66.
 Norm of the A-vectors is  3.2113101D-05 conv= 1.00D-05.
 RLE energy=       -0.7966785255
 DE(Corr)= -0.79667855     E(CORR)=     -226.96115278     Delta=-1.68D-07
 NORM(A)=   0.11537455D+01
 Iteration Nr.  16
 **********************
 DD1Dir will call FoFJK   2 times, MxPair=        66
 NAB=    66 NAA=     0 NBB=     0 NumPrc=  4.
 DD1Dir:  Pass   1 NRAB=    33 NRAA=     0 NRBB=     0 NR=    66.
 DD1Dir:  Pass   2 NRAB=    33 NRAA=     0 NRBB=     0 NR=    66.
 Norm of the A-vectors is  1.6713975D-05 conv= 1.00D-05.
 RLE energy=       -0.7966787172
 DE(Corr)= -0.79667869     E(CORR)=     -226.96115292     Delta=-1.40D-07
 NORM(A)=   0.11537457D+01
 Iteration Nr.  17
 **********************
 DD1Dir will call FoFJK   2 times, MxPair=        66
 NAB=    66 NAA=     0 NBB=     0 NumPrc=  4.
 DD1Dir:  Pass   1 NRAB=    33 NRAA=     0 NRBB=     0 NR=    66.
 DD1Dir:  Pass   2 NRAB=    33 NRAA=     0 NRBB=     0 NR=    66.
 Norm of the A-vectors is  8.1578885D-06 conv= 1.00D-05.
 RLE energy=       -0.7966786520
 DE(Corr)= -0.79667863     E(CORR)=     -226.96115286     Delta= 6.20D-08
 NORM(A)=   0.11537458D+01
 CI/CC converged in   17 iterations to DelEn= 6.20D-08 Conv= 1.00D-07 ErrA1= 8.16D-06 Conv= 1.00D-05
 Dominant configurations:
 ***********************
 Spin Case        I    J    A    B          Value
   ABAB          15   15   17   17      -0.113113D+00
 Largest amplitude= 1.13D-01
 IPart=  1 IA=   11   10.95% done.
 IPart=  2 IA=   20   20.26% done.
 IPart=  1 IA=   30   30.01% done.
 IPart=  3 IA=   42   40.86% done.
 IPart=  3 IA=   53   50.01% done.
 IPart=  3 IA=   67   60.54% done.
 IPart=  3 IA=   82   70.44% done.
 IPart=  2 IA=  100   80.44% done.
 IPart=  2 IA=  123   90.22% done.
 Time for triples=     1585.40 seconds.
 T4(CCSD)= -0.53227776D-01
 T5(CCSD)=  0.29781982D-02
 CCSD(T)= -0.22701140244D+03
 Discarding MO integrals.
 Leave Link  913 at Wed Mar  6 18:07:13 2019, MaxMem=    33554432 cpu:      4755.2
 (Enter /home/proyectos/fulerenos/M3C-v2.0/M3C-deps_CCC/g09-AM64L-G09RevC.01/l601.exe)
 Copying SCF densities to generalized density rwf, IOpCl= 0 IROHF=0.

 **********************************************************************

            Population analysis using the SCF density.

 **********************************************************************

 Orbital symmetries:
       Occupied  (A') (A') (A') (A') (A') (A') (A') (A') (A') (A')
                 (A') (A") (A') (A') (A") (A')
       Virtual   (A") (A') (A') (A') (A") (A') (A') (A") (A') (A')
                 (A") (A') (A") (A') (A") (A') (A') (A') (A') (A")
                 (A') (A') (A') (A") (A") (A') (A') (A') (A") (A')
                 (A') (A') (A") (A') (A') (A') (A") (A") (A') (A")
                 (A') (A") (A') (A') (A") (A') (A') (A') (A") (A')
                 (A') (A") (A') (A") (A') (A') (A") (A') (A') (A")
                 (A') (A') (A") (A') (A') (A') (A') (A") (A') (A')
                 (A') (A") (A") (A') (A') (A") (A') (A") (A') (A')
                 (A") (A') (A") (A') (A') (A") (A') (A') (A") (A')
                 (A") (A') (A") (A') (A') (A") (A') (A') (A") (A')
                 (A') (A") (A") (A') (A") (A') (A") (A') (A') (A")
                 (A') (A") (A') (A') (A") (A') (A") (A') (A') (A')
                 (A") (A') (A") (A') (A') (A') (A') (A") (A') (A")
                 (A') (A') (A") (A') (A") (A') (A') (A") (A') (A")
                 (A') (A') (A') (A") (A') (A') (A") (A') (A") (A')
                 (A") (A') (A") (A') (A") (A') (A") (A') (A') (A")
                 (A") (A') (A') (A") (A') (A') (A') (A') (A') (A")
                 (A") (A') (A') (A') (A') (A') (A') (A')
 The electronic state is 1-A'.
 Alpha  occ. eigenvalues --  -20.68005 -11.43727 -11.32645 -11.32022 -11.30787
 Alpha  occ. eigenvalues --   -1.51729  -1.14588  -1.04071  -0.89076  -0.77750
 Alpha  occ. eigenvalues --   -0.69294  -0.65867  -0.52126  -0.48612  -0.47415
 Alpha  occ. eigenvalues --   -0.35773
 Alpha virt. eigenvalues --   -0.06393   0.05289   0.08542   0.08825   0.08874
 Alpha virt. eigenvalues --    0.09671   0.10753   0.10917   0.13418   0.14167
 Alpha virt. eigenvalues --    0.15350   0.18110   0.18799   0.20155   0.22447
 Alpha virt. eigenvalues --    0.22564   0.26063   0.28641   0.31780   0.32472
 Alpha virt. eigenvalues --    0.33688   0.34559   0.36324   0.36971   0.37400
 Alpha virt. eigenvalues --    0.37739   0.39590   0.42739   0.43856   0.44117
 Alpha virt. eigenvalues --    0.52350   0.56417   0.57195   0.57645   0.58308
 Alpha virt. eigenvalues --    0.62575   0.63035   0.64242   0.65043   0.68709
 Alpha virt. eigenvalues --    0.69696   0.73007   0.74081   0.76572   0.76838
 Alpha virt. eigenvalues --    0.78079   0.81994   0.84811   0.84846   0.86975
 Alpha virt. eigenvalues --    1.01136   1.03115   1.05396   1.07481   1.07531
 Alpha virt. eigenvalues --    1.14013   1.14311   1.15712   1.26462   1.26573
 Alpha virt. eigenvalues --    1.27451   1.32410   1.37998   1.39278   1.46166
 Alpha virt. eigenvalues --    1.51200   1.53944   1.59842   1.59937   1.61417
 Alpha virt. eigenvalues --    1.64541   1.64766   1.71481   1.71520   1.72485
 Alpha virt. eigenvalues --    1.84284   1.85603   1.88835   1.89019   1.92058
 Alpha virt. eigenvalues --    2.03671   2.04705   2.08745   2.08768   2.29744
 Alpha virt. eigenvalues --    2.36595   2.37006   2.39594   2.77527   2.77641
 Alpha virt. eigenvalues --    2.80801   2.80808   2.87374   2.88679   2.93388
 Alpha virt. eigenvalues --    2.94855   2.94862   3.04715   3.07855   3.08718
 Alpha virt. eigenvalues --    3.12240   3.12250   3.15889   3.17546   3.18260
 Alpha virt. eigenvalues --    3.19726   3.29444   3.30249   3.34733   3.35291
 Alpha virt. eigenvalues --    3.35805   3.38576   3.38580   3.47140   3.55073
 Alpha virt. eigenvalues --    3.57837   3.64309   3.64449   3.71898   3.87333
 Alpha virt. eigenvalues --    3.92511   3.92630   4.08186   4.09123   4.25428
 Alpha virt. eigenvalues --    4.42329   4.51020   4.51170   4.51285   4.69648
 Alpha virt. eigenvalues --    4.72061   5.40192   5.40962   5.41014   5.43169
 Alpha virt. eigenvalues --    5.48994   5.61749   5.87465   5.89631   5.94477
 Alpha virt. eigenvalues --    5.94627   6.17769   6.32476   6.45754   6.46788
 Alpha virt. eigenvalues --    7.27193   7.27198   7.32701   7.34524   7.35865
 Alpha virt. eigenvalues --    7.39651   7.44630   7.44719   7.51664   7.51725
 Alpha virt. eigenvalues --    7.64200   7.71940   7.72832   7.74457   7.80256
 Alpha virt. eigenvalues --    7.85593   7.86628   7.90408   8.14800   8.16551
 Alpha virt. eigenvalues --    8.43214   9.11060   9.37795  14.94022  14.94043
 Alpha virt. eigenvalues --   15.51403  15.52183  15.79740  25.42813  27.01133
 Alpha virt. eigenvalues --   27.38919  27.44669  52.37677
          Condensed to atoms (all electrons):
               1          2          3          4          5
     1  C   13.122604  -6.093305   0.538475  -0.758712   0.035602
     2  C   -6.093305  11.453283  -0.725445   0.535487  -0.001957
     3  C    0.538475  -0.725445   6.073020  -0.834033   0.499906
     4  C   -0.758712   0.535487  -0.834033   7.264557  -0.508862
     5  O    0.035602  -0.001957   0.499906  -0.508862   8.712223
 Mulliken charges:
               1
     1  C   -0.844665
     2  C    0.831938
     3  C    0.448077
     4  C    0.301564
     5  O   -0.736913
 Sum of Mulliken charges =  -0.00000
 Mulliken charges with hydrogens summed into heavy atoms:
               1
     1  C   -0.844665
     2  C    0.831938
     3  C    0.448077
     4  C    0.301564
     5  O   -0.736913
 Electronic spatial extent (au):  <R**2>=            453.4196
 Charge=             -0.0000 electrons
 Dipole moment (field-independent basis, Debye):
    X=             -1.1100    Y=             -1.4425    Z=             -0.0000  Tot=              1.8201
 Quadrupole moment (field-independent basis, Debye-Ang):
   XX=            -33.5650   YY=            -36.1999   ZZ=            -25.6932
   XY=             -5.5824   XZ=              0.0000   YZ=             -0.0000
 Traceless Quadrupole moment (field-independent basis, Debye-Ang):
   XX=             -1.7456   YY=             -4.3805   ZZ=              6.1262
   XY=             -5.5824   XZ=              0.0000   YZ=             -0.0000
 Octapole moment (field-independent basis, Debye-Ang**2):
  XXX=            -23.0010  YYY=            -31.3112  ZZZ=             -0.0000  XYY=            -12.2140
  XXY=            -13.5864  XXZ=             -0.0000  XZZ=             -3.5512  YZZ=             -4.8847
  YYZ=              0.0000  XYZ=              0.0000
 Hexadecapole moment (field-independent basis, Debye-Ang**3):
 XXXX=           -273.5383 YYYY=           -457.7468 ZZZZ=            -26.4518 XXXY=           -168.0185
 XXXZ=             -0.0000 YYYX=           -182.9538 YYYZ=             -0.0000 ZZZX=             -0.0000
 ZZZY=             -0.0000 XXYY=           -141.1845 XXZZ=            -40.9169 YYZZ=            -62.9474
 XXYZ=             -0.0000 YYXZ=             -0.0000 ZZXY=            -40.4701
 N-N= 1.080849938672D+02 E-N=-7.450753041673D+02  KE= 2.258460771080D+02
 Symmetry A'   KE= 2.200042849478D+02
 Symmetry A"   KE= 5.841792160192D+00
 Leave Link  601 at Wed Mar  6 18:07:13 2019, MaxMem=    33554432 cpu:         0.4
 (Enter /home/proyectos/fulerenos/M3C-v2.0/M3C-deps_CCC/g09-AM64L-G09RevC.01/l9999.exe)
 1\1\GINC-FOSFORO\SP\RCCSD(T)-FC\6-311++G(3df,2p)\C4O1\NAGUIRRE\06-Mar-
 2019\0\\#p ccsd(t,maxcyc=200)/6-311++G(3df,2p)\\ccsd(t) iener\\0,1\C,0
 ,-1.951319029,-1.8337765,0.056753199\C,0,-0.999061717,-0.946696446,0.0
 279167\C,0,0.983142596,0.677484291,-0.058331068\C,0,-0.065908,-0.06411
 4,0.001227\O,0,1.892829612,1.400922741,-0.100500124\\Version=EM64L-G09
 RevE.01\State=1-A'\HF=-226.1644742\MP2=-226.953166\MP3=-226.9535955\MP
 4D=-226.9782392\MP4DQ=-226.9493584\MP4SDQ=-226.9647942\CCSD=-226.96115
 29\CCSD(T)=-227.0114024\RMSD=2.314e-09\PG=CS [SG(C4O1)]\\@


 THERE IS MORE TO LIFE THAN INCREASING ITS SPEED.

                                       -- GANDHI
 Job cpu time:       0 days  1 hours 26 minutes 27.2 seconds.
 File lengths (MBytes):  RWF=   1939 Int=      0 D2E=      0 Chk=      3 Scr=      1
 Normal termination of Gaussian 09 at Wed Mar  6 18:07:14 2019.
