 Entering Gaussian System, Link 0=/home/proyectos/fulerenos/M3C-v2.0/M3C-deps_CCC/g09-AM64L-G09RevC.01/g09
 Initial command:
 /home/proyectos/fulerenos/M3C-v2.0/M3C-deps_CCC/g09-AM64L-G09RevC.01/l1.exe "/scratch/naguirre/gaussian/Gau-39396.inp" -scrdir="/scratch/naguirre/gaussian/"
 Entering Link 1 = /home/proyectos/fulerenos/M3C-v2.0/M3C-deps_CCC/g09-AM64L-G09RevC.01/l1.exe PID=     39404.
  
 Copyright (c) 1988,1990,1992,1993,1995,1998,2003,2009,2015,
            Gaussian, Inc.  All Rights Reserved.
  
 This is part of the Gaussian(R) 09 program.  It is based on
 the Gaussian(R) 03 system (copyright 2003, Gaussian, Inc.),
 the Gaussian(R) 98 system (copyright 1998, Gaussian, Inc.),
 the Gaussian(R) 94 system (copyright 1995, Gaussian, Inc.),
 the Gaussian 92(TM) system (copyright 1992, Gaussian, Inc.),
 the Gaussian 90(TM) system (copyright 1990, Gaussian, Inc.),
 the Gaussian 88(TM) system (copyright 1988, Gaussian, Inc.),
 the Gaussian 86(TM) system (copyright 1986, Carnegie Mellon
 University), and the Gaussian 82(TM) system (copyright 1983,
 Carnegie Mellon University). Gaussian is a federally registered
 trademark of Gaussian, Inc.
  
 This software contains proprietary and confidential information,
 including trade secrets, belonging to Gaussian, Inc.
  
 This software is provided under written license and may be
 used, copied, transmitted, or stored only in accord with that
 written license.
  
 The following legend is applicable only to US Government
 contracts under FAR:
  
                    RESTRICTED RIGHTS LEGEND
  
 Use, reproduction and disclosure by the US Government is
 subject to restrictions as set forth in subparagraphs (a)
 and (c) of the Commercial Computer Software - Restricted
 Rights clause in FAR 52.227-19.
  
 Gaussian, Inc.
 340 Quinnipiac St., Bldg. 40, Wallingford CT 06492
  
  
 ---------------------------------------------------------------
 Warning -- This program may not be used in any manner that
 competes with the business of Gaussian, Inc. or will provide
 assistance to any competitor of Gaussian, Inc.  The licensee
 of this program is prohibited from giving any competitor of
 Gaussian, Inc. access to this program.  By using this program,
 the user acknowledges that Gaussian, Inc. is engaged in the
 business of creating and licensing software in the field of
 computational chemistry and represents and warrants to the
 licensee that it is not a competitor of Gaussian, Inc. and that
 it will not use this program in any manner prohibited above.
 ---------------------------------------------------------------
  

 Cite this work as:
 Gaussian 09, Revision E.01,
 M. J. Frisch, G. W. Trucks, H. B. Schlegel, G. E. Scuseria, 
 M. A. Robb, J. R. Cheeseman, G. Scalmani, V. Barone, B. Mennucci, 
 G. A. Petersson, H. Nakatsuji, M. Caricato, X. Li, H. P. Hratchian, 
 A. F. Izmaylov, J. Bloino, G. Zheng, J. L. Sonnenberg, M. Hada, 
 M. Ehara, K. Toyota, R. Fukuda, J. Hasegawa, M. Ishida, T. Nakajima, 
 Y. Honda, O. Kitao, H. Nakai, T. Vreven, J. A. Montgomery, Jr., 
 J. E. Peralta, F. Ogliaro, M. Bearpark, J. J. Heyd, E. Brothers, 
 K. N. Kudin, V. N. Staroverov, T. Keith, R. Kobayashi, J. Normand, 
 K. Raghavachari, A. Rendell, J. C. Burant, S. S. Iyengar, J. Tomasi, 
 M. Cossi, N. Rega, J. M. Millam, M. Klene, J. E. Knox, J. B. Cross, 
 V. Bakken, C. Adamo, J. Jaramillo, R. Gomperts, R. E. Stratmann, 
 O. Yazyev, A. J. Austin, R. Cammi, C. Pomelli, J. W. Ochterski, 
 R. L. Martin, K. Morokuma, V. G. Zakrzewski, G. A. Voth, 
 P. Salvador, J. J. Dannenberg, S. Dapprich, A. D. Daniels, 
 O. Farkas, J. B. Foresman, J. V. Ortiz, J. Cioslowski, 
 and D. J. Fox, Gaussian, Inc., Wallingford CT, 2013.
 
 ******************************************
 Gaussian 09:  EM64L-G09RevE.01 30-Nov-2015
                 7-Mar-2019 
 ******************************************
 %NProcShared=4
 Will use up to    4 processors via shared memory.
 --------------------------------------
 #p ccsd(t,maxcyc=200)/6-311++G(3df,2p)
 --------------------------------------
 1/38=1/1;
 2/12=2,17=6,18=5,40=1/2;
 3/5=4,6=6,7=1216,11=9,16=1,25=1,30=1/1,2,3;
 4//1;
 5/5=2,38=5/2;
 8/6=4,9=120000,10=2/1,4;
 9/5=7,6=200,14=2/13;
 6/7=2,8=2,9=2,10=2/1;
 99/5=1,9=1/99;
 Leave Link    1 at Thu Mar  7 00:10:38 2019, MaxMem=           0 cpu:         0.2
 (Enter /home/proyectos/fulerenos/M3C-v2.0/M3C-deps_CCC/g09-AM64L-G09RevC.01/l101.exe)
 -------------
 ccsd(t) iener
 -------------
 Symbolic Z-matrix:
 Charge =  1 Multiplicity = 2
 C                     1.19346   0.91449  -0.33055 
 C                    -1.1395   -0.562     0.17234 
 C                    -1.55123   0.45263  -0.60071 
 C                    -0.25017   0.44246  -0.22407 
 H                    -1.25779  -1.48394   0.72724 
 H                     1.60232   1.48387   0.51461 
 O                     1.75      0.6195   -1.33714 
 
 NAtoms=      7 NQM=        7 NQMF=       0 NMMI=      0 NMMIF=      0
                NMic=       0 NMicF=      0.
                    Isotopes and Nuclear Properties:
 (Nuclear quadrupole moments (NQMom) in fm**2, nuclear magnetic moments (NMagM)
  in nuclear magnetons)

  Atom         1           2           3           4           5           6           7
 IAtWgt=          12          12          12          12           1           1          16
 AtmWgt=  12.0000000  12.0000000  12.0000000  12.0000000   1.0078250   1.0078250  15.9949146
 NucSpn=           0           0           0           0           1           1           0
 AtZEff=   0.0000000   0.0000000   0.0000000   0.0000000   0.0000000   0.0000000   0.0000000
 NQMom=    0.0000000   0.0000000   0.0000000   0.0000000   0.0000000   0.0000000   0.0000000
 NMagM=    0.0000000   0.0000000   0.0000000   0.0000000   2.7928460   2.7928460   0.0000000
 AtZNuc=   6.0000000   6.0000000   6.0000000   6.0000000   1.0000000   1.0000000   8.0000000
 Leave Link  101 at Thu Mar  7 00:10:38 2019, MaxMem=    33554432 cpu:         0.4
 (Enter /home/proyectos/fulerenos/M3C-v2.0/M3C-deps_CCC/g09-AM64L-G09RevC.01/l202.exe)
                          Input orientation:                          
 ---------------------------------------------------------------------
 Center     Atomic      Atomic             Coordinates (Angstroms)
 Number     Number       Type             X           Y           Z
 ---------------------------------------------------------------------
      1          6           0        1.193463    0.914486   -0.330548
      2          6           0       -1.139495   -0.562000    0.172335
      3          6           0       -1.551227    0.452631   -0.600710
      4          6           0       -0.250174    0.442463   -0.224065
      5          1           0       -1.257793   -1.483938    0.727235
      6          1           0        1.602321    1.483867    0.514607
      7          8           0        1.750001    0.619496   -1.337137
 ---------------------------------------------------------------------
                    Distance matrix (angstroms):
                    1          2          3          4          5
     1  C    0.000000
     2  C    2.806349   0.000000
     3  C    2.796358   1.340372   0.000000
     4  C    1.522574   1.398918   1.354512   0.000000
     5  H    3.588871   1.082533   2.366398   2.373034   0.000000
     6  H    1.098019   3.438063   3.500321   2.249866   4.127145
     7  O    1.187424   3.467510   3.386484   2.295859   4.211044
                    6          7
     6  H    0.000000
     7  O    2.048878   0.000000
 Stoichiometry    C4H2O(1+,2)
 Framework group  C1[X(C4H2O)]
 Deg. of freedom    15
 Full point group                 C1      NOp   1
 Largest Abelian subgroup         C1      NOp   1
 Largest concise Abelian subgroup C1      NOp   1
                         Standard orientation:                         
 ---------------------------------------------------------------------
 Center     Atomic      Atomic             Coordinates (Angstroms)
 Number     Number       Type             X           Y           Z
 ---------------------------------------------------------------------
      1          6           0       -1.122793    0.214695    0.418412
      2          6           0        1.592430    0.475798   -0.241120
      3          6           0        1.459746   -0.811651    0.107403
      4          6           0        0.370245   -0.016133    0.229240
      5          1           0        2.125188    1.342963   -0.609999
      6          1           0       -1.445764    0.690674    1.353709
      7          8           0       -1.809649   -0.151236   -0.478415
 ---------------------------------------------------------------------
 Rotational constants (GHZ):     21.8693397      3.5772621      3.4692787
 Leave Link  202 at Thu Mar  7 00:10:38 2019, MaxMem=    33554432 cpu:         0.0
 (Enter /home/proyectos/fulerenos/M3C-v2.0/M3C-deps_CCC/g09-AM64L-G09RevC.01/l301.exe)
 Standard basis: 6-311++G(3df,2p) (5D, 7F)
 Ernie: Thresh=  0.10000D-02 Tol=  0.10000D-05 Strict=F.
 There are   245 symmetry adapted cartesian basis functions of A   symmetry.
 There are   215 symmetry adapted basis functions of A   symmetry.
   215 basis functions,   314 primitive gaussians,   245 cartesian basis functions
    17 alpha electrons       16 beta electrons
       nuclear repulsion energy       131.1192150950 Hartrees.
 IExCor=    0 DFT=F Ex=HF Corr=None ExCW=0 ScaHFX=  1.000000
 ScaDFX=  1.000000  1.000000  1.000000  1.000000 ScalE2=  1.000000  1.000000
 IRadAn=      0 IRanWt=     -1 IRanGd=            0 ICorTp=0 IEmpDi=  4
 NAtoms=    7 NActive=    7 NUniq=    7 SFac= 1.00D+00 NAtFMM=   60 NAOKFM=F Big=F
 Integral buffers will be    131072 words long.
 Raffenetti 2 integral format.
 Two-electron integral symmetry is turned on.
 Leave Link  301 at Thu Mar  7 00:10:38 2019, MaxMem=    33554432 cpu:         0.3
 (Enter /home/proyectos/fulerenos/M3C-v2.0/M3C-deps_CCC/g09-AM64L-G09RevC.01/l302.exe)
 NPDir=0 NMtPBC=     1 NCelOv=     1 NCel=       1 NClECP=     1 NCelD=      1
         NCelK=      1 NCelE2=     1 NClLst=     1 CellRange=     0.0.
 One-electron integrals computed using PRISM.
 NBasis=   215 RedAO= T EigKep=  1.28D-05  NBF=   215
 NBsUse=   215 1.00D-06 EigRej= -1.00D+00 NBFU=   215
 Leave Link  302 at Thu Mar  7 00:10:39 2019, MaxMem=    33554432 cpu:         1.7
 (Enter /home/proyectos/fulerenos/M3C-v2.0/M3C-deps_CCC/g09-AM64L-G09RevC.01/l303.exe)
 DipDrv:  MaxL=1.
 Leave Link  303 at Thu Mar  7 00:10:39 2019, MaxMem=    33554432 cpu:         0.2
 (Enter /home/proyectos/fulerenos/M3C-v2.0/M3C-deps_CCC/g09-AM64L-G09RevC.01/l401.exe)
 ExpMin= 3.60D-02 ExpMax= 8.59D+03 ExpMxC= 1.30D+03 IAcc=3 IRadAn=         5 AccDes= 0.00D+00
 Harris functional with IExCor=  205 and IRadAn=       5 diagonalized for initial guess.
 HarFok:  IExCor=  205 AccDes= 0.00D+00 IRadAn=         5 IDoV= 1 UseB2=F ITyADJ=14
 ICtDFT=  3500011 ScaDFX=  1.000000  1.000000  1.000000  1.000000
 FoFCou: FMM=F IPFlag=           0 FMFlag=      100000 FMFlg1=           0
         NFxFlg=           0 DoJE=T BraDBF=F KetDBF=T FulRan=T
         wScrn=  0.000000 ICntrl=     500 IOpCl=  0 I1Cent=   200000004 NGrid=           0
         NMat0=    1 NMatS0=      1 NMatT0=    0 NMatD0=    1 NMtDS0=    0 NMtDT0=    0
 Petite list used in FoFCou.
 Harris En= -227.241078580881    
 JPrj=0 DoOrth=F DoCkMO=F.
 Initial guess <Sx>= 0.0000 <Sy>= 0.0000 <Sz>= 0.5000 <S**2>= 0.7500 S= 0.5000
 Leave Link  401 at Thu Mar  7 00:10:41 2019, MaxMem=    33554432 cpu:         5.9
 (Enter /home/proyectos/fulerenos/M3C-v2.0/M3C-deps_CCC/g09-AM64L-G09RevC.01/l502.exe)
 UHF open shell SCF:
 Using DIIS extrapolation, IDIIS=  1040.
 Integral symmetry usage will be decided dynamically.
 IVT=      201851 IEndB=      201851 NGot=    33554432 MDV=    33429492
 LenX=    33429492 LenY=    33369026
 Requested convergence on RMS density matrix=1.00D-08 within 128 cycles.
 Requested convergence on MAX density matrix=1.00D-06.
 Requested convergence on             energy=1.00D-06.
 No special actions if energy rises.
 Fock matrices will be formed incrementally for  20 cycles.

 Cycle   1  Pass 0  IDiag  1:
 FoFJK:  IHMeth= 1 ICntrl=       0 DoSepK=F KAlg= 0 I1Cent=   0 FoldK=F
 IRaf= 980000000 NMat=   1 IRICut=       1 DoRegI=T DoRafI=F ISym2E= 0.
 FoFCou: FMM=F IPFlag=           0 FMFlag=      100000 FMFlg1=           0
         NFxFlg=           0 DoJE=F BraDBF=F KetDBF=F FulRan=T
         wScrn=  0.000000 ICntrl=       0 IOpCl=  1 I1Cent=           0 NGrid=           0
         NMat0=    1 NMatS0=      1 NMatT0=    0 NMatD0=    1 NMtDS0=    0 NMtDT0=    0
 Symmetry not used in FoFCou.
 E= -226.976249867020    
 DIIS: error= 2.81D-02 at cycle   1 NSaved=   1.
 NSaved= 1 IEnMin= 1 EnMin= -226.976249867020     IErMin= 1 ErrMin= 2.81D-02
 ErrMax= 2.81D-02  0.00D+00 EMaxC= 1.00D-01 BMatC= 1.49D+00 BMatP= 1.49D+00
 IDIUse=3 WtCom= 7.19D-01 WtEn= 2.81D-01
 Coeff-Com:  0.100D+01
 Coeff-En:   0.100D+01
 Coeff:      0.100D+01
 Gap=     0.580 Goal=   None    Shift=    0.000
 Gap=     0.331 Goal=   None    Shift=    0.000
 GapD=    0.331 DampG=1.000 DampE=0.500 DampFc=0.5000 IDamp=-1.
 Damping current iteration by 5.00D-01
 RMSDP=3.07D-03 MaxDP=2.39D-01              OVMax= 1.34D-01

 Cycle   2  Pass 0  IDiag  1:
 RMSU=  1.48D-03    CP:  9.75D-01
 E= -227.039819819174     Delta-E=       -0.063569952154 Rises=F Damp=T
 DIIS: error= 1.47D-02 at cycle   2 NSaved=   2.
 NSaved= 2 IEnMin= 2 EnMin= -227.039819819174     IErMin= 2 ErrMin= 1.47D-02
 ErrMax= 1.47D-02  0.00D+00 EMaxC= 1.00D-01 BMatC= 3.66D-01 BMatP= 1.49D+00
 IDIUse=3 WtCom= 8.53D-01 WtEn= 1.47D-01
 Coeff-Com: -0.716D+00 0.172D+01
 Coeff-En:   0.000D+00 0.100D+01
 Coeff:     -0.610D+00 0.161D+01
 Gap=     0.557 Goal=   None    Shift=    0.000
 Gap=     0.435 Goal=   None    Shift=    0.000
 RMSDP=2.15D-03 MaxDP=1.98D-01 DE=-6.36D-02 OVMax= 7.81D-02

 Cycle   3  Pass 0  IDiag  1:
 RMSU=  1.38D-03    CP:  9.44D-01  2.06D+00
 E= -227.106802083208     Delta-E=       -0.066982264034 Rises=F Damp=F
 DIIS: error= 5.27D-03 at cycle   3 NSaved=   3.
 NSaved= 3 IEnMin= 3 EnMin= -227.106802083208     IErMin= 3 ErrMin= 5.27D-03
 ErrMax= 5.27D-03  0.00D+00 EMaxC= 1.00D-01 BMatC= 4.24D-02 BMatP= 3.66D-01
 IDIUse=3 WtCom= 9.47D-01 WtEn= 5.27D-02
 Coeff-Com: -0.343D+00 0.621D+00 0.722D+00
 Coeff-En:   0.000D+00 0.000D+00 0.100D+01
 Coeff:     -0.325D+00 0.588D+00 0.737D+00
 Gap=     0.522 Goal=   None    Shift=    0.000
 Gap=     0.418 Goal=   None    Shift=    0.000
 RMSDP=5.94D-04 MaxDP=4.15D-02 DE=-6.70D-02 OVMax= 3.75D-02

 Cycle   4  Pass 0  IDiag  1:
 RMSU=  4.78D-04    CP:  9.47D-01  2.29D+00  1.07D+00
 E= -227.115571732543     Delta-E=       -0.008769649335 Rises=F Damp=F
 DIIS: error= 1.52D-03 at cycle   4 NSaved=   4.
 NSaved= 4 IEnMin= 4 EnMin= -227.115571732543     IErMin= 4 ErrMin= 1.52D-03
 ErrMax= 1.52D-03  0.00D+00 EMaxC= 1.00D-01 BMatC= 1.61D-03 BMatP= 4.24D-02
 IDIUse=3 WtCom= 9.85D-01 WtEn= 1.52D-02
 Coeff-Com:  0.500D-01-0.105D+00-0.264D-04 0.106D+01
 Coeff-En:   0.000D+00 0.000D+00 0.000D+00 0.100D+01
 Coeff:      0.492D-01-0.104D+00-0.260D-04 0.105D+01
 Gap=     0.521 Goal=   None    Shift=    0.000
 Gap=     0.429 Goal=   None    Shift=    0.000
 RMSDP=3.77D-04 MaxDP=3.01D-02 DE=-8.77D-03 OVMax= 2.31D-02

 Cycle   5  Pass 0  IDiag  1:
 RMSU=  1.31D-04    CP:  9.48D-01  2.39D+00  1.26D+00  1.40D+00
 E= -227.116790899826     Delta-E=       -0.001219167283 Rises=F Damp=F
 DIIS: error= 1.02D-03 at cycle   5 NSaved=   5.
 NSaved= 5 IEnMin= 5 EnMin= -227.116790899826     IErMin= 5 ErrMin= 1.02D-03
 ErrMax= 1.02D-03  0.00D+00 EMaxC= 1.00D-01 BMatC= 3.84D-04 BMatP= 1.61D-03
 IDIUse=3 WtCom= 9.90D-01 WtEn= 1.02D-02
 Coeff-Com:  0.466D-01-0.825D-01-0.109D+00-0.172D+00 0.132D+01
 Coeff-En:   0.000D+00 0.000D+00 0.000D+00 0.000D+00 0.100D+01
 Coeff:      0.461D-01-0.817D-01-0.108D+00-0.171D+00 0.131D+01
 Gap=     0.523 Goal=   None    Shift=    0.000
 Gap=     0.438 Goal=   None    Shift=    0.000
 RMSDP=2.68D-04 MaxDP=2.73D-02 DE=-1.22D-03 OVMax= 1.73D-02

 Cycle   6  Pass 0  IDiag  1:
 RMSU=  8.94D-05    CP:  9.47D-01  2.45D+00  1.36D+00  1.72D+00  1.76D+00
 E= -227.117345407528     Delta-E=       -0.000554507702 Rises=F Damp=F
 DIIS: error= 5.07D-04 at cycle   6 NSaved=   6.
 NSaved= 6 IEnMin= 6 EnMin= -227.117345407528     IErMin= 6 ErrMin= 5.07D-04
 ErrMax= 5.07D-04  0.00D+00 EMaxC= 1.00D-01 BMatC= 1.35D-04 BMatP= 3.84D-04
 IDIUse=3 WtCom= 9.95D-01 WtEn= 5.07D-03
 Coeff-Com: -0.273D-01 0.516D-01 0.526D-01-0.161D+00-0.352D+00 0.144D+01
 Coeff-En:   0.000D+00 0.000D+00 0.000D+00 0.000D+00 0.000D+00 0.100D+01
 Coeff:     -0.271D-01 0.513D-01 0.523D-01-0.160D+00-0.350D+00 0.143D+01
 Gap=     0.524 Goal=   None    Shift=    0.000
 Gap=     0.439 Goal=   None    Shift=    0.000
 RMSDP=1.35D-04 MaxDP=1.81D-02 DE=-5.55D-04 OVMax= 9.50D-03

 Cycle   7  Pass 0  IDiag  1:
 RMSU=  4.33D-05    CP:  9.45D-01  2.48D+00  1.39D+00  1.80D+00  2.30D+00
                    CP:  1.88D+00
 E= -227.117548057594     Delta-E=       -0.000202650067 Rises=F Damp=F
 DIIS: error= 3.40D-04 at cycle   7 NSaved=   7.
 NSaved= 7 IEnMin= 7 EnMin= -227.117548057594     IErMin= 7 ErrMin= 3.40D-04
 ErrMax= 3.40D-04  0.00D+00 EMaxC= 1.00D-01 BMatC= 5.23D-05 BMatP= 1.35D-04
 IDIUse=3 WtCom= 9.97D-01 WtEn= 3.40D-03
 Coeff-Com: -0.242D-01 0.436D-01 0.548D-01 0.514D-01-0.529D+00 0.816D-01
 Coeff-Com:  0.132D+01
 Coeff-En:   0.000D+00 0.000D+00 0.000D+00 0.000D+00 0.000D+00 0.000D+00
 Coeff-En:   0.100D+01
 Coeff:     -0.242D-01 0.434D-01 0.546D-01 0.513D-01-0.527D+00 0.813D-01
 Coeff:      0.132D+01
 Gap=     0.525 Goal=   None    Shift=    0.000
 Gap=     0.441 Goal=   None    Shift=    0.000
 RMSDP=1.07D-04 MaxDP=1.40D-02 DE=-2.03D-04 OVMax= 7.08D-03

 Cycle   8  Pass 0  IDiag  1:
 RMSU=  2.88D-05    CP:  9.44D-01  2.49D+00  1.40D+00  1.83D+00  2.71D+00
                    CP:  2.73D+00  1.70D+00
 E= -227.117641124309     Delta-E=       -0.000093066714 Rises=F Damp=F
 DIIS: error= 1.91D-04 at cycle   8 NSaved=   8.
 NSaved= 8 IEnMin= 8 EnMin= -227.117641124309     IErMin= 8 ErrMin= 1.91D-04
 ErrMax= 1.91D-04  0.00D+00 EMaxC= 1.00D-01 BMatC= 1.87D-05 BMatP= 5.23D-05
 IDIUse=3 WtCom= 9.98D-01 WtEn= 1.91D-03
 Coeff-Com:  0.160D-01-0.293D-01-0.377D-01 0.260D-01 0.294D+00-0.448D+00
 Coeff-Com: -0.501D+00 0.168D+01
 Coeff-En:   0.000D+00 0.000D+00 0.000D+00 0.000D+00 0.000D+00 0.000D+00
 Coeff-En:   0.000D+00 0.100D+01
 Coeff:      0.159D-01-0.293D-01-0.376D-01 0.259D-01 0.294D+00-0.447D+00
 Coeff:     -0.500D+00 0.168D+01
 Gap=     0.525 Goal=   None    Shift=    0.000
 Gap=     0.441 Goal=   None    Shift=    0.000
 RMSDP=6.59D-05 MaxDP=7.13D-03 DE=-9.31D-05 OVMax= 4.97D-03

 Cycle   9  Pass 0  IDiag  1:
 RMSU=  1.99D-05    CP:  9.43D-01  2.50D+00  1.40D+00  1.85D+00  2.92D+00
                    CP:  3.00D+00  2.39D+00  1.90D+00
 E= -227.117682090394     Delta-E=       -0.000040966086 Rises=F Damp=F
 DIIS: error= 1.41D-04 at cycle   9 NSaved=   9.
 NSaved= 9 IEnMin= 9 EnMin= -227.117682090394     IErMin= 9 ErrMin= 1.41D-04
 ErrMax= 1.41D-04  0.00D+00 EMaxC= 1.00D-01 BMatC= 8.44D-06 BMatP= 1.87D-05
 IDIUse=3 WtCom= 9.99D-01 WtEn= 1.41D-03
 Coeff-Com: -0.249D-02 0.483D-02 0.735D-02-0.137D-01-0.600D-01 0.302D+00
 Coeff-Com: -0.162D+00-0.928D+00 0.185D+01
 Coeff-En:   0.000D+00 0.000D+00 0.000D+00 0.000D+00 0.000D+00 0.000D+00
 Coeff-En:   0.000D+00 0.000D+00 0.100D+01
 Coeff:     -0.249D-02 0.482D-02 0.734D-02-0.136D-01-0.599D-01 0.301D+00
 Coeff:     -0.162D+00-0.927D+00 0.185D+01
 Gap=     0.525 Goal=   None    Shift=    0.000
 Gap=     0.441 Goal=   None    Shift=    0.000
 RMSDP=3.35D-05 MaxDP=1.94D-03 DE=-4.10D-05 OVMax= 3.01D-03

 Cycle  10  Pass 0  IDiag  1:
 RMSU=  8.71D-06    CP:  9.43D-01  2.50D+00  1.40D+00  1.85D+00  2.98D+00
                    CP:  3.00D+00  2.65D+00  2.45D+00  2.18D+00
 E= -227.117703125245     Delta-E=       -0.000021034850 Rises=F Damp=F
 DIIS: error= 1.12D-04 at cycle  10 NSaved=  10.
 NSaved=10 IEnMin=10 EnMin= -227.117703125245     IErMin=10 ErrMin= 1.12D-04
 ErrMax= 1.12D-04  0.00D+00 EMaxC= 1.00D-01 BMatC= 5.28D-06 BMatP= 8.44D-06
 IDIUse=3 WtCom= 9.99D-01 WtEn= 1.12D-03
 Coeff-Com: -0.230D-02 0.415D-02 0.420D-02-0.482D-03-0.370D-01-0.538D-01
 Coeff-Com:  0.205D+00 0.715D-01-0.891D+00 0.170D+01
 Coeff-En:   0.000D+00 0.000D+00 0.000D+00 0.000D+00 0.000D+00 0.000D+00
 Coeff-En:   0.000D+00 0.000D+00 0.000D+00 0.100D+01
 Coeff:     -0.230D-02 0.414D-02 0.420D-02-0.482D-03-0.369D-01-0.538D-01
 Coeff:      0.204D+00 0.714D-01-0.890D+00 0.170D+01
 Gap=     0.526 Goal=   None    Shift=    0.000
 Gap=     0.441 Goal=   None    Shift=    0.000
 RMSDP=1.90D-05 MaxDP=6.99D-04 DE=-2.10D-05 OVMax= 2.90D-03

 Cycle  11  Pass 0  IDiag  1:
 RMSU=  5.36D-06    CP:  9.43D-01  2.50D+00  1.40D+00  1.85D+00  3.00D+00
                    CP:  3.00D+00  2.75D+00  2.52D+00  2.75D+00  2.49D+00
 E= -227.117716378492     Delta-E=       -0.000013253247 Rises=F Damp=F
 DIIS: error= 1.01D-04 at cycle  11 NSaved=  11.
 NSaved=11 IEnMin=11 EnMin= -227.117716378492     IErMin=11 ErrMin= 1.01D-04
 ErrMax= 1.01D-04  0.00D+00 EMaxC= 1.00D-01 BMatC= 4.63D-06 BMatP= 5.28D-06
 IDIUse=3 WtCom= 9.99D-01 WtEn= 1.01D-03
 Coeff-Com:  0.156D-02-0.291D-02-0.293D-02 0.273D-03 0.321D-01-0.370D-01
 Coeff-Com: -0.751D-01 0.213D+00-0.355D-02-0.106D+01 0.194D+01
 Coeff-En:   0.000D+00 0.000D+00 0.000D+00 0.000D+00 0.000D+00 0.000D+00
 Coeff-En:   0.000D+00 0.000D+00 0.000D+00 0.000D+00 0.100D+01
 Coeff:      0.156D-02-0.291D-02-0.292D-02 0.273D-03 0.321D-01-0.369D-01
 Coeff:     -0.751D-01 0.213D+00-0.354D-02-0.106D+01 0.194D+01
 Gap=     0.526 Goal=   None    Shift=    0.000
 Gap=     0.441 Goal=   None    Shift=    0.000
 RMSDP=1.92D-05 MaxDP=7.08D-04 DE=-1.33D-05 OVMax= 3.44D-03

 Cycle  12  Pass 0  IDiag  1:
 RMSU=  1.09D-05    CP:  9.43D-01  2.50D+00  1.40D+00  1.85D+00  3.00D+00
                    CP:  3.00D+00  2.80D+00  2.57D+00  3.00D+00  3.00D+00
                    CP:  2.74D+00
 E= -227.117730220180     Delta-E=       -0.000013841688 Rises=F Damp=F
 DIIS: error= 9.52D-05 at cycle  12 NSaved=  12.
 NSaved=12 IEnMin=12 EnMin= -227.117730220180     IErMin=12 ErrMin= 9.52D-05
 ErrMax= 9.52D-05  0.00D+00 EMaxC= 1.00D-01 BMatC= 4.31D-06 BMatP= 4.63D-06
 IDIUse=1 WtCom= 1.00D+00 WtEn= 0.00D+00
 Coeff-Com: -0.984D-04 0.241D-03 0.172D-02-0.341D-02-0.137D-01 0.103D+00
 Coeff-Com: -0.863D-01-0.299D+00 0.708D+00-0.132D+00-0.254D+01 0.326D+01
 Coeff:     -0.984D-04 0.241D-03 0.172D-02-0.341D-02-0.137D-01 0.103D+00
 Coeff:     -0.863D-01-0.299D+00 0.708D+00-0.132D+00-0.254D+01 0.326D+01
 Gap=     0.526 Goal=   None    Shift=    0.000
 Gap=     0.441 Goal=   None    Shift=    0.000
 RMSDP=4.11D-05 MaxDP=1.57D-03 DE=-1.38D-05 OVMax= 7.54D-03

 Cycle  13  Pass 0  IDiag  1:
 RMSU=  2.48D-05    CP:  9.43D-01  2.50D+00  1.41D+00  1.85D+00  3.00D+00
                    CP:  3.00D+00  2.89D+00  2.73D+00  3.00D+00  3.00D+00
                    CP:  3.00D+00  3.00D+00
 E= -227.117758320833     Delta-E=       -0.000028100653 Rises=F Damp=F
 DIIS: error= 8.49D-05 at cycle  13 NSaved=  13.
 NSaved=13 IEnMin=13 EnMin= -227.117758320833     IErMin=13 ErrMin= 8.49D-05
 ErrMax= 8.49D-05  0.00D+00 EMaxC= 1.00D-01 BMatC= 3.72D-06 BMatP= 4.31D-06
 IDIUse=1 WtCom= 1.00D+00 WtEn= 0.00D+00
 Coeff-Com: -0.438D-02 0.805D-02 0.746D-02-0.308D-02-0.729D-01-0.726D-02
 Coeff-Com:  0.272D+00-0.167D+00-0.710D+00 0.221D+01-0.901D+00-0.379D+01
 Coeff-Com:  0.416D+01
 Coeff:     -0.438D-02 0.805D-02 0.746D-02-0.308D-02-0.729D-01-0.726D-02
 Coeff:      0.272D+00-0.167D+00-0.710D+00 0.221D+01-0.901D+00-0.379D+01
 Coeff:      0.416D+01
 Gap=     0.527 Goal=   None    Shift=    0.000
 Gap=     0.441 Goal=   None    Shift=    0.000
 RMSDP=1.09D-04 MaxDP=4.15D-03 DE=-2.81D-05 OVMax= 2.00D-02

 Cycle  14  Pass 0  IDiag  1:
 RMSU=  6.79D-05    CP:  9.43D-01  2.50D+00  1.41D+00  1.86D+00  3.00D+00
                    CP:  3.00D+00  3.00D+00  3.00D+00  3.00D+00  3.00D+00
                    CP:  3.00D+00  3.00D+00  3.00D+00
 E= -227.117819860990     Delta-E=       -0.000061540156 Rises=F Damp=F
 DIIS: error= 6.58D-05 at cycle  14 NSaved=  14.
 NSaved=14 IEnMin=14 EnMin= -227.117819860990     IErMin=14 ErrMin= 6.58D-05
 ErrMax= 6.58D-05  0.00D+00 EMaxC= 1.00D-01 BMatC= 2.32D-06 BMatP= 3.72D-06
 IDIUse=1 WtCom= 1.00D+00 WtEn= 0.00D+00
 Coeff-Com:  0.143D-02-0.275D-02-0.240D-02-0.296D-02 0.548D-01-0.143D+00
 Coeff-Com: -0.137D-01 0.576D+00-0.692D+00-0.112D+01 0.475D+01-0.333D+01
 Coeff-Com: -0.167D+01 0.259D+01
 Coeff:      0.143D-02-0.275D-02-0.240D-02-0.296D-02 0.548D-01-0.143D+00
 Coeff:     -0.137D-01 0.576D+00-0.692D+00-0.112D+01 0.475D+01-0.333D+01
 Coeff:     -0.167D+01 0.259D+01
 Gap=     0.529 Goal=   None    Shift=    0.000
 Gap=     0.440 Goal=   None    Shift=    0.000
 RMSDP=1.29D-04 MaxDP=4.91D-03 DE=-6.15D-05 OVMax= 2.37D-02

 Cycle  15  Pass 0  IDiag  1:
 RMSU=  4.39D-05    CP:  9.43D-01  2.50D+00  1.41D+00  1.86D+00  3.00D+00
                    CP:  3.00D+00  3.00D+00  3.00D+00  3.00D+00  3.00D+00
                    CP:  3.00D+00  3.00D+00  3.00D+00  2.79D+00
 E= -227.117863205786     Delta-E=       -0.000043344796 Rises=F Damp=F
 DIIS: error= 3.69D-05 at cycle  15 NSaved=  15.
 NSaved=15 IEnMin=15 EnMin= -227.117863205786     IErMin=15 ErrMin= 3.69D-05
 ErrMax= 3.69D-05  0.00D+00 EMaxC= 1.00D-01 BMatC= 8.38D-07 BMatP= 2.32D-06
 IDIUse=1 WtCom= 1.00D+00 WtEn= 0.00D+00
 Coeff-Com:  0.104D-02-0.200D-02 0.493D-03-0.363D-02 0.225D-01 0.116D-01
 Coeff-Com: -0.118D+00 0.105D+00 0.312D+00-0.109D+01 0.569D+00 0.168D+01
 Coeff-Com: -0.178D+01-0.672D-01 0.136D+01
 Coeff:      0.104D-02-0.200D-02 0.493D-03-0.363D-02 0.225D-01 0.116D-01
 Coeff:     -0.118D+00 0.105D+00 0.312D+00-0.109D+01 0.569D+00 0.168D+01
 Coeff:     -0.178D+01-0.672D-01 0.136D+01
 Gap=     0.529 Goal=   None    Shift=    0.000
 Gap=     0.440 Goal=   None    Shift=    0.000
 RMSDP=2.78D-05 MaxDP=1.10D-03 DE=-4.33D-05 OVMax= 4.99D-03

 Cycle  16  Pass 0  IDiag  1:
 RMSU=  1.24D-05    CP:  9.43D-01  2.50D+00  1.41D+00  1.86D+00  3.00D+00
                    CP:  3.00D+00  3.00D+00  3.00D+00  3.00D+00  3.00D+00
                    CP:  3.00D+00  3.00D+00  3.00D+00  3.00D+00  1.21D+00
 E= -227.117867611161     Delta-E=       -0.000004405375 Rises=F Damp=F
 DIIS: error= 2.03D-05 at cycle  16 NSaved=  16.
 NSaved=16 IEnMin=16 EnMin= -227.117867611161     IErMin=16 ErrMin= 2.03D-05
 ErrMax= 2.03D-05  0.00D+00 EMaxC= 1.00D-01 BMatC= 2.55D-07 BMatP= 8.38D-07
 IDIUse=1 WtCom= 1.00D+00 WtEn= 0.00D+00
 Coeff-Com:  0.382D-03-0.692D-03-0.107D-02 0.220D-02-0.311D-02 0.150D-01
 Coeff-Com: -0.186D-03-0.794D-01 0.672D-01 0.329D+00-0.119D+01 0.861D+00
 Coeff-Com:  0.368D+00-0.746D+00 0.111D+00 0.126D+01
 Coeff:      0.382D-03-0.692D-03-0.107D-02 0.220D-02-0.311D-02 0.150D-01
 Coeff:     -0.186D-03-0.794D-01 0.672D-01 0.329D+00-0.119D+01 0.861D+00
 Coeff:      0.368D+00-0.746D+00 0.111D+00 0.126D+01
 Gap=     0.529 Goal=   None    Shift=    0.000
 Gap=     0.440 Goal=   None    Shift=    0.000
 RMSDP=2.73D-05 MaxDP=1.06D-03 DE=-4.41D-06 OVMax= 5.11D-03

 Cycle  17  Pass 0  IDiag  1:
 RMSU=  9.23D-06    CP:  9.43D-01  2.50D+00  1.41D+00  1.86D+00  3.00D+00
                    CP:  3.00D+00  3.00D+00  3.00D+00  3.00D+00  3.00D+00
                    CP:  3.00D+00  3.00D+00  3.00D+00  3.00D+00  1.43D+00
                    CP:  2.91D+00
 E= -227.117869691015     Delta-E=       -0.000002079854 Rises=F Damp=F
 DIIS: error= 1.07D-05 at cycle  17 NSaved=  17.
 NSaved=17 IEnMin=17 EnMin= -227.117869691015     IErMin=17 ErrMin= 1.07D-05
 ErrMax= 1.07D-05  0.00D+00 EMaxC= 1.00D-01 BMatC= 8.60D-08 BMatP= 2.55D-07
 IDIUse=1 WtCom= 1.00D+00 WtEn= 0.00D+00
 Coeff-Com: -0.214D-03 0.405D-03 0.326D-03-0.474D-03-0.344D-02-0.800D-02
 Coeff-Com:  0.236D-01 0.130D-01-0.110D+00 0.195D+00 0.794D-01-0.525D+00
 Coeff-Com:  0.402D+00 0.893D-01-0.326D+00-0.462D+00 0.163D+01
 Coeff:     -0.214D-03 0.405D-03 0.326D-03-0.474D-03-0.344D-02-0.800D-02
 Coeff:      0.236D-01 0.130D-01-0.110D+00 0.195D+00 0.794D-01-0.525D+00
 Coeff:      0.402D+00 0.893D-01-0.326D+00-0.462D+00 0.163D+01
 Gap=     0.529 Goal=   None    Shift=    0.000
 Gap=     0.440 Goal=   None    Shift=    0.000
 RMSDP=5.10D-06 MaxDP=2.01D-04 DE=-2.08D-06 OVMax= 8.71D-04

 Initial convergence to 1.0D-05 achieved.  Increase integral accuracy.
 Cycle  18  Pass 1  IDiag  1:
 E= -227.117869929627     Delta-E=       -0.000000238613 Rises=F Damp=F
 DIIS: error= 6.65D-06 at cycle   1 NSaved=   1.
 NSaved= 1 IEnMin= 1 EnMin= -227.117869929627     IErMin= 1 ErrMin= 6.65D-06
 ErrMax= 6.65D-06  0.00D+00 EMaxC= 1.00D-01 BMatC= 2.77D-08 BMatP= 2.77D-08
 IDIUse=1 WtCom= 1.00D+00 WtEn= 0.00D+00
 Coeff-Com:  0.100D+01
 Coeff:      0.100D+01
 Gap=     0.529 Goal=   None    Shift=    0.000
 Gap=     0.440 Goal=   None    Shift=    0.000
 RMSDP=5.10D-06 MaxDP=2.01D-04 DE=-2.39D-07 OVMax= 9.52D-05

 Cycle  19  Pass 1  IDiag  1:
 RMSU=  6.79D-07    CP:  1.00D+00
 E= -227.117869956252     Delta-E=       -0.000000026625 Rises=F Damp=F
 DIIS: error= 5.25D-06 at cycle   2 NSaved=   2.
 NSaved= 2 IEnMin= 2 EnMin= -227.117869956252     IErMin= 2 ErrMin= 5.25D-06
 ErrMax= 5.25D-06  0.00D+00 EMaxC= 1.00D-01 BMatC= 1.80D-08 BMatP= 2.77D-08
 IDIUse=1 WtCom= 1.00D+00 WtEn= 0.00D+00
 Coeff-Com: -0.487D+00 0.149D+01
 Coeff:     -0.487D+00 0.149D+01
 Gap=     0.529 Goal=   None    Shift=    0.000
 Gap=     0.440 Goal=   None    Shift=    0.000
 RMSDP=7.44D-07 MaxDP=2.31D-05 DE=-2.66D-08 OVMax= 1.21D-04

 Cycle  20  Pass 1  IDiag  1:
 RMSU=  3.52D-07    CP:  1.00D+00  1.96D+00
 E= -227.117869982520     Delta-E=       -0.000000026268 Rises=F Damp=F
 DIIS: error= 3.88D-06 at cycle   3 NSaved=   3.
 NSaved= 3 IEnMin= 3 EnMin= -227.117869982520     IErMin= 3 ErrMin= 3.88D-06
 ErrMax= 3.88D-06  0.00D+00 EMaxC= 1.00D-01 BMatC= 1.13D-08 BMatP= 1.80D-08
 IDIUse=1 WtCom= 1.00D+00 WtEn= 0.00D+00
 Coeff-Com: -0.926D+00 0.107D+00 0.182D+01
 Coeff:     -0.926D+00 0.107D+00 0.182D+01
 Gap=     0.529 Goal=   None    Shift=    0.000
 Gap=     0.440 Goal=   None    Shift=    0.000
 RMSDP=1.34D-06 MaxDP=4.76D-05 DE=-2.63D-08 OVMax= 2.25D-04

 Cycle  21  Pass 1  IDiag  1:
 RMSU=  5.82D-07    CP:  1.00D+00  3.00D+00  2.48D+00
 E= -227.117870014772     Delta-E=       -0.000000032252 Rises=F Damp=F
 DIIS: error= 2.64D-06 at cycle   4 NSaved=   4.
 NSaved= 4 IEnMin= 4 EnMin= -227.117870014772     IErMin= 4 ErrMin= 2.64D-06
 ErrMax= 2.64D-06  0.00D+00 EMaxC= 1.00D-01 BMatC= 4.35D-09 BMatP= 1.13D-08
 IDIUse=1 WtCom= 1.00D+00 WtEn= 0.00D+00
 Coeff-Com:  0.342D-01-0.485D+00 0.268D+00 0.118D+01
 Coeff:      0.342D-01-0.485D+00 0.268D+00 0.118D+01
 Gap=     0.529 Goal=   None    Shift=    0.000
 Gap=     0.440 Goal=   None    Shift=    0.000
 RMSDP=6.76D-07 MaxDP=2.42D-05 DE=-3.23D-08 OVMax= 1.11D-04

 Cycle  22  Pass 1  IDiag  1:
 RMSU=  2.52D-07    CP:  1.00D+00  3.00D+00  3.00D+00  1.94D+00
 E= -227.117870024669     Delta-E=       -0.000000009898 Rises=F Damp=F
 DIIS: error= 2.02D-06 at cycle   5 NSaved=   5.
 NSaved= 5 IEnMin= 5 EnMin= -227.117870024669     IErMin= 5 ErrMin= 2.02D-06
 ErrMax= 2.02D-06  0.00D+00 EMaxC= 1.00D-01 BMatC= 2.37D-09 BMatP= 4.35D-09
 IDIUse=1 WtCom= 1.00D+00 WtEn= 0.00D+00
 Coeff-Com:  0.476D+00-0.142D+00-0.810D+00 0.409D-01 0.143D+01
 Coeff:      0.476D+00-0.142D+00-0.810D+00 0.409D-01 0.143D+01
 Gap=     0.529 Goal=   None    Shift=    0.000
 Gap=     0.440 Goal=   None    Shift=    0.000
 RMSDP=5.49D-07 MaxDP=2.17D-05 DE=-9.90D-09 OVMax= 7.39D-05

 Cycle  23  Pass 1  IDiag  1:
 RMSU=  2.35D-07    CP:  1.00D+00  3.00D+00  3.00D+00  2.60D+00  2.23D+00
 E= -227.117870030759     Delta-E=       -0.000000006090 Rises=F Damp=F
 DIIS: error= 1.59D-06 at cycle   6 NSaved=   6.
 NSaved= 6 IEnMin= 6 EnMin= -227.117870030759     IErMin= 6 ErrMin= 1.59D-06
 ErrMax= 1.59D-06  0.00D+00 EMaxC= 1.00D-01 BMatC= 1.55D-09 BMatP= 2.37D-09
 IDIUse=1 WtCom= 1.00D+00 WtEn= 0.00D+00
 Coeff-Com: -0.236D+00 0.198D+00 0.357D+00-0.520D+00-0.557D+00 0.176D+01
 Coeff:     -0.236D+00 0.198D+00 0.357D+00-0.520D+00-0.557D+00 0.176D+01
 Gap=     0.529 Goal=   None    Shift=    0.000
 Gap=     0.440 Goal=   None    Shift=    0.000
 RMSDP=4.14D-07 MaxDP=1.60D-05 DE=-6.09D-09 OVMax= 6.12D-05

 Cycle  24  Pass 1  IDiag  1:
 RMSU=  1.70D-07    CP:  1.00D+00  3.00D+00  3.00D+00  2.98D+00  3.00D+00
                    CP:  1.87D+00
 E= -227.117870035039     Delta-E=       -0.000000004279 Rises=F Damp=F
 DIIS: error= 1.50D-06 at cycle   7 NSaved=   7.
 NSaved= 7 IEnMin= 7 EnMin= -227.117870035039     IErMin= 7 ErrMin= 1.50D-06
 ErrMax= 1.50D-06  0.00D+00 EMaxC= 1.00D-01 BMatC= 1.17D-09 BMatP= 1.55D-09
 IDIUse=1 WtCom= 1.00D+00 WtEn= 0.00D+00
 Coeff-Com: -0.239D+00 0.630D-01 0.442D+00-0.661D-01-0.721D+00-0.949D-01
 Coeff-Com:  0.162D+01
 Coeff:     -0.239D+00 0.630D-01 0.442D+00-0.661D-01-0.721D+00-0.949D-01
 Coeff:      0.162D+01
 Gap=     0.529 Goal=   None    Shift=    0.000
 Gap=     0.440 Goal=   None    Shift=    0.000
 RMSDP=4.15D-07 MaxDP=1.61D-05 DE=-4.28D-09 OVMax= 6.93D-05

 Cycle  25  Pass 1  IDiag  1:
 RMSU=  2.44D-07    CP:  1.00D+00  3.00D+00  3.00D+00  3.00D+00  3.00D+00
                    CP:  2.75D+00  2.52D+00
 E= -227.117870039058     Delta-E=       -0.000000004019 Rises=F Damp=F
 DIIS: error= 1.39D-06 at cycle   8 NSaved=   8.
 NSaved= 8 IEnMin= 8 EnMin= -227.117870039058     IErMin= 8 ErrMin= 1.39D-06
 ErrMax= 1.39D-06  0.00D+00 EMaxC= 1.00D-01 BMatC= 9.44D-10 BMatP= 1.17D-09
 IDIUse=1 WtCom= 1.00D+00 WtEn= 0.00D+00
 Coeff-Com:  0.438D+00-0.273D+00-0.661D+00 0.439D+00 0.122D+01-0.168D+01
 Coeff-Com: -0.926D+00 0.244D+01
 Coeff:      0.438D+00-0.273D+00-0.661D+00 0.439D+00 0.122D+01-0.168D+01
 Coeff:     -0.926D+00 0.244D+01
 Gap=     0.529 Goal=   None    Shift=    0.000
 Gap=     0.440 Goal=   None    Shift=    0.000
 RMSDP=5.59D-07 MaxDP=2.13D-05 DE=-4.02D-09 OVMax= 1.02D-04

 Cycle  26  Pass 1  IDiag  1:
 RMSU=  3.72D-07    CP:  1.00D+00  3.00D+00  3.00D+00  3.00D+00  3.00D+00
                    CP:  3.00D+00  3.00D+00  2.27D+00
 E= -227.117870044058     Delta-E=       -0.000000005000 Rises=F Damp=F
 DIIS: error= 1.16D-06 at cycle   9 NSaved=   9.
 NSaved= 9 IEnMin= 9 EnMin= -227.117870044058     IErMin= 9 ErrMin= 1.16D-06
 ErrMax= 1.16D-06  0.00D+00 EMaxC= 1.00D-01 BMatC= 6.82D-10 BMatP= 9.44D-10
 IDIUse=1 WtCom= 1.00D+00 WtEn= 0.00D+00
 Coeff-Com:  0.816D-01 0.201D-01-0.108D+00-0.379D+00 0.453D+00 0.115D+01
 Coeff-Com: -0.147D+01-0.242D+01 0.367D+01
 Coeff:      0.816D-01 0.201D-01-0.108D+00-0.379D+00 0.453D+00 0.115D+01
 Coeff:     -0.147D+01-0.242D+01 0.367D+01
 Gap=     0.529 Goal=   None    Shift=    0.000
 Gap=     0.440 Goal=   None    Shift=    0.000
 RMSDP=1.27D-06 MaxDP=4.82D-05 DE=-5.00D-09 OVMax= 2.34D-04

 Cycle  27  Pass 1  IDiag  1:
 RMSU=  6.14D-07    CP:  1.00D+00  3.00D+00  3.00D+00  3.00D+00  3.00D+00
                    CP:  3.00D+00  3.00D+00  3.00D+00  3.00D+00
 E= -227.117870052100     Delta-E=       -0.000000008042 Rises=F Damp=F
 DIIS: error= 7.53D-07 at cycle  10 NSaved=  10.
 NSaved=10 IEnMin=10 EnMin= -227.117870052100     IErMin=10 ErrMin= 7.53D-07
 ErrMax= 7.53D-07  0.00D+00 EMaxC= 1.00D-01 BMatC= 2.62D-10 BMatP= 6.82D-10
 IDIUse=1 WtCom= 1.00D+00 WtEn= 0.00D+00
 Coeff-Com: -0.332D+00 0.132D+00 0.516D+00 0.595D-01-0.115D+01-0.917D-01
 Coeff-Com:  0.205D+01 0.721D+00-0.355D+01 0.264D+01
 Coeff:     -0.332D+00 0.132D+00 0.516D+00 0.595D-01-0.115D+01-0.917D-01
 Coeff:      0.205D+01 0.721D+00-0.355D+01 0.264D+01
 Gap=     0.529 Goal=   None    Shift=    0.000
 Gap=     0.440 Goal=   None    Shift=    0.000
 RMSDP=9.76D-07 MaxDP=3.72D-05 DE=-8.04D-09 OVMax= 1.81D-04

 Cycle  28  Pass 1  IDiag  1:
 RMSU=  4.21D-07    CP:  1.00D+00  3.00D+00  3.00D+00  3.00D+00  3.00D+00
                    CP:  3.00D+00  3.00D+00  3.00D+00  3.00D+00  2.43D+00
 E= -227.117870055122     Delta-E=       -0.000000003021 Rises=F Damp=F
 DIIS: error= 3.44D-07 at cycle  11 NSaved=  11.
 NSaved=11 IEnMin=11 EnMin= -227.117870055122     IErMin=11 ErrMin= 3.44D-07
 ErrMax= 3.44D-07  0.00D+00 EMaxC= 1.00D-01 BMatC= 7.19D-11 BMatP= 2.62D-10
 IDIUse=1 WtCom= 1.00D+00 WtEn= 0.00D+00
 Coeff-Com:  0.154D+00-0.704D-01-0.258D+00 0.111D+00 0.456D+00-0.355D+00
 Coeff-Com: -0.573D+00 0.415D+00 0.628D+00-0.128D+01 0.177D+01
 Coeff:      0.154D+00-0.704D-01-0.258D+00 0.111D+00 0.456D+00-0.355D+00
 Coeff:     -0.573D+00 0.415D+00 0.628D+00-0.128D+01 0.177D+01
 Gap=     0.529 Goal=   None    Shift=    0.000
 Gap=     0.440 Goal=   None    Shift=    0.000
 RMSDP=3.02D-07 MaxDP=1.14D-05 DE=-3.02D-09 OVMax= 5.54D-05

 Cycle  29  Pass 1  IDiag  1:
 RMSU=  6.73D-08    CP:  1.00D+00  3.00D+00  3.00D+00  3.00D+00  3.00D+00
                    CP:  3.00D+00  3.00D+00  3.00D+00  3.00D+00  2.85D+00
                    CP:  1.35D+00
 E= -227.117870055528     Delta-E=       -0.000000000406 Rises=F Damp=F
 DIIS: error= 1.74D-07 at cycle  12 NSaved=  12.
 NSaved=12 IEnMin=12 EnMin= -227.117870055528     IErMin=12 ErrMin= 1.74D-07
 ErrMax= 1.74D-07  0.00D+00 EMaxC= 1.00D-01 BMatC= 2.51D-11 BMatP= 7.19D-11
 IDIUse=1 WtCom= 1.00D+00 WtEn= 0.00D+00
 Coeff-Com:  0.119D+00-0.474D-01-0.180D+00-0.480D-01 0.437D+00 0.823D-01
 Coeff-Com: -0.771D+00-0.395D+00 0.140D+01-0.840D+00-0.482D+00 0.172D+01
 Coeff:      0.119D+00-0.474D-01-0.180D+00-0.480D-01 0.437D+00 0.823D-01
 Coeff:     -0.771D+00-0.395D+00 0.140D+01-0.840D+00-0.482D+00 0.172D+01
 Gap=     0.529 Goal=   None    Shift=    0.000
 Gap=     0.440 Goal=   None    Shift=    0.000
 RMSDP=1.56D-07 MaxDP=5.47D-06 DE=-4.06D-10 OVMax= 2.62D-05

 Cycle  30  Pass 1  IDiag  1:
 RMSU=  2.64D-08    CP:  1.00D+00  3.00D+00  3.00D+00  3.00D+00  3.00D+00
                    CP:  3.00D+00  3.00D+00  3.00D+00  3.00D+00  3.00D+00
                    CP:  1.54D+00  2.08D+00
 E= -227.117870055629     Delta-E=       -0.000000000101 Rises=F Damp=F
 DIIS: error= 8.50D-08 at cycle  13 NSaved=  13.
 NSaved=13 IEnMin=13 EnMin= -227.117870055629     IErMin=13 ErrMin= 8.50D-08
 ErrMax= 8.50D-08  0.00D+00 EMaxC= 1.00D-01 BMatC= 5.62D-12 BMatP= 2.51D-11
 IDIUse=1 WtCom= 1.00D+00 WtEn= 0.00D+00
 Coeff-Com: -0.437D-01 0.190D-01 0.785D-01-0.425D-01-0.120D+00 0.944D-01
 Coeff-Com:  0.171D+00-0.129D+00-0.175D+00 0.384D+00-0.556D+00 0.699D-01
 Coeff-Com:  0.125D+01
 Coeff:     -0.437D-01 0.190D-01 0.785D-01-0.425D-01-0.120D+00 0.944D-01
 Coeff:      0.171D+00-0.129D+00-0.175D+00 0.384D+00-0.556D+00 0.699D-01
 Coeff:      0.125D+01
 Gap=     0.529 Goal=   None    Shift=    0.000
 Gap=     0.440 Goal=   None    Shift=    0.000
 RMSDP=5.00D-08 MaxDP=3.15D-06 DE=-1.01D-10 OVMax= 7.23D-06

 Cycle  31  Pass 1  IDiag  1:
 RMSU=  1.89D-08    CP:  1.00D+00  3.00D+00  3.00D+00  3.00D+00  3.00D+00
                    CP:  3.00D+00  3.00D+00  3.00D+00  3.00D+00  3.00D+00
                    CP:  1.60D+00  2.53D+00  1.94D+00
 E= -227.117870055641     Delta-E=       -0.000000000012 Rises=F Damp=F
 DIIS: error= 5.73D-08 at cycle  14 NSaved=  14.
 NSaved=14 IEnMin=14 EnMin= -227.117870055641     IErMin=14 ErrMin= 5.73D-08
 ErrMax= 5.73D-08  0.00D+00 EMaxC= 1.00D-01 BMatC= 1.17D-12 BMatP= 5.62D-12
 IDIUse=1 WtCom= 1.00D+00 WtEn= 0.00D+00
 Coeff-Com: -0.345D-01 0.134D-01 0.540D-01 0.690D-02-0.122D+00-0.663D-02
 Coeff-Com:  0.208D+00 0.786D-01-0.360D+00 0.239D+00 0.699D-01-0.381D+00
 Coeff-Com: -0.181D-01 0.125D+01
 Coeff:     -0.345D-01 0.134D-01 0.540D-01 0.690D-02-0.122D+00-0.663D-02
 Coeff:      0.208D+00 0.786D-01-0.360D+00 0.239D+00 0.699D-01-0.381D+00
 Coeff:     -0.181D-01 0.125D+01
 Gap=     0.529 Goal=   None    Shift=    0.000
 Gap=     0.440 Goal=   None    Shift=    0.000
 RMSDP=1.85D-08 MaxDP=1.53D-06 DE=-1.24D-11 OVMax= 2.52D-06

 Cycle  32  Pass 1  IDiag  1:
 RMSU=  5.33D-09    CP:  1.00D+00  3.00D+00  3.00D+00  3.00D+00  3.00D+00
                    CP:  3.00D+00  3.00D+00  3.00D+00  3.00D+00  3.00D+00
                    CP:  1.62D+00  2.69D+00  2.36D+00  1.28D+00
 E= -227.117870055644     Delta-E=       -0.000000000003 Rises=F Damp=F
 DIIS: error= 3.62D-08 at cycle  15 NSaved=  15.
 NSaved=15 IEnMin=15 EnMin= -227.117870055644     IErMin=15 ErrMin= 3.62D-08
 ErrMax= 3.62D-08  0.00D+00 EMaxC= 1.00D-01 BMatC= 2.92D-13 BMatP= 1.17D-12
 IDIUse=1 WtCom= 1.00D+00 WtEn= 0.00D+00
 Coeff-Com:  0.298D-01-0.126D-01-0.488D-01 0.810D-02 0.960D-01-0.221D-01
 Coeff-Com: -0.156D+00-0.938D-02 0.239D+00-0.221D+00 0.813D-01 0.213D+00
 Coeff-Com: -0.323D+00-0.611D+00 0.174D+01
 Coeff:      0.298D-01-0.126D-01-0.488D-01 0.810D-02 0.960D-01-0.221D-01
 Coeff:     -0.156D+00-0.938D-02 0.239D+00-0.221D+00 0.813D-01 0.213D+00
 Coeff:     -0.323D+00-0.611D+00 0.174D+01
 Gap=     0.529 Goal=   None    Shift=    0.000
 Gap=     0.440 Goal=   None    Shift=    0.000
 RMSDP=8.61D-09 MaxDP=7.50D-07 DE=-3.07D-12 OVMax= 9.09D-07

 SCF Done:  E(UHF) =  -227.117870056     A.U. after   32 cycles
            NFock= 32  Conv=0.86D-08     -V/T= 2.0013
 <Sx>= 0.0000 <Sy>= 0.0000 <Sz>= 0.5000 <S**2>= 0.8075 S= 0.5284
 <L.S>= 0.000000000000E+00
 KE= 2.268206774906D+02 PE=-7.857942148227D+02 EE= 2.007364521815D+02
 Annihilation of the first spin contaminant:
 S**2 before annihilation     0.8075,   after     0.7518
 Leave Link  502 at Thu Mar  7 00:14:49 2019, MaxMem=    33554432 cpu:       969.1
 (Enter /home/proyectos/fulerenos/M3C-v2.0/M3C-deps_CCC/g09-AM64L-G09RevC.01/l801.exe)
 Windowed orbitals will be sorted by symmetry type.
 ExpMin= 3.60D-02 ExpMax= 8.59D+03 ExpMxC= 1.30D+03 IAcc=3 IRadAn=         5 AccDes= 0.00D+00
 HarFok:  IExCor=  205 AccDes= 0.00D+00 IRadAn=         5 IDoV=-2 UseB2=F ITyADJ=14
 ICtDFT= 12500011 ScaDFX=  1.000000  1.000000  1.000000  1.000000
 Largest valence mixing into a core orbital is  1.27D-04
 Largest core mixing into a valence orbital is  3.55D-05
 Largest valence mixing into a core orbital is  1.46D-04
 Largest core mixing into a valence orbital is  3.56D-05
 Range of M.O.s used for correlation:     6   215
 NBasis=   215 NAE=    17 NBE=    16 NFC=     5 NFV=     0
 NROrb=    210 NOA=    12 NOB=    11 NVA=   198 NVB=   199

 **** Warning!!: The largest alpha MO coefficient is  0.75204405D+02


 **** Warning!!: The largest beta MO coefficient is  0.76244930D+02

 Leave Link  801 at Thu Mar  7 00:14:49 2019, MaxMem=    33554432 cpu:         0.9
 (Enter /home/proyectos/fulerenos/M3C-v2.0/M3C-deps_CCC/g09-AM64L-G09RevC.01/l804.exe)
 Open-shell transformation, MDV=    33554432 ITran=4 ISComp=1.
 Semi-Direct transformation.
 ModeAB=           2 MOrb=            12 LenV=      32179961
 LASXX=     53430729 LTotXX=    53430729 LenRXX=    53430729
 LTotAB=    54368370 MaxLAS=    75940200 LenRXY=    75940200
 NonZer=   106861458 LenScr=   161837568 LnRSAI=           0
 LnScr1=           0 LExtra=           0 Total=    291208497
 MaxDsk=          -1 SrtSym=           F ITran=            4
 DoSDTr:  NPSUse=  4
 JobTyp=1 Pass  1:  I=   1 to  12.
 Complete sort for first half transformation.
 First half transformation complete.
 Begin second half transformation for I=  10.
 Begin second half transformation for I=  10.
 Complete sort for second half transformation.
 Second half transformation complete.
 ModeAB=           2 MOrb=            11 LenV=      32179961
 LASXX=     49122700 LTotXX=    49122700 LenRXX=    69611850
 LTotAB=    44425755 MaxLAS=    69611850 LenRXY=    44425755
 NonZer=    98245400 LenScr=   148935680 LnRSAI=           0
 LnScr1=           0 LExtra=           0 Total=    262973285
 MaxDsk=          -1 SrtSym=           F ITran=            4
 DoSDTr:  NPSUse=  4
 JobTyp=2 Pass  1:  I=   1 to  11.
 Complete sort for first half transformation.
 First half transformation complete.
 Begin second half transformation for I=  10.
 Begin second half transformation for I=  10.
 Complete sort for second half transformation.
 Second half transformation complete.
 SymMOI:  orbitals are not symmetric.
 Spin components of T(2) and E(2):
     alpha-alpha T2 =       0.3172975222D-01 E2=     -0.1004386173D+00
     alpha-beta  T2 =       0.1747389920D+00 E2=     -0.5692038254D+00
     beta-beta   T2 =       0.3079598591D-01 E2=     -0.9294065151D-01
 ANorm=    0.1112324022D+01
 E2 =    -0.7625830942D+00 EUMP2 =    -0.22788045314985D+03
 (S**2,0)=  0.80752D+00           (S**2,1)=  0.78813D+00
 E(PUHF)=      -0.22712340391D+03        E(PMP2)=      -0.22788507170D+03
 Leave Link  804 at Thu Mar  7 00:18:28 2019, MaxMem=    33554432 cpu:       874.8
 (Enter /home/proyectos/fulerenos/M3C-v2.0/M3C-deps_CCC/g09-AM64L-G09RevC.01/l913.exe)
 CIDS:  MDV=    33554432.
 Frozen-core window:  NFC=   5 NFV=   0.
 IFCWin=0 IBDFC=1 NFBD=     0     0 NFCmp=     0     0 NFFFC=     0     0
 Using original routines for 1st iteration, S=T.
 Using DD4UQ or CC4UQ for 2nd and later iterations.
 Would need an additional       513082735 words for in-memory AO integral storage.
 CCSD(T)
 =======
 Iterations= 200 Convergence= 0.100D-06
 Iteration Nr.   1
 **********************
 DD1Dir will call FoFJK   7 times, MxPair=        56
 NAB=   132 NAA=    66 NBB=    55 NumPrc=  4.
 DD1Dir:  Pass   1 NRAB=    28 NRAA=     0 NRBB=     0 NR=    56.
 FoFJK:  IHMeth= 1 ICntrl=     200 DoSepK=F KAlg= 0 I1Cent=   0 FoldK=F
 IRaf= 990000000 NMat=  56 IRICut=      70 DoRegI=T DoRafI=T ISym2E= 2.
 FoFCou: FMM=F IPFlag=           0 FMFlag=      100000 FMFlg1=           0
         NFxFlg=           0 DoJE=F BraDBF=F KetDBF=F FulRan=T
         wScrn=  0.000000 ICntrl=     200 IOpCl=  0 I1Cent=           0 NGrid=           0
         NMat0=   56 NMatS0=      0 NMatT0=   28 NMatD0=   56 NMtDS0=    0 NMtDT0=    0
 Integrals replicated using symmetry in FoFCou.
 DD1Dir:  Pass   2 NRAB=    28 NRAA=     0 NRBB=     0 NR=    56.
 DD1Dir:  Pass   3 NRAB=    28 NRAA=     0 NRBB=     0 NR=    56.
 DD1Dir:  Pass   4 NRAB=    28 NRAA=     0 NRBB=     0 NR=    56.
 DD1Dir:  Pass   5 NRAB=    20 NRAA=    16 NRBB=     0 NR=    56.
 DD1Dir:  Pass   6 NRAB=     0 NRAA=    50 NRBB=     6 NR=    56.
 DD1Dir:  Pass   7 NRAB=     0 NRAA=     0 NRBB=    49 NR=    49.
 E(PMP3)=      -0.22789695205D+03
 MP4(R+Q)=  0.21263380D-01
 Maximum subspace dimension=  5
 Norm of the A-vectors is  1.0845337D+00 conv= 1.00D-05.
 RLE energy=       -0.7544030243
 E3=       -0.13269309D-01        EUMP3=      -0.22789372246D+03
 E4(DQ)=    0.25194874D-02        UMP4(DQ)=   -0.22789120297D+03
 E4(SDQ)=  -0.89465781D-02        UMP4(SDQ)=  -0.22790266904D+03
 VARIATIONAL ENERGIES WITH THE FIRST-ORDER WAVEFUNCTION:
 DE(Corr)= -0.75431442     E(Corr)=     -227.87218448    
 NORM(A)=   0.11143119D+01
 Iteration Nr.   2
 **********************
 DD1Dir will call FoFJK   7 times, MxPair=        56
 NAB=   132 NAA=    66 NBB=    55 NumPrc=  4.
 DD1Dir:  Pass   1 NRAB=    28 NRAA=     0 NRBB=     0 NR=    56.
 DD1Dir:  Pass   2 NRAB=    28 NRAA=     0 NRBB=     0 NR=    56.
 DD1Dir:  Pass   3 NRAB=    28 NRAA=     0 NRBB=     0 NR=    56.
 DD1Dir:  Pass   4 NRAB=    28 NRAA=     0 NRBB=     0 NR=    56.
 DD1Dir:  Pass   5 NRAB=    20 NRAA=    16 NRBB=     0 NR=    56.
 DD1Dir:  Pass   6 NRAB=     0 NRAA=    50 NRBB=     6 NR=    56.
 DD1Dir:  Pass   7 NRAB=     0 NRAA=     0 NRBB=    49 NR=    49.
 Norm of the A-vectors is  4.5287254D-01 conv= 1.00D-05.
 RLE energy=       -0.7815769880
 DE(Corr)= -0.78006613     E(CORR)=     -227.89793619     Delta=-2.58D-02
 NORM(A)=   0.11265506D+01
 Iteration Nr.   3
 **********************
 DD1Dir will call FoFJK   7 times, MxPair=        56
 NAB=   132 NAA=    66 NBB=    55 NumPrc=  4.
 DD1Dir:  Pass   1 NRAB=    28 NRAA=     0 NRBB=     0 NR=    56.
 DD1Dir:  Pass   2 NRAB=    28 NRAA=     0 NRBB=     0 NR=    56.
 DD1Dir:  Pass   3 NRAB=    28 NRAA=     0 NRBB=     0 NR=    56.
 DD1Dir:  Pass   4 NRAB=    28 NRAA=     0 NRBB=     0 NR=    56.
 DD1Dir:  Pass   5 NRAB=    20 NRAA=    16 NRBB=     0 NR=    56.
 DD1Dir:  Pass   6 NRAB=     0 NRAA=    50 NRBB=     6 NR=    56.
 DD1Dir:  Pass   7 NRAB=     0 NRAA=     0 NRBB=    49 NR=    49.
 Norm of the A-vectors is  1.4964369D-01 conv= 1.00D-05.
 RLE energy=       -0.7839959083
 DE(Corr)= -0.78065078     E(CORR)=     -227.89852083     Delta=-5.85D-04
 NORM(A)=   0.11324082D+01
 Iteration Nr.   4
 **********************
 DD1Dir will call FoFJK   7 times, MxPair=        56
 NAB=   132 NAA=    66 NBB=    55 NumPrc=  4.
 DD1Dir:  Pass   1 NRAB=    28 NRAA=     0 NRBB=     0 NR=    56.
 DD1Dir:  Pass   2 NRAB=    28 NRAA=     0 NRBB=     0 NR=    56.
 DD1Dir:  Pass   3 NRAB=    28 NRAA=     0 NRBB=     0 NR=    56.
 DD1Dir:  Pass   4 NRAB=    28 NRAA=     0 NRBB=     0 NR=    56.
 DD1Dir:  Pass   5 NRAB=    20 NRAA=    16 NRBB=     0 NR=    56.
 DD1Dir:  Pass   6 NRAB=     0 NRAA=    50 NRBB=     6 NR=    56.
 DD1Dir:  Pass   7 NRAB=     0 NRAA=     0 NRBB=    49 NR=    49.
 Norm of the A-vectors is  1.0459680D-01 conv= 1.00D-05.
 RLE energy=       -0.7847749285
 DE(Corr)= -0.78406089     E(CORR)=     -227.90193095     Delta=-3.41D-03
 NORM(A)=   0.11358443D+01
 Iteration Nr.   5
 **********************
 DD1Dir will call FoFJK   7 times, MxPair=        56
 NAB=   132 NAA=    66 NBB=    55 NumPrc=  4.
 DD1Dir:  Pass   1 NRAB=    28 NRAA=     0 NRBB=     0 NR=    56.
 DD1Dir:  Pass   2 NRAB=    28 NRAA=     0 NRBB=     0 NR=    56.
 DD1Dir:  Pass   3 NRAB=    28 NRAA=     0 NRBB=     0 NR=    56.
 DD1Dir:  Pass   4 NRAB=    28 NRAA=     0 NRBB=     0 NR=    56.
 DD1Dir:  Pass   5 NRAB=    20 NRAA=    16 NRBB=     0 NR=    56.
 DD1Dir:  Pass   6 NRAB=     0 NRAA=    50 NRBB=     6 NR=    56.
 DD1Dir:  Pass   7 NRAB=     0 NRAA=     0 NRBB=    49 NR=    49.
 Norm of the A-vectors is  4.4461074D-02 conv= 1.00D-05.
 RLE energy=       -0.7853794444
 DE(Corr)= -0.78498240     E(CORR)=     -227.90285246     Delta=-9.22D-04
 NORM(A)=   0.11381571D+01
 Iteration Nr.   6
 **********************
 DD1Dir will call FoFJK   7 times, MxPair=        56
 NAB=   132 NAA=    66 NBB=    55 NumPrc=  4.
 DD1Dir:  Pass   1 NRAB=    28 NRAA=     0 NRBB=     0 NR=    56.
 DD1Dir:  Pass   2 NRAB=    28 NRAA=     0 NRBB=     0 NR=    56.
 DD1Dir:  Pass   3 NRAB=    28 NRAA=     0 NRBB=     0 NR=    56.
 DD1Dir:  Pass   4 NRAB=    28 NRAA=     0 NRBB=     0 NR=    56.
 DD1Dir:  Pass   5 NRAB=    20 NRAA=    16 NRBB=     0 NR=    56.
 DD1Dir:  Pass   6 NRAB=     0 NRAA=    50 NRBB=     6 NR=    56.
 DD1Dir:  Pass   7 NRAB=     0 NRAA=     0 NRBB=    49 NR=    49.
 Norm of the A-vectors is  2.7496603D-02 conv= 1.00D-05.
 RLE energy=       -0.7853824843
 DE(Corr)= -0.78530325     E(CORR)=     -227.90317331     Delta=-3.21D-04
 NORM(A)=   0.11387048D+01
 Iteration Nr.   7
 **********************
 DD1Dir will call FoFJK   7 times, MxPair=        56
 NAB=   132 NAA=    66 NBB=    55 NumPrc=  4.
 DD1Dir:  Pass   1 NRAB=    28 NRAA=     0 NRBB=     0 NR=    56.
 DD1Dir:  Pass   2 NRAB=    28 NRAA=     0 NRBB=     0 NR=    56.
 DD1Dir:  Pass   3 NRAB=    28 NRAA=     0 NRBB=     0 NR=    56.
 DD1Dir:  Pass   4 NRAB=    28 NRAA=     0 NRBB=     0 NR=    56.
 DD1Dir:  Pass   5 NRAB=    20 NRAA=    16 NRBB=     0 NR=    56.
 DD1Dir:  Pass   6 NRAB=     0 NRAA=    50 NRBB=     6 NR=    56.
 DD1Dir:  Pass   7 NRAB=     0 NRAA=     0 NRBB=    49 NR=    49.
 Norm of the A-vectors is  1.0764982D-02 conv= 1.00D-05.
 RLE energy=       -0.7852784557
 DE(Corr)= -0.78536802     E(CORR)=     -227.90323808     Delta=-6.48D-05
 NORM(A)=   0.11388152D+01
 Iteration Nr.   8
 **********************
 DD1Dir will call FoFJK   7 times, MxPair=        56
 NAB=   132 NAA=    66 NBB=    55 NumPrc=  4.
 DD1Dir:  Pass   1 NRAB=    28 NRAA=     0 NRBB=     0 NR=    56.
 DD1Dir:  Pass   2 NRAB=    28 NRAA=     0 NRBB=     0 NR=    56.
 DD1Dir:  Pass   3 NRAB=    28 NRAA=     0 NRBB=     0 NR=    56.
 DD1Dir:  Pass   4 NRAB=    28 NRAA=     0 NRBB=     0 NR=    56.
 DD1Dir:  Pass   5 NRAB=    20 NRAA=    16 NRBB=     0 NR=    56.
 DD1Dir:  Pass   6 NRAB=     0 NRAA=    50 NRBB=     6 NR=    56.
 DD1Dir:  Pass   7 NRAB=     0 NRAA=     0 NRBB=    49 NR=    49.
 Norm of the A-vectors is  7.7086482D-03 conv= 1.00D-05.
 RLE energy=       -0.7853535660
 DE(Corr)= -0.78536941     E(CORR)=     -227.90323947     Delta=-1.39D-06
 NORM(A)=   0.11388880D+01
 Iteration Nr.   9
 **********************
 DD1Dir will call FoFJK   7 times, MxPair=        56
 NAB=   132 NAA=    66 NBB=    55 NumPrc=  4.
 DD1Dir:  Pass   1 NRAB=    28 NRAA=     0 NRBB=     0 NR=    56.
 DD1Dir:  Pass   2 NRAB=    28 NRAA=     0 NRBB=     0 NR=    56.
 DD1Dir:  Pass   3 NRAB=    28 NRAA=     0 NRBB=     0 NR=    56.
 DD1Dir:  Pass   4 NRAB=    28 NRAA=     0 NRBB=     0 NR=    56.
 DD1Dir:  Pass   5 NRAB=    20 NRAA=    16 NRBB=     0 NR=    56.
 DD1Dir:  Pass   6 NRAB=     0 NRAA=    50 NRBB=     6 NR=    56.
 DD1Dir:  Pass   7 NRAB=     0 NRAA=     0 NRBB=    49 NR=    49.
 Norm of the A-vectors is  4.4570389D-03 conv= 1.00D-05.
 RLE energy=       -0.7853433180
 DE(Corr)= -0.78536011     E(CORR)=     -227.90323017     Delta= 9.30D-06
 NORM(A)=   0.11389176D+01
 Iteration Nr.  10
 **********************
 DD1Dir will call FoFJK   7 times, MxPair=        56
 NAB=   132 NAA=    66 NBB=    55 NumPrc=  4.
 DD1Dir:  Pass   1 NRAB=    28 NRAA=     0 NRBB=     0 NR=    56.
 DD1Dir:  Pass   2 NRAB=    28 NRAA=     0 NRBB=     0 NR=    56.
 DD1Dir:  Pass   3 NRAB=    28 NRAA=     0 NRBB=     0 NR=    56.
 DD1Dir:  Pass   4 NRAB=    28 NRAA=     0 NRBB=     0 NR=    56.
 DD1Dir:  Pass   5 NRAB=    20 NRAA=    16 NRBB=     0 NR=    56.
 DD1Dir:  Pass   6 NRAB=     0 NRAA=    50 NRBB=     6 NR=    56.
 DD1Dir:  Pass   7 NRAB=     0 NRAA=     0 NRBB=    49 NR=    49.
 Norm of the A-vectors is  4.1104740D-03 conv= 1.00D-05.
 RLE energy=       -0.7853534408
 DE(Corr)= -0.78536127     E(CORR)=     -227.90323133     Delta=-1.16D-06
 NORM(A)=   0.11389431D+01
 Iteration Nr.  11
 **********************
 DD1Dir will call FoFJK   7 times, MxPair=        56
 NAB=   132 NAA=    66 NBB=    55 NumPrc=  4.
 DD1Dir:  Pass   1 NRAB=    28 NRAA=     0 NRBB=     0 NR=    56.
 DD1Dir:  Pass   2 NRAB=    28 NRAA=     0 NRBB=     0 NR=    56.
 DD1Dir:  Pass   3 NRAB=    28 NRAA=     0 NRBB=     0 NR=    56.
 DD1Dir:  Pass   4 NRAB=    28 NRAA=     0 NRBB=     0 NR=    56.
 DD1Dir:  Pass   5 NRAB=    20 NRAA=    16 NRBB=     0 NR=    56.
 DD1Dir:  Pass   6 NRAB=     0 NRAA=    50 NRBB=     6 NR=    56.
 DD1Dir:  Pass   7 NRAB=     0 NRAA=     0 NRBB=    49 NR=    49.
 Norm of the A-vectors is  2.2924774D-03 conv= 1.00D-05.
 RLE energy=       -0.7853676506
 DE(Corr)= -0.78536468     E(CORR)=     -227.90323474     Delta=-3.41D-06
 NORM(A)=   0.11389782D+01
 Iteration Nr.  12
 **********************
 DD1Dir will call FoFJK   7 times, MxPair=        56
 NAB=   132 NAA=    66 NBB=    55 NumPrc=  4.
 DD1Dir:  Pass   1 NRAB=    28 NRAA=     0 NRBB=     0 NR=    56.
 DD1Dir:  Pass   2 NRAB=    28 NRAA=     0 NRBB=     0 NR=    56.
 DD1Dir:  Pass   3 NRAB=    28 NRAA=     0 NRBB=     0 NR=    56.
 DD1Dir:  Pass   4 NRAB=    28 NRAA=     0 NRBB=     0 NR=    56.
 DD1Dir:  Pass   5 NRAB=    20 NRAA=    16 NRBB=     0 NR=    56.
 DD1Dir:  Pass   6 NRAB=     0 NRAA=    50 NRBB=     6 NR=    56.
 DD1Dir:  Pass   7 NRAB=     0 NRAA=     0 NRBB=    49 NR=    49.
 Norm of the A-vectors is  1.2520271D-03 conv= 1.00D-05.
 RLE energy=       -0.7853720018
 DE(Corr)= -0.78536937     E(CORR)=     -227.90323943     Delta=-4.69D-06
 NORM(A)=   0.11390093D+01
 Iteration Nr.  13
 **********************
 DD1Dir will call FoFJK   7 times, MxPair=        56
 NAB=   132 NAA=    66 NBB=    55 NumPrc=  4.
 DD1Dir:  Pass   1 NRAB=    28 NRAA=     0 NRBB=     0 NR=    56.
 DD1Dir:  Pass   2 NRAB=    28 NRAA=     0 NRBB=     0 NR=    56.
 DD1Dir:  Pass   3 NRAB=    28 NRAA=     0 NRBB=     0 NR=    56.
 DD1Dir:  Pass   4 NRAB=    28 NRAA=     0 NRBB=     0 NR=    56.
 DD1Dir:  Pass   5 NRAB=    20 NRAA=    16 NRBB=     0 NR=    56.
 DD1Dir:  Pass   6 NRAB=     0 NRAA=    50 NRBB=     6 NR=    56.
 DD1Dir:  Pass   7 NRAB=     0 NRAA=     0 NRBB=    49 NR=    49.
 Norm of the A-vectors is  8.5754914D-04 conv= 1.00D-05.
 RLE energy=       -0.7853790795
 DE(Corr)= -0.78537573     E(CORR)=     -227.90324578     Delta=-6.36D-06
 NORM(A)=   0.11390343D+01
 Iteration Nr.  14
 **********************
 DD1Dir will call FoFJK   7 times, MxPair=        56
 NAB=   132 NAA=    66 NBB=    55 NumPrc=  4.
 DD1Dir:  Pass   1 NRAB=    28 NRAA=     0 NRBB=     0 NR=    56.
 DD1Dir:  Pass   2 NRAB=    28 NRAA=     0 NRBB=     0 NR=    56.
 DD1Dir:  Pass   3 NRAB=    28 NRAA=     0 NRBB=     0 NR=    56.
 DD1Dir:  Pass   4 NRAB=    28 NRAA=     0 NRBB=     0 NR=    56.
 DD1Dir:  Pass   5 NRAB=    20 NRAA=    16 NRBB=     0 NR=    56.
 DD1Dir:  Pass   6 NRAB=     0 NRAA=    50 NRBB=     6 NR=    56.
 DD1Dir:  Pass   7 NRAB=     0 NRAA=     0 NRBB=    49 NR=    49.
 Norm of the A-vectors is  5.1844151D-04 conv= 1.00D-05.
 RLE energy=       -0.7853828542
 DE(Corr)= -0.78538023     E(CORR)=     -227.90325029     Delta=-4.50D-06
 NORM(A)=   0.11390507D+01
 Iteration Nr.  15
 **********************
 DD1Dir will call FoFJK   7 times, MxPair=        56
 NAB=   132 NAA=    66 NBB=    55 NumPrc=  4.
 DD1Dir:  Pass   1 NRAB=    28 NRAA=     0 NRBB=     0 NR=    56.
 DD1Dir:  Pass   2 NRAB=    28 NRAA=     0 NRBB=     0 NR=    56.
 DD1Dir:  Pass   3 NRAB=    28 NRAA=     0 NRBB=     0 NR=    56.
 DD1Dir:  Pass   4 NRAB=    28 NRAA=     0 NRBB=     0 NR=    56.
 DD1Dir:  Pass   5 NRAB=    20 NRAA=    16 NRBB=     0 NR=    56.
 DD1Dir:  Pass   6 NRAB=     0 NRAA=    50 NRBB=     6 NR=    56.
 DD1Dir:  Pass   7 NRAB=     0 NRAA=     0 NRBB=    49 NR=    49.
 Norm of the A-vectors is  3.1759965D-04 conv= 1.00D-05.
 RLE energy=       -0.7853842453
 DE(Corr)= -0.78538307     E(CORR)=     -227.90325313     Delta=-2.84D-06
 NORM(A)=   0.11390582D+01
 Iteration Nr.  16
 **********************
 DD1Dir will call FoFJK   7 times, MxPair=        56
 NAB=   132 NAA=    66 NBB=    55 NumPrc=  4.
 DD1Dir:  Pass   1 NRAB=    28 NRAA=     0 NRBB=     0 NR=    56.
 DD1Dir:  Pass   2 NRAB=    28 NRAA=     0 NRBB=     0 NR=    56.
 DD1Dir:  Pass   3 NRAB=    28 NRAA=     0 NRBB=     0 NR=    56.
 DD1Dir:  Pass   4 NRAB=    28 NRAA=     0 NRBB=     0 NR=    56.
 DD1Dir:  Pass   5 NRAB=    20 NRAA=    16 NRBB=     0 NR=    56.
 DD1Dir:  Pass   6 NRAB=     0 NRAA=    50 NRBB=     6 NR=    56.
 DD1Dir:  Pass   7 NRAB=     0 NRAA=     0 NRBB=    49 NR=    49.
 Norm of the A-vectors is  1.8833921D-04 conv= 1.00D-05.
 RLE energy=       -0.7853848789
 DE(Corr)= -0.78538431     E(CORR)=     -227.90325437     Delta=-1.24D-06
 NORM(A)=   0.11390624D+01
 Iteration Nr.  17
 **********************
 DD1Dir will call FoFJK   7 times, MxPair=        56
 NAB=   132 NAA=    66 NBB=    55 NumPrc=  4.
 DD1Dir:  Pass   1 NRAB=    28 NRAA=     0 NRBB=     0 NR=    56.
 DD1Dir:  Pass   2 NRAB=    28 NRAA=     0 NRBB=     0 NR=    56.
 DD1Dir:  Pass   3 NRAB=    28 NRAA=     0 NRBB=     0 NR=    56.
 DD1Dir:  Pass   4 NRAB=    28 NRAA=     0 NRBB=     0 NR=    56.
 DD1Dir:  Pass   5 NRAB=    20 NRAA=    16 NRBB=     0 NR=    56.
 DD1Dir:  Pass   6 NRAB=     0 NRAA=    50 NRBB=     6 NR=    56.
 DD1Dir:  Pass   7 NRAB=     0 NRAA=     0 NRBB=    49 NR=    49.
 Norm of the A-vectors is  1.3447220D-04 conv= 1.00D-05.
 RLE energy=       -0.7853849210
 DE(Corr)= -0.78538485     E(CORR)=     -227.90325491     Delta=-5.43D-07
 NORM(A)=   0.11390636D+01
 Iteration Nr.  18
 **********************
 DD1Dir will call FoFJK   7 times, MxPair=        56
 NAB=   132 NAA=    66 NBB=    55 NumPrc=  4.
 DD1Dir:  Pass   1 NRAB=    28 NRAA=     0 NRBB=     0 NR=    56.
 DD1Dir:  Pass   2 NRAB=    28 NRAA=     0 NRBB=     0 NR=    56.
 DD1Dir:  Pass   3 NRAB=    28 NRAA=     0 NRBB=     0 NR=    56.
 DD1Dir:  Pass   4 NRAB=    28 NRAA=     0 NRBB=     0 NR=    56.
 DD1Dir:  Pass   5 NRAB=    20 NRAA=    16 NRBB=     0 NR=    56.
 DD1Dir:  Pass   6 NRAB=     0 NRAA=    50 NRBB=     6 NR=    56.
 DD1Dir:  Pass   7 NRAB=     0 NRAA=     0 NRBB=    49 NR=    49.
 Norm of the A-vectors is  7.3878559D-05 conv= 1.00D-05.
 RLE energy=       -0.7853848300
 DE(Corr)= -0.78538491     E(CORR)=     -227.90325497     Delta=-6.29D-08
 NORM(A)=   0.11390644D+01
 Iteration Nr.  19
 **********************
 DD1Dir will call FoFJK   7 times, MxPair=        56
 NAB=   132 NAA=    66 NBB=    55 NumPrc=  4.
 DD1Dir:  Pass   1 NRAB=    28 NRAA=     0 NRBB=     0 NR=    56.
 DD1Dir:  Pass   2 NRAB=    28 NRAA=     0 NRBB=     0 NR=    56.
 DD1Dir:  Pass   3 NRAB=    28 NRAA=     0 NRBB=     0 NR=    56.
 DD1Dir:  Pass   4 NRAB=    28 NRAA=     0 NRBB=     0 NR=    56.
 DD1Dir:  Pass   5 NRAB=    20 NRAA=    16 NRBB=     0 NR=    56.
 DD1Dir:  Pass   6 NRAB=     0 NRAA=    50 NRBB=     6 NR=    56.
 DD1Dir:  Pass   7 NRAB=     0 NRAA=     0 NRBB=    49 NR=    49.
 Norm of the A-vectors is  6.2171857D-05 conv= 1.00D-05.
 RLE energy=       -0.7853847463
 DE(Corr)= -0.78538487     E(CORR)=     -227.90325493     Delta= 4.42D-08
 NORM(A)=   0.11390649D+01
 Iteration Nr.  20
 **********************
 DD1Dir will call FoFJK   7 times, MxPair=        56
 NAB=   132 NAA=    66 NBB=    55 NumPrc=  4.
 DD1Dir:  Pass   1 NRAB=    28 NRAA=     0 NRBB=     0 NR=    56.
 DD1Dir:  Pass   2 NRAB=    28 NRAA=     0 NRBB=     0 NR=    56.
 DD1Dir:  Pass   3 NRAB=    28 NRAA=     0 NRBB=     0 NR=    56.
 DD1Dir:  Pass   4 NRAB=    28 NRAA=     0 NRBB=     0 NR=    56.
 DD1Dir:  Pass   5 NRAB=    20 NRAA=    16 NRBB=     0 NR=    56.
 DD1Dir:  Pass   6 NRAB=     0 NRAA=    50 NRBB=     6 NR=    56.
 DD1Dir:  Pass   7 NRAB=     0 NRAA=     0 NRBB=    49 NR=    49.
 Norm of the A-vectors is  5.0956129D-05 conv= 1.00D-05.
 RLE energy=       -0.7853848463
 DE(Corr)= -0.78538488     E(CORR)=     -227.90325494     Delta=-1.35D-08
 NORM(A)=   0.11390654D+01
 Iteration Nr.  21
 **********************
 DD1Dir will call FoFJK   7 times, MxPair=        56
 NAB=   132 NAA=    66 NBB=    55 NumPrc=  4.
 DD1Dir:  Pass   1 NRAB=    28 NRAA=     0 NRBB=     0 NR=    56.
 DD1Dir:  Pass   2 NRAB=    28 NRAA=     0 NRBB=     0 NR=    56.
 DD1Dir:  Pass   3 NRAB=    28 NRAA=     0 NRBB=     0 NR=    56.
 DD1Dir:  Pass   4 NRAB=    28 NRAA=     0 NRBB=     0 NR=    56.
 DD1Dir:  Pass   5 NRAB=    20 NRAA=    16 NRBB=     0 NR=    56.
 DD1Dir:  Pass   6 NRAB=     0 NRAA=    50 NRBB=     6 NR=    56.
 DD1Dir:  Pass   7 NRAB=     0 NRAA=     0 NRBB=    49 NR=    49.
 Norm of the A-vectors is  3.6152149D-05 conv= 1.00D-05.
 RLE energy=       -0.7853848683
 DE(Corr)= -0.78538487     E(CORR)=     -227.90325492     Delta= 1.89D-08
 NORM(A)=   0.11390659D+01
 Iteration Nr.  22
 **********************
 DD1Dir will call FoFJK   7 times, MxPair=        56
 NAB=   132 NAA=    66 NBB=    55 NumPrc=  4.
 DD1Dir:  Pass   1 NRAB=    28 NRAA=     0 NRBB=     0 NR=    56.
 DD1Dir:  Pass   2 NRAB=    28 NRAA=     0 NRBB=     0 NR=    56.
 DD1Dir:  Pass   3 NRAB=    28 NRAA=     0 NRBB=     0 NR=    56.
 DD1Dir:  Pass   4 NRAB=    28 NRAA=     0 NRBB=     0 NR=    56.
 DD1Dir:  Pass   5 NRAB=    20 NRAA=    16 NRBB=     0 NR=    56.
 DD1Dir:  Pass   6 NRAB=     0 NRAA=    50 NRBB=     6 NR=    56.
 DD1Dir:  Pass   7 NRAB=     0 NRAA=     0 NRBB=    49 NR=    49.
 Norm of the A-vectors is  2.5160737D-05 conv= 1.00D-05.
 RLE energy=       -0.7853849509
 DE(Corr)= -0.78538493     E(CORR)=     -227.90325499     Delta=-6.61D-08
 NORM(A)=   0.11390663D+01
 Iteration Nr.  23
 **********************
 DD1Dir will call FoFJK   7 times, MxPair=        56
 NAB=   132 NAA=    66 NBB=    55 NumPrc=  4.
 DD1Dir:  Pass   1 NRAB=    28 NRAA=     0 NRBB=     0 NR=    56.
 DD1Dir:  Pass   2 NRAB=    28 NRAA=     0 NRBB=     0 NR=    56.
 DD1Dir:  Pass   3 NRAB=    28 NRAA=     0 NRBB=     0 NR=    56.
 DD1Dir:  Pass   4 NRAB=    28 NRAA=     0 NRBB=     0 NR=    56.
 DD1Dir:  Pass   5 NRAB=    20 NRAA=    16 NRBB=     0 NR=    56.
 DD1Dir:  Pass   6 NRAB=     0 NRAA=    50 NRBB=     6 NR=    56.
 DD1Dir:  Pass   7 NRAB=     0 NRAA=     0 NRBB=    49 NR=    49.
 Norm of the A-vectors is  1.5680542D-05 conv= 1.00D-05.
 RLE energy=       -0.7853850117
 DE(Corr)= -0.78538497     E(CORR)=     -227.90325503     Delta=-4.32D-08
 NORM(A)=   0.11390666D+01
 Iteration Nr.  24
 **********************
 DD1Dir will call FoFJK   7 times, MxPair=        56
 NAB=   132 NAA=    66 NBB=    55 NumPrc=  4.
 DD1Dir:  Pass   1 NRAB=    28 NRAA=     0 NRBB=     0 NR=    56.
 DD1Dir:  Pass   2 NRAB=    28 NRAA=     0 NRBB=     0 NR=    56.
 DD1Dir:  Pass   3 NRAB=    28 NRAA=     0 NRBB=     0 NR=    56.
 DD1Dir:  Pass   4 NRAB=    28 NRAA=     0 NRBB=     0 NR=    56.
 DD1Dir:  Pass   5 NRAB=    20 NRAA=    16 NRBB=     0 NR=    56.
 DD1Dir:  Pass   6 NRAB=     0 NRAA=    50 NRBB=     6 NR=    56.
 DD1Dir:  Pass   7 NRAB=     0 NRAA=     0 NRBB=    49 NR=    49.
 Norm of the A-vectors is  1.0851095D-05 conv= 1.00D-05.
 RLE energy=       -0.7853850403
 DE(Corr)= -0.78538502     E(CORR)=     -227.90325507     Delta=-4.35D-08
 NORM(A)=   0.11390668D+01
 Iteration Nr.  25
 **********************
 DD1Dir will call FoFJK   7 times, MxPair=        56
 NAB=   132 NAA=    66 NBB=    55 NumPrc=  4.
 DD1Dir:  Pass   1 NRAB=    28 NRAA=     0 NRBB=     0 NR=    56.
 DD1Dir:  Pass   2 NRAB=    28 NRAA=     0 NRBB=     0 NR=    56.
 DD1Dir:  Pass   3 NRAB=    28 NRAA=     0 NRBB=     0 NR=    56.
 DD1Dir:  Pass   4 NRAB=    28 NRAA=     0 NRBB=     0 NR=    56.
 DD1Dir:  Pass   5 NRAB=    20 NRAA=    16 NRBB=     0 NR=    56.
 DD1Dir:  Pass   6 NRAB=     0 NRAA=    50 NRBB=     6 NR=    56.
 DD1Dir:  Pass   7 NRAB=     0 NRAA=     0 NRBB=    49 NR=    49.
 Norm of the A-vectors is  6.3817523D-06 conv= 1.00D-05.
 RLE energy=       -0.7853850736
 DE(Corr)= -0.78538506     E(CORR)=     -227.90325511     Delta=-4.06D-08
 NORM(A)=   0.11390669D+01
 CI/CC converged in   25 iterations to DelEn=-4.06D-08 Conv= 1.00D-07 ErrA1= 6.38D-06 Conv= 1.00D-05
 Largest amplitude= 5.69D-02
 Time for triples=     6515.25 seconds.
 T4(CCSD)= -0.43704864D-01
 T5(CCSD)=  0.22879471D-02
 CCSD(T)= -0.22794467203D+03

 S**2, projected HF & approx projected MPn energies after annihilation of
 unwanted spin states (see manual for definitions):

 spins       (S**2,0) (S**2,1)    PUHF        PMP2        PMP3        PMP4
 annihilated
 s+1         0.74891  0.74984 -227.123404 -227.885072 -227.896952
 s+1,s+2     0.75001  0.75000 -227.123300 -227.884977 -227.896869
 s+1 to s+3  0.75000  0.75000 -227.123300 -227.884978 -227.896869
 s+1 to s+4  0.75000  0.75000 -227.123300 -227.884978 -227.896869
 s+1 to s+5  0.75000  0.75000 -227.123300
 s+1 to s+6  0.75000  0.75000 -227.123300

 Discarding MO integrals.
 Leave Link  913 at Thu Mar  7 02:51:59 2019, MaxMem=    33554432 cpu:     36714.2
 (Enter /home/proyectos/fulerenos/M3C-v2.0/M3C-deps_CCC/g09-AM64L-G09RevC.01/l601.exe)
 Copying SCF densities to generalized density rwf, IOpCl= 1 IROHF=0.

 **********************************************************************

            Population analysis using the SCF density.

 **********************************************************************

 Orbital symmetries:
 Alpha Orbitals:
       Occupied  (A) (A) (A) (A) (A) (A) (A) (A) (A) (A) (A) (A)
                 (A) (A) (A) (A) (A)
       Virtual   (A) (A) (A) (A) (A) (A) (A) (A) (A) (A) (A) (A)
                 (A) (A) (A) (A) (A) (A) (A) (A) (A) (A) (A) (A)
                 (A) (A) (A) (A) (A) (A) (A) (A) (A) (A) (A) (A)
                 (A) (A) (A) (A) (A) (A) (A) (A) (A) (A) (A) (A)
                 (A) (A) (A) (A) (A) (A) (A) (A) (A) (A) (A) (A)
                 (A) (A) (A) (A) (A) (A) (A) (A) (A) (A) (A) (A)
                 (A) (A) (A) (A) (A) (A) (A) (A) (A) (A) (A) (A)
                 (A) (A) (A) (A) (A) (A) (A) (A) (A) (A) (A) (A)
                 (A) (A) (A) (A) (A) (A) (A) (A) (A) (A) (A) (A)
                 (A) (A) (A) (A) (A) (A) (A) (A) (A) (A) (A) (A)
                 (A) (A) (A) (A) (A) (A) (A) (A) (A) (A) (A) (A)
                 (A) (A) (A) (A) (A) (A) (A) (A) (A) (A) (A) (A)
                 (A) (A) (A) (A) (A) (A) (A) (A) (A) (A) (A) (A)
                 (A) (A) (A) (A) (A) (A) (A) (A) (A) (A) (A) (A)
                 (A) (A) (A) (A) (A) (A) (A) (A) (A) (A) (A) (A)
                 (A) (A) (A) (A) (A) (A) (A) (A) (A) (A) (A) (A)
                 (A) (A) (A) (A) (A) (A)
 Beta  Orbitals:
       Occupied  (A) (A) (A) (A) (A) (A) (A) (A) (A) (A) (A) (A)
                 (A) (A) (A) (A)
       Virtual   (A) (A) (A) (A) (A) (A) (A) (A) (A) (A) (A) (A)
                 (A) (A) (A) (A) (A) (A) (A) (A) (A) (A) (A) (A)
                 (A) (A) (A) (A) (A) (A) (A) (A) (A) (A) (A) (A)
                 (A) (A) (A) (A) (A) (A) (A) (A) (A) (A) (A) (A)
                 (A) (A) (A) (A) (A) (A) (A) (A) (A) (A) (A) (A)
                 (A) (A) (A) (A) (A) (A) (A) (A) (A) (A) (A) (A)
                 (A) (A) (A) (A) (A) (A) (A) (A) (A) (A) (A) (A)
                 (A) (A) (A) (A) (A) (A) (A) (A) (A) (A) (A) (A)
                 (A) (A) (A) (A) (A) (A) (A) (A) (A) (A) (A) (A)
                 (A) (A) (A) (A) (A) (A) (A) (A) (A) (A) (A) (A)
                 (A) (A) (A) (A) (A) (A) (A) (A) (A) (A) (A) (A)
                 (A) (A) (A) (A) (A) (A) (A) (A) (A) (A) (A) (A)
                 (A) (A) (A) (A) (A) (A) (A) (A) (A) (A) (A) (A)
                 (A) (A) (A) (A) (A) (A) (A) (A) (A) (A) (A) (A)
                 (A) (A) (A) (A) (A) (A) (A) (A) (A) (A) (A) (A)
                 (A) (A) (A) (A) (A) (A) (A) (A) (A) (A) (A) (A)
                 (A) (A) (A) (A) (A) (A) (A)
 The electronic state is 2-A.
 Alpha  occ. eigenvalues --  -20.80344 -11.61663 -11.59604 -11.59221 -11.57390
 Alpha  occ. eigenvalues --   -1.65104  -1.54306  -1.16566  -1.07806  -0.99331
 Alpha  occ. eigenvalues --   -0.94687  -0.88734  -0.84593  -0.79339  -0.78406
 Alpha  occ. eigenvalues --   -0.72829  -0.67264
 Alpha virt. eigenvalues --   -0.14315  -0.14059  -0.10575  -0.09573  -0.07403
 Alpha virt. eigenvalues --   -0.06005  -0.05131  -0.03533  -0.02434  -0.01698
 Alpha virt. eigenvalues --   -0.00143   0.01584   0.01820   0.02827   0.03831
 Alpha virt. eigenvalues --    0.04352   0.04682   0.06359   0.06519   0.09303
 Alpha virt. eigenvalues --    0.10184   0.11262   0.12486   0.14124   0.15384
 Alpha virt. eigenvalues --    0.18770   0.21211   0.21979   0.25401   0.26600
 Alpha virt. eigenvalues --    0.27891   0.28945   0.29158   0.30839   0.31820
 Alpha virt. eigenvalues --    0.33621   0.36442   0.36725   0.38707   0.40530
 Alpha virt. eigenvalues --    0.42673   0.45024   0.45824   0.46716   0.49350
 Alpha virt. eigenvalues --    0.50017   0.53395   0.53590   0.55391   0.56936
 Alpha virt. eigenvalues --    0.57512   0.59683   0.63900   0.65534   0.68777
 Alpha virt. eigenvalues --    0.69607   0.69880   0.74445   0.77413   0.77917
 Alpha virt. eigenvalues --    0.79584   0.84294   0.91032   0.92969   0.95621
 Alpha virt. eigenvalues --    1.00425   1.01684   1.05222   1.06932   1.08452
 Alpha virt. eigenvalues --    1.10671   1.12881   1.13536   1.16716   1.17568
 Alpha virt. eigenvalues --    1.22935   1.26059   1.27097   1.30850   1.32144
 Alpha virt. eigenvalues --    1.36068   1.37306   1.39496   1.47191   1.50533
 Alpha virt. eigenvalues --    1.53824   1.57317   1.63872   1.65506   1.73643
 Alpha virt. eigenvalues --    1.80168   1.86982   1.88569   1.93189   1.96130
 Alpha virt. eigenvalues --    1.98871   2.07193   2.07784   2.15386   2.17233
 Alpha virt. eigenvalues --    2.27778   2.38151   2.45053   2.46940   2.52139
 Alpha virt. eigenvalues --    2.64840   2.66093   2.76841   2.78615   2.81418
 Alpha virt. eigenvalues --    2.83343   2.83493   2.87948   2.92454   2.96374
 Alpha virt. eigenvalues --    2.98337   3.04230   3.04893   3.07703   3.09656
 Alpha virt. eigenvalues --    3.15181   3.19463   3.23451   3.25637   3.30002
 Alpha virt. eigenvalues --    3.37259   3.40853   3.42674   3.48577   3.58858
 Alpha virt. eigenvalues --    3.66858   3.69264   3.71985   3.74854   3.75762
 Alpha virt. eigenvalues --    3.85313   3.91114   3.97845   3.99866   4.09045
 Alpha virt. eigenvalues --    4.17316   4.21694   4.26277   4.27725   4.37584
 Alpha virt. eigenvalues --    4.42975   4.51223   4.56578   4.61327   4.67963
 Alpha virt. eigenvalues --    4.73543   4.74445   4.88713   5.10613   5.29495
 Alpha virt. eigenvalues --    5.30848   5.36864   5.49275   5.73040   5.75887
 Alpha virt. eigenvalues --    5.77871   5.87824   6.06416   6.33639   6.46140
 Alpha virt. eigenvalues --    6.56585   6.77251   6.88353   7.18069   7.19084
 Alpha virt. eigenvalues --    7.20258   7.23842   7.33455   7.37627   7.37947
 Alpha virt. eigenvalues --    7.48788   7.51455   7.57145   7.65469   7.67302
 Alpha virt. eigenvalues --    7.71182   7.86060   8.17567   8.34871   8.42538
 Alpha virt. eigenvalues --    8.48675   8.65002   8.95051  14.81468  14.84899
 Alpha virt. eigenvalues --   15.15123  15.27215  15.47177  24.82426  25.92813
 Alpha virt. eigenvalues --   26.35330  26.58728  51.94474
  Beta  occ. eigenvalues --  -20.79416 -11.59378 -11.59152 -11.58395 -11.57932
  Beta  occ. eigenvalues --   -1.63199  -1.52293  -1.16222  -1.06035  -0.97125
  Beta  occ. eigenvalues --   -0.88489  -0.85621  -0.82917  -0.77393  -0.72755
  Beta  occ. eigenvalues --   -0.66553
  Beta virt. eigenvalues --   -0.22547  -0.14928  -0.09985  -0.09543  -0.09128
  Beta virt. eigenvalues --   -0.07316  -0.05456  -0.04670  -0.02947  -0.02245
  Beta virt. eigenvalues --   -0.01360  -0.00046   0.01797   0.02436   0.03037
  Beta virt. eigenvalues --    0.03966   0.04360   0.04787   0.06411   0.06830
  Beta virt. eigenvalues --    0.09577   0.10238   0.11281   0.13600   0.15183
  Beta virt. eigenvalues --    0.16688   0.20049   0.21481   0.22049   0.25580
  Beta virt. eigenvalues --    0.27332   0.28666   0.29210   0.29444   0.31525
  Beta virt. eigenvalues --    0.32409   0.34115   0.36755   0.37959   0.40069
  Beta virt. eigenvalues --    0.42384   0.43984   0.45369   0.46253   0.47499
  Beta virt. eigenvalues --    0.49435   0.50482   0.53450   0.54231   0.55955
  Beta virt. eigenvalues --    0.57187   0.57743   0.60068   0.65491   0.65646
  Beta virt. eigenvalues --    0.69270   0.70378   0.70673   0.74915   0.77747
  Beta virt. eigenvalues --    0.78514   0.81158   0.84431   0.91240   0.93440
  Beta virt. eigenvalues --    0.96224   1.00791   1.02119   1.05782   1.07384
  Beta virt. eigenvalues --    1.08900   1.10900   1.13074   1.13847   1.17125
  Beta virt. eigenvalues --    1.18420   1.23473   1.26709   1.29022   1.31207
  Beta virt. eigenvalues --    1.34546   1.36615   1.38790   1.41444   1.48734
  Beta virt. eigenvalues --    1.51402   1.54563   1.57621   1.63959   1.65823
  Beta virt. eigenvalues --    1.75338   1.81860   1.87000   1.89315   1.93373
  Beta virt. eigenvalues --    1.98843   2.01978   2.10060   2.10166   2.16370
  Beta virt. eigenvalues --    2.17752   2.28109   2.38696   2.46144   2.47786
  Beta virt. eigenvalues --    2.52895   2.65141   2.66869   2.77081   2.79169
  Beta virt. eigenvalues --    2.82347   2.83846   2.84545   2.88837   2.93182
  Beta virt. eigenvalues --    2.96240   2.98501   3.05120   3.05459   3.08455
  Beta virt. eigenvalues --    3.09972   3.15759   3.20040   3.23674   3.26071
  Beta virt. eigenvalues --    3.30414   3.37838   3.41272   3.44095   3.49995
  Beta virt. eigenvalues --    3.59490   3.67774   3.69782   3.72716   3.76129
  Beta virt. eigenvalues --    3.77157   3.86160   3.92193   3.98545   4.01063
  Beta virt. eigenvalues --    4.12289   4.17945   4.22690   4.27048   4.28828
  Beta virt. eigenvalues --    4.38057   4.43402   4.51889   4.57215   4.61714
  Beta virt. eigenvalues --    4.69068   4.73959   4.74813   4.89304   5.10902
  Beta virt. eigenvalues --    5.30399   5.32079   5.37286   5.51804   5.73877
  Beta virt. eigenvalues --    5.76629   5.78396   5.87991   6.06555   6.34552
  Beta virt. eigenvalues --    6.46418   6.57448   6.77423   6.88359   7.18513
  Beta virt. eigenvalues --    7.20894   7.21523   7.25161   7.33259   7.37585
  Beta virt. eigenvalues --    7.39308   7.49725   7.52467   7.57689   7.67043
  Beta virt. eigenvalues --    7.68955   7.71150   7.85772   8.17454   8.34911
  Beta virt. eigenvalues --    8.44304   8.48983   8.66202   8.96308  14.83086
  Beta virt. eigenvalues --   14.86493  15.16677  15.27629  15.47992  24.83348
  Beta virt. eigenvalues --   25.92503  26.35489  26.60169  51.94985
          Condensed to atoms (all electrons):
               1          2          3          4          5          6
     1  C    5.769939  -0.264061  -0.492226  -0.007846  -0.027826   0.480762
     2  C   -0.264061   6.461876  -0.668158  -0.148319   0.379148  -0.010562
     3  C   -0.492226  -0.668158   8.093157  -1.262443   0.016403   0.010346
     4  C   -0.007846  -0.148319  -1.262443   7.566742  -0.065159  -0.145569
     5  H   -0.027826   0.379148   0.016403  -0.065159   0.387886  -0.001098
     6  H    0.480762  -0.010562   0.010346  -0.145569  -0.001098   0.476199
     7  O    0.035486  -0.000808   0.041487   0.005854  -0.000042  -0.014520
               7
     1  C    0.035486
     2  C   -0.000808
     3  C    0.041487
     4  C    0.005854
     5  H   -0.000042
     6  H   -0.014520
     7  O    8.522500
          Atomic-Atomic Spin Densities.
               1          2          3          4          5          6
     1  C   -0.230725   0.006739  -0.073937   0.067129  -0.000200  -0.000013
     2  C    0.006739   0.015644  -0.206580   0.138886   0.012213   0.000391
     3  C   -0.073937  -0.206580   2.047251  -0.661048  -0.004216   0.003370
     4  C    0.067129   0.138886  -0.661048   0.413384  -0.009940  -0.003113
     5  H   -0.000200   0.012213  -0.004216  -0.009940   0.002679   0.000062
     6  H   -0.000013   0.000391   0.003370  -0.003113   0.000062   0.010975
     7  O   -0.022273  -0.000827   0.001789  -0.008314   0.000060   0.000603
               7
     1  C   -0.022273
     2  C   -0.000827
     3  C    0.001789
     4  C   -0.008314
     5  H    0.000060
     6  H    0.000603
     7  O    0.259234
 Mulliken charges and spin densities:
               1          2
     1  C    0.505772  -0.253281
     2  C    0.250883  -0.033534
     3  C    0.261433   1.106629
     4  C    0.056740  -0.063016
     5  H    0.310687   0.000657
     6  H    0.204442   0.012275
     7  O   -0.589957   0.230272
 Sum of Mulliken charges =   1.00000   1.00000
 Mulliken charges and spin densities with hydrogens summed into heavy atoms:
               1          2
     1  C    0.710213  -0.241007
     2  C    0.561571  -0.032878
     3  C    0.261433   1.106629
     4  C    0.056740  -0.063016
     7  O   -0.589957   0.230272
 Electronic spatial extent (au):  <R**2>=            341.8272
 Charge=              1.0000 electrons
 Dipole moment (field-independent basis, Debye):
    X=              5.1443    Y=              1.7453    Z=              1.7625  Tot=              5.7111
 Quadrupole moment (field-independent basis, Debye-Ang):
   XX=            -16.4181   YY=            -21.1578   ZZ=            -23.2199
   XY=              0.7472   XZ=             -5.1080   YZ=             -0.6091
 Traceless Quadrupole moment (field-independent basis, Debye-Ang):
   XX=              3.8472   YY=             -0.8925   ZZ=             -2.9547
   XY=              0.7472   XZ=             -5.1080   YZ=             -0.6091
 Octapole moment (field-independent basis, Debye-Ang**2):
  XXX=             16.2390  YYY=              3.5151  ZZZ=              1.1509  XYY=              4.7624
  XXY=              8.4273  XXZ=              1.5079  XZZ=             -2.5691  YZZ=              2.3613
  YYZ=             -1.3722  XYZ=             -3.7590
 Hexadecapole moment (field-independent basis, Debye-Ang**3):
 XXXX=           -297.4024 YYYY=            -50.7011 ZZZZ=            -42.5888 XXXY=             14.4330
 XXXZ=            -15.1472 YYYX=              8.2733 YYYZ=             -1.8005 ZZZX=             -4.5102
 ZZZY=              0.9997 XXYY=            -45.9563 XXZZ=            -54.7064 YYZZ=            -14.9942
 XXYZ=             -4.2682 YYXZ=             -4.3169 ZZXY=              0.2007
 N-N= 1.311192150950D+02 E-N=-7.857942150811D+02  KE= 2.268206774906D+02
 Leave Link  601 at Thu Mar  7 02:51:59 2019, MaxMem=    33554432 cpu:         0.2
 (Enter /home/proyectos/fulerenos/M3C-v2.0/M3C-deps_CCC/g09-AM64L-G09RevC.01/l9999.exe)
 1\1\GINC-FOSFORO\SP\UCCSD(T)-FC\6-311++G(3df,2p)\C4H2O1(1+,2)\NAGUIRRE
 \07-Mar-2019\0\\#p ccsd(t,maxcyc=200)/6-311++G(3df,2p)\\ccsd(t) iener\
 \1,2\C,0,1.193463,0.914486,-0.330548\C,0,-1.139495,-0.562,0.172335\C,0
 ,-1.551227,0.452631,-0.60071\C,0,-0.250174,0.442463,-0.224065\H,0,-1.2
 57793,-1.483938,0.727235\H,0,1.602321,1.483867,0.514607\O,0,1.750001,0
 .619496,-1.337137\\Version=EM64L-G09RevE.01\State=2-A\HF=-227.1178701\
 MP2=-227.8804531\MP3=-227.8937225\MP4D=-227.9124664\MP4DQ=-227.891203\
 PUHF=-227.1234039\PMP2-0=-227.8850717\PMP3-0=-227.896952\MP4SDQ=-227.9
 02669\CCSD=-227.9032551\CCSD(T)=-227.944672\S2=0.80752\S2-1=0.788132\S
 2A=0.751828\RMSD=8.614e-09\PG=C01 [X(C4H2O1)]\\@


 HE THAT FOLLOWS NATURE IS NEVER LOST.

                             -- BACON
 Job cpu time:       0 days 10 hours 42 minutes 48.8 seconds.
 File lengths (MBytes):  RWF=   5617 Int=      0 D2E=      0 Chk=      5 Scr=      1
 Normal termination of Gaussian 09 at Thu Mar  7 02:52:01 2019.
