 Entering Gaussian System, Link 0=/home/proyectos/fulerenos/M3C-v2.0/M3C-deps_CCC/g09-AM64L-G09RevC.01/g09
 Initial command:
 /home/proyectos/fulerenos/M3C-v2.0/M3C-deps_CCC/g09-AM64L-G09RevC.01/l1.exe "/scratch/naguirre/gaussian/Gau-17847.inp" -scrdir="/scratch/naguirre/gaussian/"
 Entering Link 1 = /home/proyectos/fulerenos/M3C-v2.0/M3C-deps_CCC/g09-AM64L-G09RevC.01/l1.exe PID=     17855.
  
 Copyright (c) 1988,1990,1992,1993,1995,1998,2003,2009,2015,
            Gaussian, Inc.  All Rights Reserved.
  
 This is part of the Gaussian(R) 09 program.  It is based on
 the Gaussian(R) 03 system (copyright 2003, Gaussian, Inc.),
 the Gaussian(R) 98 system (copyright 1998, Gaussian, Inc.),
 the Gaussian(R) 94 system (copyright 1995, Gaussian, Inc.),
 the Gaussian 92(TM) system (copyright 1992, Gaussian, Inc.),
 the Gaussian 90(TM) system (copyright 1990, Gaussian, Inc.),
 the Gaussian 88(TM) system (copyright 1988, Gaussian, Inc.),
 the Gaussian 86(TM) system (copyright 1986, Carnegie Mellon
 University), and the Gaussian 82(TM) system (copyright 1983,
 Carnegie Mellon University). Gaussian is a federally registered
 trademark of Gaussian, Inc.
  
 This software contains proprietary and confidential information,
 including trade secrets, belonging to Gaussian, Inc.
  
 This software is provided under written license and may be
 used, copied, transmitted, or stored only in accord with that
 written license.
  
 The following legend is applicable only to US Government
 contracts under FAR:
  
                    RESTRICTED RIGHTS LEGEND
  
 Use, reproduction and disclosure by the US Government is
 subject to restrictions as set forth in subparagraphs (a)
 and (c) of the Commercial Computer Software - Restricted
 Rights clause in FAR 52.227-19.
  
 Gaussian, Inc.
 340 Quinnipiac St., Bldg. 40, Wallingford CT 06492
  
  
 ---------------------------------------------------------------
 Warning -- This program may not be used in any manner that
 competes with the business of Gaussian, Inc. or will provide
 assistance to any competitor of Gaussian, Inc.  The licensee
 of this program is prohibited from giving any competitor of
 Gaussian, Inc. access to this program.  By using this program,
 the user acknowledges that Gaussian, Inc. is engaged in the
 business of creating and licensing software in the field of
 computational chemistry and represents and warrants to the
 licensee that it is not a competitor of Gaussian, Inc. and that
 it will not use this program in any manner prohibited above.
 ---------------------------------------------------------------
  

 Cite this work as:
 Gaussian 09, Revision E.01,
 M. J. Frisch, G. W. Trucks, H. B. Schlegel, G. E. Scuseria, 
 M. A. Robb, J. R. Cheeseman, G. Scalmani, V. Barone, B. Mennucci, 
 G. A. Petersson, H. Nakatsuji, M. Caricato, X. Li, H. P. Hratchian, 
 A. F. Izmaylov, J. Bloino, G. Zheng, J. L. Sonnenberg, M. Hada, 
 M. Ehara, K. Toyota, R. Fukuda, J. Hasegawa, M. Ishida, T. Nakajima, 
 Y. Honda, O. Kitao, H. Nakai, T. Vreven, J. A. Montgomery, Jr., 
 J. E. Peralta, F. Ogliaro, M. Bearpark, J. J. Heyd, E. Brothers, 
 K. N. Kudin, V. N. Staroverov, T. Keith, R. Kobayashi, J. Normand, 
 K. Raghavachari, A. Rendell, J. C. Burant, S. S. Iyengar, J. Tomasi, 
 M. Cossi, N. Rega, J. M. Millam, M. Klene, J. E. Knox, J. B. Cross, 
 V. Bakken, C. Adamo, J. Jaramillo, R. Gomperts, R. E. Stratmann, 
 O. Yazyev, A. J. Austin, R. Cammi, C. Pomelli, J. W. Ochterski, 
 R. L. Martin, K. Morokuma, V. G. Zakrzewski, G. A. Voth, 
 P. Salvador, J. J. Dannenberg, S. Dapprich, A. D. Daniels, 
 O. Farkas, J. B. Foresman, J. V. Ortiz, J. Cioslowski, 
 and D. J. Fox, Gaussian, Inc., Wallingford CT, 2013.
 
 ******************************************
 Gaussian 09:  EM64L-G09RevE.01 30-Nov-2015
                 7-Mar-2019 
 ******************************************
 %NProcShared=4
 Will use up to    4 processors via shared memory.
 --------------------------------------
 #p ccsd(t,maxcyc=200)/6-311++G(3df,2p)
 --------------------------------------
 1/38=1/1;
 2/12=2,17=6,18=5,40=1/2;
 3/5=4,6=6,7=1216,11=9,16=1,25=1,30=1/1,2,3;
 4//1;
 5/5=2,38=5/2;
 8/6=4,9=120000,10=2/1,4;
 9/5=7,6=200,14=2/13;
 6/7=2,8=2,9=2,10=2/1;
 99/5=1,9=1/99;
 Leave Link    1 at Thu Mar  7 07:04:54 2019, MaxMem=           0 cpu:         0.6
 (Enter /home/proyectos/fulerenos/M3C-v2.0/M3C-deps_CCC/g09-AM64L-G09RevC.01/l101.exe)
 -------------
 ccsd(t) iener
 -------------
 Symbolic Z-matrix:
 Charge =  1 Multiplicity = 1
 C                    -1.40938   0.60827  -0.13538 
 C                     0.91251  -0.12726   0.46561 
 O                     1.98067  -0.18034   0.13294 
 C                    -0.43164  -0.06079   0.85466 
 C                    -1.4679   -0.65912  -0.12102 
 H                    -1.7139    1.60598  -0.39909 
 H                    -0.56958  -0.0422    1.93368 
 H                    -1.86332  -1.63023  -0.36243 
 
 NAtoms=      8 NQM=        8 NQMF=       0 NMMI=      0 NMMIF=      0
                NMic=       0 NMicF=      0.
                    Isotopes and Nuclear Properties:
 (Nuclear quadrupole moments (NQMom) in fm**2, nuclear magnetic moments (NMagM)
  in nuclear magnetons)

  Atom         1           2           3           4           5           6           7           8
 IAtWgt=          12          12          16          12          12           1           1           1
 AtmWgt=  12.0000000  12.0000000  15.9949146  12.0000000  12.0000000   1.0078250   1.0078250   1.0078250
 NucSpn=           0           0           0           0           0           1           1           1
 AtZEff=   0.0000000   0.0000000   0.0000000   0.0000000   0.0000000   0.0000000   0.0000000   0.0000000
 NQMom=    0.0000000   0.0000000   0.0000000   0.0000000   0.0000000   0.0000000   0.0000000   0.0000000
 NMagM=    0.0000000   0.0000000   0.0000000   0.0000000   0.0000000   2.7928460   2.7928460   2.7928460
 AtZNuc=   6.0000000   6.0000000   8.0000000   6.0000000   6.0000000   1.0000000   1.0000000   1.0000000
 Leave Link  101 at Thu Mar  7 07:04:55 2019, MaxMem=    33554432 cpu:         1.5
 (Enter /home/proyectos/fulerenos/M3C-v2.0/M3C-deps_CCC/g09-AM64L-G09RevC.01/l202.exe)
                          Input orientation:                          
 ---------------------------------------------------------------------
 Center     Atomic      Atomic             Coordinates (Angstroms)
 Number     Number       Type             X           Y           Z
 ---------------------------------------------------------------------
      1          6           0       -1.409382    0.608273   -0.135376
      2          6           0        0.912514   -0.127257    0.465606
      3          8           0        1.980665   -0.180343    0.132937
      4          6           0       -0.431643   -0.060788    0.854661
      5          6           0       -1.467900   -0.659124   -0.121021
      6          1           0       -1.713898    1.605979   -0.399090
      7          1           0       -0.569581   -0.042197    1.933676
      8          1           0       -1.863320   -1.630234   -0.362434
 ---------------------------------------------------------------------
                    Distance matrix (angstroms):
                    1          2          3          4          5
     1  C    0.000000
     2  C    2.508661   0.000000
     3  O    3.490892   1.120015   0.000000
     4  C    1.543952   1.400907   2.520795   0.000000
     5  C    1.268828   2.508661   3.490892   1.543952   0.000000
     6  H    1.075961   3.263409   4.138091   2.448301   2.295327
     7  H    2.325802   2.087838   3.124980   1.087955   2.325802
     8  H    2.295327   3.263409   4.138091   2.448301   1.075961
                    6          7          8
     6  H    0.000000
     7  H    3.076970   0.000000
     8  H    3.239868   3.076970   0.000000
 Stoichiometry    C4H3O(1+)
 Framework group  CS[SG(C2HO),X(C2H2)]
 Deg. of freedom    11
 Full point group                 CS      NOp   2
 Largest Abelian subgroup         CS      NOp   2
 Largest concise Abelian subgroup CS      NOp   2
                         Standard orientation:                         
 ---------------------------------------------------------------------
 Center     Atomic      Atomic             Coordinates (Angstroms)
 Number     Number       Type             X           Y           Z
 ---------------------------------------------------------------------
      1          6           0        0.269673    1.387864    0.634414
      2          6           0       -0.143413   -1.003842   -0.000000
      3          8           0        0.269673   -2.044896   -0.000000
      4          6           0       -0.633749    0.308450    0.000000
      5          6           0        0.269673    1.387864   -0.634414
      6          1           0        0.494878    1.756273    1.619934
      7          1           0       -1.720254    0.364603    0.000000
      8          1           0        0.494878    1.756273   -1.619934
 ---------------------------------------------------------------------
 Rotational constants (GHZ):     19.1517176      3.5114934      3.4278979
 Leave Link  202 at Thu Mar  7 07:04:55 2019, MaxMem=    33554432 cpu:         0.0
 (Enter /home/proyectos/fulerenos/M3C-v2.0/M3C-deps_CCC/g09-AM64L-G09RevC.01/l301.exe)
 Standard basis: 6-311++G(3df,2p) (5D, 7F)
 Ernie: Thresh=  0.10000D-02 Tol=  0.10000D-05 Strict=F.
 There are   156 symmetry adapted cartesian basis functions of A'  symmetry.
 There are    99 symmetry adapted cartesian basis functions of A"  symmetry.
 There are   135 symmetry adapted basis functions of A'  symmetry.
 There are    90 symmetry adapted basis functions of A"  symmetry.
   225 basis functions,   326 primitive gaussians,   255 cartesian basis functions
    17 alpha electrons       17 beta electrons
       nuclear repulsion energy       140.0708044750 Hartrees.
 IExCor=    0 DFT=F Ex=HF Corr=None ExCW=0 ScaHFX=  1.000000
 ScaDFX=  1.000000  1.000000  1.000000  1.000000 ScalE2=  1.000000  1.000000
 IRadAn=      0 IRanWt=     -1 IRanGd=            0 ICorTp=0 IEmpDi=  4
 NAtoms=    8 NActive=    8 NUniq=    6 SFac= 1.78D+00 NAtFMM=   60 NAOKFM=F Big=F
 Integral buffers will be    131072 words long.
 Raffenetti 1 integral format.
 Two-electron integral symmetry is turned on.
 Leave Link  301 at Thu Mar  7 07:04:55 2019, MaxMem=    33554432 cpu:         0.3
 (Enter /home/proyectos/fulerenos/M3C-v2.0/M3C-deps_CCC/g09-AM64L-G09RevC.01/l302.exe)
 NPDir=0 NMtPBC=     1 NCelOv=     1 NCel=       1 NClECP=     1 NCelD=      1
         NCelK=      1 NCelE2=     1 NClLst=     1 CellRange=     0.0.
 One-electron integrals computed using PRISM.
 One-electron integral symmetry used in STVInt
 NBasis=   225 RedAO= T EigKep=  9.32D-06  NBF=   135    90
 NBsUse=   225 1.00D-06 EigRej= -1.00D+00 NBFU=   135    90
 Leave Link  302 at Thu Mar  7 07:04:55 2019, MaxMem=    33554432 cpu:         1.3
 (Enter /home/proyectos/fulerenos/M3C-v2.0/M3C-deps_CCC/g09-AM64L-G09RevC.01/l303.exe)
 DipDrv:  MaxL=1.
 Leave Link  303 at Thu Mar  7 07:04:55 2019, MaxMem=    33554432 cpu:         0.2
 (Enter /home/proyectos/fulerenos/M3C-v2.0/M3C-deps_CCC/g09-AM64L-G09RevC.01/l401.exe)
 ExpMin= 3.60D-02 ExpMax= 8.59D+03 ExpMxC= 1.30D+03 IAcc=3 IRadAn=         5 AccDes= 0.00D+00
 Harris functional with IExCor=  205 and IRadAn=       5 diagonalized for initial guess.
 HarFok:  IExCor=  205 AccDes= 0.00D+00 IRadAn=         5 IDoV= 1 UseB2=F ITyADJ=14
 ICtDFT=  3500011 ScaDFX=  1.000000  1.000000  1.000000  1.000000
 FoFCou: FMM=F IPFlag=           0 FMFlag=      100000 FMFlg1=           0
         NFxFlg=           0 DoJE=T BraDBF=F KetDBF=T FulRan=T
         wScrn=  0.000000 ICntrl=     500 IOpCl=  0 I1Cent=   200000004 NGrid=           0
         NMat0=    1 NMatS0=      1 NMatT0=    0 NMatD0=    1 NMtDS0=    0 NMtDT0=    0
 Petite list used in FoFCou.
 Harris En= -228.006655133002    
 JPrj=0 DoOrth=F DoCkMO=F.
 Initial guess orbital symmetries:
       Occupied  (A') (A') (A") (A') (A') (A') (A') (A') (A") (A')
                 (A') (A') (A') (A") (A') (A") (A')
       Virtual   (A") (A') (A") (A') (A') (A") (A') (A") (A') (A')
                 (A") (A') (A") (A') (A') (A") (A') (A') (A') (A")
                 (A') (A') (A") (A") (A') (A") (A') (A') (A') (A')
                 (A") (A') (A') (A") (A') (A') (A') (A") (A') (A")
                 (A') (A") (A') (A") (A') (A") (A') (A") (A') (A")
                 (A") (A') (A') (A") (A') (A') (A") (A') (A") (A')
                 (A') (A") (A') (A') (A") (A") (A') (A') (A') (A")
                 (A") (A') (A") (A') (A') (A') (A") (A') (A") (A')
                 (A") (A') (A') (A") (A') (A') (A") (A") (A') (A')
                 (A") (A") (A') (A') (A') (A") (A') (A") (A') (A')
                 (A') (A") (A') (A") (A') (A") (A') (A') (A") (A')
                 (A') (A') (A") (A') (A') (A") (A") (A') (A") (A')
                 (A') (A") (A") (A') (A") (A") (A') (A') (A') (A')
                 (A") (A") (A') (A') (A") (A") (A') (A') (A") (A')
                 (A") (A") (A') (A") (A') (A') (A') (A") (A') (A")
                 (A') (A") (A') (A') (A") (A') (A") (A') (A") (A')
                 (A") (A') (A") (A') (A") (A") (A') (A") (A') (A')
                 (A") (A') (A') (A') (A") (A") (A') (A') (A') (A")
                 (A") (A') (A') (A") (A') (A") (A') (A") (A') (A")
                 (A') (A") (A") (A') (A') (A') (A") (A') (A') (A")
                 (A") (A') (A') (A') (A') (A') (A") (A')
 The electronic state of the initial guess is 1-A'.
 Leave Link  401 at Thu Mar  7 07:04:56 2019, MaxMem=    33554432 cpu:         3.8
 (Enter /home/proyectos/fulerenos/M3C-v2.0/M3C-deps_CCC/g09-AM64L-G09RevC.01/l502.exe)
 Closed shell SCF:
 Using DIIS extrapolation, IDIIS=  1040.
 Integral symmetry usage will be decided dynamically.
 IVT=      217281 IEndB=      217281 NGot=    33554432 MDV=    33419072
 LenX=    33419072 LenY=    33353606
 Requested convergence on RMS density matrix=1.00D-08 within 128 cycles.
 Requested convergence on MAX density matrix=1.00D-06.
 Requested convergence on             energy=1.00D-06.
 No special actions if energy rises.
 Fock matrices will be formed incrementally for  20 cycles.

 Cycle   1  Pass 0  IDiag  1:
 FoFJK:  IHMeth= 1 ICntrl=       0 DoSepK=F KAlg= 0 I1Cent=   0 FoldK=F
 IRaf= 980000000 NMat=   1 IRICut=       1 DoRegI=T DoRafI=F ISym2E= 1.
 FoFCou: FMM=F IPFlag=           0 FMFlag=      100000 FMFlg1=           0
         NFxFlg=           0 DoJE=F BraDBF=F KetDBF=F FulRan=T
         wScrn=  0.000000 ICntrl=       0 IOpCl=  0 I1Cent=           0 NGrid=           0
         NMat0=    1 NMatS0=      1 NMatT0=    0 NMatD0=    1 NMtDS0=    0 NMtDT0=    0
 Petite list used in FoFCou.
 E= -227.639228601978    
 DIIS: error= 4.72D-02 at cycle   1 NSaved=   1.
 NSaved= 1 IEnMin= 1 EnMin= -227.639228601978     IErMin= 1 ErrMin= 4.72D-02
 ErrMax= 4.72D-02  0.00D+00 EMaxC= 1.00D-01 BMatC= 3.95D-01 BMatP= 3.95D-01
 IDIUse=3 WtCom= 5.28D-01 WtEn= 4.72D-01
 Coeff-Com:  0.100D+01
 Coeff-En:   0.100D+01
 Coeff:      0.100D+01
 Gap=     0.426 Goal=   None    Shift=    0.000
 GapD=    0.426 DampG=2.000 DampE=0.500 DampFc=1.0000 IDamp=-1.
 RMSDP=3.32D-03 MaxDP=1.92D-01              OVMax= 1.14D-01

 Cycle   2  Pass 0  IDiag  1:
 RMSU=  3.20D-03    CP:  9.34D-01
 E= -227.766291162570     Delta-E=       -0.127062560593 Rises=F Damp=F
 DIIS: error= 1.37D-02 at cycle   2 NSaved=   2.
 NSaved= 2 IEnMin= 2 EnMin= -227.766291162570     IErMin= 2 ErrMin= 1.37D-02
 ErrMax= 1.37D-02  0.00D+00 EMaxC= 1.00D-01 BMatC= 2.96D-02 BMatP= 3.95D-01
 IDIUse=3 WtCom= 8.63D-01 WtEn= 1.37D-01
 Coeff-Com:  0.113D+00 0.887D+00
 Coeff-En:   0.000D+00 0.100D+01
 Coeff:      0.972D-01 0.903D+00
 Gap=     0.548 Goal=   None    Shift=    0.000
 RMSDP=1.15D-03 MaxDP=5.07D-02 DE=-1.27D-01 OVMax= 5.06D-02

 Cycle   3  Pass 0  IDiag  1:
 RMSU=  9.16D-04    CP:  9.30D-01  7.82D-01
 E= -227.786029597630     Delta-E=       -0.019738435060 Rises=F Damp=F
 DIIS: error= 7.61D-03 at cycle   3 NSaved=   3.
 NSaved= 3 IEnMin= 3 EnMin= -227.786029597630     IErMin= 3 ErrMin= 7.61D-03
 ErrMax= 7.61D-03  0.00D+00 EMaxC= 1.00D-01 BMatC= 7.87D-03 BMatP= 2.96D-02
 IDIUse=3 WtCom= 9.24D-01 WtEn= 7.61D-02
 Coeff-Com: -0.240D-01 0.318D+00 0.706D+00
 Coeff-En:   0.000D+00 0.000D+00 0.100D+01
 Coeff:     -0.222D-01 0.293D+00 0.729D+00
 Gap=     0.520 Goal=   None    Shift=    0.000
 RMSDP=4.04D-04 MaxDP=1.79D-02 DE=-1.97D-02 OVMax= 1.96D-02

 Cycle   4  Pass 0  IDiag  1:
 RMSU=  2.15D-04    CP:  9.31D-01  8.69D-01  7.82D-01
 E= -227.791547976574     Delta-E=       -0.005518378944 Rises=F Damp=F
 DIIS: error= 1.84D-03 at cycle   4 NSaved=   4.
 NSaved= 4 IEnMin= 4 EnMin= -227.791547976574     IErMin= 4 ErrMin= 1.84D-03
 ErrMax= 1.84D-03  0.00D+00 EMaxC= 1.00D-01 BMatC= 3.96D-04 BMatP= 7.87D-03
 IDIUse=3 WtCom= 9.82D-01 WtEn= 1.84D-02
 Coeff-Com: -0.112D-01 0.844D-01 0.268D+00 0.659D+00
 Coeff-En:   0.000D+00 0.000D+00 0.000D+00 0.100D+01
 Coeff:     -0.110D-01 0.828D-01 0.263D+00 0.665D+00
 Gap=     0.514 Goal=   None    Shift=    0.000
 RMSDP=7.81D-05 MaxDP=4.09D-03 DE=-5.52D-03 OVMax= 5.96D-03

 Cycle   5  Pass 0  IDiag  1:
 RMSU=  6.40D-05    CP:  9.30D-01  8.77D-01  8.13D-01  9.07D-01
 E= -227.791862443072     Delta-E=       -0.000314466499 Rises=F Damp=F
 DIIS: error= 4.07D-04 at cycle   5 NSaved=   5.
 NSaved= 5 IEnMin= 5 EnMin= -227.791862443072     IErMin= 5 ErrMin= 4.07D-04
 ErrMax= 4.07D-04  0.00D+00 EMaxC= 1.00D-01 BMatC= 2.28D-05 BMatP= 3.96D-04
 IDIUse=3 WtCom= 9.96D-01 WtEn= 4.07D-03
 Coeff-Com:  0.214D-02-0.332D-01-0.887D-01 0.416D-01 0.108D+01
 Coeff-En:   0.000D+00 0.000D+00 0.000D+00 0.000D+00 0.100D+01
 Coeff:      0.213D-02-0.331D-01-0.884D-01 0.415D-01 0.108D+01
 Gap=     0.516 Goal=   None    Shift=    0.000
 RMSDP=4.73D-05 MaxDP=2.65D-03 DE=-3.14D-04 OVMax= 2.08D-03

 Cycle   6  Pass 0  IDiag  1:
 RMSU=  2.20D-05    CP:  9.31D-01  8.83D-01  8.17D-01  1.05D+00  1.26D+00
 E= -227.791896381930     Delta-E=       -0.000033938857 Rises=F Damp=F
 DIIS: error= 6.83D-05 at cycle   6 NSaved=   6.
 NSaved= 6 IEnMin= 6 EnMin= -227.791896381930     IErMin= 6 ErrMin= 6.83D-05
 ErrMax= 6.83D-05  0.00D+00 EMaxC= 1.00D-01 BMatC= 9.93D-07 BMatP= 2.28D-05
 IDIUse=1 WtCom= 1.00D+00 WtEn= 0.00D+00
 Coeff-Com:  0.752D-03-0.594D-02-0.203D-01-0.386D-01-0.231D-01 0.109D+01
 Coeff:      0.752D-03-0.594D-02-0.203D-01-0.386D-01-0.231D-01 0.109D+01
 Gap=     0.516 Goal=   None    Shift=    0.000
 RMSDP=1.88D-05 MaxDP=1.30D-03 DE=-3.39D-05 OVMax= 5.23D-04

 Cycle   7  Pass 0  IDiag  1:
 RMSU=  8.11D-06    CP:  9.31D-01  8.86D-01  8.18D-01  1.09D+00  1.41D+00
                    CP:  1.35D+00
 E= -227.791898799703     Delta-E=       -0.000002417773 Rises=F Damp=F
 DIIS: error= 3.85D-05 at cycle   7 NSaved=   7.
 NSaved= 7 IEnMin= 7 EnMin= -227.791898799703     IErMin= 7 ErrMin= 3.85D-05
 ErrMax= 3.85D-05  0.00D+00 EMaxC= 1.00D-01 BMatC= 8.24D-08 BMatP= 9.93D-07
 IDIUse=1 WtCom= 1.00D+00 WtEn= 0.00D+00
 Coeff-Com: -0.198D-03 0.257D-02 0.751D-02 0.176D-02-0.465D-01-0.175D+00
 Coeff-Com:  0.121D+01
 Coeff:     -0.198D-03 0.257D-02 0.751D-02 0.176D-02-0.465D-01-0.175D+00
 Coeff:      0.121D+01
 Gap=     0.516 Goal=   None    Shift=    0.000
 RMSDP=5.95D-06 MaxDP=5.11D-04 DE=-2.42D-06 OVMax= 2.63D-04

 Initial convergence to 1.0D-05 achieved.  Increase integral accuracy.
 Cycle   8  Pass 1  IDiag  1:
 E= -227.791899085253     Delta-E=       -0.000000285550 Rises=F Damp=F
 DIIS: error= 1.54D-05 at cycle   1 NSaved=   1.
 NSaved= 1 IEnMin= 1 EnMin= -227.791899085253     IErMin= 1 ErrMin= 1.54D-05
 ErrMax= 1.54D-05  0.00D+00 EMaxC= 1.00D-01 BMatC= 1.49D-08 BMatP= 1.49D-08
 IDIUse=1 WtCom= 1.00D+00 WtEn= 0.00D+00
 Coeff-Com:  0.100D+01
 Coeff:      0.100D+01
 Gap=     0.516 Goal=   None    Shift=    0.000
 RMSDP=5.95D-06 MaxDP=5.11D-04 DE=-2.86D-07 OVMax= 8.29D-05

 Cycle   9  Pass 1  IDiag  1:
 RMSU=  9.95D-07    CP:  1.00D+00
 E= -227.791899133094     Delta-E=       -0.000000047841 Rises=F Damp=F
 DIIS: error= 1.00D-05 at cycle   2 NSaved=   2.
 NSaved= 2 IEnMin= 2 EnMin= -227.791899133094     IErMin= 2 ErrMin= 1.00D-05
 ErrMax= 1.00D-05  0.00D+00 EMaxC= 1.00D-01 BMatC= 5.69D-09 BMatP= 1.49D-08
 IDIUse=1 WtCom= 1.00D+00 WtEn= 0.00D+00
 Coeff-Com: -0.694D+00 0.169D+01
 Coeff:     -0.694D+00 0.169D+01
 Gap=     0.516 Goal=   None    Shift=    0.000
 RMSDP=8.52D-07 MaxDP=3.03D-05 DE=-4.78D-08 OVMax= 8.54D-05

 Cycle  10  Pass 1  IDiag  1:
 RMSU=  4.40D-07    CP:  1.00D+00  1.73D+00
 E= -227.791899160156     Delta-E=       -0.000000027061 Rises=F Damp=F
 DIIS: error= 4.96D-06 at cycle   3 NSaved=   3.
 NSaved= 3 IEnMin= 3 EnMin= -227.791899160156     IErMin= 3 ErrMin= 4.96D-06
 ErrMax= 4.96D-06  0.00D+00 EMaxC= 1.00D-01 BMatC= 1.28D-09 BMatP= 5.69D-09
 IDIUse=1 WtCom= 1.00D+00 WtEn= 0.00D+00
 Coeff-Com: -0.489D+00 0.407D+00 0.108D+01
 Coeff:     -0.489D+00 0.407D+00 0.108D+01
 Gap=     0.516 Goal=   None    Shift=    0.000
 RMSDP=4.34D-07 MaxDP=1.72D-05 DE=-2.71D-08 OVMax= 5.43D-05

 Cycle  11  Pass 1  IDiag  1:
 RMSU=  1.92D-07    CP:  1.00D+00  2.09D+00  1.35D+00
 E= -227.791899165430     Delta-E=       -0.000000005274 Rises=F Damp=F
 DIIS: error= 1.04D-06 at cycle   4 NSaved=   4.
 NSaved= 4 IEnMin= 4 EnMin= -227.791899165430     IErMin= 4 ErrMin= 1.04D-06
 ErrMax= 1.04D-06  0.00D+00 EMaxC= 1.00D-01 BMatC= 1.10D-10 BMatP= 1.28D-09
 IDIUse=1 WtCom= 1.00D+00 WtEn= 0.00D+00
 Coeff-Com: -0.757D-01-0.921D-02 0.293D+00 0.792D+00
 Coeff:     -0.757D-01-0.921D-02 0.293D+00 0.792D+00
 Gap=     0.516 Goal=   None    Shift=    0.000
 RMSDP=1.04D-07 MaxDP=7.46D-06 DE=-5.27D-09 OVMax= 6.18D-06

 Cycle  12  Pass 1  IDiag  1:
 RMSU=  5.20D-08    CP:  1.00D+00  2.04D+00  1.46D+00  1.30D+00
 E= -227.791899165617     Delta-E=       -0.000000000188 Rises=F Damp=F
 DIIS: error= 5.51D-07 at cycle   5 NSaved=   5.
 NSaved= 5 IEnMin= 5 EnMin= -227.791899165617     IErMin= 5 ErrMin= 5.51D-07
 ErrMax= 5.51D-07  0.00D+00 EMaxC= 1.00D-01 BMatC= 1.86D-11 BMatP= 1.10D-10
 IDIUse=1 WtCom= 1.00D+00 WtEn= 0.00D+00
 Coeff-Com:  0.119D+00-0.115D+00-0.247D+00 0.912D-01 0.115D+01
 Coeff:      0.119D+00-0.115D+00-0.247D+00 0.912D-01 0.115D+01
 Gap=     0.516 Goal=   None    Shift=    0.000
 RMSDP=1.01D-07 MaxDP=8.10D-06 DE=-1.88D-10 OVMax= 5.18D-06

 Cycle  13  Pass 1  IDiag  1:
 RMSU=  2.57D-08    CP:  1.00D+00  1.99D+00  1.57D+00  1.59D+00  1.26D+00
 E= -227.791899165679     Delta-E=       -0.000000000062 Rises=F Damp=F
 DIIS: error= 1.20D-07 at cycle   6 NSaved=   6.
 NSaved= 6 IEnMin= 6 EnMin= -227.791899165679     IErMin= 6 ErrMin= 1.20D-07
 ErrMax= 1.20D-07  0.00D+00 EMaxC= 1.00D-01 BMatC= 1.31D-12 BMatP= 1.86D-11
 IDIUse=1 WtCom= 1.00D+00 WtEn= 0.00D+00
 Coeff-Com:  0.246D-01-0.209D-01-0.524D-01-0.491D-01 0.193D+00 0.905D+00
 Coeff:      0.246D-01-0.209D-01-0.524D-01-0.491D-01 0.193D+00 0.905D+00
 Gap=     0.516 Goal=   None    Shift=    0.000
 RMSDP=1.60D-08 MaxDP=1.21D-06 DE=-6.20D-11 OVMax= 1.25D-06

 Cycle  14  Pass 1  IDiag  1:
 RMSU=  6.94D-09    CP:  1.00D+00  1.98D+00  1.59D+00  1.62D+00  1.34D+00
                    CP:  1.19D+00
 E= -227.791899165679     Delta-E=       -0.000000000000 Rises=F Damp=F
 DIIS: error= 3.09D-08 at cycle   7 NSaved=   7.
 NSaved= 7 IEnMin= 7 EnMin= -227.791899165679     IErMin= 7 ErrMin= 3.09D-08
 ErrMax= 3.09D-08  0.00D+00 EMaxC= 1.00D-01 BMatC= 1.69D-13 BMatP= 1.31D-12
 IDIUse=1 WtCom= 1.00D+00 WtEn= 0.00D+00
 Coeff-Com: -0.214D-01 0.184D-01 0.496D-01-0.939D-02-0.206D+00-0.127D+00
 Coeff-Com:  0.130D+01
 Coeff:     -0.214D-01 0.184D-01 0.496D-01-0.939D-02-0.206D+00-0.127D+00
 Coeff:      0.130D+01
 Gap=     0.516 Goal=   None    Shift=    0.000
 RMSDP=8.63D-09 MaxDP=5.40D-07 DE=-5.68D-14 OVMax= 5.56D-07

 SCF Done:  E(RHF) =  -227.791899166     A.U. after   14 cycles
            NFock= 14  Conv=0.86D-08     -V/T= 2.0014
 KE= 2.274624096210D+02 PE=-8.045016350999D+02 EE= 2.091765218382D+02
 Leave Link  502 at Thu Mar  7 07:05:59 2019, MaxMem=    33554432 cpu:       234.5
 (Enter /home/proyectos/fulerenos/M3C-v2.0/M3C-deps_CCC/g09-AM64L-G09RevC.01/l801.exe)
 Windowed orbitals will be sorted by symmetry type.
 ExpMin= 3.60D-02 ExpMax= 8.59D+03 ExpMxC= 1.30D+03 IAcc=3 IRadAn=         5 AccDes= 0.00D+00
 HarFok:  IExCor=  205 AccDes= 0.00D+00 IRadAn=         5 IDoV=-2 UseB2=F ITyADJ=14
 ICtDFT= 12500011 ScaDFX=  1.000000  1.000000  1.000000  1.000000
 Largest valence mixing into a core orbital is  1.27D-04
 Largest core mixing into a valence orbital is  4.03D-05
 Range of M.O.s used for correlation:     6   225
 NBasis=   225 NAE=    17 NBE=    17 NFC=     5 NFV=     0
 NROrb=    220 NOA=    12 NOB=    12 NVA=   208 NVB=   208

 **** Warning!!: The largest alpha MO coefficient is  0.77116976D+02

 Leave Link  801 at Thu Mar  7 07:05:59 2019, MaxMem=    33554432 cpu:         1.3
 (Enter /home/proyectos/fulerenos/M3C-v2.0/M3C-deps_CCC/g09-AM64L-G09RevC.01/l804.exe)
 Closed-shell transformation, MDV=    33554432 ITran=4 ISComp=2.
 Semi-Direct transformation.
 ModeAB=           4 MOrb=            12 LenV=      32279805
 LASXX=     30862542 LTotXX=    30862542 LenRXX=    62168616
 LTotAB=    31306074 MaxLAS=    57863520 LenRXY=           0
 NonZer=    93031158 LenScr=   141880832 LnRSAI=    57863520
 LnScr1=    88346112 LExtra=           0 Total=    350259080
 MaxDsk=          -1 SrtSym=           T ITran=            4
 DoSDTr:  NPSUse=  4
 JobTyp=0 Pass  1:  I=   1 to  12.
 Complete sort for first half transformation.
 First half transformation complete.
 Begin second half transformation for I=  10.
 Complete sort for second half transformation.
 Second half transformation complete.
 Spin components of T(2) and E(2):
     alpha-alpha T2 =       0.3429673056D-01 E2=     -0.1037689242D+00
     alpha-beta  T2 =       0.1912130650D+00 E2=     -0.6139869043D+00
     beta-beta   T2 =       0.3429673056D-01 E2=     -0.1037689242D+00
 ANorm=    0.1122411033D+01
 E2 =    -0.8215247528D+00 EUMP2 =    -0.22861342391845D+03
 Leave Link  804 at Thu Mar  7 07:06:41 2019, MaxMem=    33554432 cpu:       162.6
 (Enter /home/proyectos/fulerenos/M3C-v2.0/M3C-deps_CCC/g09-AM64L-G09RevC.01/l913.exe)
 CIDS:  MDV=    33554432.
 Frozen-core window:  NFC=   5 NFV=   0.
 IFCWin=0 IBDFC=1 NFBD=     0     0 NFCmp=     0     0 NFFFC=     0     0
 Using DD3R+UMP44R for 1st iteration, S=T.
 Using DD4RQ for 2nd and later iterations.
 Would need an additional       452311616 words for in-memory AO integral storage.
 CCSD(T)
 =======
 Iterations= 200 Convergence= 0.100D-06
 Iteration Nr.   1
 **********************
 DD1Dir will call FoFJK   3 times, MxPair=        52
 NAB=    78 NAA=     0 NBB=     0 NumPrc=  4.
 DD1Dir:  Pass   1 NRAB=    26 NRAA=     0 NRBB=     0 NR=    52.
 FoFJK:  IHMeth= 1 ICntrl=     200 DoSepK=F KAlg= 0 I1Cent=   0 FoldK=F
 IRaf= 990000000 NMat=  52 IRICut=      65 DoRegI=T DoRafI=T ISym2E=-1.
 FoFCou: FMM=F IPFlag=           0 FMFlag=      100000 FMFlg1=           0
         NFxFlg=           0 DoJE=F BraDBF=F KetDBF=F FulRan=T
         wScrn=  0.000000 ICntrl=     200 IOpCl=  0 I1Cent=           0 NGrid=           0
         NMat0=   52 NMatS0=      0 NMatT0=   26 NMatD0=   52 NMtDS0=    0 NMtDT0=    0
 Petite list used in FoFCou.
 DD1Dir:  Pass   2 NRAB=    26 NRAA=     0 NRBB=     0 NR=    52.
 DD1Dir:  Pass   3 NRAB=    26 NRAA=     0 NRBB=     0 NR=    52.
 MP4(R+Q)=  0.23114947D-01
 Maximum subspace dimension=  5
 Norm of the A-vectors is  1.2201262D+00 conv= 1.00D-05.
 RLE energy=       -0.8029722882
 E3=       -0.49590177D-02        EUMP3=      -0.22861838294D+03
 E4(DQ)=    0.16773649D-02        UMP4(DQ)=   -0.22861670557D+03
 E4(SDQ)=  -0.97530793D-02        UMP4(SDQ)=  -0.22862813602D+03
 VARIATIONAL ENERGIES WITH THE FIRST-ORDER WAVEFUNCTION:
 DE(Corr)= -0.80254445     E(Corr)=     -228.59444361    
 NORM(A)=   0.11203407D+01
 Iteration Nr.   2
 **********************
 DD1Dir will call FoFJK   3 times, MxPair=        52
 NAB=    78 NAA=     0 NBB=     0 NumPrc=  4.
 DD1Dir:  Pass   1 NRAB=    26 NRAA=     0 NRBB=     0 NR=    52.
 DD1Dir:  Pass   2 NRAB=    26 NRAA=     0 NRBB=     0 NR=    52.
 DD1Dir:  Pass   3 NRAB=    26 NRAA=     0 NRBB=     0 NR=    52.
 Norm of the A-vectors is  4.5272211D-01 conv= 1.00D-05.
 RLE energy=       -0.8310589354
 DE(Corr)= -0.83108462     E(CORR)=     -228.62298378     Delta=-2.85D-02
 NORM(A)=   0.11310689D+01
 Iteration Nr.   3
 **********************
 DD1Dir will call FoFJK   3 times, MxPair=        52
 NAB=    78 NAA=     0 NBB=     0 NumPrc=  4.
 DD1Dir:  Pass   1 NRAB=    26 NRAA=     0 NRBB=     0 NR=    52.
 DD1Dir:  Pass   2 NRAB=    26 NRAA=     0 NRBB=     0 NR=    52.
 DD1Dir:  Pass   3 NRAB=    26 NRAA=     0 NRBB=     0 NR=    52.
 Norm of the A-vectors is  1.3244070D-01 conv= 1.00D-05.
 RLE energy=       -0.8325647630
 DE(Corr)= -0.83000443     E(CORR)=     -228.62190359     Delta= 1.08D-03
 NORM(A)=   0.11340461D+01
 Iteration Nr.   4
 **********************
 DD1Dir will call FoFJK   3 times, MxPair=        52
 NAB=    78 NAA=     0 NBB=     0 NumPrc=  4.
 DD1Dir:  Pass   1 NRAB=    26 NRAA=     0 NRBB=     0 NR=    52.
 DD1Dir:  Pass   2 NRAB=    26 NRAA=     0 NRBB=     0 NR=    52.
 DD1Dir:  Pass   3 NRAB=    26 NRAA=     0 NRBB=     0 NR=    52.
 Norm of the A-vectors is  5.2642764D-02 conv= 1.00D-05.
 RLE energy=       -0.8327538863
 DE(Corr)= -0.83256057     E(CORR)=     -228.62445973     Delta=-2.56D-03
 NORM(A)=   0.11348851D+01
 Iteration Nr.   5
 **********************
 DD1Dir will call FoFJK   3 times, MxPair=        52
 NAB=    78 NAA=     0 NBB=     0 NumPrc=  4.
 DD1Dir:  Pass   1 NRAB=    26 NRAA=     0 NRBB=     0 NR=    52.
 DD1Dir:  Pass   2 NRAB=    26 NRAA=     0 NRBB=     0 NR=    52.
 DD1Dir:  Pass   3 NRAB=    26 NRAA=     0 NRBB=     0 NR=    52.
 Norm of the A-vectors is  1.2929578D-02 conv= 1.00D-05.
 RLE energy=       -0.8329233251
 DE(Corr)= -0.83287513     E(CORR)=     -228.62477430     Delta=-3.15D-04
 NORM(A)=   0.11351497D+01
 Iteration Nr.   6
 **********************
 DD1Dir will call FoFJK   3 times, MxPair=        52
 NAB=    78 NAA=     0 NBB=     0 NumPrc=  4.
 DD1Dir:  Pass   1 NRAB=    26 NRAA=     0 NRBB=     0 NR=    52.
 DD1Dir:  Pass   2 NRAB=    26 NRAA=     0 NRBB=     0 NR=    52.
 DD1Dir:  Pass   3 NRAB=    26 NRAA=     0 NRBB=     0 NR=    52.
 Norm of the A-vectors is  4.2445641D-03 conv= 1.00D-05.
 RLE energy=       -0.8329128232
 DE(Corr)= -0.83290355     E(CORR)=     -228.62480271     Delta=-2.84D-05
 NORM(A)=   0.11351627D+01
 Iteration Nr.   7
 **********************
 DD1Dir will call FoFJK   3 times, MxPair=        52
 NAB=    78 NAA=     0 NBB=     0 NumPrc=  4.
 DD1Dir:  Pass   1 NRAB=    26 NRAA=     0 NRBB=     0 NR=    52.
 DD1Dir:  Pass   2 NRAB=    26 NRAA=     0 NRBB=     0 NR=    52.
 DD1Dir:  Pass   3 NRAB=    26 NRAA=     0 NRBB=     0 NR=    52.
 Norm of the A-vectors is  1.3721600D-03 conv= 1.00D-05.
 RLE energy=       -0.8328970208
 DE(Corr)= -0.83290632     E(CORR)=     -228.62480548     Delta=-2.77D-06
 NORM(A)=   0.11351591D+01
 Iteration Nr.   8
 **********************
 DD1Dir will call FoFJK   3 times, MxPair=        52
 NAB=    78 NAA=     0 NBB=     0 NumPrc=  4.
 DD1Dir:  Pass   1 NRAB=    26 NRAA=     0 NRBB=     0 NR=    52.
 DD1Dir:  Pass   2 NRAB=    26 NRAA=     0 NRBB=     0 NR=    52.
 DD1Dir:  Pass   3 NRAB=    26 NRAA=     0 NRBB=     0 NR=    52.
 Norm of the A-vectors is  5.3385717D-04 conv= 1.00D-05.
 RLE energy=       -0.8329064057
 DE(Corr)= -0.83290681     E(CORR)=     -228.62480597     Delta=-4.91D-07
 NORM(A)=   0.11351618D+01
 Iteration Nr.   9
 **********************
 DD1Dir will call FoFJK   3 times, MxPair=        52
 NAB=    78 NAA=     0 NBB=     0 NumPrc=  4.
 DD1Dir:  Pass   1 NRAB=    26 NRAA=     0 NRBB=     0 NR=    52.
 DD1Dir:  Pass   2 NRAB=    26 NRAA=     0 NRBB=     0 NR=    52.
 DD1Dir:  Pass   3 NRAB=    26 NRAA=     0 NRBB=     0 NR=    52.
 Norm of the A-vectors is  1.9234406D-04 conv= 1.00D-05.
 RLE energy=       -0.8329048162
 DE(Corr)= -0.83290531     E(CORR)=     -228.62480448     Delta= 1.50D-06
 NORM(A)=   0.11351615D+01
 Iteration Nr.  10
 **********************
 DD1Dir will call FoFJK   3 times, MxPair=        52
 NAB=    78 NAA=     0 NBB=     0 NumPrc=  4.
 DD1Dir:  Pass   1 NRAB=    26 NRAA=     0 NRBB=     0 NR=    52.
 DD1Dir:  Pass   2 NRAB=    26 NRAA=     0 NRBB=     0 NR=    52.
 DD1Dir:  Pass   3 NRAB=    26 NRAA=     0 NRBB=     0 NR=    52.
 Norm of the A-vectors is  8.7156991D-05 conv= 1.00D-05.
 RLE energy=       -0.8329061874
 DE(Corr)= -0.83290616     E(CORR)=     -228.62480532     Delta=-8.49D-07
 NORM(A)=   0.11351620D+01
 Iteration Nr.  11
 **********************
 DD1Dir will call FoFJK   3 times, MxPair=        52
 NAB=    78 NAA=     0 NBB=     0 NumPrc=  4.
 DD1Dir:  Pass   1 NRAB=    26 NRAA=     0 NRBB=     0 NR=    52.
 DD1Dir:  Pass   2 NRAB=    26 NRAA=     0 NRBB=     0 NR=    52.
 DD1Dir:  Pass   3 NRAB=    26 NRAA=     0 NRBB=     0 NR=    52.
 Norm of the A-vectors is  4.1552941D-05 conv= 1.00D-05.
 RLE energy=       -0.8329062387
 DE(Corr)= -0.83290611     E(CORR)=     -228.62480527     Delta= 5.00D-08
 NORM(A)=   0.11351623D+01
 Iteration Nr.  12
 **********************
 DD1Dir will call FoFJK   3 times, MxPair=        52
 NAB=    78 NAA=     0 NBB=     0 NumPrc=  4.
 DD1Dir:  Pass   1 NRAB=    26 NRAA=     0 NRBB=     0 NR=    52.
 DD1Dir:  Pass   2 NRAB=    26 NRAA=     0 NRBB=     0 NR=    52.
 DD1Dir:  Pass   3 NRAB=    26 NRAA=     0 NRBB=     0 NR=    52.
 Norm of the A-vectors is  1.8876327D-05 conv= 1.00D-05.
 RLE energy=       -0.8329063282
 DE(Corr)= -0.83290631     E(CORR)=     -228.62480548     Delta=-2.04D-07
 NORM(A)=   0.11351625D+01
 Iteration Nr.  13
 **********************
 DD1Dir will call FoFJK   3 times, MxPair=        52
 NAB=    78 NAA=     0 NBB=     0 NumPrc=  4.
 DD1Dir:  Pass   1 NRAB=    26 NRAA=     0 NRBB=     0 NR=    52.
 DD1Dir:  Pass   2 NRAB=    26 NRAA=     0 NRBB=     0 NR=    52.
 DD1Dir:  Pass   3 NRAB=    26 NRAA=     0 NRBB=     0 NR=    52.
 Norm of the A-vectors is  7.7259547D-06 conv= 1.00D-05.
 RLE energy=       -0.8329063804
 DE(Corr)= -0.83290635     E(CORR)=     -228.62480552     Delta=-4.18D-08
 NORM(A)=   0.11351626D+01
 CI/CC converged in   13 iterations to DelEn=-4.18D-08 Conv= 1.00D-07 ErrA1= 7.73D-06 Conv= 1.00D-05
 Largest amplitude= 4.91D-02
 IPart=  1 IA=   12   10.32% done.
 IPart=  3 IA=   23   20.08% done.
 IPart=  2 IA=   35   30.09% done.
 IPart=  1 IA=   48   40.17% done.
 IPart=  4 IA=   62   50.15% done.
 IPart=  4 IA=   78   60.45% done.
 IPart=  4 IA=   95   70.08% done.
 IPart=  2 IA=  116   80.13% done.
 IPart=  3 IA=  143   90.04% done.
 Time for triples=     3434.67 seconds.
 T4(CCSD)= -0.45460746D-01
 T5(CCSD)=  0.21932445D-02
 CCSD(T)= -0.22866807302D+03
 Discarding MO integrals.
 Leave Link  913 at Thu Mar  7 07:35:03 2019, MaxMem=    33554432 cpu:      6782.1
 (Enter /home/proyectos/fulerenos/M3C-v2.0/M3C-deps_CCC/g09-AM64L-G09RevC.01/l601.exe)
 Copying SCF densities to generalized density rwf, IOpCl= 0 IROHF=0.

 **********************************************************************

            Population analysis using the SCF density.

 **********************************************************************

 Orbital symmetries:
       Occupied  (A') (A') (A') (A') (A") (A') (A') (A') (A') (A")
                 (A') (A') (A") (A') (A') (A") (A')
       Virtual   (A") (A') (A') (A") (A') (A") (A') (A") (A') (A')
                 (A') (A') (A") (A") (A') (A') (A") (A') (A") (A')
                 (A") (A') (A') (A") (A') (A") (A') (A') (A") (A')
                 (A') (A') (A") (A') (A') (A') (A') (A") (A') (A")
                 (A') (A") (A') (A") (A') (A") (A') (A") (A") (A')
                 (A') (A") (A') (A") (A') (A') (A") (A') (A') (A")
                 (A') (A") (A') (A") (A') (A") (A') (A') (A") (A")
                 (A') (A') (A") (A') (A') (A") (A') (A") (A') (A')
                 (A") (A') (A") (A') (A') (A") (A') (A") (A') (A')
                 (A') (A") (A") (A') (A') (A") (A') (A") (A') (A')
                 (A') (A") (A') (A") (A') (A") (A') (A') (A") (A')
                 (A') (A') (A") (A') (A") (A') (A") (A') (A') (A")
                 (A') (A") (A') (A") (A") (A") (A') (A') (A') (A")
                 (A') (A") (A') (A') (A") (A") (A') (A') (A") (A')
                 (A") (A") (A') (A") (A') (A') (A') (A") (A') (A")
                 (A') (A") (A') (A') (A") (A') (A") (A') (A") (A')
                 (A") (A') (A") (A') (A") (A') (A") (A") (A') (A')
                 (A") (A') (A') (A') (A") (A') (A") (A') (A') (A")
                 (A") (A') (A') (A") (A") (A') (A') (A") (A') (A")
                 (A") (A') (A") (A') (A') (A') (A") (A') (A') (A")
                 (A") (A') (A') (A') (A') (A') (A") (A')
 The electronic state is 1-A'.
 Alpha  occ. eigenvalues --  -20.92419 -11.66615 -11.52913 -11.50849 -11.50596
 Alpha  occ. eigenvalues --   -1.77699  -1.43753  -1.21474  -1.02173  -1.01213
 Alpha  occ. eigenvalues --   -0.94063  -0.93316  -0.90390  -0.87825  -0.77513
 Alpha  occ. eigenvalues --   -0.67646  -0.63851
 Alpha virt. eigenvalues --   -0.12285  -0.11571  -0.09626  -0.08356  -0.06908
 Alpha virt. eigenvalues --   -0.06323  -0.06075  -0.02397  -0.02388  -0.01548
 Alpha virt. eigenvalues --   -0.00374   0.01162   0.01733   0.02782   0.03883
 Alpha virt. eigenvalues --    0.04179   0.04508   0.05000   0.06173   0.06272
 Alpha virt. eigenvalues --    0.07185   0.08166   0.11593   0.14040   0.16702
 Alpha virt. eigenvalues --    0.18082   0.20014   0.21012   0.21540   0.22350
 Alpha virt. eigenvalues --    0.23452   0.24715   0.29497   0.29588   0.30248
 Alpha virt. eigenvalues --    0.32197   0.34814   0.35930   0.36212   0.36566
 Alpha virt. eigenvalues --    0.38645   0.41498   0.43593   0.46207   0.46779
 Alpha virt. eigenvalues --    0.46956   0.48659   0.51016   0.51964   0.53577
 Alpha virt. eigenvalues --    0.55040   0.56220   0.61056   0.63121   0.65348
 Alpha virt. eigenvalues --    0.67490   0.72773   0.74622   0.76506   0.77309
 Alpha virt. eigenvalues --    0.78611   0.83025   0.84531   0.85941   0.88161
 Alpha virt. eigenvalues --    0.93795   0.95879   0.99210   1.01569   1.03554
 Alpha virt. eigenvalues --    1.04031   1.04700   1.04945   1.10719   1.12500
 Alpha virt. eigenvalues --    1.17340   1.17554   1.18985   1.19296   1.24851
 Alpha virt. eigenvalues --    1.26187   1.30048   1.36376   1.36988   1.37931
 Alpha virt. eigenvalues --    1.45315   1.45778   1.48651   1.50345   1.50939
 Alpha virt. eigenvalues --    1.55375   1.55513   1.61071   1.65609   1.70241
 Alpha virt. eigenvalues --    1.70694   1.76340   1.85592   1.88487   1.99514
 Alpha virt. eigenvalues --    2.01699   2.05182   2.14350   2.21815   2.26427
 Alpha virt. eigenvalues --    2.29173   2.41085   2.43997   2.49090   2.67816
 Alpha virt. eigenvalues --    2.73003   2.74375   2.76566   2.79887   2.83093
 Alpha virt. eigenvalues --    2.83886   2.91899   2.92627   2.96222   2.96510
 Alpha virt. eigenvalues --    2.99818   3.00440   3.07502   3.08110   3.12413
 Alpha virt. eigenvalues --    3.12834   3.13484   3.18563   3.25471   3.28543
 Alpha virt. eigenvalues --    3.29357   3.35343   3.37933   3.40864   3.47096
 Alpha virt. eigenvalues --    3.56624   3.60756   3.64478   3.68052   3.73509
 Alpha virt. eigenvalues --    3.76032   3.82041   3.84079   3.91817   3.97784
 Alpha virt. eigenvalues --    3.99647   4.07899   4.13425   4.22165   4.27391
 Alpha virt. eigenvalues --    4.29158   4.32450   4.41190   4.53833   4.59821
 Alpha virt. eigenvalues --    4.69941   4.72537   4.77326   4.95271   4.96096
 Alpha virt. eigenvalues --    5.02683   5.18588   5.18638   5.23296   5.29713
 Alpha virt. eigenvalues --    5.53961   5.55053   5.68346   5.69433   5.74936
 Alpha virt. eigenvalues --    5.78114   5.81488   6.11599   6.29549   6.72908
 Alpha virt. eigenvalues --    6.80513   6.85255   6.89909   7.08534   7.08600
 Alpha virt. eigenvalues --    7.30576   7.34423   7.38654   7.44847   7.50805
 Alpha virt. eigenvalues --    7.53047   7.60139   7.71848   7.74182   7.80756
 Alpha virt. eigenvalues --    8.04179   8.04741   8.19900   8.41831   8.48156
 Alpha virt. eigenvalues --    8.75621   8.75815   9.04915  14.71721  14.71775
 Alpha virt. eigenvalues --   15.30225  15.32306  15.56926  25.02812  25.84532
 Alpha virt. eigenvalues --   26.15471  27.30241  52.18395
          Condensed to atoms (all electrons):
               1          2          3          4          5          6
     1  C    6.333612  -0.189005  -0.000960  -0.195573  -0.337352   0.398039
     2  C   -0.189005   6.126410   0.029597  -0.664737  -0.189005   0.007487
     3  O   -0.000960   0.029597   8.476393   0.074443  -0.000960  -0.002182
     4  C   -0.195573  -0.664737   0.074443   6.814829  -0.195573  -0.052003
     5  C   -0.337352  -0.189005  -0.000960  -0.195573   6.333612  -0.021183
     6  H    0.398039   0.007487  -0.002182  -0.052003  -0.021183   0.359758
     7  H   -0.025889  -0.065941  -0.003427   0.524595  -0.025889  -0.002266
     8  H   -0.021183   0.007487  -0.002182  -0.052003   0.398039   0.001512
               7          8
     1  C   -0.025889  -0.021183
     2  C   -0.065941   0.007487
     3  O   -0.003427  -0.002182
     4  C    0.524595  -0.052003
     5  C   -0.025889   0.398039
     6  H   -0.002266   0.001512
     7  H    0.412389  -0.002266
     8  H   -0.002266   0.359758
 Mulliken charges:
               1
     1  C    0.038310
     2  C    0.937706
     3  O   -0.570722
     4  C   -0.253978
     5  C    0.038310
     6  H    0.310839
     7  H    0.188696
     8  H    0.310839
 Sum of Mulliken charges =   1.00000
 Mulliken charges with hydrogens summed into heavy atoms:
               1
     1  C    0.349149
     2  C    0.937706
     3  O   -0.570722
     4  C   -0.065283
     5  C    0.349149
 Electronic spatial extent (au):  <R**2>=            357.1161
 Charge=              1.0000 electrons
 Dipole moment (field-independent basis, Debye):
    X=             -0.7231    Y=              1.7711    Z=              0.0000  Tot=              1.9130
 Quadrupole moment (field-independent basis, Debye-Ang):
   XX=            -23.6605   YY=            -18.4845   ZZ=            -20.3061
   XY=              2.2375   XZ=              0.0000   YZ=              0.0000
 Traceless Quadrupole moment (field-independent basis, Debye-Ang):
   XX=             -2.8434   YY=              2.3325   ZZ=              0.5109
   XY=              2.2375   XZ=              0.0000   YZ=              0.0000
 Octapole moment (field-independent basis, Debye-Ang**2):
  XXX=             -4.6155  YYY=             -0.5170  ZZZ=              0.0000  XYY=              2.7976
  XXY=             -2.6650  XXZ=             -0.0000  XZZ=              4.1640  YZZ=              7.6540
  YYZ=              0.0000  XYZ=              0.0000
 Hexadecapole moment (field-independent basis, Debye-Ang**3):
 XXXX=            -47.1929 YYYY=           -298.5873 ZZZZ=            -46.0310 XXXY=             -6.0471
 XXXZ=             -0.0000 YYYX=              5.4574 YYYZ=              0.0000 ZZZX=              0.0000
 ZZZY=             -0.0000 XXYY=            -58.8290 XXZZ=            -19.0199 YYZZ=            -41.2852
 XXYZ=             -0.0000 YYXZ=              0.0000 ZZXY=              5.2595
 N-N= 1.400708044750D+02 E-N=-8.045016361569D+02  KE= 2.274624096210D+02
 Symmetry A'   KE= 1.863543642019D+02
 Symmetry A"   KE= 4.110804541904D+01
 Leave Link  601 at Thu Mar  7 07:35:04 2019, MaxMem=    33554432 cpu:         0.5
 (Enter /home/proyectos/fulerenos/M3C-v2.0/M3C-deps_CCC/g09-AM64L-G09RevC.01/l9999.exe)
 1\1\GINC-FOSFORO\SP\RCCSD(T)-FC\6-311++G(3df,2p)\C4H3O1(1+)\NAGUIRRE\0
 7-Mar-2019\0\\#p ccsd(t,maxcyc=200)/6-311++G(3df,2p)\\ccsd(t) iener\\1
 ,1\C,0,-1.409382037,0.608272663,-0.135376443\C,0,0.912513636,-0.127256
 664,0.465605655\O,0,1.980665061,-0.180343164,0.132937382\C,0,-0.431643
 282,-0.060787818,0.854660843\C,0,-1.467899991,-0.659123674,-0.12102100
 3\H,0,-1.713897803,1.605978708,-0.399089764\H,0,-0.569580568,-0.042197
 306,1.933676139\H,0,-1.863319523,-1.630233878,-0.3624341\\Version=EM64
 L-G09RevE.01\State=1-A'\HF=-227.7918992\MP2=-228.6134239\MP3=-228.6183
 829\MP4D=-228.6398205\MP4DQ=-228.6167056\MP4SDQ=-228.628136\CCSD=-228.
 6248055\CCSD(T)=-228.668073\RMSD=8.629e-09\PG=CS [SG(C2H1O1),X(C2H2)]\
 \@


 I am not a vegetarian because I love animals;
 I am a vegetarian because I hate plants.
                               -- A. Whitney Brown
 Job cpu time:       0 days  1 hours 59 minutes 49.6 seconds.
 File lengths (MBytes):  RWF=   2732 Int=      0 D2E=      0 Chk=      4 Scr=      1
 Normal termination of Gaussian 09 at Thu Mar  7 07:35:05 2019.
