 Entering Gaussian System, Link 0=/home/proyectos/fulerenos/M3C-v2.0/M3C-deps_CCC/g09-AM64L-G09RevC.01/g09
 Initial command:
 /home/proyectos/fulerenos/M3C-v2.0/M3C-deps_CCC/g09-AM64L-G09RevC.01/l1.exe "/scratch/naguirre/gaussian/Gau-17838.inp" -scrdir="/scratch/naguirre/gaussian/"
 Entering Link 1 = /home/proyectos/fulerenos/M3C-v2.0/M3C-deps_CCC/g09-AM64L-G09RevC.01/l1.exe PID=     17849.
  
 Copyright (c) 1988,1990,1992,1993,1995,1998,2003,2009,2015,
            Gaussian, Inc.  All Rights Reserved.
  
 This is part of the Gaussian(R) 09 program.  It is based on
 the Gaussian(R) 03 system (copyright 2003, Gaussian, Inc.),
 the Gaussian(R) 98 system (copyright 1998, Gaussian, Inc.),
 the Gaussian(R) 94 system (copyright 1995, Gaussian, Inc.),
 the Gaussian 92(TM) system (copyright 1992, Gaussian, Inc.),
 the Gaussian 90(TM) system (copyright 1990, Gaussian, Inc.),
 the Gaussian 88(TM) system (copyright 1988, Gaussian, Inc.),
 the Gaussian 86(TM) system (copyright 1986, Carnegie Mellon
 University), and the Gaussian 82(TM) system (copyright 1983,
 Carnegie Mellon University). Gaussian is a federally registered
 trademark of Gaussian, Inc.
  
 This software contains proprietary and confidential information,
 including trade secrets, belonging to Gaussian, Inc.
  
 This software is provided under written license and may be
 used, copied, transmitted, or stored only in accord with that
 written license.
  
 The following legend is applicable only to US Government
 contracts under FAR:
  
                    RESTRICTED RIGHTS LEGEND
  
 Use, reproduction and disclosure by the US Government is
 subject to restrictions as set forth in subparagraphs (a)
 and (c) of the Commercial Computer Software - Restricted
 Rights clause in FAR 52.227-19.
  
 Gaussian, Inc.
 340 Quinnipiac St., Bldg. 40, Wallingford CT 06492
  
  
 ---------------------------------------------------------------
 Warning -- This program may not be used in any manner that
 competes with the business of Gaussian, Inc. or will provide
 assistance to any competitor of Gaussian, Inc.  The licensee
 of this program is prohibited from giving any competitor of
 Gaussian, Inc. access to this program.  By using this program,
 the user acknowledges that Gaussian, Inc. is engaged in the
 business of creating and licensing software in the field of
 computational chemistry and represents and warrants to the
 licensee that it is not a competitor of Gaussian, Inc. and that
 it will not use this program in any manner prohibited above.
 ---------------------------------------------------------------
  

 Cite this work as:
 Gaussian 09, Revision E.01,
 M. J. Frisch, G. W. Trucks, H. B. Schlegel, G. E. Scuseria, 
 M. A. Robb, J. R. Cheeseman, G. Scalmani, V. Barone, B. Mennucci, 
 G. A. Petersson, H. Nakatsuji, M. Caricato, X. Li, H. P. Hratchian, 
 A. F. Izmaylov, J. Bloino, G. Zheng, J. L. Sonnenberg, M. Hada, 
 M. Ehara, K. Toyota, R. Fukuda, J. Hasegawa, M. Ishida, T. Nakajima, 
 Y. Honda, O. Kitao, H. Nakai, T. Vreven, J. A. Montgomery, Jr., 
 J. E. Peralta, F. Ogliaro, M. Bearpark, J. J. Heyd, E. Brothers, 
 K. N. Kudin, V. N. Staroverov, T. Keith, R. Kobayashi, J. Normand, 
 K. Raghavachari, A. Rendell, J. C. Burant, S. S. Iyengar, J. Tomasi, 
 M. Cossi, N. Rega, J. M. Millam, M. Klene, J. E. Knox, J. B. Cross, 
 V. Bakken, C. Adamo, J. Jaramillo, R. Gomperts, R. E. Stratmann, 
 O. Yazyev, A. J. Austin, R. Cammi, C. Pomelli, J. W. Ochterski, 
 R. L. Martin, K. Morokuma, V. G. Zakrzewski, G. A. Voth, 
 P. Salvador, J. J. Dannenberg, S. Dapprich, A. D. Daniels, 
 O. Farkas, J. B. Foresman, J. V. Ortiz, J. Cioslowski, 
 and D. J. Fox, Gaussian, Inc., Wallingford CT, 2013.
 
 ******************************************
 Gaussian 09:  EM64L-G09RevE.01 30-Nov-2015
                 7-Mar-2019 
 ******************************************
 %NProcShared=4
 Will use up to    4 processors via shared memory.
 --------------------------------------
 #p ccsd(t,maxcyc=200)/6-311++G(3df,2p)
 --------------------------------------
 1/38=1/1;
 2/12=2,17=6,18=5,40=1/2;
 3/5=4,6=6,7=1216,11=9,16=1,25=1,30=1/1,2,3;
 4//1;
 5/5=2,38=5/2;
 8/6=4,9=120000,10=2/1,4;
 9/5=7,6=200,14=2/13;
 6/7=2,8=2,9=2,10=2/1;
 99/5=1,9=1/99;
 Leave Link    1 at Thu Mar  7 07:04:54 2019, MaxMem=           0 cpu:         0.7
 (Enter /home/proyectos/fulerenos/M3C-v2.0/M3C-deps_CCC/g09-AM64L-G09RevC.01/l101.exe)
 -------------
 ccsd(t) iener
 -------------
 Symbolic Z-matrix:
 Charge =  1 Multiplicity = 1
 C                    -0.69481   0.85052   0.0001 
 C                     0.05107  -1.03055   0.23634 
 O                    -1.09495  -0.42704  -0.10826 
 C                     1.21347  -0.3855   -0.13336 
 C                     0.71754   0.91632   0.0293 
 H                    -1.45479   1.58569   0.22662 
 H                     2.22562  -0.7513   -0.18247 
 H                     1.29218   1.80284   0.25788 
 
 NAtoms=      8 NQM=        8 NQMF=       0 NMMI=      0 NMMIF=      0
                NMic=       0 NMicF=      0.
                    Isotopes and Nuclear Properties:
 (Nuclear quadrupole moments (NQMom) in fm**2, nuclear magnetic moments (NMagM)
  in nuclear magnetons)

  Atom         1           2           3           4           5           6           7           8
 IAtWgt=          12          12          16          12          12           1           1           1
 AtmWgt=  12.0000000  12.0000000  15.9949146  12.0000000  12.0000000   1.0078250   1.0078250   1.0078250
 NucSpn=           0           0           0           0           0           1           1           1
 AtZEff=   0.0000000   0.0000000   0.0000000   0.0000000   0.0000000   0.0000000   0.0000000   0.0000000
 NQMom=    0.0000000   0.0000000   0.0000000   0.0000000   0.0000000   0.0000000   0.0000000   0.0000000
 NMagM=    0.0000000   0.0000000   0.0000000   0.0000000   0.0000000   2.7928460   2.7928460   2.7928460
 AtZNuc=   6.0000000   6.0000000   8.0000000   6.0000000   6.0000000   1.0000000   1.0000000   1.0000000
 Leave Link  101 at Thu Mar  7 07:04:55 2019, MaxMem=    33554432 cpu:         1.5
 (Enter /home/proyectos/fulerenos/M3C-v2.0/M3C-deps_CCC/g09-AM64L-G09RevC.01/l202.exe)
                          Input orientation:                          
 ---------------------------------------------------------------------
 Center     Atomic      Atomic             Coordinates (Angstroms)
 Number     Number       Type             X           Y           Z
 ---------------------------------------------------------------------
      1          6           0       -0.694808    0.850524    0.000100
      2          6           0        0.051071   -1.030554    0.236338
      3          8           0       -1.094948   -0.427037   -0.108262
      4          6           0        1.213468   -0.385498   -0.133364
      5          6           0        0.717536    0.916321    0.029302
      6          1           0       -1.454787    1.585692    0.226620
      7          1           0        2.225622   -0.751296   -0.182472
      8          1           0        1.292180    1.802844    0.257884
 ---------------------------------------------------------------------
                    Distance matrix (angstroms):
                    1          2          3          4          5
     1  C    0.000000
     2  C    2.037302   0.000000
     3  O    1.343137   1.340277   0.000000
     4  C    2.277516   1.379835   2.308926   0.000000
     5  C    1.414177   2.068178   2.260228   1.402548   0.000000
     6  H    1.081366   3.018683   2.071885   3.336879   2.281661
     7  H    3.335876   2.232053   3.337190   1.077347   2.258344
     8  H    2.218443   3.093374   3.287067   2.224435   1.080920
                    6          7          8
     6  H    0.000000
     7  H    4.378845   0.000000
     8  H    2.755714   2.754788   0.000000
 Stoichiometry    C4H3O(1+)
 Framework group  C1[X(C4H3O)]
 Deg. of freedom    18
 Full point group                 C1      NOp   1
 Largest Abelian subgroup         C1      NOp   1
 Largest concise Abelian subgroup C1      NOp   1
                         Standard orientation:                         
 ---------------------------------------------------------------------
 Center     Atomic      Atomic             Coordinates (Angstroms)
 Number     Number       Type             X           Y           Z
 ---------------------------------------------------------------------
      1          6           0       -0.783910    0.754853   -0.022686
      2          6           0        0.101271   -1.060527    0.244608
      3          8           0       -1.084637   -0.550840   -0.116198
      4          6           0        1.214024   -0.333581   -0.125896
      5          6           0        0.619034    0.928628    0.015379
      6          1           0       -1.599489    1.432804    0.188417
      7          1           0        2.251473   -0.621682   -0.162954
      8          1           0        1.122601    1.859364    0.235693
 ---------------------------------------------------------------------
 Rotational constants (GHZ):     11.5372904      8.5806024      5.0417557
 Leave Link  202 at Thu Mar  7 07:04:55 2019, MaxMem=    33554432 cpu:         0.1
 (Enter /home/proyectos/fulerenos/M3C-v2.0/M3C-deps_CCC/g09-AM64L-G09RevC.01/l301.exe)
 Standard basis: 6-311++G(3df,2p) (5D, 7F)
 Ernie: Thresh=  0.10000D-02 Tol=  0.10000D-05 Strict=F.
 There are   255 symmetry adapted cartesian basis functions of A   symmetry.
 There are   225 symmetry adapted basis functions of A   symmetry.
   225 basis functions,   326 primitive gaussians,   255 cartesian basis functions
    17 alpha electrons       17 beta electrons
       nuclear repulsion energy       152.8739307492 Hartrees.
 IExCor=    0 DFT=F Ex=HF Corr=None ExCW=0 ScaHFX=  1.000000
 ScaDFX=  1.000000  1.000000  1.000000  1.000000 ScalE2=  1.000000  1.000000
 IRadAn=      0 IRanWt=     -1 IRanGd=            0 ICorTp=0 IEmpDi=  4
 NAtoms=    8 NActive=    8 NUniq=    8 SFac= 1.00D+00 NAtFMM=   60 NAOKFM=F Big=F
 Integral buffers will be    131072 words long.
 Raffenetti 1 integral format.
 Two-electron integral symmetry is turned on.
 Leave Link  301 at Thu Mar  7 07:04:55 2019, MaxMem=    33554432 cpu:         0.2
 (Enter /home/proyectos/fulerenos/M3C-v2.0/M3C-deps_CCC/g09-AM64L-G09RevC.01/l302.exe)
 NPDir=0 NMtPBC=     1 NCelOv=     1 NCel=       1 NClECP=     1 NCelD=      1
         NCelK=      1 NCelE2=     1 NClLst=     1 CellRange=     0.0.
 One-electron integrals computed using PRISM.
 NBasis=   225 RedAO= T EigKep=  1.71D-05  NBF=   225
 NBsUse=   225 1.00D-06 EigRej= -1.00D+00 NBFU=   225
 Leave Link  302 at Thu Mar  7 07:04:55 2019, MaxMem=    33554432 cpu:         1.4
 (Enter /home/proyectos/fulerenos/M3C-v2.0/M3C-deps_CCC/g09-AM64L-G09RevC.01/l303.exe)
 DipDrv:  MaxL=1.
 Leave Link  303 at Thu Mar  7 07:04:55 2019, MaxMem=    33554432 cpu:         0.2
 (Enter /home/proyectos/fulerenos/M3C-v2.0/M3C-deps_CCC/g09-AM64L-G09RevC.01/l401.exe)
 ExpMin= 3.60D-02 ExpMax= 8.59D+03 ExpMxC= 1.30D+03 IAcc=3 IRadAn=         5 AccDes= 0.00D+00
 Harris functional with IExCor=  205 and IRadAn=       5 diagonalized for initial guess.
 HarFok:  IExCor=  205 AccDes= 0.00D+00 IRadAn=         5 IDoV= 1 UseB2=F ITyADJ=14
 ICtDFT=  3500011 ScaDFX=  1.000000  1.000000  1.000000  1.000000
 FoFCou: FMM=F IPFlag=           0 FMFlag=      100000 FMFlg1=           0
         NFxFlg=           0 DoJE=T BraDBF=F KetDBF=T FulRan=T
         wScrn=  0.000000 ICntrl=     500 IOpCl=  0 I1Cent=   200000004 NGrid=           0
         NMat0=    1 NMatS0=      1 NMatT0=    0 NMatD0=    1 NMtDS0=    0 NMtDT0=    0
 Petite list used in FoFCou.
 Harris En= -227.923111839742    
 JPrj=0 DoOrth=F DoCkMO=F.
 Leave Link  401 at Thu Mar  7 07:04:57 2019, MaxMem=    33554432 cpu:         6.2
 (Enter /home/proyectos/fulerenos/M3C-v2.0/M3C-deps_CCC/g09-AM64L-G09RevC.01/l502.exe)
 Closed shell SCF:
 Using DIIS extrapolation, IDIIS=  1040.
 Integral symmetry usage will be decided dynamically.
 IVT=      216989 IEndB=      216989 NGot=    33554432 MDV=    33419364
 LenX=    33419364 LenY=    33353898
 Requested convergence on RMS density matrix=1.00D-08 within 128 cycles.
 Requested convergence on MAX density matrix=1.00D-06.
 Requested convergence on             energy=1.00D-06.
 No special actions if energy rises.
 Fock matrices will be formed incrementally for  20 cycles.

 Cycle   1  Pass 0  IDiag  1:
 FoFJK:  IHMeth= 1 ICntrl=       0 DoSepK=F KAlg= 0 I1Cent=   0 FoldK=F
 IRaf= 990000000 NMat=   1 IRICut=       1 DoRegI=T DoRafI=F ISym2E= 0.
 FoFCou: FMM=F IPFlag=           0 FMFlag=      100000 FMFlg1=           0
         NFxFlg=           0 DoJE=F BraDBF=F KetDBF=F FulRan=T
         wScrn=  0.000000 ICntrl=       0 IOpCl=  0 I1Cent=           0 NGrid=           0
         NMat0=    1 NMatS0=      1 NMatT0=    0 NMatD0=    1 NMtDS0=    0 NMtDT0=    0
 Symmetry not used in FoFCou.
 E= -227.509426205613    
 DIIS: error= 3.40D-02 at cycle   1 NSaved=   1.
 NSaved= 1 IEnMin= 1 EnMin= -227.509426205613     IErMin= 1 ErrMin= 3.40D-02
 ErrMax= 3.40D-02  0.00D+00 EMaxC= 1.00D-01 BMatC= 4.05D-01 BMatP= 4.05D-01
 IDIUse=3 WtCom= 6.60D-01 WtEn= 3.40D-01
 Coeff-Com:  0.100D+01
 Coeff-En:   0.100D+01
 Coeff:      0.100D+01
 Gap=     0.314 Goal=   None    Shift=    0.000
 GapD=    0.314 DampG=1.000 DampE=0.500 DampFc=0.5000 IDamp=-1.
 Damping current iteration by 5.00D-01
 RMSDP=2.74D-03 MaxDP=9.38D-02              OVMax= 2.24D-01

 Cycle   2  Pass 0  IDiag  1:
 RMSU=  1.37D-03    CP:  9.96D-01
 E= -227.599936809230     Delta-E=       -0.090510603617 Rises=F Damp=T
 DIIS: error= 2.02D-02 at cycle   2 NSaved=   2.
 NSaved= 2 IEnMin= 2 EnMin= -227.599936809230     IErMin= 2 ErrMin= 2.02D-02
 ErrMax= 2.02D-02  0.00D+00 EMaxC= 1.00D-01 BMatC= 9.35D-02 BMatP= 4.05D-01
 IDIUse=3 WtCom= 7.98D-01 WtEn= 2.02D-01
 Coeff-Com: -0.558D+00 0.156D+01
 Coeff-En:   0.000D+00 0.100D+01
 Coeff:     -0.445D+00 0.144D+01
 Gap=     0.418 Goal=   None    Shift=    0.000
 RMSDP=1.07D-03 MaxDP=6.16D-02 DE=-9.05D-02 OVMax= 1.11D-01

 Cycle   3  Pass 0  IDiag  1:
 RMSU=  9.79D-04    CP:  9.96D-01  1.31D+00
 E= -227.686277049618     Delta-E=       -0.086340240388 Rises=F Damp=F
 DIIS: error= 6.71D-03 at cycle   3 NSaved=   3.
 NSaved= 3 IEnMin= 3 EnMin= -227.686277049618     IErMin= 3 ErrMin= 6.71D-03
 ErrMax= 6.71D-03  0.00D+00 EMaxC= 1.00D-01 BMatC= 9.13D-03 BMatP= 9.35D-02
 IDIUse=3 WtCom= 9.33D-01 WtEn= 6.71D-02
 Coeff-Com: -0.254D+00 0.460D+00 0.794D+00
 Coeff-En:   0.000D+00 0.000D+00 0.100D+01
 Coeff:     -0.237D+00 0.429D+00 0.808D+00
 Gap=     0.360 Goal=   None    Shift=    0.000
 RMSDP=5.80D-04 MaxDP=2.06D-02 DE=-8.63D-02 OVMax= 6.37D-02

 Cycle   4  Pass 0  IDiag  1:
 RMSU=  3.88D-04    CP:  9.94D-01  1.62D+00  9.21D-01
 E= -227.697519312469     Delta-E=       -0.011242262851 Rises=F Damp=F
 DIIS: error= 1.64D-03 at cycle   4 NSaved=   4.
 NSaved= 4 IEnMin= 4 EnMin= -227.697519312469     IErMin= 4 ErrMin= 1.64D-03
 ErrMax= 1.64D-03  0.00D+00 EMaxC= 1.00D-01 BMatC= 8.09D-04 BMatP= 9.13D-03
 IDIUse=3 WtCom= 9.84D-01 WtEn= 1.64D-02
 Coeff-Com: -0.331D-01 0.419D-01 0.240D+00 0.751D+00
 Coeff-En:   0.000D+00 0.000D+00 0.000D+00 0.100D+01
 Coeff:     -0.326D-01 0.412D-01 0.236D+00 0.756D+00
 Gap=     0.363 Goal=   None    Shift=    0.000
 RMSDP=1.94D-04 MaxDP=1.74D-02 DE=-1.12D-02 OVMax= 1.77D-02

 Cycle   5  Pass 0  IDiag  1:
 RMSU=  1.57D-04    CP:  9.97D-01  1.64D+00  9.92D-01  1.19D+00
 E= -227.699044205498     Delta-E=       -0.001524893029 Rises=F Damp=F
 DIIS: error= 1.09D-03 at cycle   5 NSaved=   5.
 NSaved= 5 IEnMin= 5 EnMin= -227.699044205498     IErMin= 5 ErrMin= 1.09D-03
 ErrMax= 1.09D-03  0.00D+00 EMaxC= 1.00D-01 BMatC= 1.91D-04 BMatP= 8.09D-04
 IDIUse=3 WtCom= 9.89D-01 WtEn= 1.09D-02
 Coeff-Com:  0.679D-01-0.123D+00-0.157D+00-0.190D+00 0.140D+01
 Coeff-En:   0.000D+00 0.000D+00 0.000D+00 0.000D+00 0.100D+01
 Coeff:      0.672D-01-0.121D+00-0.156D+00-0.188D+00 0.140D+01
 Gap=     0.367 Goal=   None    Shift=    0.000
 RMSDP=3.05D-04 MaxDP=2.89D-02 DE=-1.52D-03 OVMax= 2.61D-02

 Cycle   6  Pass 0  IDiag  1:
 RMSU=  9.04D-05    CP:  1.00D+00  1.68D+00  1.07D+00  1.67D+00  2.23D+00
 E= -227.700352865579     Delta-E=       -0.001308660081 Rises=F Damp=F
 DIIS: error= 6.62D-04 at cycle   6 NSaved=   6.
 NSaved= 6 IEnMin= 6 EnMin= -227.700352865579     IErMin= 6 ErrMin= 6.62D-04
 ErrMax= 6.62D-04  0.00D+00 EMaxC= 1.00D-01 BMatC= 7.65D-05 BMatP= 1.91D-04
 IDIUse=3 WtCom= 9.93D-01 WtEn= 6.62D-03
 Coeff-Com: -0.139D-01 0.276D-01 0.401D-01-0.186D+00-0.488D+00 0.162D+01
 Coeff-En:   0.000D+00 0.000D+00 0.000D+00 0.000D+00 0.000D+00 0.100D+01
 Coeff:     -0.138D-01 0.274D-01 0.398D-01-0.185D+00-0.485D+00 0.162D+01
 Gap=     0.369 Goal=   None    Shift=    0.000
 RMSDP=2.61D-04 MaxDP=2.32D-02 DE=-1.31D-03 OVMax= 2.34D-02

 Cycle   7  Pass 0  IDiag  1:
 RMSU=  7.79D-05    CP:  1.01D+00  1.71D+00  1.11D+00  2.01D+00  3.00D+00
                    CP:  1.99D+00
 E= -227.701041582463     Delta-E=       -0.000688716884 Rises=F Damp=F
 DIIS: error= 3.66D-04 at cycle   7 NSaved=   7.
 NSaved= 7 IEnMin= 7 EnMin= -227.701041582463     IErMin= 7 ErrMin= 3.66D-04
 ErrMax= 3.66D-04  0.00D+00 EMaxC= 1.00D-01 BMatC= 2.13D-05 BMatP= 7.65D-05
 IDIUse=3 WtCom= 9.96D-01 WtEn= 3.66D-03
 Coeff-Com: -0.191D-01 0.334D-01 0.640D-01 0.105D+00-0.347D+00-0.504D+00
 Coeff-Com:  0.167D+01
 Coeff-En:   0.000D+00 0.000D+00 0.000D+00 0.000D+00 0.000D+00 0.000D+00
 Coeff-En:   0.100D+01
 Coeff:     -0.191D-01 0.333D-01 0.638D-01 0.104D+00-0.346D+00-0.502D+00
 Coeff:      0.167D+01
 Gap=     0.369 Goal=   None    Shift=    0.000
 RMSDP=1.99D-04 MaxDP=1.59D-02 DE=-6.89D-04 OVMax= 1.97D-02

 Cycle   8  Pass 0  IDiag  1:
 RMSU=  4.31D-05    CP:  1.01D+00  1.72D+00  1.13D+00  2.23D+00  3.00D+00
                    CP:  2.98D+00  2.83D+00
 E= -227.701305821397     Delta-E=       -0.000264238934 Rises=F Damp=F
 DIIS: error= 1.64D-04 at cycle   8 NSaved=   8.
 NSaved= 8 IEnMin= 8 EnMin= -227.701305821397     IErMin= 8 ErrMin= 1.64D-04
 ErrMax= 1.64D-04  0.00D+00 EMaxC= 1.00D-01 BMatC= 5.56D-06 BMatP= 2.13D-05
 IDIUse=3 WtCom= 9.98D-01 WtEn= 1.64D-03
 Coeff-Com:  0.104D-02-0.281D-02 0.178D-02 0.435D-01 0.803D-01-0.484D+00
 Coeff-Com:  0.255D+00 0.111D+01
 Coeff-En:   0.000D+00 0.000D+00 0.000D+00 0.000D+00 0.000D+00 0.000D+00
 Coeff-En:   0.000D+00 0.100D+01
 Coeff:      0.104D-02-0.281D-02 0.177D-02 0.434D-01 0.802D-01-0.484D+00
 Coeff:      0.255D+00 0.111D+01
 Gap=     0.369 Goal=   None    Shift=    0.000
 RMSDP=8.41D-05 MaxDP=6.28D-03 DE=-2.64D-04 OVMax= 8.89D-03

 Cycle   9  Pass 0  IDiag  1:
 RMSU=  6.21D-05    CP:  1.01D+00  1.72D+00  1.13D+00  2.31D+00  3.00D+00
                    CP:  3.00D+00  3.00D+00  1.32D+00
 E= -227.701356154484     Delta-E=       -0.000050333087 Rises=F Damp=F
 DIIS: error= 1.04D-04 at cycle   9 NSaved=   9.
 NSaved= 9 IEnMin= 9 EnMin= -227.701356154484     IErMin= 9 ErrMin= 1.04D-04
 ErrMax= 1.04D-04  0.00D+00 EMaxC= 1.00D-01 BMatC= 1.38D-06 BMatP= 5.56D-06
 IDIUse=3 WtCom= 9.99D-01 WtEn= 1.04D-03
 Coeff-Com:  0.428D-02-0.763D-02-0.125D-01-0.358D-01 0.915D-01 0.140D+00
 Coeff-Com: -0.352D+00-0.316D+00 0.149D+01
 Coeff-En:   0.000D+00 0.000D+00 0.000D+00 0.000D+00 0.000D+00 0.000D+00
 Coeff-En:   0.000D+00 0.000D+00 0.100D+01
 Coeff:      0.428D-02-0.762D-02-0.125D-01-0.358D-01 0.914D-01 0.140D+00
 Coeff:     -0.352D+00-0.316D+00 0.149D+01
 Gap=     0.369 Goal=   None    Shift=    0.000
 RMSDP=3.93D-05 MaxDP=2.22D-03 DE=-5.03D-05 OVMax= 4.81D-03

 Cycle  10  Pass 0  IDiag  1:
 RMSU=  1.16D-05    CP:  1.01D+00  1.72D+00  1.14D+00  2.34D+00  3.00D+00
                    CP:  3.00D+00  3.00D+00  1.50D+00  1.55D+00
 E= -227.701369218709     Delta-E=       -0.000013064225 Rises=F Damp=F
 DIIS: error= 4.85D-05 at cycle  10 NSaved=  10.
 NSaved=10 IEnMin=10 EnMin= -227.701369218709     IErMin=10 ErrMin= 4.85D-05
 ErrMax= 4.85D-05  0.00D+00 EMaxC= 1.00D-01 BMatC= 4.92D-07 BMatP= 1.38D-06
 IDIUse=1 WtCom= 1.00D+00 WtEn= 0.00D+00
 Coeff-Com:  0.374D-03-0.406D-03-0.146D-02-0.191D-01 0.988D-03 0.136D+00
 Coeff-Com: -0.845D-01-0.477D+00 0.393D+00 0.105D+01
 Coeff:      0.374D-03-0.406D-03-0.146D-02-0.191D-01 0.988D-03 0.136D+00
 Coeff:     -0.845D-01-0.477D+00 0.393D+00 0.105D+01
 Gap=     0.369 Goal=   None    Shift=    0.000
 RMSDP=1.85D-05 MaxDP=1.00D-03 DE=-1.31D-05 OVMax= 2.19D-03

 Cycle  11  Pass 0  IDiag  1:
 RMSU=  3.60D-06    CP:  1.01D+00  1.72D+00  1.14D+00  2.35D+00  3.00D+00
                    CP:  3.00D+00  3.00D+00  1.61D+00  1.80D+00  1.56D+00
 E= -227.701372225745     Delta-E=       -0.000003007036 Rises=F Damp=F
 DIIS: error= 2.10D-05 at cycle  11 NSaved=  11.
 NSaved=11 IEnMin=11 EnMin= -227.701372225745     IErMin=11 ErrMin= 2.10D-05
 ErrMax= 2.10D-05  0.00D+00 EMaxC= 1.00D-01 BMatC= 7.46D-08 BMatP= 4.92D-07
 IDIUse=1 WtCom= 1.00D+00 WtEn= 0.00D+00
 Coeff-Com: -0.129D-02 0.225D-02 0.428D-02 0.107D-01-0.250D-01-0.677D-01
 Coeff-Com:  0.133D+00 0.120D+00-0.386D+00-0.315D+00 0.152D+01
 Coeff:     -0.129D-02 0.225D-02 0.428D-02 0.107D-01-0.250D-01-0.677D-01
 Coeff:      0.133D+00 0.120D+00-0.386D+00-0.315D+00 0.152D+01
 Gap=     0.369 Goal=   None    Shift=    0.000
 RMSDP=9.96D-06 MaxDP=7.07D-04 DE=-3.01D-06 OVMax= 1.17D-03

 Initial convergence to 1.0D-05 achieved.  Increase integral accuracy.
 Cycle  12  Pass 1  IDiag  1:
 E= -227.701372862688     Delta-E=       -0.000000636942 Rises=F Damp=F
 DIIS: error= 5.90D-06 at cycle   1 NSaved=   1.
 NSaved= 1 IEnMin= 1 EnMin= -227.701372862688     IErMin= 1 ErrMin= 5.90D-06
 ErrMax= 5.90D-06  0.00D+00 EMaxC= 1.00D-01 BMatC= 8.16D-09 BMatP= 8.16D-09
 IDIUse=1 WtCom= 1.00D+00 WtEn= 0.00D+00
 Coeff-Com:  0.100D+01
 Coeff:      0.100D+01
 Gap=     0.369 Goal=   None    Shift=    0.000
 RMSDP=9.96D-06 MaxDP=7.07D-04 DE=-6.37D-07 OVMax= 7.90D-05

 Cycle  13  Pass 1  IDiag  1:
 RMSU=  9.47D-07    CP:  1.00D+00
 E= -227.701372890463     Delta-E=       -0.000000027775 Rises=F Damp=F
 DIIS: error= 4.87D-06 at cycle   2 NSaved=   2.
 NSaved= 2 IEnMin= 2 EnMin= -227.701372890463     IErMin= 2 ErrMin= 4.87D-06
 ErrMax= 4.87D-06  0.00D+00 EMaxC= 1.00D-01 BMatC= 2.43D-09 BMatP= 8.16D-09
 IDIUse=1 WtCom= 1.00D+00 WtEn= 0.00D+00
 Coeff-Com: -0.245D+00 0.125D+01
 Coeff:     -0.245D+00 0.125D+01
 Gap=     0.369 Goal=   None    Shift=    0.000
 RMSDP=7.12D-07 MaxDP=3.14D-05 DE=-2.78D-08 OVMax= 8.01D-05

 Cycle  14  Pass 1  IDiag  1:
 RMSU=  3.46D-07    CP:  1.00D+00  1.65D+00
 E= -227.701372905219     Delta-E=       -0.000000014757 Rises=F Damp=F
 DIIS: error= 2.88D-06 at cycle   3 NSaved=   3.
 NSaved= 3 IEnMin= 3 EnMin= -227.701372905219     IErMin= 3 ErrMin= 2.88D-06
 ErrMax= 2.88D-06  0.00D+00 EMaxC= 1.00D-01 BMatC= 1.81D-09 BMatP= 2.43D-09
 IDIUse=1 WtCom= 1.00D+00 WtEn= 0.00D+00
 Coeff-Com: -0.669D+00 0.440D+00 0.123D+01
 Coeff:     -0.669D+00 0.440D+00 0.123D+01
 Gap=     0.369 Goal=   None    Shift=    0.000
 RMSDP=9.10D-07 MaxDP=4.84D-05 DE=-1.48D-08 OVMax= 8.22D-05

 Cycle  15  Pass 1  IDiag  1:
 RMSU=  2.11D-07    CP:  1.00D+00  2.56D+00  1.43D+00
 E= -227.701372914295     Delta-E=       -0.000000009076 Rises=F Damp=F
 DIIS: error= 8.09D-07 at cycle   4 NSaved=   4.
 NSaved= 4 IEnMin= 4 EnMin= -227.701372914295     IErMin= 4 ErrMin= 8.09D-07
 ErrMax= 8.09D-07  0.00D+00 EMaxC= 1.00D-01 BMatC= 1.30D-10 BMatP= 1.81D-09
 IDIUse=1 WtCom= 1.00D+00 WtEn= 0.00D+00
 Coeff-Com:  0.134D-01-0.663D-01-0.113D+00 0.117D+01
 Coeff:      0.134D-01-0.663D-01-0.113D+00 0.117D+01
 Gap=     0.369 Goal=   None    Shift=    0.000
 RMSDP=2.60D-07 MaxDP=1.19D-05 DE=-9.08D-09 OVMax= 2.80D-05

 Cycle  16  Pass 1  IDiag  1:
 RMSU=  7.77D-08    CP:  1.00D+00  2.78D+00  1.63D+00  1.60D+00
 E= -227.701372915222     Delta-E=       -0.000000000926 Rises=F Damp=F
 DIIS: error= 4.53D-07 at cycle   5 NSaved=   5.
 NSaved= 5 IEnMin= 5 EnMin= -227.701372915222     IErMin= 5 ErrMin= 4.53D-07
 ErrMax= 4.53D-07  0.00D+00 EMaxC= 1.00D-01 BMatC= 5.31D-11 BMatP= 1.30D-10
 IDIUse=1 WtCom= 1.00D+00 WtEn= 0.00D+00
 Coeff-Com:  0.190D+00-0.993D-01-0.435D+00 0.160D+00 0.118D+01
 Coeff:      0.190D+00-0.993D-01-0.435D+00 0.160D+00 0.118D+01
 Gap=     0.369 Goal=   None    Shift=    0.000
 RMSDP=1.65D-07 MaxDP=6.59D-06 DE=-9.26D-10 OVMax= 1.92D-05

 Cycle  17  Pass 1  IDiag  1:
 RMSU=  4.56D-08    CP:  1.00D+00  2.88D+00  1.74D+00  2.08D+00  1.65D+00
 E= -227.701372915551     Delta-E=       -0.000000000329 Rises=F Damp=F
 DIIS: error= 2.40D-07 at cycle   6 NSaved=   6.
 NSaved= 6 IEnMin= 6 EnMin= -227.701372915551     IErMin= 6 ErrMin= 2.40D-07
 ErrMax= 2.40D-07  0.00D+00 EMaxC= 1.00D-01 BMatC= 1.08D-11 BMatP= 5.31D-11
 IDIUse=1 WtCom= 1.00D+00 WtEn= 0.00D+00
 Coeff-Com: -0.192D-01 0.318D-01 0.271D-01-0.129D+00-0.205D+00 0.129D+01
 Coeff:     -0.192D-01 0.318D-01 0.271D-01-0.129D+00-0.205D+00 0.129D+01
 Gap=     0.369 Goal=   None    Shift=    0.000
 RMSDP=7.92D-08 MaxDP=5.06D-06 DE=-3.29D-10 OVMax= 9.64D-06

 Cycle  18  Pass 1  IDiag  1:
 RMSU=  1.96D-08    CP:  1.00D+00  2.91D+00  1.78D+00  2.22D+00  2.19D+00
                    CP:  1.97D+00
 E= -227.701372915646     Delta-E=       -0.000000000095 Rises=F Damp=F
 DIIS: error= 1.60D-07 at cycle   7 NSaved=   7.
 NSaved= 7 IEnMin= 7 EnMin= -227.701372915646     IErMin= 7 ErrMin= 1.60D-07
 ErrMax= 1.60D-07  0.00D+00 EMaxC= 1.00D-01 BMatC= 5.59D-12 BMatP= 1.08D-11
 IDIUse=1 WtCom= 1.00D+00 WtEn= 0.00D+00
 Coeff-Com: -0.803D-01 0.453D-01 0.167D+00 0.957D-02-0.611D+00 0.142D+00
 Coeff-Com:  0.133D+01
 Coeff:     -0.803D-01 0.453D-01 0.167D+00 0.957D-02-0.611D+00 0.142D+00
 Coeff:      0.133D+01
 Gap=     0.369 Goal=   None    Shift=    0.000
 RMSDP=7.34D-08 MaxDP=5.57D-06 DE=-9.52D-11 OVMax= 7.76D-06

 Cycle  19  Pass 1  IDiag  1:
 RMSU=  1.21D-08    CP:  1.00D+00  2.93D+00  1.81D+00  2.30D+00  2.68D+00
                    CP:  2.97D+00  2.10D+00
 E= -227.701372915698     Delta-E=       -0.000000000052 Rises=F Damp=F
 DIIS: error= 1.03D-07 at cycle   8 NSaved=   8.
 NSaved= 8 IEnMin= 8 EnMin= -227.701372915698     IErMin= 8 ErrMin= 1.03D-07
 ErrMax= 1.03D-07  0.00D+00 EMaxC= 1.00D-01 BMatC= 1.61D-12 BMatP= 5.59D-12
 IDIUse=1 WtCom= 1.00D+00 WtEn= 0.00D+00
 Coeff-Com:  0.589D-02-0.114D-01-0.118D-01 0.913D-01-0.262D-01-0.454D+00
 Coeff-Com: -0.952D-01 0.150D+01
 Coeff:      0.589D-02-0.114D-01-0.118D-01 0.913D-01-0.262D-01-0.454D+00
 Coeff:     -0.952D-01 0.150D+01
 Gap=     0.369 Goal=   None    Shift=    0.000
 RMSDP=6.54D-08 MaxDP=5.16D-06 DE=-5.21D-11 OVMax= 6.71D-06

 Cycle  20  Pass 1  IDiag  1:
 RMSU=  3.99D-08    CP:  1.00D+00  2.95D+00  1.84D+00  2.37D+00  3.00D+00
                    CP:  3.00D+00  3.00D+00  1.98D+00
 E= -227.701372915716     Delta-E=       -0.000000000018 Rises=F Damp=F
 DIIS: error= 3.61D-08 at cycle   9 NSaved=   9.
 NSaved= 9 IEnMin= 9 EnMin= -227.701372915716     IErMin= 9 ErrMin= 3.61D-08
 ErrMax= 3.61D-08  0.00D+00 EMaxC= 1.00D-01 BMatC= 3.15D-13 BMatP= 1.61D-12
 IDIUse=1 WtCom= 1.00D+00 WtEn= 0.00D+00
 Coeff-Com:  0.204D-01-0.118D-01-0.440D-01 0.227D-01 0.118D+00-0.328D-02
 Coeff-Com: -0.405D+00 0.123D+00 0.118D+01
 Coeff:      0.204D-01-0.118D-01-0.440D-01 0.227D-01 0.118D+00-0.328D-02
 Coeff:     -0.405D+00 0.123D+00 0.118D+01
 Gap=     0.369 Goal=   None    Shift=    0.000
 RMSDP=2.21D-08 MaxDP=1.82D-06 DE=-1.77D-11 OVMax= 1.96D-06

 Cycle  21  Pass 1  IDiag  1:
 RMSU=  1.09D-08    CP:  1.00D+00  2.95D+00  1.84D+00  2.39D+00  3.00D+00
                    CP:  3.00D+00  3.00D+00  2.53D+00  1.40D+00
 E= -227.701372915720     Delta-E=       -0.000000000004 Rises=F Damp=F
 DIIS: error= 1.44D-08 at cycle  10 NSaved=  10.
 NSaved=10 IEnMin=10 EnMin= -227.701372915720     IErMin=10 ErrMin= 1.44D-08
 ErrMax= 1.44D-08  0.00D+00 EMaxC= 1.00D-01 BMatC= 3.67D-14 BMatP= 3.15D-13
 IDIUse=1 WtCom= 1.00D+00 WtEn= 0.00D+00
 Coeff-Com: -0.850D-03 0.213D-02 0.616D-03-0.945D-02-0.853D-02 0.103D+00
 Coeff-Com: -0.639D-02-0.256D+00 0.251D-02 0.117D+01
 Coeff:     -0.850D-03 0.213D-02 0.616D-03-0.945D-02-0.853D-02 0.103D+00
 Coeff:     -0.639D-02-0.256D+00 0.251D-02 0.117D+01
 Gap=     0.369 Goal=   None    Shift=    0.000
 RMSDP=5.88D-09 MaxDP=4.69D-07 DE=-3.92D-12 OVMax= 4.98D-07

 SCF Done:  E(RHF) =  -227.701372916     A.U. after   21 cycles
            NFock= 21  Conv=0.59D-08     -V/T= 2.0009
 KE= 2.274927720474D+02 PE=-8.297656254464D+02 EE= 2.216975497341D+02
 Leave Link  502 at Thu Mar  7 07:07:31 2019, MaxMem=    33554432 cpu:       613.2
 (Enter /home/proyectos/fulerenos/M3C-v2.0/M3C-deps_CCC/g09-AM64L-G09RevC.01/l801.exe)
 Windowed orbitals will be sorted by symmetry type.
 ExpMin= 3.60D-02 ExpMax= 8.59D+03 ExpMxC= 1.30D+03 IAcc=3 IRadAn=         5 AccDes= 0.00D+00
 HarFok:  IExCor=  205 AccDes= 0.00D+00 IRadAn=         5 IDoV=-2 UseB2=F ITyADJ=14
 ICtDFT= 12500011 ScaDFX=  1.000000  1.000000  1.000000  1.000000
 Largest valence mixing into a core orbital is  1.41D-04
 Largest core mixing into a valence orbital is  4.61D-05
 Range of M.O.s used for correlation:     6   225
 NBasis=   225 NAE=    17 NBE=    17 NFC=     5 NFV=     0
 NROrb=    220 NOA=    12 NOB=    12 NVA=   208 NVB=   208

 **** Warning!!: The largest alpha MO coefficient is  0.65925522D+02

 Leave Link  801 at Thu Mar  7 07:07:31 2019, MaxMem=    33554432 cpu:         0.9
 (Enter /home/proyectos/fulerenos/M3C-v2.0/M3C-deps_CCC/g09-AM64L-G09RevC.01/l804.exe)
 Closed-shell transformation, MDV=    33554432 ITran=4 ISComp=1.
 Semi-Direct transformation.
 ModeAB=           2 MOrb=            12 LenV=      32257304
 LASXX=     61551699 LTotXX=    61551699 LenRXX=    61551699
 LTotAB=    62379252 MaxLAS=    86169600 LenRXY=    86169600
 NonZer=   123103398 LenScr=   186198528 LnRSAI=           0
 LnScr1=           0 LExtra=           0 Total=    333919827
 MaxDsk=          -1 SrtSym=           F ITran=            4
 DoSDTr:  NPSUse=  4
 JobTyp=0 Pass  1:  I=   1 to  12.
 Complete sort for first half transformation.
 First half transformation complete.
 Begin second half transformation for I=  10.
 Begin second half transformation for I=  10.
 Complete sort for second half transformation.
 Second half transformation complete.
 SymMOI:  orbitals are not symmetric.
 Spin components of T(2) and E(2):
     alpha-alpha T2 =       0.3468232399D-01 E2=     -0.1033540287D+00
     alpha-beta  T2 =       0.1950795727D+00 E2=     -0.6100262951D+00
     beta-beta   T2 =       0.3468232399D-01 E2=     -0.1033540287D+00
 ANorm=    0.1124475087D+01
 E2 =    -0.8167343524D+00 EUMP2 =    -0.22851810726814D+03
 Leave Link  804 at Thu Mar  7 07:08:56 2019, MaxMem=    33554432 cpu:       332.0
 (Enter /home/proyectos/fulerenos/M3C-v2.0/M3C-deps_CCC/g09-AM64L-G09RevC.01/l913.exe)
 CIDS:  MDV=    33554432.
 Frozen-core window:  NFC=   5 NFV=   0.
 IFCWin=0 IBDFC=1 NFBD=     0     0 NFCmp=     0     0 NFFFC=     0     0
 Using DD3R+UMP44R for 1st iteration, S=T.
 Using DD4RQ for 2nd and later iterations.
 Would need an additional       621292346 words for in-memory AO integral storage.
 CCSD(T)
 =======
 Iterations= 200 Convergence= 0.100D-06
 Iteration Nr.   1
 **********************
 DD1Dir will call FoFJK   3 times, MxPair=        52
 NAB=    78 NAA=     0 NBB=     0 NumPrc=  4.
 DD1Dir:  Pass   1 NRAB=    26 NRAA=     0 NRBB=     0 NR=    52.
 FoFJK:  IHMeth= 1 ICntrl=     200 DoSepK=F KAlg= 0 I1Cent=   0 FoldK=F
 IRaf= 990000000 NMat=  52 IRICut=      65 DoRegI=T DoRafI=T ISym2E= 2.
 FoFCou: FMM=F IPFlag=           0 FMFlag=      100000 FMFlg1=           0
         NFxFlg=           0 DoJE=F BraDBF=F KetDBF=F FulRan=T
         wScrn=  0.000000 ICntrl=     200 IOpCl=  0 I1Cent=           0 NGrid=           0
         NMat0=   52 NMatS0=      0 NMatT0=   26 NMatD0=   52 NMtDS0=    0 NMtDT0=    0
 Integrals replicated using symmetry in FoFCou.
 DD1Dir:  Pass   2 NRAB=    26 NRAA=     0 NRBB=     0 NR=    52.
 DD1Dir:  Pass   3 NRAB=    26 NRAA=     0 NRBB=     0 NR=    52.
 MP4(R+Q)=  0.26739346D-01
 Maximum subspace dimension=  5
 Norm of the A-vectors is  1.2909765D+00 conv= 1.00D-05.
 RLE energy=       -0.8019917105
 E3=       -0.12197078D-01        EUMP3=      -0.22853030435D+03
 E4(DQ)=    0.57177306D-02        UMP4(DQ)=   -0.22852458662D+03
 E4(SDQ)=  -0.85502440D-02        UMP4(SDQ)=  -0.22853885459D+03
 VARIATIONAL ENERGIES WITH THE FIRST-ORDER WAVEFUNCTION:
 DE(Corr)= -0.80172097     E(Corr)=     -228.50309389    
 NORM(A)=   0.11263625D+01
 Iteration Nr.   2
 **********************
 DD1Dir will call FoFJK   3 times, MxPair=        52
 NAB=    78 NAA=     0 NBB=     0 NumPrc=  4.
 DD1Dir:  Pass   1 NRAB=    26 NRAA=     0 NRBB=     0 NR=    52.
 DD1Dir:  Pass   2 NRAB=    26 NRAA=     0 NRBB=     0 NR=    52.
 DD1Dir:  Pass   3 NRAB=    26 NRAA=     0 NRBB=     0 NR=    52.
 Norm of the A-vectors is  5.8728403D-01 conv= 1.00D-05.
 RLE energy=       -0.8335308368
 DE(Corr)= -0.83316266     E(CORR)=     -228.53453557     Delta=-3.14D-02
 NORM(A)=   0.11423254D+01
 Iteration Nr.   3
 **********************
 DD1Dir will call FoFJK   3 times, MxPair=        52
 NAB=    78 NAA=     0 NBB=     0 NumPrc=  4.
 DD1Dir:  Pass   1 NRAB=    26 NRAA=     0 NRBB=     0 NR=    52.
 DD1Dir:  Pass   2 NRAB=    26 NRAA=     0 NRBB=     0 NR=    52.
 DD1Dir:  Pass   3 NRAB=    26 NRAA=     0 NRBB=     0 NR=    52.
 Norm of the A-vectors is  1.6271454D-01 conv= 1.00D-05.
 RLE energy=       -0.8367086444
 DE(Corr)= -0.83204041     E(CORR)=     -228.53341332     Delta= 1.12D-03
 NORM(A)=   0.11537929D+01
 Iteration Nr.   4
 **********************
 DD1Dir will call FoFJK   3 times, MxPair=        52
 NAB=    78 NAA=     0 NBB=     0 NumPrc=  4.
 DD1Dir:  Pass   1 NRAB=    26 NRAA=     0 NRBB=     0 NR=    52.
 DD1Dir:  Pass   2 NRAB=    26 NRAA=     0 NRBB=     0 NR=    52.
 DD1Dir:  Pass   3 NRAB=    26 NRAA=     0 NRBB=     0 NR=    52.
 Norm of the A-vectors is  1.3605866D-01 conv= 1.00D-05.
 RLE energy=       -0.8377990770
 DE(Corr)= -0.83670136     E(CORR)=     -228.53807427     Delta=-4.66D-03
 NORM(A)=   0.11637273D+01
 Iteration Nr.   5
 **********************
 DD1Dir will call FoFJK   3 times, MxPair=        52
 NAB=    78 NAA=     0 NBB=     0 NumPrc=  4.
 DD1Dir:  Pass   1 NRAB=    26 NRAA=     0 NRBB=     0 NR=    52.
 DD1Dir:  Pass   2 NRAB=    26 NRAA=     0 NRBB=     0 NR=    52.
 DD1Dir:  Pass   3 NRAB=    26 NRAA=     0 NRBB=     0 NR=    52.
 Norm of the A-vectors is  5.4989969D-02 conv= 1.00D-05.
 RLE energy=       -0.8388648915
 DE(Corr)= -0.83813777     E(CORR)=     -228.53951068     Delta=-1.44D-03
 NORM(A)=   0.11728128D+01
 Iteration Nr.   6
 **********************
 DD1Dir will call FoFJK   3 times, MxPair=        52
 NAB=    78 NAA=     0 NBB=     0 NumPrc=  4.
 DD1Dir:  Pass   1 NRAB=    26 NRAA=     0 NRBB=     0 NR=    52.
 DD1Dir:  Pass   2 NRAB=    26 NRAA=     0 NRBB=     0 NR=    52.
 DD1Dir:  Pass   3 NRAB=    26 NRAA=     0 NRBB=     0 NR=    52.
 Norm of the A-vectors is  4.7078866D-02 conv= 1.00D-05.
 RLE energy=       -0.8385845503
 DE(Corr)= -0.83866946     E(CORR)=     -228.54004238     Delta=-5.32D-04
 NORM(A)=   0.11760161D+01
 Iteration Nr.   7
 **********************
 DD1Dir will call FoFJK   3 times, MxPair=        52
 NAB=    78 NAA=     0 NBB=     0 NumPrc=  4.
 DD1Dir:  Pass   1 NRAB=    26 NRAA=     0 NRBB=     0 NR=    52.
 DD1Dir:  Pass   2 NRAB=    26 NRAA=     0 NRBB=     0 NR=    52.
 DD1Dir:  Pass   3 NRAB=    26 NRAA=     0 NRBB=     0 NR=    52.
 Norm of the A-vectors is  2.3600862D-02 conv= 1.00D-05.
 RLE energy=       -0.8386643183
 DE(Corr)= -0.83878640     E(CORR)=     -228.54015931     Delta=-1.17D-04
 NORM(A)=   0.11781360D+01
 Iteration Nr.   8
 **********************
 DD1Dir will call FoFJK   3 times, MxPair=        52
 NAB=    78 NAA=     0 NBB=     0 NumPrc=  4.
 DD1Dir:  Pass   1 NRAB=    26 NRAA=     0 NRBB=     0 NR=    52.
 DD1Dir:  Pass   2 NRAB=    26 NRAA=     0 NRBB=     0 NR=    52.
 DD1Dir:  Pass   3 NRAB=    26 NRAA=     0 NRBB=     0 NR=    52.
 Norm of the A-vectors is  1.7418393D-02 conv= 1.00D-05.
 RLE energy=       -0.8387124017
 DE(Corr)= -0.83875984     E(CORR)=     -228.54013276     Delta= 2.66D-05
 NORM(A)=   0.11790505D+01
 Iteration Nr.   9
 **********************
 DD1Dir will call FoFJK   3 times, MxPair=        52
 NAB=    78 NAA=     0 NBB=     0 NumPrc=  4.
 DD1Dir:  Pass   1 NRAB=    26 NRAA=     0 NRBB=     0 NR=    52.
 DD1Dir:  Pass   2 NRAB=    26 NRAA=     0 NRBB=     0 NR=    52.
 DD1Dir:  Pass   3 NRAB=    26 NRAA=     0 NRBB=     0 NR=    52.
 Norm of the A-vectors is  1.1479060D-02 conv= 1.00D-05.
 RLE energy=       -0.8388354320
 DE(Corr)= -0.83883933     E(CORR)=     -228.54021225     Delta=-7.95D-05
 NORM(A)=   0.11792524D+01
 Iteration Nr.  10
 **********************
 DD1Dir will call FoFJK   3 times, MxPair=        52
 NAB=    78 NAA=     0 NBB=     0 NumPrc=  4.
 DD1Dir:  Pass   1 NRAB=    26 NRAA=     0 NRBB=     0 NR=    52.
 DD1Dir:  Pass   2 NRAB=    26 NRAA=     0 NRBB=     0 NR=    52.
 DD1Dir:  Pass   3 NRAB=    26 NRAA=     0 NRBB=     0 NR=    52.
 Norm of the A-vectors is  6.7530753D-03 conv= 1.00D-05.
 RLE energy=       -0.8388091543
 DE(Corr)= -0.83879941     E(CORR)=     -228.54017233     Delta= 3.99D-05
 NORM(A)=   0.11793685D+01
 Iteration Nr.  11
 **********************
 DD1Dir will call FoFJK   3 times, MxPair=        52
 NAB=    78 NAA=     0 NBB=     0 NumPrc=  4.
 DD1Dir:  Pass   1 NRAB=    26 NRAA=     0 NRBB=     0 NR=    52.
 DD1Dir:  Pass   2 NRAB=    26 NRAA=     0 NRBB=     0 NR=    52.
 DD1Dir:  Pass   3 NRAB=    26 NRAA=     0 NRBB=     0 NR=    52.
 Norm of the A-vectors is  3.3441030D-03 conv= 1.00D-05.
 RLE energy=       -0.8388427770
 DE(Corr)= -0.83884093     E(CORR)=     -228.54021384     Delta=-4.15D-05
 NORM(A)=   0.11794221D+01
 Iteration Nr.  12
 **********************
 DD1Dir will call FoFJK   3 times, MxPair=        52
 NAB=    78 NAA=     0 NBB=     0 NumPrc=  4.
 DD1Dir:  Pass   1 NRAB=    26 NRAA=     0 NRBB=     0 NR=    52.
 DD1Dir:  Pass   2 NRAB=    26 NRAA=     0 NRBB=     0 NR=    52.
 DD1Dir:  Pass   3 NRAB=    26 NRAA=     0 NRBB=     0 NR=    52.
 Norm of the A-vectors is  1.5900575D-03 conv= 1.00D-05.
 RLE energy=       -0.8388434708
 DE(Corr)= -0.83883828     E(CORR)=     -228.54021120     Delta= 2.65D-06
 NORM(A)=   0.11794954D+01
 Iteration Nr.  13
 **********************
 DD1Dir will call FoFJK   3 times, MxPair=        52
 NAB=    78 NAA=     0 NBB=     0 NumPrc=  4.
 DD1Dir:  Pass   1 NRAB=    26 NRAA=     0 NRBB=     0 NR=    52.
 DD1Dir:  Pass   2 NRAB=    26 NRAA=     0 NRBB=     0 NR=    52.
 DD1Dir:  Pass   3 NRAB=    26 NRAA=     0 NRBB=     0 NR=    52.
 Norm of the A-vectors is  1.1207351D-03 conv= 1.00D-05.
 RLE energy=       -0.8388506052
 DE(Corr)= -0.83884920     E(CORR)=     -228.54022212     Delta=-1.09D-05
 NORM(A)=   0.11795474D+01
 Iteration Nr.  14
 **********************
 DD1Dir will call FoFJK   3 times, MxPair=        52
 NAB=    78 NAA=     0 NBB=     0 NumPrc=  4.
 DD1Dir:  Pass   1 NRAB=    26 NRAA=     0 NRBB=     0 NR=    52.
 DD1Dir:  Pass   2 NRAB=    26 NRAA=     0 NRBB=     0 NR=    52.
 DD1Dir:  Pass   3 NRAB=    26 NRAA=     0 NRBB=     0 NR=    52.
 Norm of the A-vectors is  5.5890987D-04 conv= 1.00D-05.
 RLE energy=       -0.8388572654
 DE(Corr)= -0.83885344     E(CORR)=     -228.54022636     Delta=-4.24D-06
 NORM(A)=   0.11796008D+01
 Iteration Nr.  15
 **********************
 DD1Dir will call FoFJK   3 times, MxPair=        52
 NAB=    78 NAA=     0 NBB=     0 NumPrc=  4.
 DD1Dir:  Pass   1 NRAB=    26 NRAA=     0 NRBB=     0 NR=    52.
 DD1Dir:  Pass   2 NRAB=    26 NRAA=     0 NRBB=     0 NR=    52.
 DD1Dir:  Pass   3 NRAB=    26 NRAA=     0 NRBB=     0 NR=    52.
 Norm of the A-vectors is  4.2753471D-04 conv= 1.00D-05.
 RLE energy=       -0.8388579413
 DE(Corr)= -0.83885659     E(CORR)=     -228.54022951     Delta=-3.15D-06
 NORM(A)=   0.11796460D+01
 Iteration Nr.  16
 **********************
 DD1Dir will call FoFJK   3 times, MxPair=        52
 NAB=    78 NAA=     0 NBB=     0 NumPrc=  4.
 DD1Dir:  Pass   1 NRAB=    26 NRAA=     0 NRBB=     0 NR=    52.
 DD1Dir:  Pass   2 NRAB=    26 NRAA=     0 NRBB=     0 NR=    52.
 DD1Dir:  Pass   3 NRAB=    26 NRAA=     0 NRBB=     0 NR=    52.
 Norm of the A-vectors is  3.7074023D-04 conv= 1.00D-05.
 RLE energy=       -0.8388625300
 DE(Corr)= -0.83886049     E(CORR)=     -228.54023341     Delta=-3.90D-06
 NORM(A)=   0.11796788D+01
 Iteration Nr.  17
 **********************
 DD1Dir will call FoFJK   3 times, MxPair=        52
 NAB=    78 NAA=     0 NBB=     0 NumPrc=  4.
 DD1Dir:  Pass   1 NRAB=    26 NRAA=     0 NRBB=     0 NR=    52.
 DD1Dir:  Pass   2 NRAB=    26 NRAA=     0 NRBB=     0 NR=    52.
 DD1Dir:  Pass   3 NRAB=    26 NRAA=     0 NRBB=     0 NR=    52.
 Norm of the A-vectors is  2.5110978D-04 conv= 1.00D-05.
 RLE energy=       -0.8388609397
 DE(Corr)= -0.83886049     E(CORR)=     -228.54023340     Delta= 5.12D-09
 NORM(A)=   0.11796994D+01
 Iteration Nr.  18
 **********************
 DD1Dir will call FoFJK   3 times, MxPair=        52
 NAB=    78 NAA=     0 NBB=     0 NumPrc=  4.
 DD1Dir:  Pass   1 NRAB=    26 NRAA=     0 NRBB=     0 NR=    52.
 DD1Dir:  Pass   2 NRAB=    26 NRAA=     0 NRBB=     0 NR=    52.
 DD1Dir:  Pass   3 NRAB=    26 NRAA=     0 NRBB=     0 NR=    52.
 Norm of the A-vectors is  1.8789501D-04 conv= 1.00D-05.
 RLE energy=       -0.8388619423
 DE(Corr)= -0.83886201     E(CORR)=     -228.54023492     Delta=-1.52D-06
 NORM(A)=   0.11797085D+01
 Iteration Nr.  19
 **********************
 DD1Dir will call FoFJK   3 times, MxPair=        52
 NAB=    78 NAA=     0 NBB=     0 NumPrc=  4.
 DD1Dir:  Pass   1 NRAB=    26 NRAA=     0 NRBB=     0 NR=    52.
 DD1Dir:  Pass   2 NRAB=    26 NRAA=     0 NRBB=     0 NR=    52.
 DD1Dir:  Pass   3 NRAB=    26 NRAA=     0 NRBB=     0 NR=    52.
 Norm of the A-vectors is  1.3087572D-04 conv= 1.00D-05.
 RLE energy=       -0.8388613911
 DE(Corr)= -0.83886138     E(CORR)=     -228.54023430     Delta= 6.23D-07
 NORM(A)=   0.11797154D+01
 Iteration Nr.  20
 **********************
 DD1Dir will call FoFJK   3 times, MxPair=        52
 NAB=    78 NAA=     0 NBB=     0 NumPrc=  4.
 DD1Dir:  Pass   1 NRAB=    26 NRAA=     0 NRBB=     0 NR=    52.
 DD1Dir:  Pass   2 NRAB=    26 NRAA=     0 NRBB=     0 NR=    52.
 DD1Dir:  Pass   3 NRAB=    26 NRAA=     0 NRBB=     0 NR=    52.
 Norm of the A-vectors is  8.7173144D-05 conv= 1.00D-05.
 RLE energy=       -0.8388617120
 DE(Corr)= -0.83886189     E(CORR)=     -228.54023481     Delta=-5.06D-07
 NORM(A)=   0.11797178D+01
 Iteration Nr.  21
 **********************
 DD1Dir will call FoFJK   3 times, MxPair=        52
 NAB=    78 NAA=     0 NBB=     0 NumPrc=  4.
 DD1Dir:  Pass   1 NRAB=    26 NRAA=     0 NRBB=     0 NR=    52.
 DD1Dir:  Pass   2 NRAB=    26 NRAA=     0 NRBB=     0 NR=    52.
 DD1Dir:  Pass   3 NRAB=    26 NRAA=     0 NRBB=     0 NR=    52.
 Norm of the A-vectors is  4.9908717D-05 conv= 1.00D-05.
 RLE energy=       -0.8388620514
 DE(Corr)= -0.83886194     E(CORR)=     -228.54023485     Delta=-4.73D-08
 NORM(A)=   0.11797192D+01
 Iteration Nr.  22
 **********************
 DD1Dir will call FoFJK   3 times, MxPair=        52
 NAB=    78 NAA=     0 NBB=     0 NumPrc=  4.
 DD1Dir:  Pass   1 NRAB=    26 NRAA=     0 NRBB=     0 NR=    52.
 DD1Dir:  Pass   2 NRAB=    26 NRAA=     0 NRBB=     0 NR=    52.
 DD1Dir:  Pass   3 NRAB=    26 NRAA=     0 NRBB=     0 NR=    52.
 Norm of the A-vectors is  2.8223648D-05 conv= 1.00D-05.
 RLE energy=       -0.8388620419
 DE(Corr)= -0.83886201     E(CORR)=     -228.54023492     Delta=-6.91D-08
 NORM(A)=   0.11797205D+01
 Iteration Nr.  23
 **********************
 DD1Dir will call FoFJK   3 times, MxPair=        52
 NAB=    78 NAA=     0 NBB=     0 NumPrc=  4.
 DD1Dir:  Pass   1 NRAB=    26 NRAA=     0 NRBB=     0 NR=    52.
 DD1Dir:  Pass   2 NRAB=    26 NRAA=     0 NRBB=     0 NR=    52.
 DD1Dir:  Pass   3 NRAB=    26 NRAA=     0 NRBB=     0 NR=    52.
 Norm of the A-vectors is  1.9753098D-05 conv= 1.00D-05.
 RLE energy=       -0.8388623302
 DE(Corr)= -0.83886221     E(CORR)=     -228.54023513     Delta=-2.04D-07
 NORM(A)=   0.11797215D+01
 Iteration Nr.  24
 **********************
 DD1Dir will call FoFJK   3 times, MxPair=        52
 NAB=    78 NAA=     0 NBB=     0 NumPrc=  4.
 DD1Dir:  Pass   1 NRAB=    26 NRAA=     0 NRBB=     0 NR=    52.
 DD1Dir:  Pass   2 NRAB=    26 NRAA=     0 NRBB=     0 NR=    52.
 DD1Dir:  Pass   3 NRAB=    26 NRAA=     0 NRBB=     0 NR=    52.
 Norm of the A-vectors is  1.0257756D-05 conv= 1.00D-05.
 RLE energy=       -0.8388622953
 DE(Corr)= -0.83886223     E(CORR)=     -228.54023514     Delta=-1.76D-08
 NORM(A)=   0.11797225D+01
 Iteration Nr.  25
 **********************
 DD1Dir will call FoFJK   3 times, MxPair=        52
 NAB=    78 NAA=     0 NBB=     0 NumPrc=  4.
 DD1Dir:  Pass   1 NRAB=    26 NRAA=     0 NRBB=     0 NR=    52.
 DD1Dir:  Pass   2 NRAB=    26 NRAA=     0 NRBB=     0 NR=    52.
 DD1Dir:  Pass   3 NRAB=    26 NRAA=     0 NRBB=     0 NR=    52.
 Norm of the A-vectors is  8.2512760D-06 conv= 1.00D-05.
 RLE energy=       -0.8388623683
 DE(Corr)= -0.83886235     E(CORR)=     -228.54023527     Delta=-1.21D-07
 NORM(A)=   0.11797229D+01
 Iteration Nr.  26
 **********************
 DD1Dir will call FoFJK   3 times, MxPair=        52
 NAB=    78 NAA=     0 NBB=     0 NumPrc=  4.
 DD1Dir:  Pass   1 NRAB=    26 NRAA=     0 NRBB=     0 NR=    52.
 DD1Dir:  Pass   2 NRAB=    26 NRAA=     0 NRBB=     0 NR=    52.
 DD1Dir:  Pass   3 NRAB=    26 NRAA=     0 NRBB=     0 NR=    52.
 Norm of the A-vectors is  5.0215567D-06 conv= 1.00D-05.
 RLE energy=       -0.8388623648
 DE(Corr)= -0.83886234     E(CORR)=     -228.54023526     Delta= 5.52D-09
 NORM(A)=   0.11797234D+01
 CI/CC converged in   26 iterations to DelEn= 5.52D-09 Conv= 1.00D-07 ErrA1= 5.02D-06 Conv= 1.00D-05
 Dominant configurations:
 ***********************
 Spin Case        I    J    A    B          Value
    AA           16        18           -0.125861D+00
    AA           17        18           -0.124474D+00
   ABAB          17   17   18   18      -0.146464D+00
 Largest amplitude= 1.46D-01
 T4(AAA)= -0.15140332D-02
 T4(AAB)= -0.25557789D-01
 T5(AAA)=  0.10813744D-03
 T5(AAB)=  0.21515306D-02
 Time for triples=     4018.51 seconds.
 T4(CCSD)= -0.54143644D-01
 T5(CCSD)=  0.45193361D-02
 CCSD(T)= -0.22858985957D+03
 Discarding MO integrals.
 Leave Link  913 at Thu Mar  7 08:17:35 2019, MaxMem=    33554432 cpu:     16434.2
 (Enter /home/proyectos/fulerenos/M3C-v2.0/M3C-deps_CCC/g09-AM64L-G09RevC.01/l601.exe)
 Copying SCF densities to generalized density rwf, IOpCl= 0 IROHF=0.

 **********************************************************************

            Population analysis using the SCF density.

 **********************************************************************

 Orbital symmetries:
       Occupied  (A) (A) (A) (A) (A) (A) (A) (A) (A) (A) (A) (A)
                 (A) (A) (A) (A) (A)
       Virtual   (A) (A) (A) (A) (A) (A) (A) (A) (A) (A) (A) (A)
                 (A) (A) (A) (A) (A) (A) (A) (A) (A) (A) (A) (A)
                 (A) (A) (A) (A) (A) (A) (A) (A) (A) (A) (A) (A)
                 (A) (A) (A) (A) (A) (A) (A) (A) (A) (A) (A) (A)
                 (A) (A) (A) (A) (A) (A) (A) (A) (A) (A) (A) (A)
                 (A) (A) (A) (A) (A) (A) (A) (A) (A) (A) (A) (A)
                 (A) (A) (A) (A) (A) (A) (A) (A) (A) (A) (A) (A)
                 (A) (A) (A) (A) (A) (A) (A) (A) (A) (A) (A) (A)
                 (A) (A) (A) (A) (A) (A) (A) (A) (A) (A) (A) (A)
                 (A) (A) (A) (A) (A) (A) (A) (A) (A) (A) (A) (A)
                 (A) (A) (A) (A) (A) (A) (A) (A) (A) (A) (A) (A)
                 (A) (A) (A) (A) (A) (A) (A) (A) (A) (A) (A) (A)
                 (A) (A) (A) (A) (A) (A) (A) (A) (A) (A) (A) (A)
                 (A) (A) (A) (A) (A) (A) (A) (A) (A) (A) (A) (A)
                 (A) (A) (A) (A) (A) (A) (A) (A) (A) (A) (A) (A)
                 (A) (A) (A) (A) (A) (A) (A) (A) (A) (A) (A) (A)
                 (A) (A) (A) (A) (A) (A) (A) (A) (A) (A) (A) (A)
                 (A) (A) (A) (A)
 The electronic state is 1-A.
 Alpha  occ. eigenvalues --  -20.91454 -11.62106 -11.60323 -11.53456 -11.51644
 Alpha  occ. eigenvalues --   -1.76793  -1.38716  -1.25513  -1.07769  -1.04472
 Alpha  occ. eigenvalues --   -0.98122  -0.91668  -0.87716  -0.83983  -0.82610
 Alpha  occ. eigenvalues --   -0.66477  -0.61068
 Alpha virt. eigenvalues --   -0.24173  -0.11275  -0.09152  -0.07444  -0.06475
 Alpha virt. eigenvalues --   -0.05787  -0.04529  -0.03105  -0.02378  -0.01062
 Alpha virt. eigenvalues --   -0.00040   0.00810   0.01607   0.02651   0.03847
 Alpha virt. eigenvalues --    0.04516   0.05145   0.05473   0.05615   0.06601
 Alpha virt. eigenvalues --    0.07072   0.08057   0.11227   0.14391   0.16279
 Alpha virt. eigenvalues --    0.17341   0.19421   0.19513   0.21448   0.22770
 Alpha virt. eigenvalues --    0.23698   0.25597   0.28346   0.31388   0.32234
 Alpha virt. eigenvalues --    0.33890   0.36536   0.36897   0.37676   0.40023
 Alpha virt. eigenvalues --    0.41005   0.43279   0.43605   0.45922   0.47719
 Alpha virt. eigenvalues --    0.48097   0.49844   0.52512   0.53843   0.54630
 Alpha virt. eigenvalues --    0.55194   0.58222   0.60035   0.62183   0.64156
 Alpha virt. eigenvalues --    0.65901   0.67393   0.68411   0.71211   0.73690
 Alpha virt. eigenvalues --    0.76582   0.77426   0.80666   0.82092   0.85519
 Alpha virt. eigenvalues --    0.88008   0.89360   0.97021   0.98482   1.01960
 Alpha virt. eigenvalues --    1.04010   1.08556   1.10120   1.11519   1.13229
 Alpha virt. eigenvalues --    1.14176   1.15544   1.17211   1.20768   1.20875
 Alpha virt. eigenvalues --    1.24038   1.26397   1.28154   1.32079   1.33638
 Alpha virt. eigenvalues --    1.37882   1.38753   1.40968   1.44208   1.46583
 Alpha virt. eigenvalues --    1.52682   1.62073   1.67415   1.69387   1.77082
 Alpha virt. eigenvalues --    1.86461   1.89680   1.94265   1.94880   1.97463
 Alpha virt. eigenvalues --    2.05369   2.07604   2.12713   2.13890   2.19810
 Alpha virt. eigenvalues --    2.22643   2.30827   2.32265   2.45179   2.52234
 Alpha virt. eigenvalues --    2.59625   2.63407   2.68767   2.73654   2.83571
 Alpha virt. eigenvalues --    2.86603   2.88867   2.91767   2.94411   2.95299
 Alpha virt. eigenvalues --    2.98698   3.00145   3.03214   3.05106   3.09700
 Alpha virt. eigenvalues --    3.13130   3.15078   3.21790   3.26304   3.27809
 Alpha virt. eigenvalues --    3.30824   3.34471   3.41948   3.44743   3.45683
 Alpha virt. eigenvalues --    3.49449   3.55190   3.62469   3.69652   3.73525
 Alpha virt. eigenvalues --    3.78772   3.81559   3.85099   3.94560   3.99197
 Alpha virt. eigenvalues --    4.03665   4.08549   4.11762   4.19211   4.23441
 Alpha virt. eigenvalues --    4.27715   4.29135   4.37137   4.40254   4.47049
 Alpha virt. eigenvalues --    4.47303   4.54672   4.58429   4.61703   4.72049
 Alpha virt. eigenvalues --    4.73569   4.90614   5.03408   5.29782   5.43146
 Alpha virt. eigenvalues --    5.50632   5.57055   5.63271   5.73401   5.88376
 Alpha virt. eigenvalues --    5.96395   6.05193   6.11121   6.17370   6.46834
 Alpha virt. eigenvalues --    6.52272   6.84281   6.93605   7.19904   7.26468
 Alpha virt. eigenvalues --    7.32124   7.36968   7.44021   7.45918   7.48696
 Alpha virt. eigenvalues --    7.50734   7.64116   7.67710   7.75813   7.79896
 Alpha virt. eigenvalues --    7.86781   8.03942   8.16784   8.26914   8.35932
 Alpha virt. eigenvalues --    8.44287   8.62429   8.86101  14.87162  14.94026
 Alpha virt. eigenvalues --   15.01121  15.15715  15.67704  25.03746  25.72183
 Alpha virt. eigenvalues --   26.16883  26.29652  51.67330
          Condensed to atoms (all electrons):
               1          2          3          4          5          6
     1  C    5.608319  -0.277713   0.263245  -0.074990  -0.203746   0.479926
     2  C   -0.277713   7.291796   0.010155  -0.914332  -0.329494  -0.029316
     3  O    0.263245   0.010155   8.618466  -0.101783  -0.181911  -0.032879
     4  C   -0.074990  -0.914332  -0.101783   6.453821   0.098956   0.035778
     5  C   -0.203746  -0.329494  -0.181911   0.098956   6.116866  -0.095496
     6  H    0.479926  -0.029316  -0.032879   0.035778  -0.095496   0.394676
     7  H    0.023404  -0.047759   0.000703   0.473065  -0.099635   0.001711
     8  H   -0.065555  -0.010776  -0.001096  -0.051813   0.470113   0.002899
               7          8
     1  C    0.023404  -0.065555
     2  C   -0.047759  -0.010776
     3  O    0.000703  -0.001096
     4  C    0.473065  -0.051813
     5  C   -0.099635   0.470113
     6  H    0.001711   0.002899
     7  H    0.395667   0.000631
     8  H    0.000631   0.435805
 Mulliken charges:
               1
     1  C    0.247110
     2  C    0.307440
     3  O   -0.574899
     4  C    0.081298
     5  C    0.224347
     6  H    0.242700
     7  H    0.252212
     8  H    0.219791
 Sum of Mulliken charges =   1.00000
 Mulliken charges with hydrogens summed into heavy atoms:
               1
     1  C    0.489811
     2  C    0.307440
     3  O   -0.574899
     4  C    0.333510
     5  C    0.444139
 Electronic spatial extent (au):  <R**2>=            255.3911
 Charge=              1.0000 electrons
 Dipole moment (field-independent basis, Debye):
    X=              1.3460    Y=              2.3288    Z=             -0.4327  Tot=              2.7244
 Quadrupole moment (field-independent basis, Debye-Ang):
   XX=            -16.7107   YY=            -19.4280   ZZ=            -27.7892
   XY=             -3.5218   XZ=             -0.8149   YZ=              2.2798
 Traceless Quadrupole moment (field-independent basis, Debye-Ang):
   XX=              4.5986   YY=              1.8813   ZZ=             -6.4799
   XY=             -3.5218   XZ=             -0.8149   YZ=              2.2798
 Octapole moment (field-independent basis, Debye-Ang**2):
  XXX=              5.9627  YYY=              8.4071  ZZZ=             -1.8775  XYY=             -1.3912
  XXY=              4.4266  XXZ=             -0.6980  XZZ=             -2.4926  YZZ=              0.8488
  YYZ=             -1.9727  XYZ=              0.8165
 Hexadecapole moment (field-independent basis, Debye-Ang**3):
 XXXX=           -118.2748 YYYY=           -114.4803 ZZZZ=            -31.4246 XXXY=            -15.4207
 XXXZ=             -3.1942 YYYX=              2.7038 YYYZ=              9.4896 ZZZX=             -0.4261
 ZZZY=              3.7126 XXYY=            -35.3898 XXZZ=            -31.9866 YYZZ=            -29.5798
 XXYZ=              3.0169 YYXZ=             -0.0251 ZZXY=              0.1160
 N-N= 1.528739307492D+02 E-N=-8.297656249894D+02  KE= 2.274927720474D+02
 Leave Link  601 at Thu Mar  7 08:17:35 2019, MaxMem=    33554432 cpu:         0.2
 (Enter /home/proyectos/fulerenos/M3C-v2.0/M3C-deps_CCC/g09-AM64L-G09RevC.01/l9999.exe)
 1\1\GINC-FOSFORO\SP\RCCSD(T)-FC\6-311++G(3df,2p)\C4H3O1(1+)\NAGUIRRE\0
 7-Mar-2019\0\\#p ccsd(t,maxcyc=200)/6-311++G(3df,2p)\\ccsd(t) iener\\1
 ,1\C,0,-0.694808,0.850524,0.0001\C,0,0.051071,-1.030554,0.236338\O,0,-
 1.094948,-0.427037,-0.108262\C,0,1.213468,-0.385498,-0.133364\C,0,0.71
 7536,0.916321,0.029302\H,0,-1.454787,1.585692,0.22662\H,0,2.225622,-0.
 751296,-0.182472\H,0,1.29218,1.802844,0.257884\\Version=EM64L-G09RevE.
 01\State=1-A\HF=-227.7013729\MP2=-228.5181073\MP3=-228.5303043\MP4D=-2
 28.551326\MP4DQ=-228.5245866\MP4SDQ=-228.5388546\CCSD=-228.5402353\CCS
 D(T)=-228.5898596\RMSD=5.876e-09\PG=C01 [X(C4H3O1)]\\@


 NOTHING RESEMBLES A NEW PHENOMENON AS MUCH AS A MISTAKE.

                               -- ENRICO FERMI (?)
 Job cpu time:       0 days  4 hours 49 minutes 51.4 seconds.
 File lengths (MBytes):  RWF=   5621 Int=      0 D2E=      0 Chk=      4 Scr=      1
 Normal termination of Gaussian 09 at Thu Mar  7 08:17:37 2019.
