 Entering Gaussian System, Link 0=/home/proyectos/fulerenos/M3C-v2.0/M3C-deps_CCC/g09-AM64L-G09RevC.01/g09
 Initial command:
 /home/proyectos/fulerenos/M3C-v2.0/M3C-deps_CCC/g09-AM64L-G09RevC.01/l1.exe "/scratch/naguirre/gaussian/Gau-32611.inp" -scrdir="/scratch/naguirre/gaussian/"
 Entering Link 1 = /home/proyectos/fulerenos/M3C-v2.0/M3C-deps_CCC/g09-AM64L-G09RevC.01/l1.exe PID=     32619.
  
 Copyright (c) 1988,1990,1992,1993,1995,1998,2003,2009,2015,
            Gaussian, Inc.  All Rights Reserved.
  
 This is part of the Gaussian(R) 09 program.  It is based on
 the Gaussian(R) 03 system (copyright 2003, Gaussian, Inc.),
 the Gaussian(R) 98 system (copyright 1998, Gaussian, Inc.),
 the Gaussian(R) 94 system (copyright 1995, Gaussian, Inc.),
 the Gaussian 92(TM) system (copyright 1992, Gaussian, Inc.),
 the Gaussian 90(TM) system (copyright 1990, Gaussian, Inc.),
 the Gaussian 88(TM) system (copyright 1988, Gaussian, Inc.),
 the Gaussian 86(TM) system (copyright 1986, Carnegie Mellon
 University), and the Gaussian 82(TM) system (copyright 1983,
 Carnegie Mellon University). Gaussian is a federally registered
 trademark of Gaussian, Inc.
  
 This software contains proprietary and confidential information,
 including trade secrets, belonging to Gaussian, Inc.
  
 This software is provided under written license and may be
 used, copied, transmitted, or stored only in accord with that
 written license.
  
 The following legend is applicable only to US Government
 contracts under FAR:
  
                    RESTRICTED RIGHTS LEGEND
  
 Use, reproduction and disclosure by the US Government is
 subject to restrictions as set forth in subparagraphs (a)
 and (c) of the Commercial Computer Software - Restricted
 Rights clause in FAR 52.227-19.
  
 Gaussian, Inc.
 340 Quinnipiac St., Bldg. 40, Wallingford CT 06492
  
  
 ---------------------------------------------------------------
 Warning -- This program may not be used in any manner that
 competes with the business of Gaussian, Inc. or will provide
 assistance to any competitor of Gaussian, Inc.  The licensee
 of this program is prohibited from giving any competitor of
 Gaussian, Inc. access to this program.  By using this program,
 the user acknowledges that Gaussian, Inc. is engaged in the
 business of creating and licensing software in the field of
 computational chemistry and represents and warrants to the
 licensee that it is not a competitor of Gaussian, Inc. and that
 it will not use this program in any manner prohibited above.
 ---------------------------------------------------------------
  

 Cite this work as:
 Gaussian 09, Revision E.01,
 M. J. Frisch, G. W. Trucks, H. B. Schlegel, G. E. Scuseria, 
 M. A. Robb, J. R. Cheeseman, G. Scalmani, V. Barone, B. Mennucci, 
 G. A. Petersson, H. Nakatsuji, M. Caricato, X. Li, H. P. Hratchian, 
 A. F. Izmaylov, J. Bloino, G. Zheng, J. L. Sonnenberg, M. Hada, 
 M. Ehara, K. Toyota, R. Fukuda, J. Hasegawa, M. Ishida, T. Nakajima, 
 Y. Honda, O. Kitao, H. Nakai, T. Vreven, J. A. Montgomery, Jr., 
 J. E. Peralta, F. Ogliaro, M. Bearpark, J. J. Heyd, E. Brothers, 
 K. N. Kudin, V. N. Staroverov, T. Keith, R. Kobayashi, J. Normand, 
 K. Raghavachari, A. Rendell, J. C. Burant, S. S. Iyengar, J. Tomasi, 
 M. Cossi, N. Rega, J. M. Millam, M. Klene, J. E. Knox, J. B. Cross, 
 V. Bakken, C. Adamo, J. Jaramillo, R. Gomperts, R. E. Stratmann, 
 O. Yazyev, A. J. Austin, R. Cammi, C. Pomelli, J. W. Ochterski, 
 R. L. Martin, K. Morokuma, V. G. Zakrzewski, G. A. Voth, 
 P. Salvador, J. J. Dannenberg, S. Dapprich, A. D. Daniels, 
 O. Farkas, J. B. Foresman, J. V. Ortiz, J. Cioslowski, 
 and D. J. Fox, Gaussian, Inc., Wallingford CT, 2013.
 
 ******************************************
 Gaussian 09:  EM64L-G09RevE.01 30-Nov-2015
                 7-Mar-2019 
 ******************************************
 %NProcShared=4
 Will use up to    4 processors via shared memory.
 --------------------------------------
 #p ccsd(t,maxcyc=200)/6-311++G(3df,2p)
 --------------------------------------
 1/38=1/1;
 2/12=2,17=6,18=5,40=1/2;
 3/5=4,6=6,7=1216,11=9,16=1,25=1,30=1/1,2,3;
 4//1;
 5/5=2,38=5/2;
 8/6=4,9=120000,10=2/1,4;
 9/5=7,6=200,14=2/13;
 6/7=2,8=2,9=2,10=2/1;
 99/5=1,9=1/99;
 Leave Link    1 at Thu Mar  7 10:49:46 2019, MaxMem=           0 cpu:         0.2
 (Enter /home/proyectos/fulerenos/M3C-v2.0/M3C-deps_CCC/g09-AM64L-G09RevC.01/l101.exe)
 -------------
 ccsd(t) iener
 -------------
 Symbolic Z-matrix:
 Charge =  1 Multiplicity = 1
 C                     0.1556   -0.29755   0.01087 
 C                    -0.73041   0.75142   0.23638 
 H                    -1.04068   1.03388   1.24799 
 O                     0.83788  -1.08098  -0.43007 
 
 NAtoms=      4 NQM=        4 NQMF=       0 NMMI=      0 NMMIF=      0
                NMic=       0 NMicF=      0.
                    Isotopes and Nuclear Properties:
 (Nuclear quadrupole moments (NQMom) in fm**2, nuclear magnetic moments (NMagM)
  in nuclear magnetons)

  Atom         1           2           3           4
 IAtWgt=          12          12           1          16
 AtmWgt=  12.0000000  12.0000000   1.0078250  15.9949146
 NucSpn=           0           0           1           0
 AtZEff=   0.0000000   0.0000000   0.0000000   0.0000000
 NQMom=    0.0000000   0.0000000   0.0000000   0.0000000
 NMagM=    0.0000000   0.0000000   2.7928460   0.0000000
 AtZNuc=   6.0000000   6.0000000   1.0000000   8.0000000
 Leave Link  101 at Thu Mar  7 10:49:46 2019, MaxMem=    33554432 cpu:         0.3
 (Enter /home/proyectos/fulerenos/M3C-v2.0/M3C-deps_CCC/g09-AM64L-G09RevC.01/l202.exe)
                          Input orientation:                          
 ---------------------------------------------------------------------
 Center     Atomic      Atomic             Coordinates (Angstroms)
 Number     Number       Type             X           Y           Z
 ---------------------------------------------------------------------
      1          6           0        0.155602   -0.297545    0.010873
      2          6           0       -0.730405    0.751420    0.236382
      3          1           0       -1.040675    1.033882    1.247989
      4          8           0        0.837884   -1.080977   -0.430065
 ---------------------------------------------------------------------
                    Distance matrix (angstroms):
                    1          2          3          4
     1  C    0.000000
     2  C    1.391471   0.000000
     3  H    2.175829   1.095172   0.000000
     4  O    1.128584   2.502271   3.288993   0.000000
 Stoichiometry    C2HO(1+)
 Framework group  C1[X(C2HO)]
 Deg. of freedom     6
 Full point group                 C1      NOp   1
 Largest Abelian subgroup         C1      NOp   1
 Largest concise Abelian subgroup C1      NOp   1
                         Standard orientation:                         
 ---------------------------------------------------------------------
 Center     Atomic      Atomic             Coordinates (Angstroms)
 Number     Number       Type             X           Y           Z
 ---------------------------------------------------------------------
      1          6           0       -0.062467    0.069209   -0.000004
      2          6           0        1.308152   -0.170777    0.000001
      3          1           0        2.034802    0.648601    0.000004
      4          8           0       -1.188615   -0.004899    0.000002
 ---------------------------------------------------------------------
 Rotational constants (GHZ):    645.4258678     10.6862685     10.5122184
 Leave Link  202 at Thu Mar  7 10:49:46 2019, MaxMem=    33554432 cpu:         0.0
 (Enter /home/proyectos/fulerenos/M3C-v2.0/M3C-deps_CCC/g09-AM64L-G09RevC.01/l301.exe)
 Standard basis: 6-311++G(3df,2p) (5D, 7F)
 Ernie: Thresh=  0.10000D-02 Tol=  0.10000D-05 Strict=F.
 There are   145 symmetry adapted cartesian basis functions of A   symmetry.
 There are   127 symmetry adapted basis functions of A   symmetry.
   127 basis functions,   186 primitive gaussians,   145 cartesian basis functions
    10 alpha electrons       10 beta electrons
       nuclear repulsion energy        51.9938785071 Hartrees.
 IExCor=    0 DFT=F Ex=HF Corr=None ExCW=0 ScaHFX=  1.000000
 ScaDFX=  1.000000  1.000000  1.000000  1.000000 ScalE2=  1.000000  1.000000
 IRadAn=      0 IRanWt=     -1 IRanGd=            0 ICorTp=0 IEmpDi=  4
 NAtoms=    4 NActive=    4 NUniq=    4 SFac= 1.00D+00 NAtFMM=   60 NAOKFM=F Big=F
 Integral buffers will be    131072 words long.
 Raffenetti 1 integral format.
 Two-electron integral symmetry is turned on.
 Leave Link  301 at Thu Mar  7 10:49:46 2019, MaxMem=    33554432 cpu:         0.3
 (Enter /home/proyectos/fulerenos/M3C-v2.0/M3C-deps_CCC/g09-AM64L-G09RevC.01/l302.exe)
 NPDir=0 NMtPBC=     1 NCelOv=     1 NCel=       1 NClECP=     1 NCelD=      1
         NCelK=      1 NCelE2=     1 NClLst=     1 CellRange=     0.0.
 One-electron integrals computed using PRISM.
 NBasis=   127 RedAO= T EigKep=  6.85D-05  NBF=   127
 NBsUse=   127 1.00D-06 EigRej= -1.00D+00 NBFU=   127
 Leave Link  302 at Thu Mar  7 10:49:46 2019, MaxMem=    33554432 cpu:         1.3
 (Enter /home/proyectos/fulerenos/M3C-v2.0/M3C-deps_CCC/g09-AM64L-G09RevC.01/l303.exe)
 DipDrv:  MaxL=1.
 Leave Link  303 at Thu Mar  7 10:49:46 2019, MaxMem=    33554432 cpu:         0.2
 (Enter /home/proyectos/fulerenos/M3C-v2.0/M3C-deps_CCC/g09-AM64L-G09RevC.01/l401.exe)
 ExpMin= 3.60D-02 ExpMax= 8.59D+03 ExpMxC= 1.30D+03 IAcc=3 IRadAn=         5 AccDes= 0.00D+00
 Harris functional with IExCor=  205 and IRadAn=       5 diagonalized for initial guess.
 HarFok:  IExCor=  205 AccDes= 0.00D+00 IRadAn=         5 IDoV= 1 UseB2=F ITyADJ=14
 ICtDFT=  3500011 ScaDFX=  1.000000  1.000000  1.000000  1.000000
 FoFCou: FMM=F IPFlag=           0 FMFlag=      100000 FMFlg1=           0
         NFxFlg=           0 DoJE=T BraDBF=F KetDBF=T FulRan=T
         wScrn=  0.000000 ICntrl=     500 IOpCl=  0 I1Cent=   200000004 NGrid=           0
         NMat0=    1 NMatS0=      1 NMatT0=    0 NMatD0=    1 NMtDS0=    0 NMtDT0=    0
 Petite list used in FoFCou.
 Harris En= -150.860642456341    
 JPrj=0 DoOrth=F DoCkMO=F.
 Leave Link  401 at Thu Mar  7 10:49:47 2019, MaxMem=    33554432 cpu:         2.0
 (Enter /home/proyectos/fulerenos/M3C-v2.0/M3C-deps_CCC/g09-AM64L-G09RevC.01/l502.exe)
 Closed shell SCF:
 Using DIIS extrapolation, IDIIS=  1040.
 Integral symmetry usage will be decided dynamically.
 IVT=       83533 IEndB=       83533 NGot=    33554432 MDV=    33508710
 LenX=    33508710 LenY=    33487244
 Requested convergence on RMS density matrix=1.00D-08 within 128 cycles.
 Requested convergence on MAX density matrix=1.00D-06.
 Requested convergence on             energy=1.00D-06.
 No special actions if energy rises.
 Fock matrices will be formed incrementally for  20 cycles.

 Cycle   1  Pass 0  IDiag  1:
 FoFJK:  IHMeth= 1 ICntrl=       0 DoSepK=F KAlg= 0 I1Cent=   0 FoldK=F
 IRaf= 990000000 NMat=   1 IRICut=       1 DoRegI=T DoRafI=F ISym2E= 0.
 FoFCou: FMM=F IPFlag=           0 FMFlag=      100000 FMFlg1=           0
         NFxFlg=           0 DoJE=F BraDBF=F KetDBF=F FulRan=T
         wScrn=  0.000000 ICntrl=       0 IOpCl=  0 I1Cent=           0 NGrid=           0
         NMat0=    1 NMatS0=      1 NMatT0=    0 NMatD0=    1 NMtDS0=    0 NMtDT0=    0
 Symmetry not used in FoFCou.
 E= -150.705460636146    
 DIIS: error= 4.80D-02 at cycle   1 NSaved=   1.
 NSaved= 1 IEnMin= 1 EnMin= -150.705460636146     IErMin= 1 ErrMin= 4.80D-02
 ErrMax= 4.80D-02  0.00D+00 EMaxC= 1.00D-01 BMatC= 2.10D-01 BMatP= 2.10D-01
 IDIUse=3 WtCom= 5.20D-01 WtEn= 4.80D-01
 Coeff-Com:  0.100D+01
 Coeff-En:   0.100D+01
 Coeff:      0.100D+01
 Gap=     0.393 Goal=   None    Shift=    0.000
 GapD=    0.393 DampG=1.000 DampE=0.500 DampFc=0.5000 IDamp=-1.
 Damping current iteration by 5.00D-01
 RMSDP=2.71D-03 MaxDP=6.76D-02              OVMax= 7.68D-02

 Cycle   2  Pass 0  IDiag  1:
 RMSU=  1.30D-03    CP:  1.02D+00
 E= -150.731589742861     Delta-E=       -0.026129106715 Rises=F Damp=T
 DIIS: error= 2.63D-02 at cycle   2 NSaved=   2.
 NSaved= 2 IEnMin= 2 EnMin= -150.731589742861     IErMin= 2 ErrMin= 2.63D-02
 ErrMax= 2.63D-02  0.00D+00 EMaxC= 1.00D-01 BMatC= 5.45D-02 BMatP= 2.10D-01
 IDIUse=3 WtCom= 7.37D-01 WtEn= 2.63D-01
 Coeff-Com: -0.833D+00 0.183D+01
 Coeff-En:   0.000D+00 0.100D+01
 Coeff:     -0.614D+00 0.161D+01
 Gap=     0.392 Goal=   None    Shift=    0.000
 RMSDP=1.95D-03 MaxDP=5.16D-02 DE=-2.61D-02 OVMax= 5.44D-02

 Cycle   3  Pass 0  IDiag  1:
 RMSU=  9.97D-04    CP:  1.05D+00  2.23D+00
 E= -150.759023426456     Delta-E=       -0.027433683595 Rises=F Damp=F
 DIIS: error= 8.40D-03 at cycle   3 NSaved=   3.
 NSaved= 3 IEnMin= 3 EnMin= -150.759023426456     IErMin= 3 ErrMin= 8.40D-03
 ErrMax= 8.40D-03  0.00D+00 EMaxC= 1.00D-01 BMatC= 5.57D-03 BMatP= 5.45D-02
 IDIUse=3 WtCom= 9.16D-01 WtEn= 8.40D-02
 Coeff-Com: -0.397D+00 0.719D+00 0.678D+00
 Coeff-En:   0.000D+00 0.000D+00 0.100D+01
 Coeff:     -0.363D+00 0.658D+00 0.705D+00
 Gap=     0.396 Goal=   None    Shift=    0.000
 RMSDP=7.02D-04 MaxDP=2.74D-02 DE=-2.74D-02 OVMax= 2.24D-02

 Cycle   4  Pass 0  IDiag  1:
 RMSU=  3.55D-04    CP:  1.07D+00  2.55D+00  8.50D-01
 E= -150.762893836865     Delta-E=       -0.003870410409 Rises=F Damp=F
 DIIS: error= 1.02D-03 at cycle   4 NSaved=   4.
 NSaved= 4 IEnMin= 4 EnMin= -150.762893836865     IErMin= 4 ErrMin= 1.02D-03
 ErrMax= 1.02D-03  0.00D+00 EMaxC= 1.00D-01 BMatC= 8.48D-05 BMatP= 5.57D-03
 IDIUse=3 WtCom= 9.90D-01 WtEn= 1.02D-02
 Coeff-Com:  0.140D+00-0.264D+00-0.136D+00 0.126D+01
 Coeff-En:   0.000D+00 0.000D+00 0.000D+00 0.100D+01
 Coeff:      0.138D+00-0.261D+00-0.134D+00 0.126D+01
 Gap=     0.397 Goal=   None    Shift=    0.000
 RMSDP=3.75D-04 MaxDP=2.04D-02 DE=-3.87D-03 OVMax= 4.60D-03

 Cycle   5  Pass 0  IDiag  1:
 RMSU=  9.70D-05    CP:  1.08D+00  2.69D+00  9.69D-01  1.49D+00
 E= -150.763057286640     Delta-E=       -0.000163449775 Rises=F Damp=F
 DIIS: error= 2.83D-04 at cycle   5 NSaved=   5.
 NSaved= 5 IEnMin= 5 EnMin= -150.763057286640     IErMin= 5 ErrMin= 2.83D-04
 ErrMax= 2.83D-04  0.00D+00 EMaxC= 1.00D-01 BMatC= 4.90D-06 BMatP= 8.48D-05
 IDIUse=3 WtCom= 9.97D-01 WtEn= 2.83D-03
 Coeff-Com:  0.347D-01-0.637D-01-0.571D-01 0.944D-01 0.992D+00
 Coeff-En:   0.000D+00 0.000D+00 0.000D+00 0.000D+00 0.100D+01
 Coeff:      0.346D-01-0.635D-01-0.570D-01 0.941D-01 0.992D+00
 Gap=     0.398 Goal=   None    Shift=    0.000
 RMSDP=7.11D-05 MaxDP=3.51D-03 DE=-1.63D-04 OVMax= 2.14D-03

 Cycle   6  Pass 0  IDiag  1:
 RMSU=  2.12D-05    CP:  1.08D+00  2.72D+00  9.83D-01  1.61D+00  1.13D+00
 E= -150.763070824297     Delta-E=       -0.000013537657 Rises=F Damp=F
 DIIS: error= 8.59D-05 at cycle   6 NSaved=   6.
 NSaved= 6 IEnMin= 6 EnMin= -150.763070824297     IErMin= 6 ErrMin= 8.59D-05
 ErrMax= 8.59D-05  0.00D+00 EMaxC= 1.00D-01 BMatC= 7.37D-07 BMatP= 4.90D-06
 IDIUse=1 WtCom= 1.00D+00 WtEn= 0.00D+00
 Coeff-Com: -0.211D-01 0.397D-01 0.236D-01-0.177D+00-0.934D-01 0.123D+01
 Coeff:     -0.211D-01 0.397D-01 0.236D-01-0.177D+00-0.934D-01 0.123D+01
 Gap=     0.398 Goal=   None    Shift=    0.000
 RMSDP=2.98D-05 MaxDP=1.59D-03 DE=-1.35D-05 OVMax= 6.66D-04

 Cycle   7  Pass 0  IDiag  1:
 RMSU=  5.47D-06    CP:  1.08D+00  2.72D+00  9.86D-01  1.64D+00  1.30D+00
                    CP:  1.37D+00
 E= -150.763073014015     Delta-E=       -0.000002189717 Rises=F Damp=F
 DIIS: error= 3.19D-05 at cycle   7 NSaved=   7.
 NSaved= 7 IEnMin= 7 EnMin= -150.763073014015     IErMin= 7 ErrMin= 3.19D-05
 ErrMax= 3.19D-05  0.00D+00 EMaxC= 1.00D-01 BMatC= 6.16D-08 BMatP= 7.37D-07
 IDIUse=1 WtCom= 1.00D+00 WtEn= 0.00D+00
 Coeff-Com:  0.294D-02-0.568D-02-0.251D-03 0.348D-01-0.454D-01-0.308D+00
 Coeff-Com:  0.132D+01
 Coeff:      0.294D-02-0.568D-02-0.251D-03 0.348D-01-0.454D-01-0.308D+00
 Coeff:      0.132D+01
 Gap=     0.398 Goal=   None    Shift=    0.000
 RMSDP=5.15D-06 MaxDP=1.64D-04 DE=-2.19D-06 OVMax= 2.72D-04

 Initial convergence to 1.0D-05 achieved.  Increase integral accuracy.
 Cycle   8  Pass 1  IDiag  1:
 E= -150.763073231103     Delta-E=       -0.000000217088 Rises=F Damp=F
 DIIS: error= 1.34D-05 at cycle   1 NSaved=   1.
 NSaved= 1 IEnMin= 1 EnMin= -150.763073231103     IErMin= 1 ErrMin= 1.34D-05
 ErrMax= 1.34D-05  0.00D+00 EMaxC= 1.00D-01 BMatC= 9.24D-09 BMatP= 9.24D-09
 IDIUse=1 WtCom= 1.00D+00 WtEn= 0.00D+00
 Coeff-Com:  0.100D+01
 Coeff:      0.100D+01
 Gap=     0.398 Goal=   None    Shift=    0.000
 RMSDP=5.15D-06 MaxDP=1.64D-04 DE=-2.17D-07 OVMax= 7.99D-05

 Cycle   9  Pass 1  IDiag  1:
 RMSU=  1.02D-06    CP:  1.00D+00
 E= -150.763073261330     Delta-E=       -0.000000030228 Rises=F Damp=F
 DIIS: error= 9.79D-06 at cycle   2 NSaved=   2.
 NSaved= 2 IEnMin= 2 EnMin= -150.763073261330     IErMin= 2 ErrMin= 9.79D-06
 ErrMax= 9.79D-06  0.00D+00 EMaxC= 1.00D-01 BMatC= 3.55D-09 BMatP= 9.24D-09
 IDIUse=1 WtCom= 1.00D+00 WtEn= 0.00D+00
 Coeff-Com: -0.427D+00 0.143D+01
 Coeff:     -0.427D+00 0.143D+01
 Gap=     0.398 Goal=   None    Shift=    0.000
 RMSDP=9.24D-07 MaxDP=3.77D-05 DE=-3.02D-08 OVMax= 9.41D-05

 Cycle  10  Pass 1  IDiag  1:
 RMSU=  4.14D-07    CP:  1.00D+00  1.71D+00
 E= -150.763073278303     Delta-E=       -0.000000016973 Rises=F Damp=F
 DIIS: error= 7.17D-06 at cycle   3 NSaved=   3.
 NSaved= 3 IEnMin= 3 EnMin= -150.763073278303     IErMin= 3 ErrMin= 7.17D-06
 ErrMax= 7.17D-06  0.00D+00 EMaxC= 1.00D-01 BMatC= 2.18D-09 BMatP= 3.55D-09
 IDIUse=1 WtCom= 1.00D+00 WtEn= 0.00D+00
 Coeff-Com: -0.799D+00 0.721D+00 0.108D+01
 Coeff:     -0.799D+00 0.721D+00 0.108D+01
 Gap=     0.398 Goal=   None    Shift=    0.000
 RMSDP=1.05D-06 MaxDP=4.50D-05 DE=-1.70D-08 OVMax= 6.94D-05

 Cycle  11  Pass 1  IDiag  1:
 RMSU=  2.09D-07    CP:  1.00D+00  2.56D+00  1.38D+00
 E= -150.763073285669     Delta-E=       -0.000000007366 Rises=F Damp=F
 DIIS: error= 1.36D-06 at cycle   4 NSaved=   4.
 NSaved= 4 IEnMin= 4 EnMin= -150.763073285669     IErMin= 4 ErrMin= 1.36D-06
 ErrMax= 1.36D-06  0.00D+00 EMaxC= 1.00D-01 BMatC= 9.38D-11 BMatP= 2.18D-09
 IDIUse=1 WtCom= 1.00D+00 WtEn= 0.00D+00
 Coeff-Com:  0.111D-01-0.137D+00 0.125D+00 0.100D+01
 Coeff:      0.111D-01-0.137D+00 0.125D+00 0.100D+01
 Gap=     0.398 Goal=   None    Shift=    0.000
 RMSDP=1.46D-07 MaxDP=7.38D-06 DE=-7.37D-09 OVMax= 1.09D-05

 Cycle  12  Pass 1  IDiag  1:
 RMSU=  6.37D-08    CP:  1.00D+00  2.64D+00  1.58D+00  1.13D+00
 E= -150.763073285898     Delta-E=       -0.000000000229 Rises=F Damp=F
 DIIS: error= 2.56D-07 at cycle   5 NSaved=   5.
 NSaved= 5 IEnMin= 5 EnMin= -150.763073285898     IErMin= 5 ErrMin= 2.56D-07
 ErrMax= 2.56D-07  0.00D+00 EMaxC= 1.00D-01 BMatC= 8.62D-12 BMatP= 9.38D-11
 IDIUse=1 WtCom= 1.00D+00 WtEn= 0.00D+00
 Coeff-Com:  0.105D+00-0.763D-01-0.148D+00-0.307D+00 0.143D+01
 Coeff:      0.105D+00-0.763D-01-0.148D+00-0.307D+00 0.143D+01
 Gap=     0.398 Goal=   None    Shift=    0.000
 RMSDP=5.43D-08 MaxDP=1.10D-06 DE=-2.29D-10 OVMax= 3.22D-06

 Cycle  13  Pass 1  IDiag  1:
 RMSU=  3.29D-08    CP:  1.00D+00  2.64D+00  1.65D+00  1.23D+00  1.33D+00
 E= -150.763073285925     Delta-E=       -0.000000000027 Rises=F Damp=F
 DIIS: error= 4.93D-08 at cycle   6 NSaved=   6.
 NSaved= 6 IEnMin= 6 EnMin= -150.763073285925     IErMin= 6 ErrMin= 4.93D-08
 ErrMax= 4.93D-08  0.00D+00 EMaxC= 1.00D-01 BMatC= 2.54D-13 BMatP= 8.62D-12
 IDIUse=1 WtCom= 1.00D+00 WtEn= 0.00D+00
 Coeff-Com: -0.192D-01 0.138D-01 0.304D-01 0.173D-01-0.249D+00 0.121D+01
 Coeff:     -0.192D-01 0.138D-01 0.304D-01 0.173D-01-0.249D+00 0.121D+01
 Gap=     0.398 Goal=   None    Shift=    0.000
 RMSDP=1.22D-08 MaxDP=3.98D-07 DE=-2.73D-11 OVMax= 2.85D-07

 Cycle  14  Pass 1  IDiag  1:
 RMSU=  2.70D-09    CP:  1.00D+00  2.64D+00  1.65D+00  1.21D+00  1.37D+00
                    CP:  1.25D+00
 E= -150.763073285926     Delta-E=       -0.000000000001 Rises=F Damp=F
 DIIS: error= 1.25D-08 at cycle   7 NSaved=   7.
 NSaved= 7 IEnMin= 7 EnMin= -150.763073285926     IErMin= 7 ErrMin= 1.25D-08
 ErrMax= 1.25D-08  0.00D+00 EMaxC= 1.00D-01 BMatC= 1.47D-14 BMatP= 2.54D-13
 IDIUse=1 WtCom= 1.00D+00 WtEn= 0.00D+00
 Coeff-Com: -0.100D-01 0.736D-02 0.149D-01 0.201D-01-0.128D+00 0.167D+00
 Coeff-Com:  0.929D+00
 Coeff:     -0.100D-01 0.736D-02 0.149D-01 0.201D-01-0.128D+00 0.167D+00
 Coeff:      0.929D+00
 Gap=     0.398 Goal=   None    Shift=    0.000
 RMSDP=2.61D-09 MaxDP=1.03D-07 DE=-7.39D-13 OVMax= 9.89D-08

 SCF Done:  E(RHF) =  -150.763073286     A.U. after   14 cycles
            NFock= 14  Conv=0.26D-08     -V/T= 2.0014
 KE= 1.505546097776D+02 PE=-4.515421200339D+02 EE= 9.823055846326D+01
 Leave Link  502 at Thu Mar  7 10:50:01 2019, MaxMem=    33554432 cpu:        55.7
 (Enter /home/proyectos/fulerenos/M3C-v2.0/M3C-deps_CCC/g09-AM64L-G09RevC.01/l801.exe)
 Windowed orbitals will be sorted by symmetry type.
 ExpMin= 3.60D-02 ExpMax= 8.59D+03 ExpMxC= 1.30D+03 IAcc=3 IRadAn=         5 AccDes= 0.00D+00
 HarFok:  IExCor=  205 AccDes= 0.00D+00 IRadAn=         5 IDoV=-2 UseB2=F ITyADJ=14
 ICtDFT= 12500011 ScaDFX=  1.000000  1.000000  1.000000  1.000000
 Largest valence mixing into a core orbital is  1.38D-04
 Largest core mixing into a valence orbital is  3.89D-05
 Range of M.O.s used for correlation:     4   127
 NBasis=   127 NAE=    10 NBE=    10 NFC=     3 NFV=     0
 NROrb=    124 NOA=     7 NOB=     7 NVA=   117 NVB=   117

 **** Warning!!: The largest alpha MO coefficient is  0.37550216D+02

 Leave Link  801 at Thu Mar  7 10:50:01 2019, MaxMem=    33554432 cpu:         0.5
 (Enter /home/proyectos/fulerenos/M3C-v2.0/M3C-deps_CCC/g09-AM64L-G09RevC.01/l804.exe)
 Closed-shell transformation, MDV=    33554432 ITran=4 ISComp=1.
 Semi-Direct transformation.
 ModeAB=           2 MOrb=             7 LenV=      33025119
 LASXX=      6388431 LTotXX=     6388431 LenRXX=     6388431
 LTotAB=     6541318 MaxLAS=     9187780 LenRXY=     9187780
 NonZer=    12776862 LenScr=    19928064 LnRSAI=           0
 LnScr1=           0 LExtra=           0 Total=     35504275
 MaxDsk=          -1 SrtSym=           F ITran=            4
 DoSDTr:  NPSUse=  4
 JobTyp=0 Pass  1:  I=   1 to   7.
 Complete sort for first half transformation.
 First half transformation complete.
 Complete sort for second half transformation.
 Second half transformation complete.
 SymMOI:  orbitals are not symmetric.
 Spin components of T(2) and E(2):
     alpha-alpha T2 =       0.1856284318D-01 E2=     -0.5865493331D-01
     alpha-beta  T2 =       0.1137672077D+00 E2=     -0.3674739806D+00
     beta-beta   T2 =       0.1856284318D-01 E2=     -0.5865493331D-01
 ANorm=    0.1072796763D+01
 E2 =    -0.4847838472D+00 EUMP2 =    -0.15124785713311D+03
 Leave Link  804 at Thu Mar  7 10:50:07 2019, MaxMem=    33554432 cpu:        23.8
 (Enter /home/proyectos/fulerenos/M3C-v2.0/M3C-deps_CCC/g09-AM64L-G09RevC.01/l913.exe)
 CIDS:  MDV=    33554432.
 Frozen-core window:  NFC=   3 NFV=   0.
 IFCWin=0 IBDFC=1 NFBD=     0     0 NFCmp=     0     0 NFFFC=     0     0
 Using DD3R+UMP44R for 1st iteration, S=T.
 Using DD4RQ for 2nd and later iterations.
 Would need an additional        34459906 words for in-memory AO integral storage.
 CCSD(T)
 =======
 Iterations= 200 Convergence= 0.100D-06
 Iteration Nr.   1
 **********************
 DD1Dir will call FoFJK   1 times, MxPair=        56
 NAB=    28 NAA=     0 NBB=     0 NumPrc=  4.
 FoFJK:  IHMeth= 1 ICntrl=     200 DoSepK=F KAlg= 0 I1Cent=   0 FoldK=F
 IRaf= 990000000 NMat=  56 IRICut=      70 DoRegI=T DoRafI=T ISym2E= 2.
 FoFCou: FMM=F IPFlag=           0 FMFlag=      100000 FMFlg1=           0
         NFxFlg=           0 DoJE=F BraDBF=F KetDBF=F FulRan=T
         wScrn=  0.000000 ICntrl=     200 IOpCl=  0 I1Cent=           0 NGrid=           0
         NMat0=   56 NMatS0=      0 NMatT0=   28 NMatD0=   56 NMtDS0=    0 NMtDT0=    0
 Integrals replicated using symmetry in FoFCou.
 MP4(R+Q)=  0.12953338D-01
 Maximum subspace dimension=  5
 Norm of the A-vectors is  6.1816589D-01 conv= 1.00D-05.
 RLE energy=       -0.4744757897
 E3=       -0.31873906D-02        EUMP3=      -0.15125104452D+03
 E4(DQ)=   -0.30998927D-02        UMP4(DQ)=   -0.15125414442D+03
 E4(SDQ)=  -0.12677335D-01        UMP4(SDQ)=  -0.15126372186D+03
 VARIATIONAL ENERGIES WITH THE FIRST-ORDER WAVEFUNCTION:
 DE(Corr)= -0.47425303     E(Corr)=     -151.23732632    
 NORM(A)=   0.10745801D+01
 Iteration Nr.   2
 **********************
 DD1Dir will call FoFJK   1 times, MxPair=        56
 NAB=    28 NAA=     0 NBB=     0 NumPrc=  4.
 Norm of the A-vectors is  2.8079617D-01 conv= 1.00D-05.
 RLE energy=       -0.4960293747
 DE(Corr)= -0.49611915     E(CORR)=     -151.25919243     Delta=-2.19D-02
 NORM(A)=   0.10847015D+01
 Iteration Nr.   3
 **********************
 DD1Dir will call FoFJK   1 times, MxPair=        56
 NAB=    28 NAA=     0 NBB=     0 NumPrc=  4.
 Norm of the A-vectors is  9.0967722D-02 conv= 1.00D-05.
 RLE energy=       -0.4979539215
 DE(Corr)= -0.49511155     E(CORR)=     -151.25818484     Delta= 1.01D-03
 NORM(A)=   0.10897954D+01
 Iteration Nr.   4
 **********************
 DD1Dir will call FoFJK   1 times, MxPair=        56
 NAB=    28 NAA=     0 NBB=     0 NumPrc=  4.
 Norm of the A-vectors is  4.5531819D-02 conv= 1.00D-05.
 RLE energy=       -0.4984491857
 DE(Corr)= -0.49803801     E(CORR)=     -151.26111129     Delta=-2.93D-03
 NORM(A)=   0.10923130D+01
 Iteration Nr.   5
 **********************
 DD1Dir will call FoFJK   1 times, MxPair=        56
 NAB=    28 NAA=     0 NBB=     0 NumPrc=  4.
 Norm of the A-vectors is  1.8886915D-02 conv= 1.00D-05.
 RLE energy=       -0.4988569128
 DE(Corr)= -0.49861699     E(CORR)=     -151.26169028     Delta=-5.79D-04
 NORM(A)=   0.10938666D+01
 Iteration Nr.   6
 **********************
 DD1Dir will call FoFJK   1 times, MxPair=        56
 NAB=    28 NAA=     0 NBB=     0 NumPrc=  4.
 Norm of the A-vectors is  1.2231893D-02 conv= 1.00D-05.
 RLE energy=       -0.4988016916
 DE(Corr)= -0.49878085     E(CORR)=     -151.26185414     Delta=-1.64D-04
 NORM(A)=   0.10943087D+01
 Iteration Nr.   7
 **********************
 DD1Dir will call FoFJK   1 times, MxPair=        56
 NAB=    28 NAA=     0 NBB=     0 NumPrc=  4.
 Norm of the A-vectors is  6.1260127D-03 conv= 1.00D-05.
 RLE energy=       -0.4987865138
 DE(Corr)= -0.49883060     E(CORR)=     -151.26190388     Delta=-4.97D-05
 NORM(A)=   0.10944125D+01
 Iteration Nr.   8
 **********************
 DD1Dir will call FoFJK   1 times, MxPair=        56
 NAB=    28 NAA=     0 NBB=     0 NumPrc=  4.
 Norm of the A-vectors is  2.8518863D-03 conv= 1.00D-05.
 RLE energy=       -0.4988268590
 DE(Corr)= -0.49883022     E(CORR)=     -151.26190350     Delta= 3.79D-07
 NORM(A)=   0.10944503D+01
 Iteration Nr.   9
 **********************
 DD1Dir will call FoFJK   1 times, MxPair=        56
 NAB=    28 NAA=     0 NBB=     0 NumPrc=  4.
 Norm of the A-vectors is  1.5055075D-03 conv= 1.00D-05.
 RLE energy=       -0.4988367301
 DE(Corr)= -0.49883750     E(CORR)=     -151.26191078     Delta=-7.28D-06
 NORM(A)=   0.10944513D+01
 Iteration Nr.  10
 **********************
 DD1Dir will call FoFJK   1 times, MxPair=        56
 NAB=    28 NAA=     0 NBB=     0 NumPrc=  4.
 Norm of the A-vectors is  7.7935421D-04 conv= 1.00D-05.
 RLE energy=       -0.4988377625
 DE(Corr)= -0.49883736     E(CORR)=     -151.26191065     Delta= 1.37D-07
 NORM(A)=   0.10944556D+01
 Iteration Nr.  11
 **********************
 DD1Dir will call FoFJK   1 times, MxPair=        56
 NAB=    28 NAA=     0 NBB=     0 NumPrc=  4.
 Norm of the A-vectors is  4.1453880D-04 conv= 1.00D-05.
 RLE energy=       -0.4988450318
 DE(Corr)= -0.49884386     E(CORR)=     -151.26191714     Delta=-6.50D-06
 NORM(A)=   0.10944611D+01
 Iteration Nr.  12
 **********************
 DD1Dir will call FoFJK   1 times, MxPair=        56
 NAB=    28 NAA=     0 NBB=     0 NumPrc=  4.
 Norm of the A-vectors is  1.9933962D-04 conv= 1.00D-05.
 RLE energy=       -0.4988443904
 DE(Corr)= -0.49884370     E(CORR)=     -151.26191699     Delta= 1.55D-07
 NORM(A)=   0.10944656D+01
 Iteration Nr.  13
 **********************
 DD1Dir will call FoFJK   1 times, MxPair=        56
 NAB=    28 NAA=     0 NBB=     0 NumPrc=  4.
 Norm of the A-vectors is  1.1782874D-04 conv= 1.00D-05.
 RLE energy=       -0.4988460193
 DE(Corr)= -0.49884567     E(CORR)=     -151.26191895     Delta=-1.96D-06
 NORM(A)=   0.10944697D+01
 Iteration Nr.  14
 **********************
 DD1Dir will call FoFJK   1 times, MxPair=        56
 NAB=    28 NAA=     0 NBB=     0 NumPrc=  4.
 Norm of the A-vectors is  6.3908708D-05 conv= 1.00D-05.
 RLE energy=       -0.4988464844
 DE(Corr)= -0.49884603     E(CORR)=     -151.26191932     Delta=-3.64D-07
 NORM(A)=   0.10944729D+01
 Iteration Nr.  15
 **********************
 DD1Dir will call FoFJK   1 times, MxPair=        56
 NAB=    28 NAA=     0 NBB=     0 NumPrc=  4.
 Norm of the A-vectors is  4.3045330D-05 conv= 1.00D-05.
 RLE energy=       -0.4988466785
 DE(Corr)= -0.49884656     E(CORR)=     -151.26191985     Delta=-5.30D-07
 NORM(A)=   0.10944751D+01
 Iteration Nr.  16
 **********************
 DD1Dir will call FoFJK   1 times, MxPair=        56
 NAB=    28 NAA=     0 NBB=     0 NumPrc=  4.
 Norm of the A-vectors is  2.8452453D-05 conv= 1.00D-05.
 RLE energy=       -0.4988470497
 DE(Corr)= -0.49884692     E(CORR)=     -151.26192020     Delta=-3.57D-07
 NORM(A)=   0.10944761D+01
 Iteration Nr.  17
 **********************
 DD1Dir will call FoFJK   1 times, MxPair=        56
 NAB=    28 NAA=     0 NBB=     0 NumPrc=  4.
 Norm of the A-vectors is  1.9899991D-05 conv= 1.00D-05.
 RLE energy=       -0.4988469443
 DE(Corr)= -0.49884692     E(CORR)=     -151.26192021     Delta=-4.89D-09
 NORM(A)=   0.10944765D+01
 Iteration Nr.  18
 **********************
 DD1Dir will call FoFJK   1 times, MxPair=        56
 NAB=    28 NAA=     0 NBB=     0 NumPrc=  4.
 Norm of the A-vectors is  9.4093317D-06 conv= 1.00D-05.
 RLE energy=       -0.4988470413
 DE(Corr)= -0.49884705     E(CORR)=     -151.26192033     Delta=-1.24D-07
 NORM(A)=   0.10944765D+01
 Iteration Nr.  19
 **********************
 DD1Dir will call FoFJK   1 times, MxPair=        56
 NAB=    28 NAA=     0 NBB=     0 NumPrc=  4.
 Norm of the A-vectors is  6.4775756D-06 conv= 1.00D-05.
 RLE energy=       -0.4988470018
 DE(Corr)= -0.49884700     E(CORR)=     -151.26192029     Delta= 4.47D-08
 NORM(A)=   0.10944765D+01
 CI/CC converged in   19 iterations to DelEn= 4.47D-08 Conv= 1.00D-07 ErrA1= 6.48D-06 Conv= 1.00D-05
 Dominant configurations:
 ***********************
 Spin Case        I    J    A    B          Value
   ABAB          10   10   11   11      -0.103837D+00
 Largest amplitude= 1.04D-01
 T4(AAA)= -0.59111062D-03
 T4(AAB)= -0.13387475D-01
 T5(AAA)=  0.65351374D-04
 T5(AAB)=  0.10032711D-02
 Time for triples=      132.87 seconds.
 T4(CCSD)= -0.27957171D-01
 T5(CCSD)=  0.21372449D-02
 CCSD(T)= -0.15128774021D+03
 Discarding MO integrals.
 Leave Link  913 at Thu Mar  7 10:53:19 2019, MaxMem=    33554432 cpu:       750.1
 (Enter /home/proyectos/fulerenos/M3C-v2.0/M3C-deps_CCC/g09-AM64L-G09RevC.01/l601.exe)
 Copying SCF densities to generalized density rwf, IOpCl= 0 IROHF=0.

 **********************************************************************

            Population analysis using the SCF density.

 **********************************************************************

 Orbital symmetries:
       Occupied  (A) (A) (A) (A) (A) (A) (A) (A) (A) (A)
       Virtual   (A) (A) (A) (A) (A) (A) (A) (A) (A) (A) (A) (A)
                 (A) (A) (A) (A) (A) (A) (A) (A) (A) (A) (A) (A)
                 (A) (A) (A) (A) (A) (A) (A) (A) (A) (A) (A) (A)
                 (A) (A) (A) (A) (A) (A) (A) (A) (A) (A) (A) (A)
                 (A) (A) (A) (A) (A) (A) (A) (A) (A) (A) (A) (A)
                 (A) (A) (A) (A) (A) (A) (A) (A) (A) (A) (A) (A)
                 (A) (A) (A) (A) (A) (A) (A) (A) (A) (A) (A) (A)
                 (A) (A) (A) (A) (A) (A) (A) (A) (A) (A) (A) (A)
                 (A) (A) (A) (A) (A) (A) (A) (A) (A) (A) (A) (A)
                 (A) (A) (A) (A) (A) (A) (A) (A) (A)
 The electronic state is 1-A.
 Alpha  occ. eigenvalues --  -20.99319 -11.72457 -11.66183  -1.82687  -1.35607
 Alpha  occ. eigenvalues --   -1.08056  -1.00724  -0.95530  -0.93227  -0.72528
 Alpha virt. eigenvalues --   -0.32729  -0.15790  -0.11912  -0.07518  -0.07281
 Alpha virt. eigenvalues --   -0.05709  -0.05174  -0.02007  -0.00598   0.00479
 Alpha virt. eigenvalues --    0.00618   0.03097   0.05172   0.09857   0.13063
 Alpha virt. eigenvalues --    0.15087   0.16479   0.17204   0.19768   0.22850
 Alpha virt. eigenvalues --    0.27658   0.31783   0.33645   0.34842   0.37221
 Alpha virt. eigenvalues --    0.38732   0.39192   0.43695   0.51720   0.52797
 Alpha virt. eigenvalues --    0.52932   0.63157   0.66255   0.66602   0.72425
 Alpha virt. eigenvalues --    0.75937   0.85558   0.88791   0.93215   0.93526
 Alpha virt. eigenvalues --    0.96657   0.99167   1.09095   1.12813   1.15471
 Alpha virt. eigenvalues --    1.27728   1.33511   1.36991   1.39080   1.45221
 Alpha virt. eigenvalues --    1.48243   1.52706   1.57837   1.63641   1.83776
 Alpha virt. eigenvalues --    1.92462   1.99372   2.09313   2.24740   2.50538
 Alpha virt. eigenvalues --    2.59800   2.65176   2.65992   2.66589   2.78774
 Alpha virt. eigenvalues --    2.78802   2.86085   2.90079   2.95951   3.01304
 Alpha virt. eigenvalues --    3.05013   3.05617   3.14535   3.23824   3.26553
 Alpha virt. eigenvalues --    3.43656   3.59813   3.63257   3.70904   3.92969
 Alpha virt. eigenvalues --    3.93625   4.00246   4.20228   4.25514   4.44599
 Alpha virt. eigenvalues --    4.80515   4.86503   5.11423   5.12900   5.14341
 Alpha virt. eigenvalues --    5.53289   5.53649   5.55784   5.70688   5.73497
 Alpha virt. eigenvalues --    6.09694   6.55110   6.61985   6.71206   6.98509
 Alpha virt. eigenvalues --    7.00409   7.10557   7.13774   7.22268   7.48759
 Alpha virt. eigenvalues --    7.57964   7.70569   8.01926   8.82328  14.63250
 Alpha virt. eigenvalues --   14.63728  15.17949  15.18003  15.45709  25.53469
 Alpha virt. eigenvalues --   26.14865  52.02866
          Condensed to atoms (all electrons):
               1          2          3          4
     1  C    6.292440  -1.505375  -0.055433   0.169376
     2  C   -1.505375   7.072469   0.418795  -0.003753
     3  H   -0.055433   0.418795   0.342080   0.004061
     4  O    0.169376  -0.003753   0.004061   8.237669
 Mulliken charges:
               1
     1  C    1.098992
     2  C    0.017864
     3  H    0.290497
     4  O   -0.407354
 Sum of Mulliken charges =   1.00000
 Mulliken charges with hydrogens summed into heavy atoms:
               1
     1  C    1.098992
     2  C    0.308361
     4  O   -0.407354
 Electronic spatial extent (au):  <R**2>=            121.0310
 Charge=              1.0000 electrons
 Dipole moment (field-independent basis, Debye):
    X=              3.2422    Y=              1.5141    Z=             -0.0000  Tot=              3.5784
 Quadrupole moment (field-independent basis, Debye-Ang):
   XX=             -8.2571   YY=            -15.0461   ZZ=            -12.8826
   XY=              2.7083   XZ=              0.0000   YZ=              0.0000
 Traceless Quadrupole moment (field-independent basis, Debye-Ang):
   XX=              3.8049   YY=             -2.9842   ZZ=             -0.8207
   XY=              2.7083   XZ=              0.0000   YZ=              0.0000
 Octapole moment (field-independent basis, Debye-Ang**2):
  XXX=              6.3902  YYY=              2.5190  ZZZ=             -0.0000  XYY=             -1.9981
  XXY=              5.8522  XXZ=              0.0000  XZZ=             -0.4739  YZZ=              0.3735
  YYZ=              0.0000  XYZ=              0.0000
 Hexadecapole moment (field-independent basis, Debye-Ang**3):
 XXXX=            -91.3972 YYYY=            -16.6280 ZZZZ=             -9.7587 XXXY=             13.8131
 XXXZ=              0.0000 YYYX=              4.2295 YYYZ=              0.0000 ZZZX=             -0.0000
 ZZZY=              0.0000 XXYY=            -21.2847 XXZZ=            -19.2041 YYZZ=             -4.4587
 XXYZ=              0.0000 YYXZ=              0.0000 ZZXY=              0.6607
 N-N= 5.199387850713D+01 E-N=-4.515421203657D+02  KE= 1.505546097776D+02
 Leave Link  601 at Thu Mar  7 10:53:20 2019, MaxMem=    33554432 cpu:         0.2
 (Enter /home/proyectos/fulerenos/M3C-v2.0/M3C-deps_CCC/g09-AM64L-G09RevC.01/l9999.exe)
 1\1\GINC-FOSFORO\SP\RCCSD(T)-FC\6-311++G(3df,2p)\C2H1O1(1+)\NAGUIRRE\0
 7-Mar-2019\0\\#p ccsd(t,maxcyc=200)/6-311++G(3df,2p)\\ccsd(t) iener\\1
 ,1\C,0,0.155602,-0.297545,0.010873\C,0,-0.730405,0.75142,0.236382\H,0,
 -1.040675,1.033882,1.247989\O,0,0.837884,-1.080977,-0.430065\\Version=
 EM64L-G09RevE.01\State=1-A\HF=-150.7630733\MP2=-151.2478571\MP3=-151.2
 510445\MP4D=-151.2670978\MP4DQ=-151.2541444\MP4SDQ=-151.2637219\CCSD=-
 151.2619203\CCSD(T)=-151.2877402\RMSD=2.607e-09\PG=C01 [X(C2H1O1)]\\@


 LORD, MAN... WERE YE BUT WHYLES WHERE I AM, 
 THE GENTILES YE WAD NE'ER ENVY 'EM.        
 IT'S TRUE, THEY NEEDNA STARVE OR SWEAT,     
 THRO' WINTER'S CAULD OR SIMMER'S HEAT...  
 THEY'VE NAE SAIR WARK TO CRAZE THEIR BANES, 
 AND FILL AULD AGE WITH GRIPS AN' GRANES...  
                                             
 BUT HUMAN BODIES ARE SIC FOOLS              
 FOR A' THEIR COLLEGES AND SCHOOLS,           
 THAT WHEN NAE REAL ILLS PERPLEX THEM,       
 THEY MAK ENOW THEMSELVES TO VEX THEM,       
 AN' AYE THE LESS THEY HAE TO STURT THEM,    
 IN LIKE PROPORTION LESS WILL HURT THEM....  
                                             
                (ROBERT BURNS 'THE TWA DOGS')
 Job cpu time:       0 days  0 hours 13 minutes 55.3 seconds.
 File lengths (MBytes):  RWF=    592 Int=      0 D2E=      0 Chk=      2 Scr=      1
 Normal termination of Gaussian 09 at Thu Mar  7 10:53:20 2019.
