 Entering Gaussian System, Link 0=/home/proyectos/fulerenos/M3C-v2.0/M3C-deps_CCC/g09-AM64L-G09RevC.01/g09
 Initial command:
 /home/proyectos/fulerenos/M3C-v2.0/M3C-deps_CCC/g09-AM64L-G09RevC.01/l1.exe "/scratch/naguirre/gaussian/Gau-38242.inp" -scrdir="/scratch/naguirre/gaussian/"
 Entering Link 1 = /home/proyectos/fulerenos/M3C-v2.0/M3C-deps_CCC/g09-AM64L-G09RevC.01/l1.exe PID=     38250.
  
 Copyright (c) 1988,1990,1992,1993,1995,1998,2003,2009,2015,
            Gaussian, Inc.  All Rights Reserved.
  
 This is part of the Gaussian(R) 09 program.  It is based on
 the Gaussian(R) 03 system (copyright 2003, Gaussian, Inc.),
 the Gaussian(R) 98 system (copyright 1998, Gaussian, Inc.),
 the Gaussian(R) 94 system (copyright 1995, Gaussian, Inc.),
 the Gaussian 92(TM) system (copyright 1992, Gaussian, Inc.),
 the Gaussian 90(TM) system (copyright 1990, Gaussian, Inc.),
 the Gaussian 88(TM) system (copyright 1988, Gaussian, Inc.),
 the Gaussian 86(TM) system (copyright 1986, Carnegie Mellon
 University), and the Gaussian 82(TM) system (copyright 1983,
 Carnegie Mellon University). Gaussian is a federally registered
 trademark of Gaussian, Inc.
  
 This software contains proprietary and confidential information,
 including trade secrets, belonging to Gaussian, Inc.
  
 This software is provided under written license and may be
 used, copied, transmitted, or stored only in accord with that
 written license.
  
 The following legend is applicable only to US Government
 contracts under FAR:
  
                    RESTRICTED RIGHTS LEGEND
  
 Use, reproduction and disclosure by the US Government is
 subject to restrictions as set forth in subparagraphs (a)
 and (c) of the Commercial Computer Software - Restricted
 Rights clause in FAR 52.227-19.
  
 Gaussian, Inc.
 340 Quinnipiac St., Bldg. 40, Wallingford CT 06492
  
  
 ---------------------------------------------------------------
 Warning -- This program may not be used in any manner that
 competes with the business of Gaussian, Inc. or will provide
 assistance to any competitor of Gaussian, Inc.  The licensee
 of this program is prohibited from giving any competitor of
 Gaussian, Inc. access to this program.  By using this program,
 the user acknowledges that Gaussian, Inc. is engaged in the
 business of creating and licensing software in the field of
 computational chemistry and represents and warrants to the
 licensee that it is not a competitor of Gaussian, Inc. and that
 it will not use this program in any manner prohibited above.
 ---------------------------------------------------------------
  

 Cite this work as:
 Gaussian 09, Revision E.01,
 M. J. Frisch, G. W. Trucks, H. B. Schlegel, G. E. Scuseria, 
 M. A. Robb, J. R. Cheeseman, G. Scalmani, V. Barone, B. Mennucci, 
 G. A. Petersson, H. Nakatsuji, M. Caricato, X. Li, H. P. Hratchian, 
 A. F. Izmaylov, J. Bloino, G. Zheng, J. L. Sonnenberg, M. Hada, 
 M. Ehara, K. Toyota, R. Fukuda, J. Hasegawa, M. Ishida, T. Nakajima, 
 Y. Honda, O. Kitao, H. Nakai, T. Vreven, J. A. Montgomery, Jr., 
 J. E. Peralta, F. Ogliaro, M. Bearpark, J. J. Heyd, E. Brothers, 
 K. N. Kudin, V. N. Staroverov, T. Keith, R. Kobayashi, J. Normand, 
 K. Raghavachari, A. Rendell, J. C. Burant, S. S. Iyengar, J. Tomasi, 
 M. Cossi, N. Rega, J. M. Millam, M. Klene, J. E. Knox, J. B. Cross, 
 V. Bakken, C. Adamo, J. Jaramillo, R. Gomperts, R. E. Stratmann, 
 O. Yazyev, A. J. Austin, R. Cammi, C. Pomelli, J. W. Ochterski, 
 R. L. Martin, K. Morokuma, V. G. Zakrzewski, G. A. Voth, 
 P. Salvador, J. J. Dannenberg, S. Dapprich, A. D. Daniels, 
 O. Farkas, J. B. Foresman, J. V. Ortiz, J. Cioslowski, 
 and D. J. Fox, Gaussian, Inc., Wallingford CT, 2013.
 
 ******************************************
 Gaussian 09:  EM64L-G09RevE.01 30-Nov-2015
                 7-Mar-2019 
 ******************************************
 %NProcShared=4
 Will use up to    4 processors via shared memory.
 --------------------------------------
 #p ccsd(t,maxcyc=200)/6-311++G(3df,2p)
 --------------------------------------
 1/38=1/1;
 2/12=2,17=6,18=5,40=1/2;
 3/5=4,6=6,7=1216,11=9,16=1,25=1,30=1/1,2,3;
 4//1;
 5/5=2,38=5/2;
 8/6=4,9=120000,10=2/1,4;
 9/5=7,6=200,14=2/13;
 6/7=2,8=2,9=2,10=2/1;
 99/5=1,9=1/99;
 Leave Link    1 at Thu Mar  7 13:33:41 2019, MaxMem=           0 cpu:         0.2
 (Enter /home/proyectos/fulerenos/M3C-v2.0/M3C-deps_CCC/g09-AM64L-G09RevC.01/l101.exe)
 -------------
 ccsd(t) iener
 -------------
 Symbolic Z-matrix:
 Charge =  1 Multiplicity = 1
 C                    -0.23448  -0.5194    0. 
 H                    -0.6105   -1.56234   0. 
 O                     0.14055   0.51906   0. 
 
 NAtoms=      3 NQM=        3 NQMF=       0 NMMI=      0 NMMIF=      0
                NMic=       0 NMicF=      0.
                    Isotopes and Nuclear Properties:
 (Nuclear quadrupole moments (NQMom) in fm**2, nuclear magnetic moments (NMagM)
  in nuclear magnetons)

  Atom         1           2           3
 IAtWgt=          12           1          16
 AtmWgt=  12.0000000   1.0078250  15.9949146
 NucSpn=           0           1           0
 AtZEff=   0.0000000   0.0000000   0.0000000
 NQMom=    0.0000000   0.0000000   0.0000000
 NMagM=    0.0000000   2.7928460   0.0000000
 AtZNuc=   6.0000000   1.0000000   8.0000000
 Leave Link  101 at Thu Mar  7 13:33:41 2019, MaxMem=    33554432 cpu:         0.3
 (Enter /home/proyectos/fulerenos/M3C-v2.0/M3C-deps_CCC/g09-AM64L-G09RevC.01/l202.exe)
                          Input orientation:                          
 ---------------------------------------------------------------------
 Center     Atomic      Atomic             Coordinates (Angstroms)
 Number     Number       Type             X           Y           Z
 ---------------------------------------------------------------------
      1          6           0       -0.234483   -0.519400    0.000000
      2          1           0       -0.610497   -1.562336    0.000000
      3          8           0        0.140550    0.519060    0.000000
 ---------------------------------------------------------------------
                    Distance matrix (angstroms):
                    1          2          3
     1  C    0.000000
     2  H    1.108649   0.000000
     3  O    1.104105   2.212754   0.000000
 Stoichiometry    CHO(1+)
 Framework group  C*V[C*(OCH)]
 Deg. of freedom     2
 Full point group                 C*V     NOp   4
 Largest Abelian subgroup         C2V     NOp   4
 Largest concise Abelian subgroup C1      NOp   1
                         Standard orientation:                         
 ---------------------------------------------------------------------
 Center     Atomic      Atomic             Coordinates (Angstroms)
 Number     Number       Type             X           Y           Z
 ---------------------------------------------------------------------
      1          6           0       -0.000000    0.000000    0.514946
      2          1           0       -0.000000    0.000000    1.623595
      3          8           0        0.000000   -0.000000   -0.589159
 ---------------------------------------------------------------------
 Rotational constants (GHZ):      0.0000000     44.7176534     44.7176534
 Leave Link  202 at Thu Mar  7 13:33:41 2019, MaxMem=    33554432 cpu:         0.0
 (Enter /home/proyectos/fulerenos/M3C-v2.0/M3C-deps_CCC/g09-AM64L-G09RevC.01/l301.exe)
 Standard basis: 6-311++G(3df,2p) (5D, 7F)
 Ernie: Thresh=  0.10000D-02 Tol=  0.10000D-05 Strict=F.
 There are    48 symmetry adapted cartesian basis functions of A1  symmetry.
 There are     8 symmetry adapted cartesian basis functions of A2  symmetry.
 There are    22 symmetry adapted cartesian basis functions of B1  symmetry.
 There are    22 symmetry adapted cartesian basis functions of B2  symmetry.
 There are    40 symmetry adapted basis functions of A1  symmetry.
 There are     8 symmetry adapted basis functions of A2  symmetry.
 There are    20 symmetry adapted basis functions of B1  symmetry.
 There are    20 symmetry adapted basis functions of B2  symmetry.
    88 basis functions,   128 primitive gaussians,   100 cartesian basis functions
     7 alpha electrons        7 beta electrons
       nuclear repulsion energy        27.7826001252 Hartrees.
 IExCor=    0 DFT=F Ex=HF Corr=None ExCW=0 ScaHFX=  1.000000
 ScaDFX=  1.000000  1.000000  1.000000  1.000000 ScalE2=  1.000000  1.000000
 IRadAn=      0 IRanWt=     -1 IRanGd=            0 ICorTp=0 IEmpDi=  4
 NAtoms=    3 NActive=    3 NUniq=    3 SFac= 1.00D+00 NAtFMM=   60 NAOKFM=F Big=F
 Integral buffers will be    131072 words long.
 Raffenetti 1 integral format.
 Two-electron integral symmetry is turned on.
 Leave Link  301 at Thu Mar  7 13:33:41 2019, MaxMem=    33554432 cpu:         0.3
 (Enter /home/proyectos/fulerenos/M3C-v2.0/M3C-deps_CCC/g09-AM64L-G09RevC.01/l302.exe)
 NPDir=0 NMtPBC=     1 NCelOv=     1 NCel=       1 NClECP=     1 NCelD=      1
         NCelK=      1 NCelE2=     1 NClLst=     1 CellRange=     0.0.
 One-electron integrals computed using PRISM.
 NBasis=    88 RedAO= T EigKep=  1.11D-03  NBF=    40     8    20    20
 NBsUse=    88 1.00D-06 EigRej= -1.00D+00 NBFU=    40     8    20    20
 Leave Link  302 at Thu Mar  7 13:33:41 2019, MaxMem=    33554432 cpu:         1.1
 (Enter /home/proyectos/fulerenos/M3C-v2.0/M3C-deps_CCC/g09-AM64L-G09RevC.01/l303.exe)
 DipDrv:  MaxL=1.
 Leave Link  303 at Thu Mar  7 13:33:42 2019, MaxMem=    33554432 cpu:         0.1
 (Enter /home/proyectos/fulerenos/M3C-v2.0/M3C-deps_CCC/g09-AM64L-G09RevC.01/l401.exe)
 ExpMin= 3.60D-02 ExpMax= 8.59D+03 ExpMxC= 1.30D+03 IAcc=3 IRadAn=         5 AccDes= 0.00D+00
 Harris functional with IExCor=  205 and IRadAn=       5 diagonalized for initial guess.
 HarFok:  IExCor=  205 AccDes= 0.00D+00 IRadAn=         5 IDoV= 1 UseB2=F ITyADJ=14
 ICtDFT=  3500011 ScaDFX=  1.000000  1.000000  1.000000  1.000000
 FoFCou: FMM=F IPFlag=           0 FMFlag=      100000 FMFlg1=           0
         NFxFlg=           0 DoJE=T BraDBF=F KetDBF=T FulRan=T
         wScrn=  0.000000 ICntrl=     500 IOpCl=  0 I1Cent=   200000004 NGrid=           0
         NMat0=    1 NMatS0=      1 NMatT0=    0 NMatD0=    1 NMtDS0=    0 NMtDT0=    0
 Petite list used in FoFCou.
 Harris En= -113.116205099962    
 JPrj=0 DoOrth=F DoCkMO=F.
 Initial guess orbital symmetries:
       Occupied  (SG) (SG) (SG) (SG) (SG) (PI) (PI)
       Virtual   (PI) (PI) (SG) (SG) (PI) (PI) (SG) (SG) (PI) (PI)
                 (SG) (SG) (DLTA) (DLTA) (SG) (PI) (PI) (PI) (PI)
                 (SG) (SG) (SG) (DLTA) (DLTA) (SG) (PI) (PI) (PI)
                 (PI) (SG) (PI) (PI) (SG) (DLTA) (DLTA) (SG) (SG)
                 (PI) (PI) (SG) (PI) (PI) (PHI) (PHI) (DLTA) (DLTA)
                 (SG) (PI) (PI) (DLTA) (DLTA) (SG) (SG) (PI) (PI)
                 (SG) (PI) (PI) (PHI) (PHI) (PI) (PI) (DLTA) (DLTA)
                 (SG) (SG) (PI) (PI) (SG) (DLTA) (DLTA) (PI) (PI)
                 (SG) (DLTA) (DLTA) (PI) (PI) (SG) (SG) (SG)
 The electronic state of the initial guess is 1-SG.
 Leave Link  401 at Thu Mar  7 13:33:42 2019, MaxMem=    33554432 cpu:         1.2
 (Enter /home/proyectos/fulerenos/M3C-v2.0/M3C-deps_CCC/g09-AM64L-G09RevC.01/l502.exe)
 Closed shell SCF:
 Using DIIS extrapolation, IDIIS=  1040.
 Integral symmetry usage will be decided dynamically.
 Keep R1 ints in memory in symmetry-blocked form, NReq=9727284.
 IVT=       49952 IEndB=       49952 NGot=    33554432 MDV=    31496723
 LenX=    31496723 LenY=    31486282
 Requested convergence on RMS density matrix=1.00D-08 within 128 cycles.
 Requested convergence on MAX density matrix=1.00D-06.
 Requested convergence on             energy=1.00D-06.
 No special actions if energy rises.
 FoFCou: FMM=F IPFlag=           0 FMFlag=           0 FMFlg1=           0
         NFxFlg=           0 DoJE=F BraDBF=F KetDBF=F FulRan=T
         wScrn=  0.000000 ICntrl=     600 IOpCl=  0 I1Cent=           0 NGrid=           0
         NMat0=    1 NMatS0=   3916 NMatT0=    0 NMatD0=    1 NMtDS0=    0 NMtDT0=    0
 Petite list used in FoFCou.

 Cycle   1  Pass 1  IDiag  1:
 E= -112.969911199484    
 DIIS: error= 4.94D-02 at cycle   1 NSaved=   1.
 NSaved= 1 IEnMin= 1 EnMin= -112.969911199484     IErMin= 1 ErrMin= 4.94D-02
 ErrMax= 4.94D-02  0.00D+00 EMaxC= 1.00D-01 BMatC= 1.59D-01 BMatP= 1.59D-01
 IDIUse=3 WtCom= 5.06D-01 WtEn= 4.94D-01
 Coeff-Com:  0.100D+01
 Coeff-En:   0.100D+01
 Coeff:      0.100D+01
 Gap=     0.756 Goal=   None    Shift=    0.000
 GapD=    0.756 DampG=2.000 DampE=0.500 DampFc=1.0000 IDamp=-1.
 RMSDP=1.92D-03 MaxDP=3.95D-02              OVMax= 6.43D-02

 Cycle   2  Pass 1  IDiag  1:
 E= -112.997990547519     Delta-E=       -0.028079348035 Rises=F Damp=F
 DIIS: error= 1.82D-02 at cycle   2 NSaved=   2.
 NSaved= 2 IEnMin= 2 EnMin= -112.997990547519     IErMin= 2 ErrMin= 1.82D-02
 ErrMax= 1.82D-02  0.00D+00 EMaxC= 1.00D-01 BMatC= 1.63D-02 BMatP= 1.59D-01
 IDIUse=3 WtCom= 8.18D-01 WtEn= 1.82D-01
 Coeff-Com:  0.129D+00 0.871D+00
 Coeff-En:   0.000D+00 0.100D+01
 Coeff:      0.105D+00 0.895D+00
 Gap=     0.801 Goal=   None    Shift=    0.000
 RMSDP=1.30D-03 MaxDP=4.39D-02 DE=-2.81D-02 OVMax= 5.50D-02

 Cycle   3  Pass 1  IDiag  1:
 E= -113.003704872304     Delta-E=       -0.005714324784 Rises=F Damp=F
 DIIS: error= 1.40D-02 at cycle   3 NSaved=   3.
 NSaved= 3 IEnMin= 3 EnMin= -113.003704872304     IErMin= 3 ErrMin= 1.40D-02
 ErrMax= 1.40D-02  0.00D+00 EMaxC= 1.00D-01 BMatC= 8.67D-03 BMatP= 1.63D-02
 IDIUse=3 WtCom= 8.60D-01 WtEn= 1.40D-01
 Coeff-Com: -0.371D-01 0.416D+00 0.621D+00
 Coeff-En:   0.000D+00 0.308D+00 0.692D+00
 Coeff:     -0.319D-01 0.401D+00 0.631D+00
 Gap=     0.778 Goal=   None    Shift=    0.000
 RMSDP=5.36D-04 MaxDP=1.94D-02 DE=-5.71D-03 OVMax= 2.29D-02

 Cycle   4  Pass 1  IDiag  1:
 E= -113.009283037390     Delta-E=       -0.005578165087 Rises=F Damp=F
 DIIS: error= 6.17D-04 at cycle   4 NSaved=   4.
 NSaved= 4 IEnMin= 4 EnMin= -113.009283037390     IErMin= 4 ErrMin= 6.17D-04
 ErrMax= 6.17D-04  0.00D+00 EMaxC= 1.00D-01 BMatC= 1.61D-05 BMatP= 8.67D-03
 IDIUse=3 WtCom= 9.94D-01 WtEn= 6.17D-03
 Coeff-Com:  0.711D-02-0.117D+00-0.140D+00 0.125D+01
 Coeff-En:   0.000D+00 0.000D+00 0.000D+00 0.100D+01
 Coeff:      0.707D-02-0.117D+00-0.139D+00 0.125D+01
 Gap=     0.780 Goal=   None    Shift=    0.000
 RMSDP=5.02D-05 MaxDP=1.17D-03 DE=-5.58D-03 OVMax= 2.10D-03

 Cycle   5  Pass 1  IDiag  1:
 E= -113.009305961562     Delta-E=       -0.000022924172 Rises=F Damp=F
 DIIS: error= 5.50D-05 at cycle   5 NSaved=   5.
 NSaved= 5 IEnMin= 5 EnMin= -113.009305961562     IErMin= 5 ErrMin= 5.50D-05
 ErrMax= 5.50D-05  0.00D+00 EMaxC= 1.00D-01 BMatC= 2.09D-07 BMatP= 1.61D-05
 IDIUse=1 WtCom= 1.00D+00 WtEn= 0.00D+00
 Coeff-Com: -0.417D-03 0.113D-01 0.103D-01-0.209D+00 0.119D+01
 Coeff:     -0.417D-03 0.113D-01 0.103D-01-0.209D+00 0.119D+01
 Gap=     0.780 Goal=   None    Shift=    0.000
 RMSDP=7.93D-06 MaxDP=1.63D-04 DE=-2.29D-05 OVMax= 3.22D-04

 Cycle   6  Pass 1  IDiag  1:
 E= -113.009306340607     Delta-E=       -0.000000379045 Rises=F Damp=F
 DIIS: error= 2.25D-05 at cycle   6 NSaved=   6.
 NSaved= 6 IEnMin= 6 EnMin= -113.009306340607     IErMin= 6 ErrMin= 2.25D-05
 ErrMax= 2.25D-05  0.00D+00 EMaxC= 1.00D-01 BMatC= 2.22D-08 BMatP= 2.09D-07
 IDIUse=1 WtCom= 1.00D+00 WtEn= 0.00D+00
 Coeff-Com: -0.127D-03 0.147D-02 0.999D-03 0.715D-02-0.218D+00 0.121D+01
 Coeff:     -0.127D-03 0.147D-02 0.999D-03 0.715D-02-0.218D+00 0.121D+01
 Gap=     0.780 Goal=   None    Shift=    0.000
 RMSDP=2.13D-06 MaxDP=4.87D-05 DE=-3.79D-07 OVMax= 7.14D-05

 Cycle   7  Pass 1  IDiag  1:
 E= -113.009306364072     Delta-E=       -0.000000023465 Rises=F Damp=F
 DIIS: error= 4.86D-06 at cycle   7 NSaved=   7.
 NSaved= 7 IEnMin= 7 EnMin= -113.009306364072     IErMin= 7 ErrMin= 4.86D-06
 ErrMax= 4.86D-06  0.00D+00 EMaxC= 1.00D-01 BMatC= 8.19D-10 BMatP= 2.22D-08
 IDIUse=1 WtCom= 1.00D+00 WtEn= 0.00D+00
 Coeff-Com:  0.580D-04-0.998D-03-0.101D-02 0.107D-01-0.146D-01-0.282D+00
 Coeff-Com:  0.129D+01
 Coeff:      0.580D-04-0.998D-03-0.101D-02 0.107D-01-0.146D-01-0.282D+00
 Coeff:      0.129D+01
 Gap=     0.780 Goal=   None    Shift=    0.000
 RMSDP=4.67D-07 MaxDP=9.07D-06 DE=-2.35D-08 OVMax= 1.92D-05

 Cycle   8  Pass 1  IDiag  1:
 E= -113.009306365435     Delta-E=       -0.000000001364 Rises=F Damp=F
 DIIS: error= 7.44D-07 at cycle   8 NSaved=   8.
 NSaved= 8 IEnMin= 8 EnMin= -113.009306365435     IErMin= 8 ErrMin= 7.44D-07
 ErrMax= 7.44D-07  0.00D+00 EMaxC= 1.00D-01 BMatC= 2.34D-11 BMatP= 8.19D-10
 IDIUse=1 WtCom= 1.00D+00 WtEn= 0.00D+00
 Coeff-Com:  0.862D-06-0.640D-06 0.576D-05-0.720D-03 0.624D-02-0.402D-01
 Coeff-Com: -0.247D-01 0.106D+01
 Coeff:      0.862D-06-0.640D-06 0.576D-05-0.720D-03 0.624D-02-0.402D-01
 Coeff:     -0.247D-01 0.106D+01
 Gap=     0.780 Goal=   None    Shift=    0.000
 RMSDP=7.68D-08 MaxDP=2.36D-06 DE=-1.36D-09 OVMax= 2.81D-06

 Cycle   9  Pass 1  IDiag  1:
 E= -113.009306365470     Delta-E=       -0.000000000035 Rises=F Damp=F
 DIIS: error= 1.34D-07 at cycle   9 NSaved=   9.
 NSaved= 9 IEnMin= 9 EnMin= -113.009306365470     IErMin= 9 ErrMin= 1.34D-07
 ErrMax= 1.34D-07  0.00D+00 EMaxC= 1.00D-01 BMatC= 7.16D-13 BMatP= 2.34D-11
 IDIUse=1 WtCom= 1.00D+00 WtEn= 0.00D+00
 Coeff-Com: -0.950D-06 0.177D-04 0.125D-04-0.184D-03 0.925D-03 0.775D-02
 Coeff-Com: -0.425D-01-0.247D-01 0.106D+01
 Coeff:     -0.950D-06 0.177D-04 0.125D-04-0.184D-03 0.925D-03 0.775D-02
 Coeff:     -0.425D-01-0.247D-01 0.106D+01
 Gap=     0.780 Goal=   None    Shift=    0.000
 RMSDP=1.18D-08 MaxDP=2.39D-07 DE=-3.47D-11 OVMax= 4.22D-07

 Cycle  10  Pass 1  IDiag  1:
 E= -113.009306365471     Delta-E=       -0.000000000001 Rises=F Damp=F
 DIIS: error= 1.57D-08 at cycle  10 NSaved=  10.
 NSaved=10 IEnMin=10 EnMin= -113.009306365471     IErMin=10 ErrMin= 1.57D-08
 ErrMax= 1.57D-08  0.00D+00 EMaxC= 1.00D-01 BMatC= 1.18D-14 BMatP= 7.16D-13
 IDIUse=1 WtCom= 1.00D+00 WtEn= 0.00D+00
 Coeff-Com:  0.129D-06-0.210D-05-0.180D-05 0.299D-04-0.232D-03-0.980D-03
 Coeff-Com:  0.809D-02-0.991D-02-0.194D+00 0.120D+01
 Coeff:      0.129D-06-0.210D-05-0.180D-05 0.299D-04-0.232D-03-0.980D-03
 Coeff:      0.809D-02-0.991D-02-0.194D+00 0.120D+01
 Gap=     0.780 Goal=   None    Shift=    0.000
 RMSDP=1.80D-09 MaxDP=5.37D-08 DE=-1.31D-12 OVMax= 6.13D-08

 SCF Done:  E(RHF) =  -113.009306365     A.U. after   10 cycles
            NFock= 10  Conv=0.18D-08     -V/T= 2.0021
 KE= 1.127693648771D+02 PE=-3.165208116203D+02 EE= 6.295954025254D+01
 Leave Link  502 at Thu Mar  7 13:33:43 2019, MaxMem=    33554432 cpu:         4.2
 (Enter /home/proyectos/fulerenos/M3C-v2.0/M3C-deps_CCC/g09-AM64L-G09RevC.01/l801.exe)
 Windowed orbitals will be sorted by symmetry type.
 ExpMin= 3.60D-02 ExpMax= 8.59D+03 ExpMxC= 1.30D+03 IAcc=3 IRadAn=         5 AccDes= 0.00D+00
 HarFok:  IExCor=  205 AccDes= 0.00D+00 IRadAn=         5 IDoV=-2 UseB2=F ITyADJ=14
 ICtDFT= 12500011 ScaDFX=  1.000000  1.000000  1.000000  1.000000
 Largest valence mixing into a core orbital is  1.13D-04
 Largest core mixing into a valence orbital is  3.48D-05
 Range of M.O.s used for correlation:     3    88
 NBasis=    88 NAE=     7 NBE=     7 NFC=     2 NFV=     0
 NROrb=     86 NOA=     5 NOB=     5 NVA=    81 NVB=    81

 **** Warning!!: The largest alpha MO coefficient is  0.12346278D+02

 Leave Link  801 at Thu Mar  7 13:33:43 2019, MaxMem=    33554432 cpu:         0.4
 (Enter /home/proyectos/fulerenos/M3C-v2.0/M3C-deps_CCC/g09-AM64L-G09RevC.01/l804.exe)
 Closed-shell transformation, MDV=    33554432 ITran=4 ISComp=2.
 Semi-Direct transformation.
 ModeAB=           2 MOrb=             5 LenV=      33206364
 LASXX=       394978 LTotXX=      394978 LenRXX=      394978
 LTotAB=      412813 MaxLAS=     2171500 LenRXY=     2171500
 NonZer=     2272120 LenScr=     4088832 LnRSAI=           0
 LnScr1=           0 LExtra=           0 Total=      6655310
 MaxDsk=          -1 SrtSym=           F ITran=            4
 DoSDTr:  NPSUse=  4
 JobTyp=0 Pass  1:  I=   1 to   5.
 (rs|ai) integrals will be sorted in core.
 Complete sort for first half transformation.
 First half transformation complete.
 Complete sort for second half transformation.
 Second half transformation complete.
 Spin components of T(2) and E(2):
     alpha-alpha T2 =       0.1342448045D-01 E2=     -0.4532569247D-01
     alpha-beta  T2 =       0.7818658209D-01 E2=     -0.2738151162D+00
     beta-beta   T2 =       0.1342448045D-01 E2=     -0.4532569247D-01
 ANorm=    0.1051206708D+01
 E2 =    -0.3644665011D+00 EUMP2 =    -0.11337377286657D+03
 Leave Link  804 at Thu Mar  7 13:33:45 2019, MaxMem=    33554432 cpu:         5.9
 (Enter /home/proyectos/fulerenos/M3C-v2.0/M3C-deps_CCC/g09-AM64L-G09RevC.01/l913.exe)
 CIDS:  MDV=    33554432.
 Frozen-core window:  NFC=   2 NFV=   0.
 IFCWin=0 IBDFC=1 NFBD=     0     0 NFCmp=     0     0 NFFFC=     0     0
 Using DD3R+UMP44R for 1st iteration, S=T.
 Using DD4RQ for 2nd and later iterations.
 Keep R2 and R3 ints in memory in symmetry-blocked form, NReq=9678782.
 FoFCou: FMM=F IPFlag=           0 FMFlag=           0 FMFlg1=           0
         NFxFlg=           0 DoJE=F BraDBF=F KetDBF=F FulRan=T
         wScrn=  0.000000 ICntrl=     600 IOpCl=  0 I1Cent=           0 NGrid=           0
         NMat0=    1 NMatS0=   3916 NMatT0=    0 NMatD0=    1 NMtDS0=    0 NMtDT0=    0
 Petite list used in FoFCou.
 CCSD(T)
 =======
 Iterations= 200 Convergence= 0.100D-06
 Iteration Nr.   1
 **********************
 DD1Dir will call FoFMem   1 times, MxPair=        30
 NAB=    15 NAA=     0 NBB=     0.
 MP4(R+Q)=  0.78411925D-02
 Maximum subspace dimension=  5
 Norm of the A-vectors is  3.6356959D-01 conv= 1.00D-05.
 RLE energy=       -0.3494566220
 E3=        0.71295690D-02        EUMP3=      -0.11336664330D+03
 E4(DQ)=   -0.32986672D-02        UMP4(DQ)=   -0.11336994196D+03
 E4(SDQ)=  -0.10515585D-01        UMP4(SDQ)=  -0.11337715888D+03
 VARIATIONAL ENERGIES WITH THE FIRST-ORDER WAVEFUNCTION:
 DE(Corr)= -0.34881315     E(Corr)=     -113.35811951    
 NORM(A)=   0.10488819D+01
 Iteration Nr.   2
 **********************
 DD1Dir will call FoFMem   1 times, MxPair=        30
 NAB=    15 NAA=     0 NBB=     0.
 Norm of the A-vectors is  1.3555258D-01 conv= 1.00D-05.
 RLE energy=       -0.3640316105
 DE(Corr)= -0.36431062     E(CORR)=     -113.37361699     Delta=-1.55D-02
 NORM(A)=   0.10545960D+01
 Iteration Nr.   3
 **********************
 DD1Dir will call FoFMem   1 times, MxPair=        30
 NAB=    15 NAA=     0 NBB=     0.
 Norm of the A-vectors is  4.0044344D-02 conv= 1.00D-05.
 RLE energy=       -0.3649394441
 DE(Corr)= -0.36352732     E(CORR)=     -113.37283369     Delta= 7.83D-04
 NORM(A)=   0.10565312D+01
 Iteration Nr.   4
 **********************
 DD1Dir will call FoFMem   1 times, MxPair=        30
 NAB=    15 NAA=     0 NBB=     0.
 Norm of the A-vectors is  1.4771757D-02 conv= 1.00D-05.
 RLE energy=       -0.3650761098
 DE(Corr)= -0.36496345     E(CORR)=     -113.37426982     Delta=-1.44D-03
 NORM(A)=   0.10570406D+01
 Iteration Nr.   5
 **********************
 DD1Dir will call FoFMem   1 times, MxPair=        30
 NAB=    15 NAA=     0 NBB=     0.
 Norm of the A-vectors is  3.8752702D-03 conv= 1.00D-05.
 RLE energy=       -0.3651650314
 DE(Corr)= -0.36513700     E(CORR)=     -113.37444336     Delta=-1.74D-04
 NORM(A)=   0.10571783D+01
 Iteration Nr.   6
 **********************
 DD1Dir will call FoFMem   1 times, MxPair=        30
 NAB=    15 NAA=     0 NBB=     0.
 Norm of the A-vectors is  8.4868160D-04 conv= 1.00D-05.
 RLE energy=       -0.3651490323
 DE(Corr)= -0.36515176     E(CORR)=     -113.37445813     Delta=-1.48D-05
 NORM(A)=   0.10571744D+01
 Iteration Nr.   7
 **********************
 DD1Dir will call FoFMem   1 times, MxPair=        30
 NAB=    15 NAA=     0 NBB=     0.
 Norm of the A-vectors is  2.6242551D-04 conv= 1.00D-05.
 RLE energy=       -0.3651531223
 DE(Corr)= -0.36515445     E(CORR)=     -113.37446082     Delta=-2.69D-06
 NORM(A)=   0.10571741D+01
 Iteration Nr.   8
 **********************
 DD1Dir will call FoFMem   1 times, MxPair=        30
 NAB=    15 NAA=     0 NBB=     0.
 Norm of the A-vectors is  7.6600372D-05 conv= 1.00D-05.
 RLE energy=       -0.3651533546
 DE(Corr)= -0.36515343     E(CORR)=     -113.37445979     Delta= 1.03D-06
 NORM(A)=   0.10571740D+01
 Iteration Nr.   9
 **********************
 DD1Dir will call FoFMem   1 times, MxPair=        30
 NAB=    15 NAA=     0 NBB=     0.
 Norm of the A-vectors is  3.2605065D-05 conv= 1.00D-05.
 RLE energy=       -0.3651537797
 DE(Corr)= -0.36515386     E(CORR)=     -113.37446023     Delta=-4.38D-07
 NORM(A)=   0.10571741D+01
 Iteration Nr.  10
 **********************
 DD1Dir will call FoFMem   1 times, MxPair=        30
 NAB=    15 NAA=     0 NBB=     0.
 Norm of the A-vectors is  7.9056785D-06 conv= 1.00D-05.
 RLE energy=       -0.3651539247
 DE(Corr)= -0.36515389     E(CORR)=     -113.37446026     Delta=-2.81D-08
 NORM(A)=   0.10571743D+01
 CI/CC converged in   10 iterations to DelEn=-2.81D-08 Conv= 1.00D-07 ErrA1= 7.91D-06 Conv= 1.00D-05
 Largest amplitude= 7.74D-02
 IPart=  2 IA=    6   12.04% done.
 IPart=  2 IA=   10   21.11% done.
 IPart=  4 IA=   15   31.76% done.
 IPart=  3 IA=   20   41.64% done.
 IPart=  1 IA=   25   50.74% done.
 IPart=  2 IA=   31   60.65% done.
 IPart=  3 IA=   38   70.80% done.
 IPart=  3 IA=   46   80.56% done.
 IPart=  4 IA=   57   90.74% done.
 Time for triples=       14.77 seconds.
 T4(CCSD)= -0.18750841D-01
 T5(CCSD)=  0.16711382D-02
 CCSD(T)= -0.11339153996D+03
 Discarding MO integrals.
 Leave Link  913 at Thu Mar  7 13:33:52 2019, MaxMem=    33554432 cpu:        28.7
 (Enter /home/proyectos/fulerenos/M3C-v2.0/M3C-deps_CCC/g09-AM64L-G09RevC.01/l601.exe)
 Copying SCF densities to generalized density rwf, IOpCl= 0 IROHF=0.

 **********************************************************************

            Population analysis using the SCF density.

 **********************************************************************

 Orbital symmetries:
       Occupied  (SG) (SG) (SG) (SG) (SG) (PI) (PI)
       Virtual   (PI) (PI) (SG) (SG) (PI) (PI) (SG) (SG) (PI) (PI)
                 (SG) (SG) (DLTA) (DLTA) (SG) (PI) (PI) (PI) (PI)
                 (SG) (SG) (SG) (SG) (DLTA) (DLTA) (PI) (PI) (PI)
                 (PI) (SG) (PI) (PI) (SG) (DLTA) (DLTA) (SG) (SG)
                 (PI) (PI) (SG) (PHI) (PHI) (PI) (PI) (DLTA) (DLTA)
                 (SG) (PI) (PI) (SG) (DLTA) (DLTA) (SG) (PI) (PI)
                 (SG) (PI) (PI) (PHI) (PHI) (PI) (PI) (DLTA) (DLTA)
                 (SG) (SG) (PI) (PI) (SG) (DLTA) (DLTA) (PI) (PI)
                 (SG) (DLTA) (DLTA) (PI) (PI) (SG) (SG) (SG)
 The electronic state is 1-SG.
 Alpha  occ. eigenvalues --  -21.03175 -11.76076  -1.87851  -1.19475  -1.08762
 Alpha  occ. eigenvalues --   -0.98140  -0.98140
 Alpha virt. eigenvalues --   -0.20150  -0.20150  -0.13518  -0.11722  -0.06043
 Alpha virt. eigenvalues --   -0.06043  -0.02063  -0.00559   0.09655   0.09655
 Alpha virt. eigenvalues --    0.10129   0.14286   0.17043   0.17043   0.24559
 Alpha virt. eigenvalues --    0.28268   0.28268   0.41485   0.41485   0.43390
 Alpha virt. eigenvalues --    0.60983   0.62828   0.74681   0.76485   0.76485
 Alpha virt. eigenvalues --    0.85130   0.85130   0.96423   0.96423   1.03658
 Alpha virt. eigenvalues --    1.18025   1.18025   1.30950   1.44966   1.44966
 Alpha virt. eigenvalues --    1.51207   1.88762   1.91435   1.91435   2.41038
 Alpha virt. eigenvalues --    2.68137   2.68137   2.75003   2.75003   2.76283
 Alpha virt. eigenvalues --    2.76283   2.85211   2.93305   2.93305   3.45553
 Alpha virt. eigenvalues --    3.50021   3.50021   3.87397   3.91001   3.91001
 Alpha virt. eigenvalues --    4.33604   4.58923   4.58923   5.09560   5.09560
 Alpha virt. eigenvalues --    5.37913   5.37913   5.60636   5.60636   5.61158
 Alpha virt. eigenvalues --    5.97070   6.53832   6.53832   6.63750   6.94312
 Alpha virt. eigenvalues --    6.94312   7.33563   7.33563   8.78589  14.56513
 Alpha virt. eigenvalues --   14.56513  15.13621  15.13621  15.41142  25.92072
 Alpha virt. eigenvalues --   52.00560
          Condensed to atoms (all electrons):
               1          2          3
     1  C    4.539763   0.304161   0.298596
     2  H    0.304161   0.266714   0.033527
     3  O    0.298596   0.033527   7.920955
 Mulliken charges:
               1
     1  C    0.857479
     2  H    0.395599
     3  O   -0.253078
 Sum of Mulliken charges =   1.00000
 Mulliken charges with hydrogens summed into heavy atoms:
               1
     1  C    1.253078
     3  O   -0.253078
 Electronic spatial extent (au):  <R**2>=             40.5274
 Charge=              1.0000 electrons
 Dipole moment (field-independent basis, Debye):
    X=             -0.0000    Y=              0.0000    Z=              4.2427  Tot=              4.2427
 Quadrupole moment (field-independent basis, Debye-Ang):
   XX=             -8.7971   YY=             -8.7971   ZZ=             -3.2750
   XY=              0.0000   XZ=             -0.0000   YZ=              0.0000
 Traceless Quadrupole moment (field-independent basis, Debye-Ang):
   XX=             -1.8407   YY=             -1.8407   ZZ=              3.6814
   XY=              0.0000   XZ=             -0.0000   YZ=              0.0000
 Octapole moment (field-independent basis, Debye-Ang**2):
  XXX=             -0.0000  YYY=              0.0000  ZZZ=              8.6469  XYY=             -0.0000
  XXY=              0.0000  XXZ=              0.1218  XZZ=             -0.0000  YZZ=              0.0000
  YYZ=              0.1218  XYZ=             -0.0000
 Hexadecapole moment (field-independent basis, Debye-Ang**3):
 XXXX=             -6.2324 YYYY=             -6.2324 ZZZZ=            -12.9579 XXXY=              0.0000
 XXXZ=              0.0000 YYYX=              0.0000 YYYZ=             -0.0000 ZZZX=             -0.0000
 ZZZY=              0.0000 XXYY=             -2.0775 XXZZ=             -5.7923 YYZZ=             -5.7923
 XXYZ=             -0.0000 YYXZ=              0.0000 ZZXY=              0.0000
 N-N= 2.778260012516D+01 E-N=-3.165208115682D+02  KE= 1.127693648771D+02
 Symmetry A1   KE= 1.046756797165D+02
 Symmetry A2   KE= 5.772585865466D-33
 Symmetry B1   KE= 4.046842580294D+00
 Symmetry B2   KE= 4.046842580294D+00
 Leave Link  601 at Thu Mar  7 13:33:52 2019, MaxMem=    33554432 cpu:         0.1
 (Enter /home/proyectos/fulerenos/M3C-v2.0/M3C-deps_CCC/g09-AM64L-G09RevC.01/l9999.exe)
 1\1\GINC-FOSFORO\SP\RCCSD(T)-FC\6-311++G(3df,2p)\C1H1O1(1+)\NAGUIRRE\0
 7-Mar-2019\0\\#p ccsd(t,maxcyc=200)/6-311++G(3df,2p)\\ccsd(t) iener\\1
 ,1\C,0,-0.234483,-0.5194,0.\H,0,-0.610497,-1.562336,0.\O,0,0.14055,0.5
 1906,0.\\Version=EM64L-G09RevE.01\State=1-SG\HF=-113.0093064\MP2=-113.
 3737729\MP3=-113.3666433\MP4D=-113.3777832\MP4DQ=-113.369942\MP4SDQ=-1
 13.3771589\CCSD=-113.3744603\CCSD(T)=-113.39154\RMSD=1.803e-09\PG=C*V 
 [C*(O1C1H1)]\\@


 ALL MY ATTEMPTS TO ADAPT THE THEORETICAL FOUNDATIONS OF PHYSICS
 TO THESE NEW NOTIONS FAILED COMPLETELY. IT WAS AS IF THE GROUND HAD
 BEEN PULLED OUT FROM UNDER ONE WITH NO FIRM FOUNDATION TO BE SEEN ANYWHERE,
 UPON WHICH ONE COULD HAVE BUILT.  -- A.EINSTEIN
 Job cpu time:       0 days  0 hours  0 minutes 43.0 seconds.
 File lengths (MBytes):  RWF=     60 Int=      0 D2E=      0 Chk=      2 Scr=      1
 Normal termination of Gaussian 09 at Thu Mar  7 13:33:52 2019.
