 Entering Gaussian System, Link 0=/home/proyectos/fulerenos/M3C-v2.0/M3C-deps_CCC/g09-AM64L-G09RevC.01/g09
 Initial command:
 /home/proyectos/fulerenos/M3C-v2.0/M3C-deps_CCC/g09-AM64L-G09RevC.01/l1.exe "/scratch/naguirre/gaussian/Gau-38705.inp" -scrdir="/scratch/naguirre/gaussian/"
 Entering Link 1 = /home/proyectos/fulerenos/M3C-v2.0/M3C-deps_CCC/g09-AM64L-G09RevC.01/l1.exe PID=     38708.
  
 Copyright (c) 1988,1990,1992,1993,1995,1998,2003,2009,2015,
            Gaussian, Inc.  All Rights Reserved.
  
 This is part of the Gaussian(R) 09 program.  It is based on
 the Gaussian(R) 03 system (copyright 2003, Gaussian, Inc.),
 the Gaussian(R) 98 system (copyright 1998, Gaussian, Inc.),
 the Gaussian(R) 94 system (copyright 1995, Gaussian, Inc.),
 the Gaussian 92(TM) system (copyright 1992, Gaussian, Inc.),
 the Gaussian 90(TM) system (copyright 1990, Gaussian, Inc.),
 the Gaussian 88(TM) system (copyright 1988, Gaussian, Inc.),
 the Gaussian 86(TM) system (copyright 1986, Carnegie Mellon
 University), and the Gaussian 82(TM) system (copyright 1983,
 Carnegie Mellon University). Gaussian is a federally registered
 trademark of Gaussian, Inc.
  
 This software contains proprietary and confidential information,
 including trade secrets, belonging to Gaussian, Inc.
  
 This software is provided under written license and may be
 used, copied, transmitted, or stored only in accord with that
 written license.
  
 The following legend is applicable only to US Government
 contracts under FAR:
  
                    RESTRICTED RIGHTS LEGEND
  
 Use, reproduction and disclosure by the US Government is
 subject to restrictions as set forth in subparagraphs (a)
 and (c) of the Commercial Computer Software - Restricted
 Rights clause in FAR 52.227-19.
  
 Gaussian, Inc.
 340 Quinnipiac St., Bldg. 40, Wallingford CT 06492
  
  
 ---------------------------------------------------------------
 Warning -- This program may not be used in any manner that
 competes with the business of Gaussian, Inc. or will provide
 assistance to any competitor of Gaussian, Inc.  The licensee
 of this program is prohibited from giving any competitor of
 Gaussian, Inc. access to this program.  By using this program,
 the user acknowledges that Gaussian, Inc. is engaged in the
 business of creating and licensing software in the field of
 computational chemistry and represents and warrants to the
 licensee that it is not a competitor of Gaussian, Inc. and that
 it will not use this program in any manner prohibited above.
 ---------------------------------------------------------------
  

 Cite this work as:
 Gaussian 09, Revision E.01,
 M. J. Frisch, G. W. Trucks, H. B. Schlegel, G. E. Scuseria, 
 M. A. Robb, J. R. Cheeseman, G. Scalmani, V. Barone, B. Mennucci, 
 G. A. Petersson, H. Nakatsuji, M. Caricato, X. Li, H. P. Hratchian, 
 A. F. Izmaylov, J. Bloino, G. Zheng, J. L. Sonnenberg, M. Hada, 
 M. Ehara, K. Toyota, R. Fukuda, J. Hasegawa, M. Ishida, T. Nakajima, 
 Y. Honda, O. Kitao, H. Nakai, T. Vreven, J. A. Montgomery, Jr., 
 J. E. Peralta, F. Ogliaro, M. Bearpark, J. J. Heyd, E. Brothers, 
 K. N. Kudin, V. N. Staroverov, T. Keith, R. Kobayashi, J. Normand, 
 K. Raghavachari, A. Rendell, J. C. Burant, S. S. Iyengar, J. Tomasi, 
 M. Cossi, N. Rega, J. M. Millam, M. Klene, J. E. Knox, J. B. Cross, 
 V. Bakken, C. Adamo, J. Jaramillo, R. Gomperts, R. E. Stratmann, 
 O. Yazyev, A. J. Austin, R. Cammi, C. Pomelli, J. W. Ochterski, 
 R. L. Martin, K. Morokuma, V. G. Zakrzewski, G. A. Voth, 
 P. Salvador, J. J. Dannenberg, S. Dapprich, A. D. Daniels, 
 O. Farkas, J. B. Foresman, J. V. Ortiz, J. Cioslowski, 
 and D. J. Fox, Gaussian, Inc., Wallingford CT, 2013.
 
 ******************************************
 Gaussian 09:  EM64L-G09RevE.01 30-Nov-2015
                 7-Mar-2019 
 ******************************************
 %NProcShared=4
 Will use up to    4 processors via shared memory.
 --------------------------------------
 #p ccsd(t,maxcyc=200)/6-311++G(3df,2p)
 --------------------------------------
 1/38=1/1;
 2/12=2,17=6,18=5,40=1/2;
 3/5=4,6=6,7=1216,11=9,16=1,25=1,30=1/1,2,3;
 4//1;
 5/5=2,38=5/2;
 8/6=4,9=120000,10=2/1,4;
 9/5=7,6=200,14=2/13;
 6/7=2,8=2,9=2,10=2/1;
 99/5=1,9=1/99;
 Leave Link    1 at Thu Mar  7 13:34:20 2019, MaxMem=           0 cpu:         0.1
 (Enter /home/proyectos/fulerenos/M3C-v2.0/M3C-deps_CCC/g09-AM64L-G09RevC.01/l101.exe)
 -------------
 ccsd(t) iener
 -------------
 Symbolic Z-matrix:
 Charge =  1 Multiplicity = 2
 O                     0.        0.        0. 
 
 NAtoms=      1 NQM=        1 NQMF=       0 NMMI=      0 NMMIF=      0
                NMic=       0 NMicF=      0.
                    Isotopes and Nuclear Properties:
 (Nuclear quadrupole moments (NQMom) in fm**2, nuclear magnetic moments (NMagM)
  in nuclear magnetons)

  Atom         1
 IAtWgt=          16
 AtmWgt=  15.9949146
 NucSpn=           0
 AtZEff=   0.0000000
 NQMom=    0.0000000
 NMagM=    0.0000000
 AtZNuc=   8.0000000
 Leave Link  101 at Thu Mar  7 13:34:20 2019, MaxMem=    33554432 cpu:         0.3
 (Enter /home/proyectos/fulerenos/M3C-v2.0/M3C-deps_CCC/g09-AM64L-G09RevC.01/l202.exe)
                          Input orientation:                          
 ---------------------------------------------------------------------
 Center     Atomic      Atomic             Coordinates (Angstroms)
 Number     Number       Type             X           Y           Z
 ---------------------------------------------------------------------
      1          8           0        0.000000    0.000000    0.000000
 ---------------------------------------------------------------------
 Stoichiometry    O(1+,2)
 Framework group  OH[O(O)]
 Deg. of freedom     0
 Full point group                 OH      NOp  48
 Largest Abelian subgroup         D2H     NOp   8
 Largest concise Abelian subgroup C1      NOp   1
                         Standard orientation:                         
 ---------------------------------------------------------------------
 Center     Atomic      Atomic             Coordinates (Angstroms)
 Number     Number       Type             X           Y           Z
 ---------------------------------------------------------------------
      1          8           0        0.000000    0.000000    0.000000
 ---------------------------------------------------------------------
 Leave Link  202 at Thu Mar  7 13:34:20 2019, MaxMem=    33554432 cpu:         0.1
 (Enter /home/proyectos/fulerenos/M3C-v2.0/M3C-deps_CCC/g09-AM64L-G09RevC.01/l301.exe)
 Standard basis: 6-311++G(3df,2p) (5D, 7F)
 Ernie: Thresh=  0.10000D-02 Tol=  0.10000D-05 Strict=F.
 There are    14 symmetry adapted cartesian basis functions of AG  symmetry.
 There are     3 symmetry adapted cartesian basis functions of B1G symmetry.
 There are     3 symmetry adapted cartesian basis functions of B2G symmetry.
 There are     3 symmetry adapted cartesian basis functions of B3G symmetry.
 There are     1 symmetry adapted cartesian basis functions of AU  symmetry.
 There are     7 symmetry adapted cartesian basis functions of B1U symmetry.
 There are     7 symmetry adapted cartesian basis functions of B2U symmetry.
 There are     7 symmetry adapted cartesian basis functions of B3U symmetry.
 There are    11 symmetry adapted basis functions of AG  symmetry.
 There are     3 symmetry adapted basis functions of B1G symmetry.
 There are     3 symmetry adapted basis functions of B2G symmetry.
 There are     3 symmetry adapted basis functions of B3G symmetry.
 There are     1 symmetry adapted basis functions of AU  symmetry.
 There are     6 symmetry adapted basis functions of B1U symmetry.
 There are     6 symmetry adapted basis functions of B2U symmetry.
 There are     6 symmetry adapted basis functions of B3U symmetry.
    39 basis functions,    58 primitive gaussians,    45 cartesian basis functions
     4 alpha electrons        3 beta electrons
       nuclear repulsion energy         0.0000000000 Hartrees.
 IExCor=    0 DFT=F Ex=HF Corr=None ExCW=0 ScaHFX=  1.000000
 ScaDFX=  1.000000  1.000000  1.000000  1.000000 ScalE2=  1.000000  1.000000
 IRadAn=      0 IRanWt=     -1 IRanGd=            0 ICorTp=0 IEmpDi=  4
 NAtoms=    1 NActive=    1 NUniq=    1 SFac= 1.00D+00 NAtFMM=   60 NAOKFM=F Big=F
 Integral buffers will be    131072 words long.
 Raffenetti 2 integral format.
 Two-electron integral symmetry is turned on.
 Leave Link  301 at Thu Mar  7 13:34:20 2019, MaxMem=    33554432 cpu:         0.4
 (Enter /home/proyectos/fulerenos/M3C-v2.0/M3C-deps_CCC/g09-AM64L-G09RevC.01/l302.exe)
 NPDir=0 NMtPBC=     1 NCelOv=     1 NCel=       1 NClECP=     1 NCelD=      1
         NCelK=      1 NCelE2=     1 NClLst=     1 CellRange=     0.0.
 One-electron integrals computed using PRISM.
 NBasis=    39 RedAO= T EigKep=  2.14D-01  NBF=    11     3     3     3     1     6     6     6
 NBsUse=    39 1.00D-06 EigRej= -1.00D+00 NBFU=    11     3     3     3     1     6     6     6
 Leave Link  302 at Thu Mar  7 13:34:21 2019, MaxMem=    33554432 cpu:         0.9
 (Enter /home/proyectos/fulerenos/M3C-v2.0/M3C-deps_CCC/g09-AM64L-G09RevC.01/l303.exe)
 DipDrv:  MaxL=1.
 Leave Link  303 at Thu Mar  7 13:34:21 2019, MaxMem=    33554432 cpu:         0.2
 (Enter /home/proyectos/fulerenos/M3C-v2.0/M3C-deps_CCC/g09-AM64L-G09RevC.01/l401.exe)
 ExpMin= 8.45D-02 ExpMax= 8.59D+03 ExpMxC= 1.30D+03 IAcc=2 IRadAn=         4 AccDes= 0.00D+00
 Harris functional with IExCor=  205 and IRadAn=       4 diagonalized for initial guess.
 HarFok:  IExCor=  205 AccDes= 0.00D+00 IRadAn=         4 IDoV= 1 UseB2=F ITyADJ=14
 ICtDFT=  3500011 ScaDFX=  1.000000  1.000000  1.000000  1.000000
 FoFCou: FMM=F IPFlag=           0 FMFlag=      100000 FMFlg1=           0
         NFxFlg=           0 DoJE=T BraDBF=F KetDBF=T FulRan=T
         wScrn=  0.000000 ICntrl=     500 IOpCl=  0 I1Cent=   200000004 NGrid=           0
         NMat0=    1 NMatS0=      1 NMatT0=    0 NMatD0=    1 NMtDS0=    0 NMtDT0=    0
 Petite list used in FoFCou.
 Harris En= -74.2834744860668    
 JPrj=0 DoOrth=F DoCkMO=F.
 Initial guess orbital symmetries:
 Alpha Orbitals:
       Occupied  (A1G) (A1G) (T1U) (T1U)
       Virtual   (T1U) (A1G) (T1U) (T1U) (T1U) (EG) (EG) (T2G)
                 (T2G) (T2G) (T1U) (T1U) (T1U) (A1G) (EG) (EG)
                 (T2G) (T2G) (T2G) (T1U) (T1U) (T1U) (?A) (?A)
                 (?A) (A2U) (?A) (?A) (?A) (EG) (EG) (T2G) (T2G)
                 (T2G) (A1G)
 Beta  Orbitals:
       Occupied  (A1G) (A1G) (T1U)
       Virtual   (T1U) (T1U) (A1G) (T1U) (T1U) (T1U) (EG) (EG)
                 (T2G) (T2G) (T2G) (T1U) (T1U) (T1U) (A1G) (EG)
                 (EG) (T2G) (T2G) (T2G) (T1U) (T1U) (T1U) (?A)
                 (?A) (?A) (A2U) (?A) (?A) (?A) (EG) (EG) (T2G)
                 (T2G) (T2G) (A1G)
 Initial guess <Sx>= 0.0000 <Sy>= 0.0000 <Sz>= 0.5000 <S**2>= 0.7500 S= 0.5000
 Leave Link  401 at Thu Mar  7 13:34:21 2019, MaxMem=    33554432 cpu:         0.8
 (Enter /home/proyectos/fulerenos/M3C-v2.0/M3C-deps_CCC/g09-AM64L-G09RevC.01/l502.exe)
 UHF open shell SCF:
 Using DIIS extrapolation, IDIIS=  1040.
 Integral symmetry usage will be decided dynamically.
 Keep R1 and R2 ints in memory in symmetry-blocked form, NReq=2282991.
 IVT=       25666 IEndB=       25666 NGot=    33554432 MDV=    33442038
 LenX=    33442038 LenY=    33439572
 Requested convergence on RMS density matrix=1.00D-08 within 128 cycles.
 Requested convergence on MAX density matrix=1.00D-06.
 Requested convergence on             energy=1.00D-06.
 No special actions if energy rises.
 FoFCou: FMM=F IPFlag=           0 FMFlag=           0 FMFlg1=           0
         NFxFlg=           0 DoJE=F BraDBF=F KetDBF=F FulRan=T
         wScrn=  0.000000 ICntrl=     600 IOpCl=  0 I1Cent=           0 NGrid=           0
         NMat0=    1 NMatS0=    780 NMatT0=    0 NMatD0=    1 NMtDS0=    0 NMtDT0=    0
 Petite list used in FoFCou.

 Cycle   1  Pass 1  IDiag  1:
 Density matrix breaks symmetry, PCut= 1.00D-04
 Density has only Abelian symmetry.
 E= -74.0559289641439    
 DIIS: error= 1.17D-01 at cycle   1 NSaved=   1.
 NSaved= 1 IEnMin= 1 EnMin= -74.0559289641439     IErMin= 1 ErrMin= 1.17D-01
 ErrMax= 1.17D-01  0.00D+00 EMaxC= 1.00D-01 BMatC= 7.73D-01 BMatP= 7.73D-01
 IDIUse=3 WtCom= 0.00D+00 WtEn= 1.00D+00
 Coeff-Com:  0.100D+01
 Coeff-En:   0.100D+01
 Coeff:      0.100D+01
 Gap=     0.590 Goal=   None    Shift=    0.000
 Gap=     0.590 Goal=   None    Shift=    0.000
 GapD=    0.590 DampG=2.000 DampE=0.250 DampFc=0.5000 IDamp=-1.
 Damping current iteration by 5.00D-01
 RMSDP=6.78D-03 MaxDP=1.61D-01              OVMax= 1.54D-01

 Cycle   2  Pass 1  IDiag  1:
 Density matrix breaks symmetry, PCut= 1.00D-07
 Density has only Abelian symmetry.
 E= -74.1203514187183     Delta-E=       -0.064422454574 Rises=F Damp=T
 DIIS: error= 5.61D-02 at cycle   2 NSaved=   2.
 NSaved= 2 IEnMin= 2 EnMin= -74.1203514187183     IErMin= 2 ErrMin= 5.61D-02
 ErrMax= 5.61D-02  0.00D+00 EMaxC= 1.00D-01 BMatC= 1.71D-01 BMatP= 7.73D-01
 IDIUse=3 WtCom= 4.39D-01 WtEn= 5.61D-01
 Coeff-Com: -0.810D+00 0.181D+01
 Coeff-En:   0.000D+00 0.100D+01
 Coeff:     -0.355D+00 0.136D+01
 Gap=     0.641 Goal=   None    Shift=    0.000
 Gap=     0.637 Goal=   None    Shift=    0.000
 RMSDP=3.02D-03 MaxDP=6.73D-02 DE=-6.44D-02 OVMax= 1.22D-02

 Cycle   3  Pass 1  IDiag  1:
 Density matrix breaks symmetry, PCut= 1.00D-07
 Density has only Abelian symmetry.
 E= -74.1830315141327     Delta-E=       -0.062680095414 Rises=F Damp=F
 DIIS: error= 8.61D-03 at cycle   3 NSaved=   3.
 NSaved= 3 IEnMin= 3 EnMin= -74.1830315141327     IErMin= 3 ErrMin= 8.61D-03
 ErrMax= 8.61D-03  0.00D+00 EMaxC= 1.00D-01 BMatC= 3.30D-03 BMatP= 1.71D-01
 IDIUse=3 WtCom= 9.14D-01 WtEn= 8.61D-02
 Coeff-Com:  0.517D+00-0.110D+01 0.158D+01
 Coeff-En:   0.000D+00 0.000D+00 0.100D+01
 Coeff:      0.473D+00-0.100D+01 0.153D+01
 Gap=     0.646 Goal=   None    Shift=    0.000
 Gap=     0.637 Goal=   None    Shift=    0.000
 RMSDP=6.01D-04 MaxDP=1.65D-02 DE=-6.27D-02 OVMax= 1.02D-02

 Cycle   4  Pass 1  IDiag  1:
 Density matrix breaks symmetry, PCut= 1.00D-07
 Density has only Abelian symmetry.
 E= -74.1836086528647     Delta-E=       -0.000577138732 Rises=F Damp=F
 DIIS: error= 1.17D-03 at cycle   4 NSaved=   4.
 NSaved= 4 IEnMin= 4 EnMin= -74.1836086528647     IErMin= 4 ErrMin= 1.17D-03
 ErrMax= 1.17D-03  0.00D+00 EMaxC= 1.00D-01 BMatC= 3.60D-05 BMatP= 3.30D-03
 IDIUse=3 WtCom= 9.88D-01 WtEn= 1.17D-02
 Coeff-Com: -0.923D-01 0.192D+00-0.275D+00 0.118D+01
 Coeff-En:   0.000D+00 0.000D+00 0.000D+00 0.100D+01
 Coeff:     -0.912D-01 0.190D+00-0.272D+00 0.117D+01
 Gap=     0.646 Goal=   None    Shift=    0.000
 Gap=     0.635 Goal=   None    Shift=    0.000
 RMSDP=6.29D-05 MaxDP=1.56D-03 DE=-5.77D-04 OVMax= 1.65D-03

 Cycle   5  Pass 1  IDiag  1:
 Density matrix breaks symmetry, PCut= 1.00D-07
 Density has only Abelian symmetry.
 E= -74.1836204333489     Delta-E=       -0.000011780484 Rises=F Damp=F
 DIIS: error= 3.66D-04 at cycle   5 NSaved=   5.
 NSaved= 5 IEnMin= 5 EnMin= -74.1836204333489     IErMin= 5 ErrMin= 3.66D-04
 ErrMax= 3.66D-04  0.00D+00 EMaxC= 1.00D-01 BMatC= 3.75D-06 BMatP= 3.60D-05
 IDIUse=3 WtCom= 9.96D-01 WtEn= 3.66D-03
 Coeff-Com:  0.180D-01-0.367D-01 0.381D-01-0.456D+00 0.144D+01
 Coeff-En:   0.000D+00 0.000D+00 0.000D+00 0.000D+00 0.100D+01
 Coeff:      0.179D-01-0.366D-01 0.379D-01-0.454D+00 0.144D+01
 Gap=     0.646 Goal=   None    Shift=    0.000
 Gap=     0.635 Goal=   None    Shift=    0.000
 RMSDP=3.05D-05 MaxDP=8.64D-04 DE=-1.18D-05 OVMax= 7.26D-04

 Cycle   6  Pass 1  IDiag  1:
 Density matrix breaks symmetry, PCut= 1.00D-07
 Density has only Abelian symmetry.
 E= -74.1836219654071     Delta-E=       -0.000001532058 Rises=F Damp=F
 DIIS: error= 6.15D-05 at cycle   6 NSaved=   6.
 NSaved= 6 IEnMin= 6 EnMin= -74.1836219654071     IErMin= 6 ErrMin= 6.15D-05
 ErrMax= 6.15D-05  0.00D+00 EMaxC= 1.00D-01 BMatC= 1.10D-07 BMatP= 3.75D-06
 IDIUse=1 WtCom= 1.00D+00 WtEn= 0.00D+00
 Coeff-Com: -0.395D-02 0.800D-02-0.304D-02 0.127D+00-0.552D+00 0.142D+01
 Coeff:     -0.395D-02 0.800D-02-0.304D-02 0.127D+00-0.552D+00 0.142D+01
 Gap=     0.646 Goal=   None    Shift=    0.000
 Gap=     0.635 Goal=   None    Shift=    0.000
 RMSDP=4.61D-06 MaxDP=9.41D-05 DE=-1.53D-06 OVMax= 1.48D-04

 Cycle   7  Pass 1  IDiag  1:
 Density matrix breaks symmetry, PCut= 1.00D-07
 Density has only Abelian symmetry.
 E= -74.1836220051148     Delta-E=       -0.000000039708 Rises=F Damp=F
 DIIS: error= 8.15D-06 at cycle   7 NSaved=   7.
 NSaved= 7 IEnMin= 7 EnMin= -74.1836220051148     IErMin= 7 ErrMin= 8.15D-06
 ErrMax= 8.15D-06  0.00D+00 EMaxC= 1.00D-01 BMatC= 1.86D-09 BMatP= 1.10D-07
 IDIUse=1 WtCom= 1.00D+00 WtEn= 0.00D+00
 Coeff-Com:  0.526D-03-0.103D-02-0.160D-02-0.301D-01 0.160D+00-0.505D+00
 Coeff-Com:  0.138D+01
 Coeff:      0.526D-03-0.103D-02-0.160D-02-0.301D-01 0.160D+00-0.505D+00
 Coeff:      0.138D+01
 Gap=     0.646 Goal=   None    Shift=    0.000
 Gap=     0.635 Goal=   None    Shift=    0.000
 RMSDP=5.52D-07 MaxDP=9.28D-06 DE=-3.97D-08 OVMax= 1.89D-05

 Cycle   8  Pass 1  IDiag  1:
 Density matrix breaks symmetry, PCut= 1.00D-07
 Density has only Abelian symmetry.
 E= -74.1836220057343     Delta-E=       -0.000000000620 Rises=F Damp=F
 DIIS: error= 9.94D-07 at cycle   8 NSaved=   8.
 NSaved= 8 IEnMin= 8 EnMin= -74.1836220057343     IErMin= 8 ErrMin= 9.94D-07
 ErrMax= 9.94D-07  0.00D+00 EMaxC= 1.00D-01 BMatC= 2.68D-11 BMatP= 1.86D-09
 IDIUse=1 WtCom= 1.00D+00 WtEn= 0.00D+00
 Coeff-Com:  0.708D-05-0.205D-04 0.545D-03 0.293D-02-0.204D-01 0.744D-01
 Coeff-Com: -0.291D+00 0.123D+01
 Coeff:      0.708D-05-0.205D-04 0.545D-03 0.293D-02-0.204D-01 0.744D-01
 Coeff:     -0.291D+00 0.123D+01
 Gap=     0.646 Goal=   None    Shift=    0.000
 Gap=     0.635 Goal=   None    Shift=    0.000
 RMSDP=5.20D-08 MaxDP=1.01D-06 DE=-6.20D-10 OVMax= 1.65D-06

 Cycle   9  Pass 1  IDiag  1:
 Density matrix breaks symmetry, PCut= 1.00D-07
 Density has only Abelian symmetry.
 E= -74.1836220057419     Delta-E=       -0.000000000008 Rises=F Damp=F
 DIIS: error= 5.81D-08 at cycle   9 NSaved=   9.
 NSaved= 9 IEnMin= 9 EnMin= -74.1836220057419     IErMin= 9 ErrMin= 5.81D-08
 ErrMax= 5.81D-08  0.00D+00 EMaxC= 1.00D-01 BMatC= 1.55D-13 BMatP= 2.68D-11
 IDIUse=1 WtCom= 1.00D+00 WtEn= 0.00D+00
 Coeff-Com:  0.154D-05-0.254D-05-0.699D-04-0.421D-03 0.283D-02-0.999D-02
 Coeff-Com:  0.411D-01-0.230D+00 0.120D+01
 Coeff:      0.154D-05-0.254D-05-0.699D-04-0.421D-03 0.283D-02-0.999D-02
 Coeff:      0.411D-01-0.230D+00 0.120D+01
 Gap=     0.646 Goal=   None    Shift=    0.000
 Gap=     0.635 Goal=   None    Shift=    0.000
 RMSDP=5.80D-09 MaxDP=1.11D-07 DE=-7.56D-12 OVMax= 1.05D-07

 Density matrix breaks symmetry, PCut= 1.00D-07
 Density has only Abelian symmetry.
 SCF Done:  E(UHF) =  -74.1836220057     A.U. after    9 cycles
            NFock=  9  Conv=0.58D-08     -V/T= 2.0000
 <Sx>= 0.0000 <Sy>= 0.0000 <Sz>= 0.5000 <S**2>= 0.7538 S= 0.5019
 <L.S>= 0.000000000000E+00
 KE= 7.418179384500D+01 PE=-1.724464747126D+02 EE= 2.408105886181D+01
 Annihilation of the first spin contaminant:
 S**2 before annihilation     0.7538,   after     0.7500
 Leave Link  502 at Thu Mar  7 13:34:21 2019, MaxMem=    33554432 cpu:         1.5
 (Enter /home/proyectos/fulerenos/M3C-v2.0/M3C-deps_CCC/g09-AM64L-G09RevC.01/l801.exe)
 Windowed orbitals will be sorted by symmetry type.
 ExpMin= 8.45D-02 ExpMax= 8.59D+03 ExpMxC= 1.30D+03 IAcc=3 IRadAn=         5 AccDes= 0.00D+00
 HarFok:  IExCor=  205 AccDes= 0.00D+00 IRadAn=         5 IDoV=-2 UseB2=F ITyADJ=14
 ICtDFT= 12500011 ScaDFX=  1.000000  1.000000  1.000000  1.000000
 Largest valence mixing into a core orbital is  4.16D-05
 Largest core mixing into a valence orbital is  1.64D-05
 Largest valence mixing into a core orbital is  7.73D-05
 Largest core mixing into a valence orbital is  3.88D-05
 Range of M.O.s used for correlation:     2    39
 NBasis=    39 NAE=     4 NBE=     3 NFC=     1 NFV=     0
 NROrb=     38 NOA=     3 NOB=     2 NVA=    35 NVB=    36
 Leave Link  801 at Thu Mar  7 13:34:22 2019, MaxMem=    33554432 cpu:         0.3
 (Enter /home/proyectos/fulerenos/M3C-v2.0/M3C-deps_CCC/g09-AM64L-G09RevC.01/l804.exe)
 Open-shell transformation, MDV=    33554432 ITran=4 ISComp=2.
 Semi-Direct transformation.
 ModeAB=           2 MOrb=             3 LenV=      33313177
 LASXX=         9788 LTotXX=        9788 LenRXX=        9788
 LTotAB=       10968 MaxLAS=      117990 LenRXY=      117990
 NonZer=      130986 LenScr=      785920 LnRSAI=           0
 LnScr1=           0 LExtra=           0 Total=       913698
 MaxDsk=          -1 SrtSym=           F ITran=            4
 DoSDTr:  NPSUse=  4
 JobTyp=1 Pass  1:  I=   1 to   3.
 (rs|ai) integrals will be sorted in core.
 Complete sort for first half transformation.
 First half transformation complete.
 Complete sort for second half transformation.
 Second half transformation complete.
 ModeAB=           2 MOrb=             2 LenV=      33313177
 LASXX=         6677 LTotXX=        6677 LenRXX=       78660
 LTotAB=        6321 MaxLAS=       78660 LenRXY=        6321
 NonZer=       87324 LenScr=      785920 LnRSAI=           0
 LnScr1=           0 LExtra=           0 Total=       870901
 MaxDsk=          -1 SrtSym=           F ITran=            4
 DoSDTr:  NPSUse=  4
 JobTyp=2 Pass  1:  I=   1 to   2.
 (rs|ai) integrals will be sorted in core.
 Complete sort for first half transformation.
 First half transformation complete.
 Complete sort for second half transformation.
 Second half transformation complete.
 Spin components of T(2) and E(2):
     alpha-alpha T2 =       0.2307550241D-02 E2=     -0.1376554172D-01
     alpha-beta  T2 =       0.1951797191D-01 E2=     -0.9554492641D-01
     beta-beta   T2 =       0.8167502818D-03 E2=     -0.4034218551D-02
 ANorm=    0.1011257768D+01
 E2 =    -0.1133446867D+00 EUMP2 =    -0.74296966692421D+02
 (S**2,0)=  0.75380D+00           (S**2,1)=  0.74971D+00
 E(PUHF)=      -0.74186619752D+02        E(PMP2)=      -0.74298351246D+02
 Leave Link  804 at Thu Mar  7 13:34:22 2019, MaxMem=    33554432 cpu:         1.3
 (Enter /home/proyectos/fulerenos/M3C-v2.0/M3C-deps_CCC/g09-AM64L-G09RevC.01/l913.exe)
 CIDS:  MDV=    33554432.
 Frozen-core window:  NFC=   1 NFV=   0.
 IFCWin=0 IBDFC=1 NFBD=     0     0 NFCmp=     0     0 NFFFC=     0     0
 Using original routines for 1st iteration, S=T.
 Using DD4UQ or CC4UQ for 2nd and later iterations.
 Keep R2 and R3 ints in memory in symmetry-blocked form, NReq=2251855.
 FoFCou: FMM=F IPFlag=           0 FMFlag=           0 FMFlg1=           0
         NFxFlg=           0 DoJE=F BraDBF=F KetDBF=F FulRan=T
         wScrn=  0.000000 ICntrl=     600 IOpCl=  0 I1Cent=           0 NGrid=           0
         NMat0=    1 NMatS0=    780 NMatT0=    0 NMatD0=    1 NMtDS0=    0 NMtDT0=    0
 Petite list used in FoFCou.
 CCSD(T)
 =======
 Iterations= 200 Convergence= 0.100D-06
 Iteration Nr.   1
 **********************
 DD1Dir will call FoFMem   1 times, MxPair=        16
 NAB=     6 NAA=     3 NBB=     1.
 E(PMP3)=      -0.74316167938D+02
 MP4(R+Q)=  0.15208744D-02
 Maximum subspace dimension=  5
 Norm of the A-vectors is  1.0212154D-01 conv= 1.00D-05.
 RLE energy=       -0.1334894647
 E3=       -0.18627076D-01        EUMP3=      -0.74315593769D+02
 E4(DQ)=   -0.41072559D-02        UMP4(DQ)=   -0.74319701025D+02
 E4(SDQ)=  -0.44023216D-02        UMP4(SDQ)=  -0.74319996090D+02
 VARIATIONAL ENERGIES WITH THE FIRST-ORDER WAVEFUNCTION:
 DE(Corr)= -0.13044943     E(Corr)=     -74.314071440    
 NORM(A)=   0.10181290D+01
 Iteration Nr.   2
 **********************
 DD1Dir will call FoFMem   1 times, MxPair=        16
 NAB=     6 NAA=     3 NBB=     1.
 Norm of the A-vectors is  4.4702459D-02 conv= 1.00D-05.
 RLE energy=       -0.1394540217
 DE(Corr)= -0.13623252     E(CORR)=     -74.319854527     Delta=-5.78D-03
 NORM(A)=   0.10241647D+01
 Iteration Nr.   3
 **********************
 DD1Dir will call FoFMem   1 times, MxPair=        16
 NAB=     6 NAA=     3 NBB=     1.
 Norm of the A-vectors is  2.5499590D-02 conv= 1.00D-05.
 RLE energy=       -0.1433691585
 DE(Corr)= -0.13959250     E(CORR)=     -74.323214501     Delta=-3.36D-03
 NORM(A)=   0.10391737D+01
 Iteration Nr.   4
 **********************
 DD1Dir will call FoFMem   1 times, MxPair=        16
 NAB=     6 NAA=     3 NBB=     1.
 Norm of the A-vectors is  2.9026298D-02 conv= 1.00D-05.
 RLE energy=       -0.1494051102
 DE(Corr)= -0.14318349     E(CORR)=     -74.326805491     Delta=-3.59D-03
 NORM(A)=   0.11086401D+01
 Iteration Nr.   5
 **********************
 DD1Dir will call FoFMem   1 times, MxPair=        16
 NAB=     6 NAA=     3 NBB=     1.
 Norm of the A-vectors is  1.4073805D-02 conv= 1.00D-05.
 RLE energy=       -0.1500607933
 DE(Corr)= -0.14948936     E(CORR)=     -74.333111365     Delta=-6.31D-03
 NORM(A)=   0.11187279D+01
 Iteration Nr.   6
 **********************
 DD1Dir will call FoFMem   1 times, MxPair=        16
 NAB=     6 NAA=     3 NBB=     1.
 Norm of the A-vectors is  3.2000049D-03 conv= 1.00D-05.
 RLE energy=       -0.1502855681
 DE(Corr)= -0.15008133     E(CORR)=     -74.333703339     Delta=-5.92D-04
 NORM(A)=   0.11215307D+01
 Iteration Nr.   7
 **********************
 DD1Dir will call FoFMem   1 times, MxPair=        16
 NAB=     6 NAA=     3 NBB=     1.
 Norm of the A-vectors is  8.7266398D-04 conv= 1.00D-05.
 RLE energy=       -0.1502593387
 DE(Corr)= -0.15027437     E(CORR)=     -74.333896380     Delta=-1.93D-04
 NORM(A)=   0.11212575D+01
 Iteration Nr.   8
 **********************
 DD1Dir will call FoFMem   1 times, MxPair=        16
 NAB=     6 NAA=     3 NBB=     1.
 Norm of the A-vectors is  3.3314737D-04 conv= 1.00D-05.
 RLE energy=       -0.1502672238
 DE(Corr)= -0.15025577     E(CORR)=     -74.333877771     Delta= 1.86D-05
 NORM(A)=   0.11214323D+01
 Iteration Nr.   9
 **********************
 DD1Dir will call FoFMem   1 times, MxPair=        16
 NAB=     6 NAA=     3 NBB=     1.
 Norm of the A-vectors is  1.0725653D-04 conv= 1.00D-05.
 RLE energy=       -0.1502623617
 DE(Corr)= -0.15026594     E(CORR)=     -74.333887941     Delta=-1.02D-05
 NORM(A)=   0.11214049D+01
 Iteration Nr.  10
 **********************
 DD1Dir will call FoFMem   1 times, MxPair=        16
 NAB=     6 NAA=     3 NBB=     1.
 Norm of the A-vectors is  2.2449875D-05 conv= 1.00D-05.
 RLE energy=       -0.1502605561
 DE(Corr)= -0.15026228     E(CORR)=     -74.333884289     Delta= 3.65D-06
 NORM(A)=   0.11213853D+01
 Iteration Nr.  11
 **********************
 DD1Dir will call FoFMem   1 times, MxPair=        16
 NAB=     6 NAA=     3 NBB=     1.
 Norm of the A-vectors is  5.5063098D-06 conv= 1.00D-05.
 RLE energy=       -0.1502602338
 DE(Corr)= -0.15026065     E(CORR)=     -74.333882657     Delta= 1.63D-06
 NORM(A)=   0.11213794D+01
 Iteration Nr.  12
 **********************
 DD1Dir will call FoFMem   1 times, MxPair=        16
 NAB=     6 NAA=     3 NBB=     1.
 Norm of the A-vectors is  1.5051444D-06 conv= 1.00D-05.
 RLE energy=       -0.1502602018
 DE(Corr)= -0.15026027     E(CORR)=     -74.333882274     Delta= 3.83D-07
 NORM(A)=   0.11213781D+01
 Iteration Nr.  13
 **********************
 DD1Dir will call FoFMem   1 times, MxPair=        16
 NAB=     6 NAA=     3 NBB=     1.
 Norm of the A-vectors is  6.1898540D-07 conv= 1.00D-05.
 RLE energy=       -0.1502601894
 DE(Corr)= -0.15026021     E(CORR)=     -74.333882219     Delta= 5.49D-08
 NORM(A)=   0.11213776D+01
 CI/CC converged in   13 iterations to DelEn= 5.49D-08 Conv= 1.00D-07 ErrA1= 6.19D-07 Conv= 1.00D-05
 Dominant configurations:
 ***********************
 Spin Case        I    J    A    B          Value
   ABAB           4    3    5    4      -0.458009D+00
 Largest amplitude= 4.58D-01
 Time for triples=        5.25 seconds.
 T4(CCSD)= -0.11073001D-01
 T5(CCSD)=  0.15937873D-04
 CCSD(T)= -0.74344939282D+02

 S**2, projected HF & approx projected MPn energies after annihilation of
 unwanted spin states (see manual for definitions):

 spins       (S**2,0) (S**2,1)    PUHF        PMP2        PMP3        PMP4
 annihilated
 s+1         0.75000  0.75000  -74.186620  -74.298351  -74.316168
 s+1,s+2     0.75000  0.75000  -74.186619  -74.298350  -74.316167

 Discarding MO integrals.
 Leave Link  913 at Thu Mar  7 13:34:24 2019, MaxMem=    33554432 cpu:        10.3
 (Enter /home/proyectos/fulerenos/M3C-v2.0/M3C-deps_CCC/g09-AM64L-G09RevC.01/l601.exe)
 Copying SCF densities to generalized density rwf, IOpCl= 1 IROHF=0.

 **********************************************************************

            Population analysis using the SCF density.

 **********************************************************************

 Orbital symmetries:
 Alpha Orbitals:
       Occupied  (A1G) (?A) (?B) (?B)
       Virtual   (?B) (?A) (?B) (?B) (?B) (T2G) (?A) (T2G) (T2G)
                 (?A) (?B) (?B) (?B) (?A) (?A) (T2G) (T2G) (T2G)
                 (?A) (?B) (?B) (?B) (?B) (?B) (A2U) (?B) (?B)
                 (?B) (?B) (EG) (T2G) (T2G) (T2G) (EG) (A1G)
 Beta  Orbitals:
       Occupied  (A1G) (?A) (?B)
       Virtual   (?B) (?B) (?A) (?B) (?B) (?B) (?A) (?C) (?C) (?C)
                 (?A) (?B) (?B) (?B) (?A) (?A) (?C) (?C) (?C) (?A)
                 (?B) (?B) (?B) (?B) (A2U) (?B) (?B) (?B) (?B)
                 (?B) (EG) (T2G) (T2G) (T2G) (EG) (A1G)
 Unable to determine electronic state:  an orbital has unidentified symmetry.
 Alpha  occ. eigenvalues --  -21.41681  -1.91498  -1.31124  -1.20121
 Alpha virt. eigenvalues --   -0.55494  -0.11038  -0.04504  -0.03286  -0.02966
 Alpha virt. eigenvalues --    0.49950   0.49968   0.52047   0.52558   0.53080
 Alpha virt. eigenvalues --    0.70734   0.75303   0.76894   0.94397   3.01350
 Alpha virt. eigenvalues --    3.01632   3.05494   3.08358   3.09226   4.69173
 Alpha virt. eigenvalues --    4.72170   4.72978   4.74724   4.76010   4.78401
 Alpha virt. eigenvalues --    4.78891   4.82206   4.83147   4.84740  14.08840
 Alpha virt. eigenvalues --   14.08842  14.16206  14.16802  14.19071  50.58740
  Beta  occ. eigenvalues --  -21.37041  -1.73310  -1.15480
  Beta virt. eigenvalues --   -0.52027  -0.43034  -0.10287  -0.03063  -0.02579
  Beta virt. eigenvalues --   -0.00925   0.52110   0.52629   0.53312   0.55326
  Beta virt. eigenvalues --    0.55425   0.76577   0.78287   0.83508   0.98420
  Beta virt. eigenvalues --    3.09205   3.09726   3.12842   3.16775   3.17271
  Beta virt. eigenvalues --    4.74524   4.77331   4.77807   4.80405   4.82641
  Beta virt. eigenvalues --    4.82984   4.83196   4.86209   4.88553   4.88788
  Beta virt. eigenvalues --   14.14938  14.17414  14.17758  14.25523  14.25535
  Beta virt. eigenvalues --   50.61364
          Condensed to atoms (all electrons):
               1
     1  O    7.000000
          Atomic-Atomic Spin Densities.
               1
     1  O    1.000000
 Mulliken charges and spin densities:
               1          2
     1  O    1.000000   1.000000
 Sum of Mulliken charges =   1.00000   1.00000
 Mulliken charges and spin densities with hydrogens summed into heavy atoms:
               1          2
     1  O    1.000000   1.000000
 Electronic spatial extent (au):  <R**2>=              7.6271
 Charge=              1.0000 electrons
 Dipole moment (field-independent basis, Debye):
    X=              0.0000    Y=              0.0000    Z=              0.0000  Tot=              0.0000
 Quadrupole moment (field-independent basis, Debye-Ang):
   XX=             -2.5797   YY=             -3.3832   ZZ=             -4.2958
   XY=              0.0000   XZ=             -0.0000   YZ=              0.0000
 Traceless Quadrupole moment (field-independent basis, Debye-Ang):
   XX=              0.8398   YY=              0.0364   ZZ=             -0.8762
   XY=              0.0000   XZ=             -0.0000   YZ=              0.0000
 Octapole moment (field-independent basis, Debye-Ang**2):
  XXX=              0.0000  YYY=              0.0000  ZZZ=              0.0000  XYY=              0.0000
  XXY=              0.0000  XXZ=              0.0000  XZZ=              0.0000  YZZ=              0.0000
  YYZ=              0.0000  XYZ=              0.0000
 Hexadecapole moment (field-independent basis, Debye-Ang**3):
 XXXX=             -1.1107 YYYY=             -1.7539 ZZZZ=             -2.6184 XXXY=              0.0000
 XXXZ=             -0.0000 YYYX=              0.0000 YYYZ=              0.0000 ZZZX=             -0.0000
 ZZZY=              0.0000 XXYY=             -0.4771 XXZZ=             -0.6235 YYZZ=             -0.7284
 XXYZ=              0.0000 YYXZ=             -0.0000 ZZXY=              0.0000
 N-N= 0.000000000000D+00 E-N=-1.724464747734D+02  KE= 7.418179384500D+01
 Symmetry AG   KE= 6.529661779456D+01
 Symmetry B1G  KE= 2.830942585990D-35
 Symmetry B2G  KE= 1.313193113976D-36
 Symmetry B3G  KE= 2.852273197429D-35
 Symmetry AU   KE= 4.004516199726D-36
 Symmetry B1U  KE= 5.835406193809D+00
 Symmetry B2U  KE= 3.049769856633D+00
 Symmetry B3U  KE= 1.666777765390D-32
 Leave Link  601 at Thu Mar  7 13:34:25 2019, MaxMem=    33554432 cpu:         0.2
 (Enter /home/proyectos/fulerenos/M3C-v2.0/M3C-deps_CCC/g09-AM64L-G09RevC.01/l9999.exe)
 1\1\GINC-FOSFORO\SP\UCCSD(T)-FC\6-311++G(3df,2p)\O1(1+,2)\NAGUIRRE\07-
 Mar-2019\0\\#p ccsd(t,maxcyc=200)/6-311++G(3df,2p)\\ccsd(t) iener\\1,2
 \O,0,0.,0.,0.\\Version=EM64L-G09RevE.01\HF=-74.183622\MP2=-74.2969667\
 MP3=-74.3155938\MP4D=-74.3212219\MP4DQ=-74.319701\PUHF=-74.1866198\PMP
 2-0=-74.2983512\PMP3-0=-74.3161679\MP4SDQ=-74.3199961\CCSD=-74.3338822
 \CCSD(T)=-74.3449393\S2=0.753796\S2-1=0.749709\S2A=0.750003\RMSD=5.803
 e-09\PG=OH [O(O1)]\\@


 KNOWLEDGE IS OF TWO KINDS:  WE KNOW A SUBJECT OURSELVES OR WE KNOW 
 WHERE WE CAN FIND INFORMATION UPON IT.

                                    -- SAMUEL JOHNSON
 Job cpu time:       0 days  0 hours  0 minutes 16.9 seconds.
 File lengths (MBytes):  RWF=     14 Int=      0 D2E=      0 Chk=      1 Scr=      1
 Normal termination of Gaussian 09 at Thu Mar  7 13:34:25 2019.
