1
Energy =   -36.3045032009     
  C            0.00000000          0.00000000          0.00000000

FREQUENCIES 0

SYMMETRY SO3
ELECTRONIC_STATE ??
