3
Energy =   -474.143626546     
S  0.957481660 -0.026514894 -0.000000000
C  1.773538453  1.392279193 -0.000000000
C  0.141678454 -1.445454808  0.000000000

FREQUENCIES 4
67.5479
67.5479
729.0705
832.4371

SYMMETRY ??
ELECTRONIC_STATE 3-SGG
