3
Energy =   -473.905257702     
S -0.435977886 -0.606558799 -0.000000000
C  2.251960878  0.464337056  0.000000000
C  0.972834818 -0.045753592  0.000000000

FREQUENCIES 4
180.1246
261.3914
861.1816
1582.8449

SYMMETRY C*V
ELECTRONIC_STATE ??
