3
Energy =   -473.902944421     
    S   -0.424861   -0.602318    0.000000
    C    2.196174    0.442536   -0.000000
    C    1.017434   -0.028017   -0.000000

FREQUENCIES 4
365.2089
365.2089
908.2406
1700.7647

SYMMETRY C*V
ELECTRONIC_STATE 4-SG
