3
Energy =   -474.239648123     
S  0.194880000 -0.126990000  0.000000000
C  1.539174265  0.965612914 -0.000000000
C  1.901933735 -0.421736914 -0.000000000

FREQUENCIES 3
724.2850
765.1660
1184.5406

SYMMETRY C2V
ELECTRONIC_STATE 1-A1
