3
Energy =   -474.288177296     
    S   -0.445338   -0.610425   -0.000000
    C    2.224319    0.453833    0.000000
    C    1.009767   -0.031208    0.000000

FREQUENCIES 4
285.1993
285.1993
867.4417
1728.6485

SYMMETRY C*V
ELECTRONIC_STATE 3-SG
