3
Energy =   -474.256170174     
S -0.448274548 -0.611488242  0.000000000
C  2.227314215  0.454546571 -0.000000000
C  1.009764912 -0.031003925 -0.000000000

FREQUENCIES 4
218.9004
355.1968
860.6509
1744.5157

SYMMETRY C*V
ELECTRONIC_STATE ??
