4
Energy =   -872.124575547     
S -1.158862823  0.202686305 -0.037116935
S  0.917627524  0.931807649 -0.003367394
C  0.757804021 -1.915095722 -0.438175979
C  0.305934778 -0.638152822 -0.223186478

FREQUENCIES 6
300.5608
313.8908
348.6068
723.7868
913.2180
1493.4736

SYMMETRY C2V
ELECTRONIC_STATE 2-A2
