4
Energy =   -872.491231870     
S -1.158061691  0.393558793  0.037131431
S  0.908731414  0.719580926 -0.239440145
C  0.302229823 -2.110351144 -0.054771101
C  0.096869917 -0.827415773 -0.077083993

FREQUENCIES 6
124.5797
308.1826
458.2128
583.8561
697.4254
1715.8684

SYMMETRY C2V
ELECTRONIC_STATE 1-A1
