4
Energy =   -872.119107619     
S -0.594079000  0.260472000  0.652718000
S  1.377084000  0.420888000  0.247741000
C -0.910103986 -1.064594331 -0.282340251
C -1.134418014 -2.041955669 -0.974388749

FREQUENCIES 6
93.8697
283.7196
305.3143
540.1540
747.3477
2029.7231

SYMMETRY CS
ELECTRONIC_STATE 4-A"
