4
Energy =   -871.568579117     
S -1.075467000 -0.011889000 -0.401094000
S  1.924858000 -1.123261000  0.121716000
C  0.582313166 -0.559684845 -0.157266820
C -0.861872166  1.303263845 -1.311480180

FREQUENCIES 6
173.2717
290.4439
383.2356
522.3112
933.8254
1530.1530

SYMMETRY CS
ELECTRONIC_STATE 3-A'
