4
Energy =   -872.476130136     
S -0.598944000  0.284617000  0.630565000
S  1.368749000  0.419866000  0.272960000
C -0.825825274 -1.054902902 -0.299760803
C -1.205497726 -2.074771098 -0.960036197

FREQUENCIES 6
97.4596
245.9756
319.8812
495.2968
721.9919
1697.3550

SYMMETRY CS
ELECTRONIC_STATE 3-A"
