4
Energy =   -872.102582482     
S -1.025604000 -0.049625000 -0.379366000
S  1.916507000 -1.095405000  0.103343000
C  0.524299624 -0.569033070 -0.146483764
C -0.845370624  1.322491070 -1.325618236

FREQUENCIES 6
156.3505
315.5828
446.9016
598.9577
788.6203
1499.1820

SYMMETRY CS
ELECTRONIC_STATE 4-A"
