4
Energy =   -872.232883605     
S -2.142433590 -0.278981547 -0.246035715
S  2.312495343 -0.593893247  0.091494554
C  0.704563095 -0.480231762 -0.030347475
C -0.534491771 -0.392587787 -0.124268430

FREQUENCIES 7
157.1137
168.2317
358.9868
415.0393
523.6428
827.6758
2046.3123

SYMMETRY C*V
ELECTRONIC_STATE ??
