4
Energy =   -872.500793897     
S -0.428796000  0.151166000  0.524339000
S  1.425196000  0.655576000  0.415465000
C -0.839267439 -1.130904058 -0.352373152
C -1.418650561 -2.101029942 -0.943701848

FREQUENCIES 6
135.7280
166.8027
386.5414
634.0633
821.2118
1904.9333

SYMMETRY CS
ELECTRONIC_STATE 1-A'
