4
Energy =   -872.615729577     
S -2.110760205 -0.281409604 -0.243494534
S  2.280801541 -0.591618830  0.089083173
C  0.717528974 -0.481101742 -0.029394057
C -0.547460539 -0.391741432 -0.125202315

FREQUENCIES 7
179.4810
179.4810
438.6243
438.6243
555.7742
1190.0813
1967.9731

SYMMETRY C*V
ELECTRONIC_STATE 3-SG
