4
Energy =   -871.529856600     
S -1.172225000  0.609370000  0.030890000
S  0.782569000  0.629742000 -0.219317000
C  0.420519966 -2.206624940 -0.066729301
C  0.118866034 -0.857117060 -0.078854699

FREQUENCIES 6
169.3928
234.4373
411.6109
578.3976
813.7487
1422.2593

SYMMETRY CS
ELECTRONIC_STATE 1-A'
