4
Energy =   -872.538382179     
S -1.677253000 -0.266326000  0.269568000
S  1.520720000  0.050338000  0.044513000
C  0.593168117  1.516441388 -0.164326795
C -0.248831117  0.409984612  0.074935795

FREQUENCIES 6
311.8179
394.8376
445.1690
707.7189
819.6874
1419.8588

SYMMETRY CS
ELECTRONIC_STATE 1-A'
