4
Energy =   -872.170330476     
S -1.137568000 -0.095362000 -0.339613000
S  1.898151000 -0.954574000  0.009052000
C  0.447946244 -0.588980953 -0.127027500
C -0.638696244  1.247344953 -1.290537500

FREQUENCIES 6
108.4851
336.7599
341.0624
542.7145
735.7961
1518.7805

SYMMETRY CS
ELECTRONIC_STATE 2-A'
