2
Energy =   -436.257435267     
    S    1.068620    0.000000    0.000000
    C    2.600497    0.000000    0.000000

FREQUENCIES 1
1312.2957

SYMMETRY C*V
ELECTRONIC_STATE 1-SG
