2
Energy =   -436.257435267     
    S    0.497009    0.000000    0.000000
    C    2.028885    0.000000    0.000000

FREQUENCIES 1
1312.2994

SYMMETRY C*V
ELECTRONIC_STATE 1-SG
