2
Energy =   -436.136105457     
    S    0.479161    0.000000    0.000000
    C    2.046733    0.000000    0.000000

FREQUENCIES 1
1144.1650

SYMMETRY C*V
ELECTRONIC_STATE ??
