2
Energy =   -435.712825021     
    S    0.517729    0.000000    0.000000
    C    2.186223    0.000000    0.000000

FREQUENCIES 1
929.5445

SYMMETRY C*V
ELECTRONIC_STATE ??
