3
Energy =   -834.105513755     
S -1.362115655  0.043546905 -0.000000000
S  1.445884655 -0.149327905  0.000000000
C -0.014735000 -0.877195000  0.000000000

FREQUENCIES 3
264.1654
831.4346
950.6544

SYMMETRY C2V
ELECTRONIC_STATE 4-B1
