3
Energy =   -834.043305287     
S  1.031427721 -0.243846838  0.000000000
S -1.028035721 -0.109803162  0.000000000
C  0.090905000  1.193793000 -0.000000000

FREQUENCIES 3
511.4160
762.9518
928.8421

SYMMETRY C2V
ELECTRONIC_STATE 4-B2
