3
Energy =   -834.568610352     
S -1.653634490 -0.188599691  0.000000000
S  1.453257510 -0.214148691 -0.000000000
C -0.100189387 -0.201483317 -0.000000000

FREQUENCIES 4
408.7169
408.7169
677.8215
1557.8976

SYMMETRY ??
ELECTRONIC_STATE 1-SGG
