3
Energy =   -833.534911876     
S -1.662007406 -0.188527645  0.000000000
S  1.461629594 -0.214213645 -0.000000000
C -0.100189837 -0.201483894  0.000000000

FREQUENCIES 4
245.9333
364.3020
649.6536
1255.0204

SYMMETRY ??
ELECTRONIC_STATE ??
