3
Energy =   -833.577528899     
S -1.666841402 -0.188485888  0.000000000
S  1.466463598 -0.214250888 -0.000000000
C -0.100189855 -0.201484263  0.000000000

FREQUENCIES 4
299.8555
299.8555
632.7724
1021.5799

SYMMETRY ??
ELECTRONIC_STATE 3-SGG
