3
Energy =   -833.483514476     
S  1.113123954 -0.201037717  0.000000000
S -1.103468954 -0.056848283 -0.000000000
C  0.084642000  1.098028000 -0.000000000

FREQUENCIES 3
393.7758
634.9543
1008.5447

SYMMETRY C2V
ELECTRONIC_STATE 3-A2
