5
Energy =   -475.119636502     
S -0.224675000 -0.120772000  0.245508000
C  0.210304000  1.393870000 -0.125803000
C -1.801138234 -0.349114575 -0.143174045
H -0.090736214  2.352229038 -0.530339251
H -2.474306982 -1.196370134 -0.061978213

FREQUENCIES 9
351.6449
539.6162
585.6160
610.9927
732.1832
864.0669
966.3751
3188.9443
3213.5934

SYMMETRY CS
ELECTRONIC_STATE 4-A"
