5
Energy =   -475.099026829     
    S   -0.117489   -0.229720    0.093573
    C   -1.063649    1.095897   -0.080968
    C    1.159118    0.148529    1.084208
    H    1.308283    1.127292    1.522437
    H    1.851860   -0.668071    1.266117

FREQUENCIES 9
372.5335
529.7546
809.4922
851.9058
884.1270
953.0342
1391.6508
3107.8923
3246.2849

SYMMETRY C1
ELECTRONIC_STATE 4-A
