6
Energy =   -873.752274857     
S  1.229112000 -0.039369000  1.123679000
S -1.631842000 -0.870317000  0.357170000
C  0.140623669 -0.956718791  0.203529756
C  0.693069435 -1.797454536 -0.695138833
H  0.381108186 -2.517133699 -1.436373809
H -1.632973440  0.058109628  1.327820740

FREQUENCIES 12
214.7131
275.8713
280.7585
429.0310
540.2953
647.3950
765.2163
876.4071
986.6089
1348.4754
2670.5570
3222.8409

SYMMETRY CS
ELECTRONIC_STATE 3-A"
