6
Energy =   -873.352207613     
S  0.609892059 -0.260172609  1.028018706
S  0.841369357 -1.535247526 -1.812335305
C  1.422124485 -0.687170342 -0.429911137
C  2.744269366 -0.287505580 -0.501576848
H -0.422404869 -1.749176961 -1.390442038
H -0.596026658 -0.792794673  0.739992992

FREQUENCIES 12
264.4619
294.5305
351.1998
367.6284
494.6450
566.9155
886.7283
982.8295
1030.8335
1260.8302
2628.4790
2639.8068

SYMMETRY C2V
ELECTRONIC_STATE 4-A2
