6
Energy =   -873.377020746     
    S    0.458834    0.099610   -0.307388
    S   -1.304458   -0.774291    0.111242
    C    1.819181   -1.062417   -0.374083
    C    2.232473   -1.159891    0.861929
    H    2.100582   -1.470063   -1.336527
    H    0.781969    0.773882    0.826511

FREQUENCIES 12
98.3093
193.7209
212.4880
432.0126
637.4096
657.2981
682.4127
885.6216
1039.2832
1636.1369
2550.8956
3201.1247

SYMMETRY C1
ELECTRONIC_STATE 2-A
