6
Energy =   -873.758155867     
    S    0.649567   -0.284419    0.324235
    S   -1.210894    0.235691   -0.527311
    C    1.482201    1.220753    0.788771
    C    2.045368    0.986667   -0.359640
    H    1.367163    1.817816    1.674055
    H   -0.809476    0.088555   -1.803166

FREQUENCIES 12
190.6116
228.9456
254.4436
393.9802
442.8499
649.5795
703.4699
838.6252
969.0229
1633.9859
2652.2147
3286.3602

SYMMETRY C1
ELECTRONIC_STATE 1-A
