6
Energy =   -873.754320358     
    S    0.678023    0.953536   -0.089463
    S   -1.745496    0.332100   -0.855254
    C    2.202783   -1.423615    0.287408
    C    1.563038   -0.395377    0.130505
    H    2.778954   -2.304594    0.430399
    H   -1.349671   -0.949073   -0.777955

FREQUENCIES 12
71.7749
214.0921
227.1198
359.5621
363.2142
496.2678
542.2873
626.6051
767.2690
1944.8888
2676.9931
3447.5392

SYMMETRY C1
ELECTRONIC_STATE 3-A
