6
Energy =   -873.749577524     
    S    0.547242    0.202160    0.744250
    S    0.667467   -1.157697   -2.220721
    C    1.261788   -0.760956   -0.652243
    C    2.286264   -0.649221    0.142297
    H   -0.174213   -2.138263   -1.842435
    H    0.010842   -0.808624    1.462734

FREQUENCIES 12
182.1724
249.2708
296.7749
363.0117
500.6563
564.1930
677.6413
932.4312
990.4727
1721.3534
2591.9735
2639.7884

SYMMETRY C1
ELECTRONIC_STATE 1-A
