6
Energy =   -873.511661884     
S  1.028399000 -1.255613000 -0.597914000
S -0.123865000  1.764750000  0.042387000
C  0.934167431  0.342772739 -0.106631247
C  1.535318519  1.399969744  0.414481970
H  2.408798214  1.876883124  0.827642953
H -0.250992611 -1.362136913 -1.010791634

FREQUENCIES 12
263.4613
306.2645
410.9213
486.3084
675.2599
776.2249
848.4382
992.0454
1016.9862
1633.5054
2649.5200
3264.9837

SYMMETRY CS
ELECTRONIC_STATE 2-A"
