6
Energy =   -873.407742256     
    S    1.504415    0.231794    1.013051
    S   -1.262757   -0.819739   -0.269863
    C    0.425078   -0.793399    0.203106
    C    1.596514   -1.409142   -0.018209
    H   -1.255800   -2.018004   -0.911496
    H   -1.828339   -1.314748    0.864439

FREQUENCIES 12
136.1175
224.7941
260.3824
410.8563
515.0989
810.0256
868.7004
996.3190
1172.3336
1508.3933
2542.5742
2563.9487

SYMMETRY C1
ELECTRONIC_STATE 2-A
