6
Energy =   -873.816719313     
    S    0.921215   -1.371762   -0.241263
    S   -0.082373    3.064789   -0.333986
    C    0.212769    1.417922   -0.396392
    C    0.436498    0.229537   -0.305086
    H   -0.271994   -1.931851    0.046958
    H   -0.389429    3.263227   -1.632794

FREQUENCIES 12
147.3087
149.8032
322.0618
396.8663
402.1107
469.7737
951.5092
979.6532
1007.5450
2175.8160
2611.3497
2611.6348

SYMMETRY C1
ELECTRONIC_STATE 1-A
