6
Energy =   -873.710955469     
    S    0.403052    0.124512   -0.283559
    S   -1.317142   -0.732747   -0.027420
    C    1.843685   -1.061272   -0.369786
    C    2.297643   -0.918263    0.828053
    H    1.983817   -1.591887   -1.293696
    H    0.877526    0.586488    0.928090

FREQUENCIES 12
183.2529
237.2312
250.9466
503.8584
613.6295
675.3452
695.9429
888.7093
1014.4119
1685.8117
2343.5825
3281.0751

SYMMETRY C1
ELECTRONIC_STATE 1-A
