5
Energy =   -475.133510986     
S  0.021440000  0.840066000 -0.629639000
C  0.784724000  0.447213000  0.817312000
C -1.165063554 -0.332337859 -0.806975187
H -1.765446469 -0.231635393 -1.703066808
H -1.320336879 -1.125021304 -0.087379948

FREQUENCIES 9
189.1907
202.1519
672.0913
672.8459
865.4503
943.4251
1401.1680
3121.1535
3264.9376

SYMMETRY CS
ELECTRONIC_STATE 2-A"
