6
Energy =   -873.511690517     
S  1.183376944  0.291386591  1.535365958
S  1.031783845 -1.411518744 -2.615877136
C  0.978896346 -0.896765638 -1.063194109
C  1.020468821 -0.429765558  0.075231392
H  0.108094078 -2.396192065 -2.493628437
H  0.279382649 -0.472039693  2.196957752

FREQUENCIES 12
160.8703
171.2367
342.2537
369.6812
442.2829
500.9041
960.3128
987.2503
1043.8384
2130.7256
2588.8359
2590.5532

SYMMETRY C2V
ELECTRONIC_STATE 2-B1
