6
Energy =   -872.770659815     
S -1.510944000 -0.552913000  0.946869000
S  0.372340000 -1.219935000  0.612088000
C  1.658041982 -0.568916185  0.049899021
C  2.815360040 -0.070791552 -0.429649887
H -1.231355574  0.708702032  0.486860787
H  0.430348308 -2.545021179  0.995166603

FREQUENCIES 12
66.1730
105.9426
265.7807
284.6895
430.0151
468.0256
826.5650
848.5767
1035.7801
1698.1708
2382.4048
2496.1197

SYMMETRY CS
ELECTRONIC_STATE 1-A'
