6
Energy =   -872.948970401     
S  0.939767990 -1.345965920 -0.251024079
S -0.077462778  3.044303918 -0.307882235
C  0.205883011  1.437794951 -0.399861368
C  0.438309322  0.208102222 -0.306046545
H -0.292072336 -1.889519080  0.041019850
H -0.387507453  3.217142054 -1.639110827

FREQUENCIES 12
162.8433
167.3403
385.6003
393.0906
488.6645
493.2396
910.6185
911.1826
995.4800
1811.5475
2430.3849
2439.5947

SYMMETRY C2
ELECTRONIC_STATE 3-B
