6
Energy =   -873.498702172     
S -0.008729000  0.293745000 -0.223365000
S -1.361047000 -0.891783000  0.755596000
C  2.327987383 -1.295185885 -0.574004330
C  1.296161630 -0.689529585 -0.383793279
H  3.235412746 -1.836724904 -0.738000930
H -2.286338903  0.095342543  0.762487239

FREQUENCIES 12
141.2659
269.8921
334.4715
370.0463
534.7926
712.3602
761.0659
772.7482
922.7678
2062.9409
2625.3675
3395.0249

SYMMETRY CS
ELECTRONIC_STATE 2-A"
