6
Energy =   -873.494720628     
    S    0.160922    0.858403   -0.134266
    S   -1.457258   -0.127309    0.668373
    C    2.333295   -0.953452   -0.465580
    C    1.365085   -0.245026   -0.292834
    H    3.151669   -1.623936   -0.621670
    H   -0.874998   -1.343004    0.752672

FREQUENCIES 12
148.7835
193.8404
306.8330
381.5107
518.0932
708.5820
761.5656
770.6186
873.6557
2056.7109
2632.6627
3393.4819

SYMMETRY C1
ELECTRONIC_STATE 2-A
