5
Energy =   -475.505776138     
S -0.185344999  0.451964928 -0.472756800
C -1.472081605 -0.642766763  0.009863456
C -0.254519852 -1.298971315 -0.344351215
H -2.471001098 -0.645807546 -0.412765262
H  0.018217534 -1.987371202 -1.136932028

FREQUENCIES 9
681.8102
693.7361
796.1359
824.8542
928.1853
1014.6910
1257.6964
3121.1098
3136.1039

SYMMETRY CS
ELECTRONIC_STATE 3-A"
