5
Energy =   -475.174450628     
S  0.853916000 -0.424567000 -1.303667000
C  0.150004000  0.009310000  0.178462000
C -1.123325557  0.361485878  0.427652207
H -1.441024763  0.618194240  1.438793115
H -1.888072549  0.407321224 -0.353881597

FREQUENCIES 9
283.6431
486.6331
735.3535
955.7130
969.6622
1350.5510
1464.8134
3023.6249
3124.1034

SYMMETRY CS
ELECTRONIC_STATE 4-A"
