6
Energy =   -873.511841678     
S  0.736010358 -1.386860752 -0.593408712
S -0.460648643  2.943810248 -0.360590712
C  0.001597619  1.378916026 -0.489112320
C  0.274314621  0.178274027 -0.465792319
H  0.097916878 -1.834167946  0.516015519
H  0.177187366  3.391815466 -1.469881299

FREQUENCIES 12
161.0145
166.2649
352.7164
364.8607
435.8348
505.5528
962.5099
979.9227
1044.5520
2129.0519
2586.0650
2587.9548

SYMMETRY CS
ELECTRONIC_STATE 2-A"
