5
Energy =   -475.247767694     
    S    0.873587    0.024180    0.570915
    C   -0.657254   -0.017170    0.017366
    C   -1.788104   -0.176700   -0.425699
    H    0.898009    1.336980    0.929495
    H   -2.781289   -0.300249   -0.810232

FREQUENCIES 9
284.5971
322.7539
713.5036
723.3131
796.7992
986.1484
2019.6011
2555.9822
3364.7166

SYMMETRY C1
ELECTRONIC_STATE 2-A
