5
Energy =   -474.613445783     
S  0.866888824  0.204429060  1.125345245
C -0.413095868  0.207871754  0.110445575
C -1.427482663  0.210600087 -0.693861562
H -2.159937605  1.060140862 -0.767606208
H -1.669072395 -0.636320862 -1.392436792

FREQUENCIES 9
278.6720
307.0850
633.9514
712.4607
830.7165
1107.5812
1594.7653
2754.5816
2770.5369

SYMMETRY C2V
ELECTRONIC_STATE 3-A2
