6
Energy =   -872.886947247     
S  0.074242000  0.005391000  0.355808000
S -1.662662000 -0.599862000  0.605916000
C  1.381401953 -0.795924577 -0.150361050
C  2.374227848 -1.397978359 -0.533149426
H  3.260182120 -1.924471606 -0.872012710
H  0.410844268  1.317817838  0.609676419

FREQUENCIES 12
139.8458
232.6620
366.3968
411.1556
640.2187
810.1336
837.9072
854.8896
993.3018
2068.0021
2398.5150
3256.8035

SYMMETRY CS
ELECTRONIC_STATE 1-A'
