5
Energy =   -475.550619997     
S  0.918173000 -0.439498000 -1.240061000
C  0.124818000  0.001964000  0.088294000
C -1.144125145  0.367551967  0.420049417
H -1.406032666  0.623700600  1.439914368
H -1.941580595  0.417023793 -0.320676375

FREQUENCIES 9
325.4173
385.1000
843.2205
911.9874
1058.3895
1331.4842
1481.7943
3058.0669
3172.4068

SYMMETRY CS
ELECTRONIC_STATE 3-A"
