5
Energy =   -474.532853642     
S  0.076517000  0.933145000 -0.777623000
C  0.316232000  0.121629000  0.718010000
C -1.078479870 -0.305043045 -0.667095697
H -1.794566446 -0.431264453 -1.510203224
H -1.208324115 -1.031089002  0.179373589

FREQUENCIES 9
252.2211
561.5158
654.8876
835.2227
943.1307
1020.2375
1331.7273
2780.2663
2915.0660

SYMMETRY CS
ELECTRONIC_STATE 1-A'
