5
Energy =   -475.191004019     
S -0.614955000  1.099023000 -0.194897000
C -1.091691000 -0.489803000 -0.393492000
C -0.232615584 -1.498685179 -0.650767170
H -2.173371878 -0.666913022 -0.299504915
H -0.252064118 -2.566599833 -0.818233049

FREQUENCIES 9
387.0587
602.4319
706.7132
856.6333
878.2452
1185.2113
1382.4738
2972.8016
3228.9106

SYMMETRY CS
ELECTRONIC_STATE 4-A"
