5
Energy =   -475.292159193     
S -0.573457937 -0.464875630  0.176191333
C  0.706823778  0.279144129 -0.150835858
C  1.837563721  0.936259550 -0.439665030
H  2.801583810  0.442186622 -0.342746701
H  1.803201190  1.970591378 -0.774049299

FREQUENCIES 9
347.6512
353.0301
881.7506
883.0396
951.9102
1389.0937
1603.2176
3091.9803
3189.4041

SYMMETRY C2V
ELECTRONIC_STATE 2-B1
