5
Energy =   -475.538128474     
S  0.185784549 -0.154649589  0.791261827
C  0.181326998  0.594769661 -0.736106753
C -1.197856434  0.491487264 -0.201310083
H -1.680915417  1.390662723  0.165839942
H -1.869085923 -0.242151964 -0.634768370

FREQUENCIES 9
596.1589
790.2442
893.2616
956.1058
991.1587
1132.7431
1462.6480
3084.1053
3165.6876

SYMMETRY CS
ELECTRONIC_STATE 1-A'
