6
Energy =   -873.455633451     
S  1.235617000 -1.317489000 -0.531143000
S  0.191667000  2.761574000  0.446214000
C  0.705007419  0.203628619 -0.199923244
C  1.148642577  1.398740454  0.262757019
H  2.197682635  1.540802644  0.552146912
H  0.053009422 -1.820836523 -0.960274206

FREQUENCIES 12
173.4185
210.8107
340.0985
361.7559
757.3280
761.8762
900.2364
949.2863
1196.0763
1511.6540
2577.1265
2996.6852

SYMMETRY CS
ELECTRONIC_STATE 4-A"
