6
Energy =   -872.931776883     
    S    0.543716   -1.351203   -0.140730
    S   -0.166990    1.859645    0.410929
    C    0.770568    0.341567    0.070771
    C    1.510983    1.397225    0.313894
    H    2.502785    1.836335    0.421879
    H    0.370485   -1.317246   -1.506639

FREQUENCIES 12
216.7362
253.5596
295.1443
439.3440
630.0238
725.6519
831.2144
926.6924
994.1490
1629.2995
2449.6078
3153.1955

SYMMETRY C1
ELECTRONIC_STATE 3-A
