6
Energy =   -872.915965468     
    S    0.488363   -0.526785   -0.406416
    S   -1.372755    0.653699   -0.640982
    C    1.437134    0.567362    0.327298
    C    2.316480    1.246383    0.885397
    H    3.078315    1.846181    1.371122
    H   -2.037092   -0.373149   -1.266730

FREQUENCIES 12
28.8691
132.3646
277.7798
330.5102
409.3033
703.4976
746.5385
784.1833
833.3012
1941.4599
2483.8031
3246.3074

SYMMETRY C1
ELECTRONIC_STATE 3-A
