6
Energy =   -872.830599739     
    S    1.146798   -0.746462   -0.763136
    S   -0.193211   -1.428573    1.131790
    C    2.043939    0.404209   -0.270550
    C    2.957146    1.423139   -0.150746
    H    0.030395   -2.760736    0.922622
    H   -1.360305   -1.426123    0.420171

FREQUENCIES 12
13.7538
116.5459
144.0752
211.1052
348.6828
651.8026
694.8548
849.6406
1161.5048
1645.6015
2521.4665
2529.1614

SYMMETRY C1
ELECTRONIC_STATE 1-A
