5
Energy =   -475.437910423     
S -0.090286604 -0.116133447  0.580045413
C  0.159306305  1.339202819 -0.161316089
C -1.578701332 -0.732363958  0.212895991
H -0.602573395  1.787426716 -0.802771676
H -2.268007968 -0.197638744 -0.444185371

FREQUENCIES 9
351.9777
529.1918
594.4923
709.0170
712.7517
893.1858
996.3072
3085.4441
3088.5171

SYMMETRY C2V
ELECTRONIC_STATE 3-B1
