6
Energy =   -872.955225825     
S  1.383826314  1.880903699 -0.858569560
S -0.025814463 -2.153980372  0.624012552
C  0.457753685 -0.562437026  0.223267116
C  0.873761371  0.513903628 -0.273761905
H -1.275394122 -1.866537047  1.115981828
H  0.587330243 -2.247850629  1.849307905

FREQUENCIES 12
143.2820
146.4125
359.4877
361.4226
473.0026
841.0294
913.4141
997.1591
1139.7959
1743.3417
2458.6415
2463.6083

SYMMETRY CS
ELECTRONIC_STATE 3-A"
