5
Energy =   -474.517247815     
S -0.283678000 -0.870567000 -1.317639000
C -1.433690000 -0.090128000 -0.299818000
C -2.160737673 -0.486443690  0.705201702
H -1.731356019  1.002642460 -0.398338007
H -0.015907902  0.243087818 -2.081016421

FREQUENCIES 9
286.7721
398.3920
596.2028
691.2201
874.4525
984.1438
1460.5541
2459.2969
2688.0104

SYMMETRY CS
ELECTRONIC_STATE 3-A"
