6
Energy =   -873.453692316     
    S    0.018774    0.259398   -0.102609
    S   -1.526578   -0.702437    0.752456
    C    1.374703   -0.707179   -0.269929
    C    2.335734   -1.385971   -0.509267
    H    3.197058   -1.986978   -0.708255
    H    0.438806    1.127855    0.854608

FREQUENCIES 12
131.0926
248.3375
347.5276
418.3920
677.5179
730.5992
751.1126
799.0082
961.0360
2163.6149
2537.5616
3405.3791

SYMMETRY C1
ELECTRONIC_STATE 2-A
