5
Energy =   -475.265284188     
S -0.125518255  0.476124554 -0.311722134
C -1.489777860 -0.636079777 -0.323881785
C -0.382371254 -1.232890792 -0.645853372
H -2.553649339 -0.626664125 -0.139357348
H  0.186653873 -2.103486760 -0.936083472

FREQUENCIES 9
656.6387
724.9260
760.1448
846.5354
940.9087
989.5380
1639.8744
3227.0065
3277.0413

SYMMETRY C2V
ELECTRONIC_STATE 2-B1
