6
Energy =   -873.766799043     
S  1.244165000 -1.301481000 -0.601297000
S  0.098319000  2.686579000  0.542374000
C  0.708985823  0.235472838 -0.172820454
C  1.185197317  1.412525565  0.271606623
H  2.250951859  1.552905771  0.457023239
H  0.043952455 -1.819627600 -0.926937270

FREQUENCIES 12
136.9278
137.7208
224.0321
289.8211
717.0900
792.7454
863.7897
940.9725
1237.1391
1492.6150
2621.8560
3049.0803

SYMMETRY CS
ELECTRONIC_STATE 3-A"
