5
Energy =   -475.587409811     
S  0.901802453  0.034919374  0.583792864
C -0.682616398 -0.031049776  0.004749337
C -1.795091000 -0.177055000 -0.428239000
H  0.900695521  1.336119901  0.928287828
H -2.779245257 -0.295447548 -0.808428528

FREQUENCIES 9
301.8472
366.1267
577.5762
716.3475
726.2365
981.4866
2150.2848
2646.9661
3461.9428

SYMMETRY CS
ELECTRONIC_STATE 1-A'
