5
Energy =   -835.650893101     
    S   -1.797122    0.633458    0.392309
    S    0.834780    0.106765   -1.127141
    C   -0.332371    1.043441   -0.304825
    H   -1.418866    0.321146    1.664770
    H    1.720090    1.097863   -1.336774

FREQUENCIES 9
87.7965
249.6385
404.3178
589.2919
902.8470
923.8501
1094.0424
2446.8902
2650.5064

SYMMETRY C1
ELECTRONIC_STATE 3-A
