4
Energy =   -436.396924273     
S  0.117267682  0.305821931 -0.158740840
C -1.574060777  0.810043390 -0.154820610
H -2.359530000  0.926569000 -0.941019000
H  0.315453509  0.452793517  1.221076219

FREQUENCIES 6
586.2700
709.3369
713.0101
950.5286
2274.4484
2900.1750

SYMMETRY CS
ELECTRONIC_STATE 3-A"
