4
Energy =   -437.321617592     
S -0.675708401 -0.636916056  0.131795903
C -1.803200931  0.473657484  0.029097926
H -0.072859859 -1.433443214 -0.831315443
H  0.035257859 -1.134488786  1.214576443

FREQUENCIES 6
177.8020
597.4126
1015.7288
1357.7546
2160.3935
2260.0554

SYMMETRY C2V
ELECTRONIC_STATE 1-A1
