5
Energy =   -835.684266414     
    S   -1.201438    0.073673    0.639073
    S    0.809174   -0.748904    0.032590
    C    0.877008   -1.896905   -1.001069
    H    0.082104   -2.415015   -1.524007
    H   -0.625532    0.958822    1.470277

FREQUENCIES 9
157.7909
217.0112
354.4647
687.3050
731.5103
786.0083
1183.7212
2676.3008
3185.3409

SYMMETRY C1
ELECTRONIC_STATE 1-A
