4
Energy =   -437.437978510     
S -0.028451000 -0.035771000  0.113998000
C -1.503699000 -0.416833000 -0.461852000
H -1.839406209 -1.406938138 -0.137062473
H  0.462498209 -1.066871862  0.889892473

FREQUENCIES 6
786.1790
942.4402
963.6907
1103.3160
2353.1702
3054.8257

SYMMETRY CS
ELECTRONIC_STATE 1-A'
