5
Energy =   -835.423903384     
    S   -1.707509   -0.552253   -0.189968
    S    0.509553    1.471312    0.207741
    C   -0.260262    0.157020   -0.501433
    H   -0.429665    1.780575    1.129638
    H    0.317967   -0.292191   -1.313999

FREQUENCIES 9
275.3652
480.8855
722.2103
861.1224
978.7626
1014.9760
1276.0746
2618.5581
3065.4968

SYMMETRY C1
ELECTRONIC_STATE 2-A
