5
Energy =   -835.393468699     
S -1.434872290 -0.066288522  0.823759310
S  0.867882063  0.260440973 -1.224149235
C -0.234756406  0.567485846 -0.070340545
H -1.727096353  1.064078579  1.521533978
H  1.406553477  1.508700832 -1.265314847

FREQUENCIES 9
110.1577
215.5533
420.9707
616.6144
892.6339
948.5236
1276.7239
2539.0847
2542.3778

SYMMETRY C2V
ELECTRONIC_STATE 2-A1
