5
Energy =   -835.301421941     
S -1.485714221  0.395472240  0.384775451
S  1.361577568 -0.123993885  0.766262366
C  0.106637599  1.001541500  0.495306414
H  1.808480452 -0.279410536 -0.513233627
H -1.616849764  0.345514181 -0.972167503

FREQUENCIES 9
235.1846
340.9403
496.5698
685.4199
835.2947
926.7029
958.4014
2506.7026
2509.8215

SYMMETRY CS
ELECTRONIC_STATE 4-A"
