4
Energy =   -437.056983790     
S  0.887458951  0.008649591  0.178239649
C -0.476917110  1.131629885 -0.218539660
H -1.113627554  1.409679231  0.617766577
H -0.838890554  1.086100231 -1.242757423

FREQUENCIES 6
417.2359
687.3333
783.4876
1298.5211
3060.3327
3202.8084

SYMMETRY CS
ELECTRONIC_STATE 4-A"
