5
Energy =   -835.650834453     
S -1.683578696  0.280057206  0.465154732
S  1.158771505  0.322552401 -0.754824035
C -0.192919489  0.961464578  0.040047076
H -1.669702526  0.542840577  1.791425008
H  1.267715503  1.226668036 -1.754297206

FREQUENCIES 9
84.0613
263.2143
367.4858
596.1830
842.1148
947.5421
1094.1096
2572.0133
2574.4713

SYMMETRY C2
ELECTRONIC_STATE 3-B
