4
Energy =   -437.018795691     
S -0.879476067 -1.107624062  0.212850433
C -1.634665273  0.518117268  0.014245236
H -0.058368514 -1.222630346 -0.866130921
H  0.055816940 -0.919248886  1.183101228

FREQUENCIES 6
438.4716
618.8236
655.3874
1169.9444
2533.1057
2551.7085

SYMMETRY CS
ELECTRONIC_STATE 2-A"
