4
Energy =   -437.511094939     
S  0.819487949  0.085073122  0.154938910
C -0.475592197  0.970617342 -0.190321094
H -1.075350691  1.446374779  0.582342209
H -0.810544309  1.133992221 -1.212172209

FREQUENCIES 6
1003.8883
1032.4274
1091.3997
1494.7189
3058.4135
3138.3153

SYMMETRY C2V
ELECTRONIC_STATE 1-A1
