5
Energy =   -835.749682829     
S -0.994770000  0.139457000  0.687785000
S  1.852119000  0.287963000 -0.136295000
C  0.295592423  0.682688819 -0.340626182
H -2.002258087  0.763179107  0.048824133
H -0.035145989  1.325594071 -1.153302949

FREQUENCIES 9
301.5437
386.2881
725.8780
819.0484
937.6999
1097.1083
1288.0956
2650.9698
3090.0270

SYMMETRY CS
ELECTRONIC_STATE 1-A'
