5
Energy =   -835.678565502     
    S   -1.039510   -0.152390    0.078687
    S    1.683350    0.504329    0.333528
    C    0.262581    0.859583   -0.502244
    H   -1.441238    0.551565    1.167068
    H    0.132396    1.637070   -1.237502

FREQUENCIES 9
203.4026
232.7866
278.7918
747.5824
890.9360
920.8257
1154.2017
2523.2834
3205.9805

SYMMETRY C1
ELECTRONIC_STATE 3-A
