5
Energy =   -835.694723315     
S -1.307057444  0.797638449  0.839096267
S  0.926548726 -0.343011707 -0.700917344
C -0.000499820  0.908355362 -0.160125230
H -1.446781951 -0.546836901  1.114487405
H  0.375581759 -1.477475201 -0.141985181

FREQUENCIES 9
273.8193
536.8701
601.5465
644.4327
937.2653
993.2967
1077.5860
2352.5215
2363.6979

SYMMETRY C2V
ELECTRONIC_STATE 1-A1
