5
Energy =   -835.363597711     
S -1.184959000  0.124551000  0.617947000
S  0.717751000 -0.714222000  0.116041000
C  0.615575359 -1.824013659 -0.934433414
H  0.360556125 -2.570940235 -1.668909185
H -0.567510430  0.956898141  1.485575156

FREQUENCIES 9
182.7862
218.8316
364.7297
379.3280
690.9033
850.9615
1176.4207
2628.8513
3279.3922

SYMMETRY CS
ELECTRONIC_STATE 2-A'
