5
Energy =   -835.283452269     
S -1.287085548  0.032106973  0.518136706
S  0.600390377 -0.674146356 -0.011889790
C  0.070062052  1.153067567 -0.238886465
H -1.019097482  0.086786989  1.852590009
H  0.183668307 -1.259164521 -1.169330755

FREQUENCIES 9
338.4660
488.0120
545.3341
564.7654
628.0260
837.0738
915.2948
2529.7658
2533.6261

SYMMETRY C2
ELECTRONIC_STATE 2-B
