4
Energy =   -437.411423030     
    S    0.013979    0.133980   -0.107129
    C   -1.631464    0.437706   -0.239798
    H   -2.164072    1.212764   -0.778702
    H    0.280670    0.710716    1.092134

FREQUENCIES 6
456.4964
826.0098
867.1001
931.2957
2515.1670
3154.3943

SYMMETRY C1
ELECTRONIC_STATE 3-A
