5
Energy =   -834.852500131     
    S   -1.482383   -0.068504    0.625307
    S    1.033868   -0.910913   -1.095373
    C   -0.194831   -0.568856   -0.152950
    H    0.884696   -2.286363   -0.994354
    H   -0.859761   -0.008694    1.863318

FREQUENCIES 9
321.0034
326.0745
607.7844
623.0629
893.2284
896.7901
1455.2308
2368.0853
2380.4903

SYMMETRY C1
ELECTRONIC_STATE 1-A
