5
Energy =   -835.301481553     
S -1.575004536  0.288012886  0.759376054
S  0.932714534 -0.770440484 -0.306233222
C -0.094089101  0.568499435 -0.043369261
H -1.171407477  0.448461326  2.052292148
H  0.454919757 -1.195488408 -1.510937637

FREQUENCIES 9
232.8454
346.3788
495.0113
681.3690
874.0713
875.6572
963.1766
2506.9878
2513.5254

SYMMETRY C2
ELECTRONIC_STATE 4-A
