3
Energy =   -398.258904421     
S -0.395257000  0.066568000 -0.000000000
H -1.439746087 -0.911164955  0.000000000
H -1.288315913  1.184317955  0.000000000

FREQUENCIES 3
1073.1418
2077.7922
2126.4661

SYMMETRY C2V
ELECTRONIC_STATE 1-A1
