3
Energy =   -399.429019663     
S -0.129540000 -0.063815000 -0.000000000
H -1.313290073 -0.695091566  0.000000000
H -0.709805927  1.145757566 -0.000000000

FREQUENCIES 3
1212.4949
2693.1427
2705.2956

SYMMETRY C2V
ELECTRONIC_STATE 1-A1
