4
Energy =   -796.707076704     
S -0.903834000 -0.161385061 -0.010120621
S  0.974309000  0.301405939  0.010199379
H  0.768590000  1.671493939  0.071863879
H -0.698115000 -1.531473061 -0.071785121

FREQUENCIES 6
650.1793
802.0767
807.0848
1057.8761
2384.9876
2393.5302

SYMMETRY C2H
ELECTRONIC_STATE 1-AG
