4
Energy =   -797.610926385     
S -1.550169727 -0.159278679  0.664897779
S  0.405349530 -0.032889935  0.343496962
H  0.774906184 -1.061332224 -0.476215744
H  0.617840113  0.843179870 -0.682925969

FREQUENCIES 6
545.5635
819.8759
857.1415
1222.8588
2440.4002
2454.2972

SYMMETRY CS
ELECTRONIC_STATE 1-A'
