4
Energy =   -797.319783622     
S -1.407771967 -0.140231693  0.335331714
S  0.427990967  0.438301693 -0.273351714
H  0.276235117  1.773483613 -0.115574381
H -1.917942117  1.081997387  0.611948381

FREQUENCIES 6
385.9836
573.1104
842.7279
936.9207
2614.8730
2635.8588

SYMMETRY C2V
ELECTRONIC_STATE 2-A2
