4
Energy =   -796.701302364     
S -0.932322773  0.503509614  0.060452022
S  0.582485773 -0.640721614 -0.347280022
H -1.181593360  0.147164229  1.375084355
H  0.739724360 -1.304129229  0.857934645

FREQUENCIES 6
637.1051
743.6299
849.3189
941.7954
2387.2421
2421.0911

SYMMETRY C2V
ELECTRONIC_STATE 1-A1
