4
Energy =   -797.324506752     
S -0.937993121 -0.179702939 -0.010915076
S  1.008470879  0.319720061  0.011099924
H  0.762792879  1.650520061  0.070963424
H -0.692315121 -1.510502939 -0.070778576

FREQUENCIES 6
508.1146
583.6334
788.3381
1051.3082
2610.5386
2615.0764

SYMMETRY C2H
ELECTRONIC_STATE 2-BG
