7
Energy =   -874.135315923     
S -1.063363000 -1.008253000  1.618818000
S  1.309906000 -0.266853000 -0.694559000
C -0.750749636  0.473142199  0.925754284
C  0.203615157  0.822523926 -0.018906896
H -1.408891263  1.265046961  1.287341379
H  0.238739863  1.855033404 -0.339835009
H  1.938335144  0.611753135 -1.498610024

FREQUENCIES 15
149.3210
232.9228
450.2074
500.0741
714.2528
752.6001
881.9145
893.5514
1000.8015
1193.9402
1352.8977
1430.4209
2664.2890
3079.1049
3190.7017

SYMMETRY CS
ELECTRONIC_STATE 3-A"
