7
Energy =   -873.382947650     
    S   -0.948650    1.113172    0.181490
    S    1.583673   -0.031680   -0.858110
    C   -0.109707   -0.420663   -0.308269
    C   -0.055538   -1.453340    0.913857
    H    1.491133   -0.662812   -2.066806
    H   -0.705270   -0.874558   -1.109396
    H   -0.049798    1.557223    1.110565

FREQUENCIES 15
206.7387
235.4625
312.9210
371.5588
490.3575
592.9482
600.3821
669.7150
894.6501
964.3407
1138.2355
1245.8830
2524.2239
2528.3874
3025.2944

SYMMETRY C1
ELECTRONIC_STATE 4-A
