7
Energy =   -874.141515268     
    S   -1.768400   -1.009203    0.542522
    S    0.993487    0.700939    0.520694
    C    0.410493   -0.120037   -0.790254
    C   -0.820698   -0.878184   -0.768306
    H    0.981102   -0.087724   -1.713903
    H   -1.076463   -1.362475   -1.707657
    H    2.102152    1.178020   -0.088551

FREQUENCIES 15
86.9156
178.9398
545.6592
561.3687
787.2972
816.2322
989.7759
1015.8729
1030.5489
1168.3256
1331.9822
1406.3188
2626.7935
3121.7812
3156.0280

SYMMETRY C1
ELECTRONIC_STATE 1-A
