7
Energy =   -873.605370997     
    S   -0.420616    1.442380    1.052761
    S    1.219446   -1.122022   -1.860127
    C   -0.159867   -0.603496   -0.992449
    C   -0.222025    0.271309    0.008501
    H    2.165154   -0.370071   -1.230740
    H   -1.100667   -1.072993   -1.309100
    H   -0.275583    0.682236    2.194486

FREQUENCIES 15
155.3562
234.4114
419.5162
440.7158
472.8787
700.5882
872.4923
881.5448
918.3348
981.0057
1258.4926
1614.4129
2416.2597
2563.5966
3030.1782

SYMMETRY C1
ELECTRONIC_STATE 2-A
