7
Energy =   -874.070718846     
    S   -1.840122   -0.006694   -1.140648
    S    1.326008    0.280727    0.158033
    C   -0.232082   -0.255389   -0.228368
    C   -1.101573   -1.189530   -0.036259
    H    1.839215    0.601406   -1.065505
    H   -1.361235   -2.121827    0.440716
    H    1.115657    1.590589    0.479676

FREQUENCIES 15
123.8344
216.2942
246.7630
421.3439
582.9038
815.8665
859.3624
893.4896
895.2820
1008.0621
1224.7607
1747.0564
2470.9429
2501.2210
3252.1096

SYMMETRY C1
ELECTRONIC_STATE 1-A
