7
Energy =   -874.135977924     
    S   -0.585878    0.831958    0.903830
    S    1.874312   -0.687819   -0.178884
    C    0.980201   -0.203975    1.027483
    C   -0.773758    1.092278   -0.670893
    H    1.137649   -0.396955    2.085319
    H   -1.622861    1.677403   -1.006230
    H   -0.061714    0.689089   -1.391566

FREQUENCIES 15
84.4866
229.3860
340.6299
523.3409
595.1908
821.5589
929.1191
1041.5536
1044.5510
1117.5089
1262.7543
1416.2106
3066.0055
3135.0024
3214.3249

SYMMETRY C1
ELECTRONIC_STATE 1-A
