7
Energy =   -874.144957870     
    S   -1.846053    0.760688    1.319653
    S    1.868031    0.065494   -0.599950
    C    0.612127    0.267761    0.455461
    C   -0.743097    0.613164    0.136358
    H    0.869726    0.116324    1.500442
    H   -0.996495    0.765008   -0.911370
    H    1.201104    0.322519   -1.750222

FREQUENCIES 15
78.0634
245.9608
371.0594
550.8015
858.7511
898.1848
983.6605
1035.6250
1064.2179
1176.5466
1300.3246
1405.1431
2610.3916
3105.5221
3155.2274

SYMMETRY C1
ELECTRONIC_STATE 1-A
