7
Energy =   -873.588216150     
    S   -1.619380   -0.026173   -0.604946
    S    1.669996   -0.267395   -0.039798
    C   -0.017863    0.264799    0.064606
    C   -0.862963    1.189999    0.432328
    H    2.081463    0.189859    1.181365
    H   -1.131611    2.107544    0.949561
    H    1.487234   -1.563976    0.354573

FREQUENCIES 15
111.2755
244.6737
306.9373
460.3549
681.6390
785.0883
831.5613
879.6303
955.1146
988.6397
1157.0342
1676.9921
2509.1206
2517.7970
3187.2577

SYMMETRY C1
ELECTRONIC_STATE 2-A
