7
Energy =   -874.445943600     
S -1.780014000 -1.009476000  0.561832000
S  1.002051000  0.715269000  0.546487000
C  0.387236779 -0.143233565 -0.817416738
C -0.788589663 -0.862167391 -0.782226408
H  0.970671571 -0.098216024 -1.727730346
H -1.068173492 -1.358991455 -1.707291978
H  2.098257525  1.178522948 -0.079236931

FREQUENCIES 15
163.0372
289.5351
420.0814
545.2822
683.9249
750.5491
893.6996
907.5182
1005.1587
1183.1140
1351.4732
1409.9333
2664.6548
3106.5372
3173.1249

SYMMETRY CS
ELECTRONIC_STATE 2-A"
