7
Energy =   -874.305189475     
    S   -0.968476    0.349764    0.865631
    S    1.668904   -0.728600   -0.334178
    C    0.768417    0.091092    0.886931
    C   -1.263752    1.271937   -0.509370
    H    1.270687    0.241198    1.831127
    H   -1.308503    2.349167   -0.639059
    H    0.780674   -0.572578   -1.332023

FREQUENCIES 15
99.2939
199.8951
245.9307
340.0806
397.2647
481.4162
622.4227
834.6513
846.8643
877.8771
964.8942
1230.8911
2658.2087
3131.1411
3196.1570

SYMMETRY C1
ELECTRONIC_STATE 4-A
