7
Energy =   -873.621211392     
    S   -2.192904   -0.136097   -0.453702
    S    1.923902    0.475780   -0.149103
    C    0.304399    1.026996    0.538051
    C   -0.903757    0.415980    0.020862
    H    0.375274    0.848029    1.629561
    H    0.269342    2.117492    0.392543
    H    1.644944   -0.847594   -0.340633

FREQUENCIES 15
107.7274
158.5677
334.3230
428.0464
627.9955
744.1961
806.9492
945.5449
1147.2805
1268.7306
1358.5229
1668.4384
2540.2081
2899.3403
2995.2662

SYMMETRY C1
ELECTRONIC_STATE 2-A
