7
Energy =   -874.414554400     
    S   -1.829743   -0.358882   -0.683648
    S    1.732380    0.423739   -0.404346
    C    0.295834    1.071377    0.586690
    C   -1.042205    0.628275    0.231839
    H    0.460307    0.855024    1.644569
    H    0.354904    2.157207    0.488640
    H    1.449722   -0.876155   -0.226165

FREQUENCIES 15
124.2758
141.2997
215.0563
472.5541
602.9143
719.9663
774.7098
948.4093
1171.7100
1238.6043
1396.7204
1421.0090
2680.7405
3036.2828
3072.4929

SYMMETRY C1
ELECTRONIC_STATE 2-A
