7
Energy =   -873.490256467     
    S   -0.615012    0.923836   -0.626237
    S    2.033972   -0.631528   -0.688190
    C    0.717926    0.169652    0.170945
    C   -1.446571    1.596666    0.576910
    H    0.852074    0.253716    1.254690
    H   -2.353634    2.188118    0.715813
    H    1.573726   -1.927155   -0.608190

FREQUENCIES 15
131.3820
199.4358
323.5915
343.3872
556.0598
609.8000
660.6428
703.5185
795.5686
888.4180
987.6349
1151.4968
2441.0895
3045.4949
3135.5043

SYMMETRY C1
ELECTRONIC_STATE 4-A
