7
Energy =   -874.413439361     
    S   -1.772104    1.175977   -0.751004
    S    1.288127   -0.551999   -0.642684
    C    0.583409    0.527975    0.707298
    C   -0.701812    1.117048    0.383552
    H    0.473364   -0.063443    1.618590
    H    1.288214    1.332489    0.926968
    H    2.411939   -0.869440    0.021611

FREQUENCIES 15
123.7103
179.1480
194.4717
453.9128
621.3727
777.5982
788.5854
908.5746
1140.6276
1216.0001
1403.9171
1423.4245
2674.6077
3032.9704
3069.8383

SYMMETRY C1
ELECTRONIC_STATE 2-A
