7
Energy =   -874.048420700     
    S    0.296177   -1.393927    1.375281
    S    0.806728    1.460682    0.112221
    C   -0.308450    0.231323    0.722156
    C   -0.231752    0.451220   -0.764287
    H    1.532130   -1.413177    0.826436
    H   -1.172027    0.512345    1.315359
    H   -0.228825   -2.191452    0.408197

FREQUENCIES 15
53.3424
236.4267
310.4927
520.7717
668.3293
765.2462
828.7746
881.4953
938.8150
1076.8443
1190.1981
1272.5599
2563.3425
2617.1240
3140.8491

SYMMETRY C1
ELECTRONIC_STATE 1-A
