6
Energy =   -475.181512980     
    S   -0.721836    0.471470    1.109467
    C    1.521288    0.719561   -0.864308
    C    0.690387    0.016430    0.012713
    H    1.400755    1.788148   -1.099871
    H    2.353404    0.172720   -1.335379
    H   -1.454532   -0.657717    0.791074

FREQUENCIES 12
111.8548
296.9011
436.4960
539.7641
858.0056
960.7876
1035.1103
1331.0108
1405.3121
2407.0979
2959.6802
3064.3814

SYMMETRY C1
ELECTRONIC_STATE 4-A
