7
Energy =   -873.569432071     
    S   -0.435346   -0.072898   -0.330237
    S    1.761894   -0.436564   -0.719348
    C   -0.533379    0.871906    1.211028
    C   -0.585428    1.653006    0.195771
    H   -0.566276    0.594863    2.262307
    H   -0.697203    2.594658   -0.336940
    H    1.517385   -1.511008   -1.536826

FREQUENCIES 15
140.6327
162.4347
230.6043
280.9511
566.8859
572.7454
753.0899
788.7647
805.7069
930.5227
961.0377
1699.2408
2500.4355
3150.7071
3212.8470

SYMMETRY C1
ELECTRONIC_STATE 2-A
