7
Energy =   -873.965860829     
    S    0.338782   -1.660493    1.352615
    S    0.255554    0.697890   -0.636448
    C   -0.342089   -0.141620    0.753819
    C   -0.765022    2.023201   -0.789714
    H    1.575729   -1.287098    1.784194
    H   -1.185531    0.222553    1.328289
    H    0.816556   -2.197419    0.202607

FREQUENCIES 15
61.1088
87.0102
182.0959
284.5468
510.4799
588.3663
757.3248
838.4060
856.8381
885.1499
1182.4031
1230.4396
2516.6071
2581.9730
3177.3293

SYMMETRY C1
ELECTRONIC_STATE 3-A
