7
Energy =   -873.622622359     
    S   -1.508712   -1.411201    1.419559
    S    1.855220    0.468651   -0.082554
    C    0.347494   -0.435483   -0.531422
    C   -0.507220   -0.881941    0.419215
    H    2.713296   -0.234792   -0.880726
    H    0.139383   -0.614844   -1.587888
    H    1.707881    1.490474   -0.978343

FREQUENCIES 15
25.7927
151.9842
335.3375
441.6874
644.7591
682.5361
842.2771
901.0726
965.7260
1158.2169
1230.6235
1529.8418
2513.1505
2514.1966
3097.0534

SYMMETRY C1
ELECTRONIC_STATE 2-A
