6
Energy =   -475.754911112     
    S   -0.145953   -0.480919    0.598427
    C    1.238837    0.550101   -0.057108
    C   -1.491482    0.325317    0.429151
    H    1.066295    0.725960   -1.115579
    H    1.290624    1.467955    0.522392
    H    2.112238   -0.082570    0.109853

FREQUENCIES 12
9.0269
330.0733
550.6459
905.6457
962.5672
1048.1484
1325.2178
1419.1019
1433.6744
3035.4698
3141.5322
3174.2630

SYMMETRY C1
ELECTRONIC_STATE 3-A
