7
Energy =   -873.557332137     
S -0.772417000  0.404368000 -0.489585000
S  2.007666000 -0.868852000 -0.263874000
C  0.887954103  0.205699342  0.218545735
C -1.372789457  1.587292604  0.388356682
H  1.151455435  0.871037966  1.042160192
H -2.266240681  2.203527777  0.527140381
H  1.329607489 -1.492315094 -1.272179573

FREQUENCIES 15
93.8652
213.3685
321.8032
501.1269
505.7363
670.8887
773.9290
937.9304
962.1716
1028.8230
1078.3505
1290.3430
2532.2384
3116.7656
3118.7605

SYMMETRY CS
ELECTRONIC_STATE 2-A'
