6
Energy =   -835.967467254     
    S    1.414982   -0.427069   -0.331923
    S   -0.945224    1.021127    0.771295
    C    0.519216    0.899973   -0.118013
    H    0.713024   -1.487291    0.184926
    H   -1.647616    1.838422   -0.042357
    H   -1.759060   -0.074360    0.633561

FREQUENCIES 12
228.9317
300.7046
496.4759
570.6128
758.3370
853.3210
991.8247
1144.9504
1221.1095
2436.6132
2449.4716
2622.3649

SYMMETRY C1
ELECTRONIC_STATE 1-A
