5
Energy =   -437.848836146     
    S   -0.163393    0.667756    0.019807
    C   -0.296519   -0.945740    0.003155
    H   -0.841240    1.632466    0.826378
    H    1.006319    1.484638    0.077032
    H   -0.596751    1.228214   -1.156158

FREQUENCIES 9
286.0543
593.9799
921.3534
931.7057
1110.6516
1359.8875
1715.3193
2003.8699
2318.2148

SYMMETRY C1
ELECTRONIC_STATE 2-A
