5
Energy =   -437.079139065     
    S    0.395753   -0.297159   -0.343390
    C   -1.042482   -0.963815    0.122001
    H    1.382194   -1.277962   -0.216740
    H    0.228474   -0.002563   -1.692743
    H   -1.566789   -1.577298    0.883988

FREQUENCIES 9
416.6600
539.6995
753.1559
807.4110
935.5190
1102.1044
2270.4495
2318.8478
2972.0436

SYMMETRY C1
ELECTRONIC_STATE 2-A
