6
Energy =   -836.319858310     
    S   -0.142494    0.650039   -0.797544
    S   -2.108118    0.757892   -0.065747
    C    0.151990   -1.001798   -1.051464
    H    0.807616   -1.266269   -1.867739
    H   -1.795548    0.832817    1.240967
    H   -0.283468   -1.760523   -0.420666

FREQUENCIES 12
206.2323
235.6087
307.7211
441.9124
461.6467
806.6501
867.5487
924.4814
1397.0342
2643.8219
3140.4884
3265.9992

SYMMETRY C1
ELECTRONIC_STATE 2-A
