5
Energy =   -437.979685977     
    S    0.290504   -0.350900   -0.234901
    C   -1.296402   -0.951584   -0.037166
    H    1.361466   -1.238688   -0.339009
    H    0.348956   -0.086920   -1.555709
    H   -1.307374   -1.490707    0.919901

FREQUENCIES 9
447.8958
612.3111
686.8948
802.1854
1081.8340
1249.6628
2181.7632
2596.1489
3028.9882

SYMMETRY C1
ELECTRONIC_STATE 2-A
