6
Energy =   -836.318243632     
    S    1.464096   -0.154334    0.646646
    S   -1.237798    0.889061   -0.186894
    C   -0.216399    0.089037    0.974583
    H    1.350638   -0.540070   -0.639751
    H   -0.497043    0.073159    2.016740
    H   -2.417790    0.495531    0.323995

FREQUENCIES 12
167.2356
256.1959
270.0398
391.7953
663.8321
857.6385
914.4058
1012.3761
1239.9210
2614.5518
2652.5747
3194.7345

SYMMETRY C1
ELECTRONIC_STATE 2-A
