5
Energy =   -436.940045137     
S  0.153576452  0.934028334  0.054335533
C -0.588966701 -0.446386435 -0.543840585
H  0.459033769  0.831599501  1.411605163
H  1.354684984  1.219417787 -0.595178010
H -0.642843808  2.071254231 -0.081343189

FREQUENCIES 9
726.9978
726.9985
878.5925
1060.8766
1077.7325
1077.7327
2275.1198
2275.2599
2275.2606

SYMMETRY C3V
ELECTRONIC_STATE 4-A1
