6
Energy =   -836.027186253     
    S    1.697754    0.642110    0.185225
    S   -1.270773   -0.148591   -0.152962
    C    0.193049    1.048793    0.299593
    H   -0.600280   -1.309101    0.012680
    H   -1.873621   -0.196320    1.058042
    H   -0.271539    1.996051    0.556914

FREQUENCIES 12
101.8519
218.8498
396.3998
644.6232
780.8922
824.6968
1146.0029
1181.4853
1255.2115
2605.8009
2636.1872
3144.8828

SYMMETRY C1
ELECTRONIC_STATE 1-A
