6
Energy =   -836.069236738     
S  1.322615178  0.256382762 -0.039429226
S -1.434173785  1.271310798  0.104844809
C -0.255347314  0.153408346  0.513627251
H  1.767732087 -0.851694063  0.586812392
H -0.524813486 -0.670834512  1.162987461
H -2.430336422  0.693849496  0.806514476

FREQUENCIES 12
298.2519
377.5972
516.5271
750.3622
897.1236
898.7092
1070.3241
1083.1064
1306.6646
2641.7496
2642.5100
3176.8955

SYMMETRY C2V
ELECTRONIC_STATE 1-A1
