6
Energy =   -836.053031354     
    S   -0.226485    0.430045   -0.516363
    S   -1.959567    0.207365    0.553117
    C    0.144813   -1.002794   -1.142559
    H    1.050854   -1.027936   -1.738828
    H   -1.945705    1.514137    0.890198
    H   -0.433931   -1.908661   -1.007757

FREQUENCIES 12
190.2871
278.0165
507.1348
610.4715
884.5887
949.8749
978.6279
1056.5560
1434.9232
2647.5615
3119.5434
3237.4428

SYMMETRY C1
ELECTRONIC_STATE 1-A
