4
Energy =   -398.901952413     
    S    0.014224   -0.184915    0.281182
    H   -0.497756    1.141407    0.183082
    H    1.560268   -0.067473   -0.011959
    H    1.223130    0.867093   -0.080550

FREQUENCIES 6
176.3716
917.6117
1094.3491
1239.0303
2056.2639
2134.4444

SYMMETRY C1
ELECTRONIC_STATE 2-A
