5
Energy =   -797.938970125     
    S    0.835837    0.030218   -0.459888
    S   -0.764364    1.343619   -0.241187
    H    0.716845   -0.303536   -1.768242
    H    0.020594    2.246325    0.381971
    H    0.282948   -1.125013   -0.015732

FREQUENCIES 9
249.4119
476.1332
772.7547
840.3155
985.7225
1222.6366
2590.0713
2592.8625
2651.1479

SYMMETRY C1
ELECTRONIC_STATE 1-A
