5
Energy =   -797.936673735     
S  0.723291316 -0.411534507 -0.051984220
S -1.332510131 -0.391516752 -0.357799467
H  0.868804164 -1.129423064  1.088751032
H  1.156800609 -1.405678675 -0.865348807
H -1.525976704 -1.718073962 -0.198774232

FREQUENCIES 9
354.4046
466.9508
757.7100
805.5924
942.8909
1211.2001
2585.0875
2592.8344
2642.5140

SYMMETRY CS
ELECTRONIC_STATE 1-A'
