7
Energy =   -476.456839800     
S  0.887847021  0.178643725  0.293520751
C -1.489424757 -0.481130972 -0.823392388
C -0.944264668  0.286742365  0.054249733
H  0.943729195  0.106583516  1.644458295
H  1.205461584  1.494618275  0.267449483
H -1.419912843 -1.243064655 -1.578214657
H -1.427641498  1.013507960  0.694957713

FREQUENCIES 15
154.5946
276.2659
513.5934
615.3806
644.3456
802.4691
836.6077
853.9003
1186.7815
1204.2002
1636.0827
2601.8001
2608.9272
3172.8257
3304.9660

SYMMETRY CS
ELECTRONIC_STATE 2-A'
