8
Energy =   -874.279759609     
S  1.555007654 -1.007408451  0.029182775
S -2.280831116  0.668185096 -0.028904658
C -0.105439111 -1.126640714 -0.814721724
C -1.149403172 -0.216941291 -0.390720040
H  1.768520668  0.333351697 -0.042327173
H  1.165798487 -0.998788947  1.331788311
H -0.432612127 -2.165701911 -0.669658914
H  0.100548163 -0.987307431 -1.885183798

FREQUENCIES 18
151.7449
164.3420
349.1951
426.1614
625.3241
720.4923
793.4357
880.8477
968.3185
1180.6037
1216.3059
1283.1562
1392.7885
1666.1072
2569.7320
2580.4251
2987.7238
3032.6059

SYMMETRY CS
ELECTRONIC_STATE 1-A'
