7
Energy =   -476.532661884     
    S    0.110118    0.218624    0.290076
    C   -0.259261   -1.283768   -0.507442
    C   -0.864301    1.549916    0.191033
    H    0.653988   -0.269922    1.468723
    H    1.305535    0.629012   -0.201141
    H   -1.039101   -1.036860   -1.243386
    H   -1.745759    1.420312    0.825667

FREQUENCIES 15
238.7383
279.2412
426.5386
634.3548
649.3166
689.0130
778.2048
862.1946
1055.0839
1086.4610
1257.9931
2249.8766
2498.3530
3020.3633
3084.9260

SYMMETRY C1
ELECTRONIC_STATE 3-A
