8
Energy =   -874.213396796     
    S    2.001651    1.412970   -0.314761
    S   -2.013146   -0.078740   -0.001660
    C    0.329971    1.338101    0.436236
    C   -0.442782    0.050545    0.309055
    H    0.077238   -0.894212    0.517498
    H    1.794872    0.647169   -1.425193
    H    0.503697    1.532012    1.506542
    H   -0.198564    2.215069    0.034081

FREQUENCIES 18
79.1180
99.9795
259.6427
296.5437
613.7726
691.6433
823.8384
893.0615
961.1177
1086.3718
1158.0079
1268.0960
1328.9082
1378.4753
2548.0046
2957.8885
3001.1072
3019.5652

SYMMETRY C1
ELECTRONIC_STATE 3-A
