7
Energy =   -476.527096815     
S -0.207769000 -0.250680000  1.190928000
C -0.272067000  0.059195000 -0.468838000
C  0.319187946 -0.813765145 -1.351958569
H  0.833625326 -1.707903691 -1.020863411
H  0.279808057 -0.618201395 -2.415696274
H -0.893171297  0.834885318  1.613443434
H -0.783087436  0.949306505 -0.813351918

FREQUENCIES 15
358.2800
426.0479
482.0277
805.9856
928.2055
946.7025
1016.8805
1087.0330
1293.9497
1380.6363
1527.0728
2630.6397
3139.4564
3187.0126
3245.2758

SYMMETRY CS
ELECTRONIC_STATE 2-A"
