8
Energy =   -875.001450839     
    S    1.972182    1.155805   -0.432567
    S   -1.640590   -0.200874   -0.682712
    C    0.373067    1.313238    0.527617
    C   -0.472544    0.095726    0.513143
    H   -0.142206   -0.778547    1.064443
    H    1.402993    0.923431   -1.625681
    H    0.714513    1.525844    1.539729
    H   -0.154479    2.188290    0.157824

FREQUENCIES 18
85.6819
199.6917
268.6638
326.2781
477.8221
581.1543
713.7307
804.2004
961.6378
1063.4380
1142.1689
1241.7523
1282.8651
1467.6063
2675.6623
3060.3119
3113.4313
3132.4257

SYMMETRY C1
ELECTRONIC_STATE 3-A
