7
Energy =   -475.915299497     
S  1.082055549  0.253055803  0.410098624
C -1.313667301 -0.552709420 -0.864403531
C -0.658001380  0.139648890 -0.041315648
H  0.897582833  0.203980455  1.766972932
H  1.170648256  1.619461681  0.358788088
H -1.988489380 -1.091935499 -1.537280370
H -1.433966094  0.786333026  0.458249536

FREQUENCIES 15
127.9962
202.2846
561.9693
602.4199
732.1799
805.8066
937.9826
944.2158
1046.4226
1158.8469
1824.3230
2494.4405
2494.5019
2779.5669
3148.5530

SYMMETRY CS
ELECTRONIC_STATE 1-A'
