7
Energy =   -476.751607267     
S  0.177783368  0.189165582  1.171794948
C -0.410712870 -0.036613864 -0.451992446
C  0.359728441 -0.816434847 -1.391928447
H  0.224386001 -1.889377244 -1.489406371
H  1.116317622 -0.362681218 -2.024941374
H -0.836373342  0.942217122  1.629509858
H -1.355212921  0.425115235 -0.708762739

FREQUENCIES 15
138.1035
199.1772
305.2324
525.4964
543.5268
759.5906
932.7992
968.6077
1131.1958
1246.5824
1451.5281
2663.4950
3076.1717
3152.2155
3153.6305

SYMMETRY CS
ELECTRONIC_STATE 3-A"
