7
Energy =   -475.655438049     
S -0.029339372  0.182535707  0.206321371
C  0.031127073 -1.548135870 -0.778172387
C -0.731130700  1.892960100  0.947971956
H  0.528210916 -0.279285854  1.373181699
H  1.133582822  0.699138179 -0.309992461
H -0.974461730 -1.716046035 -1.238957666
H -1.796768585  1.996132314  0.623168735

FREQUENCIES 15
141.8950
178.7111
201.0533
287.4136
315.7894
339.1901
808.2932
909.6309
966.6968
1056.6611
1059.6305
2452.8793
2461.5013
2912.8417
2913.6748

SYMMETRY CS
ELECTRONIC_STATE 1-A'
