7
Energy =   -476.845728467     
    S   -0.136431   -0.178445    1.265906
    C   -0.234758    0.030152   -0.483794
    C    0.309152   -0.809362   -1.357288
    H    0.836611   -1.704124   -1.053857
    H    0.239994   -0.613148   -2.417761
    H   -0.979541    0.810374    1.593480
    H   -0.758143    0.917609   -0.812996

FREQUENCIES 15
52.8280
362.0829
604.5290
705.3879
911.2142
933.1186
986.7968
1073.8230
1302.0446
1426.6186
1650.6169
2695.7964
3139.4030
3173.1413
3224.5031

SYMMETRY C1
ELECTRONIC_STATE 1-A
