7
Energy =   -475.930832281     
S  0.158874861  0.227600379  1.248375670
C -0.228152293 -0.090395095 -0.302269208
C  0.367768442 -0.810771994 -1.362457051
H  0.097144564 -1.865206217 -1.551779747
H  1.011827669 -0.300241618 -2.101008567
H -0.946801745  0.977132256  1.542692242
H -1.183922814  0.314686528 -0.739771283

FREQUENCIES 15
226.2466
282.6247
492.6955
774.0169
775.7305
964.3879
975.2092
1027.3844
1196.7911
1364.7866
1406.6835
2519.2237
2771.3328
2942.6868
3043.7912

SYMMETRY CS
ELECTRONIC_STATE 1-A'
