7
Energy =   -475.855335433     
    S    0.918953    0.600193    0.215182
    C   -1.514263   -0.566571   -0.640842
    C   -0.838558    0.539337   -0.171369
    H    1.106800   -0.579184    0.885081
    H    0.894672    1.473068    1.272882
    H   -1.482072   -1.630242   -0.888438
    H   -1.329502    1.520541   -0.120699

FREQUENCIES 15
227.7240
321.2151
542.6415
658.8073
686.0735
782.1757
825.6627
868.3140
1146.3102
1239.3821
1373.4497
2470.3048
2497.4165
3040.0523
3133.5022

SYMMETRY C1
ELECTRONIC_STATE 3-A
