8
Energy =   -875.068764222     
    S    1.988644    1.118566   -0.322362
    S   -1.813641   -0.114779   -0.424330
    C    0.351841    1.329450    0.489191
    C   -0.426803    0.064158    0.386718
    H    0.027407   -0.786062    0.894825
    H    1.508267    0.895149   -1.556609
    H    0.599108    1.542598    1.531292
    H   -0.181887    2.173832    0.063072

FREQUENCIES 18
82.4496
258.4078
302.9673
375.1912
664.4415
779.3075
838.6294
948.1324
1030.8788
1153.8858
1182.7768
1237.3010
1385.2360
1461.8968
2671.5082
3043.7009
3080.9869
3127.4274

SYMMETRY C1
ELECTRONIC_STATE 1-A
