7
Energy =   -836.651378246     
S  1.740519135 -0.016584902  0.853985048
S -0.881240746  0.399576169  0.231164160
C  0.707926305  1.267140701  0.089859572
H  1.017331185  1.434989433 -0.935926631
H -0.722833749 -0.400571823 -0.843559042
H  0.681191205  2.191877088  0.655801053
H  1.454492276  0.290282338  2.136319123

FREQUENCIES 15
254.6280
375.4847
380.7678
634.9887
718.9666
756.6363
874.1727
1039.1378
1160.1170
1208.6661
1438.3658
2643.2985
2646.9362
3111.3950
3191.0579

SYMMETRY C2
ELECTRONIC_STATE 2-B
