7
Energy =   -836.970725996     
    S    1.965208    0.171000    0.865461
    S   -1.005481    0.599706    0.055870
    C    0.700374    1.236991    0.102496
    H    1.060612    1.432927   -0.904145
    H   -0.737866   -0.524295   -0.627867
    H    0.636549    2.186396    0.627893
    H    1.379166    0.063961    2.068602

FREQUENCIES 15
223.4495
255.9676
291.5648
625.9306
704.0918
732.4303
902.9335
1007.7973
1203.7255
1256.9039
1451.9951
2679.2068
2679.8019
3072.0626
3125.9518

SYMMETRY C1
ELECTRONIC_STATE 1-A
