7
Energy =   -836.115056256     
S  1.435441052 -0.109680266  0.803223528
S -0.638575816  0.250528002  0.384026459
C  0.743542455  1.404211212  0.032260396
H  1.028230399  1.515802233 -1.013490815
H -0.638553649 -0.452130884 -0.793334704
H  0.718989732  2.297995955  0.654868921
H  1.349263506  0.260003603  2.120727261

FREQUENCIES 15
456.9055
501.9252
660.4604
728.6479
765.9365
833.1894
920.0224
1020.5321
1052.5874
1117.6771
1404.0378
2489.3662
2496.6099
3066.0633
3184.8575

SYMMETRY C2
ELECTRONIC_STATE 1-A
