7
Energy =   -836.125279009     
    S    0.695378   -1.866608   -0.004067
    S   -1.033130    0.671678    0.207513
    C    0.255979   -0.207473    0.634039
    H    0.957114   -2.431312    1.216216
    H   -1.617387   -0.167818   -0.699162
    H    0.931796    0.226810    1.373862
    H    2.010483   -1.583031   -0.262584

FREQUENCIES 15
15.8389
274.4616
507.2771
599.3268
854.8926
887.1030
967.6297
989.8341
1090.7058
1151.9204
1318.5090
2493.4929
2494.5009
2524.3862
3105.6303

SYMMETRY C1
ELECTRONIC_STATE 1-A
