7
Energy =   -836.076383501     
    S    1.352606   -0.198847    0.622963
    S   -1.514868    0.561120   -0.344667
    C    0.222215    1.069121   -0.087357
    H    0.645543    1.381041   -1.057713
    H   -1.322408   -0.337712   -1.358310
    H    0.203423    1.928815    0.594619
    H    2.403801    0.665811    0.781188

FREQUENCIES 15
131.4286
202.4142
234.9468
558.5230
655.8976
686.7505
890.8385
934.1218
1113.0260
1247.8328
1353.2053
2505.0042
2522.4936
2932.6347
3027.8321

SYMMETRY C1
ELECTRONIC_STATE 3-A
