6
Energy =   -438.652558208     
    S   -0.547098   -0.213455    0.110150
    C    0.938753    0.473927   -0.061415
    H   -0.731958   -0.998294    1.247032
    H    1.480179    0.086475   -0.907327
    H    1.457799    0.929761    0.764704
    H   -1.403182    0.710256    0.632176

FREQUENCIES 12
226.3961
563.3730
811.6189
908.4922
975.2427
1034.0939
1375.1175
1412.2221
2173.7380
2447.2723
3163.9409
3281.3390

SYMMETRY C1
ELECTRONIC_STATE 1-A
