6
Energy =   -437.669631615     
S -0.140311044 -0.295340775 -0.121203796
C  1.493160187  0.155603783  0.079378653
H -0.790603472  0.737880011 -0.768204518
H  2.383521405 -0.313101596  0.522852992
H -0.371268299 -1.426783099 -0.901596916
H -0.862958481 -0.513947902  1.050337076

FREQUENCIES 12
253.8116
611.6619
656.6016
677.4862
880.1347
1060.3505
1083.6077
1105.2272
2281.8086
2281.9920
2391.5773
3052.3007

SYMMETRY CS
ELECTRONIC_STATE 3-A"
