6
Energy =   -438.518975894     
S  0.057562465 -0.269875007 -0.083143878
C  1.513752695  0.282569291  0.025661382
H -0.731605734  0.629405797 -0.702812985
H  2.241236486 -0.360290690  0.509828931
H -0.462432622 -1.381038884 -0.825378805
H -0.907196350 -0.556044474  0.938296381

FREQUENCIES 12
513.4519
645.4986
730.2379
791.3207
1093.2336
1127.5763
1248.5181
1338.9121
1776.3675
1987.6387
2572.9120
3176.9049

SYMMETRY CS
ELECTRONIC_STATE 1-A'
