7
Energy =   -836.618774224     
    S    1.219175    0.356373   -0.180840
    S   -1.781945    0.294392   -0.390307
    C   -0.323846    1.123315   -0.108049
    H    1.967538    1.190851   -0.952326
    H   -1.278113   -0.930599   -0.640938
    H   -0.383554    2.174792    0.129016
    H    1.838026    0.743388    0.967817

FREQUENCIES 15
72.3932
228.0193
276.0090
581.6414
659.1054
838.9174
840.4224
978.4649
1017.9116
1222.5593
1291.9884
2511.8484
2528.8869
2643.1278
3209.0576

SYMMETRY C1
ELECTRONIC_STATE 2-A
