7
Energy =   -836.078015733     
S  1.514737549  0.025535217  1.648490077
S -0.782389571 -0.224192164 -0.338726571
C  0.591716904  0.821971452  0.278388045
H  1.286480496  1.032684516 -0.551204999
H -1.194699009  0.667815920 -1.292547052
H  0.184202683  1.784617448  0.628482186
H  2.398278677  1.058418991  1.815694112

FREQUENCIES 15
172.2178
185.4876
241.0306
577.1650
651.9495
664.2955
868.2214
974.3474
1062.2757
1242.9848
1320.9375
2510.4794
2513.4197
2937.5864
2977.6232

SYMMETRY C2V
ELECTRONIC_STATE 3-B2
