8
Energy =   -837.278248389     
    S    0.142627    0.266424    0.647413
    S   -1.125581    0.363007   -1.008513
    C    1.240515    1.674373    0.277282
    H    1.923523    1.657514    1.129243
    H   -2.345259    0.279835   -0.424305
    H   -1.131852   -0.926347   -1.425056
    H    1.804978    1.511234   -0.635012
    H    0.697525    2.613875    0.274731

FREQUENCIES 18
103.9745
166.4773
227.3534
449.7108
648.9487
780.7344
795.0014
986.9364
987.1170
1216.0372
1363.1194
1450.7209
1468.5787
2585.2966
2588.3811
3044.2690
3130.9367
3176.6110

SYMMETRY C1
ELECTRONIC_STATE 1-A
