8
Energy =   -837.289468277     
    S    0.289825    0.020180   -0.496255
    S   -1.769944    0.162154   -0.279857
    C    0.949943    1.667822   -0.104971
    H    0.868330    1.780541    0.972965
    H   -1.803185   -0.876584    0.578409
    H    0.368029    0.082766   -1.844212
    H    1.996620    1.648742   -0.408636
    H    0.394747    2.437387   -0.631922

FREQUENCIES 18
178.4158
192.6852
250.8617
480.2617
650.7732
732.2495
854.6704
954.4007
1010.8688
1108.0449
1364.2996
1449.3372
1459.0566
2611.9779
2655.4289
3050.1507
3148.9768
3176.3772

SYMMETRY C1
ELECTRONIC_STATE 1-A
