9
Energy =   -477.601221562     
S  0.391671843  0.408043673 -0.246208179
C -1.059053670 -0.361235565 -0.623126166
C  1.399096032  0.183760684  1.085428360
H -1.897685424 -0.075919712  0.001841845
H  1.947878268 -0.751188989  1.084696500
H -0.955347286 -1.394862983 -0.933211179
H  1.005540130  0.567754282  2.019749524
H  1.184260115  0.212926563 -1.324290560
H  0.101278881  1.728720899 -0.249681736

FREQUENCIES 21
247.1268
251.1934
428.9742
525.4855
597.9758
626.3988
645.9125
809.5647
845.9300
979.8596
1011.9144
1069.8669
1172.0367
1390.2642
1393.6727
2570.7208
2592.7574
3115.4965
3115.6719
3238.8180
3239.0926

SYMMETRY C2V
ELECTRONIC_STATE 2-B2
