9
Energy =   -477.080255241     
    S    0.397235    0.420805   -0.258115
    C   -1.016228   -0.558430   -0.529376
    C    1.243288    0.127717    1.234854
    H   -1.675363   -0.705941    0.323875
    H    1.368559   -0.913531    1.525235
    H   -1.183501   -0.895537   -1.551300
    H    1.654583    1.001459    1.738242
    H    1.193998    0.266660   -1.373787
    H    0.135449    1.774871   -0.294178

FREQUENCIES 21
134.5167
179.1310
269.4135
536.3420
596.2801
606.2277
677.9244
753.2502
799.9216
852.8482
1023.1037
1033.9152
1140.7741
1338.6643
1350.3724
2376.9600
2383.6995
3057.5236
3061.9718
3224.7162
3227.0366

SYMMETRY C1
ELECTRONIC_STATE 3-A
