9
Energy =   -477.989276768     
    S   -0.161892   -0.077379    0.581448
    C   -1.186272   -0.066784   -0.703278
    C    1.563233   -0.053521   -0.011625
    H   -2.086461    0.501041   -0.541370
    H    1.693123   -0.796461   -0.794857
    H   -1.144822   -0.822587   -1.471712
    H    0.023479   -1.328584    1.159775
    H    1.754876    0.941017   -0.405349
    H    2.218992   -0.271471    0.832227

FREQUENCIES 21
189.0208
205.4028
386.0685
483.9082
641.3292
774.0042
893.4516
932.1100
969.6919
1038.1618
1187.2563
1335.0896
1410.9384
1453.3810
1475.1129
2203.7098
3031.4349
3124.7869
3146.8521
3152.8297
3270.2770

SYMMETRY C1
ELECTRONIC_STATE 1-A
