9
Energy =   -477.206511043     
    S    0.652050    1.388221   -0.694660
    C   -0.093353   -0.067922    0.202663
    C    0.782711   -0.933876    0.920615
    H   -0.880979   -0.586755   -0.366275
    H    1.838768   -0.727117    1.121083
    H   -0.682646    0.334888    1.082309
    H    0.358455   -1.840913    1.365754
    H    0.644201    0.858507   -1.949966
    H   -0.501186    2.093042   -0.866069

FREQUENCIES 21
136.7774
231.8863
330.6314
526.1460
605.9519
833.8179
858.4532
1001.1197
1042.1408
1141.4043
1181.8201
1236.9285
1296.4696
1329.0752
1493.1962
2548.8112
2553.2201
2721.6999
2983.4465
3042.6794
3148.3596

SYMMETRY C1
ELECTRONIC_STATE 1-A
