9
Energy =   -477.861213553     
    S   -0.293089    0.546648   -0.083571
    C   -1.630040   -0.111460    0.367465
    C    1.396624   -0.230157   -0.243508
    H   -0.021586    1.379399   -1.227344
    H    2.134657    0.565486   -0.358764
    H   -2.055895   -0.867742   -0.282660
    H    1.570521   -0.819630    0.653588
    H    1.372893   -0.869389   -1.123445
    H    0.061473    1.499368    0.804775

FREQUENCIES 21
191.4056
266.5123
414.6179
536.3813
624.8987
718.1922
803.7231
845.0960
1043.8239
1088.9199
1217.1635
1223.1402
1286.8536
1438.1514
1461.5927
1850.8287
2541.6870
3020.5071
3128.2682
3149.2194
3179.9500

SYMMETRY C1
ELECTRONIC_STATE 1-A
