9
Energy =   -477.842554997     
S  0.460057694  0.560221823 -0.394745679
C -1.008935134 -0.302016169 -0.696579769
C  1.413445661  0.270043742  1.019236699
H -1.907417038  0.046360009 -0.207808787
H  2.091399807 -0.571228745  1.006139217
H -0.934525221 -1.285819286 -1.137178631
H  1.118507990  0.760950550  1.935509061
H  1.198256776 -0.516389924 -1.077984757
H -0.314650834  1.555232183  0.367243466

FREQUENCIES 21
228.9751
259.4222
400.5432
497.1781
507.3801
622.2870
745.2638
758.2674
867.6567
944.7644
1020.6151
1198.5847
1254.4643
1371.8001
1372.1603
1532.7377
1847.2896
3125.5451
3125.5659
3265.5305
3265.6482

SYMMETRY C2V
ELECTRONIC_STATE 3-B2
