9
Energy =   -477.174089573     
S -0.171822767 -0.698598814  1.091957405
C -0.511178347  0.071472763 -0.508193302
C  1.194960608 -0.107923571  0.066452313
H -0.918262359  1.081453944 -0.417862049
H  1.817684092 -0.877729434 -0.396258148
H -0.862794041 -0.595883720 -1.299071486
H -0.169655121 -2.002484223  0.678466794
H  0.647888909  0.343287805 -1.016527112
H  1.646671926  0.811757384  0.446034901

FREQUENCIES 21
397.4189
504.2088
533.5586
743.3761
785.4521
820.7353
876.5426
1005.8455
1029.0955
1141.0652
1157.3586
1214.7195
1375.9544
1401.9436
1582.8660
2021.7124
2514.9251
3026.4173
3037.0772
3161.0725
3165.4416

SYMMETRY CS
ELECTRONIC_STATE 1-A'
