4
Energy =   -474.885534378     
S  1.063179421 -0.018588399  0.108346676
C -0.544343134  0.240627277  0.005699414
C -1.816776000  0.288342000 -0.095779000
H  1.501942154  1.249218450  0.308313392

FREQUENCIES 6
181.6283
229.2674
760.8872
988.9378
1893.7518
2557.2106

SYMMETRY CS
ELECTRONIC_STATE 2-A"
