4
Energy =   -474.691117150     
S -0.467150913  0.124723959 -0.255531572
C -1.434700666 -1.143937817  0.324586894
C -0.056507944  1.761694044 -0.071428470
H  0.283055547 -0.371422401 -1.285010788

FREQUENCIES 6
246.6972
277.2859
700.4860
701.3171
823.5645
2398.0972

SYMMETRY C2V
ELECTRONIC_STATE 4-B1
