5
Energy =   -873.103646086     
    S   -1.216159   -0.081549   -0.698150
    S    1.823957    0.029726   -0.144280
    C   -1.472895    0.890363    0.587764
    C    0.515582   -0.758354   -0.595402
    H    0.501065   -1.802789   -0.903262

FREQUENCIES 9
67.0147
167.2465
343.3364
477.0336
744.9371
918.5875
1097.1749
1218.2688
3086.0120

SYMMETRY C1
ELECTRONIC_STATE 2-A
