4
Energy =   -474.769725946     
S  0.927410000 -0.016708000  0.095591000
C -0.626946000  0.753772000  0.066115000
C -1.728178189 -0.092539169 -0.138110495
H  1.631635271  1.114950032  0.303949935

FREQUENCIES 6
312.7081
376.6413
681.7948
882.0952
1159.5303
2626.8289

SYMMETRY CS
ELECTRONIC_STATE 4-A"
