4
Energy =   -474.570612951     
S  0.444824000  0.138314000 -0.897596000
C  0.064476000 -1.129510000  0.050161000
C -0.899020580 -0.116770942  0.283867467
H  0.421483957 -2.127763691  0.283169393

FREQUENCIES 6
644.4823
866.1744
904.5166
1030.2342
1265.7583
3195.4417

SYMMETRY CS
ELECTRONIC_STATE 1-A'
