4
Energy =   -474.509241482     
    S    1.044474   -0.017955    0.106878
    C   -0.506927    0.250502    0.010080
    C   -1.834266    0.267004   -0.099994
    H    1.500658    1.259955    0.310344

FREQUENCIES 6
112.6812
217.6691
816.3989
994.2696
1762.2252
2473.4149

SYMMETRY C1
ELECTRONIC_STATE 1-A
