4
Energy =   -473.860208437     
S  1.023034000 -0.046386000  0.101410000
C -0.497591000  0.413768000  0.032089000
C -1.863575927  0.145426690 -0.118299285
H  1.542041119  1.246647717  0.312509422

FREQUENCIES 6
251.0810
298.8362
690.8654
866.8112
1199.9274
2199.0202

SYMMETRY CS
ELECTRONIC_STATE 2-A'
