5
Energy =   -872.192179216     
    S   -1.006383   -0.434066   -0.747127
    S    1.000080    1.909507    0.102122
    C    0.122650    0.791663   -0.319563
    C   -0.606991   -1.998533    0.414229
    H   -0.422885   -0.839649   -1.923782

FREQUENCIES 9
124.6168
294.4654
326.6975
368.3831
473.5479
538.9766
925.3066
1568.8980
2446.4955

SYMMETRY C1
ELECTRONIC_STATE 2-A
