5
Energy =   -872.202383901     
    S   -2.095874    0.867649    0.468700
    S    0.890535    0.299973   -0.417463
    C   -0.664536    0.556252    0.051039
    C    0.739462   -1.273224   -1.265574
    H    1.007425   -2.255987   -0.854868

FREQUENCIES 9
128.2362
250.6826
377.2942
401.8384
585.9661
604.2918
801.6591
1201.9464
3051.3545

SYMMETRY C1
ELECTRONIC_STATE 4-A
