4
Energy =   -474.807623746     
    S    0.447585    0.200037   -0.877259
    C   -0.185427   -1.335844   -0.104091
    C   -0.747278   -0.095478    0.302243
    H    0.516765   -2.004521    0.398561

FREQUENCIES 6
560.7341
844.1839
855.4345
964.8493
1249.0894
3028.0553

SYMMETRY C1
ELECTRONIC_STATE 4-A
