4
Energy =   -474.628874163     
    S   -1.190599    0.397711   -0.081005
    C    1.492701   -0.433840    0.120741
    C    0.298347   -0.063795    0.030808
    H    2.516212   -0.751594    0.197828

FREQUENCIES 7
330.3911
330.3915
615.4274
615.4447
882.5584
1759.7582
3329.2137

SYMMETRY C*V
ELECTRONIC_STATE 3-SG
