4
Energy =   -474.330810507     
S -0.380888977  0.066251365 -0.377207223
C -1.478198853 -0.971191119  0.450141384
C -0.171552427  1.717007839  0.065582636
H  0.353308621 -0.440851321 -1.427388105

FREQUENCIES 6
172.7921
190.5354
256.3717
554.9124
716.2447
2355.5787

SYMMETRY C2V
ELECTRONIC_STATE 3-A2
