4
Energy =   -474.911580699     
S  0.501797000  0.171507000 -0.959095000
C  0.024296000 -1.116093000  0.074326000
C -0.896750797 -0.189695479  0.319689229
H  0.402026570 -2.101708250  0.284178249

FREQUENCIES 6
467.1961
710.8444
794.4306
988.7143
1511.0771
3258.2571

SYMMETRY CS
ELECTRONIC_STATE 2-A"
