4
Energy =   -473.860358129     
S  1.077550255 -0.073033136  0.102440813
C -0.510106524  0.230687201  0.007321201
C -1.796933000  0.327425000 -0.089038000
H  1.433459145  1.274470947  0.306242561

FREQUENCIES 6
331.6218
350.9970
748.5249
786.6839
1678.8214
2195.4377

SYMMETRY CS
ELECTRONIC_STATE 4-A"
