5
Energy =   -873.111319264     
    S   -0.970606   -0.442037   -0.510585
    S    2.027791   -0.398537    0.557822
    C    0.602499   -0.478404   -0.039604
    C   -1.890457    0.460989    0.565583
    H   -1.305539    0.874616    1.394813

FREQUENCIES 9
147.6484
189.0469
406.2300
530.4203
551.7003
700.7172
964.8726
1412.8728
3052.6125

SYMMETRY C1
ELECTRONIC_STATE 2-A
