4
Energy =   -473.858135653     
S -0.728430049  0.161592453  0.091613576
C  2.236909898  0.145555953  0.029248901
C  0.845010000 -0.017539000  0.026624000
H -0.748320222  1.547887062  0.351182741

FREQUENCIES 6
227.1783
242.3916
636.3410
836.0686
1225.4455
2191.6327

SYMMETRY CS
ELECTRONIC_STATE 2-A'
