3
Energy =   -435.805668841     
S -0.443426404 -0.369631556 -0.000000000
C  0.828573503  0.547894599  0.000000000
H  1.738008887  1.207339616  0.000000000

FREQUENCIES 4
737.9670
766.2419
1175.8794
2868.1193

SYMMETRY CS
ELECTRONIC_STATE 2-A'
