3
Energy =   -436.790921757     
    S   -0.176761    0.170891    0.000000
    C    1.325519   -0.492062    0.000000
    H    0.065372    1.524452    0.000000

FREQUENCIES 3
790.3442
933.0767
2353.9499

SYMMETRY CS
ELECTRONIC_STATE 2-A'
