3
Energy =   -436.415130489     
    S   -0.490326   -0.228337    0.000000
    C    1.086661    0.305394    0.000000
    H    1.526014    1.309663    0.000000

FREQUENCIES 3
805.3644
967.2925
3078.4501

SYMMETRY CS
ELECTRONIC_STATE 3-A"
