3
Energy =   -435.719061161     
    S   -0.611117   -0.288100    0.000000
    C    1.156054    0.316083    0.000000
    H    1.577413    1.358735    0.000000

FREQUENCIES 3
604.8713
808.8893
2830.8595

SYMMETRY CS
ELECTRONIC_STATE 4-A"
