3
Energy =   -436.449913027     
    S   -0.317452    0.084314    0.000000
    C    1.262919   -0.233627    0.000000
    H    0.268662    1.352594    0.000000

FREQUENCIES 3
466.8421
1093.7645
2344.5166

SYMMETRY CS
ELECTRONIC_STATE 1-A'
