3
Energy =   -436.569310289     
    S    0.541034    0.428780    0.000000
    C   -0.730954   -0.330041    0.000000
    H   -1.675733   -0.895876   -0.000000

FREQUENCIES 4
891.2929
891.2929
1421.9357
3094.6223

SYMMETRY C*V
ELECTRONIC_STATE 1-SG
