3
Energy =   -436.397315627     
    S   -0.184674    0.145619    0.000000
    C    1.290717   -0.436659    0.000000
    H    0.108086    1.494319    0.000000

FREQUENCIES 3
933.0123
1067.2657
2382.9951

SYMMETRY CS
ELECTRONIC_STATE 3-A'
