4
Energy =   -835.118472100     
S  1.221988564  0.422493613 -0.199673946
S -1.371904620 -0.468761485 -0.591140552
C -0.389920935  0.674085111  0.104201415
H -0.764180993  1.502567560  0.697869949

FREQUENCIES 6
307.5219
836.3673
906.3668
909.1622
1221.1535
3121.5594

SYMMETRY C2V
ELECTRONIC_STATE 2-B2
