4
Energy =   -834.794964480     
S  1.027117238  0.219373368 -0.311411396
S -1.073198828 -0.502339509 -0.628416335
C -0.441728141  0.790053812  0.183304966
H -0.816267432  1.623365749  0.767645812

FREQUENCIES 6
421.4718
763.3438
864.3844
1058.1536
1088.6289
3196.2681

SYMMETRY C2V
ELECTRONIC_STATE 1-A1
