4
Energy =   -834.773352038     
S  1.179243389  0.362022495 -0.235316483
S -1.293795734 -0.487739873 -0.608559513
C -0.407370185  0.712956946  0.131420652
H -0.782040762  1.543234759  0.723625023

FREQUENCIES 6
305.5572
739.1580
862.2548
930.0666
1189.8627
3151.8480

SYMMETRY C2V
ELECTRONIC_STATE 3-B1
