4
Energy =   -835.102663651     
S  0.419792000  1.672669000 -0.114248000
S -0.959556000 -1.078273000  0.212309000
C -0.565610187  0.457420028 -0.258279245
H  0.022319245 -1.381532339  1.117576935

FREQUENCIES 6
232.7873
441.3256
602.5757
944.9668
1308.7469
2416.2666

SYMMETRY CS
ELECTRONIC_STATE 2-A'
