4
Energy =   -834.832801988     
S  0.630894654  1.739002465 -0.035463529
S -0.573909400 -1.158776513 -0.135457536
C  0.047271000  0.355233000 -0.018860000
H -0.796528133 -1.279124454  1.199062073

FREQUENCIES 6
326.4594
380.2363
615.9992
939.5109
1570.3831
2576.8524

SYMMETRY CS
ELECTRONIC_STATE 1-A'
