4
Energy =   -834.217068530     
S  0.641080646  1.759928468 -0.046280530
S -0.574941403 -1.163489512 -0.142840536
C  0.054428000  0.372716000 -0.017405000
H -0.812838765 -1.312818608  1.215806123

FREQUENCIES 6
305.0203
309.9005
565.4061
925.3566
1321.9987
2374.7541

SYMMETRY CS
ELECTRONIC_STATE 2-A"
