4
Energy =   -834.939604049     
    S    1.155099    0.085879    0.591520
    S   -0.797367    0.359443   -0.045920
    C   -1.572843   -1.165737   -0.132944
    H    0.933285    0.080920    1.923459

FREQUENCIES 6
266.8470
331.0648
419.4330
712.2870
836.0543
2606.3396

SYMMETRY C1
ELECTRONIC_STATE 4-A
