4
Energy =   -834.177633673     
S  1.305267800  0.533040270 -0.150191516
S -1.514350075 -0.435683406 -0.575652008
C -0.356481390  0.599239929  0.053176290
H -0.738388515  1.433816208  0.683924291

FREQUENCIES 6
294.2803
698.8052
713.9527
745.9226
1110.4445
2858.0787

SYMMETRY C2V
ELECTRONIC_STATE 4-B1
