4
Energy =   -835.002746959     
    S    0.626348    0.884767   -0.205419
    S   -0.369769   -0.894992   -0.010602
    C   -1.160820    0.845571    0.081380
    H   -0.113861   -1.166091    1.294682

FREQUENCIES 6
373.4725
491.3139
579.8479
680.0847
890.2618
2536.6285

SYMMETRY C1
ELECTRONIC_STATE 2-A
