4
Energy =   -834.728096756     
    S    0.699339   -0.595569    0.908339
    S   -1.375354   -0.311706    1.013375
    C   -0.694121   -0.438083   -0.486218
    H    1.088310    0.705865    0.900619

FREQUENCIES 6
441.9036
488.3249
638.3369
924.1349
959.5680
2575.4300

SYMMETRY C1
ELECTRONIC_STATE 1-A
