4
Energy =   -834.206037773     
S  0.988429127  0.165964754 -0.341812338
S -1.003846942 -0.518608638 -0.642501327
C -0.454348615  0.818482111  0.202292327
H -0.834282569  1.664711927  0.793025329

FREQUENCIES 6
488.2692
607.2632
863.7107
1013.9364
1024.4835
3061.9331

SYMMETRY C2V
ELECTRONIC_STATE 2-A2
