4
Energy =   -834.108786242     
S  0.479492000  1.715490000 -0.090176000
S -0.975643000 -1.091913000  0.206697000
C -0.634053968  0.401898285 -0.282418240
H  0.047772620 -1.355600414  1.122442876

FREQUENCIES 6
206.5071
372.8983
518.1763
852.4599
954.1779
2247.1502

SYMMETRY CS
ELECTRONIC_STATE 4-A"
