2
Energy =   -398.392658736     
    S    0.132204    0.000000    0.000000
    H   -1.237441    0.000000    0.000000

FREQUENCIES 1
2532.5471

SYMMETRY C*V
ELECTRONIC_STATE 3-SG
