2
Energy =   -397.574136865     
    S    0.177668    0.000000    0.000000
    H   -1.278729    0.000000    0.000000

FREQUENCIES 1
1953.3481

SYMMETRY C*V
ELECTRONIC_STATE ??
