2
Energy =   -398.326102353     
    S    0.134441    0.000000    0.000000
    H   -1.235502    0.000000    0.000000

FREQUENCIES 1
2536.9317

SYMMETRY C*V
ELECTRONIC_STATE ??
