3
Energy =   -796.684395624     
    S    0.880997   -0.100521    0.000000
    S   -0.982235    0.154598    0.000000
    H    1.008441   -1.466606    0.000000

FREQUENCIES 3
709.2381
957.3445
2469.1588

SYMMETRY CS
ELECTRONIC_STATE 1-A'
