3
Energy =   -796.004194960     
    S    1.076209   -0.098471    0.000000
    S   -1.180281    0.171806    0.000000
    H    1.011276   -1.485864    0.000000

FREQUENCIES 3
373.5904
753.6878
2375.2011

SYMMETRY CS
ELECTRONIC_STATE 4-A'
