3
Energy =   -796.936948170     
    S    1.653266    0.341392    0.000000
    S   -0.787557   -0.408539    0.000000
    H    1.926147   -0.974615    0.000000

FREQUENCIES 3
274.8954
475.3272
2678.3954

SYMMETRY CS
ELECTRONIC_STATE 4-A"
