3
Energy =   -797.031056844     
    S    0.922702   -0.111332    0.000000
    S   -1.035752    0.162092    0.000000
    H    1.020253   -1.463288    0.000000

FREQUENCIES 3
584.9734
910.1835
2554.6057

SYMMETRY CS
ELECTRONIC_STATE 2-A"
