1
Energy =   -397.665661761     
  S            0.00000000          0.00000000          0.00000000

FREQUENCIES 0

SYMMETRY R3
ELECTRONIC_STATE ??
