2
Energy =   -795.451345671     
    S   -0.884179    0.000000    0.000000
    S    0.884179    0.000000    0.000000

FREQUENCIES 1
920.9273

SYMMETRY D*H
ELECTRONIC_STATE 1-SGG
