2
Energy =   -796.433240378     
    S   -0.951274    0.000000    0.000000
    S    0.951274    0.000000    0.000000

FREQUENCIES 1
715.7461

SYMMETRY D*H
ELECTRONIC_STATE 3-SGG
