15
Energy =   -382.047101694     
    O   -0.559278    2.215758   -0.001285
    O    1.934262    1.205092   -0.138316
    O    1.751019   -1.458079    0.222741
    O   -0.827322   -2.118635   -0.172854
    O   -2.293392    0.132315    0.035822
    H   -0.546977    2.969562    0.594574
    H    2.444907    1.339256   -0.942028
    H    2.050155   -1.877192    1.034580
    H   -1.077055   -2.548578   -0.995880
    H   -2.919652    0.230445    0.758433
    H    0.367004    1.883930   -0.063631
    H    1.918245    0.232668    0.023641
    H    0.821136   -1.751175    0.073975
    H   -1.399438   -1.320929   -0.084653
    H   -1.725901    0.936726    0.032702

FREQUENCIES 39
45.6569
57.8208
72.4901
73.7632
158.4234
222.0719
226.8761
228.5301
254.7760
289.5185
295.0666
306.2661
322.4343
363.6586
420.0171
439.9036
476.5942
498.2858
551.5289
736.9537
843.5978
898.8770
924.4537
1043.1669
1641.9208
1647.8565
1661.8143
1677.3796
1691.4008
3317.8637
3415.8373
3431.5604
3483.5754
3499.7721
3961.3245
3964.7501
3966.8916
3968.2753
3969.1307

SYMMETRY C1
ELECTRONIC_STATE 1-A
