20
Energy =   -874.597523002     
    C   -0.516113    0.235781    0.912092
    C    0.402019   -0.940476    0.433164
    N    0.464270    1.180047    1.555192
    O    1.403110   -1.116105    1.178240
    O    0.093469   -1.513515   -0.620797
    H   -1.186551   -0.124478    1.698864
    H    0.042129    1.873724    2.169156
    H    1.117614    0.539841    2.048435
    H   -2.003145   -1.100724   -1.123349
    C   -1.299355    0.925884   -0.193292
    S   -2.741363   -0.053891   -0.717722
    H   -0.644475    1.124469   -1.044787
    H   -1.711325    1.876857    0.161400
    O    1.953831    1.581427   -0.656675
    H    2.329046    0.693125   -0.924035
    H    2.422665    2.257120   -1.154389
    O    2.800072   -0.869566   -1.206712
    H    2.775912   -1.204486   -0.291511
    H    2.012900   -1.296912   -1.582779
    H    1.039694    1.618508    0.795082

FREQUENCIES 54
55.5220
82.2679
86.0925
120.8299
147.3638
187.3962
210.3679
226.6539
241.3163
280.4894
292.5805
306.1217
315.9917
358.8034
403.7020
411.3312
501.9771
542.3179
563.8853
584.2117
751.6712
765.3332
807.0969
838.5273
885.1721
949.8200
1004.6221
1011.5354
1072.9689
1114.4808
1155.3680
1243.6207
1309.0732
1343.5536
1379.3056
1414.4347
1463.4988
1492.4059
1588.3273
1670.5145
1685.3632
1695.3556
1783.8304
2700.8663
3025.0357
3091.9538
3124.4164
3154.5875
3166.8361
3270.2866
3571.9706
3731.9023
3819.8370
3963.1607

SYMMETRY C1
ELECTRONIC_STATE 1-A
