18
Energy =   -458.122955865     
    O    1.576373   -0.190801    1.268104
    H    0.757602   -0.664439    1.514187
    H    2.205998   -0.274746    1.994792
    O    0.512068    2.119140    0.348924
    H    1.053625    1.391154    0.732719
    H    1.082633    2.749260   -0.106876
    O    1.319023   -1.133523   -1.329582
    H    1.890115   -1.707416   -1.852143
    H    1.746996   -0.933761   -0.479141
    O   -1.623857    1.293553   -0.482210
    H   -0.698026    1.730938   -0.162013
    H   -2.218974    1.902822   -0.939718
    O   -1.230613   -0.917763   -1.448145
    H   -0.218879   -1.080275   -1.436301
    H   -1.484458    0.339339   -0.977693
    O   -0.935114   -1.255072    1.032761
    H   -1.102977   -2.206388    0.996314
    H   -1.716429   -0.867155    1.449410

FREQUENCIES 48
41.9846
48.6776
69.2573
81.9104
102.6329
138.2623
166.4486
229.3913
234.3533
245.8863
268.2995
300.3142
320.5477
339.5629
389.3905
401.7034
421.6568
464.4512
488.3205
499.3232
509.6659
543.6992
617.9196
709.0782
822.1260
843.8085
853.0861
1011.9010
1130.3286
1240.1019
1492.5097
1603.3884
1628.8849
1646.1254
1654.0195
1777.2894
1995.6026
2268.7621
2875.2973
3458.8192
3652.6256
3738.7053
3834.6999
3884.8039
3917.7266
3929.6671
3938.3318
3943.3308

SYMMETRY C1
ELECTRONIC_STATE 2-A
