23
Energy =   -951.013443037     
    C   -0.324867   -0.938626    0.501493
    C   -1.747394   -1.210177   -0.033254
    O   -2.727053   -0.409817    0.308848
    O   -1.926088   -2.231450   -0.663835
    N    0.590187   -1.526547   -0.515051
    H   -0.232926   -1.536426    1.416956
    H    1.547412   -1.674220   -0.124919
    H    0.165276   -2.375402   -0.901497
    H    0.658523   -0.783848   -1.250483
    O    3.251207    1.273735    0.027297
    O   -2.410578    2.166547    0.456565
    H    3.908417    1.749851   -0.489344
    H   -3.160138    2.593532    0.028188
    H    2.364689    1.514669   -0.347446
    H   -1.623201    2.300988   -0.124504
    C    0.097443    0.506132    0.751666
    H    1.050192    0.489880    1.294316
    H   -0.630689    0.972255    1.421860
    S    0.266767    1.423616   -0.824884
    H   -2.504670    0.557253    0.472090
    H    3.570684   -1.607634    1.286017
    O    3.122087   -1.339953    0.479102
    H    3.312430   -0.379471    0.328034

FREQUENCIES 63
46.2691
62.6436
67.9477
80.6323
96.2682
149.7389
173.0219
190.3710
207.1993
227.6724
239.1064
247.9072
254.6810
277.2466
325.7274
334.4362
390.4777
414.5302
450.3342
500.7829
504.0557
540.5980
573.0869
586.8819
696.2858
713.9484
732.2986
787.3651
850.6698
910.5892
924.9515
935.0296
976.5111
1068.9927
1099.9572
1176.7717
1215.2370
1300.5653
1335.1504
1347.4006
1364.9051
1447.3198
1483.8486
1505.2182
1601.9880
1630.1030
1643.1493
1665.1582
1689.1024
1848.7007
3034.3857
3071.2538
3084.9438
3091.0802
3099.9249
3132.4640
3268.2475
3365.1291
3420.5045
3468.1065
3944.3361
3951.7078
3966.1669

SYMMETRY C1
ELECTRONIC_STATE 1-A
