23
Energy =   -951.012304796     
    C    0.799988    0.674668    0.130644
    C    0.000394   -0.657835    0.258760
    N    0.092626    1.625287    1.043241
    O   -0.689167   -0.739886    1.312830
    O    0.138925   -1.479886   -0.658354
    H    0.741212    1.056211   -0.890888
    H    0.678410    2.373076    1.410827
    H   -0.755512    2.006138    0.519063
    H    2.300099   -1.344871   -0.925373
    C    2.252647    0.485315    0.561237
    S    3.236816   -0.406349   -0.687281
    H    2.290784   -0.034210    1.524433
    H    2.746416    1.456799    0.673477
    O   -2.559587   -2.168211   -0.098076
    H   -1.827911   -2.366472   -0.704552
    H   -2.066303   -1.899291    0.701666
    O   -3.593157    0.165185   -0.712446
    H   -4.495043    0.178252   -0.378835
    H   -3.224930   -0.747838   -0.527285
    H   -0.287329    1.005948    1.789363
    H   -2.046850    2.648993   -1.239179
    O   -2.047994    2.207062   -0.384537
    H   -2.658142    1.409541   -0.472930

FREQUENCIES 63
33.4039
54.6894
60.8507
81.1247
84.2369
96.3111
146.2325
168.4423
182.9195
234.9366
258.6248
267.7248
292.0916
305.7802
317.0403
328.2823
336.6711
356.5645
399.3344
443.1320
489.2882
523.7337
581.1803
612.3451
676.5285
756.6084
772.9424
813.0355
852.6557
889.1732
988.3119
1014.6212
1019.3312
1065.9328
1097.6121
1134.8574
1144.1242
1227.5654
1305.4188
1332.6810
1372.5546
1422.9013
1470.6764
1491.1571
1577.8944
1658.1635
1693.8986
1705.9633
1729.0600
1778.0492
2644.1129
2674.5440
2977.1249
3069.7980
3123.6722
3138.6150
3154.2583
3229.9201
3567.8341
3671.3005
3826.5499
3949.9673
3959.7236

SYMMETRY C1
ELECTRONIC_STATE 1-A
