23
Energy =   -950.764004051     
    C    0.360775   -1.204813    0.681912
    C    1.487283   -0.239366    0.324112
    N   -0.616543   -0.450846    1.514594
    O    1.507174    0.901259    0.747562
    O    2.374293   -0.794566   -0.455538
    H    0.772928   -2.022197    1.282354
    H   -0.176091   -0.076538    2.357920
    H   -0.972081    0.380625    0.927473
    H    3.105965   -0.124788   -0.655558
    C   -0.333611   -1.770316   -0.563846
    S   -1.794808   -2.754797   -0.192674
    H    0.384914   -2.366132   -1.133492
    H   -0.660508   -0.950508   -1.218747
    O   -3.472036    2.663448   -0.906562
    H   -3.989118    3.295919   -0.395589
    H   -3.811776    2.685801   -1.808175
    O   -1.167468    1.438057   -0.197986
    H   -0.433480    2.065543   -0.222498
    H   -1.993755    1.910152   -0.445508
    H   -1.396669   -1.069060    1.764358
    H    4.984497    1.119669   -1.056219
    O    4.052170    1.112039   -0.811103
    H    3.904501    1.795344   -0.145416

FREQUENCIES 63
21.0124
32.7473
51.2525
60.5034
67.6390
82.1890
101.4681
128.5906
152.0835
158.3447
204.6673
219.6668
235.2174
263.7721
280.6500
301.7946
303.8578
317.2127
346.8764
398.2370
417.0761
444.2426
461.2236
530.3319
597.2531
638.6748
702.6517
765.3168
810.9470
847.4677
903.0029
964.7789
1004.7852
1074.3253
1100.5899
1173.5129
1249.7256
1278.4636
1336.4843
1364.1531
1416.6023
1431.8808
1533.6381
1548.1556
1594.2657
1608.0053
1632.1561
1657.2467
1700.7164
1844.9969
2526.2699
2986.9693
3067.3253
3124.9378
3144.8722
3430.4328
3502.3815
3527.5333
3855.3447
3872.1988
3903.9466
3975.9413
3984.9429

SYMMETRY C1
ELECTRONIC_STATE 2-A
