23
Energy =   -950.719680803     
    C    0.625228   -0.049187   -0.347259
    C   -0.906355    0.007658   -0.190506
    N    1.178230    1.175195   -0.048359
    O   -1.397192    0.915092    0.460602
    O   -1.486955   -0.986114   -0.764854
    H    0.956603   -0.453715   -1.305931
    H    0.594932    1.822191    0.484840
    H    2.160759    1.400437   -0.254628
    H   -2.560770   -0.981226   -0.651857
    C    1.094365   -1.212376    0.755984
    S    2.787384   -1.680950    0.619398
    H    0.476096   -2.071882    0.487574
    H    0.823500   -0.819769    1.736332
    O   -4.220927    1.375857    0.624092
    H   -3.295351    1.562115    0.840905
    H   -4.777278    1.698289    1.340755
    O   -3.912229   -0.968370   -0.455568
    H   -4.215302   -0.114381   -0.043210
    H   -4.492857   -1.197128   -1.190248
    H    3.318561   -0.623590    1.258831
    O    3.998286    1.396245   -0.231741
    H    4.521135    1.040645   -0.961365
    H    4.501925    2.143171    0.115434

FREQUENCIES 63
31.8850
38.6987
57.8796
70.3630
75.0841
102.2655
125.5124
129.1842
167.9332
177.3176
223.1687
235.8676
239.0958
270.1487
313.5140
333.4973
340.0230
355.4749
371.2642
386.9579
401.7074
424.6710
495.7451
510.3586
575.9668
590.5638
630.8846
693.3450
748.6615
756.2101
801.0217
861.0581
892.6723
951.2728
1014.2788
1099.2147
1161.2845
1207.4447
1223.4737
1237.7953
1298.2922
1366.4987
1444.9389
1457.3506
1592.3414
1602.7812
1615.5844
1647.5192
1655.7499
1810.1112
2089.7434
2737.3244
3123.2722
3153.6347
3210.2824
3247.6048
3311.1547
3557.2401
3821.8170
3849.8858
3925.7350
3954.3805
3968.8148

SYMMETRY C1
ELECTRONIC_STATE 2-A
