26
Energy =   -1027.12807049     
    C    0.793781    0.531539   -0.424725
    C   -0.714850    0.542028   -0.732978
    N    0.935024    1.010210    0.972222
    O   -0.953931    0.017920   -1.912436
    O   -1.553359    0.989634    0.016282
    H    1.271846    1.265302   -1.082810
    H    0.399957    0.357735    1.623697
    H    1.930224    0.972941    1.222473
    C    1.421950   -0.855546   -0.601443
    S    3.166486   -0.901715   -0.082953
    H    1.317754   -1.172820   -1.641292
    H    0.890478   -1.581404    0.019215
    H    3.660109   -0.247420   -1.147157
    H    0.577239    1.981960    1.038855
    O   -3.434611   -0.648490   -1.159447
    H   -3.616752    0.186188   -0.709664
    H   -4.210980   -0.878311   -1.682377
    O   -0.292174   -0.929686    2.290010
    H   -0.576782   -1.030507    3.204352
    H   -0.923861   -1.404047    1.703631
    O   -0.170915    3.460185    0.347983
    H   -1.133512    3.383747    0.329733
    H    0.040406    4.397048    0.434486
    H   -1.600016   -3.042939    0.151162
    O   -1.548849   -2.084665    0.239440
    H   -2.319922   -1.711343   -0.234777

FREQUENCIES 72
31.0500
49.8113
60.5056
64.2458
71.2531
84.8769
99.7123
111.4783
133.3055
138.3764
170.3392
196.6118
206.1766
244.1737
254.6736
271.0751
285.6115
296.4409
301.1549
328.4054
331.2744
344.3364
352.8931
360.7201
381.1651
403.2257
416.4471
458.4036
495.8391
517.7326
542.8662
591.7744
674.8558
681.0760
769.6875
812.7534
820.3707
859.1314
950.5111
1033.6451
1105.9765
1158.1775
1175.2662
1232.6136
1280.1552
1311.7637
1362.9246
1398.3418
1469.4763
1569.3687
1594.7551
1599.6813
1614.7982
1661.1063
1676.1876
1682.1735
1802.4303
2723.8353
2758.8293
3119.0642
3124.4605
3183.8763
3233.2910
3437.9774
3477.5039
3614.4108
3851.0226
3854.8969
3935.2524
3942.2192
3967.5523
3975.6063

SYMMETRY C1
ELECTRONIC_STATE 2-A
