26
Energy =   -1027.18553435     
    C    1.351051   -0.650590   -0.933494
    C   -0.175746   -0.601132   -0.856705
    H    1.644302   -1.298524   -1.765750
    O   -0.765514    0.413790   -1.208256
    O   -0.682248   -1.696274   -0.408549
    H   -1.742301   -1.673370   -0.304993
    N    1.815877    0.733726   -1.240535
    H    2.840231    0.744704   -1.306834
    H    1.392354    1.076815   -2.106278
    O   -3.105954   -1.669007   -0.037629
    H   -3.441597   -0.941593    0.546563
    H   -3.756008   -1.861017   -0.721663
    O   -1.968457    2.247817    0.413290
    H   -2.363270    3.082018    0.130787
    H   -1.881416    1.683466   -0.376849
    H    1.495899    1.367499   -0.455175
    O    0.755151    1.932422    0.919813
    H   -0.197662    2.155120    0.854891
    H   -3.220566    1.156202    1.390307
    O   -3.785186    0.370938    1.476695
    H   -4.158442    0.346278    2.363536
    C    1.987279   -1.146532    0.368934
    H    1.609073   -0.562337    1.219897
    H    1.680985   -2.182070    0.539616
    S    3.782456   -1.016007    0.399047
    H    1.144052    2.504784    1.591122

FREQUENCIES 72
30.0760
43.0331
50.3717
53.2871
76.8544
89.6176
112.6888
131.8944
166.6382
179.1239
190.0942
214.5576
227.6737
246.9088
260.6380
265.7074
304.7017
312.5420
325.9833
344.1199
356.1587
367.8647
381.9480
438.6135
441.0416
549.8660
563.8051
580.2350
635.2880
647.4310
693.9752
707.8653
763.9413
777.5543
813.5617
898.8547
932.8011
962.5139
1067.2056
1096.4300
1166.6496
1247.5089
1273.2296
1337.1227
1352.8461
1378.1510
1420.3703
1428.6487
1516.7963
1528.1626
1600.5954
1616.2375
1623.6688
1643.2817
1661.2384
1698.3937
1794.9973
2220.7505
2858.1930
3068.7327
3130.0792
3147.7400
3309.7555
3421.9915
3532.3876
3565.7376
3705.2142
3766.7365
3926.6838
3929.1470
3946.2416
3966.3410

SYMMETRY C1
ELECTRONIC_STATE 2-A
