26
Energy =   -1027.17479994     
    C    1.943315    0.296783   -0.543032
    C    0.414670    0.150410   -0.387245
    H    2.231495    0.252596   -1.594617
    O   -0.140168    0.982510    0.361811
    O   -0.062690   -0.829655   -0.999233
    H   -1.405937   -1.136798   -0.908994
    N    2.317166    1.643414   -0.001054
    H    2.261134    2.373582   -0.714751
    H    1.608735    1.866807    0.721046
    O   -2.445657   -1.377482   -0.833278
    H   -2.691644   -1.545037    0.133379
    H   -3.007365   -0.601320   -1.158788
    O   -2.757878    1.267948    1.172758
    H   -2.833429    2.031449    1.756119
    H   -1.814273    1.203046    0.902558
    H   -3.690359    1.225470   -0.499781
    O   -3.729285    0.757918   -1.353335
    H   -4.586186    0.904010   -1.767152
    H   -3.117907   -0.486191    1.844008
    O   -2.988544   -1.433144    1.655130
    H   -3.625022   -1.954730    2.155112
    C    2.647060   -0.809878    0.256494
    H    2.222812   -0.878284    1.269899
    H    2.439458   -1.767200   -0.228766
    S    4.417346   -0.571766    0.474626
    H    3.278192    1.616941    0.375442

FREQUENCIES 72
10.5521
22.8652
57.7943
68.7012
76.7396
97.6995
101.8510
114.1996
147.1438
185.5238
193.3261
211.7184
235.1556
244.4686
251.2718
293.6830
305.5945
313.0253
323.5603
365.5355
371.1954
421.8685
425.2022
441.7915
541.0953
582.1046
587.4584
676.5143
682.9057
706.1917
777.5135
793.2882
826.9130
836.2940
889.3375
939.8332
976.6472
1038.7344
1046.3179
1065.9195
1130.0896
1224.9489
1271.2898
1324.8328
1374.4023
1397.1593
1424.7286
1453.9322
1477.9031
1596.2475
1602.7320
1618.0860
1652.2710
1665.5334
1713.7239
1737.3614
1756.9061
2182.0347
2924.8968
3037.8045
3052.9340
3147.6932
3162.5159
3291.2023
3364.5679
3514.7593
3524.8812
3701.2297
3726.4450
3931.8750
3950.8367
3954.4406

SYMMETRY C1
ELECTRONIC_STATE 2-A
