26
Energy =   -1027.44111159     
    C    2.094648    1.078364    0.158176
    C    0.759221    0.459476   -0.249571
    H    2.585308    1.429296   -0.755232
    O    0.346434   -0.594230    0.237582
    O    0.096148    1.199955   -1.092751
    H   -0.850334    0.838165   -1.300222
    N    1.880194    2.237046    1.025205
    H    1.350265    2.954135    0.538626
    H    1.356864    1.973448    1.856465
    O   -2.216114    0.354151   -1.628468
    H   -2.307488   -0.590527   -1.422036
    H   -2.948816    0.803336   -1.149575
    O   -1.893981   -2.014049   -0.160410
    H   -1.694187   -2.935800   -0.351103
    H   -1.040315   -1.549552    0.016636
    H   -4.258792    0.497141    0.593648
    O   -4.224050    1.247335   -0.036140
    H   -5.121236    1.412105   -0.339971
    H   -3.218581   -1.490864    0.955435
    O   -3.932187   -1.028508    1.437243
    H   -3.693148   -1.038045    2.368700
    C    2.997138    0.082493    0.870805
    H    2.512532   -0.296352    1.774786
    H    3.910613    0.602928    1.165172
    S    3.521036   -1.321799   -0.165726
    H    2.330769   -1.939157   -0.161684

FREQUENCIES 72
16.6952
27.1462
38.7647
52.9131
69.9012
83.5766
101.9837
144.5857
164.7353
182.3511
191.9451
202.0351
225.3859
238.1810
254.4460
270.1516
287.1565
306.1992
312.4629
328.3694
332.5959
359.5408
379.3900
404.1368
415.7495
453.3491
548.4168
570.8280
618.2418
653.6990
766.4421
773.2967
796.1664
823.5086
830.9719
869.1191
874.6928
908.2322
920.3581
1020.9280
1070.7284
1143.0316
1164.2012
1227.3818
1247.2029
1302.2046
1340.0517
1399.9466
1444.4824
1465.0721
1535.7154
1623.0165
1633.8452
1657.8174
1662.1149
1710.4360
1765.9104
2590.3680
2783.5891
3100.2177
3113.9938
3167.3979
3378.8045
3485.8251
3528.9505
3576.4555
3627.2077
3644.1050
3781.0487
3950.1374
3958.7997
3962.3939

SYMMETRY C1
ELECTRONIC_STATE 1-A
