29
Energy =   -1103.84792191     
    C    0.260915   -1.066661   -0.092602
    C    0.517848   -0.079644   -1.266903
    N    0.151486   -0.250640    1.163984
    O   -0.346488    0.013460   -2.154484
    O    1.588554    0.580813   -1.163473
    H    1.160507   -1.683074    0.019204
    H    0.098887    0.796315    0.939626
    H   -0.716670   -0.439924    1.672690
    C   -0.924676   -2.001494   -0.284638
    S   -2.576353   -1.221101   -0.359284
    H   -0.974505   -2.725296    0.534525
    H   -0.773300   -2.554295   -1.213464
    H   -2.265461   -0.430994   -1.403982
    H    0.963239   -0.455608    1.783435
    O    0.143804    2.810905   -2.020353
    H    1.040399    2.450861   -1.917381
    H   -0.302929    2.058625   -2.443886
    O   -0.321003    2.293703    0.607936
    H   -1.231896    2.390156    0.914674
    H   -0.248259    2.599350   -0.328647
    O    2.451217   -1.177611    2.352535
    H    3.061452   -0.929303    1.611576
    H    2.878700   -0.921147    3.174711
    H    2.893606    0.076560   -0.366978
    O    3.633964   -0.317946    0.178295
    H    4.280690   -0.689465   -0.427511
    H   -2.820269    0.436874    1.379411
    O   -2.394512    0.995762    2.050430
    H   -3.051300    1.182986    2.728849

FREQUENCIES 81
27.8573
40.0328
51.9339
58.2683
74.0887
94.2767
107.6814
115.0035
125.2088
165.4847
169.5608
180.2950
203.0089
212.0770
212.1871
226.6230
243.7138
251.5749
263.8604
266.1285
308.0524
310.0249
316.0211
344.8327
359.8812
367.8221
403.9312
415.9070
470.9213
519.2662
541.0455
547.2233
585.5773
621.7706
654.4795
682.1877
706.4938
753.9986
787.8912
822.8114
881.0359
898.9161
939.5114
950.5837
972.0596
1035.8155
1089.1835
1168.7369
1216.2224
1242.5546
1319.9827
1336.6697
1386.7078
1452.4620
1467.9908
1594.3877
1627.1599
1640.2645
1647.5423
1660.1938
1677.2330
1689.8158
1706.2805
1755.8002
2623.7022
2710.7641
3073.6688
3097.4031
3106.4685
3142.3011
3168.0318
3335.9496
3386.4386
3507.2677
3742.3189
3775.2232
3822.3072
3889.5795
3958.4071
3960.5745
3972.7493

SYMMETRY C1
ELECTRONIC_STATE 1-A
