29
Energy =   -1103.85188761     
    C    2.439444    0.167852   -0.584027
    C    1.035436    0.028173    0.002200
    H    2.480674   -0.490921   -1.456295
    O    0.569145    1.143422    0.539034
    O    0.441777   -1.035641    0.004401
    H   -0.331102    0.995142    0.960610
    N    2.825650    1.510156   -0.980083
    H    2.348595    1.793456   -1.829129
    H    2.571075    2.175906   -0.255016
    O   -2.101729   -1.637507    1.056239
    H   -2.835406   -1.895069    0.451961
    H   -1.259030   -1.758973    0.588331
    O   -3.623673    2.132436   -0.050027
    H   -3.137898    2.750831   -0.603601
    H   -2.974388    1.716407    0.552468
    H   -6.186919    0.464582   -0.840088
    O   -5.296407    0.279797   -1.152675
    H   -4.719537    0.988020   -0.793782
    H   -4.116402   -2.656154   -1.408284
    O   -4.179665   -2.130280   -0.606151
    H   -4.630430   -1.289580   -0.844239
    C    3.421225   -0.373104    0.467190
    H    3.416920    0.281296    1.345383
    H    3.112842   -1.372600    0.782134
    S    5.113116   -0.533636   -0.183151
    H    5.130391    0.695266   -0.725853
    O   -1.821414    0.795849    1.579031
    H   -2.019354   -0.205402    1.415219
    H   -1.904801    0.959860    2.525057

FREQUENCIES 81
13.8413
19.7870
28.2500
39.8567
53.7431
62.0165
71.6450
75.5928
94.7177
128.6771
149.7442
169.0683
182.8294
195.2542
221.0554
237.4092
240.9727
248.5979
265.0777
282.3222
289.9745
323.5490
337.7867
345.2551
377.4445
403.2028
418.2852
431.1380
460.8136
472.9859
537.1822
551.8472
592.6952
677.9282
683.1845
702.1021
774.0389
803.4847
811.9311
837.1118
864.2019
866.9342
935.8992
958.9021
980.0837
1029.8021
1049.5043
1151.0056
1176.3163
1256.3729
1267.6797
1308.6450
1341.7556
1360.0711
1409.8429
1480.2808
1484.2267
1637.3658
1645.6939
1649.4719
1669.6371
1671.7976
1688.0714
1821.2296
2595.1437
2750.0023
3060.9896
3088.2031
3129.8119
3159.2916
3419.6694
3493.3478
3537.1867
3537.2974
3602.5710
3632.5353
3786.6873
3926.6213
3960.6087
3963.0646
3967.7627

SYMMETRY C1
ELECTRONIC_STATE 1-A
