29
Energy =   -1103.54606110     
    C    1.520842    0.165370   -0.581680
    C    0.209456   -0.257657   -1.244713
    N    1.160249    0.794610    0.706866
    O    0.399536   -0.950118   -2.348310
    O   -0.898152    0.006857   -0.837069
    H    1.975958    0.930261   -1.221409
    H    0.605127    0.095324    1.269466
    H    2.026904    1.013469    1.210478
    C    2.476434   -1.020843   -0.394756
    S    3.995411   -0.557510    0.494914
    H    2.720226   -1.456762   -1.366571
    H    1.985225   -1.788621    0.210033
    H    4.574645    0.100687   -0.522905
    H    0.596369    1.685047    0.526885
    O   -3.638988   -0.030609   -0.783295
    H   -2.856118   -0.092047   -1.351992
    H   -4.420453   -0.099220   -1.344107
    O   -0.011512   -1.402085    1.695897
    H    0.118847   -1.784103    2.570944
    H   -0.943062   -1.607033    1.432584
    O   -0.259469    2.855828   -0.096341
    H   -1.215309    2.707920    0.115233
    H   -0.082295    3.799938   -0.027231
    H   -3.061421   -2.691853    1.246457
    O   -2.506111   -1.974269    0.926364
    H   -3.070889   -1.346995    0.443984
    H   -3.391620    2.776859    1.074833
    O   -2.734336    2.224021    0.640654
    H   -3.202874    1.496651    0.194598

FREQUENCIES 81
17.2428
21.1179
35.8643
46.1930
55.7733
65.8396
78.0299
101.6652
117.2489
142.4046
145.5717
163.7138
173.5661
185.5735
195.5835
214.7120
223.9128
235.2640
258.4241
279.1989
298.1798
308.3979
322.2575
332.9160
343.7969
373.6053
379.2036
388.6668
399.8759
455.0318
487.7525
515.6350
562.3292
570.8512
604.9873
627.8882
667.9656
668.4888
721.4261
771.9729
816.8934
821.5544
825.7709
863.7634
957.2733
1040.8742
1117.2168
1172.2396
1190.3492
1262.8136
1289.0952
1318.1494
1368.5658
1413.7357
1467.9116
1555.1811
1596.2826
1643.4883
1654.5847
1664.4632
1669.1576
1690.3125
1711.9081
1789.8190
2658.5501
2752.0692
2906.8565
3107.6263
3117.1688
3173.3884
3351.5508
3366.3144
3454.5176
3703.2785
3730.4251
3805.6677
3931.4322
3939.0909
3940.9321
3956.9870
3965.7163

SYMMETRY C1
ELECTRONIC_STATE 2-A
