29
Energy =   -1103.86157576     
    C    1.174515    0.367708   -0.547620
    C   -0.284107    0.627132   -1.021271
    O   -0.774176    1.742870   -0.711329
    O   -0.825678   -0.303152   -1.647928
    N    1.305895    0.887863    0.844957
    H    1.854204    0.951955   -1.179184
    H    2.197023    0.571955    1.239027
    H    1.275620    1.922811    0.840377
    O   -0.788151   -0.152734    2.018657
    H   -0.928688   -1.079603    1.738685
    H    0.477943    0.495066    1.424292
    H   -2.003958   -2.280039    0.144249
    O   -1.316172   -2.564516    0.780968
    H   -1.650677   -3.352353    1.219808
    H   -3.715407   -1.600275   -1.595638
    O   -3.112042   -1.283221   -0.917157
    H   -3.356709    0.242146    0.349052
    O    1.049527    3.538647    0.039166
    H    0.830880    4.422739    0.345790
    H    0.239553    3.135356   -0.347037
    H   -2.417788    1.450211    0.168939
    O   -2.948438    0.975610    0.836038
    H   -1.612099    0.315774    1.734031
    C    1.528503   -1.112866   -0.592625
    H    1.430454   -1.471581   -1.616331
    H    0.822064   -1.692363    0.011587
    S    3.192061   -1.488741    0.064209
    H    3.892669   -0.876667   -0.905685
    H   -2.344132   -0.841850   -1.372878

FREQUENCIES 81
32.6585
44.6739
54.3285
56.3746
76.4775
83.8559
92.4778
109.2634
151.9754
171.3794
178.1952
194.1688
207.2793
218.2572
230.6302
232.6846
237.0163
259.2481
292.6382
305.5302
314.0247
323.5254
335.0631
390.7510
416.8538
430.5925
453.5957
471.9947
518.1174
527.0945
542.1291
605.4064
639.2860
655.0934
725.9379
732.2740
755.6233
766.9697
795.9092
812.5256
830.4809
878.5907
915.4009
950.7755
999.6515
1032.1840
1109.0873
1165.3836
1194.6500
1271.8113
1307.1253
1352.2852
1396.9425
1457.0538
1472.5779
1577.3385
1603.9404
1620.7429
1664.3443
1670.1821
1686.2461
1724.1746
1739.8572
1775.4148
2414.2986
2699.5893
3100.3609
3114.9845
3187.0411
3199.7307
3254.4347
3374.7441
3475.1560
3499.2198
3571.4181
3628.5095
3682.9178
3816.2952
3960.2400
3962.5443
3974.6106

SYMMETRY C1
ELECTRONIC_STATE 1-A
