29
Energy =   -1103.55665476     
    C    1.485345   -0.670334   -0.724801
    C   -0.010692   -1.019092   -0.640865
    O   -0.833678   -0.221399   -1.053935
    O   -0.221725   -2.169425   -0.098569
    N    1.657906    0.594626   -1.242902
    H    2.068655   -1.432217   -1.251691
    H    2.580719    0.913234   -1.523014
    H    0.868797    1.266525   -1.253125
    H   -1.262709   -2.308963    0.141584
    O   -0.394722    2.618288   -0.956591
    H   -1.291165    2.321539   -1.225990
    H   -0.331433    3.559425   -1.157004
    H   -3.170615    0.758958    0.439062
    O   -2.895816    0.209416    1.189387
    H   -2.002522    0.524692    1.417274
    O   -0.259507    1.322057    1.498652
    H   -0.312948    1.974332    0.773891
    H   -0.206099    1.821811    2.322359
    H   -2.522814    0.602818   -1.706154
    O   -2.872737    1.464311   -1.429204
    H   -3.588453    1.709404   -2.026911
    C    2.076789   -0.762265    0.836875
    H    1.730783   -1.750076    1.146960
    H    1.560407    0.032014    1.377976
    S    3.824646   -0.565505    0.971655
    H    4.162735   -1.826905    0.656379
    O   -2.529010   -2.287600    0.651866
    H   -3.266922   -2.838396    0.373986
    H   -2.820026   -1.349642    0.867983

FREQUENCIES 81
33.1422
53.7004
68.9922
78.3105
82.3664
95.4920
103.3468
124.2099
133.2867
165.1759
170.1182
183.9020
188.1831
195.0042
226.9387
237.2325
244.0138
251.1571
269.2986
293.7102
312.9334
331.8975
339.8643
377.1793
389.8832
409.6109
425.6407
466.9521
475.3526
494.5958
521.7602
529.9090
574.7133
586.9928
622.8918
671.2235
683.6217
726.7071
742.8860
775.9229
795.6778
834.0197
844.5419
870.0531
892.2860
981.2726
1020.6634
1093.3639
1135.4445
1204.6574
1243.9433
1269.1987
1289.0661
1362.6761
1448.0875
1461.4716
1552.6537
1589.8949
1621.9446
1629.0208
1647.9164
1660.3288
1696.2941
1824.3836
2133.3690
2737.6417
3062.9698
3117.5544
3123.7943
3220.1531
3252.2329
3552.1769
3631.6389
3653.9017
3710.3780
3786.9101
3838.0771
3918.3971
3922.3208
3948.8345
3955.2549

SYMMETRY C1
ELECTRONIC_STATE 2-A
