29
Energy =   -1103.86252027     
    C    1.363467   -0.746082   -0.726101
    C   -0.113759   -1.133228   -0.675628
    O   -0.910655   -0.692173   -1.491322
    O   -0.393444   -1.986260    0.269713
    N    1.499659    0.429116   -1.587798
    H    1.889284   -1.623065   -1.138066
    H    2.484863    0.606583   -1.767253
    H    1.025646    0.255248   -2.471518
    H   -1.422430   -2.144591    0.330385
    O    0.088210    2.479811   -0.479744
    H    0.521263    3.326640   -0.627619
    H    0.657326    1.770588   -0.910587
    H   -3.169194    0.849737    0.335882
    O   -3.169296    0.309003    1.152413
    H   -2.352365    0.587232    1.605761
    O   -0.674518    1.369739    1.920488
    H   -0.428431    1.919192    1.149616
    H   -0.606012    1.926123    2.702239
    H   -2.185238    0.788918   -1.593834
    O   -2.559818    1.604062   -1.226898
    H   -1.774759    2.141824   -1.035769
    C    1.910320   -0.466723    0.673203
    H    1.781768   -1.344699    1.306027
    H    1.354302    0.354109    1.134972
    S    3.661904    0.048557    0.665095
    H    4.181043   -1.163615    0.411895
    O   -2.870023   -2.186579    0.532175
    H   -3.368414   -2.384903   -0.267491
    H   -3.088416   -1.237083    0.794065

FREQUENCIES 81
31.1237
39.4098
56.5405
66.8896
75.9953
80.0858
89.4030
103.4803
141.4276
171.8125
178.3681
194.3961
197.9600
222.9221
225.9637
242.8443
276.2804
284.9615
295.8992
314.9738
325.1835
353.2607
359.8615
370.4748
409.8239
427.1922
448.0556
475.2566
492.8158
503.3101
546.3801
584.1681
626.3625
645.9109
681.8849
710.6935
739.1787
780.6383
799.5914
815.8737
851.0393
898.2412
959.1389
974.4832
1011.0306
1063.2979
1088.7029
1157.6615
1220.8950
1273.1737
1299.8907
1334.0487
1348.9586
1394.0795
1430.5909
1477.1354
1521.8513
1609.7089
1638.1774
1679.1964
1693.2922
1720.4381
1725.5017
1803.8387
2464.9910
2754.9599
3017.1044
3025.1079
3051.0741
3125.2257
3188.8945
3524.1387
3588.6047
3611.1159
3616.6902
3719.3245
3788.5169
3856.9964
3941.1408
3944.4568
3960.0956

SYMMETRY C1
ELECTRONIC_STATE 1-A
