29
Energy =   -1103.85734719     
    C    2.347491   -1.165443    0.168895
    C    0.839947   -0.992357    0.325890
    H    2.607717   -2.012432    0.824811
    O    0.063317   -1.245108   -0.578975
    O    0.495632   -0.587178    1.525813
    H   -0.518900   -0.523877    1.627317
    N    2.669410   -1.410014   -1.225612
    H    3.428123   -2.072766   -1.328660
    H    1.851560   -1.757295   -1.718713
    O   -2.043725   -0.425754    1.811468
    H   -2.399951    0.379287    1.272052
    H   -2.348614   -0.333941    2.720239
    O   -4.081109    0.105541   -1.575040
    H   -3.681622   -0.752522   -1.306471
    H   -5.009513   -0.046699   -1.769678
    H    0.370666    2.168435   -0.254561
    O   -0.449202    2.689077   -0.262474
    H   -0.218420    3.553252    0.092063
    H   -2.062313    1.965716    0.063828
    O   -2.848212    1.496713    0.405445
    H   -3.364756    1.162231   -0.359356
    C    3.106161    0.055977    0.702587
    H    2.827546    0.253966    1.738584
    H    4.180892   -0.135218    0.653919
    S    2.737047    1.568164   -0.246994
    H    2.822073    0.958636   -1.443701
    H   -1.780700   -1.812141   -0.755752
    O   -2.705184   -1.962785   -0.499851
    H   -2.704313   -1.732053    0.442269

FREQUENCIES 81
17.7999
35.5737
40.7313
55.8136
68.0916
72.9429
78.2344
99.4455
113.2132
124.9455
152.3209
188.7595
197.8120
199.9313
211.3181
225.6453
244.8244
248.8417
257.1319
271.2266
292.3375
318.8513
329.4747
375.0165
405.2901
416.7659
423.5637
466.6082
507.6987
518.1294
529.2436
548.4865
594.7583
615.6528
637.2201
707.1446
734.9365
763.9497
802.8878
825.2537
853.2694
862.7299
924.3014
956.2998
971.0312
1025.3135
1087.2277
1136.3573
1202.0508
1232.7160
1295.6850
1324.2968
1337.1142
1350.7861
1434.0460
1476.4927
1532.4543
1625.7748
1638.6563
1640.8452
1643.1964
1685.6767
1692.3513
1818.7603
2563.0189
2707.6156
2843.1524
3018.7630
3108.7840
3189.5264
3463.2981
3546.1927
3548.5431
3646.1361
3660.1728
3766.4577
3780.9680
3841.1665
3939.0695
3965.9953
3976.7540

SYMMETRY C1
ELECTRONIC_STATE 1-A
