29
Energy =   -1103.55492665     
    C   -2.338172   -0.786696   -0.588843
    C   -0.886976   -1.248080   -0.696463
    H   -2.782958   -0.496836   -1.542987
    O   -0.414742   -1.938971    0.184023
    O   -0.279975   -0.788533   -1.754225
    H    0.740705   -0.963361   -1.707016
    N   -3.086788   -1.710853    0.094979
    H   -4.092189   -1.756205    0.007315
    H   -2.626942   -2.299646    0.782537
    O    2.283648   -1.540479    0.967996
    H    1.451506   -2.013609    1.112531
    H    2.227007   -0.704603    1.473204
    O    2.226768   -0.977696   -1.487331
    H    2.323368   -1.264235   -0.503262
    H    2.716398   -1.603650   -2.036412
    H    2.573580    1.423774    1.070021
    O    2.017972    1.076490    1.794050
    H    2.353520    1.451542    2.616406
    H    3.092356    0.732732   -1.142810
    O    3.189954    1.583467   -0.677360
    H    4.023766    1.981035   -0.952266
    C   -2.258593    0.743953    0.192990
    H   -3.304679    0.958357    0.406247
    H   -1.829043    1.404525   -0.562738
    S   -1.313035    0.770550    1.653007
    H   -0.124384    1.068772    1.065074
    H    0.361559    1.364786   -1.660992
    O    0.410145    1.796662   -0.799437
    H    1.302358    2.174193   -0.758086

FREQUENCIES 81
35.7483
52.9448
56.2554
85.3435
89.0707
103.1604
115.4842
126.6352
156.8536
157.3273
168.8523
181.0156
194.1551
210.5614
211.4876
232.1433
249.7059
274.1071
284.8320
315.5879
325.1132
343.8609
360.1180
361.3990
393.0477
403.1782
421.6413
433.8301
466.9038
485.9373
495.2833
522.0536
550.1340
567.3036
579.1898
611.6432
645.8080
666.1693
688.7876
759.6063
780.7176
804.7177
826.4415
851.6862
888.1248
997.1324
1085.9132
1113.3782
1173.7226
1193.9989
1248.8098
1260.3445
1315.2626
1347.2149
1430.7317
1456.2134
1549.6515
1620.2893
1623.7503
1644.3614
1653.1032
1661.2725
1687.9084
1831.5890
2476.4372
2626.3715
2768.0782
3131.1051
3156.0976
3231.6422
3543.8860
3609.1337
3667.1273
3700.3012
3709.6599
3802.7537
3868.0276
3901.0013
3927.5043
3932.3593
3941.7985

SYMMETRY C1
ELECTRONIC_STATE 2-A
