32
Energy =   -1180.27838082     
    C   -1.893187    0.108410   -0.615124
    C   -0.504999    0.740468   -0.619417
    H   -2.467403    0.681656   -1.365252
    O    0.423716    0.271233   -1.263179
    O   -0.437300    1.845322    0.082554
    H    0.510054    2.208872    0.119061
    N   -1.760610   -1.301775   -0.949008
    H   -2.678831   -1.726264   -1.045628
    H   -1.245022   -1.423655   -1.816133
    O    1.995623    2.549221    0.397315
    H    2.291270    3.453651    0.540978
    H    2.569521    2.111773   -0.314824
    O    3.937879   -0.873665    0.227131
    H    3.279263   -0.591042    0.922496
    H    4.752024   -1.138350    0.665171
    H    0.739969   -2.358990    0.707314
    O    0.053666   -1.862662    1.188552
    H   -0.668568   -1.824742    0.526764
    H    1.186452   -0.526172    1.644392
    O    2.015050   -0.018710    1.785306
    H    1.849618    0.914938    1.591462
    C   -2.583576    0.270240    0.741727
    H   -2.018600   -0.269157    1.508317
    H   -2.626948    1.320524    1.027624
    S   -4.260585   -0.449342    0.768323
    H   -4.842617    0.504928    0.022921
    H    2.344693    0.793511   -1.736350
    O    3.169860    1.187072   -1.411339
    H    3.652292    0.461358   -0.965002
    H    1.345726   -1.525875   -1.207490
    O    1.805237   -2.339205   -0.951876
    H    2.696376   -2.057027   -0.689808

FREQUENCIES 90
35.6619
59.2752
61.8150
68.8342
74.8438
81.7076
88.7872
101.3288
131.3894
137.6070
156.0333
160.4535
173.8831
190.4318
198.7302
209.4612
232.6145
239.7858
251.0946
276.3743
280.7257
289.7170
307.8557
329.3520
337.4269
350.4776
370.8234
428.2855
442.6535
470.5935
501.8677
519.4793
520.9789
530.1084
560.9850
588.2061
621.1769
626.6759
644.3594
679.7509
691.9860
722.6910
764.0838
798.2949
823.5691
826.2783
893.4777
905.0267
944.1522
976.8274
1044.2259
1079.8173
1091.8091
1155.1596
1199.5744
1208.8059
1269.2772
1288.6083
1340.0865
1384.6914
1423.7919
1475.0771
1527.6512
1622.5714
1625.4987
1638.7038
1659.0962
1660.0586
1715.6764
1734.1142
1806.5008
2753.4597
2820.5467
3001.1046
3009.6388
3115.9358
3157.6680
3198.4089
3507.9152
3534.8397
3569.3634
3612.0117
3627.7011
3725.8552
3767.0577
3833.4558
3853.9668
3870.3454
3952.0955
3957.0197

SYMMETRY C1
ELECTRONIC_STATE 1-A
