32
Energy =   -1180.27689676     
    C   -1.476811   -0.448929   -0.809589
    C   -0.003880   -0.554007   -1.188402
    O    0.555372   -1.640701   -1.267150
    O    0.563938    0.594521   -1.443053
    N   -1.921123   -1.757191   -0.326703
    H   -2.013854   -0.144145   -1.721397
    H   -2.933877   -1.815416   -0.383134
    H   -1.511204   -2.486711   -0.904923
    H    1.640829    0.545984   -1.415729
    O   -1.016720   -1.702785    2.266450
    H   -1.123906   -2.498088    2.796451
    H   -1.361139   -1.891242    1.351832
    H    2.972281    1.251620   -0.330721
    O    2.993739    0.684041   -1.156458
    H    3.367548   -0.177419   -0.899910
    H    1.774371    2.661326    0.724208
    O    2.465359    2.044786    1.021883
    H    2.000374    1.308545    1.462362
    O    3.053793   -1.948319   -0.262135
    H    3.569138   -2.757950   -0.320504
    H    2.227505   -2.067823   -0.772451
    H    1.992819   -1.083744    1.191768
    O    1.350737   -0.435727    1.518542
    H    0.629360   -0.931664    1.948553
    C   -1.677173    0.643465    0.253389
    H   -1.530176    1.628869   -0.190548
    H   -0.951678    0.533476    1.062317
    S   -3.356772    0.651099    0.964566
    H   -3.108363   -0.295009    1.885727
    H    0.544703    3.974113   -1.093838
    O    0.382841    3.253199   -0.477621
    H    0.330598    2.436130   -0.999528

FREQUENCIES 90
28.9435
52.3549
59.6610
73.2633
80.7948
84.1381
98.5956
104.7472
131.2745
143.6602
153.4958
161.2372
186.9512
195.0514
208.0202
218.0381
225.7714
239.7405
256.5751
268.0768
279.9564
296.5806
297.4060
308.2394
320.0607
334.2823
352.9114
373.4178
395.2104
426.9746
460.8884
499.0210
522.1670
538.7490
561.8590
570.8586
594.5444
630.5819
649.1413
714.1075
735.9626
743.2563
753.3632
785.6595
803.4005
830.1489
870.8097
919.1417
951.4916
982.9855
989.0357
1001.2317
1090.0223
1162.0499
1206.5574
1254.8168
1290.8669
1312.8348
1353.4230
1373.3504
1453.1112
1477.7696
1597.2660
1606.3267
1616.1932
1634.2765
1654.0910
1666.3240
1680.5774
1712.2875
1761.2791
2079.0392
2747.6881
3037.4518
3126.0192
3148.4198
3188.0107
3221.8771
3534.9390
3602.2679
3629.7032
3646.8351
3682.8707
3746.8469
3755.0986
3789.4073
3827.6869
3958.3771
3965.0926
3968.1619

SYMMETRY C1
ELECTRONIC_STATE 1-A
