32
Energy =   -1180.27437681     
    C   -0.556202   -0.776208   -0.037631
    C    0.298568    0.281760   -0.767326
    O    0.314055    1.431723   -0.251487
    O    0.880546   -0.120376   -1.791284
    N   -0.824088   -0.304209    1.345645
    H    0.035828   -1.694731    0.030840
    H   -1.435930   -0.969523    1.824824
    H    0.120086   -0.223210    1.840991
    H    2.159254    0.469049    1.917684
    H   -1.306619    0.612275    1.307510
    O    2.895664    1.656348    0.788731
    H    3.403201    1.176310    0.115211
    H    2.055606    1.868428    0.343139
    C   -1.858100   -1.013193   -0.794975
    H   -1.624568   -1.327336   -1.812991
    H   -2.437114   -0.085415   -0.835062
    S   -2.958502   -2.228713    0.011801
    H   -2.188447   -3.306566   -0.214412
    O    1.666042   -0.312840    2.255734
    H    2.067160   -1.063724    1.777649
    H   -2.325841    2.500314    0.291337
    O   -2.675107    1.762159    0.841167
    H   -3.470700    2.078227    1.278259
    H   -0.613874    2.836444   -0.786212
    O   -1.380318    3.447114   -0.820242
    H   -1.042315    4.333025   -0.661461
    O    3.472462   -0.152434   -1.388150
    H    4.081506   -0.147496   -2.132422
    H    2.555351   -0.027076   -1.743960
    H    3.220183   -2.868525    0.512972
    O    2.608218   -2.138798    0.378935
    H    3.007665   -1.558655   -0.300443

FREQUENCIES 90
9.9229
31.6284
41.8343
58.1309
64.6697
67.7282
72.1828
80.3616
95.2114
132.2803
148.2169
164.6402
177.3250
182.5019
191.2546
206.7444
219.0925
222.4634
240.8750
245.7047
257.1286
266.5363
273.4694
281.3580
308.0712
317.8864
326.8930
332.7279
401.1065
406.1853
420.0600
441.9300
453.7243
523.5539
531.1638
556.1334
587.2211
592.7321
678.3965
686.3281
690.0136
714.6344
727.8916
791.4104
798.0822
820.4490
832.7488
874.5885
890.3080
918.2060
968.6798
1046.6404
1108.1370
1165.5711
1194.7760
1278.1378
1307.6299
1360.5275
1414.3804
1461.3732
1464.6314
1561.1786
1617.5218
1628.8814
1640.3099
1660.6041
1674.1382
1689.7350
1700.8974
1734.4133
1763.2458
2668.7656
2716.5382
3111.9040
3127.9854
3189.3069
3286.3436
3311.0213
3461.9127
3499.1462
3506.1610
3574.5576
3597.6837
3673.7557
3712.7039
3826.8195
3956.8667
3960.3027
3962.3484
3969.3474

SYMMETRY C1
ELECTRONIC_STATE 1-A
