32
Energy =   -1180.27903324     
    C   -1.540822   -1.058849   -0.014789
    C   -0.074894   -1.461263   -0.133275
    O    0.517149   -2.009587    0.779649
    O    0.459554   -1.223127   -1.317280
    N   -1.836182   -0.840004    1.395776
    H   -2.095357   -1.916126   -0.438876
    H   -2.834152   -0.695116    1.522011
    H   -1.542585   -1.644833    1.942976
    H    1.432872   -1.550117   -1.325039
    O    0.020650    1.221585    2.137010
    H   -0.113364    1.976936    1.536009
    H   -0.712059    0.589138    1.976193
    H    0.414419    2.647268   -0.597084
    O   -0.255415    3.007564    0.025539
    H   -0.313291    3.957272   -0.108658
    H    4.470923    0.857167   -0.004672
    O    3.609498    0.458443   -0.161432
    H    3.146094    0.309808    0.735684
    O    1.428764    1.592220   -1.540005
    H    2.264833    1.325144   -1.114619
    H    0.973021    0.766060   -1.751185
    H    1.932359   -0.969559    1.803200
    O    2.303039   -0.085631    1.942419
    H    1.496063    0.487603    2.065472
    C   -1.882364    0.180608   -0.840684
    H   -1.597281    0.035780   -1.883457
    H   -1.354300    1.057735   -0.452934
    S   -3.651691    0.618563   -0.748690
    H   -4.099105   -0.429156   -1.461567
    O    2.914784   -1.873842   -1.267133
    H    3.067748   -2.580547   -0.629110
    H    3.363992   -1.066384   -0.918434

FREQUENCIES 90
40.9225
45.1560
54.1160
64.4775
70.0886
79.7378
82.9919
91.3067
100.8575
138.7652
145.4145
165.5837
172.3566
186.9469
193.4640
210.4545
223.5409
233.3839
246.1099
271.1647
282.9842
308.1932
333.8992
340.3269
366.3854
375.0510
391.4481
400.5108
405.9611
455.3469
472.9203
492.2333
501.6765
528.1174
542.6315
550.5830
617.3771
624.1092
669.6342
715.2321
724.7809
762.7833
798.9390
822.3722
836.4011
873.8692
887.7525
898.8061
945.9564
961.3464
983.1787
1081.6940
1156.0614
1214.1448
1219.1498
1249.5977
1272.8010
1292.1124
1331.1535
1386.9527
1419.4388
1481.9143
1522.2605
1616.2680
1622.7002
1631.3739
1672.3847
1686.7473
1693.4323
1738.6342
1818.7932
2709.0114
2751.7389
2801.1678
2994.5086
3117.6939
3187.2670
3216.6582
3415.5560
3488.3771
3515.6620
3535.6621
3624.9398
3697.0469
3701.7002
3847.1168
3882.8105
3921.3280
3951.1852
3971.7788

SYMMETRY C1
ELECTRONIC_STATE 1-A
