32
Energy =   -1180.27306617     
    C    2.074856   -0.841405   -0.993345
    C    0.610565   -1.205188   -0.819323
    O   -0.290530   -0.574674   -1.360693
    O    0.431140   -2.258300   -0.064952
    N    2.171950    0.418187   -1.722426
    H    2.530087   -1.685163   -1.539785
    H    3.111893    0.537618   -2.089308
    H    1.527771    0.417689   -2.509435
    H   -0.544796   -2.366545    0.180502
    O   -3.582884    1.612016   -0.035973
    O    1.799193    3.042856   -0.354528
    H   -4.214727    2.319311   -0.194881
    H    0.851234    3.085831   -0.161837
    H   -2.674981    1.972429   -0.158045
    H    1.894997    2.231869   -0.883257
    H   -2.475267   -3.136461    0.952989
    O   -2.032325   -2.318685    0.704210
    H   -2.593015   -1.832976    0.019489
    H   -2.792208    0.544710    1.642999
    O   -1.896344    0.343721    1.949387
    H   -1.776934   -0.609282    1.824593
    O   -3.112795   -0.891919   -1.129097
    H   -3.474274   -0.035402   -0.828728
    H   -2.243411   -0.691278   -1.513379
    H   -0.560762    1.282971   -0.713802
    O   -0.894307    1.934584   -0.076204
    H   -0.931400    1.428585    0.763739
    C    2.762886   -0.751558    0.373828
    H    3.770833   -0.347094    0.247650
    H    2.849885   -1.753944    0.796747
    S    1.846953    0.222501    1.613385
    H    2.042738    1.433368    1.053009

FREQUENCIES 90
40.6130
44.2493
54.5262
68.8807
78.2309
89.3028
94.1111
100.9230
131.9436
139.0749
144.6482
155.4745
161.6559
166.8519
188.0904
196.5444
206.2166
225.3241
244.1377
267.4728
275.3410
284.7655
299.7197
327.4195
350.6960
359.5985
384.9172
412.7093
433.5494
460.4498
477.1040
491.6443
499.6075
522.3624
525.3327
552.0250
598.2965
605.9189
618.3699
631.1460
672.3526
697.1753
710.0653
779.6723
793.0729
827.4688
854.3445
895.2426
961.3623
970.0462
989.1410
1004.7259
1053.4658
1140.1796
1145.0672
1202.7012
1247.3689
1310.6580
1344.2785
1354.3941
1434.1570
1457.5823
1539.1215
1620.0830
1635.9568
1639.8961
1650.0067
1674.7167
1693.7729
1697.8982
1796.7699
2665.7723
2868.1614
3012.4643
3048.6873
3100.8668
3166.7271
3458.1020
3537.6960
3603.2509
3629.3352
3649.4284
3703.8931
3794.1684
3802.8620
3819.4072
3860.4986
3896.0944
3948.5931
3967.9121

SYMMETRY C1
ELECTRONIC_STATE 1-A
