32
Energy =   -1180.27239241     
    C    1.594999    0.194275   -0.635356
    C    0.277560   -0.478870   -1.005803
    H    1.990761    0.623718   -1.571841
    O    0.075056   -1.671650   -0.908857
    O   -0.608852    0.394966   -1.464821
    H   -1.492377   -0.040572   -1.639941
    N    1.326644    1.226467    0.370112
    H    2.194145    1.720881    0.568649
    H    0.637273    1.910321    0.041874
    O   -3.061397   -0.540938   -1.570775
    H   -3.565163   -0.791007   -2.351742
    H   -2.950590   -1.367034   -0.957354
    O   -2.219396   -0.584381    1.965855
    H   -1.288523   -0.485794    2.256968
    H   -2.482153    0.263653    1.575176
    H    0.736044    0.104193    3.377868
    O    0.442499   -0.223438    2.522506
    H    0.781892    0.401918    1.824456
    H   -3.311174    0.878465   -0.471719
    O   -3.129174    1.534960    0.231445
    H   -3.962783    1.967807    0.442618
    C    2.577051   -0.841249   -0.099850
    H    2.181536   -1.272555    0.824084
    H    2.711835   -1.651338   -0.817454
    S    4.194289   -0.118736    0.338827
    H    4.583925    0.157616   -0.917130
    H   -1.628794   -2.588699   -0.211253
    O   -2.541623   -2.383154    0.044425
    H   -2.454784   -1.835122    0.869722
    H   -1.615543    2.655205   -0.152145
    O   -0.846799    3.151123   -0.483125
    H   -0.807195    2.920531   -1.417807

FREQUENCIES 90
35.2606
48.1610
50.2001
59.5034
67.9963
73.9947
76.5807
93.6848
100.6402
126.9920
147.8027
150.1145
160.8981
172.2594
197.4814
203.9024
210.8999
245.9141
261.6105
272.6330
285.1798
292.3136
315.7895
322.4887
335.0519
348.7475
370.4823
385.4568
397.3407
421.7544
458.6600
488.2266
511.0181
524.0450
568.2803
579.3161
613.8013
628.3667
649.7215
690.5771
695.2430
741.6178
785.1190
807.6615
808.9959
857.9547
888.1681
951.8450
966.1305
977.6768
1042.1886
1070.6996
1101.2562
1152.0650
1214.4640
1238.6776
1268.4975
1289.2329
1316.7829
1368.0691
1419.8959
1466.0180
1485.5189
1635.0672
1650.4108
1658.3485
1668.5206
1675.5023
1690.4117
1725.1069
1841.2752
2569.8758
2734.1188
3013.2158
3118.0630
3147.1003
3180.7684
3190.2164
3284.8705
3428.4812
3560.0534
3570.9617
3600.1808
3738.4775
3813.1180
3834.3348
3943.0138
3945.9392
3949.3073
3954.0325

SYMMETRY C1
ELECTRONIC_STATE 1-A
