32
Energy =   -1180.26806874     
    C    1.603168   -0.619097    0.400176
    C    0.260128   -0.322815    1.139058
    O   -0.071390    0.890107    1.205479
    O   -0.363604   -1.319911    1.545001
    N    1.312023   -0.574834   -1.069167
    H    1.899964   -1.647570    0.619602
    H    2.156421   -0.835264   -1.586722
    H    0.511263   -1.281059   -1.258753
    H    1.037340    0.381293   -1.352261
    O   -3.005361   -1.208632   -1.310579
    O    0.401734    2.102435   -1.070350
    H   -3.798843   -1.611834   -1.677057
    H    0.491884    3.054474   -1.179054
    H   -3.133981   -1.116210   -0.299803
    H    0.203074    1.896593   -0.119785
    H   -1.502875    1.675733   -1.619498
    O   -2.456803    1.574064   -1.497328
    H   -2.663615    0.630701   -1.616675
    H   -2.226182   -1.117622    1.553709
    O   -3.117099   -0.906834    1.211569
    H   -3.216047    0.059831    1.371777
    H   -1.854232    1.617126    1.511521
    O   -2.789116    1.792975    1.311401
    H   -2.804452    1.917101    0.344236
    H   -1.500792   -2.032879   -1.339479
    O   -0.596659   -2.353631   -1.100027
    H   -0.631978   -2.477033   -0.134533
    C    2.706702    0.360856    0.772892
    H    2.993274    0.180265    1.810811
    H    2.342703    1.386696    0.705911
    S    4.216991    0.178818   -0.248470
    H    3.971929    1.211610   -1.070177

FREQUENCIES 90
41.1194
51.1167
57.3889
67.3164
70.9825
74.1950
94.0270
113.0788
135.0537
157.0571
166.1110
177.2168
178.6381
198.0063
202.1890
212.4985
226.3710
234.7553
241.7398
263.1521
278.9615
302.8516
326.3747
344.5255
359.9333
374.7123
394.6975
412.9765
469.6151
487.5532
519.9494
521.6704
531.0366
538.0782
590.5232
608.4389
651.9749
684.9878
719.9648
742.9835
758.9699
764.1016
800.3497
812.5924
823.1760
880.5039
900.0300
913.1236
955.2493
971.8383
1047.4396
1107.1213
1144.5734
1179.8878
1254.5285
1256.2500
1297.4745
1349.0242
1421.4243
1443.0084
1466.8049
1567.9012
1598.1348
1650.8954
1653.2921
1669.6443
1689.6668
1703.9437
1720.5944
1744.0518
1773.1828
2438.4615
2761.8827
2768.2193
3123.6944
3149.3668
3187.8089
3268.4468
3330.1732
3394.8141
3478.8259
3484.7457
3650.6961
3685.8209
3718.7253
3757.9532
3794.7795
3866.9136
3947.0898
3950.8959

SYMMETRY C1
ELECTRONIC_STATE 1-A
