32
Energy =   -1180.27858583     
    C    2.000368    0.909398   -0.498417
    C    0.874522   -0.122370   -0.554139
    H    2.523955    0.858967   -1.457487
    O    0.524599   -0.739704    0.456871
    O    0.316602   -0.227409   -1.718247
    H   -0.544166   -0.815672   -1.706733
    N    1.347897    2.218693   -0.406369
    H    1.040718    2.405189    0.548245
    H    1.987423    2.959305   -0.675548
    O   -1.819107   -1.536015   -1.724003
    H   -2.564909   -0.900281   -1.656675
    H   -1.901096   -2.131642   -0.958794
    O   -3.293643   -0.281250    1.442268
    H   -2.626389    0.313744    1.841450
    H   -2.870918   -1.155810    1.424691
    H   -4.505066    0.600202   -1.329880
    O   -3.606156    0.388442   -1.061015
    H   -3.607036    0.183338   -0.080094
    C    2.968068    0.623103    0.646223
    H    3.736977    1.400218    0.664792
    H    2.440366    0.645270    1.603960
    S    3.867642   -0.954656    0.478450
    H    2.814053   -1.739795    0.749924
    O   -1.551262   -2.476377    0.879095
    H   -0.726382   -1.950858    0.807495
    H   -1.345655   -3.293013    1.344522
    H   -0.388925    0.536946    1.784285
    O   -1.010615    1.253319    1.972666
    H   -1.190466    1.666788    1.098738
    H   -2.178965    1.677047   -1.014445
    O   -1.509292    2.197438   -0.541956
    H   -0.671572    2.187458   -1.031944

FREQUENCIES 90
31.7603
47.9243
60.8286
67.0469
74.9718
82.3123
85.4184
107.8391
119.2166
139.0310
159.6853
175.6403
187.8058
191.3285
198.4753
209.4254
226.0370
239.4806
242.3869
253.6583
280.6444
292.1834
316.2029
326.2469
341.0292
356.1578
368.9429
390.4998
399.9861
419.8250
470.2707
488.9011
494.3855
543.8023
590.5571
621.7815
650.2203
653.9015
677.1491
691.0048
719.5999
754.8902
778.1522
795.2785
825.3031
829.7388
868.4242
890.3926
911.0905
981.5237
1003.3514
1116.7868
1122.6665
1123.5060
1164.6678
1234.5082
1268.5742
1299.4646
1349.8641
1386.3946
1461.5201
1471.9008
1561.8757
1587.5191
1616.5023
1634.9186
1654.1793
1676.2967
1702.7820
1722.9232
1758.6181
2502.2752
2742.8624
3098.5921
3101.6263
3129.6371
3161.8419
3486.6208
3508.3018
3533.0616
3559.6507
3620.8147
3622.8907
3737.6108
3749.7640
3800.5835
3846.0659
3875.9060
3953.2427
3958.6120

SYMMETRY C1
ELECTRONIC_STATE 1-A
