32
Energy =   -1180.26467745     
    C   -1.749887    0.264322    0.410457
    C   -0.548063   -0.417539    1.115322
    O    0.589383   -0.026257    0.682633
    O   -0.787939   -1.268169    1.965051
    N   -1.301989    0.729072   -0.933550
    H   -2.035716    1.156904    0.978358
    H   -2.121405    0.997929   -1.486662
    H   -0.644221    1.556743   -0.847547
    H    1.043248    2.720525   -0.030948
    O   -0.327356   -1.851038   -1.566329
    H   -0.349543   -2.465077   -2.306059
    H   -0.812863   -0.056733   -1.396513
    H    4.487262   -1.813278   -1.444307
    O    4.327628   -1.457737   -0.565365
    H    3.460088   -1.808786   -0.270906
    H    5.360029    1.368374    0.391706
    O    4.578924    1.252112   -0.157180
    H    1.637489   -2.811690    0.936952
    O    2.194198    2.200649    0.902447
    H    3.054584    1.956656    0.504800
    H    1.757672    1.355659    1.114042
    H    1.434246   -1.306314    0.530453
    O    1.801741   -2.198360    0.210935
    H    0.438610   -2.102897   -1.006996
    C   -2.921478   -0.699265    0.284671
    H   -3.213203   -1.031152    1.280164
    H   -2.604884   -1.582375   -0.278324
    S   -4.352054   -0.016208   -0.623816
    H   -4.693548    0.911764    0.284916
    O    0.196455    2.902686   -0.551496
    H    0.324612    3.700477   -1.071042
    H    4.507043    0.289795   -0.330592

FREQUENCIES 90
26.8462
32.7580
43.5930
50.7813
57.7220
68.7776
70.3171
74.1141
81.6761
105.5273
133.9387
159.4977
177.3345
185.2476
187.7513
197.2753
207.7626
221.0883
228.1640
242.3647
264.3589
277.7425
284.8464
309.6172
318.1818
329.6705
348.4716
371.9001
387.6864
418.2082
427.2693
450.3088
459.4421
486.7205
512.0145
535.6502
553.2204
566.8051
642.7177
723.8241
768.9017
782.3625
792.7937
801.5726
809.8634
821.4836
886.0506
896.8949
958.2275
1010.4031
1030.3918
1098.8750
1111.9342
1149.2895
1185.0302
1270.8490
1283.6715
1356.6902
1392.5732
1423.7626
1471.4001
1572.8976
1636.6503
1639.0088
1654.3626
1668.0504
1673.5323
1682.1960
1696.6867
1732.6444
1799.0599
2728.4399
2772.3664
2860.0531
2983.0102
3102.1242
3123.0574
3197.4405
3284.4403
3477.6493
3504.6117
3560.8018
3589.2402
3612.1587
3728.5611
3924.4338
3959.8030
3963.2781
3965.4735
3966.9921

SYMMETRY C1
ELECTRONIC_STATE 1-A
