32
Energy =   -1180.26214222     
    C    0.044028   -0.326770   -0.030292
    C   -0.102810   -1.472811    0.938591
    N   -0.561044   -0.720385   -1.320473
    O   -0.939005   -2.340121    0.875807
    O    0.772280   -1.369252    1.956193
    H    1.103790   -0.117834   -0.204225
    H   -1.563384   -1.028350   -1.177763
    H   -0.585449    0.155967   -1.878067
    H    0.598755   -2.095920    2.575522
    C   -0.654947    0.939845    0.506225
    S   -0.765240    2.215473   -0.796186
    H   -0.073794    1.297066    1.362660
    H   -1.654082    0.669863    0.872035
    O    3.019200    0.535662    1.361525
    H    2.351806    0.090842    1.897394
    H    2.674358    1.422983    1.116828
    O    2.089537    2.840943    0.297569
    H    1.221827    2.786198   -0.174670
    H    2.145967    3.730823    0.658735
    H    0.017963   -1.456878   -1.750101
    H    1.858864   -3.334071   -1.591363
    O    1.579976   -2.432212   -1.411972
    H    2.390694   -1.878768   -1.307022
    O    3.558848   -0.707148   -0.952256
    H    3.463101   -0.273826   -0.069449
    H    3.805927   -0.015230   -1.573686
    H   -3.222175   -1.693347    0.015109
    O   -3.172748   -1.196041   -0.809404
    H   -3.553900   -0.301992   -0.653099
    H   -2.930021    1.875752   -0.628040
    O   -3.773055    1.408640   -0.412808
    H   -4.485828    1.928451   -0.795779

FREQUENCIES 90
26.3823
31.2797
40.4763
49.7341
59.9044
67.9862
74.5198
80.0140
85.6449
107.1970
134.9579
157.8677
174.7362
180.0631
191.9562
197.7597
224.0652
235.3601
256.3364
267.2361
273.0007
279.7664
291.8302
300.5561
311.2136
317.8190
326.3387
399.9380
417.1614
421.7011
433.5448
447.3289
467.7119
469.3479
518.4574
534.9575
579.0945
583.7898
596.5463
660.4924
663.0809
716.1462
744.6235
777.6258
811.4567
842.6528
900.9819
908.4599
928.1293
932.2042
971.3788
1100.6104
1142.1443
1170.2864
1229.1068
1259.8076
1293.3549
1324.8678
1371.2965
1460.1016
1485.1142
1512.9428
1613.9277
1629.2534
1640.0669
1649.4276
1652.3167
1655.7471
1687.4215
1701.2533
1883.2302
2854.1978
3057.4947
3114.5415
3139.1432
3217.2347
3306.8325
3342.8771
3380.9108
3389.3736
3429.7261
3487.1289
3512.5493
3813.6624
3915.9756
3925.6959
3953.6967
3955.5733
3959.7983
3969.7650

SYMMETRY C1
ELECTRONIC_STATE 1-A
