32
Energy =   -1180.27488595     
    C    1.657006   -0.631665    0.418980
    C    0.324156   -0.376706    1.190349
    O    0.044797    0.822602    1.422913
    O   -0.348676   -1.399273    1.447872
    N    1.322753   -0.591411   -1.039949
    H    1.999807   -1.646232    0.637515
    H    2.169716   -0.771072   -1.586149
    H    0.576366   -1.320387   -1.248416
    H    0.940367    0.364863   -1.274693
    O   -0.644556   -2.403910   -1.148509
    O   -2.496646    1.652253   -1.537416
    H   -1.509167   -2.010099   -1.381831
    H   -2.760628    0.702767   -1.562668
    H   -0.663674   -2.474551   -0.176089
    H   -3.104836    2.137175   -2.103797
    H   -1.665971    1.561410    1.605631
    O   -2.595933    1.782760    1.409320
    H   -2.616841    1.988339    0.462440
    O    0.253821    1.897941   -1.125398
    H   -0.659279    1.944375   -1.465673
    H    0.152221    1.877188   -0.154101
    O   -3.052417   -0.999156   -1.267565
    H   -3.850530   -1.418100   -1.606487
    H   -3.115310   -1.000261   -0.238579
    C    2.729490    0.396620    0.747342
    H    3.022549    0.272877    1.791517
    H    2.333397    1.407237    0.639619
    S    4.238183    0.212827   -0.277339
    H    4.013508    1.263204   -1.080753
    H   -2.138431   -1.153953    1.534686
    O   -3.047624   -0.909627    1.255598
    H   -3.116306    0.046251    1.469914

FREQUENCIES 90
40.0293
57.1821
59.2243
65.9922
68.6320
79.7605
93.5346
103.9002
137.8076
151.3336
157.2149
171.0822
174.2980
183.6150
200.3560
207.9944
215.9907
234.0358
245.2661
259.4355
274.8137
289.9210
314.3712
337.1932
376.8221
390.7338
402.5831
472.7099
488.7133
513.8879
525.1828
531.3741
540.7601
553.8121
604.3817
614.5864
680.9211
688.3953
704.6675
756.2018
770.3687
795.5661
798.1954
817.0656
824.3603
837.9711
852.5289
890.6595
939.8660
966.8858
1050.4780
1112.1334
1164.6192
1179.9775
1258.1386
1301.1269
1313.2561
1348.6407
1420.8699
1450.2667
1465.3305
1600.0300
1645.8801
1657.2293
1660.2223
1674.2826
1706.5590
1718.4788
1729.3497
1738.6972
1762.0287
2647.1624
2740.0984
2754.3130
2888.7514
3121.9506
3137.8686
3185.5446
3446.6523
3480.5350
3539.6589
3552.9891
3624.5409
3654.2099
3692.8044
3716.4062
3735.2794
3841.0950
3937.0098
3951.1103

SYMMETRY C1
ELECTRONIC_STATE 1-A
