32
Energy =   -1179.96578925     
    C   -2.058636    0.270055   -0.705630
    C   -1.297111    1.593060   -0.572047
    O   -0.138168    1.684683   -0.249369
    O   -2.063597    2.636465   -0.815552
    N   -1.046052   -0.803869   -0.674185
    H   -2.587653    0.247653   -1.664084
    H   -1.534031   -1.706252   -0.669840
    H   -0.366823   -0.777260   -1.462160
    H    1.808507   -0.053063   -1.763969
    O    0.525264   -0.772885    1.363907
    H    1.227244   -1.428904    1.200836
    H   -0.398962   -0.746409    0.229678
    H    2.192783   -1.962695   -0.844780
    O    2.540100   -2.223336    0.034015
    H    2.757599   -3.162058    0.000352
    H    5.184400   -0.243503    0.957320
    O    4.243540   -0.127546    0.784823
    H    3.042147    1.004868    1.738519
    O    2.545677    1.122859   -1.095336
    H    3.368698    0.877265   -0.640347
    H    2.013160    1.584458   -0.427920
    H    2.097739    2.056686    2.421791
    O    2.147741    1.390921    1.727134
    H    0.985532    0.076011    1.554593
    C   -3.052340    0.109814    0.456483
    H   -3.792898    0.911491    0.424461
    H   -2.517839    0.183788    1.408979
    S   -3.866180   -1.517737    0.471142
    H   -4.696971   -1.283910   -0.558252
    O    1.333652   -0.892509   -2.084507
    H    1.542495   -1.002443   -3.019681
    H    3.859326   -1.005082    0.599913

FREQUENCIES 90
26.9027
33.3067
47.3320
53.6485
69.9334
74.9896
98.4233
100.5361
118.2484
125.0495
147.1338
163.0290
178.0934
190.6051
193.6570
210.0842
221.8784
237.7854
254.3513
273.2096
296.8979
301.3237
326.3280
340.9191
344.7069
353.4510
368.3319
389.4618
413.7147
425.0782
460.8986
467.8824
494.3805
525.2182
551.5780
579.7274
587.1208
612.6173
618.6079
664.0535
683.9308
712.7857
741.7533
772.9777
774.8763
816.8914
824.7076
849.3695
863.3750
947.9839
1031.3988
1115.6923
1144.3977
1161.7198
1176.2021
1251.5042
1270.4781
1284.5161
1359.0100
1389.0550
1470.7489
1609.3685
1625.7961
1631.9031
1643.5303
1655.5201
1664.7609
1692.8100
1709.1467
1720.6809
1803.5542
2096.2379
2747.6341
2876.4583
3101.5893
3123.0319
3169.8099
3200.4974
3453.1264
3502.4546
3589.6111
3663.4254
3717.9021
3729.1148
3766.8909
3851.1573
3921.0618
3934.4902
3943.3442
3947.2646

SYMMETRY C1
ELECTRONIC_STATE 2-A
