32
Energy =   -1180.27233049     
    C   -2.510373   -1.026166   -0.108392
    C   -0.985221   -1.096102   -0.080007
    H   -2.830952   -1.918839   -0.663022
    O   -0.324206   -1.055635    0.941174
    O   -0.453900   -1.234430   -1.292106
    H    0.536785   -1.349733   -1.248354
    N   -3.128813   -1.035388    1.194282
    H   -2.792904   -1.814867    1.750596
    H   -2.888923   -0.180787    1.692324
    O    2.195738   -1.473628   -1.445236
    H    2.701118   -0.616472   -1.417588
    H    2.499617   -1.972750   -2.210862
    O    3.331470    0.867019    1.394075
    H    2.477619    1.279266    1.646851
    H    3.200843   -0.084008    1.591226
    H    4.094758    1.272717   -1.516085
    O    3.298327    0.902899   -1.122182
    H    3.391626    0.942991   -0.094458
    C   -2.991424    0.185950   -0.920197
    H   -2.549593    0.188331   -1.918159
    H   -4.075127    0.103152   -1.021834
    S   -2.704756    1.795236   -0.101942
    H   -1.437821    1.975434   -0.513182
    O    2.444961   -1.754903    1.422172
    H    1.490892   -1.578632    1.452044
    H    2.593430   -2.016616    0.502523
    H    0.149362    0.905358    1.924723
    O    0.693781    1.624120    1.578879
    H    0.530380    1.607290    0.618775
    H    0.252087    0.800630   -1.778063
    O    0.592210    1.551873   -1.276546
    H    1.561824    1.529708   -1.383898

FREQUENCIES 90
30.5762
52.8677
57.1096
60.3334
66.2439
74.9627
78.6118
97.6275
117.4364
146.5924
150.1175
153.2140
165.6553
190.1796
200.7755
210.3149
222.6785
229.0125
239.6721
258.9199
273.3510
276.7952
299.3304
320.9562
329.0507
351.6744
355.9044
375.4369
398.7949
412.8067
434.8602
467.3991
483.6936
510.0240
548.6916
554.1822
570.4419
618.2418
633.0815
674.0905
684.7520
706.7814
764.5291
784.5983
787.9083
808.7754
865.8238
872.2608
915.7912
971.7476
984.5543
1059.9083
1074.4011
1146.9465
1195.4892
1261.3582
1279.1870
1302.5863
1324.5989
1349.3868
1389.1210
1443.6166
1467.7332
1645.3396
1659.9951
1667.0647
1672.7064
1679.9918
1687.9152
1741.4775
1829.3453
2620.1441
2731.5182
3071.3344
3124.2704
3159.6809
3186.1878
3272.0913
3534.9379
3572.2376
3608.2776
3626.8098
3665.0323
3723.2050
3789.4822
3877.9025
3904.4278
3912.5841
3940.4064
3948.9347

SYMMETRY C1
ELECTRONIC_STATE 1-A
