32
Energy =   -1180.26984956     
    C   -0.449453   -0.483253    0.138231
    C    0.654965    0.249836   -0.656626
    O    0.804879    1.471870   -0.406422
    O    1.305113   -0.462157   -1.450580
    N   -1.135790    0.472010    1.048613
    H    0.032983   -1.245518    0.760340
    H   -1.943943    0.000197    1.466431
    H   -0.480110    0.773085    1.816924
    H   -1.464699    1.287806    0.497391
    O    0.684764    0.810164    2.996777
    O   -2.200451    2.183941   -0.891335
    H    1.570165    0.965066    2.547574
    H   -3.056139    2.581077   -1.076344
    H    0.673912    1.325512    3.808251
    H   -1.525473    2.681992   -1.409667
    H    3.217287    0.384500    1.270977
    O    2.815089    1.220495    1.583447
    H    2.363329    1.582253    0.801375
    H    3.133166   -0.792037   -0.603921
    O    3.499913   -1.118193    0.233901
    H    2.960093   -1.901297    0.420150
    H    1.531427   -3.732056   -0.942037
    O    1.264042   -2.961645   -0.431848
    H    1.270016   -2.187233   -1.037235
    C   -1.462430   -1.137094   -0.795977
    H   -2.013228   -0.365749   -1.343837
    H   -0.934937   -1.763338   -1.514003
    S   -2.710552   -2.128502    0.093829
    H   -1.853304   -3.077156    0.507508
    H    0.498481    2.674964   -1.688273
    O   -0.100564    3.251569   -2.207569
    H    0.253600    4.144151   -2.162188

FREQUENCIES 90
32.9885
36.3034
43.8495
48.4546
54.5660
61.8558
66.8740
85.8743
100.5707
120.2440
136.3262
158.4933
168.6582
179.1442
194.3306
208.7570
225.0708
241.1884
244.4122
252.6888
267.0795
267.4476
279.4135
286.6409
308.7718
310.8425
332.4367
345.2108
377.3802
406.2617
417.6835
433.3442
446.2073
480.8221
503.6903
540.9631
562.6745
570.8339
631.0932
658.6639
675.9403
714.3750
722.1400
792.0501
809.0949
818.0766
830.0838
849.6907
895.1214
965.4535
1039.0563
1089.1272
1106.2525
1164.6901
1194.5637
1278.5543
1301.8674
1366.5404
1395.9973
1461.5667
1463.0816
1581.4024
1605.1823
1617.9696
1635.3101
1657.4440
1672.1917
1689.9451
1699.4307
1717.9967
1768.7864
2731.2192
2869.5904
3073.7324
3109.7164
3125.3219
3196.3224
3243.1430
3424.1693
3465.3176
3486.8217
3592.8726
3611.9668
3755.0168
3782.6781
3860.8805
3951.3938
3963.3201
3965.4544
3967.5064

SYMMETRY C1
ELECTRONIC_STATE 1-A
