32
Energy =   -1179.98466604     
    C   -1.415415   -1.486934   -0.387578
    C   -0.594970   -0.473178   -1.197957
    O    0.610911   -0.653538   -1.429515
    O   -1.246428    0.543246   -1.606649
    N   -0.562187   -2.433848    0.324821
    H   -2.065308   -1.989012   -1.118469
    H   -0.987985   -3.356627    0.350927
    H    0.327140   -2.527960   -0.169033
    H    1.085230    1.158713   -2.003326
    O    0.221487   -1.344513    2.681449
    H    0.174295   -1.850121    3.501036
    H   -0.118986   -1.892830    1.915330
    H    1.884833    2.010455   -0.028291
    O    1.259177    2.082657   -1.743940
    H    1.615213    2.545476   -2.510625
    H    0.835904    2.177334    1.080532
    O    1.749226    1.876297    0.931557
    H    2.111130    0.608491    1.429690
    O    2.671431   -1.938364   -0.231800
    H    3.497333   -2.294636   -0.578164
    H    2.154150   -1.549589   -0.960100
    H    2.596824   -0.964947    1.019590
    O    2.344821   -0.360415    1.783553
    H    1.523342   -0.767108    2.250651
    C   -2.292028   -0.690010    0.591227
    H   -1.681101   -0.214593    1.362603
    H   -3.037791   -1.330410    1.067721
    S   -3.186118    0.585013   -0.350727
    H   -2.484639    1.664275    0.082290
    H   -0.941403    3.693173    0.244360
    O   -0.835162    2.737786    0.156634
    H   -0.447481    2.576987   -0.725744

FREQUENCIES 90
37.9519
46.5444
56.2162
73.3681
80.2981
81.6339
87.1572
97.5398
108.3928
124.3039
158.3453
164.9220
184.1954
190.0188
190.4507
217.5097
243.3965
269.5441
283.9315
290.8162
309.5730
336.0389
356.2551
359.3739
372.0898
387.4875
401.7516
413.7114
425.0686
439.8416
447.8312
466.5590
503.1594
556.4905
595.1933
606.6328
618.6271
628.8807
644.8316
708.4408
719.5330
748.6895
776.7310
819.3406
851.0598
854.7152
895.4515
941.7857
979.4477
1000.8160
1031.9641
1073.1280
1104.9859
1147.9870
1184.1268
1215.7969
1271.2942
1357.6459
1376.0128
1381.1791
1463.7918
1478.8144
1576.4168
1615.8022
1619.3447
1634.1236
1645.3395
1700.9041
1724.0833
1766.1877
1819.0588
2284.6250
2575.4446
2687.9974
3051.7959
3066.6827
3108.8465
3123.1641
3178.4966
3495.8255
3593.0574
3625.4896
3682.3907
3702.1642
3719.9497
3778.7033
3915.9596
3925.7540
3933.5608
3944.6638

SYMMETRY C1
ELECTRONIC_STATE 2-A
