32
Energy =   -1180.27444709     
    C    1.798346    0.283775    0.169473
    C    0.528277   -0.561228    0.123397
    H    1.624520    1.116528   -0.521718
    O   -0.198297   -0.595879   -0.865897
    O    0.318285   -1.273220    1.206653
    H   -0.578884   -1.721531    1.184702
    N    2.131336    0.815857    1.469225
    H    1.360398    1.396031    1.789045
    H    2.242988    0.059336    2.139073
    O   -2.175049   -2.080612    1.317668
    H   -2.513563   -1.131761    1.421957
    H   -2.443661   -2.583283    2.093790
    O   -3.786558    0.653543   -1.248772
    H   -3.503212   -0.285993   -1.416849
    H   -4.636705    0.795539   -1.675871
    H   -0.875112    2.186342    0.121227
    O   -0.690241    2.091233    1.091397
    H   -0.717649    2.976019    1.470182
    H   -2.104862    0.983813    1.456234
    O   -2.875910    0.384474    1.395211
    H   -3.339565    0.621585    0.571093
    C    2.933092   -0.592300   -0.386104
    H    3.195465   -1.352565    0.357123
    H    2.605663   -1.113758   -1.288952
    S    4.476618    0.308426   -0.733141
    H    4.047537    0.892625   -1.863526
    H   -1.766819   -1.486036   -1.380495
    O   -2.705249   -1.745255   -1.420738
    H   -2.831493   -2.211617   -0.579625
    H   -2.216991    1.680872   -1.563440
    O   -1.276781    1.927728   -1.498786
    H   -0.796512    1.097844   -1.651885

FREQUENCIES 90
28.0376
50.0974
58.5954
62.3035
71.8842
77.9675
83.8302
104.8038
120.9463
144.8734
156.5290
166.8909
185.0828
188.3102
200.9656
214.2425
222.2966
234.4205
259.4180
262.1837
274.4820
293.7054
297.6946
323.6525
326.8642
332.2807
369.0027
386.0911
408.0179
417.0702
454.5475
470.6763
515.4101
538.8520
557.1327
560.4532
605.8123
649.6041
689.8636
708.5743
730.3156
734.6534
772.3898
796.9675
842.2143
858.0281
870.3190
945.2903
953.5714
985.4519
987.4183
1026.7685
1041.9471
1179.4392
1183.6812
1238.1313
1272.0887
1324.2584
1340.3598
1366.6488
1402.1521
1470.0507
1492.1821
1631.5353
1647.0228
1661.4856
1672.5332
1682.5053
1705.0142
1716.7834
1781.7357
2764.2159
2909.5885
3089.4782
3101.5084
3136.7339
3152.4066
3222.1297
3283.4006
3540.6795
3620.5367
3633.4296
3697.9105
3721.8516
3730.5451
3818.7710
3829.7623
3935.6929
3941.9313
3959.8899

SYMMETRY C1
ELECTRONIC_STATE 1-A
