32
Energy =   -1180.01032816     
    C   -1.347159   -0.393488   -0.960060
    C    0.104219   -0.387472   -1.487317
    O    0.632479   -1.502590   -1.631963
    O    0.617910    0.745431   -1.707868
    N   -1.499436   -1.692132   -0.229650
    H   -2.038154   -0.416994   -1.809105
    H   -2.473798   -1.854646    0.042352
    H   -1.126792   -2.441952   -0.823397
    H    2.057843    0.702985   -1.538804
    O   -1.562176   -1.336171    2.747087
    H   -1.891796   -2.042022    3.317806
    H   -0.911639   -1.646754    0.622857
    H    2.743445    1.165052   -0.121656
    O    3.000431    0.743877   -1.070360
    H    3.298960   -0.179424   -0.911008
    H    1.499893    2.346783    0.742819
    O    2.112456    1.636070    1.039418
    H    1.567947    0.900089    1.369807
    O    2.926814   -1.868494   -0.329012
    H    3.579430   -2.578465   -0.337090
    H    2.247393   -2.049760   -1.010934
    H    1.631816   -1.401556    1.024857
    O    0.836124   -0.930765    1.341760
    H    0.640467   -1.225283    2.242479
    C   -1.689425    0.755195   -0.020362
    H   -1.657777    1.706401   -0.561009
    H   -0.934691    0.842966    0.770730
    S   -3.318849    0.608761    0.737957
    H   -1.846308   -0.516739    3.173813
    H    0.467914    4.094482   -0.632818
    O    0.375692    3.175792   -0.357073
    H    0.385398    2.615130   -1.149999

FREQUENCIES 90
36.7624
54.7253
62.4194
68.6014
85.7719
88.5303
91.1405
103.5470
114.6055
130.9720
134.9683
142.9416
164.4698
175.4478
194.6877
202.7634
217.5471
230.0446
241.5016
243.3494
266.2965
267.5988
308.4867
327.1057
333.8579
355.2301
370.6763
376.9353
425.8495
430.6387
443.0520
458.3467
493.4091
526.8410
539.1674
577.6560
594.3497
641.3004
654.8387
702.6890
723.3255
754.0930
778.3897
782.6176
828.1362
850.6592
895.2398
930.8324
954.6044
984.2789
1060.0398
1086.9855
1152.4337
1252.2817
1263.2914
1351.2368
1391.0927
1410.6652
1467.3964
1487.4222
1505.7184
1574.8616
1590.6760
1594.4065
1607.7784
1644.9709
1659.7293
1669.3074
1690.3447
1778.9039
1820.7249
2112.7596
2477.1655
3090.8926
3128.0103
3140.5667
3319.7304
3440.7275
3509.0346
3512.3948
3538.1590
3602.0035
3665.9321
3741.9120
3766.2014
3838.4048
3890.2241
3934.1134
3942.2152
3948.3561

SYMMETRY C1
ELECTRONIC_STATE 2-A
