32
Energy =   -1179.98264133     
    C   -1.511791   -0.423011    0.446429
    C   -0.137346   -1.097134    0.315769
    H   -1.986328   -0.824446    1.346599
    O    0.466370   -1.491971    1.294058
    O    0.267802   -1.155355   -0.927567
    H    1.223224   -1.472958   -1.024727
    N   -1.369654    1.023573    0.617302
    H   -0.857078    1.480110   -0.151213
    H   -1.108887    1.329967    1.559906
    O    2.781567   -1.550314   -1.281261
    H    3.165439   -1.451081   -0.350966
    H    3.199745   -2.295499   -1.727758
    O    1.579586    1.115008    0.624398
    H    1.982629    1.548752   -0.145980
    H    1.530999    1.737238    1.361891
    H    0.460838    1.323675   -2.112780
    O   -0.457931    1.617505   -1.957571
    H   -0.598351    2.382196   -2.526572
    H    2.916367    1.540827   -2.643167
    O    2.320740    1.090516   -2.033639
    H    2.627580    0.165171   -1.962572
    C   -2.427780   -0.536580   -0.765920
    H   -1.870529   -0.377871   -1.691500
    H   -3.020159   -1.449794   -0.823839
    S   -3.482762    0.949962   -0.580024
    H   -4.081178    0.586881    0.570535
    H    2.893852   -1.669601    1.708897
    O    3.337930   -1.018333    1.150940
    H    2.750432   -0.236880    1.157235
    H    0.120887    0.866550    3.962116
    O    0.132111    0.792673    3.001375
    H    0.361194   -0.125491    2.780309

FREQUENCIES 90
43.0797
51.5002
68.5544
74.2665
81.0112
93.2975
98.9795
117.9672
123.7787
126.8559
147.6192
156.3067
166.6552
185.1648
192.3811
209.2380
220.3818
224.0473
245.0988
264.0573
268.5344
295.8760
311.9013
327.9032
336.3508
351.9538
358.2856
381.7840
396.9244
408.0944
417.1411
432.7378
448.1285
489.2486
502.0435
544.6271
563.9836
570.6749
587.4759
628.2085
661.0694
664.2837
733.4528
751.9986
756.3508
785.9519
835.9976
863.0875
883.1602
963.5034
997.1623
1041.0360
1056.5310
1083.6636
1132.6755
1150.7707
1275.5049
1284.4748
1353.4956
1367.9066
1401.1824
1475.4604
1482.7531
1565.6237
1612.6659
1621.3488
1641.8907
1653.3123
1655.2098
1673.5537
1837.5561
2696.8689
2861.6387
3037.6362
3125.1333
3142.8394
3216.4484
3332.2209
3488.1258
3630.7052
3642.4470
3670.4311
3756.5007
3770.9714
3908.1094
3914.5014
3923.6950
3938.7549
3942.3384
3949.3731

SYMMETRY C1
ELECTRONIC_STATE 2-A
