32
Energy =   -1179.98335635     
    C   -2.190482    0.167471   -0.310597
    C   -0.773008    0.708629   -0.175420
    H   -2.607113    0.564445   -1.253122
    O    0.209918   -0.018660   -0.118911
    O   -0.726078    2.013626   -0.116734
    H    0.230644    2.313984   -0.024219
    N   -2.160377   -1.261212   -0.381567
    H   -3.130885   -1.599142   -0.362550
    H   -0.781743   -2.203545   -0.365364
    O    1.809319    2.589144    0.163438
    H    2.123730    3.497175    0.078153
    H    2.352788    2.021928   -0.424363
    O    4.002772   -1.216456    0.542463
    H    3.493167   -0.706351    1.229523
    H    4.704283   -1.725182    0.964406
    H    1.104013   -2.297815   -0.725422
    O    0.026747   -2.815015   -0.356409
    H   -0.198702   -3.669076   -0.744765
    H    1.499381    0.150563    1.250932
    O    2.286355    0.256272    1.812455
    H    2.410849    1.212066    1.882415
    C   -3.085510    0.692913    0.844843
    H   -2.697194    0.326251    1.799208
    H   -3.046911    1.782466    0.860018
    S   -4.802321    0.106319    0.749392
    H   -5.176540    0.899456   -0.267815
    H    3.678194    0.947987   -2.135218
    O    3.245852    0.721292   -1.302575
    H    3.906226    0.254271   -0.758164
    H    1.980424   -0.900808   -1.330674
    O    2.094406   -1.839688   -1.085036
    H    2.847841   -1.836762   -0.421342

FREQUENCIES 90
19.6186
52.4337
54.8140
63.4642
64.2227
69.8290
89.0870
92.4331
119.1420
121.8648
143.0848
151.8001
159.4836
175.8228
195.3536
200.9337
216.1394
250.4540
253.4766
267.9786
277.8558
291.5692
302.1411
345.8015
363.0923
373.9333
398.1045
420.0193
425.1046
453.5491
476.6872
514.8620
524.8131
538.0492
563.8581
569.9533
579.4988
649.3023
650.7687
667.1619
673.9114
709.6116
722.1088
796.9353
819.0782
833.8767
898.8773
910.9702
969.1550
985.9702
1033.2301
1040.4605
1066.5349
1117.9698
1171.7857
1216.8639
1241.7761
1279.2485
1301.0118
1348.7725
1414.6886
1424.4785
1473.0407
1523.5581
1595.3161
1631.4051
1646.0858
1652.7105
1662.1410
1738.0722
1762.0109
1816.5421
2755.4406
2954.9654
3015.5229
3035.6549
3078.2079
3113.7960
3184.0222
3255.3816
3437.6574
3563.7711
3712.1547
3743.1724
3749.0760
3902.6334
3909.3884
3918.1221
3920.4469
3935.4393

SYMMETRY C1
ELECTRONIC_STATE 2-A
