32
Energy =   -1180.26456673     
    C    2.953042   -0.490450   -0.149199
    C    1.572485   -1.155304   -0.127463
    O    1.140213   -1.371146    1.102620
    O    0.968505   -1.452149   -1.139766
    N    3.485121   -0.257846   -1.473333
    H    3.625318   -1.175319    0.384478
    H    0.229182   -1.791141    1.116444
    H    3.435670   -1.111277   -2.021749
    H    2.918215    0.429738   -1.964222
    O   -3.029088    2.341565   -0.731553
    O   -1.450838    1.694651    1.355194
    H   -2.851895    3.089262   -1.308849
    H   -2.028979    1.982470    0.609621
    H   -3.195505    1.562846   -1.313908
    H   -0.555981    1.612307    0.994965
    H   -1.749041   -1.613770    1.910895
    O   -1.305722   -2.298063    1.312976
    H   -1.469089   -3.173792    1.677631
    H   -4.230363   -0.170940   -2.500335
    O   -3.361666    0.185626   -2.295165
    H   -2.801111   -0.575936   -2.008898
    H   -1.891051   -2.052311   -0.502476
    O   -1.842624   -1.859936   -1.453065
    H   -0.890889   -1.753594   -1.609843
    C    2.927848    0.803876    0.667731
    H    2.649868    0.587803    1.699136
    H    3.918648    1.257772    0.620796
    S    1.704998    1.967815   -0.059534
    H    2.063031    3.036858    0.666166
    H   -2.207086   -0.225706    3.592936
    O   -2.330759   -0.375937    2.651438
    H   -2.021696    0.449767    2.173410

FREQUENCIES 90
26.7743
32.1390
42.4246
47.6956
54.3469
59.6242
65.5274
71.5596
84.5157
95.5269
104.6308
122.0518
139.7325
162.6989
173.8691
190.3157
202.9172
239.6026
243.1061
277.2234
294.4165
297.7668
300.3526
311.9448
333.7552
343.5399
349.3714
361.7808
368.1352
421.2328
449.5277
462.1770
463.1910
505.9701
519.4452
534.7386
572.0473
578.8011
623.8193
645.8025
697.7231
743.6445
773.6759
841.6698
860.0640
891.4874
897.6058
943.7424
951.2577
972.1692
1008.2720
1040.6572
1060.4526
1137.1448
1154.2842
1171.7125
1263.7757
1289.1184
1324.3175
1360.8548
1395.9362
1457.2787
1482.1993
1641.2212
1652.9617
1671.7844
1674.5401
1678.7269
1698.3208
1712.6607
1832.4838
2789.6552
2892.6155
3076.4940
3105.1213
3118.9307
3142.7009
3190.1004
3331.0366
3413.2093
3461.8181
3532.2740
3621.4156
3771.9286
3830.1400
3834.5580
3943.9066
3956.2622
3965.4651
3968.7404

SYMMETRY C1
ELECTRONIC_STATE 1-A
