3
Energy =   -55.3883896998     
    N    1.431267   -0.760942   -0.234463
    H    1.823621   -0.177443   -1.018409
    H    1.471301   -1.772148   -0.525740

FREQUENCIES 3
1417.8753
3182.9076
3272.0978

SYMMETRY CS
ELECTRONIC_STATE 1-A'
