3
Energy =   -76.3950380365     
    H    0.649712    0.808560    0.000000
    H    1.196895   -0.628332   -0.000000
    O    0.383001   -0.115638   -0.000000

FREQUENCIES 3
1594.4683
3884.5957
4009.9074

SYMMETRY C2V
ELECTRONIC_STATE 1-A1
