7
Energy =   -265.440887311     
    C    0.271362    0.044124    0.284350
    O    1.404958   -0.292897    0.354880
    O   -0.662042   -0.397043   -0.540168
    H   -1.503517    0.077256   -0.353410
    H   -2.898468    1.955677   -0.074062
    O   -2.893488    1.007508    0.095028
    H   -3.292798    0.872148    0.960963

FREQUENCIES 15
82.9542
136.8718
179.3136
212.8927
318.7844
353.7492
647.5762
923.6941
1190.9582
1355.9928
1621.9879
1958.4121
3501.1087
3876.6435
3995.3617

SYMMETRY C1
ELECTRONIC_STATE 2-A
