5
Energy =   -437.972740295     
    C   -0.035616    1.298488    0.703303
    H    0.715135    1.543229   -0.033191
    S    0.381801    1.034026    2.359596
    H   -1.086062    1.420756    0.483987
    H    1.704823    0.894927    2.191044

FREQUENCIES 9
247.9578
365.8033
788.3314
850.6340
1079.7870
1428.2030
2749.6615
3210.5297
3341.7901

SYMMETRY C1
ELECTRONIC_STATE 2-A
