5
Energy =   -437.696416477     
    C   -0.021040    1.338737    0.756757
    H    0.727797    1.484389   -0.020244
    S    0.351253    0.978910    2.290349
    H   -1.076547    1.436777    0.504777
    H    1.698619    0.952614    2.173100

FREQUENCIES 9
855.9459
861.4876
1063.7528
1087.1199
1136.8661
1486.6798
2673.6699
3172.2900
3294.1745

SYMMETRY C1
ELECTRONIC_STATE 1-A
