13
Energy =   -741.315621496     
    C   -0.519338   -0.456499    0.723878
    H   -0.731304   -0.581997    1.781230
    C   -1.426420   -1.001608   -0.311117
    C    0.865202   -0.195120    0.208557
    H   -1.017237   -1.381064   -1.244851
    H   -2.355018   -1.457184    0.029363
    S   -1.463955    0.805533   -0.222898
    O    0.897797    0.492673   -0.821356
    O    1.854357   -0.702481    0.835605
    H    2.767955   -0.482460    0.386229
    H    4.130123    0.447643   -0.972323
    O    4.031784   -0.210606   -0.273456
    H    4.897287   -0.389672    0.113738

FREQUENCIES 33
62.4356
65.4619
130.8463
192.1263
227.1166
231.4465
288.1177
304.6420
449.5079
483.9585
608.1140
664.3069
732.2125
777.5005
876.9605
907.2416
1023.6548
1071.5237
1079.7335
1117.1396
1162.4079
1312.3844
1454.5358
1462.1352
1586.7463
1617.0829
1711.2368
2523.5056
3157.7038
3246.2663
3262.0775
3852.8185
3967.2702

SYMMETRY C1
ELECTRONIC_STATE 2-A
