9
Energy =   -228.853588812     
    O   -0.225530    0.804840    0.103125
    H    0.702591    0.249244   -0.017331
    H   -0.295866    1.616259   -0.421318
    O    1.881929   -0.360800   -0.116709
    H    2.493515   -0.420015    0.630106
    H    2.093387   -1.045648   -0.765408
    O   -2.316680   -0.717752    0.312776
    H   -3.240804   -0.506540    0.564136
    H   -1.088294    0.286207    0.159566

FREQUENCIES 21
76.7328
186.2601
244.9422
247.2730
293.9926
378.1699
441.7352
469.3153
490.6528
591.0656
798.8521
1318.6904
1548.6019
1608.5355
1691.7715
2078.0329
3034.9681
3727.8376
3823.2055
3859.0184
3930.0616

SYMMETRY C1
ELECTRONIC_STATE 2-A
