13
Energy =   -360.696565145     
    N   -0.261373    0.763587    1.164902
    H    0.181095    1.587938    0.643025
    C    0.616898   -0.414677    1.104253
    H    0.546760   -1.121720    1.912848
    C    1.295289   -0.629513   -0.071215
    O    1.324696    0.117269   -1.098663
    H   -1.188867    0.609132    0.755614
    O    2.013992   -1.786255   -0.121862
    H    2.440662   -1.781281   -0.989477
    H   -0.397876    1.055819    2.131414
    H    1.684215    3.031059   -0.287510
    O    0.895895    2.501804   -0.439248
    H    1.172316    1.618583   -0.872541

FREQUENCIES 33
54.8527
155.2933
189.5361
288.6355
300.0355
356.6093
440.0402
453.5067
510.7040
541.0029
610.6613
663.2825
758.6149
923.5365
1042.7135
1108.4704
1125.8648
1141.0745
1210.0908
1303.1311
1482.2191
1563.6727
1608.8966
1668.4716
1705.5975
1752.3523
2562.7236
2867.2042
3321.7051
3405.2100
3543.0671
3871.1620
3960.7879

SYMMETRY C1
ELECTRONIC_STATE 1-A
