13
Energy =   -360.692243151     
    N   -0.740472    1.694243    0.135434
    H    0.142457    1.873313   -0.423343
    C   -0.322084    0.466271    0.822570
    H   -0.995901   -0.044536    1.485087
    C    0.956326    0.139380    0.422174
    O    1.587203    0.878588   -0.411660
    H   -1.530249    1.583979   -0.504359
    O    1.520579   -0.967838    0.928703
    H    2.413349   -1.066240    0.539053
    H   -0.924443    2.491975    0.747391
    H    3.202180    0.153652   -0.752534
    O    3.829804   -0.580451   -0.579041
    H    4.650260   -0.190275   -0.264786

FREQUENCIES 33
63.8624
155.9721
174.1287
191.7950
262.9973
272.6255
339.7044
363.9387
426.0735
530.2480
691.5906
724.5859
762.0448
795.1725
970.4180
1071.2072
1090.5571
1095.7070
1247.4806
1345.5359
1374.4028
1541.9091
1610.7243
1654.7796
1663.3277
1705.0155
2939.5569
3336.8739
3434.8207
3483.9015
3526.5591
3620.8229
3964.4323

SYMMETRY C1
ELECTRONIC_STATE 1-A
