12
Energy =   -305.283175007     
    O    0.176872   -1.582132    0.183875
    H   -0.760051   -1.095289    0.124890
    H    0.270659   -2.121318    0.982924
    H    0.981564   -0.909852    0.045974
    O    1.950324    0.087395   -0.117166
    H    2.765368   -0.032741   -0.620731
    O   -1.926988   -0.324821    0.058130
    H   -1.813113    0.630205   -0.064387
    H   -2.741276   -0.617783   -0.370104
    O   -0.215481    2.000085   -0.049819
    H   -0.316388    2.970068    0.046252
    H    1.628480    0.996191   -0.219823

FREQUENCIES 30
53.9344
79.5752
134.3755
172.1314
222.6095
242.4650
289.6996
334.8063
411.0967
428.7756
430.4005
442.6142
488.0798
521.2057
578.9963
651.6944
1168.2425
1266.2254
1584.9780
1611.3224
1612.2434
1804.9718
2252.5922
2475.4421
3713.9175
3798.4753
3808.5757
3862.8796
3932.2228
3937.0545

SYMMETRY C1
ELECTRONIC_STATE 2-A
