17
Energy =   -797.862222907     
    C   -0.081870    0.192589   -0.257114
    C    1.052554    1.158865    0.115336
    N    0.224311   -1.069684    0.472174
    O    0.936326    2.319305   -0.490130
    O    1.934278    0.879221    0.889603
    H   -0.022219   -0.034703   -1.326672
    H    0.331579   -0.895241    1.477785
    H   -0.551758   -1.729955    0.325913
    C   -1.465482    0.743899    0.103830
    S   -2.754380   -0.503042   -0.259886
    H   -1.646687    1.640343   -0.494360
    H   -1.501398    1.033175    1.157562
    H   -3.304267   -0.528835    0.961677
    H    1.146169   -1.454802    0.120796
    H    3.323336   -0.985944   -0.156063
    O    2.633167   -1.519396   -0.573753
    H    3.066600   -2.249728   -1.032611

FREQUENCIES 45
38.2010
54.0911
90.3763
108.7713
158.7779
205.3706
215.0512
283.5699
299.9968
312.4258
333.1135
367.0663
420.5578
441.4747
518.6331
589.6540
670.0791
776.8007
813.1372
855.3054
925.7377
1010.9794
1090.4704
1112.6494
1155.2196
1249.7960
1265.8437
1284.7308
1355.7114
1410.8355
1473.9682
1526.2137
1613.3161
1652.1800
1681.4847
1805.4618
2746.7369
2849.7194
3110.8460
3137.2768
3173.5216
3388.3116
3478.7673
3834.9714
3949.5100

SYMMETRY C1
ELECTRONIC_STATE 2-A
