17
Energy =   -797.877549647     
    N   -1.271951    1.646968   -0.611720
    H   -1.727387    1.034915   -1.294437
    C   -0.795803    1.095497    0.558165
    H   -0.701553    1.852010    1.344087
    C   -1.548980   -0.174108    1.000487
    C    0.826256    0.755916    0.276366
    H   -0.955517   -0.712052    1.738642
    H   -2.473035    0.158803    1.482314
    S   -2.048707   -1.265737   -0.353625
    O    1.559319    1.694210    0.209804
    H   -0.875933   -1.906183   -0.470175
    O    1.036623   -0.510173    0.167212
    H    2.056582   -0.675604   -0.013493
    H   -1.044738    2.601760   -0.876737
    H    4.035951   -0.011183   -0.185916
    O    3.459482   -0.778312   -0.298090
    H    3.980064   -1.581646   -0.173078

FREQUENCIES 45
34.0501
52.7268
59.9419
115.5149
191.9626
215.8058
240.0966
249.8188
287.8626
341.6772
383.3658
410.2012
459.0107
477.2482
502.2512
597.1985
672.0924
698.0834
710.5562
769.0021
788.4179
885.5153
995.8941
1057.3331
1084.8476
1133.4651
1225.1219
1256.0849
1317.6954
1325.8437
1399.4616
1456.6155
1577.5467
1600.6045
1621.2456
1916.3233
2432.5997
2720.6314
3114.6139
3117.5884
3198.0360
3431.1352
3625.9873
3848.2949
3961.3621

SYMMETRY C1
ELECTRONIC_STATE 2-A
