17
Energy =   -797.923753418     
    N   -0.117992    0.770869    1.265235
    H    0.485839    1.443670    0.717518
    C   -0.253530   -0.494497    0.487261
    H   -0.814570   -1.212258    1.093238
    C   -0.993015   -0.223997   -0.833639
    C    1.153395   -1.024054    0.243176
    H   -0.376059    0.408172   -1.488718
    H   -1.145353   -1.173033   -1.355825
    S   -2.564564    0.625250   -0.621565
    O    2.146257   -0.419964    0.568157
    H   -1.053664    1.178887    1.395600
    O    1.115360   -2.193831   -0.371440
    H    2.017899   -2.524104   -0.524212
    H    0.323632    0.615041    2.175295
    H    1.532513    3.018702   -0.778000
    O    1.461453    2.108593   -0.464165
    H    2.356660    1.744003   -0.417059

FREQUENCIES 45
54.1924
63.1588
116.3623
144.2761
172.9677
231.6666
262.5969
310.0729
325.5842
346.5634
395.9537
433.6793
502.7519
537.2803
604.0158
655.9904
705.8015
762.3207
801.3203
888.2349
951.8525
1070.2222
1092.7933
1155.8202
1217.1128
1249.0570
1282.5270
1339.8472
1373.4309
1427.4764
1465.3541
1543.8240
1605.4831
1646.8956
1689.1949
1886.5568
2903.1030
3066.2990
3136.9111
3145.4470
3401.2616
3524.2975
3780.6597
3830.3870
3944.9032

SYMMETRY C1
ELECTRONIC_STATE 2-A
