4
Energy =   -188.726093469     
    C    0.095556    0.052763    0.000000
    O    1.132223    0.488407    0.000000
    O   -0.980557   -0.526950    0.000000
    H   -1.832417   -0.023031    0.000000

FREQUENCIES 6
543.0403
602.0472
972.3892
1300.7577
2542.2297
3564.1709

SYMMETRY CS
ELECTRONIC_STATE 1-A'
