2
Energy = -74.5092754020
    C    1.064612    0.000000    0.000000
    C   -1.064612    0.000000    0.000000

FREQUENCIES 1
459.5737

SYMMETRY D*H
ELECTRONIC_STATE 1-SGG
