2
Energy =   -74.4904087520
    C    0.766175    0.000000    0.000000
    C   -0.766175    0.000000    0.000000

FREQUENCIES 1
848.2772

SYMMETRY D*H
ELECTRONIC_STATE 1-DLTG
