3
Energy = -130.4438760900
    N    0.000000    0.000000    0.000000
    C    0.000000    0.000000   -1.236263
    C    0.000000    0.000000    1.236263

FREQUENCIES 4
454.4952
454.4952
1312.3571
4616.4621

SYMMETRY D*H
ELECTRONIC_STATE 4-SGU
