3
Energy = -130.4861594200
    N    1.311263    0.035118   -0.000000
    C    0.125141   -0.040517   -0.000000
    C   -1.162833    0.057151    0.000000

FREQUENCIES 3
429.2208
1292.0781
1838.5439

SYMMETRY CS
ELECTRONIC_STATE 4-A"
