3
Energy = -130.5084659300
C  0.433391304 -0.761689293 -0.000000000
C  0.361425696  0.814275293 -0.000000000
N -0.633743000 -0.020794000  0.000000000

FREQUENCIES 3
668.1914
894.3410
1606.7209

SYMMETRY C2V
ELECTRONIC_STATE 2-A1
