3
Energy = -130.5268895900
    C    0.000000    0.000000    1.239468
    C    0.000000    0.000000   -1.239468
    N    0.000000    0.000000   -0.000000

FREQUENCIES 4
228.6777
403.0573
1305.2114
1528.0841

SYMMETRY D*H
ELECTRONIC_STATE 2-PIG
