3
Energy = -113.3123398100
C -0.759828936  0.111432216 -0.000000000
C  0.476417098  0.602314764 -0.000000000
C  0.283410838 -0.713746981  0.000000000

FREQUENCIES 3
1182.3575
1182.3575
1651.7044

SYMMETRY D3H
ELECTRONIC_STATE 1-A1'
