3
Energy =   -113.4085316700
    C   -0.584355   -0.436532    0.000000
    C    0.723064   -0.358523    0.000000
    C   -0.138710    0.795054    0.000000

FREQUENCIES 3
732.0614
1238.8587
1661.0700

SYMMETRY C2V
ELECTRONIC_STATE 2-B2
