3
Energy =   -113.3908255700
  C           -1.27320647          0.10000000         -0.00000000
  C           -0.03288631         -0.00000000          0.00000000
  C            1.30609278          0.00000000         -0.00000000

FREQUENCIES 3
20.4032
1197.1842
2024.2584

SYMMETRY CS
ELECTRONIC_STATE 2-A'
