4
Energy = -168.4783893500
    C   -0.023286    0.743232    0.000000
    C    1.222805    0.000000    0.000000
    C   -0.023286   -0.743232   -0.000000
    N   -1.176233   -0.000000   -0.000000

FREQUENCIES 6
408.1798
421.4168
512.9303
995.8947
1230.0775
1368.2618

SYMMETRY C2V
ELECTRONIC_STATE 2-B1
