4
Energy =   -151.3773680700
C  0.051285498  0.755085000 -0.039090750
C -0.049337929  0.062982569  1.151862029
C -0.051285498 -0.755085000  0.039090250
C  0.049337929 -0.062982569 -1.151862529

FREQUENCIES 6
586.2300
770.8148
837.9017
888.6613
1386.5480
1452.4187

SYMMETRY D2H
ELECTRONIC_STATE 4-B3U
