4
Energy = -150.6601479700
    C    0.985000    0.676000    0.000000
    C   -0.250000    0.000000    0.000000
    C   -1.720000    0.000000    0.000000
    C    0.985000   -0.676000    0.000000

FREQUENCIES 6
218.7185
263.7615
773.2757
941.0620
1334.8035
1582.3192

SYMMETRY C2V
ELECTRONIC_STATE 3-B2
