4
Energy = -150.6675822500
    C    0.367340    0.674545    0.906600
    C    0.311585    0.440940   -0.454027
    C   -0.369287   -0.673701   -0.907073
    C   -0.309638   -0.441785    0.454501

FREQUENCIES 6
149.7497
607.0243
911.1274
992.9184
1238.0017
1553.0244

SYMMETRY CS
ELECTRONIC_STATE 1-A'
