4
Energy = -150.7552776300
    C    0.624166    0.797590    0.117530
    C   -0.773639    0.550738    0.371028
    C    0.773653   -0.550744   -0.371021
    C   -0.624181   -0.797584   -0.117536

FREQUENCIES 6
546.5675
554.1702
554.1702
633.3897
1232.3635
1244.5871

SYMMETRY D4H
ELECTRONIC_STATE 1-A1G
