5
Energy = -206.5091464800
    C   -2.282351   -0.721558   -0.380494
    C    2.451818    0.798777    0.372352
    C    1.219016    0.402834    0.176204
    C    0.036667    0.023099   -0.011880
    N   -1.153967   -0.359183   -0.201217

FREQUENCIES 10
69.4626
131.9839
255.8273
298.6494
355.8112
556.4906
793.5139
1465.3300
1934.5442
1986.9460

SYMMETRY C*V
ELECTRONIC_STATE 2-PI
