5
Energy = -206.5459859900
    C   -2.085199    1.175515    0.000000
    C   -0.748260    1.175515    0.000000
    C    0.505420    1.175515    0.000000
    C    1.822059    1.175515    0.000000
    N   -3.252342    1.175515    0.000000

FREQUENCIES 10
116.6820
134.7191
308.2723
368.8868
448.2148
592.1714
752.5259
1421.3257
1988.2358
2180.5980

SYMMETRY C*V
ELECTRONIC_STATE 2-PI
