5
Energy = -206.3938125700
    N    0.000000    0.269230   -0.000000
    C    0.690120    1.480190   -0.000000
    C   -0.690120    1.480190   -0.000000
    C   -0.000000   -2.276856    0.000000
    C   -0.000000   -0.992755    0.000000

FREQUENCIES 9
90.3876
181.5072
267.4523
521.8508
535.8462
742.5355
1134.1072
1500.7036
1940.0791

SYMMETRY C2V
ELECTRONIC_STATE 2-B2
