5
Energy = -206.4136068900
    C   -1.547816   -0.593317    0.000000
    C   -0.172077   -0.201808   -0.000000
    C    1.112821   -0.042919   -0.000000
    C    2.355844    0.091023   -0.000000
    N   -1.498949    0.640303    0.000000

FREQUENCIES 9
130.5714
186.9861
349.0293
369.8907
457.6205
711.6549
1379.4252
1720.7138
1858.9669

SYMMETRY CS
ELECTRONIC_STATE 4-A"
