5
Energy = -206.5449544400
    C   -0.000000   -1.009921   -0.000000
    C    0.000000    0.382187    0.000000
    C   -0.678774    1.580955    0.000000
    C    0.678774    1.580955   -0.000000
    N   -0.000000   -2.164176   -0.000000

FREQUENCIES 9
200.5861
234.0311
540.3627
575.2980
575.5440
722.4550
1291.8542
1672.7952
2300.5669

SYMMETRY C2V
ELECTRONIC_STATE 2-B2
