5
Energy = -188.6885001400
C -1.717749552 -0.651150321 -0.499518344
C  0.871730510  0.059926527 -0.844197826
C  1.192974702 -0.011687580  0.485966809
C -0.457998168 -0.020804155 -0.178987813
C  0.111041510  0.623714527  1.036738174

FREQUENCIES 9
200.6138
235.6523
326.9057
571.4552
706.0364
738.0557
1116.6098
1130.6745
1315.1554

SYMMETRY CS
ELECTRONIC_STATE 3-A"
