5
Energy = -188.7590428000
    C   -0.126224   -0.000000    0.024626
    C   -0.003873    0.000000    2.694906
    C    0.193805    0.000000    3.961595
    C   -0.205192    0.000000    1.427916
    C    0.149031   -0.000000    5.368584

FREQUENCIES 9
48.7402
85.0356
117.3619
320.5013
552.9520
723.4005
1057.7901
1605.9528
1884.6752

SYMMETRY CS
ELECTRONIC_STATE 1-A'
