5
Energy = -188.7512399200
    C   -0.748115   -0.723353   -0.000000
    C    0.748115   -0.723353    0.000000
    C    1.378578    0.392849    0.000000
    C   -1.378578    0.392849   -0.000000
    C    0.000000    0.651008   -0.000000

FREQUENCIES 9
264.3411
366.6492
424.0621
740.1685
817.2606
1117.2468
1127.3244
1716.2864
1729.5115

SYMMETRY C2V
ELECTRONIC_STATE 1-A1
