5
Energy = -188.7005691400
C  0.037961480  1.779214122  1.099561265
C  0.599416801 -0.187371133 -0.738357257
C -0.618891447 -0.725384746  0.174270565
C -0.029957322 -1.404067745 -0.867719341
C  0.011470487  0.537609502  0.332244768

FREQUENCIES 9
57.6155
231.6277
492.3305
586.6942
734.0762
861.5770
1149.6088
1463.1374
1536.5569

SYMMETRY C2V
ELECTRONIC_STATE 3-B1
