5
Energy =   -189.3810827500
  C            2.02406817         -0.00000000          0.00000000
  C           -0.53419749         -0.76159949          0.00000000
  C           -1.64120517         -0.00000000         -0.00000000
  C           -0.53419749          0.76159949          0.00000000
  C            0.68553200          0.00000000         -0.00000000

FREQUENCIES 9
197.2911
215.0829
477.5963
649.6591
718.9669
1011.5668
1047.0662
1650.5654
1758.1336

SYMMETRY C2V
ELECTRONIC_STATE 2-A1
