5
Energy = -188.6536633200
C  0.092241683 -0.153396405 -1.198919889
C  0.283514847  0.861811327  0.539318151
C -0.374969153 -0.705911673  0.689239151
C -0.919046048  0.367461434 -0.194097190
C  0.918257671 -0.369964682  0.164459776

FREQUENCIES 9
279.1071
360.5362
548.8492
628.7719
668.0717
823.3525
998.6353
1065.5406
1212.3881

SYMMETRY CS
ELECTRONIC_STATE 3-A"
