5
Energy = -188.7016253100
    C    0.674436   -0.317982   -0.851508
    C   -0.945750   -0.417431    0.568946
    C   -0.219121    0.913478    0.710309
    C    0.200179    0.902026   -0.622443
    C    0.290257   -1.080091    0.194695

FREQUENCIES 9
19.3930
352.1792
413.8533
508.4275
586.9487
737.7799
1068.8738
1282.4393
1454.5962

SYMMETRY C1
ELECTRONIC_STATE 1-A
