6
Energy =   -227.7593958700
    C    1.094929   -0.027325    0.641724
    C   -1.170714    0.340684   -0.489462
    C   -0.125607   -0.055879    1.272105
    C   -1.423288    0.070533    1.085665
    C    0.126968    0.214208   -0.303057
    C   -2.391260    0.312057    0.140887

FREQUENCIES 12
221.8413
422.5803
484.8019
551.0964
690.1394
725.8189
881.0620
1090.0270
1147.7717
1228.6407
1363.1325
1840.8703

SYMMETRY D2H
ELECTRONIC_STATE 1-AG
