6
Energy = -227.3383738700
    C   -0.096873    0.021179   -0.093928
    C    1.530644    0.540428    1.477272
    C    0.147180    0.282156    1.281179
    C   -1.048240   -0.281314   -1.011973
    C    1.286177    0.279971    0.102333
    C    2.480639    0.844828    2.396163

FREQUENCIES 12
109.5448
203.7556
275.2103
326.4345
535.3388
583.5907
629.1122
779.7086
930.4762
1017.6775
1527.2293
1690.9655

SYMMETRY C1
ELECTRONIC_STATE 2-A
