6
Energy = -226.8108826700
C  1.239049994 -0.556570531  0.449857529
C -1.154188714 -0.047717019  0.844369510
C  0.950352240  0.039289927 -0.695248837
C -1.020227152  0.458277068 -0.370409875
C -0.084861781  0.604287550 -1.294226539
C  0.069874413 -0.497566996  1.065659212

FREQUENCIES 12
430.2270
438.4691
438.4718
551.6326
551.6420
641.3515
1190.9510
1252.5330
1252.5343
1473.9739
1671.4205
1671.4212

SYMMETRY D3H
ELECTRONIC_STATE 3-A1'
