6
Energy = -227.3872599200
    C    0.574140   -0.019497    0.648170
    C   -0.294203    0.009174   -0.331289
    C   -2.010503    0.068216   -2.269685
    C    1.718828    0.492826    1.373220
    C    1.141136   -0.588321    1.853825
    C   -1.129398    0.037603   -1.274240

FREQUENCIES 12
69.1443
125.7251
225.0330
337.9576
519.9185
551.6107
628.8849
836.4295
1127.9228
1488.4741
1708.5885
2059.1887

SYMMETRY CS
ELECTRONIC_STATE 4-A"
