6
Energy = -227.3917098100
    C    0.624072   -0.830252    0.000000
    C    1.650815    0.000000   -0.000000
    C   -0.731190   -1.176246   -0.000000
    C    0.624072    0.830252    0.000000
    C   -1.436578    0.000000   -0.000000
    C   -0.731190    1.176246   -0.000000

FREQUENCIES 12
369.7235
390.9047
471.4843
531.2230
565.6312
629.9114
882.5503
1009.2003
1203.1609
1213.2377
1380.4933
1734.9643

SYMMETRY C2V
ELECTRONIC_STATE 4-B1
