6
Energy =   -227.8235445200
C  0.000143603  1.096159928  0.000000000
C  1.267611711  0.731634721  0.000000000
C -1.267419860  0.731966439 -0.000000000
C  0.949230792 -0.548204183  0.000000000
C -0.949373895 -0.547955744 -0.000000000
C -0.000191350 -1.463601160 -0.000000000

FREQUENCIES 12
440.2043
537.3374
537.3380
643.7478
643.7480
646.1927
1221.7723
1230.3304
1230.3322
1409.8821
1757.2963
1757.2967

SYMMETRY D3H
ELECTRONIC_STATE 1-A1'
