6
Energy = -227.3050259400
    C    0.848462   -0.850999   -0.308741
    C   -0.541469   -1.037656   -0.411397
    C   -1.189877    0.218163    0.057610
    C   -0.112111    0.251719    1.058115
    C   -0.074586    0.896885   -0.620192
    C    1.069581    0.521888    0.224606

FREQUENCIES 12
293.5468
322.1928
474.0205
569.4861
714.8713
723.6324
753.5872
926.4685
1049.2496
1172.9750
1181.7905
1317.0421

SYMMETRY C1
ELECTRONIC_STATE 4-A
