6
Energy = -226.7715091300
C  0.917098472  0.453831827 -0.035743449
C -0.393396628  0.793439491 -0.513812293
C -0.917098138 -0.453831494  0.035743449
C  0.393396961 -0.793439157  0.513812293
C -0.687097665 -1.636422817  0.721018654
C  0.687097998  1.636423150 -0.721018654

FREQUENCIES 12
166.1123
466.0040
521.4382
601.6895
615.3011
677.4862
762.9055
950.8461
1212.1721
1261.0308
1315.4131
1610.7835

SYMMETRY D2H
ELECTRONIC_STATE 1-AG
