6
Energy = -226.6800278400
C  0.455111000 -0.697167000 -0.172549998
C -0.930685093 -0.650925771  0.175247430
C  0.930685093  0.650925771 -0.175247430
C -0.455111000  0.697167000  0.172549998
C  2.108239747  1.474513339 -0.396980246
C -2.108239747 -1.474513339  0.396980246

FREQUENCIES 12
105.7405
204.3400
310.3787
339.3751
515.4547
594.5406
619.2823
783.8597
862.5045
982.4191
1266.1834
1436.2244

SYMMETRY D2H
ELECTRONIC_STATE 3-AU
