6
Energy = -226.7197851400
    C    0.675509   -0.498796   -0.944602
    C   -0.171873    0.763390   -0.951422
    C    0.064497    0.556396    1.402179
    C   -0.877500    0.271083    0.291627
    C   -0.497728   -1.110881   -0.191734
    C    0.807096    0.018808    0.393953

FREQUENCIES 12
275.9330
437.4226
441.4747
632.1161
652.7902
697.0183
756.9804
774.4483
864.3411
890.2203
1116.6789
1306.5802

SYMMETRY C1
ELECTRONIC_STATE 1-A
