6
Energy = -227.3565996500
    C   -1.205450   -0.036993    0.903597
    C    2.544327    0.024257    0.892951
    C    0.034401   -0.100914    0.124914
    C    1.189278    0.002112    0.896796
    C    0.036055    0.067380    1.675234
    C    3.757638    0.044094    0.889499

FREQUENCIES 12
142.0038
150.3353
292.0770
409.2839
602.9435
642.1917
663.9304
950.6769
1127.2821
1246.6195
1636.8892
2210.4592

SYMMETRY C2V
ELECTRONIC_STATE 2-A1
