7
Energy = -264.7179336300
    C   -1.577363   -0.475500   -0.009885
    C    1.048574   -0.916263   -0.383677
    C    0.631895    0.112314    1.061367
    C    0.104586    0.958488   -0.019557
    C   -1.277050    0.736746   -0.334543
    C    1.295719    0.431667   -0.637766
    C   -0.226360   -0.847451    0.324060

FREQUENCIES 15
359.6270
366.6447
418.1150
453.9285
489.8752
602.9310
659.6186
834.2821
879.0299
887.8672
1044.7750
1133.7057
1314.3452
1354.5032
1478.9030

SYMMETRY C1
ELECTRONIC_STATE 3-A
