7
Energy =   -265.8376524100
    C    0.000000    0.000000    3.833187
    C    0.000000    0.000000    2.551962
    C    0.000000    0.000000    1.268685
    C    0.000000    0.000000    0.000000
    C    0.000000    0.000000   -1.268685
    C    0.000000    0.000000   -2.551962
    C    0.000000    0.000000   -3.833187

FREQUENCIES 16
75.5206
75.5206
171.3418
171.3418
264.1653
264.1653
544.5256
544.5256
587.6476
639.4718
639.4718
1115.5529
1605.5999
1982.7237
2211.1206
2238.1802

SYMMETRY D*H
ELECTRONIC_STATE 1-SGG
