7
Energy = -265.3001393300
    C    1.258386   -0.443092    0.326227
    C    0.949299    0.815662    0.565554
    C   -0.256290   -0.043240   -0.103515
    C   -0.456785    1.274704    0.191062
    C   -1.414031    2.205500    0.108023
    C   -0.261239   -2.488262   -0.784749
    C    0.180660   -1.321271   -0.302603

FREQUENCIES 15
150.5115
154.4353
166.2943
201.2950
352.9364
405.4920
445.5054
477.0631
571.6074
654.5079
828.4031
1296.6343
1478.8839
1660.9258
1762.6750

SYMMETRY C2V
ELECTRONIC_STATE 2-B2
