7
Energy = -265.4567875700
    C   -0.000798   -0.051496    3.840098
    C    0.000487    0.169376    2.550334
    C    0.000415    0.127861    1.275143
    C    0.000374    0.107692   -0.000009
    C    0.000320    0.128011   -1.275137
    C    0.000298    0.169699   -2.550338
    C   -0.001096   -0.051141   -3.840091

FREQUENCIES 15
71.8711
118.4990
134.5979
166.0161
244.7539
429.8364
529.7106
584.2579
601.4104
633.8063
1073.8649
1472.2945
1592.7501
1890.9011
2036.9865

SYMMETRY CS
ELECTRONIC_STATE 2-A'
