7
Energy = -264.8608095600
C -0.703194995 -1.817569625  1.462915063
C  0.423721345  1.095205528 -0.881502772
C -0.299704927 -0.774656498  0.623501099
C -0.688283216  0.598885202  0.617466914
C  1.086128741  0.035161629 -1.310099778
C  0.617519581 -0.781790133 -0.470251437
C -0.436186529  1.644763898 -0.042029088

FREQUENCIES 15
177.5657
224.2606
242.9614
413.3029
504.0305
541.0853
581.1774
587.2399
896.2376
1048.9501
1219.1954
1460.2488
1713.1331
1835.4007
1891.0447

SYMMETRY C2V
ELECTRONIC_STATE 1-A1
