7
Energy = -264.8061930700
C  1.013493396  0.941990655  0.932549730
C  1.869020962  1.737159970  1.719749488
C -0.317971912  0.553010517  0.729285741
C  0.957747808  0.041628891 -0.140605798
C -0.380693218 -0.353834821 -0.350288379
C -1.195687346 -1.111330370 -1.100191955
C -1.945909690 -1.808623842 -1.790496828

FREQUENCIES 15
112.7579
135.4318
225.0976
238.9894
448.6882
501.5403
561.4263
631.2492
720.4315
883.2435
958.5542
992.7426
1544.2040
1628.1091
2128.9934

SYMMETRY C2V
ELECTRONIC_STATE 3-B1
