7
Energy =   -265.7088329500
C  0.044228887  0.664775618  2.553746962
C -0.074098074 -0.000752573 -0.034782025
C  0.047065887 -0.662057382  2.554697962
C -0.719320496 -0.003007059 -1.255423166
C  0.740076092  0.000126813 -1.236688969
C  1.970348488  0.002447657 -1.668771836
C -0.005393786  0.000352927  1.302653072

FREQUENCIES 15
102.6936
103.2957
142.7706
239.3459
322.2809
432.4155
556.9833
578.4264
583.4102
835.9333
903.7703
1259.4008
1484.8255
1669.3323
1799.8992

SYMMETRY CS
ELECTRONIC_STATE 1-A'
