7
Energy = -265.3959376500
    C    0.000000    0.000000    3.904161
    C    0.000000    0.000000    2.556704
    C    0.000000    0.000000    1.285356
    C    0.000000    0.000000    0.000000
    C    0.000000    0.000000   -1.285356
    C    0.000000    0.000000   -2.556704
    C    0.000000    0.000000   -3.904160

FREQUENCIES 16
69.3281
80.8271
145.3833
248.1106
268.5887
317.7801
562.3135
569.0146
570.0296
984.6267
1367.6334
1712.9045
1874.2923
2006.1253
2377.0791
4015.4030

SYMMETRY D*H
ELECTRONIC_STATE ??
