7
Energy = -264.6641629900
C  1.142370663  1.259307164  0.543343763
C  0.346591555 -0.998645529 -0.058579185
C -0.841906511 -0.068981411  0.172393663
C  0.900541186 -0.645027345 -1.399661528
C -2.233981350 -0.153225080  0.428220479
C  0.214554976  0.618999800 -0.633383808
C  0.471830480 -0.012426598  0.947666615

FREQUENCIES 15
126.6057
169.3730
187.8699
217.2338
407.6591
448.1196
604.7072
636.4613
649.1309
724.7790
804.6772
861.6370
968.3374
1184.7299
1492.7761

SYMMETRY CS
ELECTRONIC_STATE 1-A'
