7
Energy = -265.3607621200
    C    1.030591    0.957894    0.948262
    C    1.857428    1.726559    1.709246
    C   -0.297084    0.557109    0.730091
    C    0.955785    0.054953   -0.124140
    C   -0.385688   -0.358639   -0.355001
    C   -1.184431   -1.100994   -1.089967
    C   -1.976601   -1.836880   -1.818490

FREQUENCIES 15
114.5689
117.6189
205.0125
272.9081
499.1097
499.4795
567.8267
635.3301
640.8193
885.9212
955.7936
1016.3348
1377.9769
1627.2155
1928.1478

SYMMETRY CS
ELECTRONIC_STATE 2-A"
