8
Energy =   -303.7879509000
    C    1.614227   -0.191300    1.604583
    C    0.115912    0.194034   -0.627930
    C    2.947365    0.272390    1.559601
    C    2.295059   -0.057652    0.353396
    C    0.653279   -0.283071   -1.842851
    C   -0.415881    0.218246    0.622496
    C    0.256614   -0.202014    1.622452
    C    1.527890    0.047508   -0.785731

FREQUENCIES 18
209.1693
218.0272
404.3028
457.0775
497.7125
514.0078
586.1996
605.3803
716.5963
792.4479
873.0341
952.1486
980.9577
1245.6296
1356.4671
1574.3181
1604.6990
1712.7330

SYMMETRY C1
ELECTRONIC_STATE 1-A
