8
Energy =   -303.8078503400
    C    0.000000    0.000000    4.483477
    C    0.000000    0.000000    3.193069
    C    0.000000    0.000000    1.907871
    C    0.000000    0.000000    0.638442
    C    0.000000    0.000000   -0.638442
    C    0.000000    0.000000   -1.907871
    C    0.000000    0.000000   -3.193069
    C    0.000000    0.000000   -4.483477

FREQUENCIES 19
63.3364
63.3364
151.1503
151.1503
246.1866
246.1866
390.8400
390.8400
515.2547
543.3370
543.3370
623.2282
623.2282
976.5253
1400.8619
1766.3833
2025.4170
2127.4838
2153.9655

SYMMETRY D*H
ELECTRONIC_STATE 3-SGG
