9
Energy =   -341.7385160800
    C    2.430330   -0.009897   -0.293038
    C    1.447941   -0.008301    2.115079
    C    2.197999   -0.010085    1.016981
    C   -1.385360    0.005852   -0.437105
    C   -0.102005   -0.000009    0.079817
    C    0.330422   -0.002901    1.417656
    C    1.144616   -0.004335   -0.579873
    C   -2.371091    0.010931   -1.217500
    C   -3.442435    0.018898   -1.977222

FREQUENCIES 21
37.7696
93.3024
226.9294
307.2019
352.0966
378.0930
442.8512
462.7300
472.3959
514.9873
516.3627
616.2750
771.2329
943.9565
1092.1351
1138.4772
1285.4331
1491.5302
1688.6306
1731.8215
1961.8556

SYMMETRY C1
ELECTRONIC_STATE 3-A
