9
Energy =   -341.7363336500
    C   -2.033481   -0.441475    3.385214
    C    0.350667   -0.576358    0.376473
    C    3.696946   -0.297317   -1.494607
    C    2.732333   -0.317490   -0.674944
    C   -0.075355   -0.386816    1.715134
    C   -1.063794   -0.411999    2.557951
    C    1.726759   -0.340487    0.180342
    C    1.307409   -0.148598    1.512752
    C   -3.015526   -0.471701    4.223128

FREQUENCIES 21
67.3711
75.5233
142.9695
153.6498
242.9412
251.5444
400.8878
457.3986
470.8425
510.8782
533.1915
600.0020
732.0127
844.8866
881.1026
939.2925
1332.5578
1603.5998
1812.9775
2080.5314
2139.6889

SYMMETRY C1
ELECTRONIC_STATE 1-A
