2
Energy =   -137.4754422900
    C    0.848018    0.000000    0.000000
    F   -0.476075    0.000000    0.000000

FREQUENCIES 1
1229.1128

SYMMETRY C*V
ELECTRONIC_STATE 4-SG
