4
Energy =   -336.8449626600
C -0.011936696  0.043705043 -0.075964580
F  0.251612789  1.228193278  0.147167477
F  0.896387545 -0.788760668 -0.140822388
F -1.183810421 -0.308317480 -0.234238828

FREQUENCIES 6
587.7755
587.7893
801.0052
1050.9402
1660.4541
1660.4654

SYMMETRY D3H
ELECTRONIC_STATE 1-A1'
