5
Energy =   -436.3976569000
C -0.017412864  0.084391477  0.061057682
F -0.261280716  0.324251856  1.340286104
F  0.778869056  1.026362943 -0.420662931
F -1.157271864  0.082839627 -0.612848052
F  0.570032070 -1.095888516 -0.062544394

FREQUENCIES 9
-836.3136
-836.3136
320.6185
387.0467
553.4465
654.7739
654.7739
760.7954
881.9147

SYMMETRY TD
ELECTRONIC_STATE 2-T1
