2
Energy = -92.3412400680
    C   -0.736217    0.000000    0.000000
    N    0.613609    0.000000    0.000000

FREQUENCIES 1
1338.4563

SYMMETRY C*V
ELECTRONIC_STATE 4-SG
