1
Energy =   -99.6176917070
  F            0.00000000          0.00000000          0.00000000

FREQUENCIES 0

SYMMETRY SO3
ELECTRONIC_STATE 2-P
