3
Energy =   -39.0751458540
    C    0.000000    0.000000    0.102610
    H    0.000000    0.996161   -0.307831
    H    0.000000   -0.996161   -0.307831

FREQUENCIES 3
1049.7958
3121.9187
3361.2083

SYMMETRY C2V
ELECTRONIC_STATE 3-B1
