3
Energy = -38.9571543540
    C    0.000000    0.000000    0.303225
    H    0.000000    0.458879   -0.909676
    H    0.000000   -0.458879   -0.909676

FREQUENCIES 3
1010.5365
1552.0468
2593.6194

SYMMETRY C2V
ELECTRONIC_STATE 3-A2
