5
Energy = -115.0172942500
    C   -1.169580   -0.444250   -0.000000
    C   -0.151861    0.442248    0.000000
    C    1.115393   -0.076881    0.000000
    H    1.593942   -1.040568    0.000000
    H   -0.357651    1.513865    0.000000

FREQUENCIES 9
231.9245
353.6591
697.3490
745.0188
1054.6004
1221.4260
1320.8983
3068.6457
3263.4074

SYMMETRY CS
ELECTRONIC_STATE 3-A"
