5
Energy =   -114.07324812000
    C   -0.000541   -0.000014   -0.000280
    C    0.548388   -0.576150   -1.048650
    C   -0.549268    0.576158    1.048175
    H   -1.009356    1.060612    1.929853
    H    1.010858   -1.060185   -1.929311

FREQUENCIES 10
203.5409
279.0332
282.9178
376.1622
827.0250
863.2916
1170.1780
1545.9024
3011.5243
3031.8393

SYMMETRY D*H
ELECTRONIC_STATE 3-SGU
