5
Energy =   -114.80054039000
    C    0.000000    0.866000    0.000000
    C   -0.696000   -0.286000    0.000000
    C    0.696000   -0.286000    0.000000
    H    1.600000   -0.886000    0.000000
    H   -1.600000   -0.886000    0.000000

FREQUENCIES 9
848.3361
899.2894
994.6727
1007.4616
1203.4946
1321.8650
1662.4755
3197.5750
3221.7973

SYMMETRY C2V
ELECTRONIC_STATE 2-A1
