6
Energy =   -152.12958175000
    C   -1.760682   -0.000490   -0.000169
    C   -0.432544   -0.000142   -0.000056
    C    0.852882    0.000194    0.000054
    C    2.119231    0.000526    0.000161
    H   -2.335480   -0.950391   -0.000230
    H   -2.335977    0.949109   -0.000206

FREQUENCIES 12
200.5219
215.9220
434.1922
490.1864
878.8711
910.4837
988.4342
1286.1711
1583.5035
2045.6909
2882.7034
2959.1731

SYMMETRY C2V
ELECTRONIC_STATE 3-B2
