7
Energy =   -191.03442817000
    C   -2.190385    0.472625    0.000047
    C   -1.244109   -0.483571   -0.000123
    C    0.101836   -0.237569    0.000220
    C    1.341260    0.001427   -0.000031
    C    2.620990    0.244744   -0.000055
    H   -2.241366    1.548335   -0.000205
    H   -1.536183   -1.534272   -0.000144

FREQUENCIES 15
123.6079
179.9412
261.6423
402.7138
581.9815
605.1218
780.3288
795.7511
895.3575
1220.1623
1372.7118
1520.6842
1952.8850
3075.1777
3252.0620

SYMMETRY C1
ELECTRONIC_STATE 3-A
