7
Energy =   -189.20773900000
    C    1.410590   -1.185838   -0.102296
    C    0.622262    0.000217    0.023479
    C   -0.816263    0.016163    0.349207
    C   -1.954231   -0.006814   -0.277903
    C    1.431599    1.169414   -0.125293
    H   -3.011503   -0.019679   -0.659174
    H   -1.151558    0.061656    1.455647

FREQUENCIES 15
15.9040
229.1792
277.4280
337.3056
424.5685
589.3924
738.3331
743.7365
769.5425
916.6227
1021.3225
1175.9845
1627.5735
2498.9116
2867.4283

SYMMETRY C1
ELECTRONIC_STATE 2-A
