7
Energy =   -190.60786092000
C -0.412163999 -0.000058559  0.100834012
C  1.084143997 -0.000431243  0.422453963
C -1.556720709 -0.686487371 -0.118990066
C  1.988524990  0.000434400 -0.628260151
C -1.556637280  0.686893449 -0.117786779
H  1.358504509 -0.898130170  1.024461087
H  1.358613509  0.896178070  1.026033169

FREQUENCIES 15
60.2503
206.3018
229.0751
355.7464
452.6900
666.3707
906.9545
914.3929
1063.1168
1159.0692
1237.5661
1340.0753
1689.0369
2843.2909
2884.6665

SYMMETRY CS
ELECTRONIC_STATE 2-A"
