7
Energy =   -191.01128693000
C  0.603530000  0.002671000  0.000074000
C -0.483195000  1.044972000  0.000359000
C -1.396824015 -0.003123061 -0.000118605
C -0.477383945 -1.046342783 -0.000419873
C  1.909347968  0.001999874  0.000198071
H -0.472740150  2.118731413  0.000760182
H -0.460116944 -2.119793782 -0.000818301

FREQUENCIES 15
57.4812
191.6406
457.1855
555.4684
587.5172
702.2738
757.4939
887.6819
1070.9281
1126.2808
1133.8193
1356.0842
1697.8703
3282.2691
3287.7029

SYMMETRY CS
ELECTRONIC_STATE 3-A"
