7
Energy =   -189.14035789000
    C   -2.493578   -0.475737   -0.005620
    C   -1.269419   -0.074558    0.012114
    C    0.001623    0.572788    0.013732
    C    1.269933   -0.078552   -0.014119
    C    2.493050   -0.483443   -0.014327
    H   -0.048088    1.400383    0.852032
    H    0.055217    1.435836   -0.788335

FREQUENCIES 15
145.8312
250.7386
274.2817
312.6939
484.8062
524.2569
634.2105
699.1759
785.1899
972.0405
1156.3019
1570.4129
1891.8227
2177.9171
2331.0033

SYMMETRY C1
ELECTRONIC_STATE 4-A
