7
Energy =   -190.97931457000
    C   -0.620193   -0.054000    0.298616
    C    0.628737    0.763290    0.091415
    C    1.785865    0.034493   -0.235437
    C    0.652799   -0.747310    0.010324
    C   -1.894298   -0.124637   -0.332764
    H   -2.324717    0.889058   -0.347142
    H   -0.987438   -0.122462    1.350269

FREQUENCIES 15
156.8162
386.4620
475.8276
520.5217
596.2603
737.0130
905.7307
926.8471
959.2620
1031.2520
1090.9313
1332.4947
1478.0617
2855.0056
3008.0732

SYMMETRY C1
ELECTRONIC_STATE 1-A
