4
Energy =   -138.3951850800
    H    0.026648    0.256315   -1.460439
    H    0.904580   -1.299349    0.750083
    C    0.669434   -0.264415    0.472053
    F   -0.314035   -0.144340   -0.655031

FREQUENCIES 6
250.0476
700.5654
906.5109
1054.7298
3055.2706
3515.4427

SYMMETRY C1
ELECTRONIC_STATE 3-A
