4
Energy =   -38.5258120400
C -0.056468845  0.312130908 -0.000531858
H -1.135915352 -0.059277743  0.000969777
H  0.827858770 -1.166609894  0.002106524
H  0.781476722  1.087368736 -0.002754008

FREQUENCIES 6
449.7743
560.6825
1016.2986
1136.9159
2573.2594
2752.1718

SYMMETRY C2V
ELECTRONIC_STATE 2-A1
