4
Energy =   -39.4005293350
    C    0.000000    0.000000    0.000000
    H    0.000000    1.090878    0.000000
    H    0.944728   -0.545439    0.000000
    H   -0.944728   -0.545439    0.000000

FREQUENCIES 6
1410.1211
1410.1220
1423.7039
3021.9423
3213.1544
3213.1545

SYMMETRY D3H
ELECTRONIC_STATE 1-A1'
