4
Energy =   -39.2651357250
    C    0.334671   -0.001882    0.098020
    H   -0.062174    0.001382    1.108666
    H   -0.037096    0.639399   -0.824937
    H   -0.035401   -0.638899   -0.826721

FREQUENCIES 6
797.8693
803.9145
1253.7024
2113.4882
2536.2163
3206.2686

SYMMETRY C1
ELECTRONIC_STATE 3-A
