5
Energy =   -76.61937058100
    C   -0.000156   -0.458126    0.000000
    C   -0.000156    0.862295    0.000000
    H   -1.118119   -0.811296    0.000000
    H    0.559995   -0.806858    0.968736
    H    0.559995   -0.806858   -0.968736

FREQUENCIES 9
261.0669
263.8060
919.1525
920.0954
957.8803
1400.0453
2356.3175
2358.6875
2420.3936

SYMMETRY CS
ELECTRONIC_STATE 2-A'
