6
Energy =   -115.77463320000
    C   -0.004123   -1.248772   -0.000000
    H    0.921508   -1.806856    0.000000
    H   -0.933499   -1.800529    0.000000
    C    0.000505    0.115274   -0.000000
    C    0.004699    1.335241    0.000000
    H    0.008271    2.396701    0.000000

FREQUENCIES 12
355.3761
408.1412
481.6262
638.3051
697.7587
1033.1887
1090.0261
1459.9565
2007.5318
3139.7086
3228.3416
3454.8783

SYMMETRY C2V
ELECTRONIC_STATE 2-B1
