6
Energy =   -114.70796745000
    C   -0.831671   -0.788362    0.000000
    C    0.000000    0.380343    0.000000
    C    1.280677    0.572668    0.000000
    H   -1.924351   -0.659286    0.000000
    H   -0.390124   -1.793296    0.000000
    H   -0.379561    1.464692    0.000000

FREQUENCIES 12
241.5859
264.8937
589.7189
854.0247
1017.7662
1105.1316
1165.5449
1429.0610
1596.9790
2583.3622
2992.9021
3119.4086

SYMMETRY CS
ELECTRONIC_STATE 2-A'
