7
Energy =   -153.42022410000
    C    0.592552   -0.974695    0.000000
    H    1.488647   -1.577654    0.000000
    C   -0.747522   -0.880725    0.000000
    H   -1.716993   -1.357670    0.000000
    C    0.000000    0.285531    0.000000
    C    0.057362    1.654797    0.000000
    H    0.813995    2.425871    0.000000

FREQUENCIES 15
360.8967
410.1130
602.3674
803.7948
822.8960
864.8611
974.3863
1009.8265
1026.2229
1172.9103
1424.2209
1711.0285
3227.0049
3234.2334
3262.1070

SYMMETRY CS
ELECTRONIC_STATE 3-A"
