7
Energy =   -151.87434955000
    C    0.792809   -0.011868    0.000366
    C    2.358750    0.215725    0.000643
    C   -0.465032   -0.338814   -0.000859
    H   -0.505101   -1.524306   -0.002599
    C   -1.822138    0.243792   -0.000582
    H   -2.341041    0.434266    0.979525
    H   -2.340159    0.436763   -0.980661

FREQUENCIES 15
181.3033
201.2222
348.1512
409.7942
571.2960
640.4830
773.4773
942.4682
942.5458
1189.3137
1297.3908
1657.6494
2252.8305
2739.5621
2855.7043

SYMMETRY C1
ELECTRONIC_STATE 1-A
