7
Energy =   -151.87416332000
    C   -1.025781    1.463180    0.000000
    H   -1.785571    2.307205   -0.000000
    C   -0.000436    0.618711   -0.000000
    H    0.921190    1.319748    0.000000
    C    0.115287   -0.802387   -0.000000
    H   -0.781989   -1.535041    0.000000
    C    1.184759   -1.628656    0.000000

FREQUENCIES 15
202.2384
260.4343
387.5124
680.8608
699.4955
770.7620
827.6101
903.6516
1031.9190
1102.6760
1328.5826
1623.9691
2482.0573
2487.9446
2756.1668

SYMMETRY CS
ELECTRONIC_STATE 3-A"
