7
Energy =   -151.88661243000
    C   -0.935194    1.553287    0.000000
    H   -1.615244    2.466127    0.000000
    C    0.000000    0.623186    0.000000
    H    0.971267    1.264611    0.000000
    C   -0.037082   -0.789482    0.000000
    H   -1.000851   -1.368715    0.000000
    C    1.246414   -1.780661    0.000000

FREQUENCIES 15
177.9062
218.6192
335.1103
636.3408
662.0340
770.3916
872.3518
873.0650
1041.6322
1133.1530
1220.6598
1641.4373
2439.5919
2745.1253
2783.9379

SYMMETRY CS
ELECTRONIC_STATE 1-A'
