7
Energy =   -152.67538798000
C -1.135883999  0.165451299  0.668162981
C -1.135894999  0.171157299 -0.666699019
C  0.158138996 -0.444218162 -0.001896971
H  0.143847994 -1.559771835 -0.006665398
C  1.442394001  0.215973626  0.000914502
H  1.533543004  1.306434880  0.005575035
H  2.350081003 -0.396849789 -0.001712553

FREQUENCIES 15
208.0081
291.7181
339.9622
420.4193
733.0414
914.5683
981.4741
1146.1621
1160.6550
1224.7443
1459.7506
1550.8238
2805.3419
3039.2037
3158.1365

SYMMETRY CS
ELECTRONIC_STATE 4-A"
