7
Energy =   -153.40717817000
    C   -0.768708    1.344456    0.000000
    H   -1.849364    1.290827    0.000000
    H   -0.276868    2.309532    0.000000
    C    0.000000    0.184660    0.000000
    C    0.040383   -1.239381    0.000000
    H   -0.540010   -2.151373    0.000000
    C    1.172699   -0.531233    0.000000

FREQUENCIES 15
356.5852
401.8467
430.2706
838.2125
850.8260
888.1508
942.5595
1013.4346
1147.8950
1439.2471
1473.3566
1701.5177
3134.3856
3239.4446
3249.9106

SYMMETRY CS
ELECTRONIC_STATE 3-A"
