7
Energy =   -153.29195806000
    C    0.755865    0.463113   -0.006622
    H    1.064070    1.172372   -0.790303
    H    1.127126    0.858565    0.971723
    C    1.760295   -0.670616   -0.024678
    C   -0.615538    0.127293    0.005718
    C   -1.793579   -0.184866   -0.003472
    H   -2.833456   -0.440479   -0.007098

FREQUENCIES 15
210.3435
288.3727
384.6979
536.4720
703.7681
766.3064
808.4510
997.2410
1064.2586
1139.4401
1311.6944
2107.4132
2833.5784
2979.5299
3380.1100

SYMMETRY C1
ELECTRONIC_STATE 3-A
