8
Energy =   -191.63261639000
    C    0.656298   -0.050828    0.029790
    C   -0.453211   -0.885037   -0.174586
    C   -1.585145    0.041839    0.139367
    C   -0.384798    0.871950   -0.195961
    H    2.823806    0.607943    0.122021
    H   -1.879026    0.065290    1.186731
    H   -2.438627    0.067199   -0.531768
    C    2.015830   -0.101330    0.071894

FREQUENCIES 18
266.1967
332.4547
489.6856
558.5834
687.3267
720.7978
842.4467
952.0151
971.0753
1013.1651
1029.3267
1142.1065
1178.3308
1463.4714
1512.9961
3070.9158
3138.2565
3258.1673

SYMMETRY C1
ELECTRONIC_STATE 4-A
