8
Energy =   -191.61354944000
C  2.043592213 -0.171633397 -0.002589066
H  1.876861254 -1.254648095  0.020738277
H  2.638653585  0.064583451 -0.889899519
H  2.643599745  0.101742028  0.870607999
C  0.777478296  0.554527221 -0.014358793
C -0.557000943  0.152199428 -0.002117735
C -1.504832442 -0.819223319  0.021048774
C -1.952150173  0.465674702 -0.004814493

FREQUENCIES 18
52.3262
180.3236
202.5592
460.5301
473.6112
586.0635
729.8785
979.4677
1037.3203
1146.4524
1383.6280
1398.3731
1433.9454
1449.1756
1672.6443
2979.3298
3041.7703
3044.8102

SYMMETRY CS
ELECTRONIC_STATE 4-A"
