8
Energy =   -191.40842484000
C  1.434715000  0.204343000  0.000062000
H  2.352730000  0.806005000 -0.000244000
C -1.036592960  0.150344755 -0.000173156
C  1.669683903 -1.106913402  0.000974667
C -2.131517989 -0.369365069  0.000057969
H -3.093291084 -0.838990486  0.000269859
C  0.165639041  0.810389747 -0.000487397
H  0.131398144  1.898170112 -0.001226855

FREQUENCIES 18
133.8082
169.7732
246.2429
318.2802
575.6508
684.7335
696.9352
842.3764
946.9807
987.0746
1063.7907
1193.5791
1456.6114
1633.7203
2164.3188
3038.2806
3131.3303
3389.1582

SYMMETRY CS
ELECTRONIC_STATE 1-A'
