8
Energy =   -191.42680831000
    C   -1.339488   -1.662412    0.000000
    H   -0.473139   -2.311340    0.000000
    H   -2.318292   -2.125111    0.000000
    C   -1.226309   -0.307245    0.000000
    H   -2.096976    0.346254    0.000000
    C    0.000000    0.298496    0.000000
    C    1.109724    0.869031    0.000000
    C    2.270807    1.483830    0.000000

FREQUENCIES 18
106.6253
137.7361
247.5524
375.8472
601.2417
679.5447
818.6695
933.0990
1063.5786
1093.8903
1287.2006
1387.8625
1522.2366
1608.1271
2219.2179
3117.6931
3147.4003
3251.3055

SYMMETRY CS
ELECTRONIC_STATE 1-A'
