8
Energy =   -191.64164548000
    C    2.054496   -0.000003   -0.023904
    C    0.667367   -0.000003    0.056702
    C   -0.401801   -1.027738   -0.012417
    H   -0.417619   -2.104669   -0.016850
    C   -1.370557    0.000003   -0.009776
    H   -2.450305    0.000007    0.039469
    C   -0.401794    1.027739   -0.012417
    H   -0.417606    2.104669   -0.016847

FREQUENCIES 18
216.7273
357.9796
465.9008
598.2773
607.2713
727.4227
912.1157
917.7188
947.4104
985.0830
1112.5140
1200.9137
1316.3097
1335.0831
1370.3542
3201.6933
3242.5800
3252.3910

SYMMETRY CS
ELECTRONIC_STATE 4-A'
