8
Energy =   -189.86825162000
    C    0.768324   -0.000028    0.345027
    C   -0.404410   -0.870638    0.061672
    C   -1.520018    0.000017   -0.166160
    C   -0.404402    0.870632    0.061791
    H    1.125327   -0.000105    1.449034
    H   -2.478590   -0.000024    0.510528
    H   -2.161963    0.000087   -1.143788
    C    2.146377    0.000019   -0.438293

FREQUENCIES 18
240.6293
245.3459
422.7705
511.2168
597.9451
712.4226
715.4146
739.2340
809.9869
857.6075
945.8526
981.8862
1000.4002
1141.2444
1291.4945
2268.5406
2402.2461
2470.7045

SYMMETRY CS
ELECTRONIC_STATE 1-A'
