8
Energy =   -190.63279215000
C  0.311011000  0.067949000  0.000052000
C  0.855223000  1.337899000 -0.000092000
C  1.547380946 -0.600101938  0.000366709
H  2.506478003 -0.056142003  0.000418964
H  1.622793859 -1.695921838  0.000576495
C -1.022113000 -0.511263000 -0.000052585
C -2.190791932  0.264813922 -0.000376185
H -1.133532022 -1.603722975  0.000127274

FREQUENCIES 18
98.5551
202.4546
240.3941
349.4140
522.0873
559.2690
846.6459
876.1844
901.3937
1102.9902
1231.7484
1247.4126
1381.5861
1436.2852
1501.2518
2972.3665
3034.0831
3074.8081

SYMMETRY CS
ELECTRONIC_STATE 4-A"
