8
Energy =   -191.55897562000
    C   -2.271674    0.297057   -0.393144
    C    1.296542   -0.083407    0.087709
    C    2.355306    0.512775   -0.201506
    C   -0.014652   -0.700671    0.032812
    H   -0.029265   -1.492673    0.795333
    H   -0.156242   -1.209181   -0.923188
    C   -1.161474    0.267319    0.303466
    H   -1.038782    0.943420    1.151826

FREQUENCIES 18
80.2316
154.3553
330.1720
400.4521
469.0653
610.8782
797.5681
933.8342
980.8416
1148.3540
1226.7693
1288.3899
1387.5874
1534.9863
1585.9374
2966.7009
3043.0118
3054.6047

SYMMETRY C1
ELECTRONIC_STATE 4-A
