8
Energy =   -191.46656401000
    C   -0.005630    1.922335    0.000000
    H   -0.940831    2.466678    0.000000
    H    0.924819    2.474821    0.000000
    C    0.000000    0.606808    0.000000
    C   -0.790778   -0.597228    0.000000
    C    0.004736   -1.700378    0.000000
    H    0.008084   -2.776188    0.000000
    C    0.792993   -0.592422    0.000000

FREQUENCIES 18
250.1923
355.7789
612.9741
614.9802
711.2954
767.4794
774.9204
985.5786
999.3051
1016.3321
1052.3211
1070.5201
1435.6364
1589.6491
1790.2663
3151.6572
3249.8856
3299.5668

SYMMETRY CS
ELECTRONIC_STATE 1-A'
