8
Energy =   -191.68507904000
C  1.030367686 -0.000316176  0.264082592
C  0.000279474 -1.060229466  0.312739911
C -1.030502218 -0.001014910  0.263555905
C -0.000440361  1.058622690  0.318384420
H  2.095421094  0.000436351  0.117421272
H -2.095480790 -0.000984566  0.116350222
H  0.000495320  0.005219692 -1.945325954
C  0.000222367  0.002364322 -0.873503373

FREQUENCIES 18
379.2809
530.7484
610.6500
799.5032
838.6774
847.8985
950.8314
956.2779
993.1720
1007.8122
1088.9134
1136.6090
1209.1465
1248.5586
1277.7158
3268.2388
3270.2106
3298.3261

SYMMETRY C2V
ELECTRONIC_STATE 2-B1
