8
Energy =   -190.72087701000
    C    2.144914   -0.522827   -0.000730
    C   -0.323618    0.011086    0.000430
    C   -1.302360   -0.921362    0.000214
    C    1.100117    0.473628    0.000288
    H    1.351485    1.141670    0.866045
    H    1.351012    1.143702   -0.863944
    C   -1.669020    0.380932   -0.000275
    H   -2.402700    1.185884   -0.001663

FREQUENCIES 18
25.5170
238.9521
267.1791
416.7316
499.9470
767.6206
917.6947
938.2685
972.2723
1066.3858
1142.7373
1204.8202
1290.3253
1359.6087
1735.8177
2777.2683
2805.5944
3171.7824

SYMMETRY C1
ELECTRONIC_STATE 4-A
