7
Energy =   -115.95176327000
    C   -1.210867   -0.177479    0.001473
    H   -1.420977   -1.129435    0.484427
    H   -2.009441    0.301213   -0.562165
    C    0.075542    0.402684    0.049006
    H    0.152255    1.473356    0.284791
    H    2.330662   -0.123202    0.139356
    C    1.292337   -0.310854   -0.107162

FREQUENCIES 15
394.7832
426.5192
581.0672
648.7337
787.2093
863.5732
954.2486
1127.4660
1188.3967
1365.7839
1422.8965
3004.5318
3069.4525
3172.6081
3200.9071

SYMMETRY C1
ELECTRONIC_STATE 4-A
