7
Energy =   -116.34397671000
    C   -1.184268   -0.177513    0.000694
    H   -1.324686   -1.249070    0.000589
    H   -2.064039    0.448313    0.000858
    C    0.080561    0.376506    0.000620
    H    2.306297   -0.047098    0.000334
    H    0.149447    1.467973    0.000735
    C    1.259407   -0.302366    0.000418

FREQUENCIES 15
423.3984
529.0673
567.7363
807.3713
826.0405
908.6641
1015.8920
1210.9288
1237.8444
1416.9474
1504.5784
3030.0322
3147.4066
3239.6478
3244.2868

SYMMETRY CS
ELECTRONIC_STATE 3-A"
