8
Energy =   -154.06035111000
C  1.855843999  0.000004981 -0.008309200
H  2.278262999  0.906445051 -0.455448154
H  2.278284999 -0.908207949 -0.451815154
H  2.150137002  0.002144652  1.058656299
C  0.447518001 -0.000033254 -0.018878855
C -0.824174999 -0.000018905 -0.004010866
C -2.072819001 -0.000017702  0.004150913
H -3.144895999 -0.000017200  0.010894109

FREQUENCIES 18
138.2898
185.3165
255.0165
368.8559
453.0523
550.3040
804.3393
871.6567
941.7532
1286.0251
1326.7793
1425.3812
1563.5686
1985.7310
2930.3587
3007.9327
3046.7649
3357.7673

SYMMETRY CS
ELECTRONIC_STATE 2-A"
