8
Energy =   -153.51429252000
C  0.816820965 -0.001028363 -0.000039016
C -0.468883921 -0.000568824 -0.000227273
C -1.822338921 -0.000085070 -0.000425451
H -2.219453980 -0.630822417 -0.841338971
H -2.219640701 -0.412705604  0.966301558
H -2.218960152  1.043698515 -0.126413335
C  2.058511880 -0.001472171  0.000142797
H  3.152989798 -0.001863361  0.000303055

FREQUENCIES 18
177.8546
177.8576
423.1938
423.1984
840.7773
840.7827
851.2233
851.2280
851.2285
1163.9795
1163.9806
1249.7828
1643.9258
2207.1504
2760.3016
2779.9724
2779.9724
3169.3643

SYMMETRY C3V
ELECTRONIC_STATE 1-A1
