8
Energy =   -153.98004907000
    C   -1.844091   -0.018598   -0.000213
    C   -0.517180   -0.316486    0.000589
    C    0.686173    0.364220    0.000189
    H   -2.194487    1.014766    0.000080
    H   -2.597247   -0.800755   -0.001201
    H    0.680828    1.464077   -0.000512
    C    1.872151   -0.298074   -0.000197
    H    2.928588   -0.064460   -0.000576

FREQUENCIES 18
151.1474
241.7898
496.6426
515.4793
683.7442
790.6346
921.6743
943.4164
1015.0165
1134.5402
1236.3694
1371.0698
1454.8753
1636.1919
2968.1890
3065.6582
3183.3774
3223.3281

SYMMETRY C1
ELECTRONIC_STATE 4-A
