8
Energy =   -153.42331715000
C  0.000150851  0.854299143  0.000464734
C  1.170314991 -0.000135828  0.000107141
C  0.000066174 -0.854454876 -0.000071006
C -1.170172002 -0.000019901  0.000286592
H  1.858332292 -0.000449315  0.891235309
H  1.858195662  0.000109510 -0.891126519
H -1.858040735 -0.000265280  0.891650948
H -1.858177386  0.000293626 -0.890972272

FREQUENCIES 18
318.9462
423.0758
585.3144
659.4478
824.7048
830.8609
918.9402
1015.1837
1038.1379
1050.6828
1054.3833
1126.5173
1139.6998
1305.9737
2728.3898
2738.8005
2753.4765
2809.1873

SYMMETRY C2V
ELECTRONIC_STATE 1-A1
