9
Energy =   -190.53895769000
    C    0.680125   -0.000009    0.236095
    H    0.864955    0.000161    1.396464
    C    2.075319   -0.000109   -0.145688
    H   -2.560367    0.000100    0.304439
    C   -0.429588    1.015188   -0.122994
    H   -0.425789    1.995424   -0.646831
    C   -1.471434    0.000034    0.085658
    C   -0.429650   -1.015247   -0.122687
    H   -0.425910   -1.995642   -0.646226

FREQUENCIES 21
215.0896
349.2081
358.8833
588.1753
621.7945
739.7484
800.9081
815.4545
900.9522
933.5794
946.6379
1021.0971
1066.5830
1116.4408
1164.6302
1174.7150
1285.9020
2317.6286
2928.9229
2936.6670
2957.8962

SYMMETRY CS
ELECTRONIC_STATE 4-A"
