9
Energy =   -192.01202134000
    C   -1.408862   -0.372403    0.114662
    H   -2.187984   -0.577173   -0.611337
    H   -1.660449   -0.635714    1.139820
    C   -0.624591    0.884267   -0.013858
    C    0.624619    0.884247   -0.013924
    C   -0.000028   -0.619348   -0.377486
    C    1.408866   -0.372447    0.114513
    H    1.660553   -0.635766    1.139644
    H    2.187904   -0.577241   -0.611570

FREQUENCIES 21
243.7660
291.2893
527.1479
580.6605
625.2597
884.7728
956.6135
994.2600
1006.0587
1038.2780
1064.2808
1151.4655
1157.6167
1231.6702
1458.1140
1466.0341
1970.5214
3091.9566
3095.6174
3185.8291
3186.1584

SYMMETRY CS
ELECTRONIC_STATE 2-A'
