9
Energy =   -191.94891818000
C -0.836326685  0.802234098 -0.000030117
C -0.836293314 -0.802269904  0.000045642
C  0.579497027 -1.107156952  0.000043120
C  1.408291999  0.000028779 -0.000019062
C  0.579450973  1.107180036 -0.000061434
H -1.341944318  1.198470249  0.887654969
H -1.341915682 -1.198527087 -0.887627361
H -1.341894467 -1.198443259  0.887768143
H -1.341965533  1.198386421 -0.887740534

FREQUENCIES 21
216.7773
356.7000
662.1726
681.0576
742.6924
821.3288
862.4891
982.9498
1032.1333
1046.3770
1088.5880
1139.8380
1267.0850
1343.1800
1372.8337
1430.7637
1446.4057
3011.7477
3016.9041
3053.4912
3060.2683

SYMMETRY C2V
ELECTRONIC_STATE 4-B1
