9
Energy =   -192.24684535000
    C    1.949628    0.647936   -0.129211
    C   -1.298486    0.569576    0.284737
    H   -2.230545    0.387553    0.812805
    H   -1.030933    1.619777    0.240974
    C   -0.315573   -0.550235    0.335082
    H   -0.573238   -1.431786    0.907426
    C   -1.115696   -0.258289   -0.927340
    C    1.116195   -0.310809    0.109309
    H    1.818304   -1.164618    0.003337

FREQUENCIES 21
63.2166
129.5566
218.3721
304.0841
567.0894
647.6985
700.6890
801.5393
846.5058
912.3771
973.1888
1029.6046
1086.8408
1212.3393
1342.1829
1399.2977
1787.1340
2934.9830
3091.1586
3147.3711
3163.0824

SYMMETRY C1
ELECTRONIC_STATE 1-A
