9
Energy =   -192.31416118000
    C    0.123876   -1.096526    0.000102
    C   -0.659418    1.132687   -0.000133
    H    0.186018   -2.179622    0.000198
    H   -1.789194   -0.503623    0.870520
    C    0.696262    1.105690   -0.000054
    C   -1.158854   -0.297429   -0.000039
    H   -1.789095   -0.503772   -0.870634
    C    1.191743   -0.225383    0.000088
    H    2.230617   -0.527216    0.000173

FREQUENCIES 21
316.3599
481.5770
489.0101
793.1660
818.6478
892.3452
928.6472
961.8475
974.2894
1087.3836
1100.8745
1131.1822
1219.8887
1351.2089
1389.2845
1436.9229
1499.0640
3024.6117
3047.5504
3150.8298
3185.4223

SYMMETRY CS
ELECTRONIC_STATE 3-A"
