9
Energy =   -191.32535113000
    C    1.347149   -0.892341   -0.131624
    C    0.260978   -0.120964    0.095089
    H    2.170413    0.956765    0.803131
    C   -1.178294    0.041956    0.360903
    H   -1.466281    0.955107    0.978333
    H   -1.637166   -0.848019    0.925702
    C   -2.237016    0.106402   -0.539554
    C    1.648266    0.504399   -0.071969
    H    1.886529    1.099431   -0.984237

FREQUENCIES 21
58.1350
172.1703
277.5111
345.7897
380.6439
601.6159
656.8841
752.7924
814.0614
927.4407
988.7916
1010.0037
1168.3578
1211.5169
1221.7247
1393.0007
1601.4602
2597.5302
2670.1143
2807.6054
2811.0407

SYMMETRY C1
ELECTRONIC_STATE 3-A
