9
Energy =   -192.27941279000
    C    0.201634    0.931240   -0.000055
    C   -1.048016    0.190284   -0.000507
    C    1.461587    0.070381   -0.002613
    H    0.239195    1.590292   -0.874062
    H    0.240231    1.587010    0.876372
    H   -2.988477   -0.969536   -0.000708
    H    2.403778    0.623672   -0.004372
    C   -2.077488   -0.424344   -0.000539
    C    1.478498   -1.238868   -0.002017

FREQUENCIES 21
105.6992
149.7831
332.7136
367.0704
630.0083
664.5847
672.5254
688.9979
850.0269
868.1941
1001.5463
1200.1946
1227.9816
1330.4424
1458.6710
1609.8549
2218.1989
2999.7647
3022.5987
3031.8933
3463.3891

SYMMETRY C1
ELECTRONIC_STATE 3-A
