9
Energy =   -190.72327994000
    H   -1.951571    1.705617    0.149861
    H    3.242685    0.002769    0.772514
    C   -1.551307    0.664904    0.099085
    C    2.210647    0.001296    0.318636
    C   -0.305941   -0.000215   -0.086350
    C    1.074239   -0.001644   -0.365462
    H    1.403306   -0.005545   -1.479306
    C   -1.551224   -0.664118    0.100997
    H   -1.952906   -1.704179    0.155492

FREQUENCIES 21
167.6363
221.6439
289.1919
459.6546
602.3690
636.4822
696.6243
717.1977
820.7381
822.9428
900.5033
923.4107
976.3605
1033.8029
1194.0808
1526.1169
1696.2358
2459.9479
2826.1918
2839.3416
2915.1904

SYMMETRY C1
ELECTRONIC_STATE 2-A
