9
Energy =   -192.00652946000
C  1.415871013  0.437349916 -0.000267595
H  1.751098103  1.481654315 -0.001462456
C -1.179590951  0.025593674 -0.000240541
C  0.070912029  0.182243807 -0.000203408
C  2.347627859 -0.554346058  0.001092431
H  3.427194764 -0.627725424  0.001375253
C -2.500400946 -0.156029359 -0.000260329
H -3.052233706 -0.232520662 -0.933546840
H -3.052570196 -0.230276992  0.933008353

FREQUENCIES 21
89.9193
116.5208
209.7395
374.0604
426.5980
473.3219
694.8886
709.4571
745.8294
904.3272
913.1567
922.3166
1243.3301
1296.4768
1377.2192
1476.9056
1972.6964
3008.9275
3091.0386
3178.6881
3218.8840

SYMMETRY CS
ELECTRONIC_STATE 4-A"
