9
Energy =   -192.00715480000
    C    0.701946   -0.885353    0.392371
    C    1.531246   -0.241906   -0.505916
    C   -0.358695   -0.005166    0.165903
    C    0.797176    0.833174    0.089142
    H    1.111502    1.777439    0.520010
    C   -1.784764   -0.003311   -0.117813
    H   -2.258591    0.870576    0.333597
    H   -1.918554    0.094897   -1.204075
    H   -2.255811   -0.927539    0.208347

FREQUENCIES 21
62.6003
227.8721
358.9336
414.9640
592.2306
744.3182
820.0825
904.2826
997.0473
1029.5554
1100.1861
1216.7903
1338.8507
1371.7730
1433.4500
1460.6771
1568.0499
2995.5179
3069.3856
3142.6649
3185.6189

SYMMETRY C1
ELECTRONIC_STATE 2-A
