9
Energy =   -191.96370919000
    C   -0.495670   -0.881617   -0.190899
    C    0.667176   -0.131776    0.400487
    H    0.785763   -0.307529    1.472179
    C    1.858973    0.035884   -0.359277
    H    2.917748    0.055072   -0.151142
    C   -1.583549   -0.092258   -0.054206
    H   -2.634898   -0.089335   -0.285500
    C   -0.552148    0.826227    0.093657
    H   -0.437306    1.803038   -0.374112

FREQUENCIES 21
260.6020
361.0953
424.7680
561.2099
585.9904
676.3227
788.2343
866.4365
878.0965
1003.0981
1032.0278
1078.5183
1117.8004
1168.2746
1219.6404
1326.8360
1529.9381
3056.1784
3120.5945
3239.6897
3279.9295

SYMMETRY C1
ELECTRONIC_STATE 4-A
