7
Energy = -78.9958111490
C  0.634181436 -0.022333461  0.163879171
C -0.811789008  0.209551120 -0.074847266
H -1.402993806 -0.496676317 -0.639822135
H  1.252104032  0.355933089 -0.664190349
H  0.866362888 -1.084796756  0.258421058
H -1.278933347  1.143665297  0.202071098
H  0.985116096  0.485371769  1.064298469

FREQUENCIES 15
97.2340
496.1389
813.4696
979.1084
1061.2520
1194.3444
1401.1388
1467.4707
1481.7779
1482.9898
2939.9839
3032.6844
3075.7377
3139.9230
3238.2856

SYMMETRY CS
ELECTRONIC_STATE 2-A'
