8
Energy = -116.9941217300
C -0.251522578 -0.139271164 -0.507090195
C  1.006131538 -0.582130105  0.098836744
C -1.358025030  0.482177999 -0.204521783
H -1.545322712  0.853522954  0.806146722
H -2.143915926  0.662822658 -0.929558949
H  1.120839451 -1.665690605  0.028421333
H  1.048295363 -0.307676467  1.162052010
H  1.866976665 -0.129733290 -0.397653317

FREQUENCIES 18
184.3627
315.3424
477.8065
889.7391
898.4377
935.7984
1051.2515
1098.9792
1393.6400
1420.3352
1455.7384
1473.0924
1743.7975
2957.1569
3023.0610
3045.9989
3070.6060
3143.7096

SYMMETRY CS
ELECTRONIC_STATE 2-A'
