2
Energy =   -38.3775772090
    C    0.156568    0.000000    0.000000
    H   -0.936960    0.000000    0.000000

FREQUENCIES 1
3045.4487

SYMMETRY C*V
ELECTRONIC_STATE 4-SG
