3
Energy =   -75.28150187700
    H    0.000000    0.000000    1.676687
    C    0.000000    0.000000    0.534504
    C    0.000000    0.000000   -0.813952

FREQUENCIES 4
695.4368
695.4368
1531.5408
2702.9639

SYMMETRY C*V
ELECTRONIC_STATE 4-SG
