4
Energy =   -112.30998131000
    H    0.000000    0.000000    1.612904
    C    0.000000    0.000000    0.341659
    C    0.000000    1.253760   -0.305238
    C    0.000000   -1.253760   -0.305238

FREQUENCIES 6
335.1763
499.3505
500.1942
887.1845
1019.2873
1567.3113

SYMMETRY C2V
ELECTRONIC_STATE 1-A1
