4
Energy =   -114.09324087000
    H    0.000084   -1.783505    0.000000
    C    0.000000   -0.697774    0.000000
    C    0.679892    0.497511    0.000000
    C   -0.679906    0.497514    0.000000

FREQUENCIES 6
890.0264
900.8679
1189.5970
1245.8513
1618.4278
3196.4312

SYMMETRY C2V
ELECTRONIC_STATE 3-B2
