5
Energy =   -150.46714958000
    H    0.000000    0.000000   -2.235062
    C    0.000000    0.000000   -1.073808
    C    0.000000    0.853104    0.093476
    C    0.000000    0.000000    1.259367
    C    0.000000   -0.853104    0.093476

FREQUENCIES 9
398.0968
654.9146
807.0853
830.3470
841.6228
1053.5479
1186.9193
1277.5737
2477.5067

SYMMETRY C2V
ELECTRONIC_STATE 3-A1
