5
Energy =   -152.37530852000
    C    0.997911    0.000166    0.131208
    H    2.061266   -0.001912   -0.029096
    C   -1.141641    0.000095    0.128211
    C   -0.100250   -0.882534   -0.127264
    C   -0.099564    0.882593   -0.127305

FREQUENCIES 9
564.7748
620.7658
679.5107
880.9105
1090.2625
1161.0544
1180.0622
1368.8400
3262.6476

SYMMETRY C1
ELECTRONIC_STATE 4-A
