5
Energy =   -151.40500717000
    H   -0.017431    2.625872    0.000000
    C   -0.009440    1.519932    0.000000
    C    0.000000    0.200279    0.000000
    C   -0.695845   -1.081716    0.000000
    C    0.708191   -1.076141    0.000000

FREQUENCIES 9
318.7487
341.5253
453.1181
663.5118
848.4644
919.3247
1218.5357
1379.3776
3020.4859

SYMMETRY CS
ELECTRONIC_STATE 2-A'
