5
Energy =   -151.45059800000
    H    0.000000    0.000000   -2.157978
    C    0.000000    0.000000   -1.051121
    C    0.000000    0.819543    0.098583
    C    0.000000    0.000000    1.213618
    C    0.000000   -0.819543    0.098583

FREQUENCIES 9
381.8252
611.4768
767.7209
890.0225
1027.9671
1292.4430
1349.2134
1488.7094
3019.4083

SYMMETRY C2V
ELECTRONIC_STATE 2-A1
