5
Energy =   -150.54116123000
    C   -2.107310   -0.000063   -0.000092
    C   -0.768558    0.000171   -0.000274
    C    0.518502   -0.000346    0.000478
    C    1.856213    0.000470    0.000276
    H    3.006828    0.000518   -0.000708

FREQUENCIES 10
205.6434
216.7151
431.6048
479.4836
691.4977
863.3154
897.4451
1367.8441
1913.9099
2630.8816

SYMMETRY C*V
ELECTRONIC_STATE 3-PI
