5
Energy =   -152.40399683000
    C   -0.192169   -0.758834    0.000000
    H   -0.055216   -1.832659    0.000000
    C    0.585709    0.639054    0.000000
    C   -0.192169    0.212612    1.085579
    C   -0.192169    0.212612   -1.085579

FREQUENCIES 9
517.5507
598.6194
752.8687
902.9431
983.1247
1055.0648
1231.7110
1343.5848
3176.8377

SYMMETRY CS
ELECTRONIC_STATE 2-A'
