6
Energy =   -190.35581203000
    H    0.000000    0.000000    1.760450
    C    0.000000    0.000000    0.676409
    C    0.000000    1.216352    0.017524
    C    0.000000    2.319171   -0.502432
    C    0.000000   -1.216352    0.017524
    C    0.000000   -2.319171   -0.502432

FREQUENCIES 12
114.1725
122.9479
346.6646
375.0787
454.4510
673.2997
926.1425
1136.4499
1353.0463
1993.2775
2098.8189
3144.4224

SYMMETRY C2V
ELECTRONIC_STATE 4-A2
