6
Energy =   -188.51896892000
    C    1.028542    1.829610   -0.000000
    C   -0.194367    0.753924    0.000001
    C   -0.194581   -0.590413    0.770745
    C   -0.250685   -1.626376    0.000000
    C   -0.194582   -0.590414   -0.770746
    H   -1.167559    1.337064   -0.000000

FREQUENCIES 12
265.2838
309.7900
444.9181
519.7735
603.8579
762.6974
1008.0167
1039.2871
1191.9336
1524.6984
1803.4302
2668.5278

SYMMETRY CS
ELECTRONIC_STATE 1-A'
