6
Energy =   -188.47725320000
H -0.878414000 -1.626101000 -0.001065000
C -0.729151000 -0.503373000 -0.000250000
C  0.555111023  0.070516903 -0.000044090
C  1.636483761 -0.998633973 -0.001033593
C  0.851138190  1.550413185  0.001012866
C -2.167179973  0.152092885  0.000491817

FREQUENCIES 12
164.7617
188.0093
293.5701
360.2714
385.9139
653.3028
732.6272
772.9374
960.2721
1213.9378
1349.7788
2696.6129

SYMMETRY CS
ELECTRONIC_STATE 1-A'
