6
Energy =   -189.34421751000
    C    0.853779    1.769233    0.000000
    C   -0.165535    0.724703    0.000000
    C   -0.168888   -0.543263    0.778804
    C   -0.168888   -1.637381    0.000000
    C   -0.168888   -0.543263   -0.778804
    H   -1.089476    1.379825    0.000000

FREQUENCIES 12
250.2086
417.2332
522.0748
647.6559
660.9024
791.1119
938.7947
1086.8957
1132.4036
1248.1564
1640.9238
2706.5066

SYMMETRY CS
ELECTRONIC_STATE 4-A"
