6
Energy =   -188.56222883000
C  2.291370619  0.004668389  0.003242507
C  0.728102155  0.000802708  0.000037119
C -0.460402203 -0.792276172 -0.002158699
C -1.633492659 -0.005037090 -0.004805188
C -0.464308921  0.787994014 -0.002648986
H -2.763416879 -0.007831189 -0.007122030

FREQUENCIES 12
157.6922
291.2694
427.6748
503.3039
685.7391
775.4745
779.0489
938.2869
992.7673
1303.3013
1329.1673
2773.7171

SYMMETRY C2V
ELECTRONIC_STATE 3-B1
