6
Energy =   -190.32155187000
    C   -1.894373    0.030727   -0.000000
    C   -0.608967   -0.182438   -0.000000
    C    0.470259    0.938539    0.000000
    C    1.443770   -0.019761    0.000000
    C    0.530287   -1.101751    0.000000
    H    0.354144    2.008111    0.000000

FREQUENCIES 12
167.8397
221.5679
493.9353
536.6980
654.4819
693.8448
922.2515
1064.5720
1090.2087
1359.5101
1722.8433
3258.5361

SYMMETRY CS
ELECTRONIC_STATE 4-A"
