6
Energy =   -190.02744576000
    H    0.000000    0.000000    1.754484
    C    0.000000    0.000000    0.663767
    C    0.000000    1.208790    0.013259
    C    0.000000    2.315481   -0.491349
    C    0.000000   -1.208790    0.013259
    C    0.000000   -2.315481   -0.491349

FREQUENCIES 12
99.9378
127.6300
256.6395
270.5404
481.9850
921.8879
961.4507
1168.0830
1410.0906
2142.7936
2185.7459
3107.2184

SYMMETRY C2V
ELECTRONIC_STATE 3-B2
