6
Energy =   -190.03150212000
H -1.431170000 -1.491737000  0.000306000
C -1.074183000 -0.457796000  0.000013000
C  0.288381990 -0.130636975  0.000079513
C  1.637848941 -0.506093847  0.000374375
C  1.335108023  0.802835941 -0.000092711
C -1.948626954  0.540313881 -0.000425177

FREQUENCIES 12
144.2128
154.0408
407.2388
448.2260
704.8001
835.7806
989.7064
1122.0995
1380.2483
1599.5130
1694.5632
3070.2941

SYMMETRY CS
ELECTRONIC_STATE 3-A'
