6
Energy =   -190.16878958000
    H    0.000000    0.000000   -3.484495
    C    0.000000    0.000000   -2.410895
    C    0.000000    0.000000   -1.193991
    C    0.000000    0.000000    0.123697
    C    0.000000    0.000000    1.371889
    C    0.000000    0.000000    2.690050

FREQUENCIES 13
115.8715
115.8715
260.2393
260.2393
631.9709
631.9709
783.9857
789.5899
789.5899
1468.1821
2126.4314
2280.7582
3361.3535

SYMMETRY C*V
ELECTRONIC_STATE 1-SG
