6
Energy =   -190.33579885000
    C   -0.130000    0.780000    0.000000
    C   -0.220000   -1.700000    0.000000
    C    0.950000    1.700000    0.000000
    C   -0.220000   -0.510000    0.750000
    C   -0.220000   -0.510000   -0.750000
    H   -1.030000    1.420000    0.000000

FREQUENCIES 12
167.4043
348.6597
440.3461
474.7181
786.1926
910.9329
950.0122
962.7030
1073.2086
1255.0954
1465.0099
2955.5205

SYMMETRY CS
ELECTRONIC_STATE 2-A"
