6
Energy =   -190.09062847000
C -1.449601000 -0.765332000 -0.000265000
C -1.459619000  0.568823000  0.000054000
C -0.228565984 -0.125172943 -0.000031619
C  1.124333031 -0.033114886  0.000079079
C  2.330388958  0.095497845  0.000188914
H -1.901615054  1.555788803  0.000261512

FREQUENCIES 12
192.8672
201.9960
474.6238
539.5621
767.8621
892.5763
955.0642
1083.3485
1387.1931
1710.4473
2165.6386
3239.8060

SYMMETRY CS
ELECTRONIC_STATE 3-A'
