6
Energy =   -189.33304132000
    H   -0.998430   -1.570716   -0.085033
    C   -0.812296   -0.470266   -0.076569
    C    0.555471    0.051691   -0.013786
    C    1.525211   -0.971155    0.052683
    C    0.913042    1.412961   -0.015374
    C   -2.015170    0.238544    0.066827

FREQUENCIES 12
89.9779
174.2466
272.8879
314.3786
342.6826
519.6568
833.0941
965.7304
1161.1961
1353.1072
1368.6861
2864.6858

SYMMETRY C1
ELECTRONIC_STATE 2-A
