6
Energy =   -190.07730207000
    H   -1.782845   -1.381706    0.001465
    C   -1.322560   -0.378369   -0.000134
    C    0.024234   -0.196377   -0.000437
    C    1.252573    0.000649   -0.000294
    C    2.559825    0.183436    0.000421
    C   -2.216931    0.620946    0.000199

FREQUENCIES 12
107.8158
141.2823
213.1572
445.4045
498.7954
657.0826
851.5469
983.4924
1425.4047
1652.8572
2231.8304
2975.7034

SYMMETRY C1
ELECTRONIC_STATE 1-A
