6
Energy =   -190.04597775000
    H    0.711491    2.869965    0.000000
    C    0.357444    1.856045    0.000000
    C    0.000000    0.688742    0.000000
    C   -0.325316   -0.686538    0.000000
    C    1.068253   -0.648007    0.000000
    C   -1.218962   -1.688570    0.000000

FREQUENCIES 12
84.7729
201.1333
204.2233
375.1876
385.2520
649.3230
818.5549
856.9186
1138.5446
1640.6941
2087.0173
3353.2080

SYMMETRY CS
ELECTRONIC_STATE 1-A'
