6
Energy =   -190.09799949000
    C    0.000000    0.000000    2.095805
    C    0.000000    0.000000    0.758805
    C    0.000000    0.782707   -0.433709
    C    0.000000    0.000000   -1.549382
    C    0.000000   -0.782707   -0.433709
    H    0.000000    0.000000   -2.626858

FREQUENCIES 12
193.3953
213.4743
569.8301
670.0227
748.9856
761.5861
937.0356
1010.0060
1061.5774
1573.1111
1790.7261
3286.2702

SYMMETRY C2V
ELECTRONIC_STATE 1-A1
