4
Energy =   -237.7124640500
H  0.177187629 -0.023865850 -1.415160510
C  0.047625531  0.002609654 -0.326985041
F  0.792412630 -0.637780924  0.415089111
F -0.846832630  0.673584924  0.188008889

FREQUENCIES 6
669.4951
1084.2769
1314.5000
1391.1242
1635.6440
3126.0771

SYMMETRY C2V
ELECTRONIC_STATE 1-A1
