4
Energy =   -238.0274058400
H -0.654381328  0.994832539  0.613284373
C -0.223862963  0.010675676  0.442710255
F  1.102631273 -0.013904028  0.460643589
F -0.701644700 -0.614952111 -0.625384875

FREQUENCIES 6
547.1155
985.3527
1170.3965
1175.8647
1327.3545
3114.2506

SYMMETRY CS
ELECTRONIC_STATE 2-A'
