4
Energy = -237.5092128200
    C   -0.129218    0.654268   -0.371856
    F    1.026445    1.065336   -0.154336
    F   -0.429333   -0.803780    0.077309
    H   -0.510237   -1.436738   -0.641939

FREQUENCIES 6
239.2635
352.7173
644.9755
902.2789
1458.5350
3521.8548

SYMMETRY C1
ELECTRONIC_STATE 3-A
