2
Energy = -795.1020448700
    S    0.911345    0.000000    0.000000
    S   -0.911345    0.000000    0.000000

FREQUENCIES 1
833.7507

SYMMETRY D*H
ELECTRONIC_STATE 2-PIG
