2
Energy = -795.4427590000
    S    0.951409    0.000000    0.000000
    S   -0.951409    0.000000    0.000000

FREQUENCIES 1
715.2770

SYMMETRY D*H
ELECTRONIC_STATE 3-SGG
