3
Energy = -1192.8063285000
S -0.805502000 -0.601780000  0.000000000
S  1.216070975 -0.787766423 -0.000000000
S -0.410569975  1.389545423 -0.000000000

FREQUENCIES 3
224.0625
437.4886
591.0995

SYMMETRY C2V
ELECTRONIC_STATE 4-A1
