3
Energy = -1192.7892154000
    S   -0.000080    0.409297   -0.655632
    S   -1.638711   -0.204737    0.327959
    S    1.638790   -0.204559    0.327674

FREQUENCIES 3
187.6995
467.0510
505.3266

SYMMETRY C2V
ELECTRONIC_STATE 4-A2
