3
Energy = -1192.8377174000
S -0.905480000 -0.676438000  0.000000000
S  1.104846079 -0.534691217  0.000000000
S -0.199366079  1.211128217 -0.000000000

FREQUENCIES 3
211.6971
415.8689
645.3557

SYMMETRY C2V
ELECTRONIC_STATE 2-B1
