3
Energy = -1193.1300477000
    S   -0.000059    0.303133   -0.485574
    S   -1.765764   -0.151662    0.242941
    S    1.765822   -0.151470    0.242635

FREQUENCIES 3
209.2798
493.2654
512.2935

SYMMETRY C2V
ELECTRONIC_STATE 3-B1
