3
Energy = -1192.8262476000
    S   -0.000054    0.268356   -0.429866
    S   -1.728477   -0.134271    0.215083
    S    1.728530   -0.134084    0.214784

FREQUENCIES 3
236.6850
550.3431
638.0216

SYMMETRY C2V
ELECTRONIC_STATE 2-A1
