4
Energy = -1590.5777484000
    S    1.269797    0.254069    0.597019
    S    0.675326    1.257427    2.065666
    S   -0.642386   -1.244290   -0.446469
    S   -1.482464   -0.422048   -1.907829

FREQUENCIES 6
31.5584
80.4152
125.8419
180.6512
701.5398
717.8955

SYMMETRY C2
ELECTRONIC_STATE 4-B
