4
Energy = -1590.8950855000
S -0.099985539 -0.361529293  2.457266452
S  0.222258000  0.685488000  0.858576000
S -0.222227926 -0.685395413 -0.858450905
S  0.099955465  0.361436706 -2.457391548

FREQUENCIES 6
14.9901
87.9083
170.7917
383.6196
619.0901
626.6663

SYMMETRY CS
ELECTRONIC_STATE 3-A'
