4
Energy = -1590.9147685000
S  0.000010693  1.196924201  1.622695164
S  0.000007381 -0.636729571  1.077509140
S -0.000006381 -0.683865429 -1.036924140
S -0.000010693  1.123671799 -1.663281164

FREQUENCIES 6
104.3511
208.4028
331.1378
368.2491
646.3127
673.3397

SYMMETRY C2V
ELECTRONIC_STATE 1-A1
