4
Energy = -1590.5929735000
S  0.000000000  1.193476022  1.592245735
S  0.000000000 -0.631814982  1.183989129
S -0.000000000 -0.683513018 -1.143670129
S -0.000000000  1.121851978 -1.632564735

FREQUENCIES 6
95.6352
151.5130
248.4265
303.3378
684.3193
725.1317

SYMMETRY C2V
ELECTRONIC_STATE 2-B1
