4
Energy = -1590.5575094000
S  1.205924801  0.982932368  0.314034688
S -0.549294801 -0.490709368  1.562307312
S  0.352698515  0.323678412 -1.332209215
S -1.189056515 -0.970743412 -0.235747785

FREQUENCIES 6
118.0054
140.7475
252.9070
341.9459
573.1150
633.3837

SYMMETRY C2V
ELECTRONIC_STATE 4-A1
