4
Energy = -1590.5714915000
S -0.094709246 -0.345180632  2.446858604
S  0.207324000  0.642732000  0.858648000
S -0.207196478 -0.642331746 -0.858418208
S  0.094581724  0.344779378 -2.447088396

FREQUENCIES 6
70.5783
101.3348
190.1859
395.5519
631.6326
664.6017

SYMMETRY CS
ELECTRONIC_STATE 2-A"
