5
Energy = -1988.3001466000
    S   -0.677650   -0.540271   -1.568798
    S    0.146925    0.783830   -0.102369
    S    2.452928   -0.199092    1.648549
    S   -2.433422    0.298325   -1.660816
    S    0.511220   -0.342792    1.683433

FREQUENCIES 9
28.5898
38.0284
113.8618
134.2885
140.9806
300.4920
403.8435
606.5369
609.9104

SYMMETRY C1
ELECTRONIC_STATE 4-A
