5
Energy = -1988.6669588000
S -0.105077002  1.726922785  0.266343384
S -1.553449824  0.440295559 -0.367212878
S -0.899819172 -1.325314373  0.552295120
S  0.869985972 -1.289046145 -0.568678025
S  1.688359026  0.447143174  0.117251399

FREQUENCIES 9
88.6731
230.9042
284.8745
295.7323
328.0006
329.8553
421.7786
499.6164
505.7213

SYMMETRY CS
ELECTRONIC_STATE 1-A'
