5
Energy = -1988.6185289000
S  2.103595013  0.275013158  0.639176161
S -0.791222379 -1.609370926 -0.282029425
S -1.887392658 -0.208339889  0.781204119
S -1.149318379  1.304617074 -0.427576425
S  0.766346403  0.043676584 -0.702305430

FREQUENCIES 9
87.6282
99.2220
192.0434
277.9066
311.7883
338.3451
464.4795
497.7745
664.7066

SYMMETRY CS
ELECTRONIC_STATE 1-A'
