5
Energy = -1988.6284696000
S -0.244313416  0.629023438 -0.463508847
S  1.404316452  0.027018458  0.727179398
S -0.414983523  0.267641908  3.589749986
S -0.385821517 -0.284392426 -2.146927720
S -0.227016995 -0.639312378  1.907384183

FREQUENCIES 9
52.4576
76.2365
175.9524
231.7096
242.0554
357.5337
463.8209
637.7175
662.9813

SYMMETRY C2
ELECTRONIC_STATE 1-A
