5
Energy = -1988.3605878000
    S   -0.026214    1.697248    0.253827
    S   -1.581976    0.429192   -0.339792
    S   -0.894987   -1.316814    0.510276
    S    0.870844   -1.319616   -0.549142
    S    1.632331    0.509989    0.124830

FREQUENCIES 9
22.9780
222.7609
280.6450
313.2990
347.1569
357.5632
450.8517
478.5578
511.9065

SYMMETRY C1
ELECTRONIC_STATE 2-A
