5
Energy = -1988.3205955000
    S   -0.228743   -0.824206    0.717288
    S    0.740308    0.544149   -1.803513
    S   -1.172884    0.136128   -1.284691
    S   -0.957512   -0.262900    2.334743
    S    1.618831    0.406829    0.036172

FREQUENCIES 9
27.0788
69.2744
196.3990
255.2149
258.2759
303.4317
487.2309
534.4875
743.0934

SYMMETRY C1
ELECTRONIC_STATE 2-A
