5
Energy = -1988.3230048000
S  3.258864465  0.285198805  0.088275312
S  1.644902234 -0.713599368  0.010097068
S  0.015382104  0.630462884 -0.134147520
S -1.676423059 -0.578370881  0.264803501
S -3.242724744  0.376308559 -0.229028360

FREQUENCIES 9
14.9076
48.3355
82.5661
168.3504
194.2881
250.7595
476.7294
636.0861
653.3863

SYMMETRY C2
ELECTRONIC_STATE 2-A
