5
Energy = -1988.3100572000
S -0.339195945  1.929880580  0.196986706
S -1.702045155  0.546722368 -0.130850449
S -0.949102575 -1.364002196  0.286805130
S  1.043917439 -1.412068252 -0.359560053
S  1.946425236  0.299467500  0.006618667

FREQUENCIES 9
87.4418
95.4264
188.7588
190.3729
293.2964
363.3418
412.7762
554.7769
558.1601

SYMMETRY CS
ELECTRONIC_STATE 4-A'
