5
Energy = -1988.6191089000
S -0.970960513 -0.301000245 -1.768093453
S  0.977517229  0.295252383 -1.300086055
S  1.214087568  0.288273636  2.211276325
S -1.620385771  0.302626383  0.125314945
S  0.399742487 -0.585153156  0.731588237

FREQUENCIES 9
96.8303
106.2669
222.1805
275.5201
314.9624
318.4071
431.4591
502.2092
684.0827

SYMMETRY CS
ELECTRONIC_STATE 1-A'
