5
Energy = -1988.3283952000
    S    0.393240   -0.878785    1.831521
    S   -0.306410    0.656389   -1.032440
    S   -0.209091    0.591892   -2.932313
    S   -0.448221    0.731558    2.378624
    S    0.570481   -1.101055   -0.245392

FREQUENCIES 9
52.0535
74.8067
99.0917
163.9440
237.6915
327.8696
438.3245
631.0817
655.0687

SYMMETRY C1
ELECTRONIC_STATE 2-A
