5
Energy = -1988.3058717000
    S    0.086365   -0.737388    1.711830
    S   -0.995562   -0.283092   -1.481661
    S    0.295930    1.229114   -1.633534
    S    0.209484    1.161904    1.853842
    S    0.403784   -1.370539   -0.450477

FREQUENCIES 9
56.2526
71.0638
136.3899
173.0823
217.3765
256.1957
437.5600
577.2788
642.9060

SYMMETRY C1
ELECTRONIC_STATE 4-A
