6
Energy = -2386.4010598000
S -0.519365358  0.028323222 -0.520105018
S  0.447521697 -1.025181753  2.471099245
S -1.321106824 -0.872285875  1.131908587
S  1.916016442 -0.182212701  1.323945621
S  1.578306782  1.834864114  1.304238111
S -0.190321740  1.987759992 -0.034952547

FREQUENCIES 12
47.9975
184.3615
207.3486
207.5112
231.4845
309.9675
314.6552
372.7430
418.0580
429.4144
493.2985
502.8260

SYMMETRY C2V
ELECTRONIC_STATE 1-A1
