6
Energy = -2386.0955324000
S -0.476985931 -0.015551489 -0.590198218
S  0.429480160 -0.908928984  2.443745768
S -1.278818705 -0.759629278  1.149249476
S  1.966270387 -0.229084061  1.261226206
S  1.489701477  1.767580553  1.353304030
S -0.218597388  1.916880259  0.058807738

FREQUENCIES 12
73.9502
147.6329
197.4769
228.4725
230.6674
296.2548
307.9512
409.3977
410.6820
426.4942
512.6742
516.1056

SYMMETRY C2V
ELECTRONIC_STATE 2-A2
