6
Energy = -2386.4000331000
S  1.562305676 -0.395611263 -0.973180228
S -0.731572329  1.142461571 -1.103553179
S  1.617994411 -0.146796968  0.902121572
S -0.668399631  1.391840485  0.771215703
S -0.858657053 -1.339321189  1.139235006
S -0.921672074 -1.586436636 -0.735838875

FREQUENCIES 12
83.1636
83.2552
129.8304
189.3714
189.6866
244.6494
263.9845
294.3425
294.4098
679.8105
679.9837
728.0308

SYMMETRY CS
ELECTRONIC_STATE 1-A'
