6
Energy = -2386.4224343000
S  1.215194762  0.517068495  0.754355718
S -1.319961131  0.886366644 -1.263821082
S  0.023637465 -0.601606977  2.046442082
S -1.829053347  0.341777262  1.911187838
S  0.532729680 -0.057017596 -1.128566838
S -2.511518429 -0.232308828  0.028265282

FREQUENCIES 12
163.7274
163.7274
202.7625
202.7625
264.0084
313.9639
340.3486
430.5530
430.5530
452.8039
452.8039
472.4334

SYMMETRY D3D
ELECTRONIC_STATE 1-A1G
