6
Energy = -2386.0802998000
    S    0.068980   -0.476576   -0.954328
    S    1.487142    0.295721    2.449662
    S   -0.113151   -0.697403    2.510127
    S   -0.355288    1.522203   -0.004186
    S    1.896596   -0.897846   -0.770697
    S    1.315248    1.941151    0.920467

FREQUENCIES 12
47.6244
73.1969
97.9215
150.6522
163.1154
238.1432
252.3467
270.6341
314.7595
576.9584
675.3754
696.3015

SYMMETRY C1
ELECTRONIC_STATE 2-A
