6
Energy = -2386.3736307000
    S   -0.501537   -0.322744    1.073003
    S   -1.048922   -1.603828   -0.333420
    S   -1.090881    1.524579   -1.695230
    S    1.693365   -0.248627    0.885332
    S    2.330321    0.957018    2.254619
    S   -1.382347   -0.306399   -2.184304

FREQUENCIES 12
23.7796
46.6302
71.1666
114.2473
127.5938
175.2201
266.4318
286.5228
388.2611
552.3049
634.0978
655.7856

SYMMETRY C1
ELECTRONIC_STATE 3-A
