 Entering Gaussian System, Link 0=/home/proyectos/fulerenos/M3C-v1.9/M3C-deps_CCC/g09-AM64L-G09RevC.01/g09
 Initial command:
 /home/proyectos/fulerenos/M3C-v1.9/M3C-deps_CCC/g09-AM64L-G09RevC.01/l1.exe "/scratch/naguirre/gaussian/Gau-5780.inp" -scrdir="/scratch/naguirre/gaussian/"
 Entering Link 1 = /home/proyectos/fulerenos/M3C-v1.9/M3C-deps_CCC/g09-AM64L-G09RevC.01/l1.exe PID=      5788.
  
 Copyright (c) 1988,1990,1992,1993,1995,1998,2003,2009,2015,
            Gaussian, Inc.  All Rights Reserved.
  
 This is part of the Gaussian(R) 09 program.  It is based on
 the Gaussian(R) 03 system (copyright 2003, Gaussian, Inc.),
 the Gaussian(R) 98 system (copyright 1998, Gaussian, Inc.),
 the Gaussian(R) 94 system (copyright 1995, Gaussian, Inc.),
 the Gaussian 92(TM) system (copyright 1992, Gaussian, Inc.),
 the Gaussian 90(TM) system (copyright 1990, Gaussian, Inc.),
 the Gaussian 88(TM) system (copyright 1988, Gaussian, Inc.),
 the Gaussian 86(TM) system (copyright 1986, Carnegie Mellon
 University), and the Gaussian 82(TM) system (copyright 1983,
 Carnegie Mellon University). Gaussian is a federally registered
 trademark of Gaussian, Inc.
  
 This software contains proprietary and confidential information,
 including trade secrets, belonging to Gaussian, Inc.
  
 This software is provided under written license and may be
 used, copied, transmitted, or stored only in accord with that
 written license.
  
 The following legend is applicable only to US Government
 contracts under FAR:
  
                    RESTRICTED RIGHTS LEGEND
  
 Use, reproduction and disclosure by the US Government is
 subject to restrictions as set forth in subparagraphs (a)
 and (c) of the Commercial Computer Software - Restricted
 Rights clause in FAR 52.227-19.
  
 Gaussian, Inc.
 340 Quinnipiac St., Bldg. 40, Wallingford CT 06492
  
  
 ---------------------------------------------------------------
 Warning -- This program may not be used in any manner that
 competes with the business of Gaussian, Inc. or will provide
 assistance to any competitor of Gaussian, Inc.  The licensee
 of this program is prohibited from giving any competitor of
 Gaussian, Inc. access to this program.  By using this program,
 the user acknowledges that Gaussian, Inc. is engaged in the
 business of creating and licensing software in the field of
 computational chemistry and represents and warrants to the
 licensee that it is not a competitor of Gaussian, Inc. and that
 it will not use this program in any manner prohibited above.
 ---------------------------------------------------------------
  

 Cite this work as:
 Gaussian 09, Revision E.01,
 M. J. Frisch, G. W. Trucks, H. B. Schlegel, G. E. Scuseria, 
 M. A. Robb, J. R. Cheeseman, G. Scalmani, V. Barone, B. Mennucci, 
 G. A. Petersson, H. Nakatsuji, M. Caricato, X. Li, H. P. Hratchian, 
 A. F. Izmaylov, J. Bloino, G. Zheng, J. L. Sonnenberg, M. Hada, 
 M. Ehara, K. Toyota, R. Fukuda, J. Hasegawa, M. Ishida, T. Nakajima, 
 Y. Honda, O. Kitao, H. Nakai, T. Vreven, J. A. Montgomery, Jr., 
 J. E. Peralta, F. Ogliaro, M. Bearpark, J. J. Heyd, E. Brothers, 
 K. N. Kudin, V. N. Staroverov, T. Keith, R. Kobayashi, J. Normand, 
 K. Raghavachari, A. Rendell, J. C. Burant, S. S. Iyengar, J. Tomasi, 
 M. Cossi, N. Rega, J. M. Millam, M. Klene, J. E. Knox, J. B. Cross, 
 V. Bakken, C. Adamo, J. Jaramillo, R. Gomperts, R. E. Stratmann, 
 O. Yazyev, A. J. Austin, R. Cammi, C. Pomelli, J. W. Ochterski, 
 R. L. Martin, K. Morokuma, V. G. Zakrzewski, G. A. Voth, 
 P. Salvador, J. J. Dannenberg, S. Dapprich, A. D. Daniels, 
 O. Farkas, J. B. Foresman, J. V. Ortiz, J. Cioslowski, 
 and D. J. Fox, Gaussian, Inc., Wallingford CT, 2013.
 
 ******************************************
 Gaussian 09:  EM64L-G09RevE.01 30-Nov-2015
                20-Jun-2016 
 ******************************************
 %NProcShared=4
 Will use up to    4 processors via shared memory.
 ---------------------------------------------
 #p b3lyp/6-311++G(3df,2p) freq symmetry=Loose
 ---------------------------------------------
 1/10=4,30=1,38=1/1,3;
 2/12=2,17=4,18=3,40=1/2;
 3/5=4,6=6,7=1216,11=2,16=1,25=1,30=1,71=2,74=-5,140=1/1,2,3;
 4//1;
 5/5=2,38=5,98=1/2;
 8/6=4,10=90,11=11/1;
 11/6=1,8=1,9=11,15=111,16=1/1,2,10;
 10/6=1/2;
 6/7=2,8=2,9=2,10=2,18=1,28=1/1;
 7/8=1,10=1,25=1/1,2,3,16;
 1/10=4,30=1/3;
 99//99;
 Leave Link    1 at Mon Jun 20 10:52:19 2016, MaxMem=           0 cpu:         0.2
 (Enter /home/proyectos/fulerenos/M3C-v1.9/M3C-deps_CCC/g09-AM64L-G09RevC.01/l101.exe)
 ---------
 b3lyp opt
 ---------
 Symbolic Z-matrix:
 Charge =  2 Multiplicity = 4
 C                     1.07175  -1.51687   0. 
 H                     2.10934  -1.19229   0. 
 H                     0.82901  -2.5846    0. 
 C                     0.       -0.62548   0. 
 C                    -1.24761  -0.10471   0. 
 H                    -2.33866  -0.18535   0. 
 C                    -0.26719   0.87202   0. 
 C                     0.34311   2.03542   0. 
 
 NAtoms=      8 NQM=        8 NQMF=       0 NMMI=      0 NMMIF=      0
                NMic=       0 NMicF=      0.
                    Isotopes and Nuclear Properties:
 (Nuclear quadrupole moments (NQMom) in fm**2, nuclear magnetic moments (NMagM)
  in nuclear magnetons)

  Atom         1           2           3           4           5           6           7           8
 IAtWgt=          12           1           1          12          12           1          12          12
 AtmWgt=  12.0000000   1.0078250   1.0078250  12.0000000  12.0000000   1.0078250  12.0000000  12.0000000
 NucSpn=           0           1           1           0           0           1           0           0
 AtZEff=   0.0000000   0.0000000   0.0000000   0.0000000   0.0000000   0.0000000   0.0000000   0.0000000
 NQMom=    0.0000000   0.0000000   0.0000000   0.0000000   0.0000000   0.0000000   0.0000000   0.0000000
 NMagM=    0.0000000   2.7928460   2.7928460   0.0000000   0.0000000   2.7928460   0.0000000   0.0000000
 AtZNuc=   6.0000000   1.0000000   1.0000000   6.0000000   6.0000000   1.0000000   6.0000000   6.0000000
 Leave Link  101 at Mon Jun 20 10:52:19 2016, MaxMem=    33554432 cpu:         0.2
 (Enter /home/proyectos/fulerenos/M3C-v1.9/M3C-deps_CCC/g09-AM64L-G09RevC.01/l103.exe)

 GradGradGradGradGradGradGradGradGradGradGradGradGradGradGradGradGradGrad
 Berny optimization.
 Initialization pass.
 Trust Radius=3.00D-01 FncErr=1.00D-07 GrdErr=1.00D-07
 Number of steps in this run=      2 maximum allowed number of steps=      2.
 GradGradGradGradGradGradGradGradGradGradGradGradGradGradGradGradGradGrad

 Leave Link  103 at Mon Jun 20 10:52:19 2016, MaxMem=    33554432 cpu:         0.1
 (Enter /home/proyectos/fulerenos/M3C-v1.9/M3C-deps_CCC/g09-AM64L-G09RevC.01/l202.exe)
                          Input orientation:                          
 ---------------------------------------------------------------------
 Center     Atomic      Atomic             Coordinates (Angstroms)
 Number     Number       Type             X           Y           Z
 ---------------------------------------------------------------------
      1          6           0        1.071747   -1.516874    0.000000
      2          1           0        2.109344   -1.192286    0.000000
      3          1           0        0.829009   -2.584600    0.000000
      4          6           0        0.000000   -0.625482    0.000000
      5          6           0       -1.247614   -0.104710    0.000000
      6          1           0       -2.338656   -0.185346    0.000000
      7          6           0       -0.267190    0.872017    0.000000
      8          6           0        0.343108    2.035421    0.000000
 ---------------------------------------------------------------------
                    Distance matrix (angstroms):
                    1          2          3          4          5
     1  C    0.000000
     2  H    1.087182   0.000000
     3  H    1.094971   1.891506   0.000000
     4  C    1.393995   2.184170   2.127299   0.000000
     5  C    2.715445   3.528738   3.234535   1.351941   0.000000
     6  H    3.661122   4.560552   3.973729   2.379713   1.094018
     7  C    2.738531   3.147898   3.626273   1.521149   1.383917
     8  C    3.626254   3.679359   4.645503   2.682933   2.666563
                    6          7          8
     6  H    0.000000
     7  C    2.325723   0.000000
     8  C    3.481905   1.313763   0.000000
 Stoichiometry    C5H3(2+,4)
 Framework group  CS[SG(C5H3)]
 Deg. of freedom    13
 Full point group                 CS      NOp   2
 Largest Abelian subgroup         CS      NOp   2
 Largest concise Abelian subgroup C1      NOp   1
                         Standard orientation:                         
 ---------------------------------------------------------------------
 Center     Atomic      Atomic             Coordinates (Angstroms)
 Number     Number       Type             X           Y           Z
 ---------------------------------------------------------------------
      1          6           0       -1.071747    1.516874    0.000000
      2          1           0       -2.109344    1.192286    0.000000
      3          1           0       -0.829009    2.584600    0.000000
      4          6           0       -0.000000    0.625482    0.000000
      5          6           0        1.247614    0.104710   -0.000000
      6          1           0        2.338656    0.185346   -0.000000
      7          6           0        0.267190   -0.872017   -0.000000
      8          6           0       -0.343108   -2.035421   -0.000000
 ---------------------------------------------------------------------
 Rotational constants (GHZ):     12.4114297      4.8627847      3.4938845
 Leave Link  202 at Mon Jun 20 10:52:19 2016, MaxMem=    33554432 cpu:         0.0
 (Enter /home/proyectos/fulerenos/M3C-v1.9/M3C-deps_CCC/g09-AM64L-G09RevC.01/l301.exe)
 Standard basis: 6-311++G(3df,2p) (5D, 7F)
 Ernie: Thresh=  0.10000D-02 Tol=  0.10000D-05 Strict=F.
 There are   179 symmetry adapted cartesian basis functions of A'  symmetry.
 There are    76 symmetry adapted cartesian basis functions of A"  symmetry.
 There are   154 symmetry adapted basis functions of A'  symmetry.
 There are    71 symmetry adapted basis functions of A"  symmetry.
   225 basis functions,   326 primitive gaussians,   255 cartesian basis functions
    17 alpha electrons       14 beta electrons
       nuclear repulsion energy       124.0052500301 Hartrees.
 IExCor=  402 DFT=T Ex+Corr=B3LYP ExCW=0 ScaHFX=  0.200000
 ScaDFX=  0.800000  0.720000  1.000000  0.810000 ScalE2=  1.000000  1.000000
 IRadAn=      0 IRanWt=     -1 IRanGd=            0 ICorTp=0 IEmpDi=  4
 NAtoms=    8 NActive=    8 NUniq=    8 SFac= 1.00D+00 NAtFMM=   60 NAOKFM=F Big=F
 Integral buffers will be    131072 words long.
 Raffenetti 2 integral format.
 Two-electron integral symmetry is turned on.
 Leave Link  301 at Mon Jun 20 10:52:19 2016, MaxMem=    33554432 cpu:         0.2
 (Enter /home/proyectos/fulerenos/M3C-v1.9/M3C-deps_CCC/g09-AM64L-G09RevC.01/l302.exe)
 NPDir=0 NMtPBC=     1 NCelOv=     1 NCel=       1 NClECP=     1 NCelD=      1
         NCelK=      1 NCelE2=     1 NClLst=     1 CellRange=     0.0.
 One-electron integrals computed using PRISM.
 NBasis=   225 RedAO= T EigKep=  5.23D-06  NBF=   154    71
 NBsUse=   225 1.00D-06 EigRej= -1.00D+00 NBFU=   154    71
 Precomputing XC quadrature grid using
 IXCGrd= 4 IRadAn=           0 IRanWt=          -1 IRanGd=           0 AccXCQ= 0.00D+00.
 Generated NRdTot=       0 NPtTot=           0 NUsed=           0 NTot=          32
 NSgBfM=   255   255   255   255   255 MxSgAt=     8 MxSgA2=     8.
 Leave Link  302 at Mon Jun 20 10:52:19 2016, MaxMem=    33554432 cpu:         1.0
 (Enter /home/proyectos/fulerenos/M3C-v1.9/M3C-deps_CCC/g09-AM64L-G09RevC.01/l303.exe)
 DipDrv:  MaxL=1.
 Leave Link  303 at Mon Jun 20 10:52:20 2016, MaxMem=    33554432 cpu:         0.1
 (Enter /home/proyectos/fulerenos/M3C-v1.9/M3C-deps_CCC/g09-AM64L-G09RevC.01/l401.exe)
 ExpMin= 3.60D-02 ExpMax= 4.56D+03 ExpMxC= 6.82D+02 IAcc=3 IRadAn=         5 AccDes= 0.00D+00
 Harris functional with IExCor=  402 and IRadAn=       5 diagonalized for initial guess.
 HarFok:  IExCor=  402 AccDes= 0.00D+00 IRadAn=         5 IDoV= 1 UseB2=F ITyADJ=14
 ICtDFT=  3500011 ScaDFX=  1.000000  1.000000  1.000000  1.000000
 FoFCou: FMM=F IPFlag=           0 FMFlag=      100000 FMFlg1=           0
         NFxFlg=           0 DoJE=T BraDBF=F KetDBF=T FulRan=T
         wScrn=  0.000000 ICntrl=     500 IOpCl=  0 I1Cent=   200000004 NGrid=           0
         NMat0=    1 NMatS0=      1 NMatT0=    0 NMatD0=    1 NMtDS0=    0 NMtDT0=    0
 Petite list used in FoFCou.
 Harris En= -191.474916923818    
 JPrj=0 DoOrth=F DoCkMO=F.
 Initial guess orbital symmetries:
 Alpha Orbitals:
       Occupied  (A') (A') (A') (A') (A') (A') (A') (A') (A') (A')
                 (A') (A') (A") (A') (A') (A") (A")
       Virtual   (A') (A") (A") (A') (A') (A') (A') (A') (A") (A')
                 (A') (A') (A") (A') (A") (A') (A') (A') (A') (A")
                 (A") (A') (A') (A') (A') (A') (A') (A') (A') (A')
                 (A') (A") (A') (A') (A') (A") (A') (A") (A') (A')
                 (A') (A") (A') (A') (A") (A') (A") (A') (A") (A')
                 (A") (A') (A") (A') (A") (A') (A') (A') (A') (A')
                 (A') (A') (A") (A') (A") (A') (A") (A") (A") (A')
                 (A') (A') (A") (A') (A') (A") (A') (A') (A') (A")
                 (A') (A') (A') (A') (A') (A') (A') (A') (A') (A')
                 (A") (A') (A") (A') (A") (A') (A") (A") (A') (A")
                 (A") (A') (A') (A') (A") (A') (A') (A') (A') (A")
                 (A') (A") (A') (A") (A') (A") (A') (A') (A') (A")
                 (A") (A') (A') (A") (A') (A') (A") (A') (A") (A")
                 (A') (A") (A') (A") (A') (A') (A') (A") (A') (A")
                 (A') (A") (A') (A') (A") (A') (A') (A') (A') (A")
                 (A') (A') (A') (A') (A") (A') (A") (A') (A') (A")
                 (A') (A") (A') (A") (A') (A") (A') (A') (A') (A')
                 (A') (A") (A") (A') (A') (A') (A') (A') (A") (A')
                 (A") (A") (A') (A") (A') (A') (A") (A") (A') (A')
                 (A") (A") (A') (A") (A') (A') (A") (A') (A') (A')
                 (A') (A') (A') (A') (A') (A') (A') (A')
 Beta  Orbitals:
       Occupied  (A') (A') (A') (A') (A') (A') (A') (A') (A') (A')
                 (A') (A') (A") (A')
       Virtual   (A') (A") (A") (A') (A") (A") (A') (A') (A') (A')
                 (A') (A") (A') (A') (A') (A") (A') (A") (A') (A')
                 (A') (A') (A") (A") (A') (A') (A') (A') (A') (A')
                 (A') (A') (A') (A') (A") (A') (A') (A') (A") (A')
                 (A") (A') (A') (A') (A") (A') (A') (A") (A') (A")
                 (A') (A") (A') (A") (A') (A") (A') (A") (A') (A')
                 (A') (A') (A') (A') (A') (A") (A') (A") (A') (A")
                 (A") (A") (A') (A') (A') (A") (A') (A') (A") (A')
                 (A') (A') (A") (A') (A') (A') (A') (A') (A') (A')
                 (A') (A') (A') (A") (A') (A") (A') (A") (A') (A")
                 (A") (A') (A") (A") (A') (A') (A') (A") (A') (A')
                 (A') (A') (A") (A') (A") (A') (A") (A') (A") (A')
                 (A') (A') (A") (A") (A') (A') (A") (A') (A') (A")
                 (A') (A") (A") (A') (A") (A') (A") (A') (A') (A')
                 (A") (A') (A") (A') (A") (A') (A') (A") (A') (A')
                 (A') (A') (A") (A') (A') (A') (A') (A") (A') (A")
                 (A') (A') (A") (A') (A") (A') (A") (A') (A") (A')
                 (A') (A') (A') (A') (A") (A") (A') (A') (A') (A')
                 (A') (A") (A') (A") (A") (A') (A") (A') (A') (A")
                 (A") (A') (A') (A") (A") (A') (A") (A') (A') (A")
                 (A') (A') (A') (A') (A') (A') (A') (A') (A') (A')
                 (A')
 The electronic state of the initial guess is 4-A'.
 Initial guess <Sx>= 0.0000 <Sy>= 0.0000 <Sz>= 1.5000 <S**2>= 3.7500 S= 1.5000
 Leave Link  401 at Mon Jun 20 10:52:21 2016, MaxMem=    33554432 cpu:         5.8
 (Enter /home/proyectos/fulerenos/M3C-v1.9/M3C-deps_CCC/g09-AM64L-G09RevC.01/l502.exe)
 UHF open shell SCF:
 Using DIIS extrapolation, IDIIS=  1040.
 Integral symmetry usage will be decided dynamically.
 IVT=      217056 IEndB=      217056 NGot=    33554432 MDV=    33419297
 LenX=    33419297 LenY=    33353831
 Requested convergence on RMS density matrix=1.00D-08 within 128 cycles.
 Requested convergence on MAX density matrix=1.00D-06.
 Requested convergence on             energy=1.00D-06.
 No special actions if energy rises.
 Fock matrices will be formed incrementally for  20 cycles.

 Cycle   1  Pass 1  IDiag  1:
 FoFJK:  IHMeth= 1 ICntrl=       0 DoSepK=F KAlg= 0 I1Cent=   0 FoldK=F
 IRaf= 990000000 NMat=   1 IRICut=       1 DoRegI=T DoRafI=F ISym2E= 1.
 FoFCou: FMM=F IPFlag=           0 FMFlag=      100000 FMFlg1=           0
         NFxFlg=           0 DoJE=F BraDBF=F KetDBF=F FulRan=T
         wScrn=  0.000000 ICntrl=       0 IOpCl=  1 I1Cent=           0 NGrid=           0
         NMat0=    1 NMatS0=      1 NMatT0=    0 NMatD0=    1 NMtDS0=    0 NMtDT0=    0
 Petite list used in FoFCou.
 E= -191.049368290757    
 DIIS: error= 3.03D-02 at cycle   1 NSaved=   1.
 NSaved= 1 IEnMin= 1 EnMin= -191.049368290757     IErMin= 1 ErrMin= 3.03D-02
 ErrMax= 3.03D-02  0.00D+00 EMaxC= 1.00D-01 BMatC= 3.99D-01 BMatP= 3.99D-01
 IDIUse=3 WtCom= 6.97D-01 WtEn= 3.03D-01
 Coeff-Com:  0.100D+01
 Coeff-En:   0.100D+01
 Coeff:      0.100D+01
 Gap=     0.030 Goal=   None    Shift=    0.000
 Gap=    -0.038 Goal=   None    Shift=    0.000
 GapD=   -0.038 DampG=0.250 DampE=0.500 DampFc=0.2500 IDamp=-1.
 Damping current iteration by 2.50D-01
 RMSDP=1.70D-02 MaxDP=1.95D+00              OVMax= 6.27D-01

 Cycle   2  Pass 1  IDiag  1:
 RMSU=  4.22D-03    CP:  1.02D+00
 E= -191.023823088441     Delta-E=        0.025545202317 Rises=F Damp=T
 DIIS: error= 1.16D-02 at cycle   2 NSaved=   2.
 NSaved= 2 IEnMin= 1 EnMin= -191.049368290757     IErMin= 2 ErrMin= 1.16D-02
 ErrMax= 1.16D-02  0.00D+00 EMaxC= 1.00D-01 BMatC= 9.80D-02 BMatP= 3.99D-01
 IDIUse=3 WtCom= 8.84D-01 WtEn= 1.16D-01
 Coeff-Com:  0.176D+00 0.824D+00
 Coeff-En:   0.576D+00 0.424D+00
 Coeff:      0.222D+00 0.778D+00
 Gap=     0.005 Goal=   None    Shift=    0.000
 Gap=     0.026 Goal=   None    Shift=    0.000
 RMSDP=5.86D-03 MaxDP=4.79D-01 DE= 2.55D-02 OVMax= 5.87D-01

 Cycle   3  Pass 1  IDiag  1:
 RMSU=  5.50D-03    CP:  1.05D+00  5.83D-01
 E= -191.113112630201     Delta-E=       -0.089289541761 Rises=F Damp=F
 DIIS: error= 2.90D-02 at cycle   3 NSaved=   3.
 NSaved= 3 IEnMin= 3 EnMin= -191.113112630201     IErMin= 2 ErrMin= 1.16D-02
 ErrMax= 2.90D-02  0.00D+00 EMaxC= 1.00D-01 BMatC= 1.99D-01 BMatP= 9.80D-02
 IDIUse=2 WtCom= 0.00D+00 WtEn= 1.00D+00
 Coeff-En:   0.000D+00 0.170D+00 0.830D+00
 Coeff:      0.000D+00 0.170D+00 0.830D+00
 Gap=     0.000 Goal=   None    Shift=    0.000
 Gap=     0.030 Goal=   None    Shift=    0.000
 RMSDP=1.09D-02 MaxDP=1.28D+00 DE=-8.93D-02 OVMax= 6.11D-01

 Cycle   4  Pass 1  IDiag  1:
 RMSU=  4.73D-03    CP:  1.11D+00  2.76D+00  4.17D-01
 E= -190.318483966708     Delta-E=        0.794628663494 Rises=F Damp=F
 DIIS: error= 7.58D-02 at cycle   4 NSaved=   4.
 NSaved= 4 IEnMin= 3 EnMin= -191.113112630201     IErMin= 2 ErrMin= 1.16D-02
 ErrMax= 7.58D-02  0.00D+00 EMaxC= 1.00D-01 BMatC= 2.47D+00 BMatP= 9.80D-02
 IDIUse=2 WtCom= 0.00D+00 WtEn= 1.00D+00
 Coeff-En:   0.000D+00 0.000D+00 0.857D+00 0.143D+00
 Coeff:      0.000D+00 0.000D+00 0.857D+00 0.143D+00
 Gap=     0.015 Goal=   None    Shift=    0.000
 Gap=     0.047 Goal=   None    Shift=    0.000
 RMSDP=8.48D-03 MaxDP=1.08D+00 DE= 7.95D-01 OVMax= 5.14D-01

 Cycle   5  Pass 1  IDiag  1:
 RMSU=  2.15D-03    CP:  1.09D+00  1.06D+00  9.75D-01  4.62D-01
 E= -191.143028253148     Delta-E=       -0.824544286441 Rises=F Damp=F
 DIIS: error= 1.76D-02 at cycle   5 NSaved=   5.
 NSaved= 5 IEnMin= 5 EnMin= -191.143028253148     IErMin= 2 ErrMin= 1.16D-02
 ErrMax= 1.76D-02  0.00D+00 EMaxC= 1.00D-01 BMatC= 1.45D-01 BMatP= 9.80D-02
 IDIUse=2 WtCom= 0.00D+00 WtEn= 1.00D+00
 Coeff-En:   0.000D+00 0.000D+00 0.396D+00 0.000D+00 0.604D+00
 Coeff:      0.000D+00 0.000D+00 0.396D+00 0.000D+00 0.604D+00
 Gap=     0.059 Goal=   None    Shift=    0.000
 Gap=     0.123 Goal=   None    Shift=    0.000
 RMSDP=2.08D-03 MaxDP=1.22D-01 DE=-8.25D-01 OVMax= 1.19D-01

 Cycle   6  Pass 1  IDiag  1:
 RMSU=  1.22D-03    CP:  1.07D+00  9.33D-01  1.09D+00  2.22D-01  6.63D-01
 E= -191.179238352007     Delta-E=       -0.036210098858 Rises=F Damp=F
 DIIS: error= 5.28D-03 at cycle   6 NSaved=   6.
 NSaved= 6 IEnMin= 6 EnMin= -191.179238352007     IErMin= 6 ErrMin= 5.28D-03
 ErrMax= 5.28D-03  0.00D+00 EMaxC= 1.00D-01 BMatC= 2.08D-02 BMatP= 9.80D-02
 IDIUse=3 WtCom= 9.47D-01 WtEn= 5.28D-02
 Coeff-Com: -0.152D-01 0.217D-01 0.186D+00-0.120D-01 0.354D+00 0.465D+00
 Coeff-En:   0.000D+00 0.000D+00 0.000D+00 0.000D+00 0.101D+00 0.899D+00
 Coeff:     -0.144D-01 0.205D-01 0.176D+00-0.113D-01 0.341D+00 0.488D+00
 Gap=     0.065 Goal=   None    Shift=    0.000
 Gap=     0.133 Goal=   None    Shift=    0.000
 RMSDP=6.73D-04 MaxDP=3.10D-02 DE=-3.62D-02 OVMax= 3.12D-02

 Cycle   7  Pass 1  IDiag  1:
 RMSU=  4.09D-04    CP:  1.08D+00  9.19D-01  1.08D+00  2.58D-01  7.42D-01
                    CP:  7.52D-01
 E= -191.184227379648     Delta-E=       -0.004989027641 Rises=F Damp=F
 DIIS: error= 1.23D-03 at cycle   7 NSaved=   7.
 NSaved= 7 IEnMin= 7 EnMin= -191.184227379648     IErMin= 7 ErrMin= 1.23D-03
 ErrMax= 1.23D-03  0.00D+00 EMaxC= 1.00D-01 BMatC= 7.48D-04 BMatP= 2.08D-02
 IDIUse=3 WtCom= 9.88D-01 WtEn= 1.23D-02
 Coeff-Com:  0.187D-01-0.299D-01-0.318D-01-0.757D-03 0.260D-02 0.176D+00
 Coeff-Com:  0.865D+00
 Coeff-En:   0.000D+00 0.000D+00 0.000D+00 0.000D+00 0.000D+00 0.000D+00
 Coeff-En:   0.100D+01
 Coeff:      0.185D-01-0.295D-01-0.314D-01-0.748D-03 0.257D-02 0.174D+00
 Coeff:      0.867D+00
 Gap=     0.065 Goal=   None    Shift=    0.000
 Gap=     0.138 Goal=   None    Shift=    0.000
 RMSDP=2.67D-04 MaxDP=1.89D-02 DE=-4.99D-03 OVMax= 1.58D-02

 Cycle   8  Pass 1  IDiag  1:
 RMSU=  1.85D-04    CP:  1.08D+00  9.03D-01  1.09D+00  2.50D-01  7.43D-01
                    CP:  8.65D-01  1.19D+00
 E= -191.184540583335     Delta-E=       -0.000313203687 Rises=F Damp=F
 DIIS: error= 5.42D-04 at cycle   8 NSaved=   8.
 NSaved= 8 IEnMin= 8 EnMin= -191.184540583335     IErMin= 8 ErrMin= 5.42D-04
 ErrMax= 5.42D-04  0.00D+00 EMaxC= 1.00D-01 BMatC= 1.24D-04 BMatP= 7.48D-04
 IDIUse=3 WtCom= 9.95D-01 WtEn= 5.42D-03
 Coeff-Com:  0.657D-02-0.697D-02-0.319D-02-0.948D-04-0.272D-01-0.394D-01
 Coeff-Com:  0.132D+00 0.938D+00
 Coeff-En:   0.000D+00 0.000D+00 0.000D+00 0.000D+00 0.000D+00 0.000D+00
 Coeff-En:   0.000D+00 0.100D+01
 Coeff:      0.653D-02-0.693D-02-0.318D-02-0.943D-04-0.271D-01-0.392D-01
 Coeff:      0.131D+00 0.939D+00
 Gap=     0.064 Goal=   None    Shift=    0.000
 Gap=     0.140 Goal=   None    Shift=    0.000
 RMSDP=1.52D-04 MaxDP=1.19D-02 DE=-3.13D-04 OVMax= 1.13D-02

 Cycle   9  Pass 1  IDiag  1:
 RMSU=  6.90D-05    CP:  1.08D+00  8.85D-01  1.09D+00  2.42D-01  7.30D-01
                    CP:  8.83D-01  1.34D+00  1.38D+00
 E= -191.184619086158     Delta-E=       -0.000078502822 Rises=F Damp=F
 DIIS: error= 2.46D-04 at cycle   9 NSaved=   9.
 NSaved= 9 IEnMin= 9 EnMin= -191.184619086158     IErMin= 9 ErrMin= 2.46D-04
 ErrMax= 2.46D-04  0.00D+00 EMaxC= 1.00D-01 BMatC= 3.43D-05 BMatP= 1.24D-04
 IDIUse=3 WtCom= 9.98D-01 WtEn= 2.46D-03
 Coeff-Com:  0.828D-03 0.370D-04 0.657D-02-0.523D-03-0.121D-01-0.508D-01
 Coeff-Com: -0.798D-01 0.489D+00 0.646D+00
 Coeff-En:   0.000D+00 0.000D+00 0.000D+00 0.000D+00 0.000D+00 0.000D+00
 Coeff-En:   0.000D+00 0.000D+00 0.100D+01
 Coeff:      0.826D-03 0.369D-04 0.656D-02-0.522D-03-0.121D-01-0.507D-01
 Coeff:     -0.797D-01 0.488D+00 0.647D+00
 Gap=     0.064 Goal=   None    Shift=    0.000
 Gap=     0.140 Goal=   None    Shift=    0.000
 RMSDP=7.07D-05 MaxDP=4.56D-03 DE=-7.85D-05 OVMax= 5.04D-03

 Cycle  10  Pass 1  IDiag  1:
 RMSU=  2.85D-05    CP:  1.08D+00  8.81D-01  1.09D+00  2.40D-01  7.31D-01
                    CP:  9.07D-01  1.44D+00  1.55D+00  1.17D+00
 E= -191.184641874901     Delta-E=       -0.000022788744 Rises=F Damp=F
 DIIS: error= 1.10D-04 at cycle  10 NSaved=  10.
 NSaved=10 IEnMin=10 EnMin= -191.184641874901     IErMin=10 ErrMin= 1.10D-04
 ErrMax= 1.10D-04  0.00D+00 EMaxC= 1.00D-01 BMatC= 7.93D-06 BMatP= 3.43D-05
 IDIUse=3 WtCom= 9.99D-01 WtEn= 1.10D-03
 Coeff-Com: -0.992D-03 0.407D-03 0.145D-02-0.205D-03 0.720D-02 0.527D-02
 Coeff-Com: -0.810D-01-0.309D+00 0.247D+00 0.113D+01
 Coeff-En:   0.000D+00 0.000D+00 0.000D+00 0.000D+00 0.000D+00 0.000D+00
 Coeff-En:   0.000D+00 0.000D+00 0.000D+00 0.100D+01
 Coeff:     -0.991D-03 0.407D-03 0.144D-02-0.204D-03 0.719D-02 0.526D-02
 Coeff:     -0.809D-01-0.309D+00 0.247D+00 0.113D+01
 Gap=     0.064 Goal=   None    Shift=    0.000
 Gap=     0.141 Goal=   None    Shift=    0.000
 RMSDP=8.56D-05 MaxDP=5.37D-03 DE=-2.28D-05 OVMax= 6.43D-03

 Cycle  11  Pass 1  IDiag  1:
 RMSU=  1.80D-05    CP:  1.08D+00  8.75D-01  1.10D+00  2.39D-01  7.32D-01
                    CP:  9.28D-01  1.55D+00  1.79D+00  1.68D+00  1.65D+00
 E= -191.184654318980     Delta-E=       -0.000012444079 Rises=F Damp=F
 DIIS: error= 4.63D-05 at cycle  11 NSaved=  11.
 NSaved=11 IEnMin=11 EnMin= -191.184654318980     IErMin=11 ErrMin= 4.63D-05
 ErrMax= 4.63D-05  0.00D+00 EMaxC= 1.00D-01 BMatC= 9.65D-07 BMatP= 7.93D-06
 IDIUse=1 WtCom= 1.00D+00 WtEn= 0.00D+00
 Coeff-Com:  0.695D-03-0.803D-03-0.138D-02-0.575D-05 0.285D-02 0.115D-01
 Coeff-Com:  0.105D-01-0.125D+00-0.763D-01 0.106D+00 0.107D+01
 Coeff:      0.695D-03-0.803D-03-0.138D-02-0.575D-05 0.285D-02 0.115D-01
 Coeff:      0.105D-01-0.125D+00-0.763D-01 0.106D+00 0.107D+01
 Gap=     0.063 Goal=   None    Shift=    0.000
 Gap=     0.141 Goal=   None    Shift=    0.000
 RMSDP=3.07D-05 MaxDP=1.55D-03 DE=-1.24D-05 OVMax= 2.05D-03

 Cycle  12  Pass 1  IDiag  1:
 RMSU=  6.30D-06    CP:  1.08D+00  8.73D-01  1.10D+00  2.39D-01  7.32D-01
                    CP:  9.36D-01  1.58D+00  1.87D+00  1.90D+00  1.98D+00
                    CP:  1.38D+00
 E= -191.184655719123     Delta-E=       -0.000001400143 Rises=F Damp=F
 DIIS: error= 2.44D-05 at cycle  12 NSaved=  12.
 NSaved=12 IEnMin=12 EnMin= -191.184655719123     IErMin=12 ErrMin= 2.44D-05
 ErrMax= 2.44D-05  0.00D+00 EMaxC= 1.00D-01 BMatC= 1.81D-07 BMatP= 9.65D-07
 IDIUse=1 WtCom= 1.00D+00 WtEn= 0.00D+00
 Coeff-Com:  0.554D-03-0.636D-03 0.727D-04 0.399D-04-0.435D-03-0.526D-03
 Coeff-Com:  0.834D-02 0.305D-01-0.301D-01-0.150D+00 0.747D-01 0.107D+01
 Coeff:      0.554D-03-0.636D-03 0.727D-04 0.399D-04-0.435D-03-0.526D-03
 Coeff:      0.834D-02 0.305D-01-0.301D-01-0.150D+00 0.747D-01 0.107D+01
 Gap=     0.063 Goal=   None    Shift=    0.000
 Gap=     0.141 Goal=   None    Shift=    0.000
 RMSDP=9.81D-06 MaxDP=4.68D-04 DE=-1.40D-06 OVMax= 6.58D-04

 Cycle  13  Pass 1  IDiag  1:
 RMSU=  1.98D-06    CP:  1.08D+00  8.73D-01  1.10D+00  2.39D-01  7.32D-01
                    CP:  9.38D-01  1.59D+00  1.89D+00  1.95D+00  2.10D+00
                    CP:  1.57D+00  1.12D+00
 E= -191.184655882813     Delta-E=       -0.000000163691 Rises=F Damp=F
 DIIS: error= 8.92D-06 at cycle  13 NSaved=  13.
 NSaved=13 IEnMin=13 EnMin= -191.184655882813     IErMin=13 ErrMin= 8.92D-06
 ErrMax= 8.92D-06  0.00D+00 EMaxC= 1.00D-01 BMatC= 2.77D-08 BMatP= 1.81D-07
 IDIUse=1 WtCom= 1.00D+00 WtEn= 0.00D+00
 Coeff-Com:  0.915D-04-0.115D-03 0.342D-03 0.988D-05-0.255D-03-0.128D-02
 Coeff-Com:  0.539D-03 0.131D-01 0.117D-01-0.296D-01-0.110D+00 0.736D-01
 Coeff-Com:  0.104D+01
 Coeff:      0.915D-04-0.115D-03 0.342D-03 0.988D-05-0.255D-03-0.128D-02
 Coeff:      0.539D-03 0.131D-01 0.117D-01-0.296D-01-0.110D+00 0.736D-01
 Coeff:      0.104D+01
 Gap=     0.063 Goal=   None    Shift=    0.000
 Gap=     0.141 Goal=   None    Shift=    0.000
 RMSDP=2.06D-06 MaxDP=1.29D-04 DE=-1.64D-07 OVMax= 1.19D-04

 Cycle  14  Pass 1  IDiag  1:
 RMSU=  6.35D-07    CP:  1.08D+00  8.73D-01  1.10D+00  2.39D-01  7.32D-01
                    CP:  9.37D-01  1.59D+00  1.90D+00  1.96D+00  2.11D+00
                    CP:  1.62D+00  1.20D+00  1.16D+00
 E= -191.184655898544     Delta-E=       -0.000000015731 Rises=F Damp=F
 DIIS: error= 2.70D-06 at cycle  14 NSaved=  14.
 NSaved=14 IEnMin=14 EnMin= -191.184655898544     IErMin=14 ErrMin= 2.70D-06
 ErrMax= 2.70D-06  0.00D+00 EMaxC= 1.00D-01 BMatC= 1.35D-09 BMatP= 2.77D-08
 IDIUse=1 WtCom= 1.00D+00 WtEn= 0.00D+00
 Coeff-Com: -0.113D-04 0.684D-05 0.218D-04-0.137D-05 0.348D-04 0.878D-04
 Coeff-Com: -0.853D-04-0.282D-02 0.337D-02 0.881D-02-0.275D-02-0.883D-01
 Coeff-Com:  0.605D-01 0.102D+01
 Coeff:     -0.113D-04 0.684D-05 0.218D-04-0.137D-05 0.348D-04 0.878D-04
 Coeff:     -0.853D-04-0.282D-02 0.337D-02 0.881D-02-0.275D-02-0.883D-01
 Coeff:      0.605D-01 0.102D+01
 Gap=     0.063 Goal=   None    Shift=    0.000
 Gap=     0.141 Goal=   None    Shift=    0.000
 RMSDP=3.28D-07 MaxDP=1.60D-05 DE=-1.57D-08 OVMax= 3.70D-05

 Cycle  15  Pass 1  IDiag  1:
 RMSU=  2.24D-07    CP:  1.08D+00  8.73D-01  1.10D+00  2.39D-01  7.32D-01
                    CP:  9.37D-01  1.59D+00  1.90D+00  1.96D+00  2.11D+00
                    CP:  1.62D+00  1.20D+00  1.23D+00  1.08D+00
 E= -191.184655899507     Delta-E=       -0.000000000963 Rises=F Damp=F
 DIIS: error= 5.73D-07 at cycle  15 NSaved=  15.
 NSaved=15 IEnMin=15 EnMin= -191.184655899507     IErMin=15 ErrMin= 5.73D-07
 ErrMax= 5.73D-07  0.00D+00 EMaxC= 1.00D-01 BMatC= 1.53D-10 BMatP= 1.35D-09
 IDIUse=1 WtCom= 1.00D+00 WtEn= 0.00D+00
 Coeff-Com:  0.422D-05-0.746D-05-0.547D-04-0.359D-07 0.320D-04 0.152D-03
 Coeff-Com:  0.187D-04-0.903D-03-0.980D-03 0.880D-03 0.118D-01-0.661D-02
 Coeff-Com: -0.101D+00 0.381D-01 0.106D+01
 Coeff:      0.422D-05-0.746D-05-0.547D-04-0.359D-07 0.320D-04 0.152D-03
 Coeff:      0.187D-04-0.903D-03-0.980D-03 0.880D-03 0.118D-01-0.661D-02
 Coeff:     -0.101D+00 0.381D-01 0.106D+01
 Gap=     0.063 Goal=   None    Shift=    0.000
 Gap=     0.141 Goal=   None    Shift=    0.000
 RMSDP=1.32D-07 MaxDP=6.96D-06 DE=-9.63D-10 OVMax= 1.01D-05

 Cycle  16  Pass 1  IDiag  1:
 RMSU=  7.69D-08    CP:  1.08D+00  8.73D-01  1.10D+00  2.39D-01  7.32D-01
                    CP:  9.37D-01  1.59D+00  1.90D+00  1.96D+00  2.11D+00
                    CP:  1.62D+00  1.20D+00  1.24D+00  1.16D+00  1.11D+00
 E= -191.184655899623     Delta-E=       -0.000000000116 Rises=F Damp=F
 DIIS: error= 1.96D-07 at cycle  16 NSaved=  16.
 NSaved=16 IEnMin=16 EnMin= -191.184655899623     IErMin=16 ErrMin= 1.96D-07
 ErrMax= 1.96D-07  0.00D+00 EMaxC= 1.00D-01 BMatC= 1.32D-11 BMatP= 1.53D-10
 IDIUse=1 WtCom= 1.00D+00 WtEn= 0.00D+00
 Coeff-Com:  0.215D-05-0.201D-05 0.243D-05-0.101D-07 0.291D-05-0.168D-04
 Coeff-Com: -0.283D-04 0.178D-03-0.118D-03-0.751D-03 0.396D-03 0.632D-02
 Coeff-Com: -0.310D-02-0.114D+00-0.401D-01 0.115D+01
 Coeff:      0.215D-05-0.201D-05 0.243D-05-0.101D-07 0.291D-05-0.168D-04
 Coeff:     -0.283D-04 0.178D-03-0.118D-03-0.751D-03 0.396D-03 0.632D-02
 Coeff:     -0.310D-02-0.114D+00-0.401D-01 0.115D+01
 Gap=     0.063 Goal=   None    Shift=    0.000
 Gap=     0.141 Goal=   None    Shift=    0.000
 RMSDP=5.14D-08 MaxDP=2.52D-06 DE=-1.16D-10 OVMax= 4.85D-06

 Cycle  17  Pass 1  IDiag  1:
 RMSU=  1.71D-08    CP:  1.08D+00  8.73D-01  1.10D+00  2.39D-01  7.32D-01
                    CP:  9.37D-01  1.59D+00  1.90D+00  1.96D+00  2.11D+00
                    CP:  1.62D+00  1.20D+00  1.24D+00  1.17D+00  1.25D+00
                    CP:  1.28D+00
 E= -191.184655899634     Delta-E=       -0.000000000011 Rises=F Damp=F
 DIIS: error= 1.01D-07 at cycle  17 NSaved=  17.
 NSaved=17 IEnMin=17 EnMin= -191.184655899634     IErMin=17 ErrMin= 1.01D-07
 ErrMax= 1.01D-07  0.00D+00 EMaxC= 1.00D-01 BMatC= 1.96D-12 BMatP= 1.32D-11
 IDIUse=1 WtCom= 1.00D+00 WtEn= 0.00D+00
 Coeff-Com:  0.174D-05-0.229D-05 0.105D-05 0.198D-06-0.136D-05-0.170D-05
 Coeff-Com: -0.803D-06 0.816D-05 0.158D-04 0.365D-04-0.298D-03-0.353D-03
 Coeff-Com:  0.296D-02 0.212D-02-0.348D-01-0.656D-01 0.110D+01
 Coeff:      0.174D-05-0.229D-05 0.105D-05 0.198D-06-0.136D-05-0.170D-05
 Coeff:     -0.803D-06 0.816D-05 0.158D-04 0.365D-04-0.298D-03-0.353D-03
 Coeff:      0.296D-02 0.212D-02-0.348D-01-0.656D-01 0.110D+01
 Gap=     0.063 Goal=   None    Shift=    0.000
 Gap=     0.141 Goal=   None    Shift=    0.000
 RMSDP=1.24D-08 MaxDP=7.73D-07 DE=-1.13D-11 OVMax= 1.09D-06

 Cycle  18  Pass 1  IDiag  1:
 RMSU=  4.66D-09    CP:  1.08D+00  8.73D-01  1.10D+00  2.39D-01  7.32D-01
                    CP:  9.37D-01  1.59D+00  1.90D+00  1.96D+00  2.11D+00
                    CP:  1.62D+00  1.20D+00  1.24D+00  1.17D+00  1.26D+00
                    CP:  1.36D+00  1.27D+00
 E= -191.184655899634     Delta-E=        0.000000000001 Rises=F Damp=F
 DIIS: error= 4.08D-08 at cycle  18 NSaved=  18.
 NSaved=18 IEnMin=17 EnMin= -191.184655899634     IErMin=18 ErrMin= 4.08D-08
 ErrMax= 4.08D-08  0.00D+00 EMaxC= 1.00D-01 BMatC= 4.58D-13 BMatP= 1.96D-12
 IDIUse=1 WtCom= 1.00D+00 WtEn= 0.00D+00
 Coeff-Com:  0.378D-06-0.476D-06-0.285D-06 0.392D-07 0.732D-06 0.401D-05
 Coeff-Com: -0.722D-06-0.457D-04-0.441D-05 0.145D-03 0.252D-03-0.104D-02
 Coeff-Com: -0.143D-02 0.118D-01 0.169D-01-0.124D+00-0.773D-01 0.118D+01
 Coeff:      0.378D-06-0.476D-06-0.285D-06 0.392D-07 0.732D-06 0.401D-05
 Coeff:     -0.722D-06-0.457D-04-0.441D-05 0.145D-03 0.252D-03-0.104D-02
 Coeff:     -0.143D-02 0.118D-01 0.169D-01-0.124D+00-0.773D-01 0.118D+01
 Gap=     0.063 Goal=   None    Shift=    0.000
 Gap=     0.141 Goal=   None    Shift=    0.000
 RMSDP=6.07D-09 MaxDP=3.35D-07 DE= 6.82D-13 OVMax= 4.41D-07

 SCF Done:  E(UB3LYP) =  -191.184655900     A.U. after   18 cycles
            NFock= 18  Conv=0.61D-08     -V/T= 2.0044
 <Sx>= 0.0000 <Sy>= 0.0000 <Sz>= 1.5000 <S**2>= 3.7898 S= 1.5099
 <L.S>= 0.000000000000E+00
 KE= 1.903534757151D+02 PE=-6.758702950298D+02 EE= 1.703269133850D+02
 Annihilation of the first spin contaminant:
 S**2 before annihilation     3.7898,   after     3.7504
 Leave Link  502 at Mon Jun 20 10:55:17 2016, MaxMem=    33554432 cpu:       690.2
 (Enter /home/proyectos/fulerenos/M3C-v1.9/M3C-deps_CCC/g09-AM64L-G09RevC.01/l801.exe)
 DoSCS=F DFT=T ScalE2(SS,OS)=  1.000000  1.000000
 Range of M.O.s used for correlation:     1   225
 NBasis=   225 NAE=    17 NBE=    14 NFC=     0 NFV=     0
 NROrb=    225 NOA=    17 NOB=    14 NVA=   208 NVB=   211

 **** Warning!!: The largest alpha MO coefficient is  0.15160741D+03


 **** Warning!!: The smallest alpha delta epsilon is  0.63411685D-01


 **** Warning!!: The largest beta MO coefficient is  0.18341944D+03

 Leave Link  801 at Mon Jun 20 10:55:17 2016, MaxMem=    33554432 cpu:         0.1
 (Enter /home/proyectos/fulerenos/M3C-v1.9/M3C-deps_CCC/g09-AM64L-G09RevC.01/l1101.exe)
 Using compressed storage, NAtomX=     8.
 Will process      9 centers per pass.
 Leave Link 1101 at Mon Jun 20 10:55:17 2016, MaxMem=    33554432 cpu:         1.2
 (Enter /home/proyectos/fulerenos/M3C-v1.9/M3C-deps_CCC/g09-AM64L-G09RevC.01/l1102.exe)
 Symmetrizing basis deriv contribution to polar:
 IMax=3 JMax=2 DiffMx= 0.00D+00
 Leave Link 1102 at Mon Jun 20 10:55:18 2016, MaxMem=    33554432 cpu:         0.1
 (Enter /home/proyectos/fulerenos/M3C-v1.9/M3C-deps_CCC/g09-AM64L-G09RevC.01/l1110.exe)
 Forming Gx(P) for the SCF density, NAtomX=     8.
 Integral derivatives from FoFJK, PRISM(SPDF).
 Do as many integral derivatives as possible in FoFJK.
 G2DrvN: MDV=      33554264.
 G2DrvN: will do     9 centers at a time, making    1 passes.
 Calling FoFCou, ICntrl=  3107 FMM=F I1Cent=   0 AccDes= 0.00D+00.
 FoFJK:  IHMeth= 1 ICntrl=    3107 DoSepK=F KAlg= 0 I1Cent=   0 FoldK=F
 IRaf=         0 NMat=   1 IRICut=       1 DoRegI=T DoRafI=F ISym2E= 1.
 FoFCou: FMM=F IPFlag=           0 FMFlag=      100000 FMFlg1=           0
         NFxFlg=           0 DoJE=F BraDBF=F KetDBF=F FulRan=T
         wScrn=  0.000000 ICntrl=    3107 IOpCl=  1 I1Cent=           0 NGrid=           0
         NMat0=    1 NMatS0=      1 NMatT0=    0 NMatD0=    1 NMtDS0=    0 NMtDT0=    0
 Petite list used in FoFCou.
 End of G2Drv F.D. properties file   721 does not exist.
 End of G2Drv F.D. properties file   722 does not exist.
 End of G2Drv F.D. properties file   788 does not exist.
 Leave Link 1110 at Mon Jun 20 10:56:35 2016, MaxMem=    33554432 cpu:       309.4
 (Enter /home/proyectos/fulerenos/M3C-v1.9/M3C-deps_CCC/g09-AM64L-G09RevC.01/l1002.exe)
 Minotr:  UHF open shell wavefunction.
          IDoAtm=11111111
          Direct CPHF calculation.
          Differentiating once with respect to electric field.
                with respect to dipole field.
          Differentiating once with respect to nuclear coordinates.
          Using symmetry in CPHF.
          Requested convergence is 1.0D-08 RMS, and 1.0D-07 maximum.
          Secondary convergence is 1.0D-12 RMS, and 1.0D-12 maximum.
          NewPWx=T KeepS1=F KeepF1=F KeepIn=T MapXYZ=F SortEE=F KeepMc=T.
          MDV=      33553898 using IRadAn=       2.
 Generate precomputed XC quadrature information.
          Solving linear equations simultaneously, MaxMat=       0.
 FoFJK:  IHMeth= 1 ICntrl=       0 DoSepK=F KAlg= 0 I1Cent=   0 FoldK=F
 IRaf= 990000000 NMat=  27 IRICut=      67 DoRegI=T DoRafI=T ISym2E= 2.
 FoFCou: FMM=F IPFlag=           0 FMFlag=      100000 FMFlg1=           0
         NFxFlg=           0 DoJE=F BraDBF=F KetDBF=F FulRan=T
         wScrn=  0.000000 ICntrl=       0 IOpCl=  1 I1Cent=           0 NGrid=           0
         NMat0=   27 NMatS0=     27 NMatT0=    0 NMatD0=   27 NMtDS0=    0 NMtDT0=    0
 Integrals replicated using symmetry in FoFCou.
          There are    27 degrees of freedom in the 1st order CPHF.  IDoFFX=6 NUNeed=     3.
     24 vectors produced by pass  0 Test12= 2.40D-14 3.70D-09 XBig12= 2.97D+02 9.05D+00.
 AX will form    24 AO Fock derivatives at one time.
     24 vectors produced by pass  1 Test12= 2.40D-14 3.70D-09 XBig12= 5.89D+01 2.12D+00.
     24 vectors produced by pass  2 Test12= 2.40D-14 3.70D-09 XBig12= 2.19D+00 4.96D-01.
     24 vectors produced by pass  3 Test12= 2.40D-14 3.70D-09 XBig12= 2.81D-02 2.81D-02.
     24 vectors produced by pass  4 Test12= 2.40D-14 3.70D-09 XBig12= 1.70D-04 1.90D-03.
     24 vectors produced by pass  5 Test12= 2.40D-14 3.70D-09 XBig12= 7.56D-07 1.03D-04.
     23 vectors produced by pass  6 Test12= 2.40D-14 3.70D-09 XBig12= 4.14D-09 9.14D-06.
     12 vectors produced by pass  7 Test12= 2.40D-14 3.70D-09 XBig12= 1.65D-11 6.39D-07.
      7 vectors produced by pass  8 Test12= 2.40D-14 3.70D-09 XBig12= 4.84D-13 1.26D-07.
      6 vectors produced by pass  9 Test12= 2.40D-14 3.70D-09 XBig12= 3.53D-14 3.20D-08.
      3 vectors produced by pass 10 Test12= 2.40D-14 3.70D-09 XBig12= 1.75D-15 7.21D-09.
      2 vectors produced by pass 11 Test12= 2.40D-14 3.70D-09 XBig12= 4.86D-16 3.97D-09.
      1 vectors produced by pass 12 Test12= 2.40D-14 3.70D-09 XBig12= 5.66D-16 3.78D-09.
 InvSVY:  IOpt=1 It=  1 EMax= 1.42D-14
 Solved reduced A of dimension   198 with    27 vectors.
 FullF1:  Do perturbations    1 to     3.
 Isotropic polarizability for W=    0.000000       46.77 Bohr**3.
 End of Minotr F.D. properties file   721 does not exist.
 End of Minotr F.D. properties file   722 does not exist.
 End of Minotr F.D. properties file   788 does not exist.
 Leave Link 1002 at Mon Jun 20 11:01:34 2016, MaxMem=    33554432 cpu:      1153.6
 (Enter /home/proyectos/fulerenos/M3C-v1.9/M3C-deps_CCC/g09-AM64L-G09RevC.01/l601.exe)
 Copying SCF densities to generalized density rwf, IOpCl= 1 IROHF=0.

 **********************************************************************

            Population analysis using the SCF density.

 **********************************************************************

 Orbital symmetries:
 Alpha Orbitals:
       Occupied  (A') (A') (A') (A') (A') (A') (A') (A') (A') (A')
                 (A') (A") (A') (A') (A') (A") (A")
       Virtual   (A') (A") (A") (A') (A') (A') (A') (A') (A") (A')
                 (A') (A') (A") (A') (A") (A') (A') (A') (A') (A")
                 (A') (A") (A') (A') (A') (A") (A') (A') (A') (A')
                 (A') (A') (A") (A') (A') (A') (A") (A') (A") (A')
                 (A') (A') (A") (A') (A') (A') (A") (A") (A') (A")
                 (A") (A') (A") (A') (A') (A') (A') (A') (A') (A')
                 (A') (A") (A') (A') (A") (A") (A') (A") (A") (A')
                 (A') (A') (A") (A') (A') (A') (A") (A') (A') (A")
                 (A') (A') (A') (A') (A') (A') (A') (A") (A') (A')
                 (A") (A') (A') (A") (A') (A') (A") (A") (A') (A")
                 (A") (A') (A') (A") (A') (A') (A') (A') (A") (A')
                 (A") (A') (A') (A") (A') (A") (A') (A') (A") (A')
                 (A") (A") (A') (A') (A") (A') (A') (A") (A') (A')
                 (A") (A") (A') (A') (A") (A') (A") (A') (A') (A")
                 (A') (A") (A') (A") (A') (A') (A') (A') (A") (A')
                 (A') (A') (A') (A') (A") (A') (A") (A') (A') (A")
                 (A') (A") (A') (A") (A') (A") (A') (A') (A') (A')
                 (A") (A') (A") (A') (A') (A') (A') (A') (A") (A')
                 (A") (A') (A") (A") (A') (A") (A') (A') (A") (A')
                 (A") (A") (A') (A") (A') (A') (A") (A') (A') (A')
                 (A') (A') (A') (A') (A') (A') (A') (A')
 Beta  Orbitals:
       Occupied  (A') (A') (A') (A') (A') (A') (A') (A') (A') (A')
                 (A') (A') (A") (A')
       Virtual   (A') (A") (A') (A") (A") (A") (A') (A') (A') (A')
                 (A') (A") (A') (A') (A') (A') (A") (A") (A') (A')
                 (A') (A") (A') (A') (A') (A") (A') (A') (A") (A')
                 (A') (A') (A') (A') (A') (A") (A') (A') (A') (A")
                 (A') (A") (A') (A') (A') (A') (A") (A') (A') (A")
                 (A") (A') (A") (A') (A") (A') (A") (A') (A') (A')
                 (A') (A') (A') (A') (A') (A") (A') (A") (A') (A")
                 (A") (A") (A') (A') (A') (A") (A') (A') (A') (A')
                 (A") (A') (A") (A') (A') (A') (A') (A') (A') (A')
                 (A') (A") (A') (A') (A") (A') (A") (A') (A') (A")
                 (A") (A') (A") (A") (A') (A') (A") (A') (A') (A')
                 (A') (A') (A") (A') (A") (A') (A") (A') (A") (A')
                 (A') (A') (A") (A") (A') (A') (A") (A') (A') (A")
                 (A') (A") (A") (A') (A') (A") (A') (A") (A') (A")
                 (A') (A') (A") (A') (A") (A') (A") (A') (A') (A')
                 (A') (A") (A') (A') (A') (A') (A') (A") (A') (A")
                 (A') (A') (A") (A') (A") (A') (A") (A') (A") (A')
                 (A') (A') (A') (A") (A') (A") (A') (A') (A') (A')
                 (A') (A") (A') (A") (A') (A") (A") (A') (A") (A')
                 (A') (A") (A') (A") (A") (A') (A") (A') (A') (A")
                 (A') (A') (A') (A') (A') (A') (A') (A') (A') (A')
                 (A')
 The electronic state is 4-A'.
 Alpha  occ. eigenvalues --  -10.85589 -10.77318 -10.76539 -10.73153 -10.67625
 Alpha  occ. eigenvalues --   -1.44074  -1.29252  -1.22358  -1.03581  -0.98746
 Alpha  occ. eigenvalues --   -0.94065  -0.92416  -0.90965  -0.89009  -0.82945
 Alpha  occ. eigenvalues --   -0.81010  -0.70227
 Alpha virt. eigenvalues --   -0.63886  -0.47019  -0.45705  -0.34145  -0.32363
 Alpha virt. eigenvalues --   -0.29235  -0.27899  -0.27719  -0.25734  -0.25599
 Alpha virt. eigenvalues --   -0.23702  -0.23279  -0.20465  -0.20436  -0.20335
 Alpha virt. eigenvalues --   -0.19798  -0.17599  -0.17365  -0.15392  -0.14680
 Alpha virt. eigenvalues --   -0.14017  -0.13897  -0.13647  -0.10908  -0.09976
 Alpha virt. eigenvalues --   -0.09904  -0.09488  -0.08299  -0.07068  -0.05410
 Alpha virt. eigenvalues --   -0.04954  -0.04473  -0.02023  -0.00046   0.01578
 Alpha virt. eigenvalues --    0.02611   0.03378   0.04433   0.05056   0.05873
 Alpha virt. eigenvalues --    0.06951   0.08326   0.08440   0.08636   0.09322
 Alpha virt. eigenvalues --    0.12461   0.12480   0.12888   0.14503   0.15048
 Alpha virt. eigenvalues --    0.16785   0.17321   0.18295   0.19764   0.21389
 Alpha virt. eigenvalues --    0.22824   0.23631   0.24853   0.26083   0.30993
 Alpha virt. eigenvalues --    0.33338   0.34156   0.34331   0.39244   0.39271
 Alpha virt. eigenvalues --    0.43574   0.43849   0.44077   0.45985   0.48818
 Alpha virt. eigenvalues --    0.50927   0.55324   0.58923   0.62204   0.63831
 Alpha virt. eigenvalues --    0.66970   0.68279   0.68341   0.71681   0.74048
 Alpha virt. eigenvalues --    0.76842   0.79914   0.82135   0.83924   0.89961
 Alpha virt. eigenvalues --    0.93621   0.94437   0.96405   0.96873   0.98223
 Alpha virt. eigenvalues --    1.02310   1.02960   1.07588   1.10386   1.10447
 Alpha virt. eigenvalues --    1.12732   1.13457   1.15261   1.18529   1.21692
 Alpha virt. eigenvalues --    1.23631   1.32443   1.36313   1.45482   1.46517
 Alpha virt. eigenvalues --    1.54044   1.55535   1.63554   1.72049   1.72581
 Alpha virt. eigenvalues --    1.74767   1.76942   1.91240   1.97845   2.02535
 Alpha virt. eigenvalues --    2.07930   2.11571   2.15109   2.16122   2.18261
 Alpha virt. eigenvalues --    2.20772   2.25413   2.25914   2.29067   2.30912
 Alpha virt. eigenvalues --    2.31044   2.32522   2.35608   2.38046   2.39818
 Alpha virt. eigenvalues --    2.40069   2.43942   2.44037   2.51291   2.52393
 Alpha virt. eigenvalues --    2.53986   2.59767   2.62906   2.68354   2.69851
 Alpha virt. eigenvalues --    2.71148   2.74675   2.78392   2.80183   2.82348
 Alpha virt. eigenvalues --    2.91355   2.95180   3.00622   3.10481   3.11786
 Alpha virt. eigenvalues --    3.16775   3.18838   3.34532   3.41364   3.42821
 Alpha virt. eigenvalues --    3.48896   3.51224   3.55349   3.67458   3.74200
 Alpha virt. eigenvalues --    3.76852   3.80524   3.85309   3.92214   3.92702
 Alpha virt. eigenvalues --    4.02297   4.05876   4.14051   4.45142   4.51212
 Alpha virt. eigenvalues --    4.67902   4.71800   4.77403   5.01606   5.13817
 Alpha virt. eigenvalues --    5.66318   5.81764   6.09123   6.34311   6.37947
 Alpha virt. eigenvalues --    6.48124   6.53244   6.56115   6.58667   6.59432
 Alpha virt. eigenvalues --    6.62532   6.69275   6.70130   6.72093   6.78476
 Alpha virt. eigenvalues --    6.81727   6.83930   6.89951   7.05322   7.11715
 Alpha virt. eigenvalues --    7.15103   7.17594   7.44177   7.46118   7.55131
 Alpha virt. eigenvalues --    7.91648   7.99248   8.22886  23.39653  24.21619
 Alpha virt. eigenvalues --   24.80128  25.09234  25.33638
  Beta  occ. eigenvalues --  -10.81984 -10.77053 -10.76313 -10.72552 -10.66589
  Beta  occ. eigenvalues --   -1.42998  -1.23623  -1.19200  -1.02885  -0.96828
  Beta  occ. eigenvalues --   -0.91675  -0.88530  -0.87542  -0.82183
  Beta virt. eigenvalues --   -0.68058  -0.65919  -0.58959  -0.56602  -0.40724
  Beta virt. eigenvalues --   -0.39411  -0.33536  -0.31724  -0.28297  -0.27268
  Beta virt. eigenvalues --   -0.27089  -0.24805  -0.24775  -0.22922  -0.21880
  Beta virt. eigenvalues --   -0.19613  -0.19583  -0.19465  -0.19058  -0.17136
  Beta virt. eigenvalues --   -0.16332  -0.14035  -0.13988  -0.13499  -0.13309
  Beta virt. eigenvalues --   -0.13191  -0.10644  -0.09728  -0.09181  -0.08992
  Beta virt. eigenvalues --   -0.08035  -0.06841  -0.05130  -0.04654  -0.03605
  Beta virt. eigenvalues --   -0.00560   0.00608   0.02172   0.03364   0.04546
  Beta virt. eigenvalues --    0.04929   0.06357   0.06996   0.07624   0.09177
  Beta virt. eigenvalues --    0.10152   0.10629   0.10673   0.13903   0.13906
  Beta virt. eigenvalues --    0.15579   0.16183   0.16705   0.17710   0.17823
  Beta virt. eigenvalues --    0.20543   0.21121   0.22021   0.23304   0.24429
  Beta virt. eigenvalues --    0.25218   0.26754   0.31474   0.34726   0.34930
  Beta virt. eigenvalues --    0.35075   0.40286   0.40865   0.44445   0.44691
  Beta virt. eigenvalues --    0.45540   0.47897   0.49480   0.51712   0.56233
  Beta virt. eigenvalues --    0.59508   0.62819   0.65160   0.67491   0.68855
  Beta virt. eigenvalues --    0.68993   0.72904   0.74502   0.77898   0.81117
  Beta virt. eigenvalues --    0.84345   0.85683   0.91182   0.94662   0.96108
  Beta virt. eigenvalues --    0.97989   0.98911   0.99201   1.03278   1.05223
  Beta virt. eigenvalues --    1.08589   1.14392   1.15111   1.15709   1.17591
  Beta virt. eigenvalues --    1.19409   1.20079   1.25529   1.27796   1.35118
  Beta virt. eigenvalues --    1.38031   1.47859   1.48747   1.58052   1.61707
  Beta virt. eigenvalues --    1.66792   1.73533   1.76050   1.79336   1.79496
  Beta virt. eigenvalues --    1.92635   1.99229   2.04823   2.11613   2.13145
  Beta virt. eigenvalues --    2.16435   2.20559   2.21375   2.25033   2.29026
  Beta virt. eigenvalues --    2.30617   2.30755   2.32719   2.34533   2.36244
  Beta virt. eigenvalues --    2.39887   2.39991   2.43490   2.43703   2.45899
  Beta virt. eigenvalues --    2.46732   2.53819   2.56156   2.56381   2.63316
  Beta virt. eigenvalues --    2.65143   2.70954   2.73734   2.75327   2.77815
  Beta virt. eigenvalues --    2.80145   2.82992   2.85301   2.92316   2.96676
  Beta virt. eigenvalues --    3.02676   3.12459   3.14998   3.18494   3.19430
  Beta virt. eigenvalues --    3.35890   3.43078   3.45906   3.54354   3.55041
  Beta virt. eigenvalues --    3.56023   3.68267   3.74945   3.76560   3.81809
  Beta virt. eigenvalues --    3.85443   3.92937   3.94200   4.03613   4.06907
  Beta virt. eigenvalues --    4.14104   4.45889   4.51948   4.71345   4.72679
  Beta virt. eigenvalues --    4.80343   5.02527   5.14066   5.67083   5.82628
  Beta virt. eigenvalues --    6.10258   6.41755   6.46029   6.51082   6.55467
  Beta virt. eigenvalues --    6.59115   6.63505   6.63612   6.70124   6.73139
  Beta virt. eigenvalues --    6.77170   6.77481   6.79687   6.84042   6.87624
  Beta virt. eigenvalues --    6.92265   7.08194   7.15376   7.17682   7.20173
  Beta virt. eigenvalues --    7.45476   7.47559   7.55776   7.93920   7.99945
  Beta virt. eigenvalues --    8.23628  23.41279  24.23225  24.81106  25.09873
  Beta virt. eigenvalues --   25.35763
          Condensed to atoms (all electrons):
               1          2          3          4          5          6
     1  C    8.471657   0.450886   0.392915  -0.115528  -0.867535   0.011797
     2  H    0.450886   0.346200   0.001798  -0.109687   0.010640   0.000193
     3  H    0.392915   0.001798   0.352391  -0.069542   0.019289   0.000222
     4  C   -0.115528  -0.109687  -0.069542   8.457103  -0.757248  -0.013485
     5  C   -0.867535   0.010640   0.019289  -0.757248   7.754409   0.190421
     6  H    0.011797   0.000193   0.000222  -0.013485   0.190421   0.326096
     7  C   -0.755464   0.004858   0.012817   0.021314   0.267930   0.071559
     8  C   -1.359597   0.011961   0.000504  -1.607753  -0.838430   0.023509
               7          8
     1  C   -0.755464  -1.359597
     2  H    0.004858   0.011961
     3  H    0.012817   0.000504
     4  C    0.021314  -1.607753
     5  C    0.267930  -0.838430
     6  H    0.071559   0.023509
     7  C    8.050629  -2.160400
     8  C   -2.160400  11.565628
          Atomic-Atomic Spin Densities.
               1          2          3          4          5          6
     1  C    0.570538   0.007281   0.008595  -0.028336   0.000970   0.003757
     2  H    0.007281  -0.022319   0.002713  -0.004390  -0.002913  -0.000066
     3  H    0.008595   0.002713  -0.029468   0.000805  -0.004604  -0.000027
     4  C   -0.028336  -0.004390   0.000805   0.123389   0.090902   0.013451
     5  C    0.000970  -0.002913  -0.004604   0.090902   0.433200  -0.018746
     6  H    0.003757  -0.000066  -0.000027   0.013451  -0.018746  -0.027995
     7  C    0.020464  -0.001705  -0.003283  -0.074168  -0.048299   0.001200
     8  C    0.057395   0.002625  -0.001547   0.135997  -0.031880   0.002826
               7          8
     1  C    0.020464   0.057395
     2  H   -0.001705   0.002625
     3  H   -0.003283  -0.001547
     4  C   -0.074168   0.135997
     5  C   -0.048299  -0.031880
     6  H    0.001200   0.002826
     7  C    0.961862  -0.808905
     8  C   -0.808905   2.350568
 Mulliken charges and spin densities:
               1          2
     1  C   -0.229131   0.640664
     2  H    0.283151  -0.018774
     3  H    0.289606  -0.026817
     4  C    0.194825   0.257651
     5  C    0.220524   0.418630
     6  H    0.389688  -0.025600
     7  C    0.486759   0.047166
     8  C    0.364579   1.707079
 Sum of Mulliken charges =   2.00000   3.00000
 Mulliken charges and spin densities with hydrogens summed into heavy atoms:
               1          2
     1  C    0.343626   0.595073
     4  C    0.194825   0.257651
     5  C    0.610211   0.393030
     7  C    0.486759   0.047166
     8  C    0.364579   1.707079
 APT charges:
               1
     1  C   -0.130162
     2  H    0.235523
     3  H    0.263831
     4  C    0.927763
     5  C   -0.091844
     6  H    0.365186
     7  C   -0.310776
     8  C    0.740480
 Sum of APT charges =   2.00000
 APT charges with hydrogens summed into heavy atoms:
               1
     1  C    0.369191
     4  C    0.927763
     5  C    0.273342
     7  C   -0.310776
     8  C    0.740480
 Electronic spatial extent (au):  <R**2>=            314.9885
 Charge=              2.0000 electrons
 Dipole moment (field-independent basis, Debye):
    X=             -0.3357    Y=             -1.3227    Z=             -0.0000  Tot=              1.3646
 Quadrupole moment (field-independent basis, Debye-Ang):
   XX=             -8.2942   YY=              1.8806   ZZ=            -24.6118
   XY=             -2.4852   XZ=             -0.0000   YZ=              0.0000
 Traceless Quadrupole moment (field-independent basis, Debye-Ang):
   XX=              2.0476   YY=             12.2224   ZZ=            -14.2700
   XY=             -2.4852   XZ=             -0.0000   YZ=              0.0000
 Octapole moment (field-independent basis, Debye-Ang**2):
  XXX=              8.7335  YYY=             -8.8741  ZZZ=             -0.0000  XYY=            -16.1450
  XXY=              8.7278  XXZ=              0.0000  XZZ=              0.0866  YZZ=              0.0351
  YYZ=              0.0000  XYZ=             -0.0000
 Hexadecapole moment (field-independent basis, Debye-Ang**3):
 XXXX=            -54.0317 YYYY=           -109.2425 ZZZZ=            -22.9363 XXXY=             13.3557
 XXXZ=              0.0000 YYYX=             11.8323 YYYZ=              0.0000 ZZZX=              0.0000
 ZZZY=             -0.0000 XXYY=            -47.1549 XXZZ=            -26.5865 YYZZ=            -45.5115
 XXYZ=             -0.0000 YYXZ=              0.0000 ZZXY=              7.6928
 N-N= 1.240052500301D+02 E-N=-6.758702956450D+02  KE= 1.903534757151D+02
 Symmetry A'   KE= 1.853625752075D+02
 Symmetry A"   KE= 4.990900507594D+00
  Exact polarizability:  46.507  -5.373  70.017   0.000  -0.000  23.788
 Approx polarizability:  76.008   2.958 145.893  -0.000   0.000  34.333
                          Isotropic Fermi Contact Couplings
        Atom                 a.u.       MegaHertz       Gauss      10(-4) cm-1
     1  C(13)              0.04033      15.11218       5.39240       5.04088
     2  H(1)              -0.01078     -16.06102      -5.73097      -5.35738
     3  H(1)              -0.01513     -22.54948      -8.04621      -7.52170
     4  C(13)             -0.01953      -7.32003      -2.61197      -2.44170
     5  C(13)              0.02608       9.77234       3.48701       3.25970
     6  H(1)              -0.01483     -22.09181      -7.88291      -7.36903
     7  C(13)              0.11481      43.02213      15.35136      14.35064
     8  C(13)              1.23047     461.09468     164.53004     153.80463
 --------------------------------------------------------
       Center         ----  Spin Dipole Couplings  ----
                      3XX-RR        3YY-RR        3ZZ-RR
 --------------------------------------------------------
     1   Atom       -0.424332     -0.452302      0.876633
     2   Atom        0.051053     -0.039279     -0.011774
     3   Atom       -0.050006      0.059866     -0.009860
     4   Atom       -0.129713     -0.220429      0.350142
     5   Atom       -0.278142     -0.207729      0.485871
     6   Atom        0.036964     -0.025819     -0.011145
     7   Atom       -0.192771      0.204172     -0.011401
     8   Atom       -0.521034     -0.133181      0.654215
 --------------------------------------------------------
                        XY            XZ            YZ
 --------------------------------------------------------
     1   Atom       -0.005241      0.000000     -0.000000
     2   Atom        0.017726      0.000000      0.000000
     3   Atom        0.010111     -0.000000     -0.000000
     4   Atom       -0.066433      0.000000     -0.000000
     5   Atom       -0.019478      0.000000      0.000000
     6   Atom        0.012449      0.000000      0.000000
     7   Atom        0.223551     -0.000000      0.000000
     8   Atom        0.515865      0.000000      0.000000
 --------------------------------------------------------


 ---------------------------------------------------------------------------------
              Anisotropic Spin Dipole Couplings in Principal Axis System
 ---------------------------------------------------------------------------------

       Atom             a.u.   MegaHertz   Gauss  10(-4) cm-1        Axes

              Baa    -0.4533   -60.822   -21.703   -20.288  0.1783  0.9840 -0.0000
     1 C(13)  Bbb    -0.4234   -56.814   -20.273   -18.951  0.9840 -0.1783  0.0000
              Bcc     0.8766   117.636    41.975    39.239  0.0000  0.0000  1.0000
 
              Baa    -0.0426   -22.747    -8.117    -7.588 -0.1859  0.9826 -0.0000
     2 H(1)   Bbb    -0.0118    -6.282    -2.242    -2.095  0.0000  0.0000  1.0000
              Bcc     0.0544    29.029    10.358     9.683  0.9826  0.1859 -0.0000
 
              Baa    -0.0509   -27.173    -9.696    -9.064  0.9959 -0.0909 -0.0000
     3 H(1)   Bbb    -0.0099    -5.261    -1.877    -1.755  0.0000  0.0000  1.0000
              Bcc     0.0608    32.434    11.573    10.819  0.0909  0.9959 -0.0000
 
              Baa    -0.2555   -34.287   -12.235   -11.437  0.4670  0.8843  0.0000
     4 C(13)  Bbb    -0.0946   -12.698    -4.531    -4.236  0.8843 -0.4670 -0.0000
              Bcc     0.3501    46.986    16.766    15.673  0.0000  0.0000  1.0000
 
              Baa    -0.2832   -37.999   -13.559   -12.675  0.9682  0.2500 -0.0000
     5 C(13)  Bbb    -0.2027   -27.200    -9.706    -9.073 -0.2500  0.9682 -0.0000
              Bcc     0.4859    65.199    23.265    21.748  0.0000  0.0000  1.0000
 
              Baa    -0.0282   -15.045    -5.368    -5.018 -0.1877  0.9822  0.0000
     6 H(1)   Bbb    -0.0111    -5.947    -2.122    -1.984  0.0000  0.0000  1.0000
              Bcc     0.0393    20.991     7.490     7.002  0.9822  0.1877 -0.0000
 
              Baa    -0.2932   -39.350   -14.041   -13.126  0.9121 -0.4099 -0.0000
     7 C(13)  Bbb    -0.0114    -1.530    -0.546    -0.510  0.0000  0.0000  1.0000
              Bcc     0.3046    40.880    14.587    13.636  0.4099  0.9121  0.0000
 
              Baa    -0.8782  -117.849   -42.051   -39.310  0.8222 -0.5693  0.0000
     8 C(13)  Bbb     0.2240    30.059    10.726    10.027  0.5693  0.8222  0.0000
              Bcc     0.6542    87.789    31.325    29.283  0.0000  0.0000  1.0000
 

 ---------------------------------------------------------------------------------

 No NMR shielding tensors so no spin-rotation constants.
 Leave Link  601 at Mon Jun 20 11:01:34 2016, MaxMem=    33554432 cpu:         2.1
 (Enter /home/proyectos/fulerenos/M3C-v1.9/M3C-deps_CCC/g09-AM64L-G09RevC.01/l701.exe)
 Compute integral second derivatives.
 ... and contract with generalized density number  0.
 Leave Link  701 at Mon Jun 20 11:01:35 2016, MaxMem=    33554432 cpu:         1.6
 (Enter /home/proyectos/fulerenos/M3C-v1.9/M3C-deps_CCC/g09-AM64L-G09RevC.01/l702.exe)
 L702 exits ... SP integral derivatives will be done elsewhere.
 Leave Link  702 at Mon Jun 20 11:01:35 2016, MaxMem=    33554432 cpu:         0.1
 (Enter /home/proyectos/fulerenos/M3C-v1.9/M3C-deps_CCC/g09-AM64L-G09RevC.01/l703.exe)
 Compute integral second derivatives, UseDBF=F ICtDFT=           0.
 Integral derivatives from FoFJK, PRISM(SPDF).
 Calling FoFJK, ICntrl=    100127 FMM=F ISym2X=1 I1Cent= 0 IOpClX= 1 NMat=1 NMatS=1 NMatT=0.
 FoFJK:  IHMeth= 1 ICntrl=  100127 DoSepK=F KAlg= 0 I1Cent=   0 FoldK=F
 IRaf=         0 NMat=   1 IRICut=       1 DoRegI=T DoRafI=F ISym2E= 1.
 FoFCou: FMM=F IPFlag=           0 FMFlag=      100000 FMFlg1=         800
         NFxFlg=           0 DoJE=F BraDBF=F KetDBF=F FulRan=T
         wScrn=  0.000000 ICntrl=  100127 IOpCl=  1 I1Cent=           0 NGrid=           0
         NMat0=    1 NMatS0=      1 NMatT0=    0 NMatD0=    1 NMtDS0=    0 NMtDT0=    0
 Petite list used in FoFCou.
 Leave Link  703 at Mon Jun 20 11:03:22 2016, MaxMem=    33554432 cpu:       431.1
 (Enter /home/proyectos/fulerenos/M3C-v1.9/M3C-deps_CCC/g09-AM64L-G09RevC.01/l716.exe)
 Dipole        =-1.32080494D-01-5.20386763D-01-3.78061023D-33
 Polarizability= 4.65066092D+01-5.37302356D+00 7.00165017D+01
                 2.00454218D-07-2.01154950D-06 2.37881794D+01
 Full mass-weighted force constant matrix:
 Low frequencies ----1402.0451   -0.0004   -0.0002    0.0008    3.2549    4.4337
 Low frequencies ---   10.1582  193.4795  332.5838
 ******    1 imaginary frequencies (negative Signs) ****** 
 Diagonal vibrational polarizability:
       10.4549611      27.0854849       9.4064623
 Harmonic frequencies (cm**-1), IR intensities (KM/Mole), Raman scattering
 activities (A**4/AMU), depolarization ratios for plane and unpolarized
 incident light, reduced masses (AMU), force constants (mDyne/A),
 and normal coordinates:
                      1                      2                      3
                     A"                     A'                     A"
 Frequencies --  -1402.0451               193.4793               332.5824
 Red. masses --      1.1118                 5.7559                 2.0193
 Frc consts  --      1.2877                 0.1269                 0.1316
 IR Inten    --     31.5671                14.7983                26.4613
  Atom  AN      X      Y      Z        X      Y      Z        X      Y      Z
     1   6     0.00   0.00  -0.01     0.10   0.28  -0.00     0.00   0.00  -0.06
     2   1     0.00   0.00  -0.42     0.02   0.56   0.00    -0.00   0.00   0.38
     3   1     0.00   0.00   0.64     0.41   0.21  -0.00     0.00  -0.00  -0.58
     4   6    -0.00  -0.00  -0.06    -0.11  -0.00   0.00    -0.00  -0.00   0.08
     5   6    -0.00   0.00   0.05    -0.14  -0.05   0.00     0.00   0.00  -0.02
     6   1    -0.00  -0.00  -0.64    -0.13  -0.18  -0.00    -0.00   0.00  -0.65
     7   6     0.00   0.00   0.06    -0.25   0.04   0.00     0.00  -0.00   0.23
     8   6     0.00   0.00  -0.01     0.37  -0.32  -0.00    -0.00   0.00  -0.17
                      4                      5                      6
                     A'                     A"                     A'
 Frequencies --    392.2511               409.2457               529.9048
 Red. masses --      2.8271                 3.8330                 8.1886
 Frc consts  --      0.2563                 0.3782                 1.3547
 IR Inten    --     12.3219                 1.0654               170.8643
  Atom  AN      X      Y      Z        X      Y      Z        X      Y      Z
     1   6     0.05   0.10   0.00     0.00   0.00  -0.13    -0.10   0.17   0.00
     2   1    -0.09   0.55   0.00    -0.00   0.00  -0.86    -0.03  -0.10  -0.00
     3   1     0.51   0.00   0.00     0.00   0.00   0.08    -0.43   0.28   0.00
     4   6    -0.18  -0.17  -0.00    -0.00  -0.00   0.44     0.15   0.51  -0.00
     5   6    -0.06   0.11   0.00    -0.00   0.00  -0.20    -0.21  -0.09  -0.00
     6   1    -0.09   0.52   0.00    -0.00   0.00  -0.07    -0.23   0.14   0.00
     7   6     0.23  -0.13  -0.00     0.00  -0.00  -0.07     0.25  -0.43   0.00
     8   6    -0.07   0.01   0.00    -0.00  -0.00   0.02    -0.04  -0.18  -0.00
                      7                      8                      9
                     A"                     A"                     A'
 Frequencies --    545.4919               844.1382               855.1104
 Red. masses --      2.3873                 1.3455                 3.5349
 Frc consts  --      0.4185                 0.5649                 1.5229
 IR Inten    --      8.6195                41.9859                 8.0535
  Atom  AN      X      Y      Z        X      Y      Z        X      Y      Z
     1   6     0.00  -0.00   0.03    -0.00   0.00  -0.16     0.24  -0.16  -0.00
     2   1     0.00   0.00  -0.30    -0.00   0.00   0.75     0.31  -0.32   0.00
     3   1     0.00  -0.00   0.40    -0.00   0.00   0.63     0.10  -0.14   0.00
     4   6    -0.00  -0.00  -0.08    -0.00  -0.00   0.06     0.08   0.06   0.00
     5   6     0.00   0.00  -0.20     0.00  -0.00  -0.01    -0.11   0.27   0.00
     6   1     0.00  -0.00   0.79     0.00  -0.00   0.10    -0.15   0.72  -0.00
     7   6    -0.00   0.00   0.26     0.00   0.00  -0.01    -0.15  -0.04  -0.00
     8   6     0.00   0.00  -0.09     0.00   0.00   0.00    -0.08  -0.14  -0.00
                     10                     11                     12
                     A'                     A'                     A'
 Frequencies --    938.1635               998.8057              1047.0952
 Red. masses --      1.4651                 1.8047                 3.5358
 Frc consts  --      0.7598                 1.0607                 2.2841
 IR Inten    --      5.9993                92.7805                17.6437
  Atom  AN      X      Y      Z        X      Y      Z        X      Y      Z
     1   6     0.01   0.12   0.00    -0.02  -0.10  -0.00    -0.21   0.02  -0.00
     2   1     0.16  -0.37  -0.00    -0.16   0.33  -0.00    -0.39   0.57  -0.00
     3   1    -0.54   0.24  -0.00     0.38  -0.19   0.00     0.32  -0.10   0.00
     4   6    -0.03  -0.07  -0.00     0.03   0.08  -0.00     0.12   0.04  -0.00
     5   6     0.08  -0.09   0.00    -0.05  -0.20   0.00     0.29   0.11   0.00
     6   1     0.03   0.66   0.00    -0.13   0.77  -0.00     0.32   0.28  -0.00
     7   6     0.00   0.05  -0.00    -0.02   0.07   0.00    -0.08  -0.01   0.00
     8   6    -0.03  -0.06   0.00     0.05   0.07  -0.00    -0.13  -0.23  -0.00
                     13                     14                     15
                     A'                     A'                     A'
 Frequencies --   1388.0003              1439.3892              1742.9580
 Red. masses --      1.1874                 5.9243                 7.9130
 Frc consts  --      1.3478                 7.2318                14.1634
 IR Inten    --     56.5241                26.7666               183.6455
  Atom  AN      X      Y      Z        X      Y      Z        X      Y      Z
     1   6     0.09  -0.08  -0.00     0.09  -0.10  -0.00    -0.15   0.09   0.00
     2   1    -0.16   0.69  -0.00     0.18  -0.36  -0.00    -0.18   0.13   0.00
     3   1    -0.68   0.10   0.00     0.44  -0.18   0.00    -0.02   0.05  -0.00
     4   6    -0.02   0.01  -0.00    -0.26   0.21  -0.00     0.48  -0.27   0.00
     5   6    -0.01   0.00   0.00     0.01  -0.09   0.00    -0.37   0.03  -0.00
     6   1    -0.00  -0.06  -0.00     0.03  -0.41  -0.00    -0.55  -0.12   0.00
     7   6     0.02   0.03   0.00     0.27   0.35   0.00     0.19   0.29  -0.00
     8   6    -0.01  -0.02  -0.00    -0.16  -0.30   0.00    -0.09  -0.15   0.00
                     16                     17                     18
                     A'                     A'                     A'
 Frequencies --   3035.2551              3103.4830              3180.9645
 Red. masses --      1.0539                 1.1181                 1.1172
 Frc consts  --      5.7207                 6.3452                 6.6606
 IR Inten    --    330.7953               347.6627                95.5766
  Atom  AN      X      Y      Z        X      Y      Z        X      Y      Z
     1   6     0.02  -0.06  -0.00     0.00  -0.00   0.00    -0.08  -0.06   0.00
     2   1    -0.44  -0.15  -0.00    -0.02  -0.01   0.00     0.85   0.27   0.00
     3   1     0.20   0.86   0.00     0.01   0.05  -0.00     0.09   0.43  -0.00
     4   6    -0.00  -0.00  -0.00     0.01  -0.01   0.00     0.00  -0.00   0.00
     5   6     0.01   0.00   0.00    -0.10  -0.01  -0.00     0.00  -0.00  -0.00
     6   1    -0.05  -0.01  -0.00     0.99   0.07   0.00    -0.01  -0.00   0.00
     7   6    -0.00   0.00   0.00     0.01   0.01  -0.00     0.00   0.00  -0.00
     8   6    -0.00  -0.00  -0.00    -0.00  -0.00   0.00    -0.00  -0.00   0.00

 -------------------
 - Thermochemistry -
 -------------------
 Temperature   298.150 Kelvin.  Pressure   1.00000 Atm.
 Atom     1 has atomic number  6 and mass  12.00000
 Atom     2 has atomic number  1 and mass   1.00783
 Atom     3 has atomic number  1 and mass   1.00783
 Atom     4 has atomic number  6 and mass  12.00000
 Atom     5 has atomic number  6 and mass  12.00000
 Atom     6 has atomic number  1 and mass   1.00783
 Atom     7 has atomic number  6 and mass  12.00000
 Atom     8 has atomic number  6 and mass  12.00000
 Molecular mass:    63.02348 amu.
 Principal axes and moments of inertia in atomic units:
                           1         2         3
     Eigenvalues --   145.40961 371.13327 516.54289
           X           -0.27257   0.96214   0.00000
           Y            0.96214   0.27257   0.00000
           Z            0.00000   0.00000   1.00000
 This molecule is an asymmetric top.
 Rotational symmetry number  1.
 Rotational temperatures (Kelvin)      0.59565     0.23338     0.16768
 Rotational constants (GHZ):          12.41143     4.86278     3.49388
    1 imaginary frequencies ignored.
 Zero-point vibrational energy     125466.2 (Joules/Mol)
                                   29.98715 (Kcal/Mol)
 Warning -- explicit consideration of   6 degrees of freedom as
           vibrations may cause significant error
 Vibrational temperatures:    278.37   478.51   564.36   588.81   762.41
          (Kelvin)            784.84  1214.53  1230.31  1349.81  1437.06
                             1506.53  1997.02  2070.96  2507.72  4367.05
                             4465.21  4576.69
 
 Zero-point correction=                           0.047788 (Hartree/Particle)
 Thermal correction to Energy=                    0.052846
 Thermal correction to Enthalpy=                  0.053790
 Thermal correction to Gibbs Free Energy=         0.019054
 Sum of electronic and zero-point Energies=           -191.136868
 Sum of electronic and thermal Energies=              -191.131810
 Sum of electronic and thermal Enthalpies=            -191.130866
 Sum of electronic and thermal Free Energies=         -191.165602
 
                     E (Thermal)             CV                S
                      KCal/Mol        Cal/Mol-Kelvin    Cal/Mol-Kelvin
 Total                   33.161             17.228             73.108
 Electronic               0.000              0.000              2.755
 Translational            0.889              2.981             38.342
 Rotational               0.889              2.981             24.837
 Vibrational             31.384             11.266              7.174
 Vibration     1          0.635              1.849              2.194
 Vibration     2          0.715              1.610              1.248
 Vibration     3          0.760              1.487              0.992
 Vibration     4          0.774              1.450              0.929
 Vibration     5          0.885              1.184              0.587
 Vibration     6          0.901              1.150              0.554
                       Q            Log10(Q)             Ln(Q)
 Total Bot       0.172048D-08         -8.764349        -20.180660
 Total V=0       0.164573D+14         13.216360         30.431793
 Vib (Bot)       0.365949D-21        -21.436579        -49.359548
 Vib (Bot)    1  0.103311D+01          0.014146          0.032572
 Vib (Bot)    2  0.560910D+00         -0.251107         -0.578195
 Vib (Bot)    3  0.456956D+00         -0.340126         -0.783169
 Vib (Bot)    4  0.432557D+00         -0.363957         -0.838042
 Vib (Bot)    5  0.301834D+00         -0.520232         -1.197879
 Vib (Bot)    6  0.288933D+00         -0.539202         -1.241559
 Vib (V=0)       0.350050D+01          0.544130          1.252905
 Vib (V=0)    1  0.164774D+01          0.216889          0.499406
 Vib (V=0)    2  0.125141D+01          0.097400          0.224273
 Vib (V=0)    3  0.117735D+01          0.070907          0.163270
 Vib (V=0)    4  0.116114D+01          0.064884          0.149402
 Vib (V=0)    5  0.108404D+01          0.035046          0.080696
 Vib (V=0)    6  0.107748D+01          0.032409          0.074624
 Electronic      0.400000D+01          0.602060          1.386294
 Translational   0.196657D+08          7.293709         16.794385
 Rotational      0.597670D+05          4.776461         10.998208
 
                                                              b3lyp opt
                                                             IR Spectrum
 
     3   3 3                                                   1           1 1             1                                         
     1   1 0                                                   7           4 3             0 9 9  88          55    43 3     1       
     8   0 3                                                   4           3 8             4 9 3  54          43    09 3     9       
     1   3 5                                                   3           9 8             7 9 8  54          50    92 3     3       
 
     X   X X                                                   X           X X             X X X  XX          XX    XX X     X       
     X   X X                                                   X           X X               X     X           X       X             
     X   X X                                                   X             X               X                 X                     
     X   X X                                                   X                             X                 X                     
     X   X X                                                   X                             X                 X                     
         X X                                                   X                                               X                     
         X X                                                   X                                               X                     
         X X                                                   X                                               X                     
         X X                                                   X                                               X                     
         X X                                                   X                                               X                     
         X X                                                   X                                                                     
         X X                                                                                                                         
         X X                                                                                                                         
         X X                                                                                                                         
         X X                                                                                                                         
         X X                                                                                                                         
         X X                                                                                                                         
         X X                                                                                                                         
         X X                                                                                                                         
         X                                                                                                                           
 
 ***** Axes restored to original set *****
 -------------------------------------------------------------------
 Center     Atomic                   Forces (Hartrees/Bohr)
 Number     Number              X              Y              Z
 -------------------------------------------------------------------
      1        6           0.000068388    0.000110083    0.000000000
      2        1          -0.000018128   -0.000034986   -0.000000000
      3        1          -0.000071690    0.000019895    0.000000000
      4        6          -0.000103472   -0.000095446    0.000000000
      5        6           0.000108479   -0.000014935   -0.000000000
      6        1          -0.000031353   -0.000049712   -0.000000000
      7        6           0.000106526    0.000134536   -0.000000000
      8        6          -0.000058751   -0.000069434    0.000000000
 -------------------------------------------------------------------
 Cartesian Forces:  Max     0.000134536 RMS     0.000063530
 Z-matrix is all fixed cartesians, so copy forces.
 Force constants in Cartesian coordinates: 
                1             2             3             4             5 
      1  0.620285D+00
      2  0.217748D-01  0.558303D+00
      3  0.000000D+00  0.000000D+00  0.821449D-01
      4 -0.306425D+00 -0.903871D-01  0.000000D+00  0.321563D+00
      5 -0.949736D-01 -0.752633D-01  0.000000D+00  0.878805D-01  0.756550D-01
      6  0.000000D+00  0.000000D+00 -0.331207D-01  0.000000D+00  0.000000D+00
      7 -0.600659D-01 -0.657959D-01  0.000000D+00  0.145839D-02 -0.228862D-01
      8 -0.663619D-01 -0.300055D+00  0.000000D+00  0.123590D-02 -0.728255D-03
      9  0.000000D+00  0.000000D+00 -0.170507D-01  0.000000D+00  0.000000D+00
     10 -0.242740D+00  0.116228D+00  0.000000D+00 -0.204895D-01  0.280973D-01
     11  0.111530D+00 -0.142882D+00  0.000000D+00  0.723850D-02  0.452938D-03
     12  0.000000D+00  0.000000D+00 -0.514180D-01  0.000000D+00  0.000000D+00
     13 -0.102610D-01 -0.799002D-02  0.000000D+00  0.211786D-03  0.263724D-02
     14  0.262523D-01  0.751531D-03  0.000000D+00 -0.401519D-02 -0.115964D-02
     15  0.000000D+00  0.000000D+00  0.151121D-01  0.000000D+00  0.000000D+00
     16  0.892893D-03 -0.810280D-03  0.000000D+00 -0.459029D-03  0.548084D-04
     17 -0.173325D-03  0.190715D-02  0.000000D+00  0.464032D-03 -0.615745D-03
     18  0.000000D+00  0.000000D+00 -0.826057D-02  0.000000D+00  0.000000D+00
     19 -0.157085D-01  0.229762D-01  0.000000D+00  0.375239D-02 -0.977852D-03
     20 -0.180077D-01 -0.499623D-01  0.000000D+00 -0.326983D-02  0.283227D-02
     21  0.000000D+00  0.000000D+00  0.144510D-01  0.000000D+00  0.000000D+00
     22  0.140230D-01  0.400458D-02  0.000000D+00  0.388500D-03  0.167757D-03
     23  0.199590D-01  0.720129D-02  0.000000D+00  0.853162D-03 -0.117320D-02
     24  0.000000D+00  0.000000D+00 -0.185795D-02  0.000000D+00  0.000000D+00
                6             7             8             9            10 
      6  0.162908D-02
      7  0.000000D+00  0.599265D-01
      8  0.000000D+00  0.607526D-01  0.318441D+00
      9  0.266360D-01  0.000000D+00  0.000000D+00 -0.184766D-01
     10  0.000000D+00 -0.828131D-03  0.564506D-02  0.000000D+00  0.670003D+00
     11  0.000000D+00  0.231102D-01 -0.245371D-01  0.000000D+00 -0.330748D+00
     12 -0.138178D-01  0.000000D+00  0.000000D+00  0.358720D-01  0.000000D+00
     13  0.000000D+00  0.217217D-02  0.742478D-03  0.000000D+00 -0.394606D+00
     14  0.000000D+00 -0.207267D-02  0.362042D-02  0.000000D+00  0.974511D-01
     15  0.215028D-01  0.000000D+00  0.000000D+00 -0.334085D-01  0.000000D+00
     16  0.000000D+00  0.176277D-03  0.797295D-03  0.000000D+00 -0.251975D-02
     17  0.000000D+00  0.297513D-03 -0.304119D-03  0.000000D+00  0.199595D-01
     18 -0.180066D-01  0.000000D+00  0.000000D+00  0.313820D-01  0.000000D+00
     19  0.000000D+00 -0.499533D-03 -0.275195D-02  0.000000D+00  0.247186D-01
     20  0.000000D+00  0.100982D-01  0.392446D-02  0.000000D+00  0.116791D+00
     21  0.172551D-01  0.000000D+00  0.000000D+00 -0.289854D-01  0.000000D+00
     22  0.000000D+00 -0.233980D-02 -0.594236D-04  0.000000D+00 -0.335378D-01
     23  0.000000D+00 -0.350368D-02 -0.361598D-03  0.000000D+00 -0.534245D-01
     24 -0.207781D-02  0.000000D+00  0.000000D+00  0.403122D-02  0.000000D+00
               11            12            13            14            15 
     11  0.342213D+00
     12  0.000000D+00  0.320984D-01
     13  0.208046D+00  0.000000D+00  0.930300D+00
     14 -0.699373D-01  0.000000D+00  0.339695D-01  0.265108D+00
     15  0.000000D+00  0.150155D-01  0.000000D+00  0.000000D+00  0.116879D-01
     16 -0.187632D-03  0.000000D+00 -0.333169D+00 -0.237432D-01  0.000000D+00
     17 -0.265473D-02  0.000000D+00 -0.132999D-01 -0.272514D-01  0.000000D+00
     18  0.000000D+00 -0.330041D-01  0.000000D+00  0.000000D+00  0.176966D-01
     19 -0.899785D-02  0.000000D+00 -0.195159D+00 -0.776003D-01  0.000000D+00
     20 -0.553955D-01  0.000000D+00 -0.232983D+00 -0.105844D+00  0.000000D+00
     21  0.000000D+00  0.148640D-01  0.000000D+00  0.000000D+00 -0.628038D-01
     22 -0.999199D-02  0.000000D+00  0.510818D-03 -0.502415D-01  0.000000D+00
     23 -0.472588D-01  0.000000D+00  0.887793D-02 -0.652876D-01  0.000000D+00
     24  0.000000D+00  0.390138D-03  0.000000D+00  0.000000D+00  0.151974D-01
               16            17            18            19            20 
     16  0.332374D+00
     17  0.222830D-01  0.328282D-01
     18  0.000000D+00  0.000000D+00 -0.234020D-01
     19  0.240757D-02 -0.343881D-01  0.000000D+00  0.282570D+00
     20  0.274513D-02 -0.118927D-01  0.000000D+00  0.276067D+00  0.493943D+00
     21  0.000000D+00  0.000000D+00  0.381661D-01  0.000000D+00  0.000000D+00
     22  0.296665D-03  0.485728D-02  0.000000D+00 -0.102082D+00 -0.151442D+00
     23 -0.113912D-02  0.798339D-02  0.000000D+00 -0.174328D+00 -0.277605D+00
     24  0.000000D+00  0.000000D+00 -0.457139D-02  0.000000D+00  0.000000D+00
               21            22            23            24 
     21  0.319291D-01
     22  0.000000D+00  0.122741D+00
     23  0.000000D+00  0.202705D+00  0.376502D+00
     24 -0.248762D-01  0.000000D+00  0.000000D+00  0.137646D-01
 Leave Link  716 at Mon Jun 20 11:03:22 2016, MaxMem=    33554432 cpu:         0.1
 (Enter /home/proyectos/fulerenos/M3C-v1.9/M3C-deps_CCC/g09-AM64L-G09RevC.01/l103.exe)

 GradGradGradGradGradGradGradGradGradGradGradGradGradGradGradGradGradGrad
 Berny optimization.
 Search for a local minimum.
 Step number   1 out of a maximum of    2
 All quantities printed in internal units (Hartrees-Bohrs-Radians)
 Second derivative matrix not updated -- analytic derivatives used.
 ITU=  0
     Eigenvalues ---   -0.13295   0.00887   0.01149   0.01877   0.02898
     Eigenvalues ---    0.05618   0.07139   0.09710   0.12027   0.12580
     Eigenvalues ---    0.17309   0.21191   0.34185   0.52397   0.75149
     Eigenvalues ---    0.87449   0.94718   1.57256
 Eigenvalue     1 is  -1.33D-01 should be greater than     0.000000 Eigenvector:
                          Z6        Z3        Z4        Z7        Z5
   1                    0.58575  -0.54065   0.34079  -0.31701  -0.28260
                          Z2        Z8        Z1        Y4        X4
   1                    0.24077   0.07506   0.06705  -0.00000  -0.00000
 Angle between quadratic step and forces=  69.36 degrees.
 ClnCor:  largest displacement from symmetrization is 5.72D-09 for atom     3.
 Linear search not attempted -- first point.
 ClnCor:  largest displacement from symmetrization is 3.61D-15 for atom     3.
 B after Tr=     0.000042    0.000234   -0.000000
         Rot=    1.000000    0.000000   -0.000000   -0.000029 Ang=  -0.00 deg.
 Variable       Old X    -DE/DX   Delta X   Delta X   Delta X     New X
                                 (Linear)    (Quad)   (Total)
    X1        2.02531   0.00007   0.00000   0.00009   0.00030   2.02561
    Y1       -2.86648   0.00011   0.00000  -0.00006   0.00029  -2.86619
    Z1       -0.00000   0.00000   0.00000  -0.00000  -0.00000  -0.00000
    X2        3.98608  -0.00002   0.00000   0.00062   0.00079   3.98688
    Y2       -2.25309  -0.00003   0.00000  -0.00209  -0.00162  -2.25472
    Z2       -0.00000  -0.00000   0.00000  -0.00000  -0.00000  -0.00000
    X3        1.56660  -0.00007   0.00000  -0.00256  -0.00223   1.56437
    Y3       -4.88419   0.00002   0.00000   0.00048   0.00081  -4.88338
    Z3       -0.00000   0.00000   0.00000   0.00000  -0.00000  -0.00000
    X4       -0.00000  -0.00010   0.00000   0.00037   0.00048   0.00048
    Y4       -1.18199  -0.00010   0.00000  -0.00006   0.00018  -1.18181
    Z4       -0.00000   0.00000   0.00000  -0.00000   0.00000  -0.00000
    X5       -2.35765   0.00011   0.00000   0.00075   0.00080  -2.35685
    Y5       -0.19787  -0.00001   0.00000  -0.00008   0.00001  -0.19786
    Z5        0.00000  -0.00000   0.00000  -0.00000   0.00000   0.00000
    X6       -4.41942  -0.00003   0.00000   0.00076   0.00082  -4.41860
    Y6       -0.35025  -0.00005   0.00000  -0.00165  -0.00168  -0.35193
    Z6        0.00000  -0.00000   0.00000  -0.00000   0.00000   0.00000
    X7       -0.50492   0.00011   0.00000   0.00024   0.00018  -0.50473
    Y7        1.64787   0.00013   0.00000   0.00062   0.00082   1.64869
    Z7        0.00000  -0.00000   0.00000   0.00000   0.00000   0.00000
    X8        0.64838  -0.00006   0.00000  -0.00097  -0.00115   0.64723
    Y8        3.84639  -0.00007   0.00000   0.00092   0.00119   3.84758
    Z8        0.00000   0.00000   0.00000   0.00000  -0.00000   0.00000
         Item               Value     Threshold  Converged?
 Maximum Force            0.000135     0.000450     YES
 RMS     Force            0.000064     0.000300     YES
 Maximum Displacement     0.002234     0.001800     NO 
 RMS     Displacement     0.000839     0.001200     YES
 Predicted change in Energy=-2.313465D-07
 GradGradGradGradGradGradGradGradGradGradGradGradGradGradGradGradGradGrad

 Leave Link  103 at Mon Jun 20 11:03:22 2016, MaxMem=    33554432 cpu:         0.1
 (Enter /home/proyectos/fulerenos/M3C-v1.9/M3C-deps_CCC/g09-AM64L-G09RevC.01/l9999.exe)
 1\1\GINC-BELVIS4\Freq\UB3LYP\6-311++G(3df,2p)\C5H3(2+,4)\ROOT\20-Jun-2
 016\0\\#p b3lyp/6-311++G(3df,2p) freq symmetry=Loose\\b3lyp opt\\2,4\C
 ,1.071747,-1.516874,0.\H,2.109344,-1.192286,0.\H,0.829009,-2.5846,0.\C
 ,0.,-0.625482,0.\C,-1.247614,-0.10471,0.\H,-2.338656,-0.185346,0.\C,-0
 .26719,0.872017,0.\C,0.343108,2.035421,0.\\Version=EM64L-G09RevE.01\St
 ate=4-A'\HF=-191.1846559\S2=3.789765\S2-1=0.\S2A=3.750401\RMSD=6.066e-
 09\RMSF=6.353e-05\ZeroPoint=0.0477876\Thermal=0.0528459\Dipole=0.13208
 06,0.5203867,0.\DipoleDeriv=-0.1492052,0.161879,-0.0000001,0.2417215,-
 0.4206226,0.0000003,0.,0.0000004,0.1793413,0.3784955,-0.138552,0.,-0.0
 066451,0.1344971,0.,0.,0.0000006,0.1935763,0.1329305,0.087704,0.,-0.09
 23482,0.5352922,0.,0.0000001,-0.0000011,0.1232691,0.7712566,-0.6476902
 ,0.,-0.6812603,1.6676737,-0.0000008,0.,0.0000009,0.3443595,-0.1043593,
 -0.0409013,-0.0000002,0.4723036,-0.2955527,0.0000003,0.0000001,-0.0000
 012,0.1243804,0.6163146,0.0928111,0.,0.0122545,0.2004552,0.,-0.0000002
 ,0.0000013,0.2787872,-0.1907432,0.314568,0.0000002,0.0908051,-0.881424
 ,0.0000003,0.0000001,-0.0000012,0.1398394,0.5453105,0.1701813,0.000000
 1,-0.036831,1.0596812,0.,0.,0.0000002,0.6164468\Polar=46.5066076,-5.37
 30201,70.0165032,-0.0000002,0.000002,23.7881794\PG=CS [SG(C5H3)]\NImag
 =1\\0.62028511,0.02177481,0.55830286,0.00000002,-0.00000005,0.08214490
 ,-0.30642542,-0.09038712,0.,0.32156289,-0.09497358,-0.07526333,0.,0.08
 788055,0.07565496,0.00000004,-0.00000010,-0.03312073,0.,0.00000001,0.0
 0162908,-0.06006586,-0.06579593,-0.00000001,0.00145839,-0.02288617,-0.
 00000002,0.05992650,-0.06636192,-0.30005474,0.,0.00123590,-0.00072826,
 0.,0.06075257,0.31844094,-0.00000006,0.00000016,-0.01705072,0.00000002
 ,-0.00000002,0.02663600,0.00000004,0.,-0.01847656,-0.24274016,0.116227
 71,0.00000002,-0.02048950,0.02809726,0.00000005,-0.00082813,0.00564506
 ,-0.00000008,0.67000275,0.11153043,-0.14288247,0.00000015,0.00723850,0
 .00045294,0.00000029,0.02311021,-0.02453712,-0.00000048,-0.33074751,0.
 34221299,0.00000006,-0.00000015,-0.05141803,-0.00000002,0.00000002,-0.
 01381784,-0.00000004,0.,0.03587196,0.00000009,0.00000047,0.03209840,-0
 .01026099,-0.00799002,0.00000004,0.00021179,0.00263724,0.00000005,0.00
 217217,0.00074248,-0.00000009,-0.39460602,0.20804585,0.00000006,0.9302
 9975,0.02625227,0.00075153,-0.00000005,-0.00401519,-0.00115964,-0.0000
 0010,-0.00207267,0.00362042,0.00000017,0.09745109,-0.06993733,-0.00000
 017,0.03396946,0.26510769,-0.00000007,0.00000019,0.01511208,0.00000002
 ,-0.00000002,0.02150283,0.00000004,0.,-0.03340853,-0.00000011,-0.00000
 058,0.01501549,-0.00000008,0.00000020,0.01168785,0.00089289,-0.0008102
 8,0.,-0.00045903,0.00005481,0.,0.00017628,0.00079729,0.,-0.00251975,-0
 .00018763,0.,-0.33316899,-0.02374317,0.,0.33237437,-0.00017332,0.00190
 715,0.00000001,0.00046403,-0.00061574,0.00000002,0.00029751,-0.0003041
 2,-0.00000003,0.01995949,-0.00265473,0.00000003,-0.01329991,-0.0272514
 4,-0.00000004,0.02228297,0.03282820,0.00000008,-0.00000020,-0.00826057
 ,-0.00000002,0.00000002,-0.01800662,-0.00000005,0.,0.03138201,0.000000
 10,0.00000061,-0.03300414,0.00000011,-0.00000021,0.01769661,0.,0.00000
 004,-0.02340198,-0.01570854,0.02297624,-0.00000003,0.00375239,-0.00097
 785,-0.00000003,-0.00049953,-0.00275195,0.00000006,0.02471858,-0.00899
 785,-0.00000003,-0.19515853,-0.07760026,0.00000004,0.00240757,-0.03438
 805,-0.00000007,0.28256999,-0.01800768,-0.04996229,-0.00000006,-0.0032
 6983,0.00283227,-0.00000009,0.01009815,0.00392446,0.00000015,0.1167914
 0,-0.05539547,-0.00000012,-0.23298304,-0.10584368,0.00000016,0.0027451
 3,-0.01189271,-0.00000019,0.27606747,0.49394268,-0.00000007,0.00000018
 ,0.01445101,0.00000002,-0.00000002,0.01725509,0.00000004,0.,-0.0289853
 6,-0.00000008,-0.00000054,0.01486402,-0.00000011,0.00000019,-0.0628037
 5,0.,-0.00000004,0.03816608,0.00000009,0.00000019,0.03192911,0.0140229
 7,0.00400458,-0.00000003,0.00038850,0.00016776,-0.00000007,-0.00233980
 ,-0.00005942,0.00000013,-0.03353776,-0.00999199,-0.00000014,0.00051082
 ,-0.05024153,0.00000016,0.00029666,0.00485728,-0.00000016,-0.10208193,
 -0.15144161,0.00000013,0.12274054,0.01995901,0.00720129,0.,0.00085316,
 -0.00117320,-0.00000003,-0.00350368,-0.00036160,0.00000006,-0.05342449
 ,-0.04725881,-0.00000008,0.00887793,-0.06528755,0.00000009,-0.00113912
 ,0.00798339,-0.00000007,-0.17432776,-0.27760527,0.00000005,0.20270494,
 0.37650175,0.00000001,-0.00000003,-0.00185795,0.,0.,-0.00207781,0.,0.,
 0.00403122,0.,0.00000009,0.00039014,0.00000003,-0.00000003,0.01519743,
 0.,0.,-0.00457139,-0.00000003,-0.00000004,-0.02487620,-0.00000001,0.,0
 .01376456\\-0.00006839,-0.00011008,0.,0.00001813,0.00003499,0.,0.00007
 169,-0.00001989,0.,0.00010347,0.00009545,0.,-0.00010848,0.00001493,0.,
 0.00003135,0.00004971,0.,-0.00010653,-0.00013454,0.,0.00005875,0.00006
 943,0.\\\@


 YOU CAN LEAD A BOY TO COLLEGE....
 BUT YOU CANNOT MAKE HIM THINK....
           ELBERT HUBBARD
 Job cpu time:       0 days  0 hours 43 minutes 17.9 seconds.
 File lengths (MBytes):  RWF=     70 Int=      0 D2E=      0 Chk=      5 Scr=      1
 Normal termination of Gaussian 09 at Mon Jun 20 11:03:22 2016.
