 Entering Gaussian System, Link 0=/home/proyectos/fulerenos/M3C-v1.9/M3C-deps_CCC/g09-AM64L-G09RevC.01/g09
 Initial command:
 /home/proyectos/fulerenos/M3C-v1.9/M3C-deps_CCC/g09-AM64L-G09RevC.01/l1.exe "/scratch/naguirre/gaussian/Gau-8268.inp" -scrdir="/scratch/naguirre/gaussian/"
 Entering Link 1 = /home/proyectos/fulerenos/M3C-v1.9/M3C-deps_CCC/g09-AM64L-G09RevC.01/l1.exe PID=      8274.
  
 Copyright (c) 1988,1990,1992,1993,1995,1998,2003,2009,2015,
            Gaussian, Inc.  All Rights Reserved.
  
 This is part of the Gaussian(R) 09 program.  It is based on
 the Gaussian(R) 03 system (copyright 2003, Gaussian, Inc.),
 the Gaussian(R) 98 system (copyright 1998, Gaussian, Inc.),
 the Gaussian(R) 94 system (copyright 1995, Gaussian, Inc.),
 the Gaussian 92(TM) system (copyright 1992, Gaussian, Inc.),
 the Gaussian 90(TM) system (copyright 1990, Gaussian, Inc.),
 the Gaussian 88(TM) system (copyright 1988, Gaussian, Inc.),
 the Gaussian 86(TM) system (copyright 1986, Carnegie Mellon
 University), and the Gaussian 82(TM) system (copyright 1983,
 Carnegie Mellon University). Gaussian is a federally registered
 trademark of Gaussian, Inc.
  
 This software contains proprietary and confidential information,
 including trade secrets, belonging to Gaussian, Inc.
  
 This software is provided under written license and may be
 used, copied, transmitted, or stored only in accord with that
 written license.
  
 The following legend is applicable only to US Government
 contracts under FAR:
  
                    RESTRICTED RIGHTS LEGEND
  
 Use, reproduction and disclosure by the US Government is
 subject to restrictions as set forth in subparagraphs (a)
 and (c) of the Commercial Computer Software - Restricted
 Rights clause in FAR 52.227-19.
  
 Gaussian, Inc.
 340 Quinnipiac St., Bldg. 40, Wallingford CT 06492
  
  
 ---------------------------------------------------------------
 Warning -- This program may not be used in any manner that
 competes with the business of Gaussian, Inc. or will provide
 assistance to any competitor of Gaussian, Inc.  The licensee
 of this program is prohibited from giving any competitor of
 Gaussian, Inc. access to this program.  By using this program,
 the user acknowledges that Gaussian, Inc. is engaged in the
 business of creating and licensing software in the field of
 computational chemistry and represents and warrants to the
 licensee that it is not a competitor of Gaussian, Inc. and that
 it will not use this program in any manner prohibited above.
 ---------------------------------------------------------------
  

 Cite this work as:
 Gaussian 09, Revision E.01,
 M. J. Frisch, G. W. Trucks, H. B. Schlegel, G. E. Scuseria, 
 M. A. Robb, J. R. Cheeseman, G. Scalmani, V. Barone, B. Mennucci, 
 G. A. Petersson, H. Nakatsuji, M. Caricato, X. Li, H. P. Hratchian, 
 A. F. Izmaylov, J. Bloino, G. Zheng, J. L. Sonnenberg, M. Hada, 
 M. Ehara, K. Toyota, R. Fukuda, J. Hasegawa, M. Ishida, T. Nakajima, 
 Y. Honda, O. Kitao, H. Nakai, T. Vreven, J. A. Montgomery, Jr., 
 J. E. Peralta, F. Ogliaro, M. Bearpark, J. J. Heyd, E. Brothers, 
 K. N. Kudin, V. N. Staroverov, T. Keith, R. Kobayashi, J. Normand, 
 K. Raghavachari, A. Rendell, J. C. Burant, S. S. Iyengar, J. Tomasi, 
 M. Cossi, N. Rega, J. M. Millam, M. Klene, J. E. Knox, J. B. Cross, 
 V. Bakken, C. Adamo, J. Jaramillo, R. Gomperts, R. E. Stratmann, 
 O. Yazyev, A. J. Austin, R. Cammi, C. Pomelli, J. W. Ochterski, 
 R. L. Martin, K. Morokuma, V. G. Zakrzewski, G. A. Voth, 
 P. Salvador, J. J. Dannenberg, S. Dapprich, A. D. Daniels, 
 O. Farkas, J. B. Foresman, J. V. Ortiz, J. Cioslowski, 
 and D. J. Fox, Gaussian, Inc., Wallingford CT, 2013.
 
 ******************************************
 Gaussian 09:  EM64L-G09RevE.01 30-Nov-2015
                20-Jun-2016 
 ******************************************
 %NProcShared=4
 Will use up to    4 processors via shared memory.
 ---------------------------------------------
 #p b3lyp/6-311++G(3df,2p) freq symmetry=Loose
 ---------------------------------------------
 1/10=4,30=1,38=1/1,3;
 2/12=2,17=4,18=3,40=1/2;
 3/5=4,6=6,7=1216,11=2,16=1,25=1,30=1,71=2,74=-5,140=1/1,2,3;
 4//1;
 5/5=2,38=5,98=1/2;
 8/6=4,10=90,11=11/1;
 11/6=1,8=1,9=11,15=111,16=1/1,2,10;
 10/6=1/2;
 6/7=2,8=2,9=2,10=2,18=1,28=1/1;
 7/8=1,10=1,25=1/1,2,3,16;
 1/10=4,30=1/3;
 99//99;
 Leave Link    1 at Mon Jun 20 11:15:23 2016, MaxMem=           0 cpu:         0.3
 (Enter /home/proyectos/fulerenos/M3C-v1.9/M3C-deps_CCC/g09-AM64L-G09RevC.01/l101.exe)
 ---------
 b3lyp opt
 ---------
 Symbolic Z-matrix:
 Charge =  0 Multiplicity = 1
 C                    -0.19416   1.25439   0. 
 H                    -1.15874   1.7419    0. 
 C                     0.99382   1.79617   0. 
 H                     2.0234    1.48263   0. 
 C                     0.       -0.17166   0. 
 C                     0.50163  -1.35803   0. 
 C                    -0.94501  -1.49426   0. 
 H                    -1.50117  -1.6921   -0.91619 
 H                    -1.50117  -1.6921    0.91619 
 
 NAtoms=      9 NQM=        9 NQMF=       0 NMMI=      0 NMMIF=      0
                NMic=       0 NMicF=      0.
                    Isotopes and Nuclear Properties:
 (Nuclear quadrupole moments (NQMom) in fm**2, nuclear magnetic moments (NMagM)
  in nuclear magnetons)

  Atom         1           2           3           4           5           6           7           8           9
 IAtWgt=          12           1          12           1          12          12          12           1           1
 AtmWgt=  12.0000000   1.0078250  12.0000000   1.0078250  12.0000000  12.0000000  12.0000000   1.0078250   1.0078250
 NucSpn=           0           1           0           1           0           0           0           1           1
 AtZEff=   0.0000000   0.0000000   0.0000000   0.0000000   0.0000000   0.0000000   0.0000000   0.0000000   0.0000000
 NQMom=    0.0000000   0.0000000   0.0000000   0.0000000   0.0000000   0.0000000   0.0000000   0.0000000   0.0000000
 NMagM=    0.0000000   2.7928460   0.0000000   2.7928460   0.0000000   0.0000000   0.0000000   2.7928460   2.7928460
 AtZNuc=   6.0000000   1.0000000   6.0000000   1.0000000   6.0000000   6.0000000   6.0000000   1.0000000   1.0000000
 Leave Link  101 at Mon Jun 20 11:15:23 2016, MaxMem=    33554432 cpu:         0.2
 (Enter /home/proyectos/fulerenos/M3C-v1.9/M3C-deps_CCC/g09-AM64L-G09RevC.01/l103.exe)

 GradGradGradGradGradGradGradGradGradGradGradGradGradGradGradGradGradGrad
 Berny optimization.
 Initialization pass.
 Trust Radius=3.00D-01 FncErr=1.00D-07 GrdErr=1.00D-07
 Number of steps in this run=      2 maximum allowed number of steps=      2.
 GradGradGradGradGradGradGradGradGradGradGradGradGradGradGradGradGradGrad

 Leave Link  103 at Mon Jun 20 11:15:23 2016, MaxMem=    33554432 cpu:         0.1
 (Enter /home/proyectos/fulerenos/M3C-v1.9/M3C-deps_CCC/g09-AM64L-G09RevC.01/l202.exe)
                          Input orientation:                          
 ---------------------------------------------------------------------
 Center     Atomic      Atomic             Coordinates (Angstroms)
 Number     Number       Type             X           Y           Z
 ---------------------------------------------------------------------
      1          6           0       -0.194156    1.254392    0.000000
      2          1           0       -1.158740    1.741904    0.000000
      3          6           0        0.993815    1.796166    0.000000
      4          1           0        2.023400    1.482626    0.000000
      5          6           0        0.000000   -0.171656    0.000000
      6          6           0        0.501630   -1.358029    0.000000
      7          6           0       -0.945011   -1.494264    0.000000
      8          1           0       -1.501165   -1.692095   -0.916188
      9          1           0       -1.501165   -1.692095    0.916188
 ---------------------------------------------------------------------
                    Distance matrix (angstroms):
                    1          2          3          4          5
     1  C    0.000000
     2  H    1.080782   0.000000
     3  C    1.305678   2.153239   0.000000
     4  H    2.229270   3.192685   1.076268   0.000000
     5  C    1.439204   2.237049   2.204539   2.613579   0.000000
     6  C    2.703491   3.516591   3.192365   3.222593   1.288066
     7  C    2.849367   3.243218   3.819159   4.203967   1.625527
     8  H    3.351038   3.570575   4.385464   4.831233   2.324786
     9  H    3.351038   3.570575   4.385464   4.831233   2.324786
                    6          7          8          9
     6  C    0.000000
     7  C    1.453042   0.000000
     8  H    2.227597   1.089883   0.000000
     9  H    2.227597   1.089883   1.832376   0.000000
 Stoichiometry    C5H4
 Framework group  CS[SG(C5H2),X(H2)]
 Deg. of freedom    14
 Full point group                 CS      NOp   2
 Largest Abelian subgroup         CS      NOp   2
 Largest concise Abelian subgroup CS      NOp   2
                         Standard orientation:                         
 ---------------------------------------------------------------------
 Center     Atomic      Atomic             Coordinates (Angstroms)
 Number     Number       Type             X           Y           Z
 ---------------------------------------------------------------------
      1          6           0       -0.194156   -1.254392    0.000000
      2          1           0       -1.158739   -1.741905    0.000000
      3          6           0        0.993816   -1.796166    0.000000
      4          1           0        2.023401   -1.482625    0.000000
      5          6           0        0.000000    0.171656    0.000000
      6          6           0        0.501630    1.358029    0.000000
      7          6           0       -0.945011    1.494263    0.000000
      8          1           0       -1.501166    1.692094    0.916188
      9          1           0       -1.501166    1.692094   -0.916188
 ---------------------------------------------------------------------
 Rotational constants (GHZ):     19.5803416      3.8436446      3.2835800
 Leave Link  202 at Mon Jun 20 11:15:24 2016, MaxMem=    33554432 cpu:         0.0
 (Enter /home/proyectos/fulerenos/M3C-v1.9/M3C-deps_CCC/g09-AM64L-G09RevC.01/l301.exe)
 Standard basis: 6-311++G(3df,2p) (5D, 7F)
 Ernie: Thresh=  0.10000D-02 Tol=  0.10000D-05 Strict=F.
 There are   181 symmetry adapted cartesian basis functions of A'  symmetry.
 There are    84 symmetry adapted cartesian basis functions of A"  symmetry.
 There are   156 symmetry adapted basis functions of A'  symmetry.
 There are    79 symmetry adapted basis functions of A"  symmetry.
   235 basis functions,   338 primitive gaussians,   265 cartesian basis functions
    17 alpha electrons       17 beta electrons
       nuclear repulsion energy       131.5414134556 Hartrees.
 IExCor=  402 DFT=T Ex+Corr=B3LYP ExCW=0 ScaHFX=  0.200000
 ScaDFX=  0.800000  0.720000  1.000000  0.810000 ScalE2=  1.000000  1.000000
 IRadAn=      0 IRanWt=     -1 IRanGd=            0 ICorTp=0 IEmpDi=  4
 NAtoms=    9 NActive=    9 NUniq=    8 SFac= 1.27D+00 NAtFMM=   60 NAOKFM=F Big=F
 Integral buffers will be    131072 words long.
 Raffenetti 2 integral format.
 Two-electron integral symmetry is turned on.
 Leave Link  301 at Mon Jun 20 11:15:24 2016, MaxMem=    33554432 cpu:         0.2
 (Enter /home/proyectos/fulerenos/M3C-v1.9/M3C-deps_CCC/g09-AM64L-G09RevC.01/l302.exe)
 NPDir=0 NMtPBC=     1 NCelOv=     1 NCel=       1 NClECP=     1 NCelD=      1
         NCelK=      1 NCelE2=     1 NClLst=     1 CellRange=     0.0.
 One-electron integrals computed using PRISM.
 One-electron integral symmetry used in STVInt
 NBasis=   235 RedAO= T EigKep=  5.59D-06  NBF=   156    79
 NBsUse=   235 1.00D-06 EigRej= -1.00D+00 NBFU=   156    79
 Precomputing XC quadrature grid using
 IXCGrd= 4 IRadAn=           0 IRanWt=          -1 IRanGd=           0 AccXCQ= 0.00D+00.
 Generated NRdTot=       0 NPtTot=           0 NUsed=           0 NTot=          32
 NSgBfM=   265   265   265   265   265 MxSgAt=     9 MxSgA2=     9.
 Leave Link  302 at Mon Jun 20 11:15:24 2016, MaxMem=    33554432 cpu:         1.3
 (Enter /home/proyectos/fulerenos/M3C-v1.9/M3C-deps_CCC/g09-AM64L-G09RevC.01/l303.exe)
 DipDrv:  MaxL=1.
 Leave Link  303 at Mon Jun 20 11:15:24 2016, MaxMem=    33554432 cpu:         0.1
 (Enter /home/proyectos/fulerenos/M3C-v1.9/M3C-deps_CCC/g09-AM64L-G09RevC.01/l401.exe)
 ExpMin= 3.60D-02 ExpMax= 4.56D+03 ExpMxC= 6.82D+02 IAcc=3 IRadAn=         5 AccDes= 0.00D+00
 Harris functional with IExCor=  402 and IRadAn=       5 diagonalized for initial guess.
 HarFok:  IExCor=  402 AccDes= 0.00D+00 IRadAn=         5 IDoV= 1 UseB2=F ITyADJ=14
 ICtDFT=  3500011 ScaDFX=  1.000000  1.000000  1.000000  1.000000
 FoFCou: FMM=F IPFlag=           0 FMFlag=      100000 FMFlg1=           0
         NFxFlg=           0 DoJE=T BraDBF=F KetDBF=T FulRan=T
         wScrn=  0.000000 ICntrl=     500 IOpCl=  0 I1Cent=   200000004 NGrid=           0
         NMat0=    1 NMatS0=      1 NMatT0=    0 NMatD0=    1 NMtDS0=    0 NMtDT0=    0
 Petite list used in FoFCou.
 Harris En= -192.733331758830    
 JPrj=0 DoOrth=F DoCkMO=F.
 Initial guess orbital symmetries:
       Occupied  (A') (A') (A') (A') (A') (A') (A') (A') (A') (A')
                 (A') (A") (A') (A') (A") (A") (A')
       Virtual   (A') (A") (A") (A') (A') (A') (A") (A') (A') (A')
                 (A") (A') (A') (A") (A') (A') (A') (A') (A') (A")
                 (A") (A') (A") (A') (A') (A') (A") (A') (A') (A')
                 (A') (A') (A') (A') (A") (A') (A') (A") (A') (A')
                 (A') (A") (A') (A") (A") (A') (A") (A') (A') (A")
                 (A') (A') (A") (A') (A') (A") (A") (A') (A') (A')
                 (A') (A") (A") (A') (A') (A') (A') (A") (A') (A")
                 (A") (A') (A') (A") (A') (A') (A') (A') (A') (A")
                 (A') (A') (A") (A') (A") (A') (A') (A") (A") (A')
                 (A') (A') (A') (A') (A') (A") (A') (A") (A') (A")
                 (A") (A') (A") (A') (A") (A') (A') (A') (A") (A')
                 (A') (A') (A") (A') (A") (A') (A') (A") (A') (A')
                 (A') (A") (A') (A") (A') (A") (A') (A") (A') (A")
                 (A') (A") (A') (A") (A') (A') (A") (A") (A') (A')
                 (A") (A') (A") (A') (A') (A") (A') (A") (A') (A')
                 (A') (A") (A') (A') (A") (A") (A') (A') (A') (A')
                 (A") (A') (A') (A") (A') (A") (A') (A') (A') (A")
                 (A') (A') (A') (A") (A') (A") (A") (A') (A') (A")
                 (A') (A") (A') (A') (A") (A') (A') (A') (A") (A")
                 (A') (A") (A') (A") (A') (A") (A') (A") (A') (A")
                 (A') (A") (A') (A") (A') (A') (A') (A') (A") (A')
                 (A') (A') (A') (A') (A') (A') (A') (A')
 The electronic state of the initial guess is 1-A'.
 Leave Link  401 at Mon Jun 20 11:15:26 2016, MaxMem=    33554432 cpu:         7.0
 (Enter /home/proyectos/fulerenos/M3C-v1.9/M3C-deps_CCC/g09-AM64L-G09RevC.01/l502.exe)
 Closed shell SCF:
 Using DIIS extrapolation, IDIIS=  1040.
 Integral symmetry usage will be decided dynamically.
 IVT=      233035 IEndB=      233035 NGot=    33554432 MDV=    33408528
 LenX=    33408528 LenY=    33337862
 Requested convergence on RMS density matrix=1.00D-08 within 128 cycles.
 Requested convergence on MAX density matrix=1.00D-06.
 Requested convergence on             energy=1.00D-06.
 No special actions if energy rises.
 Fock matrices will be formed incrementally for  20 cycles.

 Cycle   1  Pass 1  IDiag  1:
 FoFJK:  IHMeth= 1 ICntrl=       0 DoSepK=F KAlg= 0 I1Cent=   0 FoldK=F
 IRaf= 980000000 NMat=   1 IRICut=       1 DoRegI=T DoRafI=F ISym2E= 1.
 FoFCou: FMM=F IPFlag=           0 FMFlag=      100000 FMFlg1=           0
         NFxFlg=           0 DoJE=F BraDBF=F KetDBF=F FulRan=T
         wScrn=  0.000000 ICntrl=       0 IOpCl=  0 I1Cent=           0 NGrid=           0
         NMat0=    1 NMatS0=      1 NMatT0=    0 NMatD0=    1 NMtDS0=    0 NMtDT0=    0
 Petite list used in FoFCou.
 E= -192.524008417470    
 DIIS: error= 2.54D-02 at cycle   1 NSaved=   1.
 NSaved= 1 IEnMin= 1 EnMin= -192.524008417470     IErMin= 1 ErrMin= 2.54D-02
 ErrMax= 2.54D-02  0.00D+00 EMaxC= 1.00D-01 BMatC= 1.56D-01 BMatP= 1.56D-01
 IDIUse=3 WtCom= 7.46D-01 WtEn= 2.54D-01
 Coeff-Com:  0.100D+01
 Coeff-En:   0.100D+01
 Coeff:      0.100D+01
 Gap=    -0.016 Goal=   None    Shift=    0.000
 GapD=   -0.016 DampG=0.250 DampE=0.500 DampFc=0.2500 IDamp=-1.
 Damping current iteration by 2.50D-01
 RMSDP=8.88D-03 MaxDP=7.90D-01              OVMax= 5.21D-01

 Cycle   2  Pass 1  IDiag  1:
 RMSU=  1.95D-03    CP:  9.35D-01
 E= -192.571658245446     Delta-E=       -0.047649827977 Rises=F Damp=T
 DIIS: error= 1.67D-02 at cycle   2 NSaved=   2.
 NSaved= 2 IEnMin= 2 EnMin= -192.571658245446     IErMin= 2 ErrMin= 1.67D-02
 ErrMax= 1.67D-02  0.00D+00 EMaxC= 1.00D-01 BMatC= 4.04D-02 BMatP= 1.56D-01
 IDIUse=3 WtCom= 8.33D-01 WtEn= 1.67D-01
 Coeff-Com: -0.995D-01 0.110D+01
 Coeff-En:   0.246D+00 0.754D+00
 Coeff:     -0.420D-01 0.104D+01
 Gap=     0.061 Goal=   None    Shift=    0.000
 RMSDP=5.00D-03 MaxDP=3.10D-01 DE=-4.76D-02 OVMax= 8.48D-01

 Cycle   3  Pass 1  IDiag  1:
 RMSU=  4.90D-03    CP:  8.75D-01  8.55D-01
 E= -192.447548210086     Delta-E=        0.124110035360 Rises=F Damp=F
 DIIS: error= 3.80D-02 at cycle   3 NSaved=   3.
 NSaved= 3 IEnMin= 2 EnMin= -192.571658245446     IErMin= 2 ErrMin= 1.67D-02
 ErrMax= 3.80D-02  0.00D+00 EMaxC= 1.00D-01 BMatC= 1.58D-01 BMatP= 4.04D-02
 IDIUse=2 WtCom= 0.00D+00 WtEn= 1.00D+00
 Coeff-En:   0.000D+00 0.709D+00 0.291D+00
 Coeff:      0.000D+00 0.709D+00 0.291D+00
 Gap=    -0.001 Goal=   None    Shift=    0.000
 RMSDP=5.37D-03 MaxDP=4.19D-01 DE= 1.24D-01 OVMax= 7.39D-01

 Cycle   4  Pass 1  IDiag  1:
 RMSU=  2.46D-03    CP:  8.14D-01  2.46D+00  2.89D-01
 E= -192.374688514352     Delta-E=        0.072859695734 Rises=F Damp=F
 DIIS: error= 3.99D-02 at cycle   4 NSaved=   4.
 NSaved= 4 IEnMin= 2 EnMin= -192.571658245446     IErMin= 2 ErrMin= 1.67D-02
 ErrMax= 3.99D-02  0.00D+00 EMaxC= 1.00D-01 BMatC= 2.12D-01 BMatP= 4.04D-02
 IDIUse=2 WtCom= 0.00D+00 WtEn= 1.00D+00
 EnCoef did     6 forward-backward iterations
 Coeff-En:   0.843D-01 0.000D+00 0.475D+00 0.440D+00
 Coeff:      0.843D-01 0.000D+00 0.475D+00 0.440D+00
 Gap=     0.040 Goal=   None    Shift=    0.000
 RMSDP=3.16D-03 MaxDP=2.05D-01 DE= 7.29D-02 OVMax= 4.56D-01

 Cycle   5  Pass 1  IDiag  1:
 RMSU=  1.14D-03    CP:  8.54D-01  1.16D+00  5.14D-01  6.68D-01
 E= -192.684981676441     Delta-E=       -0.310293162089 Rises=F Damp=F
 DIIS: error= 5.91D-03 at cycle   5 NSaved=   5.
 NSaved= 5 IEnMin= 5 EnMin= -192.684981676441     IErMin= 5 ErrMin= 5.91D-03
 ErrMax= 5.91D-03  0.00D+00 EMaxC= 1.00D-01 BMatC= 6.07D-03 BMatP= 4.04D-02
 IDIUse=3 WtCom= 9.41D-01 WtEn= 5.91D-02
 Coeff-Com: -0.351D+00 0.508D+00 0.168D+00-0.509D-01 0.726D+00
 Coeff-En:   0.000D+00 0.000D+00 0.000D+00 0.672D-02 0.993D+00
 Coeff:     -0.330D+00 0.478D+00 0.158D+00-0.475D-01 0.741D+00
 Gap=     0.065 Goal=   None    Shift=    0.000
 RMSDP=8.75D-04 MaxDP=4.89D-02 DE=-3.10D-01 OVMax= 1.20D-01

 Cycle   6  Pass 1  IDiag  1:
 RMSU=  4.21D-04    CP:  8.37D-01  1.48D+00  4.95D-01  7.75D-01  8.02D-01
 E= -192.674949587538     Delta-E=        0.010032088903 Rises=F Damp=F
 DIIS: error= 9.75D-03 at cycle   6 NSaved=   6.
 NSaved= 6 IEnMin= 5 EnMin= -192.684981676441     IErMin= 5 ErrMin= 5.91D-03
 ErrMax= 9.75D-03  0.00D+00 EMaxC= 1.00D-01 BMatC= 1.31D-02 BMatP= 6.07D-03
 IDIUse=3 WtCom= 9.41D-01 WtEn= 5.91D-02
 Coeff-Com: -0.240D+00 0.315D+00 0.123D+00-0.756D-01 0.606D+00 0.272D+00
 Coeff-En:   0.000D+00 0.000D+00 0.000D+00 0.000D+00 0.681D+00 0.319D+00
 Coeff:     -0.226D+00 0.296D+00 0.115D+00-0.711D-01 0.610D+00 0.275D+00
 Gap=     0.066 Goal=   None    Shift=    0.000
 RMSDP=4.56D-04 MaxDP=2.93D-02 DE= 1.00D-02 OVMax= 4.16D-02

 Cycle   7  Pass 1  IDiag  1:
 RMSU=  2.38D-04    CP:  8.39D-01  1.43D+00  5.59D-01  7.80D-01  9.29D-01
                    CP:  6.33D-01
 E= -192.687433616722     Delta-E=       -0.012484029184 Rises=F Damp=F
 DIIS: error= 5.16D-03 at cycle   7 NSaved=   7.
 NSaved= 7 IEnMin= 7 EnMin= -192.687433616722     IErMin= 7 ErrMin= 5.16D-03
 ErrMax= 5.16D-03  0.00D+00 EMaxC= 1.00D-01 BMatC= 3.26D-03 BMatP= 6.07D-03
 IDIUse=3 WtCom= 9.48D-01 WtEn= 5.16D-02
 Coeff-Com: -0.220D-01 0.203D-01 0.603D-01-0.425D-01 0.208D+00-0.450D-01
 Coeff-Com:  0.821D+00
 Coeff-En:   0.000D+00 0.000D+00 0.000D+00 0.000D+00 0.400D+00 0.000D+00
 Coeff-En:   0.600D+00
 Coeff:     -0.208D-01 0.192D-01 0.572D-01-0.403D-01 0.218D+00-0.427D-01
 Coeff:      0.809D+00
 Gap=     0.068 Goal=   None    Shift=    0.000
 RMSDP=2.46D-04 MaxDP=1.95D-02 DE=-1.25D-02 OVMax= 3.20D-02

 Cycle   8  Pass 1  IDiag  1:
 RMSU=  9.51D-05    CP:  8.42D-01  1.35D+00  5.81D-01  7.36D-01  9.60D-01
                    CP:  5.92D-01  9.69D-01
 E= -192.691276704176     Delta-E=       -0.003843087454 Rises=F Damp=F
 DIIS: error= 1.75D-03 at cycle   8 NSaved=   8.
 NSaved= 8 IEnMin= 8 EnMin= -192.691276704176     IErMin= 8 ErrMin= 1.75D-03
 ErrMax= 1.75D-03  0.00D+00 EMaxC= 1.00D-01 BMatC= 3.82D-04 BMatP= 3.26D-03
 IDIUse=3 WtCom= 9.82D-01 WtEn= 1.75D-02
 Coeff-Com:  0.519D-01-0.714D-01 0.789D-02-0.253D-02-0.155D-01-0.155D+00
 Coeff-Com:  0.341D+00 0.844D+00
 Coeff-En:   0.000D+00 0.000D+00 0.000D+00 0.000D+00 0.000D+00 0.000D+00
 Coeff-En:   0.000D+00 0.100D+01
 Coeff:      0.510D-01-0.701D-01 0.775D-02-0.249D-02-0.152D-01-0.153D+00
 Coeff:      0.335D+00 0.847D+00
 Gap=     0.068 Goal=   None    Shift=    0.000
 RMSDP=1.25D-04 MaxDP=6.15D-03 DE=-3.84D-03 OVMax= 1.63D-02

 Cycle   9  Pass 1  IDiag  1:
 RMSU=  3.59D-05    CP:  8.44D-01  1.31D+00  5.95D-01  7.26D-01  9.76D-01
                    CP:  5.07D-01  1.08D+00  1.14D+00
 E= -192.691754397255     Delta-E=       -0.000477693079 Rises=F Damp=F
 DIIS: error= 1.97D-04 at cycle   9 NSaved=   9.
 NSaved= 9 IEnMin= 9 EnMin= -192.691754397255     IErMin= 9 ErrMin= 1.97D-04
 ErrMax= 1.97D-04  0.00D+00 EMaxC= 1.00D-01 BMatC= 8.49D-06 BMatP= 3.82D-04
 IDIUse=3 WtCom= 9.98D-01 WtEn= 1.97D-03
 Coeff-Com:  0.155D-01-0.216D-01 0.836D-03 0.587D-03-0.384D-02-0.425D-01
 Coeff-Com:  0.421D-01 0.387D+00 0.622D+00
 Coeff-En:   0.000D+00 0.000D+00 0.000D+00 0.000D+00 0.000D+00 0.000D+00
 Coeff-En:   0.000D+00 0.651D-02 0.993D+00
 Coeff:      0.155D-01-0.215D-01 0.834D-03 0.585D-03-0.383D-02-0.424D-01
 Coeff:      0.420D-01 0.386D+00 0.623D+00
 Gap=     0.068 Goal=   None    Shift=    0.000
 RMSDP=2.26D-05 MaxDP=1.03D-03 DE=-4.78D-04 OVMax= 1.71D-03

 Cycle  10  Pass 1  IDiag  1:
 RMSU=  1.10D-05    CP:  8.44D-01  1.32D+00  5.95D-01  7.27D-01  9.72D-01
                    CP:  5.19D-01  1.07D+00  1.07D+00  6.40D-01
 E= -192.691762434190     Delta-E=       -0.000008036934 Rises=F Damp=F
 DIIS: error= 6.82D-05 at cycle  10 NSaved=  10.
 NSaved=10 IEnMin=10 EnMin= -192.691762434190     IErMin=10 ErrMin= 6.82D-05
 ErrMax= 6.82D-05  0.00D+00 EMaxC= 1.00D-01 BMatC= 5.09D-07 BMatP= 8.49D-06
 IDIUse=1 WtCom= 1.00D+00 WtEn= 0.00D+00
 Coeff-Com:  0.167D-02-0.234D-02-0.269D-03 0.701D-03-0.504D-03 0.547D-02
 Coeff-Com: -0.191D-01 0.327D-01 0.209D+00 0.773D+00
 Coeff:      0.167D-02-0.234D-02-0.269D-03 0.701D-03-0.504D-03 0.547D-02
 Coeff:     -0.191D-01 0.327D-01 0.209D+00 0.773D+00
 Gap=     0.068 Goal=   None    Shift=    0.000
 RMSDP=1.14D-05 MaxDP=8.39D-04 DE=-8.04D-06 OVMax= 1.50D-03

 Cycle  11  Pass 1  IDiag  1:
 RMSU=  4.95D-06    CP:  8.44D-01  1.32D+00  5.96D-01  7.24D-01  9.71D-01
                    CP:  5.20D-01  1.06D+00  1.05D+00  6.76D-01  9.17D-01
 E= -192.691762054663     Delta-E=        0.000000379526 Rises=F Damp=F
 DIIS: error= 8.30D-05 at cycle  11 NSaved=  11.
 NSaved=11 IEnMin=10 EnMin= -192.691762434190     IErMin=10 ErrMin= 6.82D-05
 ErrMax= 8.30D-05  0.00D+00 EMaxC= 1.00D-01 BMatC= 8.33D-07 BMatP= 5.09D-07
 IDIUse=1 WtCom= 1.00D+00 WtEn= 0.00D+00
 Coeff-Com:  0.289D-03-0.409D-03-0.223D-03 0.152D-03 0.396D-03 0.235D-02
 Coeff-Com:  0.254D-02 0.626D-02 0.429D-01 0.296D+00 0.649D+00
 Coeff:      0.289D-03-0.409D-03-0.223D-03 0.152D-03 0.396D-03 0.235D-02
 Coeff:      0.254D-02 0.626D-02 0.429D-01 0.296D+00 0.649D+00
 Gap=     0.068 Goal=   None    Shift=    0.000
 RMSDP=3.72D-06 MaxDP=3.03D-04 DE= 3.80D-07 OVMax= 4.20D-04

 Cycle  12  Pass 1  IDiag  1:
 RMSU=  1.32D-06    CP:  8.44D-01  1.32D+00  5.96D-01  7.25D-01  9.71D-01
                    CP:  5.21D-01  1.06D+00  1.04D+00  6.63D-01  9.28D-01
                    CP:  9.17D-01
 E= -192.691762982692     Delta-E=       -0.000000928029 Rises=F Damp=F
 DIIS: error= 3.31D-05 at cycle  12 NSaved=  12.
 NSaved=12 IEnMin=12 EnMin= -192.691762982692     IErMin=12 ErrMin= 3.31D-05
 ErrMax= 3.31D-05  0.00D+00 EMaxC= 1.00D-01 BMatC= 1.35D-07 BMatP= 5.09D-07
 IDIUse=1 WtCom= 1.00D+00 WtEn= 0.00D+00
 Coeff-Com: -0.138D-03 0.951D-04-0.111D-03-0.249D-05 0.894D-03 0.618D-03
 Coeff-Com:  0.604D-02 0.190D-02-0.385D-02 0.768D-01 0.330D+00 0.587D+00
 Coeff:     -0.138D-03 0.951D-04-0.111D-03-0.249D-05 0.894D-03 0.618D-03
 Coeff:      0.604D-02 0.190D-02-0.385D-02 0.768D-01 0.330D+00 0.587D+00
 Gap=     0.068 Goal=   None    Shift=    0.000
 RMSDP=1.70D-06 MaxDP=1.10D-04 DE=-9.28D-07 OVMax= 2.22D-04

 Cycle  13  Pass 1  IDiag  1:
 RMSU=  4.92D-07    CP:  8.44D-01  1.32D+00  5.95D-01  7.25D-01  9.71D-01
                    CP:  5.22D-01  1.06D+00  1.03D+00  6.55D-01  9.36D-01
                    CP:  9.55D-01  9.73D-01
 E= -192.691763152645     Delta-E=       -0.000000169953 Rises=F Damp=F
 DIIS: error= 8.73D-06 at cycle  13 NSaved=  13.
 NSaved=13 IEnMin=13 EnMin= -192.691763152645     IErMin=13 ErrMin= 8.73D-06
 ErrMax= 8.73D-06  0.00D+00 EMaxC= 1.00D-01 BMatC= 9.20D-09 BMatP= 1.35D-07
 IDIUse=1 WtCom= 1.00D+00 WtEn= 0.00D+00
 Coeff-Com: -0.372D-05-0.902D-05-0.538D-04-0.118D-04 0.171D-03-0.168D-03
 Coeff-Com:  0.249D-02 0.173D-02-0.442D-02 0.701D-02 0.314D-01 0.194D+00
 Coeff-Com:  0.768D+00
 Coeff:     -0.372D-05-0.902D-05-0.538D-04-0.118D-04 0.171D-03-0.168D-03
 Coeff:      0.249D-02 0.173D-02-0.442D-02 0.701D-02 0.314D-01 0.194D+00
 Coeff:      0.768D+00
 Gap=     0.068 Goal=   None    Shift=    0.000
 RMSDP=4.70D-07 MaxDP=3.89D-05 DE=-1.70D-07 OVMax= 5.07D-05

 Cycle  14  Pass 1  IDiag  1:
 RMSU=  1.60D-07    CP:  8.44D-01  1.32D+00  5.95D-01  7.25D-01  9.71D-01
                    CP:  5.22D-01  1.06D+00  1.03D+00  6.53D-01  9.43D-01
                    CP:  9.62D-01  1.01D+00  1.01D+00
 E= -192.691763163896     Delta-E=       -0.000000011251 Rises=F Damp=F
 DIIS: error= 2.23D-06 at cycle  14 NSaved=  14.
 NSaved=14 IEnMin=14 EnMin= -192.691763163896     IErMin=14 ErrMin= 2.23D-06
 ErrMax= 2.23D-06  0.00D+00 EMaxC= 1.00D-01 BMatC= 5.81D-10 BMatP= 9.20D-09
 IDIUse=1 WtCom= 1.00D+00 WtEn= 0.00D+00
 Coeff-Com:  0.509D-06 0.328D-05-0.385D-05-0.939D-06-0.990D-05-0.221D-04
 Coeff-Com: -0.117D-03 0.237D-03 0.217D-03-0.286D-03-0.221D-01-0.394D-01
 Coeff-Com:  0.771D-01 0.984D+00
 Coeff:      0.509D-06 0.328D-05-0.385D-05-0.939D-06-0.990D-05-0.221D-04
 Coeff:     -0.117D-03 0.237D-03 0.217D-03-0.286D-03-0.221D-01-0.394D-01
 Coeff:      0.771D-01 0.984D+00
 Gap=     0.068 Goal=   None    Shift=    0.000
 RMSDP=1.38D-07 MaxDP=8.55D-06 DE=-1.13D-08 OVMax= 1.58D-05

 Cycle  15  Pass 1  IDiag  1:
 RMSU=  2.66D-08    CP:  8.44D-01  1.32D+00  5.95D-01  7.25D-01  9.71D-01
                    CP:  5.22D-01  1.06D+00  1.03D+00  6.52D-01  9.44D-01
                    CP:  9.63D-01  1.03D+00  1.08D+00  1.09D+00
 E= -192.691763164666     Delta-E=       -0.000000000770 Rises=F Damp=F
 DIIS: error= 1.88D-07 at cycle  15 NSaved=  15.
 NSaved=15 IEnMin=15 EnMin= -192.691763164666     IErMin=15 ErrMin= 1.88D-07
 ErrMax= 1.88D-07  0.00D+00 EMaxC= 1.00D-01 BMatC= 4.29D-12 BMatP= 5.81D-10
 IDIUse=1 WtCom= 1.00D+00 WtEn= 0.00D+00
 Coeff-Com:  0.516D-06-0.386D-06 0.810D-06 0.411D-06-0.444D-05-0.183D-05
 Coeff-Com: -0.960D-04 0.784D-06 0.231D-03-0.332D-04-0.390D-02-0.106D-01
 Coeff-Com: -0.237D-01 0.712D-01 0.967D+00
 Coeff:      0.516D-06-0.386D-06 0.810D-06 0.411D-06-0.444D-05-0.183D-05
 Coeff:     -0.960D-04 0.784D-06 0.231D-03-0.332D-04-0.390D-02-0.106D-01
 Coeff:     -0.237D-01 0.712D-01 0.967D+00
 Gap=     0.068 Goal=   None    Shift=    0.000
 RMSDP=1.84D-08 MaxDP=1.31D-06 DE=-7.70D-10 OVMax= 1.90D-06

 Cycle  16  Pass 1  IDiag  1:
 RMSU=  3.27D-09    CP:  8.44D-01  1.32D+00  5.95D-01  7.25D-01  9.71D-01
                    CP:  5.22D-01  1.06D+00  1.03D+00  6.52D-01  9.45D-01
                    CP:  9.63D-01  1.03D+00  1.09D+00  1.13D+00  1.11D+00
 E= -192.691763164675     Delta-E=       -0.000000000009 Rises=F Damp=F
 DIIS: error= 4.23D-08 at cycle  16 NSaved=  16.
 NSaved=16 IEnMin=16 EnMin= -192.691763164675     IErMin=16 ErrMin= 4.23D-08
 ErrMax= 4.23D-08  0.00D+00 EMaxC= 1.00D-01 BMatC= 2.70D-13 BMatP= 4.29D-12
 IDIUse=1 WtCom= 1.00D+00 WtEn= 0.00D+00
 Coeff-Com: -0.146D-07-0.580D-07 0.925D-07 0.171D-06-0.374D-06 0.135D-05
 Coeff-Com: -0.125D-04-0.136D-04 0.255D-04 0.973D-04 0.242D-03 0.360D-03
 Coeff-Com: -0.612D-02-0.204D-01 0.190D+00 0.836D+00
 Coeff:     -0.146D-07-0.580D-07 0.925D-07 0.171D-06-0.374D-06 0.135D-05
 Coeff:     -0.125D-04-0.136D-04 0.255D-04 0.973D-04 0.242D-03 0.360D-03
 Coeff:     -0.612D-02-0.204D-01 0.190D+00 0.836D+00
 Gap=     0.068 Goal=   None    Shift=    0.000
 RMSDP=4.16D-09 MaxDP=3.16D-07 DE=-9.38D-12 OVMax= 5.77D-07

 SCF Done:  E(RB3LYP) =  -192.691763165     A.U. after   16 cycles
            NFock= 16  Conv=0.42D-08     -V/T= 2.0048
 KE= 1.917768638566D+02 PE=-7.094085825520D+02 EE= 1.933985420751D+02
 Leave Link  502 at Mon Jun 20 11:17:21 2016, MaxMem=    33554432 cpu:       455.7
 (Enter /home/proyectos/fulerenos/M3C-v1.9/M3C-deps_CCC/g09-AM64L-G09RevC.01/l801.exe)
 DoSCS=F DFT=T ScalE2(SS,OS)=  1.000000  1.000000
 Range of M.O.s used for correlation:     1   235
 NBasis=   235 NAE=    17 NBE=    17 NFC=     0 NFV=     0
 NROrb=    235 NOA=    17 NOB=    17 NVA=   218 NVB=   218

 **** Warning!!: The largest alpha MO coefficient is  0.18433111D+03


 **** Warning!!: The smallest alpha delta epsilon is  0.68102004D-01

 Leave Link  801 at Mon Jun 20 11:17:21 2016, MaxMem=    33554432 cpu:         0.1
 (Enter /home/proyectos/fulerenos/M3C-v1.9/M3C-deps_CCC/g09-AM64L-G09RevC.01/l1101.exe)
 Using compressed storage, NAtomX=     9.
 Will process     10 centers per pass.
 Leave Link 1101 at Mon Jun 20 11:17:21 2016, MaxMem=    33554432 cpu:         1.5
 (Enter /home/proyectos/fulerenos/M3C-v1.9/M3C-deps_CCC/g09-AM64L-G09RevC.01/l1102.exe)
 Symmetrizing basis deriv contribution to polar:
 IMax=3 JMax=2 DiffMx= 0.00D+00
 Leave Link 1102 at Mon Jun 20 11:17:22 2016, MaxMem=    33554432 cpu:         0.2
 (Enter /home/proyectos/fulerenos/M3C-v1.9/M3C-deps_CCC/g09-AM64L-G09RevC.01/l1110.exe)
 Forming Gx(P) for the SCF density, NAtomX=     9.
 Integral derivatives from FoFJK, PRISM(SPDF).
 Do as many integral derivatives as possible in FoFJK.
 G2DrvN: MDV=      33554256.
 G2DrvN: will do    10 centers at a time, making    1 passes.
 Calling FoFCou, ICntrl=  3107 FMM=F I1Cent=   0 AccDes= 0.00D+00.
 FoFJK:  IHMeth= 1 ICntrl=    3107 DoSepK=F KAlg= 0 I1Cent=   0 FoldK=F
 IRaf=         0 NMat=   1 IRICut=       1 DoRegI=T DoRafI=F ISym2E= 1.
 FoFCou: FMM=F IPFlag=           0 FMFlag=      100000 FMFlg1=           0
         NFxFlg=           0 DoJE=F BraDBF=F KetDBF=F FulRan=T
         wScrn=  0.000000 ICntrl=    3107 IOpCl=  0 I1Cent=           0 NGrid=           0
         NMat0=    1 NMatS0=      1 NMatT0=    0 NMatD0=    1 NMtDS0=    0 NMtDT0=    0
 Petite list used in FoFCou.
 End of G2Drv F.D. properties file   721 does not exist.
 End of G2Drv F.D. properties file   722 does not exist.
 End of G2Drv F.D. properties file   788 does not exist.
 Leave Link 1110 at Mon Jun 20 11:18:23 2016, MaxMem=    33554432 cpu:       243.5
 (Enter /home/proyectos/fulerenos/M3C-v1.9/M3C-deps_CCC/g09-AM64L-G09RevC.01/l1002.exe)
 Minotr:  Closed shell wavefunction.
          IDoAtm=111111111
          Direct CPHF calculation.
          Differentiating once with respect to electric field.
                with respect to dipole field.
          Differentiating once with respect to nuclear coordinates.
          Using symmetry in CPHF.
          Requested convergence is 1.0D-08 RMS, and 1.0D-07 maximum.
          Secondary convergence is 1.0D-12 RMS, and 1.0D-12 maximum.
          NewPWx=T KeepS1=F KeepF1=F KeepIn=T MapXYZ=F SortEE=F KeepMc=T.
          MDV=      33554103 using IRadAn=       2.
 Generate precomputed XC quadrature information.
          Solving linear equations simultaneously, MaxMat=       0.
 FoFJK:  IHMeth= 1 ICntrl=       0 DoSepK=F KAlg= 0 I1Cent=   0 FoldK=F
 IRaf= 980000000 NMat=  27 IRICut=      67 DoRegI=T DoRafI=T ISym2E= 2.
 FoFCou: FMM=F IPFlag=           0 FMFlag=      100000 FMFlg1=           0
         NFxFlg=           0 DoJE=F BraDBF=F KetDBF=F FulRan=T
         wScrn=  0.000000 ICntrl=       0 IOpCl=  0 I1Cent=           0 NGrid=           0
         NMat0=   27 NMatS0=     27 NMatT0=    0 NMatD0=   27 NMtDS0=    0 NMtDT0=    0
 Integrals replicated using symmetry in FoFCou.
          There are    27 degrees of freedom in the 1st order CPHF.  IDoFFX=4 NUNeed=    27.
     27 vectors produced by pass  0 Test12= 1.37D-14 3.70D-09 XBig12= 8.82D+02 1.96D+01.
 AX will form    27 AO Fock derivatives at one time.
     27 vectors produced by pass  1 Test12= 1.37D-14 3.70D-09 XBig12= 5.04D+02 6.68D+00.
     27 vectors produced by pass  2 Test12= 1.37D-14 3.70D-09 XBig12= 8.67D+00 6.99D-01.
     27 vectors produced by pass  3 Test12= 1.37D-14 3.70D-09 XBig12= 4.03D-02 4.56D-02.
     27 vectors produced by pass  4 Test12= 1.37D-14 3.70D-09 XBig12= 1.02D-04 1.99D-03.
     27 vectors produced by pass  5 Test12= 1.37D-14 3.70D-09 XBig12= 2.15D-07 7.77D-05.
      9 vectors produced by pass  6 Test12= 1.37D-14 3.70D-09 XBig12= 3.21D-10 2.22D-06.
      3 vectors produced by pass  7 Test12= 1.37D-14 3.70D-09 XBig12= 8.19D-13 1.84D-07.
      3 vectors produced by pass  8 Test12= 1.37D-14 3.70D-09 XBig12= 6.56D-14 6.20D-08.
      1 vectors produced by pass  9 Test12= 1.37D-14 3.70D-09 XBig12= 1.21D-15 9.07D-09.
 InvSVY:  IOpt=1 It=  1 EMax= 1.42D-14
 Solved reduced A of dimension   178 with    27 vectors.
 FullF1:  Do perturbations    1 to    27.
 Isotropic polarizability for W=    0.000000       80.15 Bohr**3.
 End of Minotr F.D. properties file   721 does not exist.
 End of Minotr F.D. properties file   722 does not exist.
 End of Minotr F.D. properties file   788 does not exist.
 Leave Link 1002 at Mon Jun 20 11:21:29 2016, MaxMem=    33554432 cpu:       746.0
 (Enter /home/proyectos/fulerenos/M3C-v1.9/M3C-deps_CCC/g09-AM64L-G09RevC.01/l601.exe)
 Copying SCF densities to generalized density rwf, IOpCl= 0 IROHF=0.

 **********************************************************************

            Population analysis using the SCF density.

 **********************************************************************

 Orbital symmetries:
       Occupied  (A') (A') (A') (A') (A') (A') (A') (A') (A') (A')
                 (A') (A") (A') (A') (A") (A") (A')
       Virtual   (A') (A") (A') (A') (A') (A") (A') (A") (A') (A")
                 (A') (A') (A') (A") (A') (A') (A') (A") (A') (A')
                 (A") (A') (A") (A') (A') (A') (A') (A') (A") (A')
                 (A') (A') (A') (A') (A") (A') (A') (A") (A') (A')
                 (A") (A') (A") (A') (A") (A') (A') (A') (A") (A')
                 (A") (A') (A') (A") (A') (A") (A') (A") (A') (A')
                 (A") (A") (A') (A') (A') (A") (A') (A') (A") (A')
                 (A") (A') (A") (A') (A') (A') (A') (A') (A") (A')
                 (A') (A") (A') (A") (A') (A') (A') (A") (A") (A')
                 (A') (A') (A') (A') (A') (A') (A") (A") (A') (A")
                 (A") (A') (A") (A') (A") (A') (A') (A') (A") (A')
                 (A') (A") (A') (A') (A") (A') (A') (A") (A') (A')
                 (A') (A") (A') (A") (A') (A') (A") (A") (A') (A")
                 (A') (A") (A') (A') (A") (A") (A') (A") (A') (A")
                 (A') (A') (A") (A') (A') (A") (A') (A") (A') (A')
                 (A') (A") (A') (A') (A") (A") (A') (A') (A') (A')
                 (A") (A') (A') (A") (A') (A") (A') (A') (A') (A")
                 (A') (A') (A') (A") (A') (A") (A") (A') (A') (A")
                 (A') (A") (A') (A") (A') (A') (A') (A') (A") (A")
                 (A') (A") (A') (A") (A') (A") (A') (A") (A') (A")
                 (A') (A") (A') (A') (A") (A') (A') (A') (A") (A')
                 (A') (A') (A') (A') (A') (A') (A') (A')
 The electronic state is 1-A'.
 Alpha  occ. eigenvalues --  -10.24395 -10.22380 -10.22307 -10.21715 -10.18920
 Alpha  occ. eigenvalues --   -0.89764  -0.81507  -0.63213  -0.61075  -0.53410
 Alpha  occ. eigenvalues --   -0.47927  -0.47739  -0.39493  -0.38477  -0.35143
 Alpha  occ. eigenvalues --   -0.24536  -0.21283
 Alpha virt. eigenvalues --   -0.14473  -0.05130  -0.00668   0.00853   0.01449
 Alpha virt. eigenvalues --    0.02358   0.04944   0.05591   0.05844   0.07267
 Alpha virt. eigenvalues --    0.07364   0.08546   0.09862   0.09992   0.10571
 Alpha virt. eigenvalues --    0.10992   0.12257   0.12857   0.13261   0.13929
 Alpha virt. eigenvalues --    0.14664   0.15356   0.15619   0.15825   0.16849
 Alpha virt. eigenvalues --    0.18463   0.20772   0.21199   0.21302   0.22471
 Alpha virt. eigenvalues --    0.24215   0.26660   0.29127   0.30937   0.32138
 Alpha virt. eigenvalues --    0.34335   0.35416   0.37447   0.39362   0.40240
 Alpha virt. eigenvalues --    0.41746   0.41922   0.43759   0.44108   0.45981
 Alpha virt. eigenvalues --    0.47263   0.48749   0.50072   0.50921   0.51593
 Alpha virt. eigenvalues --    0.52127   0.52726   0.54754   0.55868   0.57415
 Alpha virt. eigenvalues --    0.59400   0.60763   0.61092   0.62462   0.64022
 Alpha virt. eigenvalues --    0.67143   0.68122   0.69452   0.69883   0.69941
 Alpha virt. eigenvalues --    0.72809   0.75283   0.77968   0.82312   0.83140
 Alpha virt. eigenvalues --    0.84733   0.86663   0.87715   0.87796   0.91961
 Alpha virt. eigenvalues --    0.95320   0.96198   1.02686   1.05436   1.06587
 Alpha virt. eigenvalues --    1.09573   1.11595   1.11692   1.15929   1.16092
 Alpha virt. eigenvalues --    1.18324   1.21593   1.22384   1.26018   1.27084
 Alpha virt. eigenvalues --    1.29652   1.33971   1.35165   1.40213   1.41813
 Alpha virt. eigenvalues --    1.46061   1.46600   1.50422   1.51598   1.57486
 Alpha virt. eigenvalues --    1.61053   1.62415   1.64384   1.69206   1.74336
 Alpha virt. eigenvalues --    1.77017   1.84885   1.86110   1.88887   1.92599
 Alpha virt. eigenvalues --    1.96106   2.04728   2.04911   2.06860   2.12045
 Alpha virt. eigenvalues --    2.15143   2.19982   2.25883   2.28305   2.41822
 Alpha virt. eigenvalues --    2.47418   2.55678   2.61253   2.65301   2.68412
 Alpha virt. eigenvalues --    2.70656   2.70857   2.73199   2.74915   2.75812
 Alpha virt. eigenvalues --    2.78229   2.83014   2.85382   2.89719   2.90020
 Alpha virt. eigenvalues --    2.93175   2.93287   2.95762   2.98730   3.04120
 Alpha virt. eigenvalues --    3.05337   3.07238   3.09465   3.14455   3.16226
 Alpha virt. eigenvalues --    3.20691   3.21424   3.22728   3.27934   3.32451
 Alpha virt. eigenvalues --    3.37951   3.41742   3.44893   3.52060   3.54619
 Alpha virt. eigenvalues --    3.57114   3.59963   3.68165   3.76857   3.86392
 Alpha virt. eigenvalues --    3.87007   3.91922   3.94388   3.98834   4.05855
 Alpha virt. eigenvalues --    4.08702   4.11184   4.18338   4.20705   4.20903
 Alpha virt. eigenvalues --    4.24473   4.27471   4.38288   4.44218   4.53729
 Alpha virt. eigenvalues --    4.56723   4.64521   4.72185   4.83514   5.00201
 Alpha virt. eigenvalues --    5.07639   5.21380   5.38679   5.58433   5.60313
 Alpha virt. eigenvalues --    5.65248   6.07045   6.28875   6.99562   7.00453
 Alpha virt. eigenvalues --    7.05797   7.09731   7.12116   7.15286   7.19678
 Alpha virt. eigenvalues --    7.21964   7.26925   7.30975   7.35717   7.36766
 Alpha virt. eigenvalues --    7.47069   7.50244   7.54117   7.60622   7.60691
 Alpha virt. eigenvalues --    7.68903   7.83285   7.92082   8.03606   8.14445
 Alpha virt. eigenvalues --    8.37729   8.39447   8.59270  23.95774  24.47456
 Alpha virt. eigenvalues --   24.82839  25.87602  26.23959
          Condensed to atoms (all electrons):
               1          2          3          4          5          6
     1  C    6.771565   0.526059  -0.343316  -0.067637   0.548841  -1.198466
     2  H    0.526059   0.503071  -0.131131   0.004332  -0.111192   0.004821
     3  C   -0.343316  -0.131131   6.661502   0.445614  -0.041149  -0.103933
     4  H   -0.067637   0.004332   0.445614   0.462407   0.008947  -0.090351
     5  C    0.548841  -0.111192  -0.041149   0.008947   6.982640  -2.000113
     6  C   -1.198466   0.004821  -0.103933  -0.090351  -2.000113  10.536387
     7  C    0.012465  -0.000559  -0.025694  -0.000551   0.201258  -0.932286
     8  H    0.003131   0.000750   0.000430  -0.000223  -0.037362  -0.069817
     9  H    0.003131   0.000750   0.000430  -0.000223  -0.037362  -0.069817
               7          8          9
     1  C    0.012465   0.003131   0.003131
     2  H   -0.000559   0.000750   0.000750
     3  C   -0.025694   0.000430   0.000430
     4  H   -0.000551  -0.000223  -0.000223
     5  C    0.201258  -0.037362  -0.037362
     6  C   -0.932286  -0.069817  -0.069817
     7  C    6.256707   0.468580   0.468580
     8  H    0.468580   0.545593  -0.069669
     9  H    0.468580  -0.069669   0.545593
 Mulliken charges:
               1
     1  C   -0.255773
     2  H    0.203099
     3  C   -0.462753
     4  H    0.237684
     5  C    0.485492
     6  C   -0.076424
     7  C   -0.448500
     8  H    0.158587
     9  H    0.158587
 Sum of Mulliken charges =  -0.00000
 Mulliken charges with hydrogens summed into heavy atoms:
               1
     1  C   -0.052674
     3  C   -0.225069
     5  C    0.485492
     6  C   -0.076424
     7  C   -0.131325
 APT charges:
               1
     1  C    0.451716
     2  H    0.056183
     3  C   -0.758992
     4  H    0.362882
     5  C   -0.313211
     6  C   -0.407602
     7  C    0.664293
     8  H   -0.027634
     9  H   -0.027634
 Sum of APT charges =   0.00000
 APT charges with hydrogens summed into heavy atoms:
               1
     1  C    0.507899
     3  C   -0.396110
     5  C   -0.313211
     6  C   -0.407602
     7  C    0.609024
 Electronic spatial extent (au):  <R**2>=            386.1351
 Charge=             -0.0000 electrons
 Dipole moment (field-independent basis, Debye):
    X=             -1.9386    Y=             -0.4280    Z=              0.0000  Tot=              1.9853
 Quadrupole moment (field-independent basis, Debye-Ang):
   XX=            -26.6551   YY=            -33.6772   ZZ=            -31.3595
   XY=             -3.2463   XZ=             -0.0000   YZ=              0.0000
 Traceless Quadrupole moment (field-independent basis, Debye-Ang):
   XX=              3.9088   YY=             -3.1133   ZZ=             -0.7955
   XY=             -3.2463   XZ=             -0.0000   YZ=              0.0000
 Octapole moment (field-independent basis, Debye-Ang**2):
  XXX=             -0.5458  YYY=              4.7800  ZZZ=             -0.0000  XYY=            -11.6740
  XXY=             -4.4758  XXZ=              0.0000  XZZ=             -3.5442  YZZ=              2.7547
  YYZ=              0.0000  XYZ=             -0.0000
 Hexadecapole moment (field-independent basis, Debye-Ang**3):
 XXXX=           -132.6541 YYYY=           -424.4186 ZZZZ=            -44.8158 XXXY=             36.8045
 XXXZ=             -0.0000 YYYX=             49.2869 YYYZ=              0.0000 ZZZX=             -0.0000
 ZZZY=              0.0000 XXYY=            -84.5630 XXZZ=            -31.4930 YYZZ=            -74.8246
 XXYZ=              0.0000 YYXZ=             -0.0000 ZZXY=             14.3475
 N-N= 1.315414134556D+02 E-N=-7.094085838275D+02  KE= 1.917768638566D+02
 Symmetry A'   KE= 1.851764455468D+02
 Symmetry A"   KE= 6.600418309840D+00
  Exact polarizability:  63.507 -21.560 133.790   0.000  -0.000  43.141
 Approx polarizability: 123.872-121.958 626.532  -0.000  -0.000  61.181
 No NMR shielding tensors so no spin-rotation constants.
 Leave Link  601 at Mon Jun 20 11:21:29 2016, MaxMem=    33554432 cpu:         1.0
 (Enter /home/proyectos/fulerenos/M3C-v1.9/M3C-deps_CCC/g09-AM64L-G09RevC.01/l701.exe)
 Compute integral second derivatives.
 ... and contract with generalized density number  0.
 Leave Link  701 at Mon Jun 20 11:21:30 2016, MaxMem=    33554432 cpu:         1.1
 (Enter /home/proyectos/fulerenos/M3C-v1.9/M3C-deps_CCC/g09-AM64L-G09RevC.01/l702.exe)
 L702 exits ... SP integral derivatives will be done elsewhere.
 Leave Link  702 at Mon Jun 20 11:21:30 2016, MaxMem=    33554432 cpu:         0.1
 (Enter /home/proyectos/fulerenos/M3C-v1.9/M3C-deps_CCC/g09-AM64L-G09RevC.01/l703.exe)
 Compute integral second derivatives, UseDBF=F ICtDFT=           0.
 Integral derivatives from FoFJK, PRISM(SPDF).
 Calling FoFJK, ICntrl=    100127 FMM=F ISym2X=1 I1Cent= 0 IOpClX= 0 NMat=1 NMatS=1 NMatT=0.
 FoFJK:  IHMeth= 1 ICntrl=  100127 DoSepK=F KAlg= 0 I1Cent=   0 FoldK=F
 IRaf=         0 NMat=   1 IRICut=       1 DoRegI=T DoRafI=F ISym2E= 1.
 FoFCou: FMM=F IPFlag=           0 FMFlag=      100000 FMFlg1=         800
         NFxFlg=           0 DoJE=F BraDBF=F KetDBF=F FulRan=T
         wScrn=  0.000000 ICntrl=  100127 IOpCl=  0 I1Cent=           0 NGrid=           0
         NMat0=    1 NMatS0=      1 NMatT0=    0 NMatD0=    1 NMtDS0=    0 NMtDT0=    0
 Petite list used in FoFCou.
 Leave Link  703 at Mon Jun 20 11:22:42 2016, MaxMem=    33554432 cpu:       287.5
 (Enter /home/proyectos/fulerenos/M3C-v1.9/M3C-deps_CCC/g09-AM64L-G09RevC.01/l716.exe)
 Dipole        =-7.62696966D-01-1.68369931D-01 3.11274444D-16
 Polarizability= 6.35066925D+01-2.15600355D+01 1.33790139D+02
                 4.19345552D-08-5.46427642D-08 4.31412348D+01
 Full mass-weighted force constant matrix:
 Low frequencies --- -184.3083  -13.0742   -5.1193   -0.0007    0.0003    0.0006
 Low frequencies ---    5.6711  239.6837  252.5696
 ******    1 imaginary frequencies (negative Signs) ****** 
 Diagonal vibrational polarizability:
       22.1926752     190.8415154      46.4083701
 Harmonic frequencies (cm**-1), IR intensities (KM/Mole), Raman scattering
 activities (A**4/AMU), depolarization ratios for plane and unpolarized
 incident light, reduced masses (AMU), force constants (mDyne/A),
 and normal coordinates:
                      1                      2                      3
                     A"                     A"                     A'
 Frequencies --   -184.3075               239.6693               252.5693
 Red. masses --      2.3239                 1.2774                 3.3651
 Frc consts  --      0.0465                 0.0432                 0.1265
 IR Inten    --      2.1487                88.9053                73.0800
  Atom  AN      X      Y      Z        X      Y      Z        X      Y      Z
     1   6    -0.00  -0.00  -0.18    -0.00   0.00   0.04    -0.04  -0.14   0.00
     2   1    -0.00  -0.00  -0.42    -0.00   0.00  -0.36     0.06  -0.34  -0.00
     3   6     0.00   0.00   0.19    -0.00  -0.00  -0.06     0.11   0.18  -0.00
     4   1    -0.00   0.00   0.35     0.00  -0.00   0.71    -0.03   0.65   0.00
     5   6    -0.00  -0.00  -0.11     0.00   0.00   0.07    -0.16  -0.14   0.00
     6   6    -0.00  -0.00  -0.11     0.00   0.00  -0.12    -0.02  -0.20  -0.00
     7   6     0.00   0.00   0.17    -0.00  -0.00   0.03     0.09   0.23   0.00
     8   1     0.30   0.36   0.27    -0.08  -0.40   0.07     0.13   0.32   0.00
     9   1    -0.30  -0.36   0.27     0.08   0.40   0.07     0.13   0.32  -0.00
                      4                      5                      6
                     A'                     A"                     A'
 Frequencies --    314.4902               335.3314               437.2882
 Red. masses --      5.9327                 2.7306                 2.3845
 Frc consts  --      0.3457                 0.1809                 0.2686
 IR Inten    --    215.4079                 6.1265               801.3979
  Atom  AN      X      Y      Z        X      Y      Z        X      Y      Z
     1   6    -0.22   0.04  -0.00     0.00  -0.00  -0.08    -0.07   0.04   0.00
     2   1    -0.20  -0.00   0.00     0.00   0.00  -0.29    -0.11   0.14  -0.00
     3   6    -0.10   0.44   0.00     0.00  -0.00  -0.08    -0.03  -0.06  -0.00
     4   1    -0.10   0.40  -0.00    -0.00  -0.00  -0.05    -0.28   0.85   0.00
     5   6     0.05  -0.03   0.00     0.00  -0.00   0.36     0.27  -0.13  -0.00
     6   6     0.20  -0.06   0.00    -0.00   0.00  -0.09    -0.14   0.04  -0.00
     7   6     0.09  -0.37  -0.00    -0.00   0.00  -0.07     0.01   0.06   0.00
     8   1     0.05  -0.41  -0.01     0.08   0.59  -0.15    -0.05  -0.14   0.01
     9   1     0.05  -0.41   0.01    -0.08  -0.59  -0.15    -0.05  -0.14  -0.01
                      7                      8                      9
                     A"                     A'                     A"
 Frequencies --    755.5513               776.5835               912.5794
 Red. masses --      1.9769                 1.9802                 1.1029
 Frc consts  --      0.6649                 0.7036                 0.5411
 IR Inten    --      0.2995               121.0927                46.9572
  Atom  AN      X      Y      Z        X      Y      Z        X      Y      Z
     1   6    -0.00  -0.00   0.20     0.06   0.05   0.00     0.00   0.00  -0.07
     2   1    -0.00  -0.00  -0.45     0.03   0.13  -0.00     0.00   0.00   0.77
     3   6    -0.00   0.00  -0.14     0.01  -0.15  -0.00    -0.00  -0.00  -0.05
     4   1     0.00  -0.00   0.45    -0.27   0.91   0.00     0.00  -0.00   0.59
     5   6     0.00  -0.00  -0.13    -0.16   0.13  -0.00    -0.00  -0.00  -0.00
     6   6    -0.00   0.00   0.10     0.11  -0.02   0.00    -0.00  -0.00   0.02
     7   6     0.00   0.00  -0.02    -0.00  -0.09  -0.00     0.00  -0.00   0.00
     8   1     0.12   0.49  -0.05     0.01  -0.01  -0.01     0.00   0.14  -0.03
     9   1    -0.12  -0.49  -0.05     0.01  -0.01   0.01    -0.00  -0.14  -0.03
                     10                     11                     12
                     A'                     A'                     A"
 Frequencies --    928.9122              1061.0178              1078.9660
 Red. masses --      5.9948                 1.7002                 1.2735
 Frc consts  --      3.0477                 1.1277                 0.8735
 IR Inten    --    107.1268                37.0934                 0.1129
  Atom  AN      X      Y      Z        X      Y      Z        X      Y      Z
     1   6     0.14   0.50   0.00    -0.01  -0.02  -0.00     0.00  -0.00  -0.01
     2   1     0.07   0.66  -0.00     0.02  -0.06   0.00    -0.00   0.00   0.03
     3   6     0.00   0.03   0.00     0.00   0.00  -0.00    -0.00   0.00  -0.00
     4   1     0.11  -0.27  -0.00     0.01  -0.02   0.00     0.00  -0.00   0.04
     5   6    -0.06  -0.17   0.00     0.01   0.01   0.00     0.00  -0.00   0.03
     6   6    -0.11  -0.38  -0.00     0.15  -0.06   0.00    -0.00   0.00   0.06
     7   6     0.01  -0.00  -0.00    -0.09   0.17  -0.00    -0.00  -0.00  -0.14
     8   1     0.01  -0.09   0.02    -0.39  -0.56  -0.02     0.62  -0.18   0.27
     9   1     0.01  -0.09  -0.02    -0.39  -0.56   0.02    -0.62   0.18   0.27
                     13                     14                     15
                     A'                     A'                     A'
 Frequencies --   1127.0414              1281.1493              1514.9495
 Red. masses --      2.6585                 1.1949                 1.1342
 Frc consts  --      1.9896                 1.1555                 1.5337
 IR Inten    --     15.3541                 0.1764                 9.1242
  Atom  AN      X      Y      Z        X      Y      Z        X      Y      Z
     1   6    -0.01   0.03  -0.00    -0.00  -0.10   0.00     0.01  -0.02   0.00
     2   1     0.13  -0.26   0.00    -0.48   0.85  -0.00     0.00   0.01  -0.00
     3   6     0.01  -0.03   0.00     0.06   0.02  -0.00    -0.01   0.01   0.00
     4   1     0.02  -0.05  -0.00     0.08  -0.03  -0.00    -0.02   0.00  -0.00
     5   6    -0.14   0.01   0.00    -0.03   0.01   0.00     0.01   0.04   0.00
     6   6    -0.17   0.10   0.00    -0.02   0.00  -0.00    -0.01  -0.03  -0.00
     7   6     0.30   0.02  -0.00     0.03   0.01  -0.00    -0.08   0.04   0.00
     8   1     0.03  -0.62  -0.02    -0.02  -0.07  -0.01     0.53  -0.23   0.39
     9   1     0.03  -0.62   0.02    -0.02  -0.07   0.01     0.53  -0.23  -0.39
                     16                     17                     18
                     A'                     A'                     A'
 Frequencies --   1574.6649              1774.7576              3029.3279
 Red. masses --      6.3260                 8.4868                 1.0472
 Frc consts  --      9.2418                15.7497                 5.6618
 IR Inten    --      7.7360                51.5301                50.1717
  Atom  AN      X      Y      Z        X      Y      Z        X      Y      Z
     1   6     0.43  -0.21   0.00    -0.22  -0.04   0.00     0.00  -0.00   0.00
     2   1     0.29   0.21  -0.00    -0.10  -0.38  -0.00    -0.00  -0.00   0.00
     3   6    -0.41   0.17   0.00     0.15  -0.04  -0.00    -0.00  -0.00   0.00
     4   1    -0.54   0.09  -0.00     0.23  -0.10   0.00     0.00  -0.00  -0.00
     5   6     0.07   0.13  -0.00     0.22   0.57  -0.00     0.00   0.00  -0.00
     6   6    -0.11  -0.13   0.00    -0.23  -0.42   0.00    -0.00  -0.00   0.00
     7   6     0.07   0.01  -0.00     0.08  -0.03  -0.00     0.06  -0.02   0.00
     8   1    -0.17  -0.01  -0.14    -0.14   0.04  -0.17    -0.34   0.12   0.61
     9   1    -0.17  -0.01   0.14    -0.14   0.04   0.17    -0.34   0.12  -0.61
                     19                     20                     21
                     A"                     A'                     A'
 Frequencies --   3100.7159              3165.9938              3267.1781
 Red. masses --      1.1182                 1.0940                 1.1056
 Frc consts  --      6.3341                 6.4608                 6.9531
 IR Inten    --     19.2201                10.3406                17.4968
  Atom  AN      X      Y      Z        X      Y      Z        X      Y      Z
     1   6     0.00   0.00  -0.00    -0.08  -0.04  -0.00     0.01  -0.01  -0.00
     2   1    -0.00  -0.00   0.00     0.89   0.44   0.00    -0.04  -0.02   0.00
     3   6     0.00   0.00   0.00     0.00  -0.00   0.00    -0.09  -0.02   0.00
     4   1    -0.00  -0.00  -0.00     0.06   0.00  -0.00     0.96   0.27   0.00
     5   6    -0.00  -0.00   0.00     0.00   0.00   0.00     0.00  -0.00   0.00
     6   6     0.00   0.00  -0.00    -0.00   0.00   0.00    -0.00   0.00   0.00
     7   6     0.00  -0.00  -0.10     0.00   0.00  -0.00     0.00   0.00  -0.00
     8   1    -0.36   0.13   0.59    -0.00  -0.00   0.00     0.00  -0.00  -0.00
     9   1     0.36  -0.13   0.59    -0.00  -0.00  -0.00     0.00  -0.00   0.00

 -------------------
 - Thermochemistry -
 -------------------
 Temperature   298.150 Kelvin.  Pressure   1.00000 Atm.
 Atom     1 has atomic number  6 and mass  12.00000
 Atom     2 has atomic number  1 and mass   1.00783
 Atom     3 has atomic number  6 and mass  12.00000
 Atom     4 has atomic number  1 and mass   1.00783
 Atom     5 has atomic number  6 and mass  12.00000
 Atom     6 has atomic number  6 and mass  12.00000
 Atom     7 has atomic number  6 and mass  12.00000
 Atom     8 has atomic number  1 and mass   1.00783
 Atom     9 has atomic number  1 and mass   1.00783
 Molecular mass:    64.03130 amu.
 Principal axes and moments of inertia in atomic units:
                           1         2         3
     Eigenvalues --    92.17108 469.53904 549.62608
           X           -0.33520   0.94215   0.00000
           Y            0.94215   0.33520   0.00000
           Z            0.00000   0.00000   1.00000
 This molecule is an asymmetric top.
 Rotational symmetry number  1.
 Rotational temperatures (Kelvin)      0.93971     0.18447     0.15759
 Rotational constants (GHZ):          19.58034     3.84364     3.28358
    1 imaginary frequencies ignored.
 Zero-point vibrational energy     161069.6 (Joules/Mol)
                                   38.49656 (Kcal/Mol)
 Warning -- explicit consideration of   5 degrees of freedom as
           vibrations may cause significant error
 Vibrational temperatures:    344.83   363.39   452.48   482.47   629.16
          (Kelvin)           1087.07  1117.33  1313.00  1336.50  1526.57
                             1552.39  1621.56  1843.29  2179.67  2265.59
                             2553.48  4358.52  4461.23  4555.15  4700.73
 
 Zero-point correction=                           0.061348 (Hartree/Particle)
 Thermal correction to Energy=                    0.066598
 Thermal correction to Enthalpy=                  0.067542
 Thermal correction to Gibbs Free Energy=         0.033819
 Sum of electronic and zero-point Energies=           -192.630415
 Sum of electronic and thermal Energies=              -192.625165
 Sum of electronic and thermal Enthalpies=            -192.624221
 Sum of electronic and thermal Free Energies=         -192.657944
 
                     E (Thermal)             CV                S
                      KCal/Mol        Cal/Mol-Kelvin    Cal/Mol-Kelvin
 Total                   41.791             17.687             70.975
 Electronic               0.000              0.000              0.000
 Translational            0.889              2.981             38.389
 Rotational               0.889              2.981             24.679
 Vibrational             40.013             11.725              7.907
 Vibration     1          0.657              1.780              1.805
 Vibration     2          0.664              1.758              1.713
 Vibration     3          0.702              1.646              1.339
 Vibration     4          0.716              1.605              1.234
 Vibration     5          0.798              1.389              0.835
                       Q            Log10(Q)             Ln(Q)
 Total Bot       0.278080D-15        -15.555831        -35.818624
 Total V=0       0.459527D+13         12.662311         29.156049
 Vib (Bot)       0.250099D-27        -27.601888        -63.555696
 Vib (Bot)    1  0.818254D+00         -0.087112         -0.200583
 Vib (Bot)    2  0.771801D+00         -0.112495         -0.259029
 Vib (Bot)    3  0.599693D+00         -0.222071         -0.511338
 Vib (Bot)    4  0.555362D+00         -0.255424         -0.588135
 Vib (Bot)    5  0.396177D+00         -0.402110         -0.925893
 Vib (V=0)       0.413289D+01          0.616254          1.418978
 Vib (V=0)    1  0.145893D+01          0.164033          0.377701
 Vib (V=0)    2  0.141961D+01          0.152168          0.350380
 Vib (V=0)    3  0.128079D+01          0.107478          0.247476
 Vib (V=0)    4  0.124728D+01          0.095964          0.220965
 Vib (V=0)    5  0.113793D+01          0.056116          0.129212
 Electronic      0.100000D+01          0.000000          0.000000
 Translational   0.201393D+08          7.304044         16.818182
 Rotational      0.552094D+05          4.742013         10.918889
 
                                                              b3lyp opt
                                                             IR Spectrum
 
     3   3  3  3                                                1      1  1        1     111                                         
     2   1  1  0                                                7      5  5        2     100    99    77            4  33 22         
     6   6  0  2                                                7      7  1        8     276    21    75            3  31 54         
     7   6  1  9                                                5      5  5        1     791    93    76            7  54 30         
 
     X   X  X  X                                                X      X  X        X     XXX    XX    XX            X  XX XX         
                                                                                                X     X             X   X XX         
                                                                                                X     X             X   X            
                                                                                                                    X   X            
                                                                                                                    X   X            
                                                                                                                    X                
                                                                                                                    X                
                                                                                                                    X                
                                                                                                                    X                
                                                                                                                    X                
                                                                                                                    X                
                                                                                                                    X                
                                                                                                                    X                
                                                                                                                    X                
                                                                                                                    X                
                                                                                                                    X                
                                                                                                                    X                
                                                                                                                    X                
                                                                                                                    X                
                                                                                                                    X                
 
 ***** Axes restored to original set *****
 -------------------------------------------------------------------
 Center     Atomic                   Forces (Hartrees/Bohr)
 Number     Number              X              Y              Z
 -------------------------------------------------------------------
      1        6          -0.000194929    0.000186244   -0.000000000
      2        1           0.000015172   -0.000119853    0.000000000
      3        6           0.000061927   -0.000055255    0.000000000
      4        1           0.000057666   -0.000007969   -0.000000000
      5        6           0.000249162   -0.000377202    0.000000000
      6        6          -0.000130704    0.000353676   -0.000000000
      7        6           0.000017014    0.000074425   -0.000000000
      8        1          -0.000037653   -0.000027033    0.000009388
      9        1          -0.000037653   -0.000027033   -0.000009388
 -------------------------------------------------------------------
 Cartesian Forces:  Max     0.000377202 RMS     0.000129728
 Z-matrix is all fixed cartesians, so copy forces.
 Force constants in Cartesian coordinates: 
                1             2             3             4             5 
      1  0.861277D+00
      2 -0.316035D-01  0.451937D+00
      3  0.000000D+00  0.000000D+00  0.864024D-01
      4 -0.272755D+00  0.116810D+00  0.000000D+00  0.293679D+00
      5  0.113970D+00 -0.105747D+00  0.000000D+00 -0.118616D+00  0.114909D+00
      6  0.000000D+00  0.000000D+00 -0.322604D-01  0.000000D+00  0.000000D+00
      7 -0.520386D+00 -0.148941D+00  0.000000D+00 -0.262168D-01 -0.157927D-01
      8 -0.157429D+00 -0.860936D-01  0.000000D+00  0.119207D-02  0.142716D-01
      9  0.000000D+00  0.000000D+00 -0.248212D-01  0.000000D+00  0.000000D+00
     10 -0.817282D-02  0.149225D-01  0.000000D+00 -0.105792D-02 -0.278396D-02
     11 -0.288459D-01 -0.953517D-02  0.000000D+00  0.175087D-02 -0.946067D-03
     12  0.000000D+00  0.000000D+00 -0.205587D-02  0.000000D+00  0.000000D+00
     13 -0.688496D-01  0.722468D-01  0.000000D+00  0.629001D-02  0.228051D-01
     14  0.139981D+00 -0.182790D+00  0.000000D+00  0.438401D-03 -0.283576D-01
     15  0.000000D+00  0.000000D+00 -0.495619D-01  0.000000D+00  0.000000D+00
     16 -0.179127D-02 -0.361224D-01  0.000000D+00 -0.153395D-02  0.115491D-02
     17 -0.230587D-01 -0.366715D-01  0.000000D+00 -0.932848D-03  0.341758D-02
     18  0.000000D+00  0.000000D+00  0.215461D-01  0.000000D+00  0.000000D+00
     19  0.111307D-01  0.148288D-01  0.000000D+00  0.190005D-02 -0.248441D-03
     20 -0.183713D-01 -0.393084D-01  0.000000D+00 -0.109802D-02  0.373169D-02
     21  0.000000D+00  0.000000D+00  0.437735D-02  0.000000D+00  0.000000D+00
     22 -0.226405D-03 -0.107054D-02 -0.209269D-02 -0.152471D-03 -0.244449D-03
     23  0.267883D-02  0.410434D-02  0.895644D-02  0.227395D-03 -0.639810D-03
     24 -0.108326D-02 -0.125309D-02 -0.181320D-02 -0.194809D-03 -0.241177D-04
     25 -0.226405D-03 -0.107054D-02  0.209269D-02 -0.152471D-03 -0.244449D-03
     26  0.267883D-02  0.410434D-02 -0.895644D-02  0.227395D-03 -0.639810D-03
     27  0.108326D-02  0.125309D-02 -0.181320D-02  0.194809D-03  0.241177D-04
                6             7             8             9            10 
      6  0.199062D-01
      7  0.000000D+00  0.887821D+00
      8  0.000000D+00  0.899283D-01  0.146077D+00
      9 -0.447403D-02  0.000000D+00  0.000000D+00  0.419085D-01
     10  0.000000D+00 -0.339165D+00  0.765456D-01  0.000000D+00  0.347685D+00
     11  0.000000D+00  0.119710D+00 -0.336070D-01  0.000000D+00 -0.911288D-01
     12  0.107558D-01  0.000000D+00  0.000000D+00 -0.205671D-01  0.000000D+00
     13  0.000000D+00 -0.158357D-01 -0.432871D-01  0.000000D+00  0.353251D-02
     14  0.000000D+00 -0.750043D-01 -0.282952D-01  0.000000D+00  0.849072D-05
     15  0.423675D-02  0.000000D+00  0.000000D+00  0.237421D-01  0.000000D+00
     16  0.000000D+00  0.182168D-01  0.306947D-01  0.000000D+00 -0.360567D-02
     17  0.000000D+00  0.176701D-01 -0.324851D-01  0.000000D+00  0.527743D-02
     18  0.916501D-03  0.000000D+00  0.000000D+00 -0.216623D-01  0.000000D+00
     19  0.000000D+00 -0.573547D-02  0.236086D-02  0.000000D+00  0.831222D-03
     20  0.000000D+00  0.156943D-01  0.199272D-01  0.000000D+00 -0.294167D-02
     21  0.965942D-03  0.000000D+00  0.000000D+00  0.413055D-02  0.000000D+00
     22 -0.621623D-04  0.650854D-03 -0.274301D-05  0.406308D-02 -0.233240D-04
     23  0.679125D-03 -0.163229D-02  0.102736D-03 -0.120207D-01  0.501865D-04
     24 -0.233241D-04  0.605846D-03 -0.226038D-03  0.871675D-03 -0.109554D-04
     25  0.621623D-04  0.650854D-03 -0.274309D-05 -0.406308D-02 -0.233239D-04
     26 -0.679125D-03 -0.163229D-02  0.102736D-03  0.120207D-01  0.501865D-04
     27 -0.233241D-04 -0.605846D-03  0.226038D-03  0.871675D-03  0.109552D-04
               11            12            13            14            15 
     11  0.401685D-01
     12  0.000000D+00  0.133101D-01
     13  0.112446D-01  0.000000D+00  0.250940D+00
     14  0.448569D-02  0.000000D+00 -0.234665D+00  0.761383D+00
     15  0.000000D+00 -0.741755D-02  0.000000D+00  0.000000D+00  0.643574D-01
     16 -0.149914D-01  0.000000D+00 -0.836014D-01  0.250503D+00  0.000000D+00
     17  0.775014D-02  0.000000D+00  0.218040D+00 -0.478726D+00  0.000000D+00
     18  0.000000D+00  0.928807D-02  0.000000D+00  0.000000D+00 -0.199996D-01
     19  0.327253D-02  0.000000D+00 -0.770340D-01 -0.875211D-01  0.000000D+00
     20 -0.943205D-02  0.000000D+00 -0.989365D-02 -0.340913D-01  0.000000D+00
     21  0.000000D+00 -0.282696D-02  0.000000D+00  0.000000D+00 -0.273789D-01
     22 -0.506085D-03 -0.143170D-02 -0.772083D-02  0.312971D-02 -0.613596D-02
     23  0.557937D-03  0.400722D-02 -0.182458D-01 -0.680438D-02 -0.720359D-02
     24 -0.216032D-03 -0.243254D-03  0.148656D-02  0.306710D-02  0.601087D-02
     25 -0.506085D-03  0.143170D-02 -0.772083D-02  0.312971D-02  0.613596D-02
     26  0.557937D-03 -0.400722D-02 -0.182458D-01 -0.680438D-02  0.720359D-02
     27  0.216032D-03 -0.243254D-03 -0.148656D-02 -0.306710D-02  0.601087D-02
               16            17            18            19            20 
     16  0.333806D+00
     17 -0.169024D+00  0.552065D+00
     18  0.000000D+00  0.000000D+00  0.405171D-01
     19 -0.232863D+00 -0.236189D-01  0.000000D+00  0.518273D+00
     20 -0.618283D-01 -0.158877D-01  0.000000D+00  0.128672D+00  0.168812D+00
     21  0.000000D+00  0.000000D+00 -0.439301D-01  0.000000D+00  0.000000D+00
     22 -0.143142D-01 -0.121769D-01 -0.184275D-01 -0.108251D+00 -0.251169D-01
     23 -0.193224D-03  0.268920D-03  0.261883D-02 -0.188731D-01 -0.468757D-01
     24 -0.187915D-02 -0.119262D-02  0.666211D-02 -0.102756D+00 -0.354401D-01
     25 -0.143142D-01 -0.121769D-01  0.184275D-01 -0.108251D+00 -0.251169D-01
     26 -0.193224D-03  0.268920D-03 -0.261883D-02 -0.188731D-01 -0.468757D-01
     27  0.187915D-02  0.119262D-02  0.666211D-02  0.102756D+00  0.354401D-01
               21            22            23            24            25 
     21  0.563730D+00
     22 -0.104153D+00  0.120525D+00
     23 -0.419452D-01  0.359140D-01  0.349324D-01
     24 -0.249534D+00  0.116036D+00  0.400964D-01  0.256547D+00
     25  0.104153D+00  0.951236D-02  0.739693D-04 -0.122041D-01  0.120525D+00
     26  0.419452D-01  0.739693D-04  0.143536D-01 -0.481151D-02  0.359140D-01
     27 -0.249534D+00  0.122041D-01  0.481151D-02 -0.184780D-01 -0.116036D+00
               26            27 
     26  0.349324D-01
     27 -0.400964D-01  0.256547D+00
 Leave Link  716 at Mon Jun 20 11:22:42 2016, MaxMem=    33554432 cpu:         0.1
 (Enter /home/proyectos/fulerenos/M3C-v1.9/M3C-deps_CCC/g09-AM64L-G09RevC.01/l103.exe)

 GradGradGradGradGradGradGradGradGradGradGradGradGradGradGradGradGradGrad
 Berny optimization.
 Search for a local minimum.
 Step number   1 out of a maximum of    2
 All quantities printed in internal units (Hartrees-Bohrs-Radians)
 Second derivative matrix not updated -- analytic derivatives used.
 ITU=  0
     Eigenvalues ---   -0.00339   0.00376   0.00731   0.01387   0.02476
     Eigenvalues ---    0.04062   0.05215   0.09104   0.09826   0.10850
     Eigenvalues ---    0.15167   0.15615   0.17787   0.27946   0.31028
     Eigenvalues ---    0.48233   0.71955   0.76084   0.76876   1.33003
     Eigenvalues ---    1.57599
 Eigenvalue     1 is  -3.39D-03 should be greater than     0.000000 Eigenvector:
                          Z2        Y8        Y9        Z4        X8
   1                    0.39851  -0.34564   0.34564  -0.33346   0.30165
                          X9        Z8        Z9        Z3        Z1
   1                   -0.30165  -0.25081  -0.25081  -0.23706   0.21956
 Angle between quadratic step and forces=  72.55 degrees.
 ClnCor:  largest displacement from symmetrization is 1.91D-11 for atom     9.
 Linear search not attempted -- first point.
 ClnCor:  largest displacement from symmetrization is 3.58D-15 for atom     4.
 B after Tr=     0.000137    0.000050    0.000000
         Rot=    1.000000    0.000000    0.000000   -0.000003 Ang=  -0.00 deg.
 Variable       Old X    -DE/DX   Delta X   Delta X   Delta X     New X
                                 (Linear)    (Quad)   (Total)
    X1       -0.36690  -0.00019   0.00000  -0.00044  -0.00032  -0.36722
    Y1        2.37046   0.00019   0.00000  -0.00017  -0.00013   2.37033
    Z1        0.00000  -0.00000   0.00000   0.00000  -0.00000  -0.00000
    X2       -2.18970   0.00002   0.00000  -0.00127  -0.00115  -2.19085
    Y2        3.29172  -0.00012   0.00000  -0.00234  -0.00230   3.28942
    Z2        0.00000   0.00000   0.00000   0.00000  -0.00000  -0.00000
    X3        1.87804   0.00006   0.00000  -0.00023  -0.00011   1.87793
    Y3        3.39426  -0.00006   0.00000  -0.00058  -0.00052   3.39375
    Z3        0.00000   0.00000   0.00000   0.00000   0.00000   0.00000
    X4        3.82367   0.00006   0.00000  -0.00009   0.00003   3.82370
    Y4        2.80176  -0.00001   0.00000  -0.00054  -0.00047   2.80129
    Z4        0.00000  -0.00000   0.00000   0.00000   0.00000   0.00000
    X5       -0.00000   0.00025   0.00000   0.00110   0.00123   0.00123
    Y5       -0.32438  -0.00038   0.00000  -0.00020  -0.00015  -0.32454
    Z5        0.00000   0.00000   0.00000   0.00000   0.00000   0.00000
    X6        0.94794  -0.00013   0.00000   0.00035   0.00050   0.94845
    Y6       -2.56630   0.00035   0.00000   0.00012   0.00018  -2.56613
    Z6        0.00000  -0.00000   0.00000   0.00000   0.00000   0.00000
    X7       -1.78581   0.00002   0.00000   0.00007   0.00022  -1.78559
    Y7       -2.82375   0.00007   0.00000   0.00114   0.00118  -2.82257
    Z7        0.00000  -0.00000   0.00000   0.00000  -0.00000  -0.00000
    X8       -2.83679  -0.00004   0.00000  -0.00036  -0.00020  -2.83699
    Y8       -3.19760  -0.00003   0.00000   0.00107   0.00111  -3.19649
    Z8       -1.73134   0.00001   0.00000   0.00020   0.00020  -1.73114
    X9       -2.83679  -0.00004   0.00000  -0.00036  -0.00020  -2.83699
    Y9       -3.19760  -0.00003   0.00000   0.00107   0.00111  -3.19649
    Z9        1.73134  -0.00001   0.00000  -0.00020  -0.00020   1.73114
         Item               Value     Threshold  Converged?
 Maximum Force            0.000377     0.000450     YES
 RMS     Force            0.000130     0.000300     YES
 Maximum Displacement     0.002303     0.001800     NO 
 RMS     Displacement     0.000697     0.001200     YES
 Predicted change in Energy=-3.688986D-07
 GradGradGradGradGradGradGradGradGradGradGradGradGradGradGradGradGradGrad

 Leave Link  103 at Mon Jun 20 11:22:42 2016, MaxMem=    33554432 cpu:         0.1
 (Enter /home/proyectos/fulerenos/M3C-v1.9/M3C-deps_CCC/g09-AM64L-G09RevC.01/l9999.exe)
 1\1\GINC-BELVIS4\Freq\RB3LYP\6-311++G(3df,2p)\C5H4\ROOT\20-Jun-2016\0\
 \#p b3lyp/6-311++G(3df,2p) freq symmetry=Loose\\b3lyp opt\\0,1\C,-0.19
 4156,1.254392,0.\H,-1.15874,1.741904,0.\C,0.993815,1.796166,0.\H,2.023
 4,1.482626,0.\C,0.,-0.171656,0.\C,0.50163,-1.358029,0.\C,-0.945011,-1.
 494264,0.\H,-1.501165,-1.692095,-0.916188\H,-1.501165,-1.692095,0.9161
 88\\Version=EM64L-G09RevE.01\State=1-A'\HF=-192.6917632\RMSD=4.163e-09
 \RMSF=1.297e-04\ZeroPoint=0.0613482\Thermal=0.0665977\Dipole=-0.762697
 ,0.1683697,0.\DipoleDeriv=0.2463216,-0.062174,0.,0.0448997,0.9787581,0
 .,0.,0.,0.1300694,-0.0119592,0.0872131,0.,0.047718,0.0545748,0.,0.,0.,
 0.1259324,-0.2143612,-0.5124808,0.,-0.2939981,-1.6680415,0.,0.,0.,-0.3
 945725,0.1733734,0.2119893,0.,0.2014565,0.6378204,0.,0.,0.,0.2774528,-
 0.6184315,-0.9086364,0.,-0.3651439,-0.3815955,0.,0.,0.,0.0603927,0.100
 9289,1.6511131,0.,-0.1656599,-0.8995725,0.,0.,0.,-0.4241635,0.3953041,
 -0.2869285,0.,0.7157072,1.2614982,0.,0.,0.,0.3360764,-0.035588,-0.0900
 479,-0.0206033,-0.0924897,0.008279,-0.1352911,-0.1051109,-0.0268413,-0
 .0555939,-0.035588,-0.0900479,0.0206033,-0.0924897,0.008279,0.1352911,
 0.1051109,0.0268413,-0.0555939\Polar=63.5066778,21.5600115,133.7901539
 ,0.,0.,43.1412348\PG=CS [SG(C5H2),X(H2)]\NImag=1\\0.86127719,-0.031603
 49,0.45193681,0.,0.,0.08640240,-0.27275510,0.11681042,0.,0.29367865,0.
 11396959,-0.10574686,0.,-0.11861568,0.11490928,0.,0.,-0.03226044,0.,0.
 ,0.01990615,-0.52038630,-0.14894147,0.,-0.02621680,-0.01579266,0.,0.88
 782107,-0.15742896,-0.08609363,0.,0.00119207,0.01427163,0.,0.08992831,
 0.14607659,0.,0.,-0.02482117,0.,0.,-0.00447403,0.,0.,0.04190854,-0.008
 17282,0.01492253,0.,-0.00105792,-0.00278396,0.,-0.33916536,0.07654560,
 0.,0.34768469,-0.02884590,-0.00953517,0.,0.00175087,-0.00094607,0.,0.1
 1971032,-0.03360697,0.,-0.09112879,0.04016855,0.,0.,-0.00205587,0.,0.,
 0.01075578,0.,0.,-0.02056709,0.,0.,0.01331012,-0.06884960,0.07224675,0
 .,0.00629001,0.02280514,0.,-0.01583569,-0.04328707,0.,0.00353251,0.011
 24456,0.,0.25093984,0.13998108,-0.18278992,0.,0.00043840,-0.02835763,0
 .,-0.07500430,-0.02829523,0.,0.00000849,0.00448569,0.,-0.23466459,0.76
 138324,0.,0.,-0.04956194,0.,0.,0.00423675,0.,0.,0.02374214,0.,0.,-0.00
 741755,0.,0.,0.06435735,-0.00179127,-0.03612242,0.,-0.00153395,0.00115
 491,0.,0.01821683,0.03069469,0.,-0.00360567,-0.01499143,0.,-0.08360144
 ,0.25050257,0.,0.33380643,-0.02305866,-0.03667151,0.,-0.00093285,0.003
 41758,0.,0.01767008,-0.03248508,0.,0.00527743,0.00775014,0.,0.21804037
 ,-0.47872611,0.,-0.16902362,0.55206488,0.,0.,0.02154605,0.,0.,0.000916
 50,0.,0.,-0.02166228,0.,0.,0.00928807,0.,0.,-0.01999957,0.,0.,0.040517
 08,0.01113070,0.01482876,0.,0.00190005,-0.00024844,0.,-0.00573547,0.00
 236086,0.,0.00083122,0.00327253,0.,-0.07703397,-0.08752108,0.,-0.23286
 252,-0.02361886,0.,0.51827258,-0.01837131,-0.03930841,0.,-0.00109802,0
 .00373169,0.,0.01569430,0.01992722,0.,-0.00294167,-0.00943205,0.,-0.00
 989365,-0.03409129,0.,-0.06182826,-0.01588774,0.,0.12867243,0.16881201
 ,0.,0.,0.00437735,0.,0.,0.00096594,0.,0.,0.00413055,0.,0.,-0.00282696,
 0.,0.,-0.02737891,0.,0.,-0.04393006,0.,0.,0.56372967,-0.00022640,-0.00
 107054,-0.00209269,-0.00015247,-0.00024445,-0.00006216,0.00065085,-0.0
 0000274,0.00406308,-0.00002332,-0.00050609,-0.00143170,-0.00772083,0.0
 0312971,-0.00613596,-0.01431420,-0.01217695,-0.01842754,-0.10825130,-0
 .02511691,-0.10415272,0.12052531,0.00267883,0.00410434,0.00895644,0.00
 022739,-0.00063981,0.00067912,-0.00163229,0.00010274,-0.01202066,0.000
 05019,0.00055794,0.00400722,-0.01824576,-0.00680438,-0.00720359,-0.000
 19322,0.00026892,0.00261883,-0.01887310,-0.04687572,-0.04194524,0.0359
 1399,0.03493237,-0.00108326,-0.00125309,-0.00181320,-0.00019481,-0.000
 02412,-0.00002332,0.00060585,-0.00022604,0.00087167,-0.00001096,-0.000
 21603,-0.00024325,0.00148656,0.00306710,0.00601087,-0.00187915,-0.0011
 9262,0.00666211,-0.10275582,-0.03544006,-0.24953379,0.11603564,0.04009
 637,0.25654687,-0.00022640,-0.00107054,0.00209269,-0.00015247,-0.00024
 445,0.00006216,0.00065085,-0.00000274,-0.00406308,-0.00002332,-0.00050
 609,0.00143170,-0.00772083,0.00312971,0.00613596,-0.01431420,-0.012176
 95,0.01842754,-0.10825130,-0.02511691,0.10415272,0.00951236,0.00007397
 ,-0.01220406,0.12052531,0.00267883,0.00410434,-0.00895644,0.00022739,-
 0.00063981,-0.00067912,-0.00163229,0.00010274,0.01202066,0.00005019,0.
 00055794,-0.00400722,-0.01824576,-0.00680438,0.00720359,-0.00019322,0.
 00026892,-0.00261883,-0.01887310,-0.04687572,0.04194524,0.00007397,0.0
 1435360,-0.00481151,0.03591399,0.03493237,0.00108326,0.00125309,-0.001
 81320,0.00019481,0.00002412,-0.00002332,-0.00060585,0.00022604,0.00087
 167,0.00001096,0.00021603,-0.00024325,-0.00148656,-0.00306710,0.006010
 87,0.00187915,0.00119262,0.00666211,0.10275582,0.03544006,-0.24953379,
 0.01220406,0.00481151,-0.01847796,-0.11603564,-0.04009637,0.25654687\\
 0.00019493,-0.00018624,0.,-0.00001517,0.00011985,0.,-0.00006193,0.0000
 5526,0.,-0.00005767,0.00000797,0.,-0.00024916,0.00037720,0.,0.00013070
 ,-0.00035368,0.,-0.00001701,-0.00007443,0.,0.00003765,0.00002703,-0.00
 000939,0.00003765,0.00002703,0.00000939\\\@


 SCIENCE AT ITS BEST PROVIDES US WITH BETTER QUESTIONS, 
 NOT ABSOLUTE ANSWERS

                                    -- NORMAN COUSINS, 1976
 Job cpu time:       0 days  0 hours 29 minutes  7.2 seconds.
 File lengths (MBytes):  RWF=     44 Int=      0 D2E=      0 Chk=      4 Scr=      1
 Normal termination of Gaussian 09 at Mon Jun 20 11:22:42 2016.
