 Entering Gaussian System, Link 0=/home/proyectos/fulerenos/M3C-v1.9/M3C-deps_CCC/g09-AM64L-G09RevC.01/g09
 Initial command:
 /home/proyectos/fulerenos/M3C-v1.9/M3C-deps_CCC/g09-AM64L-G09RevC.01/l1.exe "/scratch/naguirre/gaussian/Gau-9911.inp" -scrdir="/scratch/naguirre/gaussian/"
 Entering Link 1 = /home/proyectos/fulerenos/M3C-v1.9/M3C-deps_CCC/g09-AM64L-G09RevC.01/l1.exe PID=      9916.
  
 Copyright (c) 1988,1990,1992,1993,1995,1998,2003,2009,2015,
            Gaussian, Inc.  All Rights Reserved.
  
 This is part of the Gaussian(R) 09 program.  It is based on
 the Gaussian(R) 03 system (copyright 2003, Gaussian, Inc.),
 the Gaussian(R) 98 system (copyright 1998, Gaussian, Inc.),
 the Gaussian(R) 94 system (copyright 1995, Gaussian, Inc.),
 the Gaussian 92(TM) system (copyright 1992, Gaussian, Inc.),
 the Gaussian 90(TM) system (copyright 1990, Gaussian, Inc.),
 the Gaussian 88(TM) system (copyright 1988, Gaussian, Inc.),
 the Gaussian 86(TM) system (copyright 1986, Carnegie Mellon
 University), and the Gaussian 82(TM) system (copyright 1983,
 Carnegie Mellon University). Gaussian is a federally registered
 trademark of Gaussian, Inc.
  
 This software contains proprietary and confidential information,
 including trade secrets, belonging to Gaussian, Inc.
  
 This software is provided under written license and may be
 used, copied, transmitted, or stored only in accord with that
 written license.
  
 The following legend is applicable only to US Government
 contracts under FAR:
  
                    RESTRICTED RIGHTS LEGEND
  
 Use, reproduction and disclosure by the US Government is
 subject to restrictions as set forth in subparagraphs (a)
 and (c) of the Commercial Computer Software - Restricted
 Rights clause in FAR 52.227-19.
  
 Gaussian, Inc.
 340 Quinnipiac St., Bldg. 40, Wallingford CT 06492
  
  
 ---------------------------------------------------------------
 Warning -- This program may not be used in any manner that
 competes with the business of Gaussian, Inc. or will provide
 assistance to any competitor of Gaussian, Inc.  The licensee
 of this program is prohibited from giving any competitor of
 Gaussian, Inc. access to this program.  By using this program,
 the user acknowledges that Gaussian, Inc. is engaged in the
 business of creating and licensing software in the field of
 computational chemistry and represents and warrants to the
 licensee that it is not a competitor of Gaussian, Inc. and that
 it will not use this program in any manner prohibited above.
 ---------------------------------------------------------------
  

 Cite this work as:
 Gaussian 09, Revision E.01,
 M. J. Frisch, G. W. Trucks, H. B. Schlegel, G. E. Scuseria, 
 M. A. Robb, J. R. Cheeseman, G. Scalmani, V. Barone, B. Mennucci, 
 G. A. Petersson, H. Nakatsuji, M. Caricato, X. Li, H. P. Hratchian, 
 A. F. Izmaylov, J. Bloino, G. Zheng, J. L. Sonnenberg, M. Hada, 
 M. Ehara, K. Toyota, R. Fukuda, J. Hasegawa, M. Ishida, T. Nakajima, 
 Y. Honda, O. Kitao, H. Nakai, T. Vreven, J. A. Montgomery, Jr., 
 J. E. Peralta, F. Ogliaro, M. Bearpark, J. J. Heyd, E. Brothers, 
 K. N. Kudin, V. N. Staroverov, T. Keith, R. Kobayashi, J. Normand, 
 K. Raghavachari, A. Rendell, J. C. Burant, S. S. Iyengar, J. Tomasi, 
 M. Cossi, N. Rega, J. M. Millam, M. Klene, J. E. Knox, J. B. Cross, 
 V. Bakken, C. Adamo, J. Jaramillo, R. Gomperts, R. E. Stratmann, 
 O. Yazyev, A. J. Austin, R. Cammi, C. Pomelli, J. W. Ochterski, 
 R. L. Martin, K. Morokuma, V. G. Zakrzewski, G. A. Voth, 
 P. Salvador, J. J. Dannenberg, S. Dapprich, A. D. Daniels, 
 O. Farkas, J. B. Foresman, J. V. Ortiz, J. Cioslowski, 
 and D. J. Fox, Gaussian, Inc., Wallingford CT, 2013.
 
 ******************************************
 Gaussian 09:  EM64L-G09RevE.01 30-Nov-2015
                20-Jun-2016 
 ******************************************
 %NProcShared=4
 Will use up to    4 processors via shared memory.
 ---------------------------------------------
 #p b3lyp/6-311++G(3df,2p) freq symmetry=Loose
 ---------------------------------------------
 1/10=4,30=1,38=1/1,3;
 2/12=2,17=4,18=3,40=1/2;
 3/5=4,6=6,7=1216,11=2,16=1,25=1,30=1,71=2,74=-5,140=1/1,2,3;
 4//1;
 5/5=2,38=5,98=1/2;
 8/6=4,10=90,11=11/1;
 11/6=1,8=1,9=11,15=111,16=1/1,2,10;
 10/6=1/2;
 6/7=2,8=2,9=2,10=2,18=1,28=1/1;
 7/8=1,10=1,25=1/1,2,3,16;
 1/10=4,30=1/3;
 99//99;
 Leave Link    1 at Mon Jun 20 11:40:01 2016, MaxMem=           0 cpu:         0.3
 (Enter /home/proyectos/fulerenos/M3C-v1.9/M3C-deps_CCC/g09-AM64L-G09RevC.01/l101.exe)
 ---------
 b3lyp opt
 ---------
 Symbolic Z-matrix:
 Charge =  2 Multiplicity = 1
 C                     0.06186  -0.35074  0. 
 H                     1.46912   1.38269   0.00001 
 C                     0.37724   1.06744  0. 
 C                    -0.16897   2.19841  -0.00001 
 H                    -0.5118    3.23418   0. 
 C                    -0.16885  -1.50266  -0.68444 
 H                    -0.27345  -2.03834  -1.62458 
 C                    -0.16886  -1.50266   0.68444 
 H                    -0.27345  -2.03834   1.62458 
 
 NAtoms=      9 NQM=        9 NQMF=       0 NMMI=      0 NMMIF=      0
                NMic=       0 NMicF=      0.
                    Isotopes and Nuclear Properties:
 (Nuclear quadrupole moments (NQMom) in fm**2, nuclear magnetic moments (NMagM)
  in nuclear magnetons)

  Atom         1           2           3           4           5           6           7           8           9
 IAtWgt=          12           1          12          12           1          12           1          12           1
 AtmWgt=  12.0000000   1.0078250  12.0000000  12.0000000   1.0078250  12.0000000   1.0078250  12.0000000   1.0078250
 NucSpn=           0           1           0           0           1           0           1           0           1
 AtZEff=   0.0000000   0.0000000   0.0000000   0.0000000   0.0000000   0.0000000   0.0000000   0.0000000   0.0000000
 NQMom=    0.0000000   0.0000000   0.0000000   0.0000000   0.0000000   0.0000000   0.0000000   0.0000000   0.0000000
 NMagM=    0.0000000   2.7928460   0.0000000   0.0000000   2.7928460   0.0000000   2.7928460   0.0000000   2.7928460
 AtZNuc=   6.0000000   1.0000000   6.0000000   6.0000000   1.0000000   6.0000000   1.0000000   6.0000000   1.0000000
 Leave Link  101 at Mon Jun 20 11:40:01 2016, MaxMem=    33554432 cpu:         0.2
 (Enter /home/proyectos/fulerenos/M3C-v1.9/M3C-deps_CCC/g09-AM64L-G09RevC.01/l103.exe)

 GradGradGradGradGradGradGradGradGradGradGradGradGradGradGradGradGradGrad
 Berny optimization.
 Initialization pass.
 Trust Radius=3.00D-01 FncErr=1.00D-07 GrdErr=1.00D-07
 Number of steps in this run=      2 maximum allowed number of steps=      2.
 GradGradGradGradGradGradGradGradGradGradGradGradGradGradGradGradGradGrad

 Leave Link  103 at Mon Jun 20 11:40:01 2016, MaxMem=    33554432 cpu:         0.1
 (Enter /home/proyectos/fulerenos/M3C-v1.9/M3C-deps_CCC/g09-AM64L-G09RevC.01/l202.exe)
                          Input orientation:                          
 ---------------------------------------------------------------------
 Center     Atomic      Atomic             Coordinates (Angstroms)
 Number     Number       Type             X           Y           Z
 ---------------------------------------------------------------------
      1          6           0        0.061864   -0.350741   -0.000001
      2          1           0        1.469120    1.382685    0.000006
      3          6           0        0.377239    1.067445   -0.000002
      4          6           0       -0.168971    2.198411   -0.000006
      5          1           0       -0.511803    3.234180    0.000003
      6          6           0       -0.168851   -1.502663   -0.684439
      7          1           0       -0.273454   -2.038341   -1.624575
      8          6           0       -0.168861   -1.502660    0.684438
      9          1           0       -0.273445   -2.038340    1.624575
 ---------------------------------------------------------------------
                    Distance matrix (angstroms):
                    1          2          3          4          5
     1  C    0.000000
     2  H    2.232742   0.000000
     3  C    1.452829   1.136477   0.000000
     4  C    2.559582   1.829959   1.255958   0.000000
     5  H    3.630531   2.711474   2.342037   1.091032   0.000000
     6  C    1.359636   3.387720   2.715165   3.763827   4.798308
     7  H    2.366363   4.168842   3.564905   4.538745   5.522277
     8  C    1.359635   3.387720   2.715165   3.763827   4.798303
     9  H    2.366362   4.168833   3.564904   4.538748   5.522275
                    6          7          8          9
     6  C    0.000000
     7  H    1.087083   0.000000
     8  C    1.368877   2.372643   0.000000
     9  H    2.372643   3.249150   1.087083   0.000000
 Stoichiometry    C5H4(2+)
 Framework group  CS[SG(C3H2),X(C2H2)]
 Deg. of freedom    13
 Full point group                 CS      NOp   2
 Largest Abelian subgroup         CS      NOp   2
 Largest concise Abelian subgroup CS      NOp   2
                         Standard orientation:                         
 ---------------------------------------------------------------------
 Center     Atomic      Atomic             Coordinates (Angstroms)
 Number     Number       Type             X           Y           Z
 ---------------------------------------------------------------------
      1          6           0        0.000000    0.356099   -0.000000
      2          1           0       -1.686394   -1.107188    0.000000
      3          6           0       -0.556401   -0.985963    0.000000
      4          6           0       -0.214475   -2.194482    0.000000
      5          1           0       -0.056350   -3.273994    0.000000
      6          6           0        0.426875    1.450599   -0.684438
      7          1           0        0.622739    1.960040   -1.624575
      8          6           0        0.426875    1.450599    0.684438
      9          1           0        0.622739    1.960040    1.624575
 ---------------------------------------------------------------------
 Rotational constants (GHZ):     23.4880538      3.2914241      3.0600616
 Leave Link  202 at Mon Jun 20 11:40:01 2016, MaxMem=    33554432 cpu:         0.0
 (Enter /home/proyectos/fulerenos/M3C-v1.9/M3C-deps_CCC/g09-AM64L-G09RevC.01/l301.exe)
 Standard basis: 6-311++G(3df,2p) (5D, 7F)
 Ernie: Thresh=  0.10000D-02 Tol=  0.10000D-05 Strict=F.
 There are   164 symmetry adapted cartesian basis functions of A'  symmetry.
 There are   101 symmetry adapted cartesian basis functions of A"  symmetry.
 There are   143 symmetry adapted basis functions of A'  symmetry.
 There are    92 symmetry adapted basis functions of A"  symmetry.
   235 basis functions,   338 primitive gaussians,   265 cartesian basis functions
    16 alpha electrons       16 beta electrons
       nuclear repulsion energy       131.2927812592 Hartrees.
 IExCor=  402 DFT=T Ex+Corr=B3LYP ExCW=0 ScaHFX=  0.200000
 ScaDFX=  0.800000  0.720000  1.000000  0.810000 ScalE2=  1.000000  1.000000
 IRadAn=      0 IRanWt=     -1 IRanGd=            0 ICorTp=0 IEmpDi=  4
 NAtoms=    9 NActive=    9 NUniq=    7 SFac= 1.65D+00 NAtFMM=   60 NAOKFM=F Big=F
 Integral buffers will be    131072 words long.
 Raffenetti 2 integral format.
 Two-electron integral symmetry is turned on.
 Leave Link  301 at Mon Jun 20 11:40:01 2016, MaxMem=    33554432 cpu:         0.2
 (Enter /home/proyectos/fulerenos/M3C-v1.9/M3C-deps_CCC/g09-AM64L-G09RevC.01/l302.exe)
 NPDir=0 NMtPBC=     1 NCelOv=     1 NCel=       1 NClECP=     1 NCelD=      1
         NCelK=      1 NCelE2=     1 NClLst=     1 CellRange=     0.0.
 One-electron integrals computed using PRISM.
 One-electron integral symmetry used in STVInt
 NBasis=   235 RedAO= T EigKep=  6.08D-06  NBF=   143    92
 NBsUse=   235 1.00D-06 EigRej= -1.00D+00 NBFU=   143    92
 Precomputing XC quadrature grid using
 IXCGrd= 4 IRadAn=           0 IRanWt=          -1 IRanGd=           0 AccXCQ= 0.00D+00.
 Generated NRdTot=       0 NPtTot=           0 NUsed=           0 NTot=          32
 NSgBfM=   265   265   265   265   265 MxSgAt=     9 MxSgA2=     9.
 Leave Link  302 at Mon Jun 20 11:40:01 2016, MaxMem=    33554432 cpu:         1.1
 (Enter /home/proyectos/fulerenos/M3C-v1.9/M3C-deps_CCC/g09-AM64L-G09RevC.01/l303.exe)
 DipDrv:  MaxL=1.
 Leave Link  303 at Mon Jun 20 11:40:01 2016, MaxMem=    33554432 cpu:         0.1
 (Enter /home/proyectos/fulerenos/M3C-v1.9/M3C-deps_CCC/g09-AM64L-G09RevC.01/l401.exe)
 ExpMin= 3.60D-02 ExpMax= 4.56D+03 ExpMxC= 6.82D+02 IAcc=3 IRadAn=         5 AccDes= 0.00D+00
 Harris functional with IExCor=  402 and IRadAn=       5 diagonalized for initial guess.
 HarFok:  IExCor=  402 AccDes= 0.00D+00 IRadAn=         5 IDoV= 1 UseB2=F ITyADJ=14
 ICtDFT=  3500011 ScaDFX=  1.000000  1.000000  1.000000  1.000000
 FoFCou: FMM=F IPFlag=           0 FMFlag=      100000 FMFlg1=           0
         NFxFlg=           0 DoJE=T BraDBF=F KetDBF=T FulRan=T
         wScrn=  0.000000 ICntrl=     500 IOpCl=  0 I1Cent=   200000004 NGrid=           0
         NMat0=    1 NMatS0=      1 NMatT0=    0 NMatD0=    1 NMtDS0=    0 NMtDT0=    0
 Petite list used in FoFCou.
 Harris En= -192.324704373647    
 JPrj=0 DoOrth=F DoCkMO=F.
 Initial guess orbital symmetries:
       Occupied  (A') (A') (A") (A') (A') (A') (A') (A') (A") (A')
                 (A') (A') (A") (A') (A') (A")
       Virtual   (A') (A") (A') (A") (A') (A') (A') (A") (A') (A')
                 (A') (A") (A') (A") (A") (A') (A") (A') (A') (A')
                 (A') (A") (A") (A') (A') (A") (A') (A') (A") (A')
                 (A") (A') (A') (A') (A") (A') (A") (A') (A') (A')
                 (A') (A') (A") (A") (A') (A') (A") (A') (A") (A')
                 (A') (A") (A') (A") (A") (A') (A') (A") (A') (A')
                 (A') (A") (A") (A') (A") (A') (A') (A") (A') (A')
                 (A") (A") (A') (A') (A') (A") (A') (A") (A') (A')
                 (A") (A') (A") (A') (A") (A') (A") (A') (A') (A")
                 (A") (A') (A') (A') (A') (A') (A") (A') (A") (A")
                 (A') (A') (A') (A") (A') (A') (A') (A") (A") (A')
                 (A") (A") (A') (A') (A") (A') (A") (A') (A') (A')
                 (A") (A') (A') (A") (A") (A') (A") (A') (A") (A')
                 (A') (A") (A') (A') (A") (A') (A") (A') (A") (A")
                 (A') (A') (A') (A') (A') (A") (A') (A") (A") (A")
                 (A') (A') (A") (A') (A') (A') (A") (A') (A") (A")
                 (A') (A') (A') (A') (A") (A") (A') (A") (A") (A')
                 (A') (A') (A") (A") (A') (A") (A') (A') (A") (A")
                 (A') (A') (A") (A') (A') (A') (A") (A") (A') (A")
                 (A') (A') (A") (A') (A") (A') (A") (A') (A') (A")
                 (A") (A") (A') (A") (A') (A') (A") (A') (A') (A')
                 (A') (A") (A') (A") (A') (A') (A") (A') (A')
 The electronic state of the initial guess is 1-A'.
 Leave Link  401 at Mon Jun 20 11:40:03 2016, MaxMem=    33554432 cpu:         6.3
 (Enter /home/proyectos/fulerenos/M3C-v1.9/M3C-deps_CCC/g09-AM64L-G09RevC.01/l502.exe)
 Closed shell SCF:
 Using DIIS extrapolation, IDIIS=  1040.
 Integral symmetry usage will be decided dynamically.
 IVT=      233035 IEndB=      233035 NGot=    33554432 MDV=    33408528
 LenX=    33408528 LenY=    33337862
 Requested convergence on RMS density matrix=1.00D-08 within 128 cycles.
 Requested convergence on MAX density matrix=1.00D-06.
 Requested convergence on             energy=1.00D-06.
 No special actions if energy rises.
 Fock matrices will be formed incrementally for  20 cycles.

 Cycle   1  Pass 1  IDiag  1:
 FoFJK:  IHMeth= 1 ICntrl=       0 DoSepK=F KAlg= 0 I1Cent=   0 FoldK=F
 IRaf= 970000000 NMat=   1 IRICut=       1 DoRegI=T DoRafI=F ISym2E= 1.
 FoFCou: FMM=F IPFlag=           0 FMFlag=      100000 FMFlg1=           0
         NFxFlg=           0 DoJE=F BraDBF=F KetDBF=F FulRan=T
         wScrn=  0.000000 ICntrl=       0 IOpCl=  0 I1Cent=           0 NGrid=           0
         NMat0=    1 NMatS0=      1 NMatT0=    0 NMatD0=    1 NMtDS0=    0 NMtDT0=    0
 Petite list used in FoFCou.
 E= -191.969211827009    
 DIIS: error= 1.54D-02 at cycle   1 NSaved=   1.
 NSaved= 1 IEnMin= 1 EnMin= -191.969211827009     IErMin= 1 ErrMin= 1.54D-02
 ErrMax= 1.54D-02  0.00D+00 EMaxC= 1.00D-01 BMatC= 5.63D-02 BMatP= 5.63D-02
 IDIUse=3 WtCom= 8.46D-01 WtEn= 1.54D-01
 Coeff-Com:  0.100D+01
 Coeff-En:   0.100D+01
 Coeff:      0.100D+01
 Gap=     0.159 Goal=   None    Shift=    0.000
 GapD=    0.159 DampG=1.000 DampE=0.500 DampFc=0.5000 IDamp=-1.
 Damping current iteration by 5.00D-01
 RMSDP=3.53D-03 MaxDP=2.13D-01              OVMax= 1.59D-01

 Cycle   2  Pass 1  IDiag  1:
 RMSU=  1.67D-03    CP:  1.04D+00
 E= -191.986862748756     Delta-E=       -0.017650921747 Rises=F Damp=T
 DIIS: error= 4.73D-03 at cycle   2 NSaved=   2.
 NSaved= 2 IEnMin= 2 EnMin= -191.986862748756     IErMin= 2 ErrMin= 4.73D-03
 ErrMax= 4.73D-03  0.00D+00 EMaxC= 1.00D-01 BMatC= 7.98D-03 BMatP= 5.63D-02
 IDIUse=3 WtCom= 9.53D-01 WtEn= 4.73D-02
 Coeff-Com:  0.707D-02 0.993D+00
 Coeff-En:   0.137D+00 0.863D+00
 Coeff:      0.132D-01 0.987D+00
 Gap=     0.203 Goal=   None    Shift=    0.000
 RMSDP=1.42D-03 MaxDP=7.46D-02 DE=-1.77D-02 OVMax= 1.43D-01

 Cycle   3  Pass 1  IDiag  1:
 RMSU=  1.20D-03    CP:  1.07D+00  1.32D+00
 E= -192.006172745002     Delta-E=       -0.019309996246 Rises=F Damp=F
 DIIS: error= 8.59D-03 at cycle   3 NSaved=   3.
 NSaved= 3 IEnMin= 3 EnMin= -192.006172745002     IErMin= 2 ErrMin= 4.73D-03
 ErrMax= 8.59D-03  0.00D+00 EMaxC= 1.00D-01 BMatC= 7.63D-03 BMatP= 7.98D-03
 IDIUse=3 WtCom= 9.14D-01 WtEn= 8.59D-02
 Coeff-Com: -0.148D+00 0.563D+00 0.584D+00
 Coeff-En:   0.000D+00 0.000D+00 0.100D+01
 Coeff:     -0.135D+00 0.515D+00 0.620D+00
 Gap=     0.189 Goal=   None    Shift=    0.000
 RMSDP=6.70D-04 MaxDP=2.35D-02 DE=-1.93D-02 OVMax= 5.80D-02

 Cycle   4  Pass 1  IDiag  1:
 RMSU=  3.70D-04    CP:  1.06D+00  1.33D+00  5.44D-01
 E= -192.013029536148     Delta-E=       -0.006856791145 Rises=F Damp=F
 DIIS: error= 3.59D-03 at cycle   4 NSaved=   4.
 NSaved= 4 IEnMin= 4 EnMin= -192.013029536148     IErMin= 4 ErrMin= 3.59D-03
 ErrMax= 3.59D-03  0.00D+00 EMaxC= 1.00D-01 BMatC= 1.59D-03 BMatP= 7.63D-03
 IDIUse=3 WtCom= 9.64D-01 WtEn= 3.59D-02
 Coeff-Com: -0.773D-01 0.232D+00 0.391D+00 0.455D+00
 Coeff-En:   0.000D+00 0.000D+00 0.170D+00 0.830D+00
 Coeff:     -0.745D-01 0.224D+00 0.383D+00 0.468D+00
 Gap=     0.192 Goal=   None    Shift=    0.000
 RMSDP=2.58D-04 MaxDP=1.04D-02 DE=-6.86D-03 OVMax= 1.62D-02

 Cycle   5  Pass 1  IDiag  1:
 RMSU=  1.20D-04    CP:  1.07D+00  1.38D+00  6.39D-01  5.15D-01
 E= -192.014531878504     Delta-E=       -0.001502342356 Rises=F Damp=F
 DIIS: error= 6.55D-04 at cycle   5 NSaved=   5.
 NSaved= 5 IEnMin= 5 EnMin= -192.014531878504     IErMin= 5 ErrMin= 6.55D-04
 ErrMax= 6.55D-04  0.00D+00 EMaxC= 1.00D-01 BMatC= 1.22D-04 BMatP= 1.59D-03
 IDIUse=3 WtCom= 9.93D-01 WtEn= 6.55D-03
 Coeff-Com: -0.236D-01 0.475D-01 0.147D+00 0.280D+00 0.550D+00
 Coeff-En:   0.000D+00 0.000D+00 0.000D+00 0.204D-02 0.998D+00
 Coeff:     -0.235D-01 0.472D-01 0.146D+00 0.278D+00 0.553D+00
 Gap=     0.192 Goal=   None    Shift=    0.000
 RMSDP=8.97D-05 MaxDP=5.79D-03 DE=-1.50D-03 OVMax= 4.51D-03

 Cycle   6  Pass 1  IDiag  1:
 RMSU=  4.60D-05    CP:  1.06D+00  1.36D+00  6.47D-01  6.10D-01  6.59D-01
 E= -192.014646433052     Delta-E=       -0.000114554548 Rises=F Damp=F
 DIIS: error= 1.38D-04 at cycle   6 NSaved=   6.
 NSaved= 6 IEnMin= 6 EnMin= -192.014646433052     IErMin= 6 ErrMin= 1.38D-04
 ErrMax= 1.38D-04  0.00D+00 EMaxC= 1.00D-01 BMatC= 3.45D-06 BMatP= 1.22D-04
 IDIUse=3 WtCom= 9.99D-01 WtEn= 1.38D-03
 Coeff-Com: -0.220D-02 0.215D-02 0.264D-01 0.627D-01 0.219D+00 0.691D+00
 Coeff-En:   0.000D+00 0.000D+00 0.000D+00 0.000D+00 0.000D+00 0.100D+01
 Coeff:     -0.219D-02 0.214D-02 0.264D-01 0.626D-01 0.219D+00 0.692D+00
 Gap=     0.192 Goal=   None    Shift=    0.000
 RMSDP=1.78D-05 MaxDP=9.38D-04 DE=-1.15D-04 OVMax= 5.28D-04

 Cycle   7  Pass 1  IDiag  1:
 RMSU=  7.92D-06    CP:  1.06D+00  1.36D+00  6.46D-01  5.96D-01  6.99D-01
                    CP:  7.65D-01
 E= -192.014650204141     Delta-E=       -0.000003771089 Rises=F Damp=F
 DIIS: error= 1.85D-05 at cycle   7 NSaved=   7.
 NSaved= 7 IEnMin= 7 EnMin= -192.014650204141     IErMin= 7 ErrMin= 1.85D-05
 ErrMax= 1.85D-05  0.00D+00 EMaxC= 1.00D-01 BMatC= 3.87D-08 BMatP= 3.45D-06
 IDIUse=1 WtCom= 1.00D+00 WtEn= 0.00D+00
 Coeff-Com:  0.689D-03-0.190D-02 0.345D-03 0.372D-02 0.287D-01 0.137D+00
 Coeff-Com:  0.831D+00
 Coeff:      0.689D-03-0.190D-02 0.345D-03 0.372D-02 0.287D-01 0.137D+00
 Coeff:      0.831D+00
 Gap=     0.192 Goal=   None    Shift=    0.000
 RMSDP=2.61D-06 MaxDP=1.64D-04 DE=-3.77D-06 OVMax= 9.35D-05

 Cycle   8  Pass 1  IDiag  1:
 RMSU=  2.22D-06    CP:  1.06D+00  1.36D+00  6.46D-01  5.95D-01  7.01D-01
                    CP:  7.73D-01  9.23D-01
 E= -192.014650244458     Delta-E=       -0.000000040318 Rises=F Damp=F
 DIIS: error= 7.04D-06 at cycle   8 NSaved=   8.
 NSaved= 8 IEnMin= 8 EnMin= -192.014650244458     IErMin= 8 ErrMin= 7.04D-06
 ErrMax= 7.04D-06  0.00D+00 EMaxC= 1.00D-01 BMatC= 5.35D-09 BMatP= 3.87D-08
 IDIUse=1 WtCom= 1.00D+00 WtEn= 0.00D+00
 Coeff-Com:  0.397D-03-0.836D-03-0.140D-02-0.222D-02-0.359D-02 0.428D-02
 Coeff-Com:  0.293D+00 0.710D+00
 Coeff:      0.397D-03-0.836D-03-0.140D-02-0.222D-02-0.359D-02 0.428D-02
 Coeff:      0.293D+00 0.710D+00
 Gap=     0.192 Goal=   None    Shift=    0.000
 RMSDP=7.63D-07 MaxDP=2.64D-05 DE=-4.03D-08 OVMax= 3.66D-05

 Cycle   9  Pass 1  IDiag  1:
 RMSU=  4.86D-07    CP:  1.06D+00  1.36D+00  6.46D-01  5.96D-01  7.01D-01
                    CP:  7.74D-01  9.72D-01  8.24D-01
 E= -192.014650250782     Delta-E=       -0.000000006324 Rises=F Damp=F
 DIIS: error= 1.52D-06 at cycle   9 NSaved=   9.
 NSaved= 9 IEnMin= 9 EnMin= -192.014650250782     IErMin= 9 ErrMin= 1.52D-06
 ErrMax= 1.52D-06  0.00D+00 EMaxC= 1.00D-01 BMatC= 3.75D-10 BMatP= 5.35D-09
 IDIUse=1 WtCom= 1.00D+00 WtEn= 0.00D+00
 Coeff-Com:  0.115D-03-0.216D-03-0.603D-03-0.114D-02-0.329D-02-0.766D-02
 Coeff-Com:  0.472D-01 0.247D+00 0.718D+00
 Coeff:      0.115D-03-0.216D-03-0.603D-03-0.114D-02-0.329D-02-0.766D-02
 Coeff:      0.472D-01 0.247D+00 0.718D+00
 Gap=     0.192 Goal=   None    Shift=    0.000
 RMSDP=1.73D-07 MaxDP=1.05D-05 DE=-6.32D-09 OVMax= 8.79D-06

 Cycle  10  Pass 1  IDiag  1:
 RMSU=  1.22D-07    CP:  1.06D+00  1.36D+00  6.46D-01  5.96D-01  7.02D-01
                    CP:  7.74D-01  9.79D-01  8.58D-01  9.76D-01
 E= -192.014650251158     Delta-E=       -0.000000000375 Rises=F Damp=F
 DIIS: error= 3.98D-07 at cycle  10 NSaved=  10.
 NSaved=10 IEnMin=10 EnMin= -192.014650251158     IErMin=10 ErrMin= 3.98D-07
 ErrMax= 3.98D-07  0.00D+00 EMaxC= 1.00D-01 BMatC= 3.87D-11 BMatP= 3.75D-10
 IDIUse=1 WtCom= 1.00D+00 WtEn= 0.00D+00
 Coeff-Com:  0.102D-04-0.116D-04-0.835D-04-0.205D-03-0.640D-03-0.232D-02
 Coeff-Com: -0.600D-02 0.294D-01 0.268D+00 0.711D+00
 Coeff:      0.102D-04-0.116D-04-0.835D-04-0.205D-03-0.640D-03-0.232D-02
 Coeff:     -0.600D-02 0.294D-01 0.268D+00 0.711D+00
 Gap=     0.192 Goal=   None    Shift=    0.000
 RMSDP=5.40D-08 MaxDP=2.34D-06 DE=-3.75D-10 OVMax= 2.29D-06

 Cycle  11  Pass 1  IDiag  1:
 RMSU=  3.00D-08    CP:  1.06D+00  1.36D+00  6.46D-01  5.96D-01  7.02D-01
                    CP:  7.74D-01  9.78D-01  8.69D-01  9.73D-01  7.60D-01
 E= -192.014650251197     Delta-E=       -0.000000000039 Rises=F Damp=F
 DIIS: error= 6.92D-08 at cycle  11 NSaved=  11.
 NSaved=11 IEnMin=11 EnMin= -192.014650251197     IErMin=11 ErrMin= 6.92D-08
 ErrMax= 6.92D-08  0.00D+00 EMaxC= 1.00D-01 BMatC= 1.04D-12 BMatP= 3.87D-11
 IDIUse=1 WtCom= 1.00D+00 WtEn= 0.00D+00
 Coeff-Com: -0.250D-05 0.545D-05 0.729D-05-0.131D-05 0.566D-05-0.251D-03
 Coeff-Com: -0.384D-02-0.808D-02 0.184D-01 0.156D+00 0.838D+00
 Coeff:     -0.250D-05 0.545D-05 0.729D-05-0.131D-05 0.566D-05-0.251D-03
 Coeff:     -0.384D-02-0.808D-02 0.184D-01 0.156D+00 0.838D+00
 Gap=     0.192 Goal=   None    Shift=    0.000
 RMSDP=1.39D-08 MaxDP=7.08D-07 DE=-3.92D-11 OVMax= 4.22D-07

 Cycle  12  Pass 1  IDiag  1:
 RMSU=  8.06D-09    CP:  1.06D+00  1.36D+00  6.46D-01  5.96D-01  7.02D-01
                    CP:  7.74D-01  9.78D-01  8.70D-01  9.86D-01  8.04D-01
                    CP:  9.19D-01
 E= -192.014650251204     Delta-E=       -0.000000000007 Rises=F Damp=F
 DIIS: error= 1.35D-08 at cycle  12 NSaved=  12.
 NSaved=12 IEnMin=12 EnMin= -192.014650251204     IErMin=12 ErrMin= 1.35D-08
 ErrMax= 1.35D-08  0.00D+00 EMaxC= 1.00D-01 BMatC= 3.17D-14 BMatP= 1.04D-12
 IDIUse=1 WtCom= 1.00D+00 WtEn= 0.00D+00
 Coeff-Com: -0.761D-06 0.144D-05 0.433D-05 0.545D-05 0.201D-04-0.579D-05
 Coeff-Com: -0.579D-03-0.312D-02-0.437D-02 0.123D-01 0.197D+00 0.799D+00
 Coeff:     -0.761D-06 0.144D-05 0.433D-05 0.545D-05 0.201D-04-0.579D-05
 Coeff:     -0.579D-03-0.312D-02-0.437D-02 0.123D-01 0.197D+00 0.799D+00
 Gap=     0.192 Goal=   None    Shift=    0.000
 RMSDP=1.98D-09 MaxDP=9.87D-08 DE=-7.28D-12 OVMax= 6.08D-08

 SCF Done:  E(RB3LYP) =  -192.014650251     A.U. after   12 cycles
            NFock= 12  Conv=0.20D-08     -V/T= 2.0047
 KE= 1.911246360395D+02 PE=-6.924117176351D+02 EE= 1.779796500852D+02
 Leave Link  502 at Mon Jun 20 11:41:06 2016, MaxMem=    33554432 cpu:       243.6
 (Enter /home/proyectos/fulerenos/M3C-v1.9/M3C-deps_CCC/g09-AM64L-G09RevC.01/l801.exe)
 DoSCS=F DFT=T ScalE2(SS,OS)=  1.000000  1.000000
 Range of M.O.s used for correlation:     1   235
 NBasis=   235 NAE=    16 NBE=    16 NFC=     0 NFV=     0
 NROrb=    235 NOA=    16 NOB=    16 NVA=   219 NVB=   219

 **** Warning!!: The largest alpha MO coefficient is  0.15035143D+03

 Leave Link  801 at Mon Jun 20 11:41:06 2016, MaxMem=    33554432 cpu:         0.1
 (Enter /home/proyectos/fulerenos/M3C-v1.9/M3C-deps_CCC/g09-AM64L-G09RevC.01/l1101.exe)
 Using compressed storage, NAtomX=     9.
 Will process     10 centers per pass.
 Leave Link 1101 at Mon Jun 20 11:41:07 2016, MaxMem=    33554432 cpu:         1.4
 (Enter /home/proyectos/fulerenos/M3C-v1.9/M3C-deps_CCC/g09-AM64L-G09RevC.01/l1102.exe)
 Symmetrizing basis deriv contribution to polar:
 IMax=3 JMax=2 DiffMx= 0.00D+00
 Leave Link 1102 at Mon Jun 20 11:41:07 2016, MaxMem=    33554432 cpu:         0.1
 (Enter /home/proyectos/fulerenos/M3C-v1.9/M3C-deps_CCC/g09-AM64L-G09RevC.01/l1110.exe)
 Forming Gx(P) for the SCF density, NAtomX=     9.
 Integral derivatives from FoFJK, PRISM(SPDF).
 Do as many integral derivatives as possible in FoFJK.
 G2DrvN: MDV=      33554256.
 G2DrvN: will do    10 centers at a time, making    1 passes.
 Calling FoFCou, ICntrl=  3107 FMM=F I1Cent=   0 AccDes= 0.00D+00.
 FoFJK:  IHMeth= 1 ICntrl=    3107 DoSepK=F KAlg= 0 I1Cent=   0 FoldK=F
 IRaf=         0 NMat=   1 IRICut=       1 DoRegI=T DoRafI=F ISym2E= 1.
 FoFCou: FMM=F IPFlag=           0 FMFlag=      100000 FMFlg1=           0
         NFxFlg=           0 DoJE=F BraDBF=F KetDBF=F FulRan=T
         wScrn=  0.000000 ICntrl=    3107 IOpCl=  0 I1Cent=           0 NGrid=           0
         NMat0=    1 NMatS0=      1 NMatT0=    0 NMatD0=    1 NMtDS0=    0 NMtDT0=    0
 Petite list used in FoFCou.
 End of G2Drv F.D. properties file   721 does not exist.
 End of G2Drv F.D. properties file   722 does not exist.
 End of G2Drv F.D. properties file   788 does not exist.
 Leave Link 1110 at Mon Jun 20 11:41:55 2016, MaxMem=    33554432 cpu:       185.7
 (Enter /home/proyectos/fulerenos/M3C-v1.9/M3C-deps_CCC/g09-AM64L-G09RevC.01/l1002.exe)
 Minotr:  Closed shell wavefunction.
          IDoAtm=111111111
          Direct CPHF calculation.
          Differentiating once with respect to electric field.
                with respect to dipole field.
          Differentiating once with respect to nuclear coordinates.
          Using symmetry in CPHF.
          Requested convergence is 1.0D-08 RMS, and 1.0D-07 maximum.
          Secondary convergence is 1.0D-12 RMS, and 1.0D-12 maximum.
          NewPWx=T KeepS1=F KeepF1=F KeepIn=T MapXYZ=F SortEE=F KeepMc=T.
          MDV=      33554103 using IRadAn=       2.
 Generate precomputed XC quadrature information.
          Solving linear equations simultaneously, MaxMat=       0.
 FoFJK:  IHMeth= 1 ICntrl=       0 DoSepK=F KAlg= 0 I1Cent=   0 FoldK=F
 IRaf= 970000000 NMat=  24 IRICut=      60 DoRegI=T DoRafI=T ISym2E= 2.
 FoFCou: FMM=F IPFlag=           0 FMFlag=      100000 FMFlg1=           0
         NFxFlg=           0 DoJE=F BraDBF=F KetDBF=F FulRan=T
         wScrn=  0.000000 ICntrl=       0 IOpCl=  0 I1Cent=           0 NGrid=           0
         NMat0=   24 NMatS0=     24 NMatT0=    0 NMatD0=   24 NMtDS0=    0 NMtDT0=    0
 Integrals replicated using symmetry in FoFCou.
          There are    24 degrees of freedom in the 1st order CPHF.  IDoFFX=4 NUNeed=    24.
     24 vectors produced by pass  0 Test12= 1.46D-14 4.17D-09 XBig12= 6.25D+01 4.03D+00.
 AX will form    24 AO Fock derivatives at one time.
     24 vectors produced by pass  1 Test12= 1.46D-14 4.17D-09 XBig12= 1.03D+01 7.45D-01.
     24 vectors produced by pass  2 Test12= 1.46D-14 4.17D-09 XBig12= 1.94D-01 8.82D-02.
     24 vectors produced by pass  3 Test12= 1.46D-14 4.17D-09 XBig12= 8.12D-04 8.34D-03.
     24 vectors produced by pass  4 Test12= 1.46D-14 4.17D-09 XBig12= 2.02D-06 4.86D-04.
     23 vectors produced by pass  5 Test12= 1.46D-14 4.17D-09 XBig12= 4.17D-09 1.30D-05.
      4 vectors produced by pass  6 Test12= 1.46D-14 4.17D-09 XBig12= 4.44D-12 2.84D-07.
      3 vectors produced by pass  7 Test12= 1.46D-14 4.17D-09 XBig12= 9.57D-14 7.03D-08.
      2 vectors produced by pass  8 Test12= 1.46D-14 4.17D-09 XBig12= 2.43D-15 9.37D-09.
      1 vectors produced by pass  9 Test12= 1.46D-14 4.17D-09 XBig12= 8.06D-16 6.99D-09.
 InvSVY:  IOpt=1 It=  1 EMax= 1.33D-14
 Solved reduced A of dimension   153 with    24 vectors.
 FullF1:  Do perturbations    1 to    24.
 Isotropic polarizability for W=    0.000000       41.28 Bohr**3.
 End of Minotr F.D. properties file   721 does not exist.
 End of Minotr F.D. properties file   722 does not exist.
 End of Minotr F.D. properties file   788 does not exist.
 Leave Link 1002 at Mon Jun 20 11:45:42 2016, MaxMem=    33554432 cpu:       902.6
 (Enter /home/proyectos/fulerenos/M3C-v1.9/M3C-deps_CCC/g09-AM64L-G09RevC.01/l601.exe)
 Copying SCF densities to generalized density rwf, IOpCl= 0 IROHF=0.

 **********************************************************************

            Population analysis using the SCF density.

 **********************************************************************

 Orbital symmetries:
       Occupied  (A') (A') (A') (A') (A") (A') (A') (A') (A") (A')
                 (A') (A') (A") (A') (A') (A")
       Virtual   (A') (A') (A") (A") (A') (A') (A') (A") (A') (A')
                 (A') (A") (A") (A') (A") (A') (A') (A") (A') (A")
                 (A') (A') (A') (A") (A') (A') (A") (A') (A") (A')
                 (A') (A') (A") (A") (A') (A') (A') (A") (A') (A')
                 (A") (A') (A') (A') (A") (A') (A") (A') (A") (A')
                 (A') (A") (A') (A") (A') (A") (A') (A") (A') (A')
                 (A') (A") (A") (A") (A') (A') (A') (A") (A') (A')
                 (A") (A") (A') (A') (A') (A") (A') (A") (A') (A')
                 (A") (A") (A') (A') (A") (A') (A') (A") (A') (A")
                 (A') (A") (A') (A') (A') (A') (A") (A') (A") (A')
                 (A") (A') (A') (A") (A') (A') (A") (A') (A") (A')
                 (A") (A") (A') (A") (A') (A') (A") (A') (A') (A')
                 (A") (A') (A') (A") (A") (A') (A") (A') (A") (A')
                 (A') (A") (A') (A') (A") (A') (A") (A') (A") (A")
                 (A') (A') (A') (A') (A') (A") (A') (A") (A") (A")
                 (A') (A') (A") (A') (A') (A') (A") (A") (A') (A")
                 (A') (A') (A') (A") (A') (A") (A') (A") (A') (A')
                 (A") (A') (A") (A") (A') (A') (A") (A') (A") (A")
                 (A') (A') (A") (A') (A') (A') (A") (A") (A') (A")
                 (A') (A") (A') (A') (A") (A") (A') (A') (A') (A")
                 (A") (A") (A') (A') (A") (A') (A") (A') (A') (A')
                 (A') (A") (A') (A") (A') (A') (A") (A') (A')
 The electronic state is 1-A'.
 Alpha  occ. eigenvalues --  -10.74812 -10.71554 -10.68874 -10.68685 -10.68622
 Alpha  occ. eigenvalues --   -1.40451  -1.29224  -1.10959  -1.02628  -1.00455
 Alpha  occ. eigenvalues --   -0.97418  -0.93885  -0.84621  -0.83258  -0.82426
 Alpha  occ. eigenvalues --   -0.76428
 Alpha virt. eigenvalues --   -0.57194  -0.48021  -0.46301  -0.45771  -0.32791
 Alpha virt. eigenvalues --   -0.29413  -0.28143  -0.27956  -0.27044  -0.26328
 Alpha virt. eigenvalues --   -0.25306  -0.23759  -0.22304  -0.21809  -0.19580
 Alpha virt. eigenvalues --   -0.19375  -0.17633  -0.16311  -0.15577  -0.14845
 Alpha virt. eigenvalues --   -0.14695  -0.14323  -0.13046  -0.12922  -0.10850
 Alpha virt. eigenvalues --   -0.10107  -0.09460  -0.09140  -0.07929  -0.07744
 Alpha virt. eigenvalues --   -0.06927  -0.05018  -0.04994  -0.03627  -0.02473
 Alpha virt. eigenvalues --    0.00909   0.01295   0.02912   0.03074   0.03528
 Alpha virt. eigenvalues --    0.05215   0.06652   0.08979   0.09232   0.09279
 Alpha virt. eigenvalues --    0.11052   0.11136   0.12338   0.13968   0.14143
 Alpha virt. eigenvalues --    0.15868   0.16052   0.17083   0.17174   0.20549
 Alpha virt. eigenvalues --    0.21366   0.22769   0.23446   0.24693   0.26447
 Alpha virt. eigenvalues --    0.29081   0.29175   0.32122   0.33756   0.34423
 Alpha virt. eigenvalues --    0.36142   0.39375   0.39824   0.42030   0.43171
 Alpha virt. eigenvalues --    0.43947   0.45863   0.47250   0.49428   0.60786
 Alpha virt. eigenvalues --    0.63521   0.66259   0.66557   0.68319   0.69734
 Alpha virt. eigenvalues --    0.70129   0.72763   0.73309   0.78046   0.80940
 Alpha virt. eigenvalues --    0.81472   0.82109   0.83739   0.85668   0.86678
 Alpha virt. eigenvalues --    0.92723   0.94358   0.94750   0.98671   0.99240
 Alpha virt. eigenvalues --    1.00258   1.02241   1.07624   1.08337   1.12845
 Alpha virt. eigenvalues --    1.13050   1.16929   1.18188   1.21001   1.22823
 Alpha virt. eigenvalues --    1.29759   1.30919   1.32095   1.39221   1.46738
 Alpha virt. eigenvalues --    1.49211   1.57374   1.58526   1.67806   1.67918
 Alpha virt. eigenvalues --    1.74650   1.81764   1.87539   2.00776   2.06137
 Alpha virt. eigenvalues --    2.06374   2.12702   2.15450   2.20268   2.23724
 Alpha virt. eigenvalues --    2.25182   2.28162   2.28752   2.29562   2.30140
 Alpha virt. eigenvalues --    2.31034   2.36880   2.36901   2.41146   2.41296
 Alpha virt. eigenvalues --    2.41334   2.43881   2.47555   2.50649   2.54363
 Alpha virt. eigenvalues --    2.55001   2.60280   2.64691   2.66474   2.69859
 Alpha virt. eigenvalues --    2.74846   2.77872   2.79813   2.85045   2.87855
 Alpha virt. eigenvalues --    2.90622   3.00732   3.02656   3.04571   3.10380
 Alpha virt. eigenvalues --    3.12119   3.15322   3.22701   3.23046   3.26227
 Alpha virt. eigenvalues --    3.26928   3.36307   3.45719   3.60553   3.62680
 Alpha virt. eigenvalues --    3.66535   3.73497   3.74656   3.78170   3.80116
 Alpha virt. eigenvalues --    3.80141   3.98331   3.99735   4.08494   4.11270
 Alpha virt. eigenvalues --    4.19362   4.20118   4.32813   4.38589   4.46736
 Alpha virt. eigenvalues --    4.62595   4.82106   4.86392   5.06798   5.27394
 Alpha virt. eigenvalues --    5.75105   5.93470   6.13172   6.17484   6.48950
 Alpha virt. eigenvalues --    6.52016   6.57069   6.58356   6.62936   6.66694
 Alpha virt. eigenvalues --    6.74399   6.75000   6.79310   6.81721   6.88079
 Alpha virt. eigenvalues --    6.88207   7.00612   7.04331   7.08717   7.08729
 Alpha virt. eigenvalues --    7.12894   7.15857   7.37281   7.46879   7.84584
 Alpha virt. eigenvalues --    7.92370   7.98583   8.00115   8.36246  23.45505
 Alpha virt. eigenvalues --   23.86718  25.14193  25.17819  25.95048
          Condensed to atoms (all electrons):
               1          2          3          4          5          6
     1  C    7.296683  -0.113276  -0.443895  -0.046365   0.001129  -0.368493
     2  H   -0.113276   0.441530   0.628176  -0.194685   0.007136  -0.014043
     3  C   -0.443895   0.628176   8.427410  -2.196809  -0.037824  -0.157155
     4  C   -0.046365  -0.194685  -2.196809   7.636678   0.326334   0.151304
     5  H    0.001129   0.007136  -0.037824   0.326334   0.273504   0.001138
     6  C   -0.368493  -0.014043  -0.157155   0.151304   0.001138   6.772894
     7  H   -0.017178  -0.000575   0.000513   0.007370   0.000119   0.314376
     8  C   -0.368493  -0.014043  -0.157155   0.151304   0.001138  -0.883495
     9  H   -0.017178  -0.000575   0.000513   0.007370   0.000119  -0.027572
               7          8          9
     1  C   -0.017178  -0.368493  -0.017178
     2  H   -0.000575  -0.014043  -0.000575
     3  C    0.000513  -0.157155   0.000513
     4  C    0.007370   0.151304   0.007370
     5  H    0.000119   0.001138   0.000119
     6  C    0.314376  -0.883495  -0.027572
     7  H    0.368559  -0.027572  -0.005391
     8  C   -0.027572   6.772894   0.314376
     9  H   -0.005391   0.314376   0.368559
 Mulliken charges:
               1
     1  C    0.077066
     2  H    0.260356
     3  C   -0.063773
     4  C    0.157499
     5  H    0.427207
     6  C    0.211045
     7  H    0.359778
     8  C    0.211045
     9  H    0.359778
 Sum of Mulliken charges =   2.00000
 Mulliken charges with hydrogens summed into heavy atoms:
               1
     1  C    0.077066
     3  C    0.196583
     4  C    0.584705
     6  C    0.570823
     8  C    0.570823
 APT charges:
               1
     1  C    0.256074
     2  H    0.296125
     3  C   -0.155412
     4  C    0.359712
     5  H    0.375058
     6  C    0.160092
     7  H    0.274130
     8  C    0.160092
     9  H    0.274130
 Sum of APT charges =   2.00000
 APT charges with hydrogens summed into heavy atoms:
               1
     1  C    0.256074
     3  C    0.140713
     4  C    0.734770
     6  C    0.434222
     8  C    0.434222
 Electronic spatial extent (au):  <R**2>=            370.6788
 Charge=              2.0000 electrons
 Dipole moment (field-independent basis, Debye):
    X=             -0.5334    Y=             -2.4742    Z=              0.0000  Tot=              2.5311
 Quadrupole moment (field-independent basis, Debye-Ang):
   XX=            -18.3081   YY=             14.5486   ZZ=            -18.2894
   XY=              7.3878   XZ=             -0.0000   YZ=             -0.0000
 Traceless Quadrupole moment (field-independent basis, Debye-Ang):
   XX=            -10.9585   YY=             21.8982   ZZ=            -10.9398
   XY=              7.3878   XZ=             -0.0000   YZ=             -0.0000
 Octapole moment (field-independent basis, Debye-Ang**2):
  XXX=             -7.5077  YYY=            -52.5884  ZZZ=             -0.0000  XYY=              2.3808
  XXY=             -3.9797  XXZ=              0.0000  XZZ=              5.5119  YZZ=             17.3253
  YYZ=              0.0000  XYZ=             -0.0000
 Hexadecapole moment (field-independent basis, Debye-Ang**3):
 XXXX=            -36.0464 YYYY=            -74.6278 ZZZZ=            -43.6801 XXXY=            -26.6396
 XXXZ=             -0.0000 YYYX=            -16.0770 YYYZ=              0.0000 ZZZX=             -0.0000
 ZZZY=              0.0000 XXYY=            -54.5734 XXZZ=            -16.4394 YYZZ=            -40.5831
 XXYZ=              0.0000 YYXZ=              0.0000 ZZXY=             -3.0361
 N-N= 1.312927812592D+02 E-N=-6.924117182359D+02  KE= 1.911246360395D+02
 Symmetry A'   KE= 1.510009999676D+02
 Symmetry A"   KE= 4.012363607188D+01
  Exact polarizability:  29.868   5.263  59.973   0.000   0.000  34.009
 Approx polarizability:  47.315   3.134  93.108  -0.000  -0.000  51.542
 No NMR shielding tensors so no spin-rotation constants.
 Leave Link  601 at Mon Jun 20 11:45:42 2016, MaxMem=    33554432 cpu:         1.5
 (Enter /home/proyectos/fulerenos/M3C-v1.9/M3C-deps_CCC/g09-AM64L-G09RevC.01/l701.exe)
 Compute integral second derivatives.
 ... and contract with generalized density number  0.
 Leave Link  701 at Mon Jun 20 11:45:43 2016, MaxMem=    33554432 cpu:         1.6
 (Enter /home/proyectos/fulerenos/M3C-v1.9/M3C-deps_CCC/g09-AM64L-G09RevC.01/l702.exe)
 L702 exits ... SP integral derivatives will be done elsewhere.
 Leave Link  702 at Mon Jun 20 11:45:43 2016, MaxMem=    33554432 cpu:         0.1
 (Enter /home/proyectos/fulerenos/M3C-v1.9/M3C-deps_CCC/g09-AM64L-G09RevC.01/l703.exe)
 Compute integral second derivatives, UseDBF=F ICtDFT=           0.
 Integral derivatives from FoFJK, PRISM(SPDF).
 Calling FoFJK, ICntrl=    100127 FMM=F ISym2X=1 I1Cent= 0 IOpClX= 0 NMat=1 NMatS=1 NMatT=0.
 FoFJK:  IHMeth= 1 ICntrl=  100127 DoSepK=F KAlg= 0 I1Cent=   0 FoldK=F
 IRaf=         0 NMat=   1 IRICut=       1 DoRegI=T DoRafI=F ISym2E= 1.
 FoFCou: FMM=F IPFlag=           0 FMFlag=      100000 FMFlg1=         800
         NFxFlg=           0 DoJE=F BraDBF=F KetDBF=F FulRan=T
         wScrn=  0.000000 ICntrl=  100127 IOpCl=  0 I1Cent=           0 NGrid=           0
         NMat0=    1 NMatS0=      1 NMatT0=    0 NMatD0=    1 NMtDS0=    0 NMtDT0=    0
 Petite list used in FoFCou.
 Leave Link  703 at Mon Jun 20 11:47:32 2016, MaxMem=    33554432 cpu:       437.5
 (Enter /home/proyectos/fulerenos/M3C-v1.9/M3C-deps_CCC/g09-AM64L-G09RevC.01/l716.exe)
 Dipole        =-2.09844022D-01-9.73435657D-01-5.77597865D-15
 Polarizability= 2.98680422D+01 5.26334043D+00 5.99727658D+01
                 7.22403024D-10 6.33922943D-09 3.40087342D+01
 Full mass-weighted force constant matrix:
 Low frequencies ---  -97.1613   -7.7722   -0.0006    0.0002    0.0003    5.4077
 Low frequencies ---    7.2600  174.3396  299.6271
 ******    1 imaginary frequencies (negative Signs) ****** 
 Diagonal vibrational polarizability:
       21.3722016       4.3486885      19.2934013
 Harmonic frequencies (cm**-1), IR intensities (KM/Mole), Raman scattering
 activities (A**4/AMU), depolarization ratios for plane and unpolarized
 incident light, reduced masses (AMU), force constants (mDyne/A),
 and normal coordinates:
                      1                      2                      3
                     A"                     A'                     A"
 Frequencies --    -97.1493               174.3396               299.6271
 Red. masses --      1.8814                 2.9862                 2.0647
 Frc consts  --      0.0105                 0.0535                 0.1092
 IR Inten    --      0.9448                20.4679                31.4577
  Atom  AN      X      Y      Z        X      Y      Z        X      Y      Z
     1   6     0.00   0.00   0.04     0.13   0.01   0.00     0.00   0.00  -0.21
     2   1     0.00  -0.00   0.81     0.24  -0.13  -0.00     0.00  -0.00   0.75
     3   6     0.00  -0.00   0.15     0.28  -0.03  -0.00     0.00  -0.00  -0.01
     4   6    -0.00  -0.00  -0.16    -0.20  -0.14   0.00    -0.00  -0.00   0.08
     5   1    -0.00  -0.00  -0.31    -0.77  -0.23  -0.00    -0.00  -0.00   0.25
     6   6     0.09  -0.07  -0.03    -0.07   0.09   0.00     0.04   0.14   0.02
     7   1     0.21  -0.18  -0.05    -0.17   0.13  -0.00     0.10   0.34   0.14
     8   6    -0.09   0.07  -0.03    -0.07   0.09  -0.00    -0.04  -0.14   0.02
     9   1    -0.21   0.18  -0.05    -0.17   0.13   0.00    -0.10  -0.34   0.14
                      4                      5                      6
                     A'                     A"                     A"
 Frequencies --    415.9371               611.9900               679.1632
 Red. masses --      2.5865                 2.0412                 1.4427
 Frc consts  --      0.2636                 0.4504                 0.3921
 IR Inten    --      2.9095                57.6139                26.3559
  Atom  AN      X      Y      Z        X      Y      Z        X      Y      Z
     1   6     0.32  -0.14  -0.00     0.00  -0.00  -0.10    -0.00  -0.00  -0.01
     2   1    -0.13   0.64   0.00    -0.00   0.00  -0.66     0.00  -0.00  -0.23
     3   6    -0.12   0.02   0.00    -0.00   0.00   0.26     0.00   0.00   0.12
     4   6    -0.02   0.02  -0.00     0.00   0.00   0.00     0.00   0.00  -0.16
     5   1     0.28   0.07   0.00     0.00   0.00  -0.61    -0.00   0.00   0.95
     6   6    -0.06   0.00   0.00     0.04   0.07  -0.03     0.00   0.01  -0.00
     7   1    -0.40   0.14   0.00     0.09   0.20   0.04     0.02   0.03   0.01
     8   6    -0.06   0.00  -0.00    -0.04  -0.07  -0.03    -0.00  -0.01  -0.00
     9   1    -0.40   0.14  -0.00    -0.09  -0.20   0.04    -0.02  -0.03   0.01
                      7                      8                      9
                     A'                     A'                     A'
 Frequencies --    687.0628               837.2565               950.2508
 Red. masses --      4.0119                 1.1605                 1.4274
 Frc consts  --      1.1158                 0.4793                 0.7594
 IR Inten    --      8.9365                33.6084                 9.4068
  Atom  AN      X      Y      Z        X      Y      Z        X      Y      Z
     1   6     0.01  -0.08   0.00    -0.01   0.01   0.00    -0.11   0.08   0.00
     2   1     0.19  -0.08   0.00     0.03   0.67   0.00     0.04   0.53  -0.00
     3   6     0.18   0.24  -0.00     0.06   0.01   0.00     0.06  -0.01   0.00
     4   6     0.02   0.29   0.00    -0.02  -0.04  -0.00    -0.02  -0.06  -0.00
     5   1    -0.44   0.24  -0.00     0.15  -0.02   0.00     0.22  -0.03  -0.00
     6   6    -0.07  -0.20  -0.03    -0.06   0.01  -0.00     0.07  -0.01  -0.01
     7   1    -0.22  -0.38  -0.15     0.44  -0.25  -0.04    -0.52  -0.11  -0.19
     8   6    -0.07  -0.20   0.03    -0.06   0.01   0.00     0.07  -0.01   0.01
     9   1    -0.22  -0.38   0.15     0.44  -0.25   0.04    -0.52  -0.11   0.19
                     10                     11                     12
                     A'                     A"                     A"
 Frequencies --    974.8066              1012.5126              1038.3774
 Red. masses --      1.2189                 1.4219                 1.3671
 Frc consts  --      0.6824                 0.8588                 0.8685
 IR Inten    --     41.1114                 0.0050                10.4497
  Atom  AN      X      Y      Z        X      Y      Z        X      Y      Z
     1   6    -0.07  -0.02  -0.00     0.00  -0.00   0.00     0.00  -0.00   0.10
     2   1     0.04   0.36   0.00    -0.00  -0.00   0.01     0.00  -0.00   0.03
     3   6     0.06   0.02   0.00    -0.00  -0.00   0.00     0.00   0.00  -0.02
     4   6     0.00   0.01   0.00     0.00   0.00   0.00    -0.00   0.00   0.00
     5   1    -0.04   0.01  -0.00    -0.00  -0.00  -0.01     0.00   0.00   0.02
     6   6     0.00  -0.07   0.02    -0.13   0.05  -0.00    -0.03  -0.07  -0.07
     7   1     0.05   0.54   0.36     0.65  -0.25  -0.00     0.22   0.58   0.32
     8   6     0.00  -0.07  -0.02     0.13  -0.05  -0.00     0.03   0.07  -0.07
     9   1     0.05   0.54  -0.36    -0.65   0.25  -0.00    -0.22  -0.58   0.32
                     13                     14                     15
                     A'                     A'                     A"
 Frequencies --   1042.3563              1293.0686              1302.8756
 Red. masses --      1.4239                 7.5315                 7.1445
 Frc consts  --      0.9115                 7.4195                 7.1454
 IR Inten    --      3.7853                47.7311                46.4532
  Atom  AN      X      Y      Z        X      Y      Z        X      Y      Z
     1   6     0.01  -0.00  -0.00    -0.14  -0.36   0.00     0.00   0.00   0.47
     2   1     0.08  -0.36  -0.00     0.04   0.07   0.00    -0.00  -0.00   0.09
     3   6     0.09   0.02   0.00     0.06   0.04  -0.00    -0.00  -0.00  -0.05
     4   6    -0.17   0.02  -0.00    -0.02   0.07   0.00     0.00  -0.00   0.00
     5   1     0.88   0.18   0.00     0.05   0.10   0.00    -0.00  -0.00   0.05
     6   6    -0.01  -0.02  -0.00     0.06   0.15   0.44     0.14   0.34  -0.18
     7   1     0.04   0.05   0.04    -0.15  -0.36   0.20     0.00   0.04  -0.46
     8   6    -0.01  -0.02   0.00     0.06   0.15  -0.44    -0.14  -0.34  -0.18
     9   1     0.04   0.05  -0.04    -0.15  -0.36  -0.20    -0.00  -0.04  -0.46
                     16                     17                     18
                     A'                     A'                     A'
 Frequencies --   1728.7925              1907.5626              2711.3535
 Red. masses --      6.0138                 6.1506                 1.0725
 Frc consts  --     10.5897                13.1864                 4.6454
 IR Inten    --     30.8098                80.9764               285.8027
  Atom  AN      X      Y      Z        X      Y      Z        X      Y      Z
     1   6     0.17   0.43   0.00    -0.07  -0.21  -0.00    -0.00  -0.00  -0.00
     2   1    -0.03  -0.18  -0.00     0.03  -0.24  -0.00     1.00   0.04   0.00
     3   6    -0.07   0.15  -0.00    -0.05   0.53   0.00    -0.08  -0.01   0.00
     4   6     0.04  -0.18   0.00     0.07  -0.34   0.00    -0.01   0.00  -0.00
     5   1     0.08  -0.29  -0.00     0.19  -0.62  -0.00     0.00  -0.01  -0.00
     6   6    -0.06  -0.16   0.25     0.01   0.04  -0.08     0.00   0.00   0.00
     7   1    -0.09  -0.24   0.38     0.05   0.10  -0.12     0.00   0.00  -0.00
     8   6    -0.06  -0.16  -0.25     0.01   0.04   0.08     0.00   0.00  -0.00
     9   1    -0.09  -0.24  -0.38     0.05   0.10   0.12     0.00   0.00   0.00
                     19                     20                     21
                     A"                     A'                     A'
 Frequencies --   3176.1149              3184.6248              3208.8940
 Red. masses --      1.1038                 1.1477                 1.1477
 Frc consts  --      6.5607                 6.8580                 6.9626
 IR Inten    --    185.5161               354.0021                68.0252
  Atom  AN      X      Y      Z        X      Y      Z        X      Y      Z
     1   6     0.00  -0.00   0.01     0.00   0.00   0.00    -0.01  -0.01  -0.00
     2   1    -0.00   0.00   0.00     0.01  -0.01  -0.00     0.01  -0.00   0.00
     3   6     0.00  -0.00  -0.00    -0.01   0.03  -0.00    -0.00   0.00  -0.00
     4   6    -0.00   0.00   0.00     0.02  -0.11   0.00     0.00  -0.01  -0.00
     5   1     0.00  -0.00   0.00    -0.14   0.98  -0.00    -0.02   0.11   0.00
     6   6     0.01   0.03  -0.06    -0.00  -0.00   0.01     0.01   0.03  -0.07
     7   1    -0.13  -0.33   0.61     0.01   0.04  -0.07    -0.13  -0.33   0.60
     8   6    -0.01  -0.03  -0.06    -0.00  -0.00  -0.01     0.01   0.03   0.07
     9   1     0.13   0.33   0.61     0.01   0.04   0.07    -0.13  -0.33  -0.60

 -------------------
 - Thermochemistry -
 -------------------
 Temperature   298.150 Kelvin.  Pressure   1.00000 Atm.
 Atom     1 has atomic number  6 and mass  12.00000
 Atom     2 has atomic number  1 and mass   1.00783
 Atom     3 has atomic number  6 and mass  12.00000
 Atom     4 has atomic number  6 and mass  12.00000
 Atom     5 has atomic number  1 and mass   1.00783
 Atom     6 has atomic number  6 and mass  12.00000
 Atom     7 has atomic number  1 and mass   1.00783
 Atom     8 has atomic number  6 and mass  12.00000
 Atom     9 has atomic number  1 and mass   1.00783
 Molecular mass:    64.03130 amu.
 Principal axes and moments of inertia in atomic units:
                           1         2         3
     Eigenvalues --    76.83656 548.31622 589.77283
           X            0.22596   0.00000   0.97414
           Y            0.97414   0.00000  -0.22596
           Z           -0.00000   1.00000  -0.00000
 This molecule is an asymmetric top.
 Rotational symmetry number  1.
 Rotational temperatures (Kelvin)      1.12725     0.15796     0.14686
 Rotational constants (GHZ):          23.48805     3.29142     3.06006
    1 imaginary frequencies ignored.
 Zero-point vibrational energy     162913.2 (Joules/Mol)
                                   38.93720 (Kcal/Mol)
 Warning -- explicit consideration of   4 degrees of freedom as
           vibrations may cause significant error
 Vibrational temperatures:    250.84   431.10   598.44   880.52   977.16
          (Kelvin)            988.53  1204.62  1367.20  1402.53  1456.78
                             1493.99  1499.72  1860.44  1874.55  2487.34
                             2744.55  3901.03  4569.72  4581.96  4616.88
 
 Zero-point correction=                           0.062050 (Hartree/Particle)
 Thermal correction to Energy=                    0.066870
 Thermal correction to Enthalpy=                  0.067814
 Thermal correction to Gibbs Free Energy=         0.034738
 Sum of electronic and zero-point Energies=           -191.952600
 Sum of electronic and thermal Energies=              -191.947781
 Sum of electronic and thermal Enthalpies=            -191.946837
 Sum of electronic and thermal Free Energies=         -191.979912
 
                     E (Thermal)             CV                S
                      KCal/Mol        Cal/Mol-Kelvin    Cal/Mol-Kelvin
 Total                   41.961             16.491             69.614
 Electronic               0.000              0.000              0.000
 Translational            0.889              2.981             38.389
 Rotational               0.889              2.981             24.722
 Vibrational             40.184             10.529              6.502
 Vibration     1          0.627              1.874              2.388
 Vibration     2          0.692              1.674              1.419
 Vibration     3          0.779              1.436              0.906
 Vibration     4          0.971              1.006              0.429
                       Q            Log10(Q)             Ln(Q)
 Total Bot       0.105125D-15        -15.978295        -36.791385
 Total V=0       0.365456D+13         12.562835         28.926997
 Vib (Bot)       0.925066D-28        -28.033827        -64.550273
 Vib (Bot)    1  0.115428D+01          0.062313          0.143480
 Vib (Bot)    2  0.634845D+00         -0.197332         -0.454375
 Vib (Bot)    3  0.423461D+00         -0.373187         -0.859294
 Vib (Bot)    4  0.240977D+00         -0.618024         -1.423054
 Vib (V=0)       0.321591D+01          0.507303          1.168109
 Vib (V=0)    1  0.175792D+01          0.245000          0.564133
 Vib (V=0)    2  0.130810D+01          0.116641          0.268577
 Vib (V=0)    3  0.115522D+01          0.062666          0.144295
 Vib (V=0)    4  0.105504D+01          0.023269          0.053579
 Electronic      0.100000D+01          0.000000          0.000000
 Translational   0.201393D+08          7.304044         16.818182
 Rotational      0.564272D+05          4.751488         10.940706
 
                                                              b3lyp opt
                                                             IR Spectrum
 
     333                 2                               1      1               11        111                                        
     211                 7                               9      7               32        000 99   8     66 6       4    3    1      
     087                 1                               0      2               09        431 75   3     87 1       1    0    7      
     956                 1                               8      9               33        283 50   7     79 2       6    0    4      
 
     XXX                 X                               X      X               XX        XX  XX   X     XX X       X    X    X      
     XXX                 X                               X      X               XX            X    X        X            X           
     XXX                 X                               X                      XX                          X                        
     XXX                 X                               X                                                                           
      XX                 X                               X                                                                           
      XX                 X                                                                                                           
      XX                 X                                                                                                           
      XX                 X                                                                                                           
      XX                 X                                                                                                           
      XX                 X                                                                                                           
      X                  X                                                                                                           
      X                  X                                                                                                           
      X                  X                                                                                                           
      X                  X                                                                                                           
      X                  X                                                                                                           
      X                  X                                                                                                           
      X                                                                                                                              
      X                                                                                                                              
      X                                                                                                                              
      X                                                                                                                              
 
 ***** Axes restored to original set *****
 -------------------------------------------------------------------
 Center     Atomic                   Forces (Hartrees/Bohr)
 Number     Number              X              Y              Z
 -------------------------------------------------------------------
      1        6           0.000002521   -0.000009729    0.000000000
      2        1           0.000009987   -0.000005874    0.000000000
      3        6          -0.000009551    0.000020288   -0.000000000
      4        6           0.000004877   -0.000017038    0.000000000
      5        1          -0.000000893   -0.000001099   -0.000000000
      6        6          -0.000008817    0.000010218   -0.000008651
      7        1           0.000005347   -0.000003492   -0.000000929
      8        6          -0.000008818    0.000010218    0.000008651
      9        1           0.000005347   -0.000003492    0.000000929
 -------------------------------------------------------------------
 Cartesian Forces:  Max     0.000020288 RMS     0.000007821
 Z-matrix is all fixed cartesians, so copy forces.
 Force constants in Cartesian coordinates: 
                1             2             3             4             5 
      1  0.155772D+00
      2  0.156753D+00  0.904843D+00
      3  0.000000D+00  0.000000D+00  0.353558D+00
      4 -0.238438D-02 -0.724629D-02  0.000000D+00  0.251538D+00
      5 -0.281522D-01 -0.486199D-02  0.000000D+00  0.496892D-01  0.388692D-01
      6  0.000000D+00  0.000000D+00  0.870552D-02  0.000000D+00  0.000000D+00
      7 -0.621942D-01 -0.379943D-01  0.000000D+00 -0.223056D+00 -0.194427D-01
      8 -0.342299D-01 -0.228225D+00  0.000000D+00 -0.494957D-01 -0.496847D-01
      9  0.000000D+00  0.000000D+00 -0.666898D-01  0.000000D+00  0.000000D+00
     10 -0.514639D-02  0.231945D-02  0.000000D+00 -0.298686D-01 -0.150513D-02
     11  0.197537D-01 -0.395250D-01  0.000000D+00  0.128418D-02  0.182720D-01
     12  0.000000D+00  0.000000D+00  0.246401D-02  0.000000D+00  0.000000D+00
     13 -0.143686D-02  0.578626D-03  0.000000D+00  0.264570D-02 -0.424741D-02
     14 -0.940558D-04 -0.910585D-03  0.000000D+00  0.328469D-02 -0.100329D-02
     15  0.000000D+00  0.000000D+00  0.525295D-02  0.000000D+00  0.000000D+00
     16 -0.559870D-01 -0.535127D-01 -0.370273D-01  0.476682D-03  0.222982D-02
     17 -0.532727D-01 -0.311666D+00 -0.185538D+00  0.133958D-02 -0.794196D-03
     18 -0.420768D-01 -0.208393D+00 -0.159249D+00 -0.376034D-03  0.125889D-02
     19  0.136821D-01 -0.369188D-02 -0.164671D-02  0.859670D-04 -0.400690D-03
     20 -0.374200D-02 -0.399388D-02 -0.101205D-01 -0.976268D-04 -0.140284D-05
     21  0.162389D-02  0.686931D-02  0.760374D-02 -0.336876D-03 -0.326605D-04
     22 -0.559873D-01 -0.535135D-01  0.370278D-01  0.476684D-03  0.222982D-02
     23 -0.532733D-01 -0.311666D+00  0.185538D+00  0.133958D-02 -0.794197D-03
     24  0.420773D-01  0.208393D+00 -0.159249D+00  0.376035D-03 -0.125888D-02
     25  0.136821D-01 -0.369185D-02  0.164674D-02  0.859658D-04 -0.400690D-03
     26 -0.374204D-02 -0.399387D-02  0.101205D-01 -0.976262D-04 -0.140282D-05
     27 -0.162386D-02 -0.686931D-02  0.760374D-02  0.336876D-03  0.326588D-04
                6             7             8             9            10 
      6  0.461633D-02
      7  0.000000D+00  0.388671D+00
      8  0.000000D+00 -0.175408D+00  0.992088D+00
      9 -0.196768D-01  0.000000D+00 -0.103947D-05  0.974637D-01
     10  0.000000D+00 -0.142747D+00  0.258304D+00  0.000000D+00  0.258977D+00
     11  0.000000D+00  0.243861D+00 -0.677917D+00  0.000000D+00 -0.345157D+00
     12  0.672679D-02  0.000000D+00  0.100396D-05 -0.317499D-01  0.000000D+00
     13  0.000000D+00  0.225233D-01  0.167671D-01  0.000000D+00 -0.828674D-01
     14  0.000000D+00 -0.116080D-02  0.173716D-01  0.000000D+00  0.936685D-01
     15  0.551097D-03  0.000000D+00  0.000000D+00  0.276589D-02  0.000000D+00
     16  0.897537D-03  0.100166D-01 -0.905071D-02 -0.146876D-02  0.841268D-03
     17 -0.298367D-03 -0.565843D-02 -0.300787D-01 -0.491439D-02 -0.415905D-02
     18 -0.425058D-03  0.178576D-02  0.239635D-01  0.748628D-02  0.331116D-02
     19  0.437420D-04 -0.161522D-02  0.108161D-02 -0.717161D-03 -0.148267D-04
     20  0.243494D-04  0.730843D-03  0.326256D-02 -0.128938D-02  0.343991D-03
     21 -0.363969D-04 -0.265262D-03 -0.230962D-02  0.145715D-02 -0.132773D-03
     22 -0.897537D-03  0.100166D-01 -0.905062D-02  0.146879D-02  0.841276D-03
     23  0.298373D-03 -0.565845D-02 -0.300788D-01  0.491443D-02 -0.415906D-02
     24 -0.425058D-03 -0.178575D-02 -0.239634D-01  0.748631D-02 -0.331115D-02
     25 -0.437408D-04 -0.161523D-02  0.108160D-02  0.717147D-03 -0.148276D-04
     26 -0.243499D-04  0.730838D-03  0.326256D-02  0.128938D-02  0.343992D-03
     27 -0.363961D-04  0.265250D-03  0.230962D-02  0.145715D-02  0.132772D-03
               11            12            13            14            15 
     11  0.101848D+01
     12 -0.142957D-05  0.440317D-01
     13  0.820391D-01  0.000000D+00  0.586805D-01
     14 -0.330951D+00  0.000000D+00 -0.957340D-01  0.315171D+00
     15  0.000000D+00 -0.217214D-01  0.000000D+00  0.000000D+00  0.138697D-01
     16 -0.107509D-02 -0.994946D-03  0.260445D-03  0.407723D-04  0.192623D-03
     17  0.671404D-02 -0.657630D-03  0.307007D-03  0.286131D-03 -0.530261D-04
     18 -0.485788D-02  0.108323D-03 -0.120485D-04 -0.279265D-03 -0.340843D-03
     19  0.184732D-03 -0.106173D-03 -0.330417D-04 -0.229084D-04  0.264108D-03
     20 -0.895796D-03  0.654742D-04 -0.868435D-05 -0.124822D-03  0.000000D+00
     21  0.878334D-03  0.161001D-04  0.146682D-03 -0.421329D-03 -0.182416D-04
     22 -0.107511D-02  0.994951D-03  0.260445D-03  0.407710D-04 -0.192620D-03
     23  0.671405D-02  0.657604D-03  0.307006D-03  0.286132D-03  0.530257D-04
     24  0.485787D-02  0.108305D-03  0.120499D-04  0.279264D-03 -0.340845D-03
     25  0.184736D-03  0.106173D-03 -0.330401D-04 -0.229105D-04 -0.264108D-03
     26 -0.895798D-03 -0.654714D-04 -0.868456D-05 -0.124821D-03  0.000000D+00
     27 -0.878332D-03  0.161027D-04 -0.146681D-03  0.421329D-03 -0.182439D-04
               16            17            18            19            20 
     16  0.123153D+00
     17  0.769203D-01  0.491347D+00
     18  0.640879D-01  0.324222D+00  0.877587D+00
     19 -0.521603D-01 -0.135701D-01 -0.258420D-01  0.282717D-01
     20 -0.134379D-01 -0.118107D+00 -0.132732D+00  0.165164D-01  0.109032D+00
     21 -0.263353D-01 -0.134315D+00 -0.278660D+00  0.265362D-01  0.135878D+00
     22 -0.398732D-01 -0.117294D-02  0.575872D-03  0.132720D-01 -0.941507D-03
     23 -0.117296D-02 -0.470323D-01  0.493496D-02 -0.733702D-03  0.933139D-02
     24 -0.574314D-03 -0.493559D-02 -0.444166D+00  0.145387D-02  0.811670D-02
     25  0.132720D-01 -0.733730D-03 -0.145381D-02 -0.148837D-02  0.636495D-03
     26 -0.941473D-03  0.933138D-02 -0.811673D-02  0.636495D-03  0.149678D-02
     27  0.122255D-02  0.649067D-02 -0.234083D-02  0.141090D-04  0.566844D-04
               21            22            23            24            25 
     21  0.271918D+00
     22 -0.122249D-02  0.123154D+00
     23 -0.649069D-02  0.769214D-01  0.491346D+00
     24 -0.234083D-02 -0.640909D-01 -0.324221D+00  0.877588D+00
     25 -0.141160D-04 -0.521605D-01 -0.135705D-01  0.258429D-01  0.282719D-01
     26 -0.566842D-04 -0.134384D-01 -0.118106D+00  0.132732D+00  0.165169D-01
     27  0.610872D-04  0.263362D-01  0.134315D+00 -0.278660D+00 -0.265372D-01
               26            27 
     26  0.109031D+00
     27 -0.135878D+00  0.271918D+00
 Leave Link  716 at Mon Jun 20 11:47:32 2016, MaxMem=    33554432 cpu:         0.2
 (Enter /home/proyectos/fulerenos/M3C-v1.9/M3C-deps_CCC/g09-AM64L-G09RevC.01/l103.exe)

 GradGradGradGradGradGradGradGradGradGradGradGradGradGradGradGradGradGrad
 Berny optimization.
 Search for a local minimum.
 Step number   1 out of a maximum of    2
 All quantities printed in internal units (Hartrees-Bohrs-Radians)
 Second derivative matrix not updated -- analytic derivatives used.
 ITU=  0
     Eigenvalues ---   -0.00072   0.00357   0.00851   0.01634   0.03587
     Eigenvalues ---    0.03787   0.05003   0.10033   0.12846   0.15562
     Eigenvalues ---    0.16695   0.18678   0.19865   0.30285   0.36350
     Eigenvalues ---    0.49879   0.54408   0.91777   1.11024   1.75886
     Eigenvalues ---    1.94903
 Eigenvalue     1 is  -7.24D-04 should be greater than     0.000000 Eigenvector:
                          Z2        Z5        X9        X7        Z4
   1                    0.72908  -0.35421   0.31561  -0.31561  -0.20861
                          X8        X6        Y9        Y7        Z3
   1                    0.13908  -0.13908  -0.13425   0.13425   0.11280
 Angle between quadratic step and forces=  75.31 degrees.
 ClnCor:  largest displacement from symmetrization is 2.54D-10 for atom     9.
 Linear search not attempted -- first point.
 ClnCor:  largest displacement from symmetrization is 8.03D-15 for atom     5.
 B after Tr=     0.000017    0.000056   -0.000000
         Rot=    1.000000   -0.000000    0.000000    0.000008 Ang=   0.00 deg.
 Variable       Old X    -DE/DX   Delta X   Delta X   Delta X     New X
                                 (Linear)    (Quad)   (Total)
    X1        0.11691   0.00000   0.00000   0.00004   0.00005   0.11695
    Y1       -0.66280  -0.00001   0.00000   0.00011   0.00016  -0.66264
    Z1       -0.00000   0.00000   0.00000  -0.00000  -0.00000  -0.00000
    X2        2.77623   0.00001   0.00000   0.00058   0.00064   2.77688
    Y2        2.61290  -0.00001   0.00000  -0.00053  -0.00052   2.61238
    Z2        0.00000   0.00000   0.00000   0.00000   0.00000   0.00000
    X3        0.71288  -0.00001   0.00000   0.00047   0.00052   0.71340
    Y3        2.01718   0.00002   0.00000   0.00006   0.00011   2.01729
    Z3       -0.00000  -0.00000   0.00000   0.00000   0.00000  -0.00000
    X4       -0.31931   0.00000   0.00000  -0.00010  -0.00001  -0.31932
    Y4        4.15439  -0.00002   0.00000  -0.00019  -0.00013   4.15427
    Z4       -0.00001   0.00000   0.00000  -0.00000   0.00000  -0.00001
    X5       -0.96717  -0.00000   0.00000  -0.00093  -0.00082  -0.96798
    Y5        6.11171  -0.00000   0.00000  -0.00046  -0.00039   6.11132
    Z5       -0.00001  -0.00000   0.00000  -0.00000  -0.00000  -0.00001
    X6       -0.31908  -0.00001   0.00000  -0.00015  -0.00018  -0.31926
    Y6       -2.83962   0.00001   0.00000   0.00018   0.00024  -2.83938
    Z6       -1.29340  -0.00001   0.00000  -0.00001  -0.00001  -1.29342
    X7       -0.51675   0.00001   0.00000   0.00003  -0.00001  -0.51677
    Y7       -3.85191  -0.00000   0.00000   0.00008   0.00015  -3.85176
    Z7       -3.07000  -0.00000   0.00000   0.00001   0.00001  -3.06999
    X8       -0.31909  -0.00001   0.00000  -0.00015  -0.00018  -0.31926
    Y8       -2.83962   0.00001   0.00000   0.00018   0.00024  -2.83938
    Z8        1.29340   0.00001   0.00000   0.00001   0.00001   1.29341
    X9       -0.51676   0.00001   0.00000   0.00003  -0.00001  -0.51678
    Y9       -3.85190  -0.00000   0.00000   0.00008   0.00015  -3.85176
    Z9        3.07000   0.00000   0.00000  -0.00001  -0.00001   3.06999
         Item               Value     Threshold  Converged?
 Maximum Force            0.000020     0.000450     YES
 RMS     Force            0.000008     0.000300     YES
 Maximum Displacement     0.000815     0.001800     YES
 RMS     Displacement     0.000276     0.001200     YES
 Predicted change in Energy=-7.951260D-09
 Optimization completed.
    -- Stationary point found.
 GradGradGradGradGradGradGradGradGradGradGradGradGradGradGradGradGradGrad

 Leave Link  103 at Mon Jun 20 11:47:32 2016, MaxMem=    33554432 cpu:         0.1
 (Enter /home/proyectos/fulerenos/M3C-v1.9/M3C-deps_CCC/g09-AM64L-G09RevC.01/l9999.exe)
 1\1\GINC-BELVIS4\Freq\RB3LYP\6-311++G(3df,2p)\C5H4(2+)\ROOT\20-Jun-201
 6\0\\#p b3lyp/6-311++G(3df,2p) freq symmetry=Loose\\b3lyp opt\\2,1\C,0
 .061864,-0.350741,-0.0000011056\H,1.46912,1.382685,0.0000002393\C,0.37
 7239,1.067445,-0.0000016135\C,-0.168971,2.198411,-0.0000035531\H,-0.51
 1803,3.23418,-0.0000050267\C,-0.168851,-1.502663,-0.684439\H,-0.273454
 ,-2.038341,-1.624575\C,-0.1688536334,-1.5026619242,0.6844377117\H,-0.2
 734602507,-2.0383384464,1.6245741512\\Version=EM64L-G09RevE.01\State=1
 -A'\HF=-192.0146503\RMSD=1.979e-09\RMSF=7.821e-06\ZeroPoint=0.0620504\
 Thermal=0.0668695\Dipole=0.0379532,0.9950734,-0.0000007\DipoleDeriv=0.
 2540081,-0.0356998,0.0000007,0.0881718,0.5880035,-0.0000004,0.0000006,
 -0.0000006,-0.0737905,0.5201676,0.0087536,0.0000006,0.1384845,0.142327
 2,0.0000003,0.0000005,0.,0.2258792,-0.3901914,0.2304428,-0.0000012,0.0
 429449,-0.2032119,0.0000003,-0.000001,0.0000007,0.1271679,0.6060034,-0
 .0474565,0.0000007,-0.110204,0.1993144,-0.0000001,0.0000007,0.,0.27381
 82,0.2135066,-0.1589594,0.,-0.1296217,0.6116864,-0.0000005,0.,-0.00000
 06,0.2999819,0.2096573,-0.0132271,0.043572,-0.0338523,0.0535634,0.2167
 081,0.0484677,0.2227632,0.2170544,0.1885953,0.0146861,0.0164528,0.0189
 64,0.2773774,0.0889861,0.0184597,0.1445148,0.356417,0.2096577,-0.01322
 63,-0.043572,-0.0338515,0.0535627,-0.2167079,-0.0484677,-0.222763,0.21
 70547,0.1885954,0.0146866,-0.0164534,0.0189643,0.277377,-0.0889859,-0.
 0184604,-0.1445146,0.3564173\Polar=28.9755107,-0.1916335,60.8652974,-0
 .0000095,-0.0000215,34.0087342\PG=CS [SG(C3H2),X(C2H2)]\NImag=1\\0.155
 77192,0.15675250,0.90484252,-0.00000050,-0.00000013,0.35355764,-0.0023
 8438,-0.00724629,-0.00000002,0.25153757,-0.02815222,-0.00486199,-0.000
 00004,0.04968920,0.03886917,0.,0.,0.00870552,0.00000044,0.00000007,0.0
 0461633,-0.06219423,-0.03799435,0.00000004,-0.22305560,-0.01944270,-0.
 00000038,0.38867088,-0.03422992,-0.22822504,0.00000006,-0.04949568,-0.
 04968467,-0.00000007,-0.17540776,0.99208793,0.00000004,0.00000005,-0.0
 6668978,-0.00000035,-0.00000001,-0.01967682,0.00000070,-0.00000104,0.0
 9746366,-0.00514639,0.00231945,-0.00000002,-0.02986858,-0.00150513,-0.
 00000007,-0.14274710,0.25830441,-0.00000042,0.25897662,0.01975372,-0.0
 3952503,0.00000007,0.00128418,0.01827198,0.,0.24386081,-0.67791744,0.0
 0000098,-0.34515705,1.01848498,-0.00000003,0.00000004,0.00246401,-0.00
 000007,-0.00000001,0.00672679,-0.00000040,0.00000100,-0.03174985,0.000
 00068,-0.00000143,0.04403167,-0.00143686,0.00057863,-0.00000001,0.0026
 4570,-0.00424741,0.,0.02252333,0.01676708,0.00000002,-0.08286743,0.082
 03908,-0.00000018,0.05868045,-0.00009406,-0.00091059,0.,0.00328469,-0.
 00100329,0.,-0.00116080,0.01737158,-0.00000001,0.09366846,-0.33095099,
 0.00000042,-0.09573401,0.31517068,-0.00000001,0.,0.00525295,0.,0.,0.00
 055110,0.00000004,0.00000002,0.00276589,-0.00000019,0.00000040,-0.0217
 2145,0.00000016,-0.00000042,0.01386969,-0.05598695,-0.05351273,-0.0370
 2729,0.00047668,0.00222982,0.00089754,0.01001659,-0.00905071,-0.001468
 76,0.00084127,-0.00107509,-0.00099495,0.00026044,0.00004077,0.00019262
 ,0.12315346,-0.05327267,-0.31166637,-0.18553816,0.00133958,-0.00079420
 ,-0.00029837,-0.00565843,-0.03007872,-0.00491439,-0.00415905,0.0067140
 4,-0.00065763,0.00030701,0.00028613,-0.00005303,0.07692029,0.49134660,
 -0.04207678,-0.20839284,-0.15924875,-0.00037603,0.00125889,-0.00042506
 ,0.00178576,0.02396345,0.00748628,0.00331116,-0.00485788,0.00010832,-0
 .00001205,-0.00027926,-0.00034084,0.06408786,0.32422160,0.87758698,0.0
 1368207,-0.00369188,-0.00164671,0.00008597,-0.00040069,0.00004374,-0.0
 0161522,0.00108161,-0.00071716,-0.00001483,0.00018473,-0.00010617,-0.0
 0003304,-0.00002291,0.00026411,-0.05216031,-0.01357005,-0.02584199,0.0
 2827171,-0.00374200,-0.00399388,-0.01012048,-0.00009763,-0.00000140,0.
 00002435,0.00073084,0.00326256,-0.00128938,0.00034399,-0.00089580,0.00
 006547,-0.00000868,-0.00012482,0.00000040,-0.01343791,-0.11810653,-0.1
 3273219,0.01651640,0.10903171,0.00162389,0.00686931,0.00760374,-0.0003
 3688,-0.00003266,-0.00003640,-0.00026526,-0.00230962,0.00145715,-0.000
 13277,0.00087833,0.00001610,0.00014668,-0.00042133,-0.00001824,-0.0263
 3526,-0.13431511,-0.27866028,0.02653620,0.13587845,0.27191766,-0.05598
 726,-0.05351347,0.03702777,0.00047668,0.00222982,-0.00089754,0.0100165
 9,-0.00905062,0.00146879,0.00084128,-0.00107511,0.00099495,0.00026045,
 0.00004077,-0.00019262,-0.03987321,-0.00117294,0.00057587,0.01327202,-
 0.00094151,-0.00122249,0.12315395,-0.05327331,-0.31166575,0.18553819,0
 .00133958,-0.00079420,0.00029837,-0.00565845,-0.03007875,0.00491443,-0
 .00415906,0.00671405,0.00065760,0.00030701,0.00028613,0.00005303,-0.00
 117296,-0.04703234,0.00493496,-0.00073370,0.00933139,-0.00649069,0.076
 92143,0.49134558,0.04207726,0.20839287,-0.15924907,0.00037604,-0.00125
 888,-0.00042506,-0.00178575,-0.02396343,0.00748631,-0.00331115,0.00485
 787,0.00010830,0.00001205,0.00027926,-0.00034085,-0.00057431,-0.004935
 59,-0.44416582,0.00145387,0.00811670,-0.00234083,-0.06409089,-0.324220
 69,0.87758750,0.01368207,-0.00369185,0.00164674,0.00008597,-0.00040069
 ,-0.00004374,-0.00161523,0.00108160,0.00071715,-0.00001483,0.00018474,
 0.00010617,-0.00003304,-0.00002291,-0.00026411,0.01327203,-0.00073373,
 -0.00145381,-0.00148837,0.00063649,-0.00001412,-0.05216051,-0.01357053
 ,0.02584288,0.02827191,-0.00374204,-0.00399387,0.01012048,-0.00009763,
 -0.00000140,-0.00002435,0.00073084,0.00326256,0.00128938,0.00034399,-0
 .00089580,-0.00006547,-0.00000868,-0.00012482,-0.00000040,-0.00094147,
 0.00933138,-0.00811673,0.00063649,0.00149678,-0.00005668,-0.01343838,-
 0.11810611,0.13273189,0.01651688,0.10903128,-0.00162386,-0.00686931,0.
 00760374,0.00033688,0.00003266,-0.00003640,0.00026525,0.00230962,0.001
 45715,0.00013277,-0.00087833,0.00001610,-0.00014668,0.00042133,-0.0000
 1824,0.00122255,0.00649067,-0.00234083,0.00001411,0.00005668,0.0000610
 9,0.02633616,0.13431480,-0.27866050,-0.02653717,-0.13587813,0.27191789
 \\-0.00000252,0.00000973,0.,-0.00000999,0.00000587,0.,0.00000955,-0.00
 002029,0.,-0.00000488,0.00001704,0.,0.00000089,0.00000110,0.,0.0000088
 2,-0.00001022,0.00000865,-0.00000535,0.00000349,0.00000093,0.00000882,
 -0.00001022,-0.00000865,-0.00000535,0.00000349,-0.00000093\\\@


 LOGIC IS A SYSTEMATIC METHOD OF COMING TO THE
 WRONG CONCLUSION WITH CONFIDENCE.
 Job cpu time:       0 days  0 hours 29 minutes 43.7 seconds.
 File lengths (MBytes):  RWF=     42 Int=      0 D2E=      0 Chk=      4 Scr=      1
 Normal termination of Gaussian 09 at Mon Jun 20 11:47:32 2016.
