 Entering Gaussian System, Link 0=/home/proyectos/fulerenos/M3C-v1.9/M3C-deps_CCC/g09-AM64L-G09RevC.01/g09
 Initial command:
 /home/proyectos/fulerenos/M3C-v1.9/M3C-deps_CCC/g09-AM64L-G09RevC.01/l1.exe "/scratch/naguirre/gaussian/Gau-10745.inp" -scrdir="/scratch/naguirre/gaussian/"
 Entering Link 1 = /home/proyectos/fulerenos/M3C-v1.9/M3C-deps_CCC/g09-AM64L-G09RevC.01/l1.exe PID=     10752.
  
 Copyright (c) 1988,1990,1992,1993,1995,1998,2003,2009,2015,
            Gaussian, Inc.  All Rights Reserved.
  
 This is part of the Gaussian(R) 09 program.  It is based on
 the Gaussian(R) 03 system (copyright 2003, Gaussian, Inc.),
 the Gaussian(R) 98 system (copyright 1998, Gaussian, Inc.),
 the Gaussian(R) 94 system (copyright 1995, Gaussian, Inc.),
 the Gaussian 92(TM) system (copyright 1992, Gaussian, Inc.),
 the Gaussian 90(TM) system (copyright 1990, Gaussian, Inc.),
 the Gaussian 88(TM) system (copyright 1988, Gaussian, Inc.),
 the Gaussian 86(TM) system (copyright 1986, Carnegie Mellon
 University), and the Gaussian 82(TM) system (copyright 1983,
 Carnegie Mellon University). Gaussian is a federally registered
 trademark of Gaussian, Inc.
  
 This software contains proprietary and confidential information,
 including trade secrets, belonging to Gaussian, Inc.
  
 This software is provided under written license and may be
 used, copied, transmitted, or stored only in accord with that
 written license.
  
 The following legend is applicable only to US Government
 contracts under FAR:
  
                    RESTRICTED RIGHTS LEGEND
  
 Use, reproduction and disclosure by the US Government is
 subject to restrictions as set forth in subparagraphs (a)
 and (c) of the Commercial Computer Software - Restricted
 Rights clause in FAR 52.227-19.
  
 Gaussian, Inc.
 340 Quinnipiac St., Bldg. 40, Wallingford CT 06492
  
  
 ---------------------------------------------------------------
 Warning -- This program may not be used in any manner that
 competes with the business of Gaussian, Inc. or will provide
 assistance to any competitor of Gaussian, Inc.  The licensee
 of this program is prohibited from giving any competitor of
 Gaussian, Inc. access to this program.  By using this program,
 the user acknowledges that Gaussian, Inc. is engaged in the
 business of creating and licensing software in the field of
 computational chemistry and represents and warrants to the
 licensee that it is not a competitor of Gaussian, Inc. and that
 it will not use this program in any manner prohibited above.
 ---------------------------------------------------------------
  

 Cite this work as:
 Gaussian 09, Revision E.01,
 M. J. Frisch, G. W. Trucks, H. B. Schlegel, G. E. Scuseria, 
 M. A. Robb, J. R. Cheeseman, G. Scalmani, V. Barone, B. Mennucci, 
 G. A. Petersson, H. Nakatsuji, M. Caricato, X. Li, H. P. Hratchian, 
 A. F. Izmaylov, J. Bloino, G. Zheng, J. L. Sonnenberg, M. Hada, 
 M. Ehara, K. Toyota, R. Fukuda, J. Hasegawa, M. Ishida, T. Nakajima, 
 Y. Honda, O. Kitao, H. Nakai, T. Vreven, J. A. Montgomery, Jr., 
 J. E. Peralta, F. Ogliaro, M. Bearpark, J. J. Heyd, E. Brothers, 
 K. N. Kudin, V. N. Staroverov, T. Keith, R. Kobayashi, J. Normand, 
 K. Raghavachari, A. Rendell, J. C. Burant, S. S. Iyengar, J. Tomasi, 
 M. Cossi, N. Rega, J. M. Millam, M. Klene, J. E. Knox, J. B. Cross, 
 V. Bakken, C. Adamo, J. Jaramillo, R. Gomperts, R. E. Stratmann, 
 O. Yazyev, A. J. Austin, R. Cammi, C. Pomelli, J. W. Ochterski, 
 R. L. Martin, K. Morokuma, V. G. Zakrzewski, G. A. Voth, 
 P. Salvador, J. J. Dannenberg, S. Dapprich, A. D. Daniels, 
 O. Farkas, J. B. Foresman, J. V. Ortiz, J. Cioslowski, 
 and D. J. Fox, Gaussian, Inc., Wallingford CT, 2013.
 
 ******************************************
 Gaussian 09:  EM64L-G09RevE.01 30-Nov-2015
                20-Jun-2016 
 ******************************************
 %NProcShared=4
 Will use up to    4 processors via shared memory.
 ---------------------------------------------
 #p b3lyp/6-311++G(3df,2p) freq symmetry=Loose
 ---------------------------------------------
 1/10=4,30=1,38=1/1,3;
 2/12=2,17=4,18=3,40=1/2;
 3/5=4,6=6,7=1216,11=2,16=1,25=1,30=1,71=2,74=-5,140=1/1,2,3;
 4//1;
 5/5=2,38=5,98=1/2;
 8/6=4,10=90,11=11/1;
 11/6=1,8=1,9=11,15=111,16=1/1,2,10;
 10/6=1/2;
 6/7=2,8=2,9=2,10=2,18=1,28=1/1;
 7/8=1,10=1,25=1/1,2,3,16;
 1/10=4,30=1/3;
 99//99;
 Leave Link    1 at Mon Jun 20 11:51:40 2016, MaxMem=           0 cpu:         0.3
 (Enter /home/proyectos/fulerenos/M3C-v1.9/M3C-deps_CCC/g09-AM64L-G09RevC.01/l101.exe)
 ---------
 b3lyp opt
 ---------
 Symbolic Z-matrix:
 Charge =  2 Multiplicity = 3
 C                     1.75778  -1.59511   0. 
 H                     1.06436  -2.4299    0. 
 H                     2.82827  -1.77811   0. 
 C                     1.30631  -0.23749   0. 
 H                     2.04968   0.57681   0. 
 C                    -0.00024   0.22341   0. 
 C                    -1.16246   0.71413   0. 
 C                    -2.33638   1.22361   0. 
 H                    -3.33468   1.6577    0. 
 
 NAtoms=      9 NQM=        9 NQMF=       0 NMMI=      0 NMMIF=      0
                NMic=       0 NMicF=      0.
                    Isotopes and Nuclear Properties:
 (Nuclear quadrupole moments (NQMom) in fm**2, nuclear magnetic moments (NMagM)
  in nuclear magnetons)

  Atom         1           2           3           4           5           6           7           8           9
 IAtWgt=          12           1           1          12           1          12          12          12           1
 AtmWgt=  12.0000000   1.0078250   1.0078250  12.0000000   1.0078250  12.0000000  12.0000000  12.0000000   1.0078250
 NucSpn=           0           1           1           0           1           0           0           0           1
 AtZEff=   0.0000000   0.0000000   0.0000000   0.0000000   0.0000000   0.0000000   0.0000000   0.0000000   0.0000000
 NQMom=    0.0000000   0.0000000   0.0000000   0.0000000   0.0000000   0.0000000   0.0000000   0.0000000   0.0000000
 NMagM=    0.0000000   2.7928460   2.7928460   0.0000000   2.7928460   0.0000000   0.0000000   0.0000000   2.7928460
 AtZNuc=   6.0000000   1.0000000   1.0000000   6.0000000   1.0000000   6.0000000   6.0000000   6.0000000   1.0000000
 Leave Link  101 at Mon Jun 20 11:51:40 2016, MaxMem=    33554432 cpu:         0.2
 (Enter /home/proyectos/fulerenos/M3C-v1.9/M3C-deps_CCC/g09-AM64L-G09RevC.01/l103.exe)

 GradGradGradGradGradGradGradGradGradGradGradGradGradGradGradGradGradGrad
 Berny optimization.
 Initialization pass.
 Trust Radius=3.00D-01 FncErr=1.00D-07 GrdErr=1.00D-07
 Number of steps in this run=      2 maximum allowed number of steps=      2.
 GradGradGradGradGradGradGradGradGradGradGradGradGradGradGradGradGradGrad

 Leave Link  103 at Mon Jun 20 11:51:40 2016, MaxMem=    33554432 cpu:         0.1
 (Enter /home/proyectos/fulerenos/M3C-v1.9/M3C-deps_CCC/g09-AM64L-G09RevC.01/l202.exe)
                          Input orientation:                          
 ---------------------------------------------------------------------
 Center     Atomic      Atomic             Coordinates (Angstroms)
 Number     Number       Type             X           Y           Z
 ---------------------------------------------------------------------
      1          6           0        1.757777   -1.595114    0.000000
      2          1           0        1.064364   -2.429903    0.000000
      3          1           0        2.828267   -1.778110    0.000000
      4          6           0        1.306308   -0.237487    0.000000
      5          1           0        2.049681    0.576810    0.000000
      6          6           0       -0.000239    0.223408    0.000000
      7          6           0       -1.162461    0.714132    0.000000
      8          6           0       -2.336381    1.223614    0.000000
      9          1           0       -3.334684    1.657696    0.000000
 ---------------------------------------------------------------------
                    Distance matrix (angstroms):
                    1          2          3          4          5
     1  C    0.000000
     2  H    1.085216   0.000000
     3  H    1.086019   1.880475   0.000000
     4  C    1.430725   2.205725   2.165613   0.000000
     5  H    2.191452   3.164044   2.480291   1.102580   0.000000
     6  C    2.529356   2.858923   3.465043   1.385456   2.080160
     7  C    3.722957   3.852753   4.705016   2.645827   3.215076
     8  C    4.970650   4.991318   5.973603   3.924793   4.433497
     9  H    6.042676   6.005005   7.055971   5.013036   5.491785
                    6          7          8          9
     6  C    0.000000
     7  C    1.261574   0.000000
     8  C    2.541254   1.279711   0.000000
     9  H    3.629835   2.368304   1.088594   0.000000
 Stoichiometry    C5H4(2+,3)
 Framework group  CS[SG(C5H4)]
 Deg. of freedom    15
 Full point group                 CS      NOp   2
 Largest Abelian subgroup         CS      NOp   2
 Largest concise Abelian subgroup C1      NOp   1
                         Standard orientation:                         
 ---------------------------------------------------------------------
 Center     Atomic      Atomic             Coordinates (Angstroms)
 Number     Number       Type             X           Y           Z
 ---------------------------------------------------------------------
      1          6           0       -1.756633   -1.596386   -0.000000
      2          1           0       -1.062585   -2.430647   -0.000000
      3          1           0       -2.826983   -1.780196   -0.000000
      4          6           0       -1.306196   -0.238416   -0.000000
      5          1           0       -2.050188    0.575315   -0.000000
      6          6           0        0.000000    0.223472    0.000000
      7          6           0        1.161848    0.715080    0.000000
      8          6           0        2.335381    1.225455    0.000000
      9          1           0        3.333353    1.660296    0.000000
 ---------------------------------------------------------------------
 Rotational constants (GHZ):     46.7764835      2.2858796      2.1793775
 Leave Link  202 at Mon Jun 20 11:51:40 2016, MaxMem=    33554432 cpu:         0.0
 (Enter /home/proyectos/fulerenos/M3C-v1.9/M3C-deps_CCC/g09-AM64L-G09RevC.01/l301.exe)
 Standard basis: 6-311++G(3df,2p) (5D, 7F)
 Ernie: Thresh=  0.10000D-02 Tol=  0.10000D-05 Strict=F.
 There are   187 symmetry adapted cartesian basis functions of A'  symmetry.
 There are    78 symmetry adapted cartesian basis functions of A"  symmetry.
 There are   162 symmetry adapted basis functions of A'  symmetry.
 There are    73 symmetry adapted basis functions of A"  symmetry.
   235 basis functions,   338 primitive gaussians,   265 cartesian basis functions
    17 alpha electrons       15 beta electrons
       nuclear repulsion energy       121.3033987465 Hartrees.
 IExCor=  402 DFT=T Ex+Corr=B3LYP ExCW=0 ScaHFX=  0.200000
 ScaDFX=  0.800000  0.720000  1.000000  0.810000 ScalE2=  1.000000  1.000000
 IRadAn=      0 IRanWt=     -1 IRanGd=            0 ICorTp=0 IEmpDi=  4
 NAtoms=    9 NActive=    9 NUniq=    9 SFac= 1.00D+00 NAtFMM=   60 NAOKFM=F Big=F
 Integral buffers will be    131072 words long.
 Raffenetti 2 integral format.
 Two-electron integral symmetry is turned on.
 Leave Link  301 at Mon Jun 20 11:51:40 2016, MaxMem=    33554432 cpu:         0.1
 (Enter /home/proyectos/fulerenos/M3C-v1.9/M3C-deps_CCC/g09-AM64L-G09RevC.01/l302.exe)
 NPDir=0 NMtPBC=     1 NCelOv=     1 NCel=       1 NClECP=     1 NCelD=      1
         NCelK=      1 NCelE2=     1 NClLst=     1 CellRange=     0.0.
 One-electron integrals computed using PRISM.
 NBasis=   235 RedAO= T EigKep=  1.16D-06  NBF=   162    73
 NBsUse=   234 1.00D-06 EigRej=  2.45D-08 NBFU=   161    73
 Precomputing XC quadrature grid using
 IXCGrd= 4 IRadAn=           0 IRanWt=          -1 IRanGd=           0 AccXCQ= 0.00D+00.
 Generated NRdTot=       0 NPtTot=           0 NUsed=           0 NTot=          32
 NSgBfM=   265   265   265   265   265 MxSgAt=     9 MxSgA2=     9.
 Leave Link  302 at Mon Jun 20 11:51:41 2016, MaxMem=    33554432 cpu:         1.1
 (Enter /home/proyectos/fulerenos/M3C-v1.9/M3C-deps_CCC/g09-AM64L-G09RevC.01/l303.exe)
 DipDrv:  MaxL=1.
 Leave Link  303 at Mon Jun 20 11:51:41 2016, MaxMem=    33554432 cpu:         0.1
 (Enter /home/proyectos/fulerenos/M3C-v1.9/M3C-deps_CCC/g09-AM64L-G09RevC.01/l401.exe)
 ExpMin= 3.60D-02 ExpMax= 4.56D+03 ExpMxC= 6.82D+02 IAcc=3 IRadAn=         5 AccDes= 0.00D+00
 Harris functional with IExCor=  402 and IRadAn=       5 diagonalized for initial guess.
 HarFok:  IExCor=  402 AccDes= 0.00D+00 IRadAn=         5 IDoV= 1 UseB2=F ITyADJ=14
 ICtDFT=  3500011 ScaDFX=  1.000000  1.000000  1.000000  1.000000
 FoFCou: FMM=F IPFlag=           0 FMFlag=      100000 FMFlg1=           0
         NFxFlg=           0 DoJE=T BraDBF=F KetDBF=T FulRan=T
         wScrn=  0.000000 ICntrl=     500 IOpCl=  0 I1Cent=   200000004 NGrid=           0
         NMat0=    1 NMatS0=      1 NMatT0=    0 NMatD0=    1 NMtDS0=    0 NMtDT0=    0
 Petite list used in FoFCou.
 Harris En= -192.225343588690    
 JPrj=0 DoOrth=F DoCkMO=F.
 Initial guess orbital symmetries:
 Alpha Orbitals:
       Occupied  (A') (A') (A') (A') (A') (A') (A') (A') (A') (A')
                 (A') (A') (A') (A") (A') (A") (A")
       Virtual   (A') (A") (A') (A') (A') (A') (A') (A") (A') (A")
                 (A') (A') (A") (A') (A') (A') (A") (A') (A') (A")
                 (A') (A') (A') (A') (A') (A") (A') (A') (A') (A')
                 (A") (A') (A') (A') (A") (A') (A') (A') (A") (A')
                 (A') (A') (A") (A') (A') (A") (A') (A") (A") (A')
                 (A') (A") (A") (A') (A') (A') (A') (A") (A') (A')
                 (A') (A') (A") (A') (A") (A') (A') (A") (A') (A')
                 (A") (A') (A') (A") (A') (A') (A") (A') (A") (A')
                 (A") (A') (A') (A') (A') (A") (A') (A') (A') (A")
                 (A') (A') (A') (A") (A') (A') (A') (A') (A") (A')
                 (A") (A') (A") (A') (A") (A') (A') (A") (A') (A")
                 (A') (A') (A") (A') (A') (A') (A") (A') (A") (A')
                 (A') (A") (A') (A") (A') (A') (A") (A') (A') (A")
                 (A') (A") (A') (A") (A') (A") (A") (A') (A') (A")
                 (A') (A") (A') (A') (A") (A') (A") (A') (A') (A')
                 (A') (A") (A') (A') (A") (A') (A') (A') (A') (A")
                 (A') (A') (A') (A") (A') (A") (A") (A') (A') (A')
                 (A") (A") (A') (A') (A") (A') (A') (A") (A') (A')
                 (A') (A') (A') (A') (A") (A') (A') (A") (A') (A")
                 (A') (A") (A") (A') (A") (A") (A') (A") (A') (A')
                 (A") (A') (A") (A') (A') (A") (A') (A') (A') (A')
                 (A') (A') (A') (A') (A') (A') (A')
 Beta  Orbitals:
       Occupied  (A') (A') (A') (A') (A') (A') (A') (A') (A') (A')
                 (A') (A') (A') (A") (A')
       Virtual   (A") (A") (A') (A") (A') (A') (A') (A') (A') (A")
                 (A') (A") (A') (A') (A") (A') (A') (A') (A") (A')
                 (A') (A") (A') (A') (A') (A') (A') (A") (A') (A')
                 (A') (A') (A") (A') (A') (A') (A") (A') (A') (A')
                 (A") (A') (A') (A') (A") (A') (A') (A") (A') (A")
                 (A") (A') (A') (A") (A") (A') (A') (A') (A') (A")
                 (A') (A') (A') (A') (A") (A') (A") (A') (A') (A")
                 (A') (A') (A") (A') (A') (A") (A') (A') (A") (A')
                 (A") (A') (A") (A') (A') (A') (A') (A") (A') (A')
                 (A') (A") (A') (A') (A') (A") (A') (A') (A') (A')
                 (A") (A') (A") (A') (A") (A') (A") (A') (A') (A")
                 (A') (A") (A') (A') (A") (A') (A') (A') (A") (A')
                 (A") (A') (A') (A") (A') (A") (A') (A') (A") (A')
                 (A') (A") (A') (A") (A') (A") (A') (A") (A") (A')
                 (A') (A") (A') (A") (A') (A') (A") (A') (A") (A')
                 (A') (A') (A') (A") (A') (A') (A") (A') (A') (A')
                 (A') (A") (A') (A') (A') (A") (A') (A") (A") (A')
                 (A') (A') (A") (A") (A') (A') (A") (A') (A') (A")
                 (A') (A') (A') (A') (A') (A') (A") (A') (A') (A")
                 (A') (A") (A') (A") (A") (A') (A") (A") (A') (A")
                 (A') (A') (A") (A') (A") (A') (A') (A") (A') (A')
                 (A') (A') (A') (A') (A') (A') (A') (A') (A')
 The electronic state of the initial guess is 3-A'.
 Initial guess <Sx>= 0.0000 <Sy>= 0.0000 <Sz>= 1.0000 <S**2>= 2.0000 S= 1.0000
 Leave Link  401 at Mon Jun 20 11:51:42 2016, MaxMem=    33554432 cpu:         5.9
 (Enter /home/proyectos/fulerenos/M3C-v1.9/M3C-deps_CCC/g09-AM64L-G09RevC.01/l502.exe)
 UHF open shell SCF:
 Using DIIS extrapolation, IDIIS=  1040.
 Integral symmetry usage will be decided dynamically.
 IVT=      232800 IEndB=      232800 NGot=    33554432 MDV=    33408763
 LenX=    33408763 LenY=    33338097
 Requested convergence on RMS density matrix=1.00D-08 within 128 cycles.
 Requested convergence on MAX density matrix=1.00D-06.
 Requested convergence on             energy=1.00D-06.
 No special actions if energy rises.
 Fock matrices will be formed incrementally for  20 cycles.

 Cycle   1  Pass 1  IDiag  1:
 FoFJK:  IHMeth= 1 ICntrl=       0 DoSepK=F KAlg= 0 I1Cent=   0 FoldK=F
 IRaf= 940000000 NMat=   1 IRICut=       1 DoRegI=T DoRafI=F ISym2E= 1.
 FoFCou: FMM=F IPFlag=           0 FMFlag=      100000 FMFlg1=           0
         NFxFlg=           0 DoJE=F BraDBF=F KetDBF=F FulRan=T
         wScrn=  0.000000 ICntrl=       0 IOpCl=  1 I1Cent=           0 NGrid=           0
         NMat0=    1 NMatS0=      1 NMatT0=    0 NMatD0=    1 NMtDS0=    0 NMtDT0=    0
 Petite list used in FoFCou.
 E= -191.897050663828    
 DIIS: error= 1.22D-02 at cycle   1 NSaved=   1.
 NSaved= 1 IEnMin= 1 EnMin= -191.897050663828     IErMin= 1 ErrMin= 1.22D-02
 ErrMax= 1.22D-02  0.00D+00 EMaxC= 1.00D-01 BMatC= 1.94D-01 BMatP= 1.94D-01
 IDIUse=3 WtCom= 8.78D-01 WtEn= 1.22D-01
 Coeff-Com:  0.100D+01
 Coeff-En:   0.100D+01
 Coeff:      0.100D+01
 Gap=     0.030 Goal=   None    Shift=    0.000
 Gap=     0.159 Goal=   None    Shift=    0.000
 GapD=    0.030 DampG=0.250 DampE=0.500 DampFc=0.2500 IDamp=-1.
 Damping current iteration by 2.50D-01
 RMSDP=7.00D-03 MaxDP=2.77D-01              OVMax= 2.86D-01

 Cycle   2  Pass 1  IDiag  1:
 RMSU=  1.40D-03    CP:  1.03D+00
 E= -191.912656151698     Delta-E=       -0.015605487869 Rises=F Damp=T
 DIIS: error= 9.14D-03 at cycle   2 NSaved=   2.
 NSaved= 2 IEnMin= 2 EnMin= -191.912656151698     IErMin= 2 ErrMin= 9.14D-03
 ErrMax= 9.14D-03  0.00D+00 EMaxC= 1.00D-01 BMatC= 7.01D-02 BMatP= 1.94D-01
 IDIUse=3 WtCom= 9.09D-01 WtEn= 9.14D-02
 Coeff-Com: -0.939D+00 0.194D+01
 Coeff-En:   0.000D+00 0.100D+01
 Coeff:     -0.854D+00 0.185D+01
 Gap=     0.074 Goal=   None    Shift=    0.000
 Gap=     0.152 Goal=   None    Shift=    0.000
 RMSDP=5.09D-03 MaxDP=2.92D-01 DE=-1.56D-02 OVMax= 1.61D-01

 Cycle   3  Pass 1  IDiag  1:
 RMSU=  1.53D-03    CP:  1.14D+00  2.94D+00
 E= -191.942761587412     Delta-E=       -0.030105435714 Rises=F Damp=F
 DIIS: error= 5.08D-03 at cycle   3 NSaved=   3.
 NSaved= 3 IEnMin= 3 EnMin= -191.942761587412     IErMin= 3 ErrMin= 5.08D-03
 ErrMax= 5.08D-03  0.00D+00 EMaxC= 1.00D-01 BMatC= 1.07D-02 BMatP= 7.01D-02
 IDIUse=3 WtCom= 9.49D-01 WtEn= 5.08D-02
 Coeff-Com: -0.478D+00 0.737D+00 0.741D+00
 Coeff-En:   0.000D+00 0.000D+00 0.100D+01
 Coeff:     -0.454D+00 0.700D+00 0.755D+00
 Gap=     0.068 Goal=   None    Shift=    0.000
 Gap=     0.137 Goal=   None    Shift=    0.000
 RMSDP=1.51D-03 MaxDP=9.14D-02 DE=-3.01D-02 OVMax= 5.59D-02

 Cycle   4  Pass 1  IDiag  1:
 RMSU=  7.66D-04    CP:  1.11D+00  2.94D+00  7.72D-01
 E= -191.941583703985     Delta-E=        0.001177883427 Rises=F Damp=F
 DIIS: error= 7.29D-03 at cycle   4 NSaved=   4.
 NSaved= 4 IEnMin= 3 EnMin= -191.942761587412     IErMin= 3 ErrMin= 5.08D-03
 ErrMax= 7.29D-03  0.00D+00 EMaxC= 1.00D-01 BMatC= 1.50D-02 BMatP= 1.07D-02
 IDIUse=3 WtCom= 1.05D-01 WtEn= 8.95D-01
 Coeff-Com: -0.299D+00 0.429D+00 0.575D+00 0.294D+00
 Coeff-En:   0.000D+00 0.000D+00 0.567D+00 0.433D+00
 Coeff:     -0.313D-01 0.450D-01 0.568D+00 0.419D+00
 Gap=     0.067 Goal=   None    Shift=    0.000
 Gap=     0.135 Goal=   None    Shift=    0.000
 RMSDP=6.62D-04 MaxDP=2.83D-02 DE= 1.18D-03 OVMax= 5.60D-02

 Cycle   5  Pass 1  IDiag  1:
 RMSU=  4.38D-04    CP:  1.10D+00  3.00D+00  7.32D-01  3.78D-01
 E= -191.944294913904     Delta-E=       -0.002711209919 Rises=F Damp=F
 DIIS: error= 3.29D-03 at cycle   5 NSaved=   5.
 NSaved= 5 IEnMin= 5 EnMin= -191.944294913904     IErMin= 5 ErrMin= 3.29D-03
 ErrMax= 3.29D-03  0.00D+00 EMaxC= 1.00D-01 BMatC= 7.18D-03 BMatP= 1.07D-02
 IDIUse=3 WtCom= 9.67D-01 WtEn= 3.29D-02
 EnCoef did     5 forward-backward iterations
 Coeff-Com:  0.856D-01-0.120D+00 0.233D+00 0.330D+00 0.472D+00
 Coeff-En:   0.000D+00 0.000D+00 0.176D+00 0.296D+00 0.528D+00
 Coeff:      0.827D-01-0.116D+00 0.231D+00 0.329D+00 0.474D+00
 Gap=     0.069 Goal=   None    Shift=    0.000
 Gap=     0.138 Goal=   None    Shift=    0.000
 RMSDP=3.48D-04 MaxDP=1.39D-02 DE=-2.71D-03 OVMax= 2.51D-02

 Cycle   6  Pass 1  IDiag  1:
 RMSU=  1.24D-04    CP:  1.11D+00  2.95D+00  8.29D-01  5.73D-01  6.70D-01
 E= -191.946072848401     Delta-E=       -0.001777934498 Rises=F Damp=F
 DIIS: error= 7.88D-04 at cycle   6 NSaved=   6.
 NSaved= 6 IEnMin= 6 EnMin= -191.946072848401     IErMin= 6 ErrMin= 7.88D-04
 ErrMax= 7.88D-04  0.00D+00 EMaxC= 1.00D-01 BMatC= 1.63D-04 BMatP= 7.18D-03
 IDIUse=3 WtCom= 9.92D-01 WtEn= 7.88D-03
 Coeff-Com:  0.102D+00-0.147D+00 0.573D-01 0.160D+00 0.303D+00 0.525D+00
 Coeff-En:   0.000D+00 0.000D+00 0.000D+00 0.000D+00 0.000D+00 0.100D+01
 Coeff:      0.101D+00-0.145D+00 0.569D-01 0.159D+00 0.300D+00 0.529D+00
 Gap=     0.070 Goal=   None    Shift=    0.000
 Gap=     0.137 Goal=   None    Shift=    0.000
 RMSDP=1.07D-04 MaxDP=6.87D-03 DE=-1.78D-03 OVMax= 6.49D-03

 Cycle   7  Pass 1  IDiag  1:
 RMSU=  7.42D-05    CP:  1.11D+00  2.95D+00  8.43D-01  5.71D-01  7.17D-01
                    CP:  8.80D-01
 E= -191.946128976443     Delta-E=       -0.000056128042 Rises=F Damp=F
 DIIS: error= 2.09D-04 at cycle   7 NSaved=   7.
 NSaved= 7 IEnMin= 7 EnMin= -191.946128976443     IErMin= 7 ErrMin= 2.09D-04
 ErrMax= 2.09D-04  0.00D+00 EMaxC= 1.00D-01 BMatC= 1.91D-05 BMatP= 1.63D-04
 IDIUse=3 WtCom= 9.98D-01 WtEn= 2.09D-03
 Coeff-Com:  0.247D-01-0.348D-01-0.440D-01-0.228D-01-0.480D-02 0.226D+00
 Coeff-Com:  0.855D+00
 Coeff-En:   0.000D+00 0.000D+00 0.000D+00 0.000D+00 0.000D+00 0.000D+00
 Coeff-En:   0.100D+01
 Coeff:      0.247D-01-0.347D-01-0.439D-01-0.227D-01-0.479D-02 0.226D+00
 Coeff:      0.855D+00
 Gap=     0.070 Goal=   None    Shift=    0.000
 Gap=     0.138 Goal=   None    Shift=    0.000
 RMSDP=5.29D-05 MaxDP=3.25D-03 DE=-5.61D-05 OVMax= 3.14D-03

 Cycle   8  Pass 1  IDiag  1:
 RMSU=  2.57D-05    CP:  1.11D+00  2.95D+00  8.43D-01  5.82D-01  7.74D-01
                    CP:  1.15D+00  1.12D+00
 E= -191.946140587641     Delta-E=       -0.000011611198 Rises=F Damp=F
 DIIS: error= 1.13D-04 at cycle   8 NSaved=   8.
 NSaved= 8 IEnMin= 8 EnMin= -191.946140587641     IErMin= 8 ErrMin= 1.13D-04
 ErrMax= 1.13D-04  0.00D+00 EMaxC= 1.00D-01 BMatC= 6.10D-06 BMatP= 1.91D-05
 IDIUse=3 WtCom= 9.99D-01 WtEn= 1.13D-03
 Coeff-Com: -0.749D-02 0.110D-01-0.284D-01-0.373D-01-0.579D-01 0.179D-01
 Coeff-Com:  0.466D+00 0.636D+00
 Coeff-En:   0.000D+00 0.000D+00 0.000D+00 0.000D+00 0.000D+00 0.000D+00
 Coeff-En:   0.000D+00 0.100D+01
 Coeff:     -0.748D-02 0.110D-01-0.284D-01-0.372D-01-0.578D-01 0.179D-01
 Coeff:      0.466D+00 0.636D+00
 Gap=     0.070 Goal=   None    Shift=    0.000
 Gap=     0.138 Goal=   None    Shift=    0.000
 RMSDP=2.06D-05 MaxDP=1.17D-03 DE=-1.16D-05 OVMax= 1.60D-03

 Cycle   9  Pass 1  IDiag  1:
 RMSU=  1.29D-05    CP:  1.11D+00  2.95D+00  8.45D-01  5.91D-01  7.86D-01
                    CP:  1.20D+00  1.25D+00  1.11D+00
 E= -191.946144264734     Delta-E=       -0.000003677093 Rises=F Damp=F
 DIIS: error= 3.91D-05 at cycle   9 NSaved=   9.
 NSaved= 9 IEnMin= 9 EnMin= -191.946144264734     IErMin= 9 ErrMin= 3.91D-05
 ErrMax= 3.91D-05  0.00D+00 EMaxC= 1.00D-01 BMatC= 8.07D-07 BMatP= 6.10D-06
 IDIUse=1 WtCom= 1.00D+00 WtEn= 0.00D+00
 Coeff-Com: -0.521D-02 0.749D-02 0.301D-02-0.172D-02-0.803D-02-0.437D-01
 Coeff-Com: -0.115D+00 0.118D+00 0.105D+01
 Coeff:     -0.521D-02 0.749D-02 0.301D-02-0.172D-02-0.803D-02-0.437D-01
 Coeff:     -0.115D+00 0.118D+00 0.105D+01
 Gap=     0.070 Goal=   None    Shift=    0.000
 Gap=     0.138 Goal=   None    Shift=    0.000
 RMSDP=1.63D-05 MaxDP=4.24D-04 DE=-3.68D-06 OVMax= 1.64D-03

 Cycle  10  Pass 1  IDiag  1:
 RMSU=  7.98D-06    CP:  1.11D+00  2.95D+00  8.45D-01  5.92D-01  7.93D-01
                    CP:  1.24D+00  1.33D+00  1.42D+00  1.60D+00
 E= -191.946145911441     Delta-E=       -0.000001646707 Rises=F Damp=F
 DIIS: error= 2.73D-05 at cycle  10 NSaved=  10.
 NSaved=10 IEnMin=10 EnMin= -191.946145911441     IErMin=10 ErrMin= 2.73D-05
 ErrMax= 2.73D-05  0.00D+00 EMaxC= 1.00D-01 BMatC= 2.49D-07 BMatP= 8.07D-07
 IDIUse=1 WtCom= 1.00D+00 WtEn= 0.00D+00
 Coeff-Com:  0.265D-02-0.390D-02 0.101D-01 0.118D-01 0.199D-01-0.269D-02
 Coeff-Com: -0.164D+00-0.181D+00 0.141D-01 0.129D+01
 Coeff:      0.265D-02-0.390D-02 0.101D-01 0.118D-01 0.199D-01-0.269D-02
 Coeff:     -0.164D+00-0.181D+00 0.141D-01 0.129D+01
 Gap=     0.070 Goal=   None    Shift=    0.000
 Gap=     0.138 Goal=   None    Shift=    0.000
 RMSDP=1.45D-05 MaxDP=5.30D-04 DE=-1.65D-06 OVMax= 1.43D-03

 Cycle  11  Pass 1  IDiag  1:
 RMSU=  5.17D-06    CP:  1.11D+00  2.95D+00  8.45D-01  5.95D-01  7.97D-01
                    CP:  1.27D+00  1.36D+00  1.69D+00  2.19D+00  1.92D+00
 E= -191.946146672740     Delta-E=       -0.000000761299 Rises=F Damp=F
 DIIS: error= 1.03D-05 at cycle  11 NSaved=  11.
 NSaved=11 IEnMin=11 EnMin= -191.946146672740     IErMin=11 ErrMin= 1.03D-05
 ErrMax= 1.03D-05  0.00D+00 EMaxC= 1.00D-01 BMatC= 4.87D-08 BMatP= 2.49D-07
 IDIUse=1 WtCom= 1.00D+00 WtEn= 0.00D+00
 Coeff-Com:  0.146D-02-0.204D-02-0.575D-03 0.440D-03 0.217D-02 0.156D-01
 Coeff-Com:  0.287D-01-0.383D-01-0.332D+00 0.742D-01 0.125D+01
 Coeff:      0.146D-02-0.204D-02-0.575D-03 0.440D-03 0.217D-02 0.156D-01
 Coeff:      0.287D-01-0.383D-01-0.332D+00 0.742D-01 0.125D+01
 Gap=     0.070 Goal=   None    Shift=    0.000
 Gap=     0.138 Goal=   None    Shift=    0.000
 RMSDP=8.61D-06 MaxDP=2.74D-04 DE=-7.61D-07 OVMax= 8.30D-04

 Cycle  12  Pass 1  IDiag  1:
 RMSU=  1.69D-06    CP:  1.11D+00  2.95D+00  8.45D-01  5.94D-01  7.96D-01
                    CP:  1.27D+00  1.37D+00  1.81D+00  2.51D+00  2.69D+00
                    CP:  1.48D+00
 E= -191.946146829047     Delta-E=       -0.000000156307 Rises=F Damp=F
 DIIS: error= 3.11D-06 at cycle  12 NSaved=  12.
 NSaved=12 IEnMin=12 EnMin= -191.946146829047     IErMin=12 ErrMin= 3.11D-06
 ErrMax= 3.11D-06  0.00D+00 EMaxC= 1.00D-01 BMatC= 5.40D-09 BMatP= 4.87D-08
 IDIUse=1 WtCom= 1.00D+00 WtEn= 0.00D+00
 Coeff-Com: -0.179D-03 0.239D-03-0.993D-03-0.820D-03-0.196D-02 0.841D-03
 Coeff-Com:  0.201D-01 0.143D-01-0.312D-01-0.146D+00 0.128D+00 0.102D+01
 Coeff:     -0.179D-03 0.239D-03-0.993D-03-0.820D-03-0.196D-02 0.841D-03
 Coeff:      0.201D-01 0.143D-01-0.312D-01-0.146D+00 0.128D+00 0.102D+01
 Gap=     0.070 Goal=   None    Shift=    0.000
 Gap=     0.138 Goal=   None    Shift=    0.000
 RMSDP=2.18D-06 MaxDP=1.14D-04 DE=-1.56D-07 OVMax= 1.90D-04

 Cycle  13  Pass 1  IDiag  1:
 RMSU=  4.89D-07    CP:  1.11D+00  2.95D+00  8.45D-01  5.95D-01  7.95D-01
                    CP:  1.27D+00  1.37D+00  1.83D+00  2.59D+00  2.85D+00
                    CP:  1.65D+00  9.80D-01
 E= -191.946146837787     Delta-E=       -0.000000008740 Rises=F Damp=F
 DIIS: error= 1.02D-06 at cycle  13 NSaved=  13.
 NSaved=13 IEnMin=13 EnMin= -191.946146837787     IErMin=13 ErrMin= 1.02D-06
 ErrMax= 1.02D-06  0.00D+00 EMaxC= 1.00D-01 BMatC= 5.56D-10 BMatP= 5.40D-09
 IDIUse=1 WtCom= 1.00D+00 WtEn= 0.00D+00
 Coeff-Com: -0.127D-03 0.187D-03-0.175D-03-0.219D-03-0.557D-03-0.828D-03
 Coeff-Com:  0.505D-03 0.769D-02 0.235D-01-0.311D-01-0.102D+00 0.137D+00
 Coeff-Com:  0.966D+00
 Coeff:     -0.127D-03 0.187D-03-0.175D-03-0.219D-03-0.557D-03-0.828D-03
 Coeff:      0.505D-03 0.769D-02 0.235D-01-0.311D-01-0.102D+00 0.137D+00
 Coeff:      0.966D+00
 Gap=     0.070 Goal=   None    Shift=    0.000
 Gap=     0.138 Goal=   None    Shift=    0.000
 RMSDP=4.73D-07 MaxDP=2.40D-05 DE=-8.74D-09 OVMax= 4.01D-05

 Cycle  14  Pass 1  IDiag  1:
 RMSU=  1.39D-07    CP:  1.11D+00  2.95D+00  8.45D-01  5.95D-01  7.95D-01
                    CP:  1.27D+00  1.36D+00  1.83D+00  2.60D+00  2.88D+00
                    CP:  1.68D+00  1.06D+00  1.17D+00
 E= -191.946146838422     Delta-E=       -0.000000000635 Rises=F Damp=F
 DIIS: error= 3.99D-07 at cycle  14 NSaved=  14.
 NSaved=14 IEnMin=14 EnMin= -191.946146838422     IErMin=14 ErrMin= 3.99D-07
 ErrMax= 3.99D-07  0.00D+00 EMaxC= 1.00D-01 BMatC= 7.35D-11 BMatP= 5.56D-10
 IDIUse=1 WtCom= 1.00D+00 WtEn= 0.00D+00
 Coeff-Com:  0.220D-04-0.310D-04 0.138D-03 0.106D-03 0.213D-03-0.424D-04
 Coeff-Com: -0.316D-02-0.146D-02 0.736D-02 0.172D-01-0.290D-01-0.122D+00
 Coeff-Com:  0.595D-01 0.107D+01
 Coeff:      0.220D-04-0.310D-04 0.138D-03 0.106D-03 0.213D-03-0.424D-04
 Coeff:     -0.316D-02-0.146D-02 0.736D-02 0.172D-01-0.290D-01-0.122D+00
 Coeff:      0.595D-01 0.107D+01
 Gap=     0.070 Goal=   None    Shift=    0.000
 Gap=     0.138 Goal=   None    Shift=    0.000
 RMSDP=1.19D-07 MaxDP=4.06D-06 DE=-6.35D-10 OVMax= 1.18D-05

 Cycle  15  Pass 1  IDiag  1:
 RMSU=  5.29D-08    CP:  1.11D+00  2.95D+00  8.45D-01  5.95D-01  7.95D-01
                    CP:  1.27D+00  1.36D+00  1.83D+00  2.60D+00  2.89D+00
                    CP:  1.68D+00  1.08D+00  1.30D+00  1.21D+00
 E= -191.946146838507     Delta-E=       -0.000000000085 Rises=F Damp=F
 DIIS: error= 2.19D-07 at cycle  15 NSaved=  15.
 NSaved=15 IEnMin=15 EnMin= -191.946146838507     IErMin=15 ErrMin= 2.19D-07
 ErrMax= 2.19D-07  0.00D+00 EMaxC= 1.00D-01 BMatC= 1.21D-11 BMatP= 7.35D-11
 IDIUse=1 WtCom= 1.00D+00 WtEn= 0.00D+00
 Coeff-Com:  0.738D-05-0.105D-04 0.104D-04 0.186D-04 0.204D-04 0.186D-03
 Coeff-Com: -0.160D-04-0.548D-03-0.227D-02 0.202D-02 0.973D-02-0.769D-02
 Coeff-Com: -0.946D-01 0.175D-01 0.108D+01
 Coeff:      0.738D-05-0.105D-04 0.104D-04 0.186D-04 0.204D-04 0.186D-03
 Coeff:     -0.160D-04-0.548D-03-0.227D-02 0.202D-02 0.973D-02-0.769D-02
 Coeff:     -0.946D-01 0.175D-01 0.108D+01
 Gap=     0.070 Goal=   None    Shift=    0.000
 Gap=     0.138 Goal=   None    Shift=    0.000
 RMSDP=3.74D-08 MaxDP=2.32D-06 DE=-8.46D-11 OVMax= 4.21D-06

 Cycle  16  Pass 1  IDiag  1:
 RMSU=  1.58D-08    CP:  1.11D+00  2.95D+00  8.45D-01  5.95D-01  7.95D-01
                    CP:  1.27D+00  1.36D+00  1.83D+00  2.60D+00  2.89D+00
                    CP:  1.68D+00  1.08D+00  1.31D+00  1.32D+00  1.22D+00
 E= -191.946146838511     Delta-E=       -0.000000000004 Rises=F Damp=F
 DIIS: error= 8.08D-08 at cycle  16 NSaved=  16.
 NSaved=16 IEnMin=16 EnMin= -191.946146838511     IErMin=16 ErrMin= 8.08D-08
 ErrMax= 8.08D-08  0.00D+00 EMaxC= 1.00D-01 BMatC= 2.07D-12 BMatP= 1.21D-11
 IDIUse=1 WtCom= 1.00D+00 WtEn= 0.00D+00
 Coeff-Com: -0.370D-05 0.507D-05-0.214D-04-0.142D-04-0.416D-04 0.297D-04
 Coeff-Com:  0.421D-03 0.314D-03-0.902D-03-0.295D-02 0.374D-02 0.197D-01
 Coeff-Com: -0.138D-03-0.166D+00-0.859D-01 0.123D+01
 Coeff:     -0.370D-05 0.507D-05-0.214D-04-0.142D-04-0.416D-04 0.297D-04
 Coeff:      0.421D-03 0.314D-03-0.902D-03-0.295D-02 0.374D-02 0.197D-01
 Coeff:     -0.138D-03-0.166D+00-0.859D-01 0.123D+01
 Gap=     0.070 Goal=   None    Shift=    0.000
 Gap=     0.138 Goal=   None    Shift=    0.000
 RMSDP=2.13D-08 MaxDP=1.41D-06 DE=-3.92D-12 OVMax= 2.62D-06

 Cycle  17  Pass 1  IDiag  1:
 RMSU=  6.71D-09    CP:  1.11D+00  2.95D+00  8.45D-01  5.95D-01  7.95D-01
                    CP:  1.27D+00  1.36D+00  1.83D+00  2.60D+00  2.88D+00
                    CP:  1.68D+00  1.07D+00  1.31D+00  1.35D+00  1.31D+00
                    CP:  1.47D+00
 E= -191.946146838515     Delta-E=       -0.000000000005 Rises=F Damp=F
 DIIS: error= 2.70D-08 at cycle  17 NSaved=  17.
 NSaved=17 IEnMin=17 EnMin= -191.946146838515     IErMin=17 ErrMin= 2.70D-08
 ErrMax= 2.70D-08  0.00D+00 EMaxC= 1.00D-01 BMatC= 2.63D-13 BMatP= 2.07D-12
 IDIUse=1 WtCom= 1.00D+00 WtEn= 0.00D+00
 Coeff-Com: -0.603D-06 0.881D-06-0.336D-05-0.375D-05-0.775D-05-0.864D-05
 Coeff-Com:  0.522D-05 0.104D-03 0.320D-03-0.481D-03-0.139D-02 0.189D-02
 Coeff-Com:  0.156D-01-0.786D-02-0.169D+00 0.286D-01 0.113D+01
 Coeff:     -0.603D-06 0.881D-06-0.336D-05-0.375D-05-0.775D-05-0.864D-05
 Coeff:      0.522D-05 0.104D-03 0.320D-03-0.481D-03-0.139D-02 0.189D-02
 Coeff:      0.156D-01-0.786D-02-0.169D+00 0.286D-01 0.113D+01
 Gap=     0.070 Goal=   None    Shift=    0.000
 Gap=     0.138 Goal=   None    Shift=    0.000
 RMSDP=7.10D-09 MaxDP=3.56D-07 DE=-4.55D-12 OVMax= 9.68D-07

 SCF Done:  E(UB3LYP) =  -191.946146839     A.U. after   17 cycles
            NFock= 17  Conv=0.71D-08     -V/T= 2.0046
 <Sx>= 0.0000 <Sy>= 0.0000 <Sz>= 1.0000 <S**2>= 2.0121 S= 1.0040
 <L.S>= 0.000000000000E+00
 KE= 1.910732329246D+02 PE=-6.726888971122D+02 EE= 1.683661186026D+02
 Annihilation of the first spin contaminant:
 S**2 before annihilation     2.0121,   after     2.0001
 Leave Link  502 at Mon Jun 20 11:53:27 2016, MaxMem=    33554432 cpu:       408.5
 (Enter /home/proyectos/fulerenos/M3C-v1.9/M3C-deps_CCC/g09-AM64L-G09RevC.01/l801.exe)
 DoSCS=F DFT=T ScalE2(SS,OS)=  1.000000  1.000000
 Range of M.O.s used for correlation:     1   234
 NBasis=   235 NAE=    17 NBE=    15 NFC=     0 NFV=     0
 NROrb=    234 NOA=    17 NOB=    15 NVA=   217 NVB=   219

 **** Warning!!: The largest alpha MO coefficient is  0.30758268D+03


 **** Warning!!: The smallest alpha delta epsilon is  0.69757589D-01


 **** Warning!!: The largest beta MO coefficient is  0.30156935D+03

 Leave Link  801 at Mon Jun 20 11:53:27 2016, MaxMem=    33554432 cpu:         0.1
 (Enter /home/proyectos/fulerenos/M3C-v1.9/M3C-deps_CCC/g09-AM64L-G09RevC.01/l1101.exe)
 Using compressed storage, NAtomX=     9.
 Will process     10 centers per pass.
 Leave Link 1101 at Mon Jun 20 11:53:27 2016, MaxMem=    33554432 cpu:         0.9
 (Enter /home/proyectos/fulerenos/M3C-v1.9/M3C-deps_CCC/g09-AM64L-G09RevC.01/l1102.exe)
 Symmetrizing basis deriv contribution to polar:
 IMax=3 JMax=2 DiffMx= 0.00D+00
 Leave Link 1102 at Mon Jun 20 11:53:27 2016, MaxMem=    33554432 cpu:         0.1
 (Enter /home/proyectos/fulerenos/M3C-v1.9/M3C-deps_CCC/g09-AM64L-G09RevC.01/l1110.exe)
 Forming Gx(P) for the SCF density, NAtomX=     9.
 Integral derivatives from FoFJK, PRISM(SPDF).
 Do as many integral derivatives as possible in FoFJK.
 G2DrvN: MDV=      33554256.
 G2DrvN: will do    10 centers at a time, making    1 passes.
 Calling FoFCou, ICntrl=  3107 FMM=F I1Cent=   0 AccDes= 0.00D+00.
 FoFJK:  IHMeth= 1 ICntrl=    3107 DoSepK=F KAlg= 0 I1Cent=   0 FoldK=F
 IRaf=         0 NMat=   1 IRICut=       1 DoRegI=T DoRafI=F ISym2E= 1.
 FoFCou: FMM=F IPFlag=           0 FMFlag=      100000 FMFlg1=           0
         NFxFlg=           0 DoJE=F BraDBF=F KetDBF=F FulRan=T
         wScrn=  0.000000 ICntrl=    3107 IOpCl=  1 I1Cent=           0 NGrid=           0
         NMat0=    1 NMatS0=      1 NMatT0=    0 NMatD0=    1 NMtDS0=    0 NMtDT0=    0
 Petite list used in FoFCou.
 End of G2Drv F.D. properties file   721 does not exist.
 End of G2Drv F.D. properties file   722 does not exist.
 End of G2Drv F.D. properties file   788 does not exist.
 Leave Link 1110 at Mon Jun 20 11:54:15 2016, MaxMem=    33554432 cpu:       190.1
 (Enter /home/proyectos/fulerenos/M3C-v1.9/M3C-deps_CCC/g09-AM64L-G09RevC.01/l1002.exe)
 Minotr:  UHF open shell wavefunction.
          IDoAtm=111111111
          Direct CPHF calculation.
          Differentiating once with respect to electric field.
                with respect to dipole field.
          Differentiating once with respect to nuclear coordinates.
          Using symmetry in CPHF.
          Requested convergence is 1.0D-08 RMS, and 1.0D-07 maximum.
          Secondary convergence is 1.0D-12 RMS, and 1.0D-12 maximum.
          NewPWx=T KeepS1=F KeepF1=F KeepIn=T MapXYZ=F SortEE=F KeepMc=T.
          MDV=      33553870 using IRadAn=       2.
 Generate precomputed XC quadrature information.
          Solving linear equations simultaneously, MaxMat=       0.
 FoFJK:  IHMeth= 1 ICntrl=       0 DoSepK=F KAlg= 0 I1Cent=   0 FoldK=F
 IRaf= 940000000 NMat=  30 IRICut=      75 DoRegI=T DoRafI=T ISym2E= 2.
 FoFCou: FMM=F IPFlag=           0 FMFlag=      100000 FMFlg1=           0
         NFxFlg=           0 DoJE=F BraDBF=F KetDBF=F FulRan=T
         wScrn=  0.000000 ICntrl=       0 IOpCl=  1 I1Cent=           0 NGrid=           0
         NMat0=   30 NMatS0=     30 NMatT0=    0 NMatD0=   30 NMtDS0=    0 NMtDT0=    0
 Integrals replicated using symmetry in FoFCou.
          There are    30 degrees of freedom in the 1st order CPHF.  IDoFFX=6 NUNeed=     3.
     27 vectors produced by pass  0 Test12= 2.32D-14 3.33D-09 XBig12= 4.81D+02 1.30D+01.
 AX will form    27 AO Fock derivatives at one time.
     27 vectors produced by pass  1 Test12= 2.32D-14 3.33D-09 XBig12= 1.90D+02 5.75D+00.
     27 vectors produced by pass  2 Test12= 2.32D-14 3.33D-09 XBig12= 8.31D+00 8.58D-01.
     27 vectors produced by pass  3 Test12= 2.32D-14 3.33D-09 XBig12= 9.95D-02 7.45D-02.
     27 vectors produced by pass  4 Test12= 2.32D-14 3.33D-09 XBig12= 1.19D-03 1.18D-02.
     27 vectors produced by pass  5 Test12= 2.32D-14 3.33D-09 XBig12= 9.99D-06 6.79D-04.
     26 vectors produced by pass  6 Test12= 2.32D-14 3.33D-09 XBig12= 3.20D-08 2.38D-05.
     10 vectors produced by pass  7 Test12= 2.32D-14 3.33D-09 XBig12= 1.03D-10 1.12D-06.
      5 vectors produced by pass  8 Test12= 2.32D-14 3.33D-09 XBig12= 1.77D-12 3.38D-07.
      4 vectors produced by pass  9 Test12= 2.32D-14 3.33D-09 XBig12= 2.32D-13 9.86D-08.
      4 vectors produced by pass 10 Test12= 2.32D-14 3.33D-09 XBig12= 3.77D-15 1.29D-08.
      3 vectors produced by pass 11 Test12= 2.32D-14 3.33D-09 XBig12= 1.15D-15 6.51D-09.
      2 vectors produced by pass 12 Test12= 2.32D-14 3.33D-09 XBig12= 7.82D-16 4.39D-09.
 InvSVY:  IOpt=1 It=  1 EMax= 2.16D-15
 Solved reduced A of dimension   216 with    30 vectors.
 FullF1:  Do perturbations    1 to     3.
 Isotropic polarizability for W=    0.000000       59.53 Bohr**3.
 End of Minotr F.D. properties file   721 does not exist.
 End of Minotr F.D. properties file   722 does not exist.
 End of Minotr F.D. properties file   788 does not exist.
 Leave Link 1002 at Mon Jun 20 11:57:35 2016, MaxMem=    33554432 cpu:       799.4
 (Enter /home/proyectos/fulerenos/M3C-v1.9/M3C-deps_CCC/g09-AM64L-G09RevC.01/l601.exe)
 Copying SCF densities to generalized density rwf, IOpCl= 1 IROHF=0.

 **********************************************************************

            Population analysis using the SCF density.

 **********************************************************************

 Orbital symmetries:
 Alpha Orbitals:
       Occupied  (A') (A') (A') (A') (A') (A') (A') (A') (A') (A')
                 (A') (A') (A") (A') (A') (A") (A")
       Virtual   (A') (A") (A') (A") (A') (A') (A') (A') (A') (A")
                 (A') (A') (A') (A") (A') (A") (A') (A') (A") (A')
                 (A') (A') (A') (A") (A") (A') (A') (A') (A') (A')
                 (A') (A') (A") (A') (A') (A") (A') (A') (A') (A')
                 (A") (A') (A") (A') (A') (A') (A") (A") (A') (A')
                 (A") (A") (A') (A') (A") (A') (A') (A') (A') (A')
                 (A") (A') (A') (A") (A') (A') (A') (A") (A") (A')
                 (A') (A') (A') (A") (A') (A") (A') (A') (A") (A')
                 (A") (A') (A') (A') (A') (A") (A') (A') (A") (A')
                 (A') (A') (A") (A') (A') (A') (A') (A') (A") (A')
                 (A") (A') (A") (A') (A") (A') (A") (A') (A') (A")
                 (A') (A') (A") (A') (A') (A') (A") (A') (A") (A')
                 (A") (A') (A') (A') (A") (A') (A") (A') (A") (A')
                 (A") (A') (A') (A") (A') (A") (A") (A') (A") (A')
                 (A') (A") (A') (A") (A') (A") (A') (A') (A') (A')
                 (A') (A") (A') (A") (A') (A') (A') (A') (A') (A")
                 (A') (A') (A") (A') (A') (A") (A') (A") (A') (A')
                 (A") (A") (A') (A") (A') (A') (A') (A") (A') (A')
                 (A') (A') (A') (A') (A") (A') (A') (A") (A') (A")
                 (A') (A") (A") (A') (A") (A") (A") (A') (A') (A')
                 (A") (A') (A") (A') (A') (A") (A') (A') (A') (A')
                 (A') (A') (A') (A') (A') (A') (A')
 Beta  Orbitals:
       Occupied  (A') (A') (A') (A') (A') (A') (A') (A') (A') (A')
                 (A') (A') (A') (A") (A')
       Virtual   (A") (A') (A") (A") (A') (A') (A") (A') (A') (A')
                 (A') (A") (A') (A') (A') (A") (A') (A") (A') (A')
                 (A") (A') (A') (A') (A') (A") (A") (A') (A') (A')
                 (A') (A') (A') (A') (A") (A') (A') (A') (A") (A')
                 (A') (A') (A") (A') (A') (A") (A') (A') (A') (A")
                 (A") (A') (A") (A') (A") (A') (A') (A") (A') (A')
                 (A') (A') (A") (A') (A') (A') (A") (A') (A') (A")
                 (A') (A") (A') (A') (A') (A") (A') (A") (A') (A')
                 (A") (A') (A") (A') (A') (A') (A') (A") (A') (A')
                 (A') (A") (A') (A') (A') (A") (A') (A') (A') (A')
                 (A") (A') (A") (A') (A") (A') (A") (A') (A") (A')
                 (A') (A") (A') (A') (A") (A') (A') (A') (A") (A')
                 (A") (A') (A") (A') (A') (A') (A") (A') (A") (A')
                 (A') (A") (A') (A") (A') (A") (A') (A") (A') (A")
                 (A') (A") (A') (A') (A") (A') (A") (A") (A') (A')
                 (A') (A') (A') (A") (A') (A") (A') (A') (A') (A')
                 (A') (A") (A') (A') (A") (A') (A') (A") (A') (A")
                 (A') (A') (A") (A") (A') (A") (A') (A') (A') (A")
                 (A') (A') (A') (A') (A') (A') (A") (A') (A') (A")
                 (A') (A") (A') (A") (A") (A') (A") (A") (A') (A')
                 (A") (A") (A') (A') (A") (A') (A') (A") (A') (A')
                 (A') (A') (A') (A') (A') (A') (A') (A') (A')
 The electronic state is 3-A'.
 Alpha  occ. eigenvalues --  -10.74363 -10.72669 -10.71548 -10.69022 -10.66325
 Alpha  occ. eigenvalues --   -1.31037  -1.26297  -1.17846  -1.09261  -0.98764
 Alpha  occ. eigenvalues --   -0.95860  -0.89982  -0.85785  -0.82907  -0.80178
 Alpha  occ. eigenvalues --   -0.78206  -0.67073
 Alpha virt. eigenvalues --   -0.60097  -0.49605  -0.37159  -0.33945  -0.31679
 Alpha virt. eigenvalues --   -0.30070  -0.28238  -0.26495  -0.25002  -0.24136
 Alpha virt. eigenvalues --   -0.23391  -0.21936  -0.21132  -0.20007  -0.18775
 Alpha virt. eigenvalues --   -0.18477  -0.17685  -0.16874  -0.15448  -0.13951
 Alpha virt. eigenvalues --   -0.13669  -0.12309  -0.10869  -0.10299  -0.09577
 Alpha virt. eigenvalues --   -0.09536  -0.08862  -0.08119  -0.06661  -0.05546
 Alpha virt. eigenvalues --   -0.04701  -0.02784  -0.02730  -0.01990   0.01279
 Alpha virt. eigenvalues --    0.01911   0.02240   0.04028   0.05211   0.06230
 Alpha virt. eigenvalues --    0.07577   0.08720   0.08828   0.08911   0.10114
 Alpha virt. eigenvalues --    0.12037   0.12287   0.12887   0.12987   0.16623
 Alpha virt. eigenvalues --    0.17550   0.18236   0.18737   0.22906   0.23148
 Alpha virt. eigenvalues --    0.23500   0.24982   0.25750   0.27789   0.27982
 Alpha virt. eigenvalues --    0.30767   0.31986   0.35401   0.36277   0.36363
 Alpha virt. eigenvalues --    0.40940   0.42910   0.47095   0.47670   0.48473
 Alpha virt. eigenvalues --    0.51422   0.53301   0.57542   0.62974   0.64343
 Alpha virt. eigenvalues --    0.66936   0.67481   0.67981   0.73044   0.75643
 Alpha virt. eigenvalues --    0.77032   0.78166   0.80837   0.81776   0.83626
 Alpha virt. eigenvalues --    0.84115   0.88245   0.90529   0.93816   0.94194
 Alpha virt. eigenvalues --    0.97617   0.99340   0.99464   1.00954   1.06074
 Alpha virt. eigenvalues --    1.09118   1.10226   1.12234   1.13731   1.14617
 Alpha virt. eigenvalues --    1.15294   1.21095   1.26296   1.30262   1.33281
 Alpha virt. eigenvalues --    1.36039   1.38716   1.41035   1.45338   1.47637
 Alpha virt. eigenvalues --    1.53203   1.57537   1.59821   1.79602   1.82773
 Alpha virt. eigenvalues --    1.88254   2.02436   2.05394   2.06514   2.11078
 Alpha virt. eigenvalues --    2.11304   2.14110   2.17385   2.19742   2.21434
 Alpha virt. eigenvalues --    2.24056   2.26452   2.29564   2.29939   2.30103
 Alpha virt. eigenvalues --    2.35145   2.36968   2.38351   2.39194   2.45024
 Alpha virt. eigenvalues --    2.45369   2.48371   2.48642   2.50354   2.51779
 Alpha virt. eigenvalues --    2.58515   2.58801   2.59667   2.62136   2.63102
 Alpha virt. eigenvalues --    2.70550   2.71768   2.73591   2.78945   2.81880
 Alpha virt. eigenvalues --    2.82929   2.85747   2.98745   3.00051   3.01449
 Alpha virt. eigenvalues --    3.09692   3.15140   3.26861   3.32234   3.39580
 Alpha virt. eigenvalues --    3.47224   3.52597   3.59791   3.62568   3.75470
 Alpha virt. eigenvalues --    3.77212   3.79310   3.79789   3.86708   3.89932
 Alpha virt. eigenvalues --    3.90566   3.92184   3.94269   4.12101   4.13716
 Alpha virt. eigenvalues --    4.21076   4.50191   4.58673   4.73213   4.91599
 Alpha virt. eigenvalues --    4.95517   5.17276   5.36167   5.54206   5.76444
 Alpha virt. eigenvalues --    5.83073   6.07633   6.40509   6.41649   6.49492
 Alpha virt. eigenvalues --    6.51984   6.56587   6.60407   6.62352   6.63112
 Alpha virt. eigenvalues --    6.75286   6.78910   6.80034   6.82509   6.87184
 Alpha virt. eigenvalues --    6.89378   6.93895   7.05929   7.15423   7.21220
 Alpha virt. eigenvalues --    7.23438   7.30075   7.47043   7.62470   7.75631
 Alpha virt. eigenvalues --    8.09035   8.20555  23.39053  24.11439  24.86510
 Alpha virt. eigenvalues --   25.80306  26.05501
  Beta  occ. eigenvalues --  -10.73123 -10.72173 -10.70919 -10.69032 -10.65470
  Beta  occ. eigenvalues --   -1.29124  -1.23541  -1.15260  -1.07478  -0.97599
  Beta  occ. eigenvalues --   -0.95107  -0.89044  -0.82370  -0.80301  -0.79635
  Beta virt. eigenvalues --   -0.65850  -0.58818  -0.54424  -0.42697  -0.36648
  Beta virt. eigenvalues --   -0.31337  -0.29572  -0.28751  -0.27952  -0.26149
  Beta virt. eigenvalues --   -0.24003  -0.23493  -0.22705  -0.21626  -0.20694
  Beta virt. eigenvalues --   -0.18993  -0.18622  -0.17595  -0.17424  -0.16447
  Beta virt. eigenvalues --   -0.14659  -0.13756  -0.12890  -0.12111  -0.10544
  Beta virt. eigenvalues --   -0.09777  -0.09160  -0.09126  -0.08584  -0.07938
  Beta virt. eigenvalues --   -0.06499  -0.05131  -0.04260  -0.02560  -0.01728
  Beta virt. eigenvalues --   -0.01559   0.01614   0.02869   0.02891   0.04403
  Beta virt. eigenvalues --    0.05415   0.06691   0.08546   0.09149   0.09305
  Beta virt. eigenvalues --    0.10406   0.10789   0.12395   0.13388   0.13730
  Beta virt. eigenvalues --    0.14566   0.16680   0.18584   0.19212   0.20195
  Beta virt. eigenvalues --    0.23199   0.23721   0.25169   0.25217   0.26337
  Beta virt. eigenvalues --    0.28233   0.28498   0.32131   0.32354   0.35714
  Beta virt. eigenvalues --    0.36877   0.37295   0.41352   0.43205   0.47860
  Beta virt. eigenvalues --    0.48606   0.49007   0.51803   0.54085   0.58220
  Beta virt. eigenvalues --    0.63882   0.64508   0.67637   0.68021   0.68351
  Beta virt. eigenvalues --    0.74619   0.76091   0.77593   0.78732   0.81905
  Beta virt. eigenvalues --    0.82139   0.84394   0.85103   0.89073   0.91448
  Beta virt. eigenvalues --    0.94515   0.95897   0.99053   1.00307   1.01839
  Beta virt. eigenvalues --    1.02485   1.06843   1.09483   1.11106   1.12935
  Beta virt. eigenvalues --    1.16524   1.17345   1.18039   1.21656   1.28566
  Beta virt. eigenvalues --    1.30474   1.35673   1.37830   1.41159   1.41938
  Beta virt. eigenvalues --    1.46521   1.50707   1.54790   1.58358   1.62927
  Beta virt. eigenvalues --    1.80294   1.85016   1.89127   2.05176   2.06846
  Beta virt. eigenvalues --    2.08525   2.12701   2.13004   2.15553   2.18215
  Beta virt. eigenvalues --    2.21066   2.24502   2.25280   2.29874   2.30194
  Beta virt. eigenvalues --    2.32249   2.33387   2.38221   2.38862   2.40456
  Beta virt. eigenvalues --    2.42040   2.46069   2.48334   2.49726   2.50830
  Beta virt. eigenvalues --    2.52103   2.54194   2.59736   2.60670   2.62140
  Beta virt. eigenvalues --    2.64650   2.64771   2.72952   2.73769   2.74661
  Beta virt. eigenvalues --    2.79476   2.83182   2.84930   2.88125   3.01413
  Beta virt. eigenvalues --    3.02196   3.02733   3.10707   3.15548   3.27517
  Beta virt. eigenvalues --    3.32917   3.41715   3.47728   3.53003   3.61875
  Beta virt. eigenvalues --    3.63937   3.75795   3.77657   3.79585   3.80664
  Beta virt. eigenvalues --    3.87111   3.90298   3.92085   3.93379   3.94482
  Beta virt. eigenvalues --    4.13766   4.14359   4.21043   4.50323   4.61133
  Beta virt. eigenvalues --    4.73637   4.92812   4.95868   5.17509   5.36519
  Beta virt. eigenvalues --    5.54623   5.78678   5.83480   6.08504   6.43928
  Beta virt. eigenvalues --    6.45246   6.53760   6.55456   6.60011   6.63468
  Beta virt. eigenvalues --    6.63602   6.65890   6.78695   6.82729   6.83622
  Beta virt. eigenvalues --    6.83894   6.91201   6.92087   6.94523   7.08898
  Beta virt. eigenvalues --    7.15550   7.23047   7.26044   7.31136   7.48136
  Beta virt. eigenvalues --    7.63207   7.76190   8.09964   8.21023  23.39808
  Beta virt. eigenvalues --   24.12418  24.87310  25.81251  26.05959
          Condensed to atoms (all electrons):
               1          2          3          4          5          6
     1  C    6.141367   0.465249   0.416238  -0.408655  -0.120491  -0.065200
     2  H    0.465249   0.364614  -0.003824   0.012280  -0.002369  -0.099198
     3  H    0.416238  -0.003824   0.350477  -0.119627   0.000131   0.066422
     4  C   -0.408655   0.012280  -0.119627  11.290146   0.311581  -4.851767
     5  H   -0.120491  -0.002369   0.000131   0.311581   0.404593   0.102790
     6  C   -0.065200  -0.099198   0.066422  -4.851767   0.102790  11.271383
     7  C   -0.050354  -0.001773  -0.008111  -2.416128   0.033021   0.922020
     8  C   -0.045291   0.008158   0.002779   1.936550  -0.001824  -1.471560
     9  H   -0.000640  -0.000039  -0.000000   0.001336   0.000296  -0.009709
               7          8          9
     1  C   -0.050354  -0.045291  -0.000640
     2  H   -0.001773   0.008158  -0.000039
     3  H   -0.008111   0.002779  -0.000000
     4  C   -2.416128   1.936550   0.001336
     5  H    0.033021  -0.001824   0.000296
     6  C    0.922020  -1.471560  -0.009709
     7  C   12.099683  -4.815082   0.021561
     8  C   -4.815082   9.627951   0.288432
     9  H    0.021561   0.288432   0.255381
          Atomic-Atomic Spin Densities.
               1          2          3          4          5          6
     1  C    0.502646   0.003036   0.000516   0.066482   0.002100  -0.022158
     2  H    0.003036  -0.017590   0.002233  -0.005035   0.000065   0.004475
     3  H    0.000516   0.002233  -0.018970   0.010940  -0.000291  -0.010445
     4  C    0.066482  -0.005035   0.010940   0.487892   0.019356  -0.098360
     5  H    0.002100   0.000065  -0.000291   0.019356  -0.014471  -0.015346
     6  C   -0.022158   0.004475  -0.010445  -0.098360  -0.015346   0.399493
     7  C   -0.002940   0.000832  -0.000262  -0.059799  -0.003599   0.061931
     8  C    0.004965  -0.001617   0.000804   0.030095   0.002384  -0.021844
     9  H   -0.000001  -0.000004   0.000004   0.000733   0.000002  -0.000304
               7          8          9
     1  C   -0.002940   0.004965  -0.000001
     2  H    0.000832  -0.001617  -0.000004
     3  H   -0.000262   0.000804   0.000004
     4  C   -0.059799   0.030095   0.000733
     5  H   -0.003599   0.002384   0.000002
     6  C    0.061931  -0.021844  -0.000304
     7  C    0.035783   0.106487  -0.003106
     8  C    0.106487   0.497888   0.000020
     9  H   -0.003106   0.000020  -0.017364
 Mulliken charges and spin densities:
               1          2
     1  C   -0.332222   0.554646
     2  H    0.256903  -0.013607
     3  H    0.295516  -0.015472
     4  C    0.244284   0.452304
     5  H    0.272271  -0.009801
     6  C    0.134819   0.297442
     7  C    0.215162   0.135328
     8  C    0.469886   0.619182
     9  H    0.443382  -0.020021
 Sum of Mulliken charges =   2.00000   2.00000
 Mulliken charges and spin densities with hydrogens summed into heavy atoms:
               1          2
     1  C    0.220197   0.525567
     4  C    0.516554   0.442503
     6  C    0.134819   0.297442
     7  C    0.215162   0.135328
     8  C    0.913268   0.599161
 APT charges:
               1
     1  C    0.181553
     2  H    0.168694
     3  H    0.233210
     4  C    0.484809
     5  H    0.244075
     6  C   -0.179990
     7  C   -0.049306
     8  C    0.500153
     9  H    0.416802
 Sum of APT charges =   2.00000
 APT charges with hydrogens summed into heavy atoms:
               1
     1  C    0.583457
     4  C    0.728884
     6  C   -0.179990
     7  C   -0.049306
     8  C    0.916955
 Electronic spatial extent (au):  <R**2>=            488.4376
 Charge=              2.0000 electrons
 Dipole moment (field-independent basis, Debye):
    X=              1.2764    Y=              0.6525    Z=              0.0000  Tot=              1.4335
 Quadrupole moment (field-independent basis, Debye-Ang):
   XX=             19.7665   YY=             -6.6032   ZZ=            -25.6114
   XY=             21.9307   XZ=              0.0000   YZ=              0.0000
 Traceless Quadrupole moment (field-independent basis, Debye-Ang):
   XX=             23.9159   YY=             -2.4539   ZZ=            -21.4620
   XY=             21.9307   XZ=              0.0000   YZ=              0.0000
 Octapole moment (field-independent basis, Debye-Ang**2):
  XXX=             40.8974  YYY=            -11.4991  ZZZ=             -0.0000  XYY=              1.9644
  XXY=             23.2696  XXZ=              0.0000  XZZ=             -0.5860  YZZ=             -0.4527
  YYZ=             -0.0000  XYZ=              0.0000
 Hexadecapole moment (field-independent basis, Debye-Ang**3):
 XXXX=            -53.7230 YYYY=           -120.0106 ZZZZ=            -24.1664 XXXY=             60.7714
 XXXZ=              0.0000 YYYX=            -43.5106 YYYZ=             -0.0000 ZZZX=             -0.0000
 ZZZY=             -0.0000 XXYY=              4.8418 XXZZ=            -73.9577 YYZZ=            -35.9902
 XXYZ=              0.0000 YYXZ=              0.0000 ZZXY=            -37.5959
 N-N= 1.213033987465D+02 E-N=-6.726888970004D+02  KE= 1.910732329246D+02
 Symmetry A'   KE= 1.861119424649D+02
 Symmetry A"   KE= 4.961290459738D+00
  Exact polarizability:  95.983  37.663  56.779   0.000   0.000  25.815
 Approx polarizability: 194.190  77.795  90.597   0.000   0.000  36.315
                          Isotropic Fermi Contact Couplings
        Atom                 a.u.       MegaHertz       Gauss      10(-4) cm-1
     1  C(13)              0.02859      16.06774       5.73337       5.35962
     2  H(1)              -0.00836     -18.68504      -6.66729      -6.23266
     3  H(1)              -0.00870     -19.44695      -6.93916      -6.48681
     4  C(13)              0.00115       0.64584       0.23045       0.21543
     5  H(1)              -0.00718     -16.04503      -5.72527      -5.35205
     6  C(13)             -0.00033      -0.18519      -0.06608      -0.06177
     7  C(13)             -0.04712     -26.48808      -9.45160      -8.83547
     8  C(13)              0.04762      26.76672       9.55103       8.92842
     9  H(1)              -0.01407     -31.45638     -11.22442     -10.49272
 --------------------------------------------------------
       Center         ----  Spin Dipole Couplings  ----
                      3XX-RR        3YY-RR        3ZZ-RR
 --------------------------------------------------------
     1   Atom       -0.361238     -0.349697      0.710935
     2   Atom       -0.016696      0.026862     -0.010165
     3   Atom        0.044349     -0.035335     -0.009014
     4   Atom       -0.292197     -0.276139      0.568336
     5   Atom       -0.001229      0.014378     -0.013149
     6   Atom       -0.219638     -0.286887      0.506525
     7   Atom        0.005307     -0.105076      0.099769
     8   Atom       -0.509372     -0.475116      0.984488
     9   Atom        0.047544     -0.036155     -0.011388
 --------------------------------------------------------
                        XY            XZ            YZ
 --------------------------------------------------------
     1   Atom        0.006758     -0.000000     -0.000000
     2   Atom       -0.040522      0.000000      0.000000
     3   Atom        0.029370     -0.000000     -0.000000
     4   Atom        0.019181     -0.000000     -0.000000
     5   Atom       -0.036064     -0.000000      0.000000
     6   Atom        0.043445      0.000000      0.000000
     7   Atom        0.060759      0.000000      0.000000
     8   Atom       -0.018683     -0.000000     -0.000000
     9   Atom        0.045248     -0.000000     -0.000000
 --------------------------------------------------------


 ---------------------------------------------------------------------------------
              Anisotropic Spin Dipole Couplings in Principal Axis System
 ---------------------------------------------------------------------------------

       Atom             a.u.   MegaHertz   Gauss  10(-4) cm-1        Axes

              Baa    -0.3644   -48.893   -17.446   -16.309  0.9081 -0.4187 -0.0000
     1 C(13)  Bbb    -0.3466   -46.508   -16.595   -15.513  0.4187  0.9081 -0.0000
              Bcc     0.7109    95.401    34.041    31.822  0.0000  0.0000  1.0000
 
              Baa    -0.0409   -21.834    -7.791    -7.283  0.8583  0.5131 -0.0000
     2 H(1)   Bbb    -0.0102    -5.424    -1.935    -1.809  0.0000  0.0000  1.0000
              Bcc     0.0511    27.257     9.726     9.092 -0.5131  0.8583  0.0000
 
              Baa    -0.0450   -24.005    -8.565    -8.007 -0.3123  0.9500  0.0000
     3 H(1)   Bbb    -0.0090    -4.809    -1.716    -1.604  0.0000  0.0000  1.0000
              Bcc     0.0540    28.814    10.282     9.611  0.9500  0.3123 -0.0000
 
              Baa    -0.3050   -40.923   -14.602   -13.650  0.8325 -0.5540 -0.0000
     4 C(13)  Bbb    -0.2634   -35.342   -12.611   -11.789  0.5540  0.8325 -0.0000
              Bcc     0.5683    76.265    27.213    25.439  0.0000  0.0000  1.0000
 
              Baa    -0.0303   -16.180    -5.773    -5.397  0.7783  0.6279  0.0000
     5 H(1)   Bbb    -0.0131    -7.015    -2.503    -2.340  0.0000  0.0000  1.0000
              Bcc     0.0435    23.195     8.277     7.737 -0.6279  0.7783 -0.0000
 
              Baa    -0.3082   -41.357   -14.757   -13.795 -0.4404  0.8978 -0.0000
     6 C(13)  Bbb    -0.1983   -26.613    -9.496    -8.877  0.8978  0.4404 -0.0000
              Bcc     0.5065    67.971    24.254    22.673  0.0000  0.0000  1.0000
 
              Baa    -0.1320   -17.709    -6.319    -5.907 -0.4047  0.9144  0.0000
     7 C(13)  Bbb     0.0322     4.321     1.542     1.441  0.9144  0.4047 -0.0000
              Bcc     0.0998    13.388     4.777     4.466  0.0000  0.0000  1.0000
 
              Baa    -0.5176   -69.456   -24.784   -23.168  0.9154  0.4026 -0.0000
     8 C(13)  Bbb    -0.4669   -62.653   -22.356   -20.899 -0.4026  0.9154  0.0000
              Bcc     0.9845   132.109    47.140    44.067  0.0000  0.0000  1.0000
 
              Baa    -0.0559   -29.847   -10.650    -9.956 -0.4006  0.9162  0.0000
     9 H(1)   Bbb    -0.0114    -6.076    -2.168    -2.027  0.0000  0.0000  1.0000
              Bcc     0.0673    35.923    12.818    11.983  0.9162  0.4006 -0.0000
 

 ---------------------------------------------------------------------------------

 No NMR shielding tensors so no spin-rotation constants.
 Leave Link  601 at Mon Jun 20 11:57:35 2016, MaxMem=    33554432 cpu:         1.8
 (Enter /home/proyectos/fulerenos/M3C-v1.9/M3C-deps_CCC/g09-AM64L-G09RevC.01/l701.exe)
 Compute integral second derivatives.
 ... and contract with generalized density number  0.
 Leave Link  701 at Mon Jun 20 11:57:35 2016, MaxMem=    33554432 cpu:         1.1
 (Enter /home/proyectos/fulerenos/M3C-v1.9/M3C-deps_CCC/g09-AM64L-G09RevC.01/l702.exe)
 L702 exits ... SP integral derivatives will be done elsewhere.
 Leave Link  702 at Mon Jun 20 11:57:35 2016, MaxMem=    33554432 cpu:         0.1
 (Enter /home/proyectos/fulerenos/M3C-v1.9/M3C-deps_CCC/g09-AM64L-G09RevC.01/l703.exe)
 Compute integral second derivatives, UseDBF=F ICtDFT=           0.
 Integral derivatives from FoFJK, PRISM(SPDF).
 Calling FoFJK, ICntrl=    100127 FMM=F ISym2X=1 I1Cent= 0 IOpClX= 1 NMat=1 NMatS=1 NMatT=0.
 FoFJK:  IHMeth= 1 ICntrl=  100127 DoSepK=F KAlg= 0 I1Cent=   0 FoldK=F
 IRaf=         0 NMat=   1 IRICut=       1 DoRegI=T DoRafI=F ISym2E= 1.
 FoFCou: FMM=F IPFlag=           0 FMFlag=      100000 FMFlg1=         800
         NFxFlg=           0 DoJE=F BraDBF=F KetDBF=F FulRan=T
         wScrn=  0.000000 ICntrl=  100127 IOpCl=  1 I1Cent=           0 NGrid=           0
         NMat0=    1 NMatS0=      1 NMatT0=    0 NMatD0=    1 NMtDS0=    0 NMtDT0=    0
 Petite list used in FoFCou.
 Leave Link  703 at Mon Jun 20 11:58:55 2016, MaxMem=    33554432 cpu:       317.6
 (Enter /home/proyectos/fulerenos/M3C-v1.9/M3C-deps_CCC/g09-AM64L-G09RevC.01/l716.exe)
 Dipole        = 5.02167361D-01 2.56704253D-01 1.97810810D-32
 Polarizability= 9.59827462D+01 3.76629145D+01 5.67792924D+01
                 2.12206413D-07 6.74042429D-07 2.58154637D+01
 Full mass-weighted force constant matrix:
 Low frequencies --- -141.7762   -2.6589   -0.0008   -0.0008   -0.0004    4.7905
 Low frequencies ---   11.6800  136.9860  151.3767
 ******    1 imaginary frequencies (negative Signs) ****** 
 Diagonal vibrational polarizability:
       10.8854686      18.1867217      32.7240063
 Harmonic frequencies (cm**-1), IR intensities (KM/Mole), Raman scattering
 activities (A**4/AMU), depolarization ratios for plane and unpolarized
 incident light, reduced masses (AMU), force constants (mDyne/A),
 and normal coordinates:
                      1                      2                      3
                     A"                     A'                     A"
 Frequencies --   -141.7673               136.9859               151.3757
 Red. masses --      1.2317                 3.3354                 2.5502
 Frc consts  --      0.0146                 0.0369                 0.0344
 IR Inten    --      5.5512                10.7265                13.3066
  Atom  AN      X      Y      Z        X      Y      Z        X      Y      Z
     1   6     0.00  -0.00  -0.02    -0.23   0.05   0.00    -0.00   0.00  -0.09
     2   1     0.00   0.00   0.64    -0.43  -0.11  -0.00    -0.00  -0.00   0.51
     3   1     0.00  -0.00  -0.58    -0.27   0.31   0.00    -0.00   0.00  -0.60
     4   6    -0.00  -0.00   0.07     0.09  -0.06   0.00     0.00  -0.00  -0.07
     5   1    -0.00  -0.00   0.49     0.25   0.10   0.00     0.00   0.00  -0.33
     6   6    -0.00   0.00  -0.12     0.14  -0.21  -0.00     0.00  -0.00   0.29
     7   6    -0.00   0.00  -0.00     0.10  -0.11  -0.00     0.00  -0.00   0.10
     8   6     0.00  -0.00   0.03    -0.05   0.24   0.00    -0.00   0.00  -0.18
     9   1     0.00  -0.00   0.00    -0.19   0.56   0.00    -0.00   0.00  -0.37
                      4                      5                      6
                     A'                     A"                     A"
 Frequencies --    300.2858               358.4281               402.6748
 Red. masses --      3.9436                 1.1533                 9.8260
 Frc consts  --      0.2095                 0.0873                 0.9387
 IR Inten    --     10.5170                41.7418                 0.1650
  Atom  AN      X      Y      Z        X      Y      Z        X      Y      Z
     1   6    -0.19  -0.08   0.00     0.00   0.00  -0.00    -0.00  -0.00   0.04
     2   1    -0.40  -0.26  -0.00     0.00   0.00   0.05    -0.00  -0.00  -0.35
     3   1    -0.24   0.21   0.00     0.00  -0.00  -0.05    -0.00   0.00   0.25
     4   6     0.12  -0.18   0.00    -0.00   0.00   0.01     0.00  -0.00  -0.06
     5   1     0.19  -0.10  -0.00    -0.00   0.00   0.01     0.00  -0.00   0.07
     6   6     0.06  -0.01  -0.00    -0.00  -0.00   0.03     0.00   0.00  -0.37
     7   6    -0.09   0.39  -0.00     0.00  -0.00  -0.02    -0.00   0.00   0.74
     8   6     0.10  -0.07   0.00    -0.00   0.00  -0.11     0.00  -0.00  -0.34
     9   1     0.30  -0.51   0.00    -0.00   0.00   0.99     0.00  -0.00  -0.10
                      7                      8                      9
                     A'                     A'                     A"
 Frequencies --    594.8377               773.7103               816.5059
 Red. masses --      4.9404                 3.5033                 1.8417
 Frc consts  --      1.0299                 1.2356                 0.7234
 IR Inten    --      8.1985                20.9169                 5.9718
  Atom  AN      X      Y      Z        X      Y      Z        X      Y      Z
     1   6    -0.15  -0.19  -0.00     0.11   0.11  -0.00     0.00   0.00   0.09
     2   1    -0.37  -0.37   0.00    -0.29  -0.22  -0.00    -0.00  -0.00  -0.13
     3   1    -0.21   0.11   0.00     0.02   0.70  -0.00     0.00   0.00   0.05
     4   6    -0.01  -0.13  -0.00     0.32  -0.06   0.00     0.00  -0.00  -0.25
     5   1    -0.28  -0.38   0.00     0.28  -0.08  -0.00     0.00  -0.00   0.95
     6   6    -0.10   0.43   0.00    -0.08   0.12  -0.00    -0.00   0.00   0.08
     7   6     0.20  -0.15  -0.00    -0.12  -0.10  -0.00    -0.00  -0.00   0.00
     8   6     0.13   0.06   0.00    -0.21  -0.09   0.00    -0.00   0.00  -0.00
     9   1     0.03   0.30   0.00    -0.25  -0.05  -0.00     0.00  -0.00  -0.00
                     10                     11                     12
                     A'                     A'                     A'
 Frequencies --    872.4246              1042.3808              1193.8771
 Red. masses --      1.3587                 1.3601                 2.3160
 Frc consts  --      0.6093                 0.8707                 1.9449
 IR Inten    --      7.4374                 3.4002                20.9836
  Atom  AN      X      Y      Z        X      Y      Z        X      Y      Z
     1   6     0.00   0.00   0.00     0.11   0.01   0.00    -0.02   0.23   0.00
     2   1     0.00   0.00  -0.00    -0.38  -0.40  -0.00     0.27   0.51  -0.00
     3   1     0.00  -0.00  -0.00     0.02   0.60  -0.00     0.04  -0.06  -0.00
     4   6    -0.00  -0.00  -0.00    -0.10   0.03  -0.00     0.01  -0.22  -0.00
     5   1     0.01   0.00   0.00    -0.45  -0.31   0.00    -0.38  -0.62  -0.00
     6   6     0.00  -0.01   0.00     0.01  -0.07   0.00    -0.07  -0.02  -0.00
     7   6    -0.03   0.08   0.00    -0.00   0.02  -0.00    -0.01  -0.01  -0.00
     8   6     0.06  -0.15  -0.00     0.04   0.02   0.00     0.08   0.03   0.00
     9   1    -0.39   0.90   0.00     0.06   0.01   0.00     0.10   0.05   0.00
                     13                     14                     15
                     A'                     A"                     A'
 Frequencies --   1309.3403              1463.3526              1472.8455
 Red. masses --      1.9020                 1.2223                 1.1878
 Frc consts  --      1.9211                 1.5421                 1.5181
 IR Inten    --    133.1607                51.8250                29.1437
  Atom  AN      X      Y      Z        X      Y      Z        X      Y      Z
     1   6     0.07   0.02   0.00     0.00   0.00  -0.14    -0.02  -0.08   0.00
     2   1    -0.04  -0.07  -0.00    -0.00  -0.00   0.59     0.55   0.40  -0.00
     3   1     0.04   0.30  -0.00     0.00   0.00   0.78    -0.16   0.70  -0.00
     4   6    -0.08  -0.11  -0.00    -0.00  -0.00  -0.01    -0.05  -0.02   0.00
     5   1     0.65   0.59  -0.00     0.00   0.00   0.14     0.02   0.03  -0.00
     6   6    -0.17  -0.02  -0.00     0.00   0.00   0.01     0.05   0.02  -0.00
     7   6    -0.03  -0.03  -0.00     0.00   0.00   0.01     0.04   0.02  -0.00
     8   6     0.14   0.06   0.00    -0.00  -0.00  -0.00    -0.04  -0.02   0.00
     9   1     0.18   0.09   0.00    -0.00  -0.00  -0.01    -0.06  -0.03   0.00
                     16                     17                     18
                     A'                     A'                     A'
 Frequencies --   1490.5595              1970.6154              2989.8307
 Red. masses --      5.0231                 9.6830                 1.0836
 Frc consts  --      6.5754                22.1546                 5.7072
 IR Inten    --    270.8072                34.1341               173.4835
  Atom  AN      X      Y      Z        X      Y      Z        X      Y      Z
     1   6    -0.09  -0.18  -0.00     0.01   0.01  -0.00    -0.00   0.00  -0.00
     2   1     0.39   0.21   0.00    -0.07  -0.03   0.00     0.00   0.00   0.00
     3   1    -0.17   0.19   0.00     0.05  -0.08   0.00     0.04   0.01   0.00
     4   6     0.28   0.26  -0.00     0.09   0.04  -0.00     0.05  -0.06  -0.00
     5   1    -0.38  -0.32   0.00    -0.11  -0.00   0.00    -0.69   0.72   0.00
     6   6    -0.26  -0.14   0.00    -0.48  -0.21   0.00     0.01   0.00   0.00
     7   6    -0.16  -0.06   0.00     0.62   0.27   0.00    -0.01  -0.00   0.00
     8   6     0.23   0.10  -0.00    -0.20  -0.09  -0.00     0.00   0.00  -0.00
     9   1     0.33   0.13  -0.00    -0.39  -0.17  -0.00     0.00   0.00  -0.00
                     19                     20                     21
                     A'                     A'                     A'
 Frequencies --   3113.4191              3193.9048              3239.6417
 Red. masses --      1.0522                 1.1286                 1.1271
 Frc consts  --      6.0091                 6.7833                 6.9693
 IR Inten    --    157.9950               439.3674                60.3595
  Atom  AN      X      Y      Z        X      Y      Z        X      Y      Z
     1   6    -0.02  -0.06   0.00     0.00   0.00   0.00    -0.10   0.04   0.00
     2   1    -0.44   0.52  -0.00     0.02  -0.03  -0.00     0.47  -0.55  -0.00
     3   1     0.71   0.12  -0.00    -0.03  -0.01  -0.00     0.67   0.11  -0.00
     4   6    -0.00   0.01   0.00    -0.00  -0.00   0.00    -0.00   0.00   0.00
     5   1     0.02  -0.01  -0.00    -0.00   0.00  -0.00     0.01  -0.02  -0.00
     6   6     0.00   0.00  -0.00     0.00  -0.00  -0.00     0.00   0.00  -0.00
     7   6    -0.00  -0.00  -0.00     0.02   0.01  -0.00     0.00  -0.00  -0.00
     8   6    -0.00  -0.00   0.00    -0.09  -0.04   0.00     0.00   0.00   0.00
     9   1     0.04   0.02   0.00     0.91   0.40   0.00    -0.00  -0.00   0.00

 -------------------
 - Thermochemistry -
 -------------------
 Temperature   298.150 Kelvin.  Pressure   1.00000 Atm.
 Atom     1 has atomic number  6 and mass  12.00000
 Atom     2 has atomic number  1 and mass   1.00783
 Atom     3 has atomic number  1 and mass   1.00783
 Atom     4 has atomic number  6 and mass  12.00000
 Atom     5 has atomic number  1 and mass   1.00783
 Atom     6 has atomic number  6 and mass  12.00000
 Atom     7 has atomic number  6 and mass  12.00000
 Atom     8 has atomic number  6 and mass  12.00000
 Atom     9 has atomic number  1 and mass   1.00783
 Molecular mass:    64.03130 amu.
 Principal axes and moments of inertia in atomic units:
                           1         2         3
     Eigenvalues --    38.58223 789.51717 828.09940
           X            0.85262  -0.52253   0.00000
           Y            0.52253   0.85262   0.00000
           Z            0.00000  -0.00000   1.00000
 This molecule is an asymmetric top.
 Rotational symmetry number  1.
 Rotational temperatures (Kelvin)      2.24491     0.10970     0.10459
 Rotational constants (GHZ):          46.77648     2.28588     2.17938
    1 imaginary frequencies ignored.
 Zero-point vibrational energy     160820.0 (Joules/Mol)
                                   38.43689 (Kcal/Mol)
 Warning -- explicit consideration of   6 degrees of freedom as
           vibrations may cause significant error
 Vibrational temperatures:    197.09   217.80   432.04   515.70   579.36
          (Kelvin)            855.84  1113.20  1174.77  1255.22  1499.75
                             1717.72  1883.85  2105.44  2119.09  2144.58
                             2835.27  4301.69  4479.51  4595.31  4661.12
 
 Zero-point correction=                           0.061253 (Hartree/Particle)
 Thermal correction to Energy=                    0.066931
 Thermal correction to Enthalpy=                  0.067875
 Thermal correction to Gibbs Free Energy=         0.031986
 Sum of electronic and zero-point Energies=           -191.884894
 Sum of electronic and thermal Energies=              -191.879216
 Sum of electronic and thermal Enthalpies=            -191.878272
 Sum of electronic and thermal Free Energies=         -191.914161
 
                     E (Thermal)             CV                S
                      KCal/Mol        Cal/Mol-Kelvin    Cal/Mol-Kelvin
 Total                   42.000             18.319             75.534
 Electronic               0.000              0.000              2.183
 Translational            0.889              2.981             38.389
 Rotational               0.889              2.981             24.737
 Vibrational             40.222             12.358             10.224
 Vibration     1          0.614              1.916              2.846
 Vibration     2          0.619              1.901              2.655
 Vibration     3          0.693              1.673              1.415
 Vibration     4          0.733              1.558              1.129
 Vibration     5          0.768              1.464              0.953
 Vibration     6          0.953              1.043              0.459
                       Q            Log10(Q)             Ln(Q)
 Total Bot       0.193845D-14        -14.712546        -33.876890
 Total V=0       0.289639D+14         13.461856         30.997070
 Vib (Bot)       0.564321D-27        -27.248474        -62.741929
 Vib (Bot)    1  0.148555D+01          0.171887          0.395785
 Vib (Bot)    2  0.133897D+01          0.126772          0.291903
 Vib (Bot)    3  0.633217D+00         -0.198447         -0.456942
 Vib (Bot)    4  0.511908D+00         -0.290808         -0.669611
 Vib (Bot)    5  0.441763D+00         -0.354811         -0.816982
 Vib (Bot)    6  0.252358D+00         -0.597983         -1.376907
 Vib (V=0)       0.843198D+01          0.925929          2.132031
 Vib (V=0)    1  0.206744D+01          0.315432          0.726309
 Vib (V=0)    2  0.192928D+01          0.285396          0.657149
 Vib (V=0)    3  0.130682D+01          0.116217          0.267599
 Vib (V=0)    4  0.121558D+01          0.084782          0.195218
 Vib (V=0)    5  0.116720D+01          0.067145          0.154607
 Vib (V=0)    6  0.106008D+01          0.025337          0.058340
 Electronic      0.300000D+01          0.477121          1.098612
 Translational   0.201393D+08          7.304044         16.818182
 Rotational      0.568541D+05          4.754762         10.948244
 
                                                              b3lyp opt
                                                             IR Spectrum
 
     3 3  3    2                                       1                 111     1    1     1                                        
     2 1  1    9                                       9                 444     3    1     0     8 8 7      5       43  3    11     
     4 9  1    9                                       7                 976     0    9     4     7 1 7      9       05  0    53     
     0 4  3    0                                       1                 133     9    4     2     2 7 4      5       38  0    17     
 
     X X  X    X                                       X                 XXX     X    X     X     X X X      X       XX  X    XX     
     X X  X    X                                       X                 X X     X                                    X              
     X X  X    X                                                         X       X                                                   
       X  X    X                                                         X       X                                                   
       X  X    X                                                         X       X                                                   
       X  X    X                                                         X       X                                                   
       X  X    X                                                         X                                                           
       X       X                                                         X                                                           
       X                                                                 X                                                           
       X                                                                 X                                                           
       X                                                                 X                                                           
       X                                                                 X                                                           
       X                                                                                                                             
       X                                                                                                                             
       X                                                                                                                             
       X                                                                                                                             
       X                                                                                                                             
       X                                                                                                                             
       X                                                                                                                             
       X                                                                                                                             
 
 ***** Axes restored to original set *****
 -------------------------------------------------------------------
 Center     Atomic                   Forces (Hartrees/Bohr)
 Number     Number              X              Y              Z
 -------------------------------------------------------------------
      1        6          -0.000000423   -0.000001549    0.000000000
      2        1           0.000000058   -0.000003039    0.000000000
      3        1          -0.000002535    0.000008129   -0.000000000
      4        6           0.000004588    0.000012683   -0.000000000
      5        1           0.000000880    0.000002516   -0.000000000
      6        6          -0.000001237   -0.000034469    0.000000000
      7        6           0.000006931    0.000015216   -0.000000000
      8        6          -0.000014203    0.000001280   -0.000000000
      9        1           0.000005943   -0.000000767    0.000000000
 -------------------------------------------------------------------
 Cartesian Forces:  Max     0.000034469 RMS     0.000008567
 Z-matrix is all fixed cartesians, so copy forces.
 Force constants in Cartesian coordinates: 
                1             2             3             4             5 
      1  0.646120D+00
      2  0.295038D-01  0.602460D+00
      3  0.000000D+00  0.000000D+00  0.198272D+00
      4 -0.184756D+00 -0.148849D+00  0.000000D+00  0.179563D+00
      5 -0.141486D+00 -0.220457D+00  0.000000D+00  0.148994D+00  0.229655D+00
      6  0.000000D+00  0.000000D+00 -0.678808D-01  0.000000D+00  0.000000D+00
      7 -0.341715D+00  0.456224D-01  0.000000D+00 -0.622743D-02  0.464925D-02
      8  0.357338D-01 -0.595933D-01  0.000000D+00 -0.195391D-01  0.100841D-01
      9  0.000000D+00  0.000000D+00 -0.853670D-01  0.000000D+00  0.000000D+00
     10 -0.102445D+00  0.452446D-01  0.000000D+00  0.989858D-02 -0.922193D-02
     11  0.654038D-01 -0.293885D+00  0.000000D+00  0.153377D-01 -0.181174D-01
     12  0.000000D+00  0.000000D+00 -0.294559D-01  0.000000D+00  0.000000D+00
     13  0.110316D-01  0.113004D-01  0.000000D+00 -0.102645D-02  0.176910D-02
     14 -0.206278D-01 -0.204596D-01  0.000000D+00  0.272995D-02 -0.200615D-02
     15  0.000000D+00  0.000000D+00 -0.186657D-02  0.000000D+00  0.000000D+00
     16 -0.273198D-01  0.212333D-01  0.000000D+00  0.217534D-02 -0.658849D-02
     17  0.352911D-01 -0.669289D-02  0.000000D+00  0.145269D-02  0.158391D-02
     18  0.000000D+00  0.000000D+00 -0.373779D-02  0.000000D+00  0.000000D+00
     19  0.102675D-01 -0.250174D-01  0.000000D+00  0.184875D-03  0.262778D-02
     20 -0.847251D-02  0.752981D-02  0.000000D+00 -0.188185D-03 -0.108743D-02
     21  0.000000D+00  0.000000D+00 -0.126478D-01  0.000000D+00  0.000000D+00
     22 -0.113616D-01  0.208657D-01  0.000000D+00 -0.264392D-04 -0.106060D-02
     23  0.439517D-02 -0.907767D-02  0.000000D+00  0.149338D-03  0.470792D-03
     24  0.000000D+00  0.000000D+00  0.210251D-02  0.000000D+00  0.000000D+00
     25  0.177905D-03  0.964768D-04  0.000000D+00  0.214499D-03  0.317425D-03
     26  0.258716D-03  0.175900D-03  0.000000D+00 -0.866309D-04 -0.125697D-03
     27  0.000000D+00  0.000000D+00  0.581354D-03  0.000000D+00  0.000000D+00
                6             7             8             9            10 
      6  0.238871D-01
      7  0.000000D+00  0.346067D+00
      8  0.000000D+00 -0.483972D-01  0.619391D-01
      9  0.311318D-01  0.000000D+00  0.000000D+00  0.409054D-01
     10  0.000000D+00 -0.247650D-02  0.316865D-01  0.000000D+00  0.529054D+00
     11  0.000000D+00 -0.105333D-02 -0.109483D-01  0.000000D+00 -0.450151D-01
     12  0.119888D-03  0.000000D+00  0.000000D+00 -0.819978D-02  0.000000D+00
     13  0.000000D+00  0.118577D-02  0.466321D-03  0.000000D+00 -0.162266D+00
     14  0.000000D+00  0.301331D-03  0.172328D-02  0.000000D+00 -0.111507D+00
     15  0.380513D-02  0.000000D+00  0.000000D+00  0.852225D-02  0.000000D+00
     16  0.000000D+00  0.375190D-02 -0.232081D-02  0.000000D+00 -0.231482D+00
     17  0.000000D+00 -0.196241D-02 -0.318696D-02  0.000000D+00  0.645810D-01
     18  0.604184D-02  0.000000D+00  0.000000D+00  0.604797D-02  0.000000D+00
     19  0.000000D+00 -0.818968D-03  0.353800D-02  0.000000D+00 -0.414696D-01
     20  0.000000D+00  0.952655D-03 -0.545264D-03  0.000000D+00  0.243891D-01
     21  0.380219D-02  0.000000D+00  0.000000D+00  0.858482D-02  0.000000D+00
     22  0.000000D+00  0.662345D-03 -0.115478D-02  0.000000D+00  0.348530D-02
     23  0.000000D+00 -0.265989D-03  0.592762D-03  0.000000D+00 -0.490433D-03
     24 -0.845554D-03  0.000000D+00  0.000000D+00 -0.118183D-02  0.000000D+00
     25  0.000000D+00 -0.428361D-03 -0.127508D-04  0.000000D+00 -0.229987D-02
     26  0.000000D+00  0.153277D-03 -0.654079D-04  0.000000D+00  0.333250D-03
     27 -0.616022D-04  0.000000D+00  0.000000D+00 -0.443688D-03  0.000000D+00
               11            12            13            14            15 
     11  0.600478D+00
     12  0.000000D+00  0.121428D+00
     13 -0.131076D+00  0.000000D+00  0.178729D+00
     14 -0.179012D+00  0.000000D+00  0.131643D+00  0.190776D+00
     15  0.000000D+00 -0.402624D-01  0.000000D+00  0.000000D+00  0.138839D-01
     16  0.835314D-01  0.000000D+00 -0.284311D-01 -0.830925D-02  0.000000D+00
     17 -0.122536D+00  0.000000D+00 -0.166640D-01  0.150032D-01  0.000000D+00
     18  0.000000D+00 -0.402143D-01  0.000000D+00  0.000000D+00  0.145017D-01
     19  0.152467D-01  0.000000D+00  0.261926D-02  0.104488D-01  0.000000D+00
     20  0.216562D-01  0.000000D+00  0.155895D-02 -0.827930D-02  0.000000D+00
     21  0.000000D+00 -0.712960D-02  0.000000D+00  0.000000D+00  0.216962D-02
     22 -0.295795D-02  0.000000D+00 -0.136725D-02 -0.420478D-02  0.000000D+00
     23  0.456195D-02  0.000000D+00  0.962426D-03  0.175659D-02  0.000000D+00
     24  0.000000D+00  0.293226D-02  0.000000D+00  0.000000D+00 -0.770200D-03
     25  0.582462D-03  0.000000D+00 -0.474866D-03 -0.474421D-03  0.000000D+00
     26 -0.219746D-02  0.000000D+00  0.392981D-04  0.498757D-03  0.000000D+00
     27  0.000000D+00  0.781412D-03  0.000000D+00  0.000000D+00  0.166202D-04
               16            17            18            19            20 
     16  0.856065D+00
     17 -0.311906D+00  0.262254D+00
     18  0.000000D+00  0.000000D+00  0.313488D-01
     19 -0.500134D+00  0.202543D+00  0.000000D+00  0.980859D+00
     20  0.189634D+00 -0.139773D+00  0.000000D+00 -0.392036D+00  0.230513D+00
     21  0.000000D+00  0.000000D+00 -0.216396D-01  0.000000D+00  0.000000D+00
     22 -0.777014D-01  0.264497D-01  0.000000D+00 -0.464937D+00  0.183161D+00
     23  0.347162D-01 -0.975321D-02  0.000000D+00  0.181610D+00 -0.125395D+00
     24  0.000000D+00  0.000000D+00  0.621033D-02  0.000000D+00  0.000000D+00
     25  0.307562D-02  0.215259D-03  0.000000D+00  0.134281D-01  0.100120D-02
     26  0.998591D-05  0.310137D-02  0.000000D+00  0.103945D-02  0.153809D-01
     27  0.000000D+00  0.000000D+00  0.144111D-02  0.000000D+00  0.000000D+00
               21            22            23            24            25 
     21  0.509998D-01
     22  0.000000D+00  0.863646D+00
     23  0.000000D+00 -0.339850D+00  0.227421D+00
     24 -0.224842D-01  0.000000D+00  0.000000D+00  0.189585D-01
     25  0.000000D+00 -0.312400D+00  0.118773D+00  0.000000D+00  0.298707D+00
     26  0.000000D+00  0.118751D+00 -0.905779D-01  0.000000D+00 -0.120499D+00
     27 -0.165523D-02  0.000000D+00  0.000000D+00 -0.492183D-02  0.000000D+00
               26            27 
     26  0.738095D-01
     27  0.000000D+00  0.426186D-02
 Leave Link  716 at Mon Jun 20 11:58:55 2016, MaxMem=    33554432 cpu:         0.1
 (Enter /home/proyectos/fulerenos/M3C-v1.9/M3C-deps_CCC/g09-AM64L-G09RevC.01/l103.exe)

 GradGradGradGradGradGradGradGradGradGradGradGradGradGradGradGradGradGrad
 Berny optimization.
 Search for a local minimum.
 Step number   1 out of a maximum of    2
 All quantities printed in internal units (Hartrees-Bohrs-Radians)
 Second derivative matrix not updated -- analytic derivatives used.
 ITU=  0
     Eigenvalues ---   -0.00105   0.00249   0.00326   0.01227   0.01559
     Eigenvalues ---    0.04256   0.07208   0.07288   0.09497   0.12019
     Eigenvalues ---    0.14004   0.18263   0.19249   0.22661   0.31161
     Eigenvalues ---    0.52334   0.66602   0.90518   0.97651   1.22916
     Eigenvalues ---    1.86556
 Eigenvalue     1 is  -1.05D-03 should be greater than     0.000000 Eigenvector:
                          Z2        Z3        Z5        Z6        Z4
   1                    0.56789  -0.56614   0.54626  -0.22222   0.05426
                          Z7        Z1        Z9        Z8        Y9
   1                   -0.05221  -0.04358   0.02872   0.02830   0.00000
 Angle between quadratic step and forces=  76.97 degrees.
 ClnCor:  largest displacement from symmetrization is 1.20D-08 for atom     3.
 Linear search not attempted -- first point.
 ClnCor:  largest displacement from symmetrization is 1.99D-15 for atom     3.
 B after Tr=    -0.000081   -0.000111   -0.000000
         Rot=    1.000000   -0.000000    0.000000    0.000002 Ang=   0.00 deg.
 Variable       Old X    -DE/DX   Delta X   Delta X   Delta X     New X
                                 (Linear)    (Quad)   (Total)
    X1        3.32172  -0.00000   0.00000   0.00049   0.00040   3.32211
    Y1       -3.01433  -0.00000   0.00000  -0.00001  -0.00013  -3.01446
    Z1        0.00000   0.00000   0.00000   0.00000  -0.00000  -0.00000
    X2        2.01136   0.00000   0.00000   0.00106   0.00096   2.01231
    Y2       -4.59185  -0.00000   0.00000  -0.00049  -0.00061  -4.59246
    Z2        0.00000   0.00000   0.00000   0.00000  -0.00000  -0.00000
    X3        5.34465  -0.00000   0.00000   0.00061   0.00052   5.34517
    Y3       -3.36014   0.00001   0.00000   0.00080   0.00066  -3.35948
    Z3        0.00000  -0.00000   0.00000   0.00000   0.00000   0.00000
    X4        2.46856   0.00000   0.00000  -0.00033  -0.00042   2.46815
    Y4       -0.44879   0.00001   0.00000  -0.00030  -0.00042  -0.44920
    Z4        0.00000  -0.00000   0.00000  -0.00000   0.00000   0.00000
    X5        3.87334   0.00000   0.00000  -0.00080  -0.00087   3.87246
    Y5        1.09001   0.00000   0.00000   0.00015   0.00003   1.09004
    Z5        0.00000  -0.00000   0.00000  -0.00000   0.00000   0.00000
    X6       -0.00045  -0.00000   0.00000  -0.00048  -0.00056  -0.00101
    Y6        0.42218  -0.00003   0.00000  -0.00078  -0.00089   0.42129
    Z6       -0.00000   0.00000   0.00000  -0.00000   0.00000   0.00000
    X7       -2.19673   0.00001   0.00000  -0.00023  -0.00031  -2.19704
    Y7        1.34951   0.00002   0.00000  -0.00015  -0.00025   1.34926
    Z7       -0.00000  -0.00000   0.00000  -0.00000  -0.00000  -0.00000
    X8       -4.41512  -0.00001   0.00000   0.00005  -0.00002  -4.41514
    Y8        2.31230   0.00000   0.00000   0.00053   0.00044   2.31273
    Z8       -0.00000  -0.00000   0.00000  -0.00000  -0.00000  -0.00000
    X9       -6.30164   0.00001   0.00000   0.00038   0.00032  -6.30132
    Y9        3.13259  -0.00000   0.00000   0.00125   0.00117   3.13376
    Z9       -0.00000   0.00000   0.00000  -0.00000  -0.00000  -0.00000
         Item               Value     Threshold  Converged?
 Maximum Force            0.000034     0.000450     YES
 RMS     Force            0.000009     0.000300     YES
 Maximum Displacement     0.001169     0.001800     YES
 RMS     Displacement     0.000479     0.001200     YES
 Predicted change in Energy=-1.252559D-08
 Optimization completed.
    -- Stationary point found.
 GradGradGradGradGradGradGradGradGradGradGradGradGradGradGradGradGradGrad

 Leave Link  103 at Mon Jun 20 11:58:55 2016, MaxMem=    33554432 cpu:         0.1
 (Enter /home/proyectos/fulerenos/M3C-v1.9/M3C-deps_CCC/g09-AM64L-G09RevC.01/l9999.exe)
 1\1\GINC-BELVIS4\Freq\UB3LYP\6-311++G(3df,2p)\C5H4(2+,3)\ROOT\20-Jun-2
 016\0\\#p b3lyp/6-311++G(3df,2p) freq symmetry=Loose\\b3lyp opt\\2,3\C
 ,1.757777,-1.595114,0.\H,1.064364,-2.429903,0.\H,2.828267,-1.77811,0.\
 C,1.306308,-0.237487,0.\H,2.049681,0.57681,0.\C,-0.000239,0.223408,0.\
 C,-1.162461,0.714132,0.\C,-2.336381,1.223614,0.\H,-3.334684,1.657696,0
 .\\Version=EM64L-G09RevE.01\State=3-A'\HF=-191.9461468\S2=2.012115\S2-
 1=0.\S2A=2.000079\RMSD=7.096e-09\RMSF=8.567e-06\ZeroPoint=0.0612531\Th
 ermal=0.0669305\Dipole=-0.5023624,0.2563223,0.\DipoleDeriv=0.2328191,0
 .0019461,0.0000001,-0.0933058,0.1753702,0.,0.0000002,-0.0000007,0.1364
 703,0.0535127,0.0877325,0.,-0.0191777,0.286193,0.,0.,0.0000002,0.16637
 59,0.3548472,-0.1388617,0.,-0.0596676,0.1526023,0.,-0.0000001,0.000000
 4,0.1921814,0.8137241,-0.7048509,0.0000004,-0.4316639,0.3542333,0.0000
 002,0.,-0.0000002,0.2864705,0.3532539,0.0634933,0.,0.2410207,0.2082833
 ,0.,0.,0.0000001,0.1706878,-0.6867171,0.9359912,-0.0000006,0.4115259,-
 0.0111737,0.,0.,0.,0.1579197,-0.5580369,-0.054477,-0.0000005,0.2845525
 ,0.0847554,-0.0000007,0.,0.,0.3253629,0.7310757,0.0665043,0.0000008,-0
 .1028715,0.4588537,0.0000006,0.,0.,0.3105303,0.7055212,-0.2574778,0.,-
 0.2304126,0.2908825,0.,0.,0.,0.2540011\Polar=96.0400056,-37.6330585,56
 .722033,0.0000002,-0.0000007,25.8154637\PG=CS [SG(C5H4)]\NImag=1\\0.64
 612034,0.02950382,0.60245971,-0.00000012,-0.00000006,0.19827213,-0.184
 75595,-0.14884936,-0.00000001,0.17956297,-0.14148615,-0.22045699,0.,0.
 14899360,0.22965491,0.00000004,0.00000002,-0.06788084,0.,0.,0.02388710
 ,-0.34171547,0.04562239,0.,-0.00622743,0.00464925,0.,0.34606671,0.0357
 3383,-0.05959329,0.00000008,-0.01953909,0.01008410,-0.00000003,-0.0483
 9718,0.06193909,0.00000007,0.00000003,-0.08536703,0.,0.,0.03113185,0.,
 -0.00000004,0.04090544,-0.10244457,0.04524458,-0.00000039,0.00989858,-
 0.00922193,0.00000013,-0.00247650,0.03168645,0.00000021,0.52905395,0.0
 6540380,-0.29388499,-0.00000023,0.01533769,-0.01811744,0.00000008,-0.0
 0105333,-0.01094831,0.00000012,-0.04501505,0.60047832,-0.00000004,-0.0
 0000002,-0.02945594,0.,0.,0.00011989,0.,0.00000002,-0.00819978,-0.0000
 0011,-0.00000007,0.12142844,0.01103163,0.01130045,0.,-0.00102645,0.001
 76910,0.,0.00118577,0.00046632,0.,-0.16226552,-0.13107573,0.,0.1787285
 3,-0.02062781,-0.02045958,0.00000003,0.00272995,-0.00200615,-0.0000000
 1,0.00030133,0.00172328,-0.00000002,-0.11150703,-0.17901241,0.,0.13164
 320,0.19077562,0.00000002,0.00000001,-0.00186657,0.,0.,0.00380513,0.,-
 0.00000001,0.00852225,0.00000007,0.00000004,-0.04026239,0.,0.,0.013883
 89,-0.02731978,0.02123332,0.00000066,0.00217534,-0.00658849,-0.0000002
 3,0.00375190,-0.00232081,-0.00000036,-0.23148175,0.08353136,0.00000020
 ,-0.02843111,-0.00830925,-0.00000011,0.85606471,0.03529113,-0.00669289
 ,0.00000008,0.00145269,0.00158391,-0.00000003,-0.00196241,-0.00318696,
 -0.00000004,0.06458102,-0.12253582,0.00000003,-0.01666402,0.01500321,-
 0.00000001,-0.31190638,0.26225386,0.00000002,0.,-0.00373779,0.,0.,0.00
 604184,0.,-0.00000001,0.00604797,0.00000005,0.00000003,-0.04021429,0.,
 0.,0.01450165,-0.00000009,-0.00000001,0.03134879,0.01026751,-0.0250174
 2,0.00000062,0.00018488,0.00262778,-0.00000021,-0.00081897,0.00353800,
 -0.00000034,-0.04146963,0.01524674,0.00000018,0.00261926,0.01044880,-0
 .00000010,-0.50013354,0.20254303,-0.00000008,0.98085908,-0.00847251,0.
 00752981,0.00000077,-0.00018819,-0.00108743,-0.00000027,0.00095266,-0.
 00054526,-0.00000042,0.02438914,0.02165616,0.00000024,0.00155895,-0.00
 827930,-0.00000013,0.18963408,-0.13977347,-0.00000011,-0.39203633,0.23
 051345,0.00000002,0.,-0.01264782,0.,0.,0.00380219,0.,-0.00000001,0.008
 58482,0.00000005,0.00000003,-0.00712960,0.,0.,0.00216962,-0.00000009,-
 0.00000001,-0.02163961,-0.00000008,-0.00000011,0.05099981,-0.01136163,
 0.02086574,-0.00000084,-0.00002644,-0.00106060,0.00000029,0.00066234,-
 0.00115478,0.00000046,0.00348530,-0.00295795,-0.00000025,-0.00136725,-
 0.00420478,0.00000014,-0.07770140,0.02644969,0.00000011,-0.46493665,0.
 18316101,0.00000011,0.86364588,0.00439517,-0.00907767,-0.00000061,0.00
 014934,0.00047079,0.00000021,-0.00026599,0.00059276,0.00000034,-0.0004
 9043,0.00456195,-0.00000019,0.00096243,0.00175659,0.00000010,0.0347161
 8,-0.00975321,0.00000009,0.18160994,-0.12539482,0.00000009,-0.33984968
 ,0.22742145,0.,0.,0.00210251,0.,0.,-0.00084555,0.,0.,-0.00118183,0.,0.
 ,0.00293226,0.,0.,-0.00077020,0.00000001,0.,0.00621033,0.00000001,0.00
 000002,-0.02248418,-0.00000002,-0.00000002,0.01895849,0.00017790,0.000
 09648,0.00000008,0.00021450,0.00031743,-0.00000003,-0.00042836,-0.0000
 1275,-0.00000004,-0.00229987,0.00058246,0.00000002,-0.00047487,-0.0004
 7442,-0.00000001,0.00307562,0.00021526,-0.00000001,0.01342806,0.001001
 20,-0.00000001,-0.31240015,0.11877304,0.,0.29870717,0.00025872,0.00017
 590,-0.00000005,-0.00008663,-0.00012570,0.00000002,0.00015328,-0.00006
 541,0.00000003,0.00033325,-0.00219746,-0.00000002,0.00003930,0.0004987
 6,0.,0.00000999,0.00310137,0.,0.00103945,0.01538087,0.,0.11875135,-0.0
 9057786,0.,-0.12049869,0.07380951,0.,0.,0.00058135,0.,0.,-0.00006160,0
 .,0.,-0.00044369,0.,0.,0.00078141,0.,0.,0.00001662,0.,0.,0.00144111,0.
 ,0.,-0.00165523,0.,0.,-0.00492183,0.,0.,0.00426186\\0.00000042,0.00000
 155,0.,-0.00000006,0.00000304,0.,0.00000254,-0.00000813,0.,-0.00000459
 ,-0.00001268,0.,-0.00000088,-0.00000252,0.,0.00000124,0.00003447,0.,-0
 .00000693,-0.00001522,0.,0.00001420,-0.00000128,0.,-0.00000594,0.00000
 077,0.\\\@


 EXPERIMENTALISTS THINK SILICON IS REALLY FUN TO USE
     ITS PLACE IN NOVEL COMPOUNDS IS CERTAIN TO AMUSE
 THEY SIT ALL DAY IN LABORATORIES MAKING ALL THIS SLUDGE
     "LOADED WITH THE SILICON THEY SAY", TO ME IT LOOKS LIKE FUDGE.
 FOR HAPPY THOUGH THEY BE WITH CRUD, I'D LIKE TO KNOW A LITTLE
      ABOUT THE PI BONDS ON THE EDGE AND SIGMAS IN THE MIDDLE.

 SO LETS DERIVE A WAVEFUNCTION.....6-31G*
     USE AN OPTIMAL GEOMETRY AND SEE WHERE ELECTRONS ARE.
 BUT WHAT OF CORRELATION?  ASKS THE WIRY LITTLE SKEPTIC.
     WE'LL THROW IN PERTURBATION AS AN ELECTRON ANTISEPTIC.
 AND WHEN THE PROGRAM GIVES US ANSWERS IN THEM WE CAN TRUST
     SINCE NOBODY CAN MAKE THE STUFF, WE HAVE NO CHOICE, WE MUST.

 SO THEORY GUYS HAVE GOT IT MADE, IN ROOMS FREE OF POLLUTION.
     INSTEAD OF PROBLEMS WITH THE REFLUX, THEY HAVE ONLY SOLUTIONS.
 AND WHEN THE FEDS ANNOUNCE THE LIST OF CARCINOGENIC TERRORS,
     THE THEORISTS SIT SAFELY AT THEIR TERMINALS FIXING ERRORS.
 IN OTHER WORDS, EXPERIMENTALISTS WILL LIKELY DIE OF CANCER
     FROM WORKING HARD YET FRUITLESSLY...TILL THEORY GIVES THE ANSWER.
          -- THOMAS A. HOLME, 1983
 Job cpu time:       0 days  0 hours 28 minutes 48.0 seconds.
 File lengths (MBytes):  RWF=     80 Int=      0 D2E=      0 Chk=      5 Scr=      1
 Normal termination of Gaussian 09 at Mon Jun 20 11:58:55 2016.
