 Entering Gaussian System, Link 0=/home/proyectos/fulerenos/M3C-v1.9/M3C-deps_CCC/g09-AM64L-G09RevC.01/g09
 Initial command:
 /home/proyectos/fulerenos/M3C-v1.9/M3C-deps_CCC/g09-AM64L-G09RevC.01/l1.exe "/scratch/naguirre/gaussian/Gau-11570.inp" -scrdir="/scratch/naguirre/gaussian/"
 Entering Link 1 = /home/proyectos/fulerenos/M3C-v1.9/M3C-deps_CCC/g09-AM64L-G09RevC.01/l1.exe PID=     11577.
  
 Copyright (c) 1988,1990,1992,1993,1995,1998,2003,2009,2015,
            Gaussian, Inc.  All Rights Reserved.
  
 This is part of the Gaussian(R) 09 program.  It is based on
 the Gaussian(R) 03 system (copyright 2003, Gaussian, Inc.),
 the Gaussian(R) 98 system (copyright 1998, Gaussian, Inc.),
 the Gaussian(R) 94 system (copyright 1995, Gaussian, Inc.),
 the Gaussian 92(TM) system (copyright 1992, Gaussian, Inc.),
 the Gaussian 90(TM) system (copyright 1990, Gaussian, Inc.),
 the Gaussian 88(TM) system (copyright 1988, Gaussian, Inc.),
 the Gaussian 86(TM) system (copyright 1986, Carnegie Mellon
 University), and the Gaussian 82(TM) system (copyright 1983,
 Carnegie Mellon University). Gaussian is a federally registered
 trademark of Gaussian, Inc.
  
 This software contains proprietary and confidential information,
 including trade secrets, belonging to Gaussian, Inc.
  
 This software is provided under written license and may be
 used, copied, transmitted, or stored only in accord with that
 written license.
  
 The following legend is applicable only to US Government
 contracts under FAR:
  
                    RESTRICTED RIGHTS LEGEND
  
 Use, reproduction and disclosure by the US Government is
 subject to restrictions as set forth in subparagraphs (a)
 and (c) of the Commercial Computer Software - Restricted
 Rights clause in FAR 52.227-19.
  
 Gaussian, Inc.
 340 Quinnipiac St., Bldg. 40, Wallingford CT 06492
  
  
 ---------------------------------------------------------------
 Warning -- This program may not be used in any manner that
 competes with the business of Gaussian, Inc. or will provide
 assistance to any competitor of Gaussian, Inc.  The licensee
 of this program is prohibited from giving any competitor of
 Gaussian, Inc. access to this program.  By using this program,
 the user acknowledges that Gaussian, Inc. is engaged in the
 business of creating and licensing software in the field of
 computational chemistry and represents and warrants to the
 licensee that it is not a competitor of Gaussian, Inc. and that
 it will not use this program in any manner prohibited above.
 ---------------------------------------------------------------
  

 Cite this work as:
 Gaussian 09, Revision E.01,
 M. J. Frisch, G. W. Trucks, H. B. Schlegel, G. E. Scuseria, 
 M. A. Robb, J. R. Cheeseman, G. Scalmani, V. Barone, B. Mennucci, 
 G. A. Petersson, H. Nakatsuji, M. Caricato, X. Li, H. P. Hratchian, 
 A. F. Izmaylov, J. Bloino, G. Zheng, J. L. Sonnenberg, M. Hada, 
 M. Ehara, K. Toyota, R. Fukuda, J. Hasegawa, M. Ishida, T. Nakajima, 
 Y. Honda, O. Kitao, H. Nakai, T. Vreven, J. A. Montgomery, Jr., 
 J. E. Peralta, F. Ogliaro, M. Bearpark, J. J. Heyd, E. Brothers, 
 K. N. Kudin, V. N. Staroverov, T. Keith, R. Kobayashi, J. Normand, 
 K. Raghavachari, A. Rendell, J. C. Burant, S. S. Iyengar, J. Tomasi, 
 M. Cossi, N. Rega, J. M. Millam, M. Klene, J. E. Knox, J. B. Cross, 
 V. Bakken, C. Adamo, J. Jaramillo, R. Gomperts, R. E. Stratmann, 
 O. Yazyev, A. J. Austin, R. Cammi, C. Pomelli, J. W. Ochterski, 
 R. L. Martin, K. Morokuma, V. G. Zakrzewski, G. A. Voth, 
 P. Salvador, J. J. Dannenberg, S. Dapprich, A. D. Daniels, 
 O. Farkas, J. B. Foresman, J. V. Ortiz, J. Cioslowski, 
 and D. J. Fox, Gaussian, Inc., Wallingford CT, 2013.
 
 ******************************************
 Gaussian 09:  EM64L-G09RevE.01 30-Nov-2015
                20-Jun-2016 
 ******************************************
 %NProcShared=4
 Will use up to    4 processors via shared memory.
 ---------------------------------------------
 #p b3lyp/6-311++G(3df,2p) freq symmetry=Loose
 ---------------------------------------------
 1/10=4,30=1,38=1/1,3;
 2/12=2,17=4,18=3,40=1/2;
 3/5=4,6=6,7=1216,11=2,16=1,25=1,30=1,71=2,74=-5,140=1/1,2,3;
 4//1;
 5/5=2,38=5,98=1/2;
 8/6=4,10=90,11=11/1;
 11/6=1,8=1,9=11,15=111,16=1/1,2,10;
 10/6=1/2;
 6/7=2,8=2,9=2,10=2,18=1,28=1/1;
 7/8=1,10=1,25=1/1,2,3,16;
 1/10=4,30=1/3;
 99//99;
 Leave Link    1 at Mon Jun 20 11:59:39 2016, MaxMem=           0 cpu:         0.2
 (Enter /home/proyectos/fulerenos/M3C-v1.9/M3C-deps_CCC/g09-AM64L-G09RevC.01/l101.exe)
 ---------
 b3lyp opt
 ---------
 Symbolic Z-matrix:
 Charge =  0 Multiplicity = 2
 C                     0.        0.       -1.42306 
 C                     0.        0.       -0.09233 
 C                     0.        0.        1.14689 
 H                     0.        0.        2.211 
 
 NAtoms=      4 NQM=        4 NQMF=       0 NMMI=      0 NMMIF=      0
                NMic=       0 NMicF=      0.
                    Isotopes and Nuclear Properties:
 (Nuclear quadrupole moments (NQMom) in fm**2, nuclear magnetic moments (NMagM)
  in nuclear magnetons)

  Atom         1           2           3           4
 IAtWgt=          12          12          12           1
 AtmWgt=  12.0000000  12.0000000  12.0000000   1.0078250
 NucSpn=           0           0           0           1
 AtZEff=   0.0000000   0.0000000   0.0000000   0.0000000
 NQMom=    0.0000000   0.0000000   0.0000000   0.0000000
 NMagM=    0.0000000   0.0000000   0.0000000   2.7928460
 AtZNuc=   6.0000000   6.0000000   6.0000000   1.0000000
 Leave Link  101 at Mon Jun 20 11:59:40 2016, MaxMem=    33554432 cpu:         0.2
 (Enter /home/proyectos/fulerenos/M3C-v1.9/M3C-deps_CCC/g09-AM64L-G09RevC.01/l103.exe)

 GradGradGradGradGradGradGradGradGradGradGradGradGradGradGradGradGradGrad
 Berny optimization.
 Initialization pass.
 Trust Radius=3.00D-01 FncErr=1.00D-07 GrdErr=1.00D-07
 Number of steps in this run=      2 maximum allowed number of steps=      2.
 GradGradGradGradGradGradGradGradGradGradGradGradGradGradGradGradGradGrad

 Leave Link  103 at Mon Jun 20 11:59:40 2016, MaxMem=    33554432 cpu:         0.1
 (Enter /home/proyectos/fulerenos/M3C-v1.9/M3C-deps_CCC/g09-AM64L-G09RevC.01/l202.exe)
                          Input orientation:                          
 ---------------------------------------------------------------------
 Center     Atomic      Atomic             Coordinates (Angstroms)
 Number     Number       Type             X           Y           Z
 ---------------------------------------------------------------------
      1          6           0        0.000000    0.000000   -1.423061
      2          6           0        0.000000    0.000000   -0.092332
      3          6           0        0.000000    0.000000    1.146893
      4          1           0        0.000000    0.000000    2.210995
 ---------------------------------------------------------------------
                    Distance matrix (angstroms):
                    1          2          3          4
     1  C    0.000000
     2  C    1.330729   0.000000
     3  C    2.569954   1.239225   0.000000
     4  H    3.634056   2.303327   1.064102   0.000000
 Stoichiometry    C3H(2)
 Framework group  C*V[C*(HCCC)]
 Deg. of freedom     3
 Full point group                 C*V     NOp   4
 Largest Abelian subgroup         C2V     NOp   4
 Largest concise Abelian subgroup C1      NOp   1
                         Standard orientation:                         
 ---------------------------------------------------------------------
 Center     Atomic      Atomic             Coordinates (Angstroms)
 Number     Number       Type             X           Y           Z
 ---------------------------------------------------------------------
      1          6           0        0.000000    0.000000    1.423061
      2          6           0        0.000000    0.000000    0.092332
      3          6           0        0.000000    0.000000   -1.146893
      4          1           0        0.000000    0.000000   -2.210995
 ---------------------------------------------------------------------
 Rotational constants (GHZ):      0.0000000     11.2344862     11.2344862
 Leave Link  202 at Mon Jun 20 11:59:40 2016, MaxMem=    33554432 cpu:         0.0
 (Enter /home/proyectos/fulerenos/M3C-v1.9/M3C-deps_CCC/g09-AM64L-G09RevC.01/l301.exe)
 Standard basis: 6-311++G(3df,2p) (5D, 7F)
 Ernie: Thresh=  0.10000D-02 Tol=  0.10000D-05 Strict=F.
 There are    69 symmetry adapted cartesian basis functions of A1  symmetry.
 There are    12 symmetry adapted cartesian basis functions of A2  symmetry.
 There are    32 symmetry adapted cartesian basis functions of B1  symmetry.
 There are    32 symmetry adapted cartesian basis functions of B2  symmetry.
 There are    57 symmetry adapted basis functions of A1  symmetry.
 There are    12 symmetry adapted basis functions of A2  symmetry.
 There are    29 symmetry adapted basis functions of B1  symmetry.
 There are    29 symmetry adapted basis functions of B2  symmetry.
   127 basis functions,   186 primitive gaussians,   145 cartesian basis functions
    10 alpha electrons        9 beta electrons
       nuclear repulsion energy        42.3372569709 Hartrees.
 IExCor=  402 DFT=T Ex+Corr=B3LYP ExCW=0 ScaHFX=  0.200000
 ScaDFX=  0.800000  0.720000  1.000000  0.810000 ScalE2=  1.000000  1.000000
 IRadAn=      0 IRanWt=     -1 IRanGd=            0 ICorTp=0 IEmpDi=  4
 NAtoms=    4 NActive=    4 NUniq=    4 SFac= 1.00D+00 NAtFMM=   60 NAOKFM=F Big=F
 Integral buffers will be    131072 words long.
 Raffenetti 2 integral format.
 Two-electron integral symmetry is turned on.
 Leave Link  301 at Mon Jun 20 11:59:40 2016, MaxMem=    33554432 cpu:         0.2
 (Enter /home/proyectos/fulerenos/M3C-v1.9/M3C-deps_CCC/g09-AM64L-G09RevC.01/l302.exe)
 NPDir=0 NMtPBC=     1 NCelOv=     1 NCel=       1 NClECP=     1 NCelD=      1
         NCelK=      1 NCelE2=     1 NClLst=     1 CellRange=     0.0.
 One-electron integrals computed using PRISM.
 NBasis=   127 RedAO= T EigKep=  3.37D-06  NBF=    57    12    29    29
 NBsUse=   127 1.00D-06 EigRej= -1.00D+00 NBFU=    57    12    29    29
 Precomputing XC quadrature grid using
 IXCGrd= 4 IRadAn=           0 IRanWt=          -1 IRanGd=           0 AccXCQ= 0.00D+00.
 Generated NRdTot=       0 NPtTot=           0 NUsed=           0 NTot=          32
 NSgBfM=   145   145   145   145   145 MxSgAt=     4 MxSgA2=     4.
 Leave Link  302 at Mon Jun 20 11:59:40 2016, MaxMem=    33554432 cpu:         0.8
 (Enter /home/proyectos/fulerenos/M3C-v1.9/M3C-deps_CCC/g09-AM64L-G09RevC.01/l303.exe)
 DipDrv:  MaxL=1.
 Leave Link  303 at Mon Jun 20 11:59:40 2016, MaxMem=    33554432 cpu:         0.1
 (Enter /home/proyectos/fulerenos/M3C-v1.9/M3C-deps_CCC/g09-AM64L-G09RevC.01/l401.exe)
 ExpMin= 3.60D-02 ExpMax= 4.56D+03 ExpMxC= 6.82D+02 IAcc=3 IRadAn=         5 AccDes= 0.00D+00
 Harris functional with IExCor=  402 and IRadAn=       5 diagonalized for initial guess.
 HarFok:  IExCor=  402 AccDes= 0.00D+00 IRadAn=         5 IDoV= 1 UseB2=F ITyADJ=14
 ICtDFT=  3500011 ScaDFX=  1.000000  1.000000  1.000000  1.000000
 FoFCou: FMM=F IPFlag=           0 FMFlag=      100000 FMFlg1=           0
         NFxFlg=           0 DoJE=T BraDBF=F KetDBF=T FulRan=T
         wScrn=  0.000000 ICntrl=     500 IOpCl=  0 I1Cent=   200000004 NGrid=           0
         NMat0=    1 NMatS0=      1 NMatT0=    0 NMatD0=    1 NMtDS0=    0 NMtDT0=    0
 Petite list used in FoFCou.
 Harris En= -114.724517828016    
 JPrj=0 DoOrth=F DoCkMO=F.
 Initial guess orbital symmetries:
 Alpha Orbitals:
       Occupied  (SG) (SG) (SG) (SG) (SG) (SG) (PI) (PI) (SG) (PI)
       Virtual   (PI) (PI) (PI) (SG) (SG) (SG) (PI) (PI) (SG) (PI)
                 (PI) (SG) (PI) (PI) (SG) (SG) (SG) (DLTA) (DLTA)
                 (SG) (DLTA) (DLTA) (SG) (PI) (PI) (SG) (SG) (PI)
                 (PI) (PI) (PI) (PI) (PI) (DLTA) (DLTA) (SG) (SG)
                 (SG) (PI) (PI) (SG) (PI) (PI) (SG) (SG) (PI) (PI)
                 (SG) (SG) (DLTA) (DLTA) (SG) (DLTA) (DLTA) (PI)
                 (PI) (PI) (PI) (DLTA) (DLTA) (SG) (PI) (PI) (SG)
                 (DLTA) (DLTA) (SG) (PHI) (PHI) (PI) (PI) (PI)
                 (PI) (PHI) (PHI) (PI) (PI) (SG) (SG) (PHI) (PHI)
                 (DLTA) (DLTA) (SG) (PI) (PI) (SG) (DLTA) (DLTA)
                 (PI) (PI) (SG) (SG) (PI) (PI) (SG) (PI) (PI) (SG)
                 (DLTA) (DLTA) (DLTA) (DLTA) (DLTA) (DLTA) (PI)
                 (PI) (SG) (PI) (PI) (PI) (PI) (SG) (SG) (SG) (SG)
                 (SG)
 Beta  Orbitals:
       Occupied  (SG) (SG) (SG) (SG) (SG) (SG) (PI) (PI) (SG)
       Virtual   (PI) (PI) (PI) (PI) (SG) (SG) (SG) (PI) (PI) (SG)
                 (PI) (PI) (SG) (PI) (PI) (SG) (SG) (SG) (DLTA)
                 (DLTA) (SG) (DLTA) (DLTA) (SG) (PI) (PI) (SG)
                 (SG) (PI) (PI) (PI) (PI) (PI) (PI) (DLTA) (DLTA)
                 (SG) (SG) (SG) (PI) (PI) (SG) (PI) (PI) (SG) (SG)
                 (PI) (PI) (SG) (SG) (DLTA) (DLTA) (SG) (DLTA)
                 (DLTA) (PI) (PI) (PI) (PI) (DLTA) (DLTA) (SG)
                 (PI) (PI) (SG) (DLTA) (DLTA) (SG) (PHI) (PHI)
                 (PI) (PI) (PI) (PI) (PHI) (PHI) (PI) (PI) (SG)
                 (SG) (PHI) (PHI) (DLTA) (DLTA) (SG) (PI) (PI)
                 (SG) (DLTA) (DLTA) (PI) (PI) (SG) (SG) (PI) (PI)
                 (SG) (PI) (PI) (SG) (DLTA) (DLTA) (DLTA) (DLTA)
                 (DLTA) (DLTA) (PI) (PI) (SG) (PI) (PI) (PI) (PI)
                 (SG) (SG) (SG) (SG) (SG)
 Initial guess <Sx>= 0.0000 <Sy>= 0.0000 <Sz>= 0.5000 <S**2>= 0.7500 S= 0.5000
 Leave Link  401 at Mon Jun 20 11:59:40 2016, MaxMem=    33554432 cpu:         1.3
 (Enter /home/proyectos/fulerenos/M3C-v1.9/M3C-deps_CCC/g09-AM64L-G09RevC.01/l502.exe)
 UHF open shell SCF:
 Using DIIS extrapolation, IDIIS=  1040.
 Integral symmetry usage will be decided dynamically.
 IVT=       83644 IEndB=       83644 NGot=    33554432 MDV=    33508599
 LenX=    33508599 LenY=    33487133
 Requested convergence on RMS density matrix=1.00D-08 within 128 cycles.
 Requested convergence on MAX density matrix=1.00D-06.
 Requested convergence on             energy=1.00D-06.
 No special actions if energy rises.
 Fock matrices will be formed incrementally for  20 cycles.

 Cycle   1  Pass 1  IDiag  1:
 FoFJK:  IHMeth= 1 ICntrl=       0 DoSepK=F KAlg= 0 I1Cent=   0 FoldK=F
 IRaf= 990000000 NMat=   1 IRICut=       1 DoRegI=T DoRafI=F ISym2E= 1.
 FoFCou: FMM=F IPFlag=           0 FMFlag=      100000 FMFlg1=           0
         NFxFlg=           0 DoJE=F BraDBF=F KetDBF=F FulRan=T
         wScrn=  0.000000 ICntrl=       0 IOpCl=  1 I1Cent=           0 NGrid=           0
         NMat0=    1 NMatS0=      1 NMatT0=    0 NMatD0=    1 NMtDS0=    0 NMtDT0=    0
 Petite list used in FoFCou.
 E= -114.659017268542    
 DIIS: error= 2.70D-02 at cycle   1 NSaved=   1.
 NSaved= 1 IEnMin= 1 EnMin= -114.659017268542     IErMin= 1 ErrMin= 2.70D-02
 ErrMax= 2.70D-02  0.00D+00 EMaxC= 1.00D-01 BMatC= 2.53D-01 BMatP= 2.53D-01
 IDIUse=3 WtCom= 7.30D-01 WtEn= 2.70D-01
 Coeff-Com:  0.100D+01
 Coeff-En:   0.100D+01
 Coeff:      0.100D+01
 Gap=     0.079 Goal=   None    Shift=    0.000
 Gap=     0.161 Goal=   None    Shift=    0.000
 GapD=    0.079 DampG=0.500 DampE=0.500 DampFc=0.2500 IDamp=-1.
 Damping current iteration by 2.50D-01
 RMSDP=1.22D-02 MaxDP=4.34D-01              OVMax= 1.87D-01

 Cycle   2  Pass 1  IDiag  1:
 RMSU=  3.01D-03    CP:  9.82D-01
 E= -114.679801905928     Delta-E=       -0.020784637386 Rises=F Damp=T
 DIIS: error= 1.39D-02 at cycle   2 NSaved=   2.
 NSaved= 2 IEnMin= 2 EnMin= -114.679801905928     IErMin= 2 ErrMin= 1.39D-02
 ErrMax= 1.39D-02  0.00D+00 EMaxC= 1.00D-01 BMatC= 7.48D-02 BMatP= 2.53D-01
 IDIUse=3 WtCom= 8.61D-01 WtEn= 1.39D-01
 Coeff-Com: -0.954D+00 0.195D+01
 Coeff-En:   0.000D+00 0.100D+01
 Coeff:     -0.821D+00 0.182D+01
 Gap=     0.077 Goal=   None    Shift=    0.000
 Gap=     0.159 Goal=   None    Shift=    0.000
 RMSDP=8.86D-03 MaxDP=3.66D-01 DE=-2.08D-02 OVMax= 1.15D-01

 Cycle   3  Pass 1  IDiag  1:
 RMSU=  4.39D-03    CP:  1.01D+00  3.00D+00
 E= -114.716204862317     Delta-E=       -0.036402956389 Rises=F Damp=F
 DIIS: error= 6.32D-03 at cycle   3 NSaved=   3.
 NSaved= 3 IEnMin= 3 EnMin= -114.716204862317     IErMin= 3 ErrMin= 6.32D-03
 ErrMax= 6.32D-03  0.00D+00 EMaxC= 1.00D-01 BMatC= 1.04D-02 BMatP= 7.48D-02
 IDIUse=3 WtCom= 9.37D-01 WtEn= 6.32D-02
 Coeff-Com: -0.460D+00 0.851D+00 0.609D+00
 Coeff-En:   0.000D+00 0.000D+00 0.100D+01
 Coeff:     -0.431D+00 0.798D+00 0.633D+00
 Gap=     0.079 Goal=   None    Shift=    0.000
 Gap=     0.155 Goal=   None    Shift=    0.000
 RMSDP=1.60D-03 MaxDP=7.09D-02 DE=-3.64D-02 OVMax= 3.63D-02

 Cycle   4  Pass 1  IDiag  1:
 RMSU=  1.02D-03    CP:  9.99D-01  3.00D+00  7.39D-01
 E= -114.717619994461     Delta-E=       -0.001415132144 Rises=F Damp=F
 DIIS: error= 5.87D-03 at cycle   4 NSaved=   4.
 NSaved= 4 IEnMin= 4 EnMin= -114.717619994461     IErMin= 4 ErrMin= 5.87D-03
 ErrMax= 5.87D-03  0.00D+00 EMaxC= 1.00D-01 BMatC= 4.81D-03 BMatP= 1.04D-02
 IDIUse=3 WtCom= 9.41D-01 WtEn= 5.87D-02
 Coeff-Com: -0.173D+00 0.295D+00 0.424D+00 0.455D+00
 Coeff-En:   0.000D+00 0.000D+00 0.329D+00 0.671D+00
 Coeff:     -0.163D+00 0.277D+00 0.418D+00 0.467D+00
 Gap=     0.080 Goal=   None    Shift=    0.000
 Gap=     0.163 Goal=   None    Shift=    0.000
 RMSDP=5.48D-04 MaxDP=1.85D-02 DE=-1.42D-03 OVMax= 2.76D-02

 Cycle   5  Pass 1  IDiag  1:
 RMSU=  5.21D-04    CP:  9.95D-01  3.00D+00  7.51D-01  1.09D+00
 E= -114.718473350787     Delta-E=       -0.000853356325 Rises=F Damp=F
 DIIS: error= 3.63D-03 at cycle   5 NSaved=   5.
 NSaved= 5 IEnMin= 5 EnMin= -114.718473350787     IErMin= 5 ErrMin= 3.63D-03
 ErrMax= 3.63D-03  0.00D+00 EMaxC= 1.00D-01 BMatC= 1.60D-03 BMatP= 4.81D-03
 IDIUse=3 WtCom= 9.64D-01 WtEn= 3.63D-02
 Coeff-Com: -0.264D-02-0.112D-01 0.169D+00 0.391D+00 0.454D+00
 Coeff-En:   0.000D+00 0.000D+00 0.000D+00 0.308D+00 0.692D+00
 Coeff:     -0.254D-02-0.108D-01 0.163D+00 0.388D+00 0.463D+00
 Gap=     0.080 Goal=   None    Shift=    0.000
 Gap=     0.160 Goal=   None    Shift=    0.000
 RMSDP=4.48D-04 MaxDP=2.03D-02 DE=-8.53D-04 OVMax= 1.28D-02

 Cycle   6  Pass 1  IDiag  1:
 RMSU=  2.74D-04    CP:  9.98D-01  3.00D+00  7.94D-01  9.43D-01  5.63D-01
 E= -114.718982321571     Delta-E=       -0.000508970784 Rises=F Damp=F
 DIIS: error= 3.50D-04 at cycle   6 NSaved=   6.
 NSaved= 6 IEnMin= 6 EnMin= -114.718982321571     IErMin= 6 ErrMin= 3.50D-04
 ErrMax= 3.50D-04  0.00D+00 EMaxC= 1.00D-01 BMatC= 1.88D-05 BMatP= 1.60D-03
 IDIUse=3 WtCom= 9.97D-01 WtEn= 3.50D-03
 Coeff-Com:  0.281D-01-0.463D-01-0.517D-01-0.643D-01 0.105D-02 0.113D+01
 Coeff-En:   0.000D+00 0.000D+00 0.000D+00 0.000D+00 0.000D+00 0.100D+01
 Coeff:      0.281D-01-0.461D-01-0.516D-01-0.640D-01 0.105D-02 0.113D+01
 Gap=     0.081 Goal=   None    Shift=    0.000
 Gap=     0.160 Goal=   None    Shift=    0.000
 RMSDP=1.53D-04 MaxDP=9.03D-03 DE=-5.09D-04 OVMax= 3.50D-03

 Cycle   7  Pass 1  IDiag  1:
 RMSU=  7.38D-05    CP:  1.00D+00  3.00D+00  8.14D-01  9.70D-01  5.76D-01
                    CP:  1.28D+00
 E= -114.718998788622     Delta-E=       -0.000016467051 Rises=F Damp=F
 DIIS: error= 1.57D-04 at cycle   7 NSaved=   7.
 NSaved= 7 IEnMin= 7 EnMin= -114.718998788622     IErMin= 7 ErrMin= 1.57D-04
 ErrMax= 1.57D-04  0.00D+00 EMaxC= 1.00D-01 BMatC= 2.04D-06 BMatP= 1.88D-05
 IDIUse=3 WtCom= 9.98D-01 WtEn= 1.57D-03
 Coeff-Com: -0.229D-02 0.427D-02-0.192D-01-0.295D-01-0.422D-01-0.522D-01
 Coeff-Com:  0.114D+01
 Coeff-En:   0.000D+00 0.000D+00 0.000D+00 0.000D+00 0.000D+00 0.000D+00
 Coeff-En:   0.100D+01
 Coeff:     -0.228D-02 0.427D-02-0.192D-01-0.294D-01-0.421D-01-0.521D-01
 Coeff:      0.114D+01
 Gap=     0.081 Goal=   None    Shift=    0.000
 Gap=     0.160 Goal=   None    Shift=    0.000
 RMSDP=3.70D-05 MaxDP=2.08D-03 DE=-1.65D-05 OVMax= 1.71D-03

 Cycle   8  Pass 1  IDiag  1:
 RMSU=  1.80D-05    CP:  1.00D+00  3.00D+00  8.11D-01  9.79D-01  5.75D-01
                    CP:  1.36D+00  1.19D+00
 E= -114.719001118302     Delta-E=       -0.000002329680 Rises=F Damp=F
 DIIS: error= 5.77D-05 at cycle   8 NSaved=   8.
 NSaved= 8 IEnMin= 8 EnMin= -114.719001118302     IErMin= 8 ErrMin= 5.77D-05
 ErrMax= 5.77D-05  0.00D+00 EMaxC= 1.00D-01 BMatC= 2.03D-07 BMatP= 2.04D-06
 IDIUse=1 WtCom= 1.00D+00 WtEn= 0.00D+00
 Coeff-Com: -0.106D-02 0.148D-02 0.779D-02 0.104D-01 0.155D-01-0.406D-01
 Coeff-Com: -0.394D+00 0.140D+01
 Coeff:     -0.106D-02 0.148D-02 0.779D-02 0.104D-01 0.155D-01-0.406D-01
 Coeff:     -0.394D+00 0.140D+01
 Gap=     0.081 Goal=   None    Shift=    0.000
 Gap=     0.160 Goal=   None    Shift=    0.000
 RMSDP=9.97D-06 MaxDP=3.34D-04 DE=-2.33D-06 OVMax= 9.67D-04

 Cycle   9  Pass 1  IDiag  1:
 RMSU=  8.29D-06    CP:  1.00D+00  3.00D+00  8.11D-01  9.79D-01  5.77D-01
                    CP:  1.36D+00  1.21D+00  1.26D+00
 E= -114.719001645574     Delta-E=       -0.000000527272 Rises=F Damp=F
 DIIS: error= 3.81D-05 at cycle   9 NSaved=   9.
 NSaved= 9 IEnMin= 9 EnMin= -114.719001645574     IErMin= 9 ErrMin= 3.81D-05
 ErrMax= 3.81D-05  0.00D+00 EMaxC= 1.00D-01 BMatC= 5.16D-08 BMatP= 2.03D-07
 IDIUse=1 WtCom= 1.00D+00 WtEn= 0.00D+00
 Coeff-Com:  0.102D-02-0.159D-02 0.122D-02 0.311D-02 0.318D-03 0.253D-01
 Coeff-Com: -0.888D-01-0.586D+00 0.165D+01
 Coeff:      0.102D-02-0.159D-02 0.122D-02 0.311D-02 0.318D-03 0.253D-01
 Coeff:     -0.888D-01-0.586D+00 0.165D+01
 Gap=     0.081 Goal=   None    Shift=    0.000
 Gap=     0.160 Goal=   None    Shift=    0.000
 RMSDP=7.46D-06 MaxDP=3.24D-04 DE=-5.27D-07 OVMax= 8.55D-04

 Cycle  10  Pass 1  IDiag  1:
 RMSU=  1.71D-06    CP:  1.00D+00  3.00D+00  8.10D-01  9.80D-01  5.76D-01
                    CP:  1.35D+00  1.23D+00  1.49D+00  1.57D+00
 E= -114.719001816812     Delta-E=       -0.000000171238 Rises=F Damp=F
 DIIS: error= 1.26D-05 at cycle  10 NSaved=  10.
 NSaved=10 IEnMin=10 EnMin= -114.719001816812     IErMin=10 ErrMin= 1.26D-05
 ErrMax= 1.26D-05  0.00D+00 EMaxC= 1.00D-01 BMatC= 5.34D-09 BMatP= 5.16D-08
 IDIUse=1 WtCom= 1.00D+00 WtEn= 0.00D+00
 Coeff-Com: -0.784D-04 0.128D-03-0.138D-02-0.237D-02-0.126D-02-0.216D-02
 Coeff-Com:  0.770D-01-0.680D-01-0.371D+00 0.137D+01
 Coeff:     -0.784D-04 0.128D-03-0.138D-02-0.237D-02-0.126D-02-0.216D-02
 Coeff:      0.770D-01-0.680D-01-0.371D+00 0.137D+01
 Gap=     0.081 Goal=   None    Shift=    0.000
 Gap=     0.160 Goal=   None    Shift=    0.000
 RMSDP=1.68D-06 MaxDP=5.06D-05 DE=-1.71D-07 OVMax= 2.47D-04

 Cycle  11  Pass 1  IDiag  1:
 RMSU=  5.77D-07    CP:  1.00D+00  3.00D+00  8.10D-01  9.80D-01  5.76D-01
                    CP:  1.36D+00  1.23D+00  1.52D+00  1.70D+00  1.37D+00
 E= -114.719001830102     Delta-E=       -0.000000013291 Rises=F Damp=F
 DIIS: error= 1.58D-06 at cycle  11 NSaved=  11.
 NSaved=11 IEnMin=11 EnMin= -114.719001830102     IErMin=11 ErrMin= 1.58D-06
 ErrMax= 1.58D-06  0.00D+00 EMaxC= 1.00D-01 BMatC= 2.09D-10 BMatP= 5.34D-09
 IDIUse=1 WtCom= 1.00D+00 WtEn= 0.00D+00
 Coeff-Com: -0.588D-04 0.878D-04 0.125D-03 0.144D-03 0.103D-03-0.686D-03
 Coeff-Com: -0.760D-02 0.475D-01-0.404D-01-0.277D+00 0.128D+01
 Coeff:     -0.588D-04 0.878D-04 0.125D-03 0.144D-03 0.103D-03-0.686D-03
 Coeff:     -0.760D-02 0.475D-01-0.404D-01-0.277D+00 0.128D+01
 Gap=     0.081 Goal=   None    Shift=    0.000
 Gap=     0.160 Goal=   None    Shift=    0.000
 RMSDP=3.35D-07 MaxDP=9.86D-06 DE=-1.33D-08 OVMax= 4.65D-05

 Cycle  12  Pass 1  IDiag  1:
 RMSU=  1.23D-07    CP:  1.00D+00  3.00D+00  8.10D-01  9.80D-01  5.76D-01
                    CP:  1.36D+00  1.24D+00  1.52D+00  1.70D+00  1.44D+00
                    CP:  1.29D+00
 E= -114.719001830585     Delta-E=       -0.000000000482 Rises=F Damp=F
 DIIS: error= 4.40D-07 at cycle  12 NSaved=  12.
 NSaved=12 IEnMin=12 EnMin= -114.719001830585     IErMin=12 ErrMin= 4.40D-07
 ErrMax= 4.40D-07  0.00D+00 EMaxC= 1.00D-01 BMatC= 1.95D-11 BMatP= 2.09D-10
 IDIUse=1 WtCom= 1.00D+00 WtEn= 0.00D+00
 Coeff-Com:  0.145D-04-0.203D-04 0.926D-04 0.151D-03 0.193D-04 0.242D-03
 Coeff-Com: -0.463D-02 0.107D-02 0.330D-01-0.982D-01-0.105D-01 0.108D+01
 Coeff:      0.145D-04-0.203D-04 0.926D-04 0.151D-03 0.193D-04 0.242D-03
 Coeff:     -0.463D-02 0.107D-02 0.330D-01-0.982D-01-0.105D-01 0.108D+01
 Gap=     0.081 Goal=   None    Shift=    0.000
 Gap=     0.160 Goal=   None    Shift=    0.000
 RMSDP=9.66D-08 MaxDP=3.97D-06 DE=-4.82D-10 OVMax= 6.61D-06

 Cycle  13  Pass 1  IDiag  1:
 RMSU=  4.34D-08    CP:  1.00D+00  3.00D+00  8.10D-01  9.80D-01  5.76D-01
                    CP:  1.36D+00  1.23D+00  1.52D+00  1.70D+00  1.43D+00
                    CP:  1.33D+00  1.20D+00
 E= -114.719001830605     Delta-E=       -0.000000000020 Rises=F Damp=F
 DIIS: error= 2.10D-07 at cycle  13 NSaved=  13.
 NSaved=13 IEnMin=13 EnMin= -114.719001830605     IErMin=13 ErrMin= 2.10D-07
 ErrMax= 2.10D-07  0.00D+00 EMaxC= 1.00D-01 BMatC= 4.28D-12 BMatP= 1.95D-11
 IDIUse=1 WtCom= 1.00D+00 WtEn= 0.00D+00
 Coeff-Com:  0.484D-05-0.725D-05-0.605D-05-0.195D-04 0.209D-04 0.524D-05
 Coeff-Com:  0.814D-03-0.461D-02 0.387D-02 0.252D-01-0.109D+00-0.709D-01
 Coeff-Com:  0.115D+01
 Coeff:      0.484D-05-0.725D-05-0.605D-05-0.195D-04 0.209D-04 0.524D-05
 Coeff:      0.814D-03-0.461D-02 0.387D-02 0.252D-01-0.109D+00-0.709D-01
 Coeff:      0.115D+01
 Gap=     0.081 Goal=   None    Shift=    0.000
 Gap=     0.160 Goal=   None    Shift=    0.000
 RMSDP=4.19D-08 MaxDP=2.69D-06 DE=-2.00D-11 OVMax= 1.77D-06

 Cycle  14  Pass 1  IDiag  1:
 RMSU=  1.27D-08    CP:  1.00D+00  3.00D+00  8.10D-01  9.80D-01  5.76D-01
                    CP:  1.36D+00  1.23D+00  1.52D+00  1.70D+00  1.42D+00
                    CP:  1.33D+00  1.31D+00  1.23D+00
 E= -114.719001830608     Delta-E=       -0.000000000003 Rises=F Damp=F
 DIIS: error= 3.28D-08 at cycle  14 NSaved=  14.
 NSaved=14 IEnMin=14 EnMin= -114.719001830608     IErMin=14 ErrMin= 3.28D-08
 ErrMax= 3.28D-08  0.00D+00 EMaxC= 1.00D-01 BMatC= 8.03D-14 BMatP= 4.28D-12
 IDIUse=1 WtCom= 1.00D+00 WtEn= 0.00D+00
 Coeff-Com: -0.184D-05 0.263D-05-0.537D-05-0.610D-05-0.102D-04-0.106D-04
 Coeff-Com:  0.209D-03 0.370D-03-0.200D-02 0.134D-02 0.206D-01-0.606D-01
 Coeff-Com: -0.176D+00 0.122D+01
 Coeff:     -0.184D-05 0.263D-05-0.537D-05-0.610D-05-0.102D-04-0.106D-04
 Coeff:      0.209D-03 0.370D-03-0.200D-02 0.134D-02 0.206D-01-0.606D-01
 Coeff:     -0.176D+00 0.122D+01
 Gap=     0.081 Goal=   None    Shift=    0.000
 Gap=     0.160 Goal=   None    Shift=    0.000
 RMSDP=1.28D-08 MaxDP=5.79D-07 DE=-3.30D-12 OVMax= 4.74D-07

 Cycle  15  Pass 1  IDiag  1:
 RMSU=  3.06D-09    CP:  1.00D+00  3.00D+00  8.10D-01  9.80D-01  5.76D-01
                    CP:  1.36D+00  1.23D+00  1.52D+00  1.70D+00  1.42D+00
                    CP:  1.33D+00  1.32D+00  1.33D+00  1.27D+00
 E= -114.719001830607     Delta-E=        0.000000000001 Rises=F Damp=F
 DIIS: error= 5.40D-09 at cycle  15 NSaved=  15.
 NSaved=15 IEnMin=14 EnMin= -114.719001830608     IErMin=15 ErrMin= 5.40D-09
 ErrMax= 5.40D-09  0.00D+00 EMaxC= 1.00D-01 BMatC= 3.29D-15 BMatP= 8.03D-14
 IDIUse=1 WtCom= 1.00D+00 WtEn= 0.00D+00
 Coeff-Com:  0.123D-06-0.172D-06 0.353D-06 0.336D-06 0.403D-07 0.340D-05
 Coeff-Com: -0.394D-04 0.127D-03-0.235D-04-0.835D-03 0.269D-02 0.488D-02
 Coeff-Com: -0.321D-01-0.488D-01 0.107D+01
 Coeff:      0.123D-06-0.172D-06 0.353D-06 0.336D-06 0.403D-07 0.340D-05
 Coeff:     -0.394D-04 0.127D-03-0.235D-04-0.835D-03 0.269D-02 0.488D-02
 Coeff:     -0.321D-01-0.488D-01 0.107D+01
 Gap=     0.081 Goal=   None    Shift=    0.000
 Gap=     0.160 Goal=   None    Shift=    0.000
 RMSDP=1.74D-09 MaxDP=1.15D-07 DE= 5.12D-13 OVMax= 5.20D-08

 SCF Done:  E(UB3LYP) =  -114.719001831     A.U. after   15 cycles
            NFock= 15  Conv=0.17D-08     -V/T= 2.0045
 <Sx>= 0.0000 <Sy>= 0.0000 <Sz>= 0.5000 <S**2>= 0.7670 S= 0.5084
 <L.S>= 0.000000000000E+00
 KE= 1.142021383904D+02 PE=-3.507279549386D+02 EE= 7.946955774668D+01
 Annihilation of the first spin contaminant:
 S**2 before annihilation     0.7670,   after     0.7501
 Leave Link  502 at Mon Jun 20 12:00:04 2016, MaxMem=    33554432 cpu:        87.2
 (Enter /home/proyectos/fulerenos/M3C-v1.9/M3C-deps_CCC/g09-AM64L-G09RevC.01/l801.exe)
 DoSCS=F DFT=T ScalE2(SS,OS)=  1.000000  1.000000
 Range of M.O.s used for correlation:     1   127
 NBasis=   127 NAE=    10 NBE=     9 NFC=     0 NFV=     0
 NROrb=    127 NOA=    10 NOB=     9 NVA=   117 NVB=   118

 **** Warning!!: The largest alpha MO coefficient is  0.24635558D+03


 **** Warning!!: The smallest alpha delta epsilon is  0.80907583D-01


 **** Warning!!: The largest beta MO coefficient is  0.24758542D+03

 Leave Link  801 at Mon Jun 20 12:00:04 2016, MaxMem=    33554432 cpu:         0.1
 (Enter /home/proyectos/fulerenos/M3C-v1.9/M3C-deps_CCC/g09-AM64L-G09RevC.01/l1101.exe)
 Using compressed storage, NAtomX=     4.
 Will process      5 centers per pass.
 Leave Link 1101 at Mon Jun 20 12:00:04 2016, MaxMem=    33554432 cpu:         0.7
 (Enter /home/proyectos/fulerenos/M3C-v1.9/M3C-deps_CCC/g09-AM64L-G09RevC.01/l1102.exe)
 Symmetrizing basis deriv contribution to polar:
 IMax=3 JMax=2 DiffMx= 0.00D+00
 Leave Link 1102 at Mon Jun 20 12:00:04 2016, MaxMem=    33554432 cpu:         0.1
 (Enter /home/proyectos/fulerenos/M3C-v1.9/M3C-deps_CCC/g09-AM64L-G09RevC.01/l1110.exe)
 Forming Gx(P) for the SCF density, NAtomX=     4.
 Integral derivatives from FoFJK, PRISM(SPDF).
 Do as many integral derivatives as possible in FoFJK.
 G2DrvN: MDV=      33554296.
 G2DrvN: will do     5 centers at a time, making    1 passes.
 Calling FoFCou, ICntrl=  3107 FMM=F I1Cent=   0 AccDes= 0.00D+00.
 FoFJK:  IHMeth= 1 ICntrl=    3107 DoSepK=F KAlg= 0 I1Cent=   0 FoldK=F
 IRaf=         0 NMat=   1 IRICut=       1 DoRegI=T DoRafI=F ISym2E= 1.
 FoFCou: FMM=F IPFlag=           0 FMFlag=      100000 FMFlg1=           0
         NFxFlg=           0 DoJE=F BraDBF=F KetDBF=F FulRan=T
         wScrn=  0.000000 ICntrl=    3107 IOpCl=  1 I1Cent=           0 NGrid=           0
         NMat0=    1 NMatS0=      1 NMatT0=    0 NMatD0=    1 NMtDS0=    0 NMtDT0=    0
 Petite list used in FoFCou.
 End of G2Drv F.D. properties file   721 does not exist.
 End of G2Drv F.D. properties file   722 does not exist.
 End of G2Drv F.D. properties file   788 does not exist.
 Leave Link 1110 at Mon Jun 20 12:00:09 2016, MaxMem=    33554432 cpu:        18.1
 (Enter /home/proyectos/fulerenos/M3C-v1.9/M3C-deps_CCC/g09-AM64L-G09RevC.01/l1002.exe)
 Minotr:  UHF open shell wavefunction.
          IDoAtm=1111
          Direct CPHF calculation.
          Differentiating once with respect to electric field.
                with respect to dipole field.
          Differentiating once with respect to nuclear coordinates.
          Using symmetry in CPHF.
          Requested convergence is 1.0D-08 RMS, and 1.0D-07 maximum.
          Secondary convergence is 1.0D-12 RMS, and 1.0D-12 maximum.
          NewPWx=T KeepS1=F KeepF1=F KeepIn=T MapXYZ=F SortEE=F KeepMc=T.
          MDV=      33554134 using IRadAn=       2.
 Generate precomputed XC quadrature information.
          Solving linear equations simultaneously, MaxMat=       0.
 FoFJK:  IHMeth= 1 ICntrl=       0 DoSepK=F KAlg= 0 I1Cent=   0 FoldK=F
 IRaf= 990000000 NMat=  15 IRICut=      37 DoRegI=T DoRafI=T ISym2E= 2.
 FoFCou: FMM=F IPFlag=           0 FMFlag=      100000 FMFlg1=           0
         NFxFlg=           0 DoJE=F BraDBF=F KetDBF=F FulRan=T
         wScrn=  0.000000 ICntrl=       0 IOpCl=  1 I1Cent=           0 NGrid=           0
         NMat0=   15 NMatS0=     15 NMatT0=    0 NMatD0=   15 NMtDS0=    0 NMtDT0=    0
 Integrals replicated using symmetry in FoFCou.
          There are    15 degrees of freedom in the 1st order CPHF.  IDoFFX=6 NUNeed=     3.
     12 vectors produced by pass  0 Test12= 1.49D-14 6.67D-09 XBig12= 2.20D+02 7.94D+00.
 AX will form    12 AO Fock derivatives at one time.
     12 vectors produced by pass  1 Test12= 1.49D-14 6.67D-09 XBig12= 1.05D+02 3.64D+00.
     12 vectors produced by pass  2 Test12= 1.49D-14 6.67D-09 XBig12= 3.36D+00 5.44D-01.
     12 vectors produced by pass  3 Test12= 1.49D-14 6.67D-09 XBig12= 7.54D-02 7.73D-02.
     12 vectors produced by pass  4 Test12= 1.49D-14 6.67D-09 XBig12= 8.77D-04 7.26D-03.
     12 vectors produced by pass  5 Test12= 1.49D-14 6.67D-09 XBig12= 8.56D-06 5.40D-04.
     11 vectors produced by pass  6 Test12= 1.49D-14 6.67D-09 XBig12= 5.61D-08 4.55D-05.
      6 vectors produced by pass  7 Test12= 1.49D-14 6.67D-09 XBig12= 3.90D-10 3.85D-06.
      5 vectors produced by pass  8 Test12= 1.49D-14 6.67D-09 XBig12= 3.64D-12 5.56D-07.
      4 vectors produced by pass  9 Test12= 1.49D-14 6.67D-09 XBig12= 2.72D-13 1.98D-07.
      1 vectors produced by pass 10 Test12= 1.49D-14 6.67D-09 XBig12= 2.67D-14 4.05D-08.
 InvSVY:  IOpt=1 It=  1 EMax= 5.55D-16
 Solved reduced A of dimension    99 with    12 vectors.
 FullF1:  Do perturbations    1 to     3.
 Isotropic polarizability for W=    0.000000       35.73 Bohr**3.
 End of Minotr F.D. properties file   721 does not exist.
 End of Minotr F.D. properties file   722 does not exist.
 End of Minotr F.D. properties file   788 does not exist.
 Leave Link 1002 at Mon Jun 20 12:00:26 2016, MaxMem=    33554432 cpu:        69.6
 (Enter /home/proyectos/fulerenos/M3C-v1.9/M3C-deps_CCC/g09-AM64L-G09RevC.01/l601.exe)
 Copying SCF densities to generalized density rwf, IOpCl= 1 IROHF=0.

 **********************************************************************

            Population analysis using the SCF density.

 **********************************************************************

 Orbital symmetries:
 Alpha Orbitals:
       Occupied  (SG) (SG) (SG) (SG) (SG) (SG) (PI) (PI) (SG) (PI)
       Virtual   (PI) (SG) (SG) (?A) (?A) (SG) (?A) (?A) (SG) (PI)
                 (PI) (SG) (?A) (?A) (SG) (?B) (?B) (?B) (?B) (?B)
                 (DLTA) (DLTA) (SG) (PI) (PI) (SG) (SG) (?C) (?C)
                 (?C) (?C) (?D) (?D) (?D) (PI) (PI) (SG) (SG) (PI)
                 (PI) (PI) (PI) (SG) (SG) (SG) (PI) (PI) (SG) (?E)
                 (?E) (?E) (SG) (DLTA) (DLTA) (PI) (PI) (PI) (PI)
                 (DLTA) (DLTA) (SG) (PI) (PI) (SG) (DLTA) (DLTA)
                 (PHI) (PHI) (SG) (PI) (PI) (?F) (?F) (?F) (?F)
                 (PI) (PI) (SG) (PHI) (PHI) (?G) (?G) (?G) (SG)
                 (PI) (PI) (SG) (DLTA) (DLTA) (PI) (PI) (SG) (SG)
                 (PI) (PI) (SG) (PI) (PI) (SG) (DLTA) (DLTA) (DLTA)
                 (DLTA) (DLTA) (DLTA) (PI) (PI) (SG) (PI) (PI)
                 (PI) (PI) (SG) (SG) (SG) (SG) (SG)
 Beta  Orbitals:
       Occupied  (SG) (SG) (SG) (SG) (SG) (SG) (PI) (PI) (SG)
       Virtual   (PI) (PI) (SG) (SG) (?A) (?A) (SG) (?A) (SG) (?A)
                 (?A) (?A) (SG) (?A) (?A) (?B) (SG) (?B) (?B) (?B)
                 (SG) (?B) (?B) (?B) (PI) (PI) (?B) (SG) (?C) (?C)
                 (?C) (?C) (?D) (?D) (?D) (PI) (PI) (SG) (SG) (PI)
                 (PI) (PI) (PI) (SG) (SG) (SG) (PI) (PI) (SG) (?E)
                 (?E) (?E) (SG) (DLTA) (DLTA) (PI) (PI) (PI) (PI)
                 (?F) (?F) (?F) (PI) (PI) (?B) (?B) (?B) (?G) (?G)
                 (?B) (?G) (?G) (?H) (?H) (?H) (?H) (?H) (?H) (?I)
                 (?H) (?H) (?I) (?I) (?I) (?I) (PI) (PI) (?J) (?J)
                 (?J) (PI) (PI) (SG) (SG) (PI) (PI) (SG) (PI) (PI)
                 (SG) (DLTA) (DLTA) (?K) (?K) (?K) (?K) (PI) (PI)
                 (?K) (PI) (PI) (PI) (PI) (SG) (SG) (SG) (SG) (SG)
 Unable to determine electronic state:  partially filled degenerate orbitals.
 Alpha  occ. eigenvalues --  -10.26090 -10.25097 -10.21169  -0.83177  -0.72106
 Alpha  occ. eigenvalues --   -0.58294  -0.38470  -0.36838  -0.32349  -0.23871
 Alpha virt. eigenvalues --   -0.15780  -0.01205   0.02859   0.03073   0.03296
 Alpha virt. eigenvalues --    0.06517   0.07716   0.08796   0.08912   0.09492
 Alpha virt. eigenvalues --    0.09767   0.11653   0.15739   0.15746   0.17934
 Alpha virt. eigenvalues --    0.20015   0.25483   0.25742   0.25941   0.30995
 Alpha virt. eigenvalues --    0.37458   0.37553   0.38419   0.40190   0.40541
 Alpha virt. eigenvalues --    0.42844   0.47522   0.49133   0.49520   0.51889
 Alpha virt. eigenvalues --    0.52653   0.57188   0.57273   0.57441   0.58366
 Alpha virt. eigenvalues --    0.58833   0.67658   0.79750   0.82206   0.82329
 Alpha virt. eigenvalues --    0.88228   0.88383   0.91069   1.08730   1.15451
 Alpha virt. eigenvalues --    1.16171   1.16238   1.32316   1.36122   1.39361
 Alpha virt. eigenvalues --    1.39491   1.51321   1.54485   1.54774   1.60548
 Alpha virt. eigenvalues --    1.60659   1.77239   1.77567   1.78724   1.78871
 Alpha virt. eigenvalues --    2.04156   2.35549   2.35953   2.44790   2.50560
 Alpha virt. eigenvalues --    2.50648   2.56798   2.56817   2.59294   2.64951
 Alpha virt. eigenvalues --    2.65172   2.78117   2.78163   2.80435   2.81300
 Alpha virt. eigenvalues --    2.89263   2.89486   3.01831   3.06359   3.06381
 Alpha virt. eigenvalues --    3.07517   3.07620   3.08147   3.21203   3.24611
 Alpha virt. eigenvalues --    3.24667   3.87531   3.96849   3.96951   3.98942
 Alpha virt. eigenvalues --    3.98955   4.13570   4.30176   4.57603   4.57629
 Alpha virt. eigenvalues --    5.36594   5.80317   5.80434   6.18569   6.86591
 Alpha virt. eigenvalues --    6.86807   6.95803   6.96141   7.06515   7.06596
 Alpha virt. eigenvalues --    7.15862   7.17159   7.25440   7.29465   7.30037
 Alpha virt. eigenvalues --    7.57227   7.57377   8.13111   8.56829  23.73927
 Alpha virt. eigenvalues --   25.64364  26.65794
  Beta  occ. eigenvalues --  -10.25300 -10.24109 -10.21438  -0.82120  -0.69629
  Beta  occ. eigenvalues --   -0.57546  -0.36563  -0.35071  -0.30612
  Beta virt. eigenvalues --   -0.14605  -0.11811  -0.01092   0.02965   0.03252
  Beta virt. eigenvalues --    0.03681   0.06705   0.09131   0.09134   0.09844
  Beta virt. eigenvalues --    0.10156   0.10555   0.11817   0.15711   0.16150
  Beta virt. eigenvalues --    0.18287   0.20008   0.25918   0.26265   0.26316
  Beta virt. eigenvalues --    0.31299   0.38615   0.38682   0.38726   0.40701
  Beta virt. eigenvalues --    0.41574   0.43515   0.48013   0.49722   0.50882
  Beta virt. eigenvalues --    0.53125   0.54626   0.57328   0.57531   0.57977
  Beta virt. eigenvalues --    0.58192   0.58889   0.67864   0.80100   0.82316
  Beta virt. eigenvalues --    0.83362   0.88603   0.90042   0.91809   1.09240
  Beta virt. eigenvalues --    1.15943   1.16234   1.16947   1.33662   1.36654
  Beta virt. eigenvalues --    1.40738   1.40764   1.51810   1.58062   1.58068
  Beta virt. eigenvalues --    1.60765   1.62356   1.77948   1.79854   1.80250
  Beta virt. eigenvalues --    1.80269   2.05433   2.36178   2.37986   2.45362
  Beta virt. eigenvalues --    2.51993   2.52045   2.57980   2.57986   2.59997
  Beta virt. eigenvalues --    2.65400   2.66559   2.80947   2.81463   2.82809
  Beta virt. eigenvalues --    2.84721   2.89795   2.91658   3.02559   3.07759
  Beta virt. eigenvalues --    3.07765   3.08105   3.09592   3.09726   3.22249
  Beta virt. eigenvalues --    3.24845   3.26557   3.88365   3.97972   3.98064
  Beta virt. eigenvalues --    3.98925   4.00213   4.14134   4.30538   4.57663
  Beta virt. eigenvalues --    4.59030   5.38010   5.80445   5.81936   6.18717
  Beta virt. eigenvalues --    6.89183   6.89202   7.00263   7.00290   7.07193
  Beta virt. eigenvalues --    7.07224   7.17536   7.19843   7.27059   7.30101
  Beta virt. eigenvalues --    7.31413   7.57291   7.58491   8.14197   8.56998
  Beta virt. eigenvalues --   23.74498  25.65125  26.66253
          Condensed to atoms (all electrons):
               1          2          3          4
     1  C   11.507204  -2.086655  -2.574529   0.013291
     2  C   -2.086655   8.124843  -0.566748   0.126259
     3  C   -2.574529  -0.566748   8.843828   0.176210
     4  H    0.013291   0.126259   0.176210   0.348469
          Atomic-Atomic Spin Densities.
               1          2          3          4
     1  C    0.839133   0.000580  -0.201065  -0.005632
     2  C    0.000580  -0.161905   0.014697  -0.003807
     3  C   -0.201065   0.014697   0.709393   0.010439
     4  H   -0.005632  -0.003807   0.010439  -0.017045
 Mulliken charges and spin densities:
               1          2
     1  C   -0.859310   0.633016
     2  C    0.402301  -0.150435
     3  C    0.121239   0.533464
     4  H    0.335770  -0.016045
 Sum of Mulliken charges =  -0.00000   1.00000
 Mulliken charges and spin densities with hydrogens summed into heavy atoms:
               1          2
     1  C   -0.859310   0.633016
     2  C    0.402301  -0.150435
     3  C    0.457010   0.517419
 APT charges:
               1
     1  C    0.084963
     2  C   -0.282862
     3  C   -0.033949
     4  H    0.231848
 Sum of APT charges =  -0.00000
 APT charges with hydrogens summed into heavy atoms:
               1
     1  C    0.084963
     2  C   -0.282862
     3  C    0.197899
 Electronic spatial extent (au):  <R**2>=            129.2015
 Charge=             -0.0000 electrons
 Dipole moment (field-independent basis, Debye):
    X=              0.0000    Y=              0.0000    Z=             -3.7124  Tot=              3.7124
 Quadrupole moment (field-independent basis, Debye-Ang):
   XX=            -19.0371   YY=            -17.1541   ZZ=            -17.5935
   XY=              0.0000   XZ=              0.0000   YZ=              0.0000
 Traceless Quadrupole moment (field-independent basis, Debye-Ang):
   XX=             -1.1089   YY=              0.7741   ZZ=              0.3348
   XY=              0.0000   XZ=              0.0000   YZ=              0.0000
 Octapole moment (field-independent basis, Debye-Ang**2):
  XXX=              0.0000  YYY=              0.0000  ZZZ=            -30.0173  XYY=              0.0000
  XXY=              0.0000  XXZ=             -1.8710  XZZ=              0.0000  YZZ=              0.0000
  YYZ=             -1.3385  XYZ=              0.0000
 Hexadecapole moment (field-independent basis, Debye-Ang**3):
 XXXX=            -24.0066 YYYY=            -19.9315 ZZZZ=           -160.5884 XXXY=              0.0000
 XXXZ=              0.0000 YYYX=              0.0000 YYYZ=              0.0000 ZZZX=              0.0000
 ZZZY=              0.0000 XXYY=             -7.3222 XXZZ=            -34.0658 YYZZ=            -29.5843
 XXYZ=              0.0000 YYXZ=              0.0000 ZZXY=              0.0000
 N-N= 4.233725697087D+01 E-N=-3.507279549766D+02  KE= 1.142021383904D+02
 Symmetry A1   KE= 1.084912504675D+02
 Symmetry A2   KE= 2.382058571829D-35
 Symmetry B1   KE= 3.509304798950D+00
 Symmetry B2   KE= 2.201583123978D+00
  Exact polarizability:  25.921   0.000  24.389   0.000   0.000  56.868
 Approx polarizability:  33.166  -0.000  34.732  -0.000  -0.000 113.135
                          Isotropic Fermi Contact Couplings
        Atom                 a.u.       MegaHertz       Gauss      10(-4) cm-1
     1  C(13)              0.02824      31.74159      11.32619      10.58786
     2  C(13)             -0.04028     -45.28312     -16.15814     -15.10482
     3  C(13)              0.03565      40.07330      14.29915      13.36701
     4  H(1)              -0.00922     -41.19272     -14.69859     -13.74041
 --------------------------------------------------------
       Center         ----  Spin Dipole Couplings  ----
                      3XX-RR        3YY-RR        3ZZ-RR
 --------------------------------------------------------
     1   Atom        0.894969     -0.452327     -0.442642
     2   Atom       -0.141878     -0.009599      0.151477
     3   Atom        0.645839     -0.307361     -0.338479
     4   Atom        0.001468     -0.042379      0.040911
 --------------------------------------------------------
                        XY            XZ            YZ
 --------------------------------------------------------
     1   Atom        0.000000      0.000000      0.000000
     2   Atom        0.000000      0.000000      0.000000
     3   Atom        0.000000      0.000000      0.000000
     4   Atom        0.000000      0.000000      0.000000
 --------------------------------------------------------


 ---------------------------------------------------------------------------------
              Anisotropic Spin Dipole Couplings in Principal Axis System
 ---------------------------------------------------------------------------------

       Atom             a.u.   MegaHertz   Gauss  10(-4) cm-1        Axes

              Baa    -0.4523   -60.698   -21.659   -20.247 -0.0000  1.0000  0.0000
     1 C(13)  Bbb    -0.4426   -59.398   -21.195   -19.813  0.0000  0.0000  1.0000
              Bcc     0.8950   120.096    42.853    40.060  1.0000  0.0000  0.0000
 
              Baa    -0.1419   -19.039    -6.793    -6.351  1.0000  0.0000  0.0000
     2 C(13)  Bbb    -0.0096    -1.288    -0.460    -0.430 -0.0000  1.0000  0.0000
              Bcc     0.1515    20.327     7.253     6.780  0.0000  0.0000  1.0000
 
              Baa    -0.3385   -45.421   -16.207   -15.151  0.0000  0.0000  1.0000
     3 C(13)  Bbb    -0.3074   -41.245   -14.717   -13.758 -0.0000  1.0000  0.0000
              Bcc     0.6458    86.665    30.924    28.908  1.0000  0.0000  0.0000
 
              Baa    -0.0424   -22.611    -8.068    -7.542 -0.0000  1.0000  0.0000
     4 H(1)   Bbb     0.0015     0.783     0.279     0.261  1.0000  0.0000  0.0000
              Bcc     0.0409    21.828     7.789     7.281  0.0000  0.0000  1.0000
 

 ---------------------------------------------------------------------------------

 No NMR shielding tensors so no spin-rotation constants.
 Leave Link  601 at Mon Jun 20 12:00:27 2016, MaxMem=    33554432 cpu:         1.2
 (Enter /home/proyectos/fulerenos/M3C-v1.9/M3C-deps_CCC/g09-AM64L-G09RevC.01/l701.exe)
 Compute integral second derivatives.
 ... and contract with generalized density number  0.
 Leave Link  701 at Mon Jun 20 12:00:27 2016, MaxMem=    33554432 cpu:         0.9
 (Enter /home/proyectos/fulerenos/M3C-v1.9/M3C-deps_CCC/g09-AM64L-G09RevC.01/l702.exe)
 L702 exits ... SP integral derivatives will be done elsewhere.
 Leave Link  702 at Mon Jun 20 12:00:27 2016, MaxMem=    33554432 cpu:         0.0
 (Enter /home/proyectos/fulerenos/M3C-v1.9/M3C-deps_CCC/g09-AM64L-G09RevC.01/l703.exe)
 Compute integral second derivatives, UseDBF=F ICtDFT=           0.
 Integral derivatives from FoFJK, PRISM(SPDF).
 Calling FoFJK, ICntrl=    100127 FMM=F ISym2X=1 I1Cent= 0 IOpClX= 1 NMat=1 NMatS=1 NMatT=0.
 FoFJK:  IHMeth= 1 ICntrl=  100127 DoSepK=F KAlg= 0 I1Cent=   0 FoldK=F
 IRaf=         0 NMat=   1 IRICut=       1 DoRegI=T DoRafI=F ISym2E= 1.
 FoFCou: FMM=F IPFlag=           0 FMFlag=      100000 FMFlg1=         800
         NFxFlg=           0 DoJE=F BraDBF=F KetDBF=F FulRan=T
         wScrn=  0.000000 ICntrl=  100127 IOpCl=  1 I1Cent=           0 NGrid=           0
         NMat0=    1 NMatS0=      1 NMatT0=    0 NMatD0=    1 NMtDS0=    0 NMtDT0=    0
 Petite list used in FoFCou.
 Leave Link  703 at Mon Jun 20 12:00:35 2016, MaxMem=    33554432 cpu:        33.1
 (Enter /home/proyectos/fulerenos/M3C-v1.9/M3C-deps_CCC/g09-AM64L-G09RevC.01/l716.exe)
 Dipole        = 0.00000000D+00 0.00000000D+00-1.46057209D+00
 Polarizability= 2.59208815D+01 1.29933400D-07 2.43893913D+01
                 1.96180933D-08 1.13094753D-08 5.68680718D+01
 Full mass-weighted force constant matrix:
 Low frequencies --- -192.0745   -8.3753   -7.4893   -0.0004    0.0008    0.0010
 Low frequencies ---  245.1870  379.7185  830.7742
 ******    1 imaginary frequencies (negative Signs) ****** 
 Diagonal vibrational polarizability:
       49.4692506       0.8821427       2.0829767
 Harmonic frequencies (cm**-1), IR intensities (KM/Mole), Raman scattering
 activities (A**4/AMU), depolarization ratios for plane and unpolarized
 incident light, reduced masses (AMU), force constants (mDyne/A),
 and normal coordinates:
                      1                      2                      3
                     ?A                     ?A                     ?A
 Frequencies --   -192.0729               245.1866               379.7184
 Red. masses --      1.3741                 5.0096                 4.5844
 Frc consts  --      0.0299                 0.1774                 0.3895
 IR Inten    --     67.7087                 0.7682                 0.4210
  Atom  AN      X      Y      Z        X      Y      Z        X      Y      Z
     1   6    -0.01   0.00   0.00    -0.00  -0.27  -0.00    -0.26   0.00   0.00
     2   6     0.09  -0.00  -0.00     0.00   0.51   0.00     0.48  -0.00  -0.00
     3   6    -0.16   0.00   0.00    -0.00  -0.17  -0.00    -0.15   0.00   0.00
     4   1     0.98   0.00   0.00     0.00  -0.80  -0.00    -0.82   0.00   0.00
                      4                      5                      6
                     ?A                     SG                     SG
 Frequencies --    830.7742              1177.1987              1905.4260
 Red. masses --      1.3400                 8.8226                 7.3335
 Frc consts  --      0.5449                 7.2036                15.6873
 IR Inten    --     13.8045                41.7125               152.9170
  Atom  AN      X      Y      Z        X      Y      Z        X      Y      Z
     1   6     0.00  -0.00  -0.00     0.00  -0.00   0.68    -0.00   0.00  -0.16
     2   6    -0.00   0.08   0.00    -0.00   0.00  -0.18     0.00  -0.00   0.62
     3   6     0.00  -0.16  -0.00     0.00  -0.00  -0.46    -0.00   0.00  -0.41
     4   1    -0.00   0.98   0.00     0.00   0.00  -0.54     0.00  -0.00  -0.65
                      7
                     SG
 Frequencies --   3431.8244
 Red. masses --      1.1307
 Frc consts  --      7.8457
 IR Inten    --     61.0475
  Atom  AN      X      Y      Z
     1   6     0.00   0.00   0.00
     2   6     0.00  -0.00   0.02
     3   6    -0.00   0.00  -0.10
     4   1     0.00  -0.00   0.99

 -------------------
 - Thermochemistry -
 -------------------
 Temperature   298.150 Kelvin.  Pressure   1.00000 Atm.
 Atom     1 has atomic number  6 and mass  12.00000
 Atom     2 has atomic number  6 and mass  12.00000
 Atom     3 has atomic number  6 and mass  12.00000
 Atom     4 has atomic number  1 and mass   1.00783
 Molecular mass:    37.00783 amu.
 Principal axes and moments of inertia in atomic units:
                           1         2         3
     Eigenvalues --     0.00000 160.64297 160.64297
           X            0.00000  -0.00000   1.00000
           Y            0.00000   1.00000   0.00000
           Z            1.00000   0.00000   0.00000
 This molecule is a prolate symmetric top.
 Rotational symmetry number  1.
 Rotational temperature (Kelvin)      0.53917
 Rotational constant (GHZ):          11.234486
    1 imaginary frequencies ignored.
 Zero-point vibrational energy      47672.0 (Joules/Mol)
                                   11.39387 (Kcal/Mol)
 Warning -- explicit consideration of   2 degrees of freedom as
           vibrations may cause significant error
 Vibrational temperatures:    352.77   546.33  1195.30  1693.72  2741.48
          (Kelvin)           4937.62
 
 Zero-point correction=                           0.018157 (Hartree/Particle)
 Thermal correction to Energy=                    0.021430
 Thermal correction to Enthalpy=                  0.022374
 Thermal correction to Gibbs Free Energy=        -0.004094
 Sum of electronic and zero-point Energies=           -114.700845
 Sum of electronic and thermal Energies=              -114.697572
 Sum of electronic and thermal Enthalpies=            -114.696628
 Sum of electronic and thermal Free Energies=         -114.723095
 
                     E (Thermal)             CV                S
                      KCal/Mol        Cal/Mol-Kelvin    Cal/Mol-Kelvin
 Total                   13.447              9.091             55.706
 Electronic               0.000              0.000              1.377
 Translational            0.889              2.981             36.755
 Rotational               0.592              1.987             14.537
 Vibrational             11.966              4.123              3.036
 Vibration     1          0.660              1.771              1.765
 Vibration     2          0.750              1.513              1.040
                       Q            Log10(Q)             Ln(Q)
 Total Bot       0.763708D+02          1.882927          4.335600
 Total V=0       0.171665D+11         10.234682         23.566227
 Vib (Bot)       0.780355D-08         -8.107708        -18.668687
 Vib (Bot)    1  0.797814D+00         -0.098098         -0.225880
 Vib (Bot)    2  0.476251D+00         -0.322164         -0.741810
 Vib (V=0)       0.175407D+01          0.244047          0.561940
 Vib (V=0)    1  0.144154D+01          0.158828          0.365715
 Vib (V=0)    2  0.119052D+01          0.075736          0.174388
 Electronic      0.200000D+01          0.301030          0.693147
 Translational   0.884903D+07          6.946896         15.995818
 Rotational      0.552980D+03          2.742709          6.315322
 
                                                              b3lyp opt
                                                             IR Spectrum
 
     3                                                        1                          1                                           
     4                                                        9                          1            8               3    2         
     3                                                        0                          7            3               8    4         
     2                                                        5                          7            1               0    5         
 
     X                                                        X                          X            X               X    X         
     X                                                        X                          X            X                              
     X                                                        X                          X                                           
     X                                                        X                          X                                           
     X                                                        X                          X                                           
     X                                                        X                                                                      
     X                                                        X                                                                      
     X                                                        X                                                                      
                                                              X                                                                      
                                                              X                                                                      
                                                              X                                                                      
                                                              X                                                                      
                                                              X                                                                      
                                                              X                                                                      
                                                              X                                                                      
                                                              X                                                                      
                                                              X                                                                      
                                                              X                                                                      
                                                              X                                                                      
                                                              X                                                                      
 
 ***** Axes restored to original set *****
 -------------------------------------------------------------------
 Center     Atomic                   Forces (Hartrees/Bohr)
 Number     Number              X              Y              Z
 -------------------------------------------------------------------
      1        6          -0.000000000   -0.000000000    0.000029833
      2        6          -0.000000000   -0.000000000   -0.000236243
      3        6          -0.000000000   -0.000000000    0.000225887
      4        1          -0.000000000   -0.000000000   -0.000019477
 -------------------------------------------------------------------
 Cartesian Forces:  Max     0.000236243 RMS     0.000094914
 Z-matrix is all fixed cartesians, so copy forces.
 Force constants in Cartesian coordinates: 
                1             2             3             4             5 
      1  0.117359D-01
      2  0.000000D+00  0.493792D-02
      3  0.000000D+00  0.000000D+00  0.466983D+00
      4 -0.216199D-01  0.000000D+00  0.000000D+00  0.389648D-01
      5  0.000000D+00 -0.969428D-02  0.000000D+00  0.000000D+00  0.332496D-01
      6  0.000000D+00  0.000000D+00 -0.366993D+00  0.000000D+00  0.000000D+00
      7  0.671303D-02  0.000000D+00  0.000000D+00 -0.106014D-01  0.000000D+00
      8  0.000000D+00  0.412970D-02  0.000000D+00  0.000000D+00 -0.389757D-01
      9  0.000000D+00  0.000000D+00 -0.999648D-01  0.000000D+00  0.000000D+00
     10  0.317089D-02  0.000000D+00  0.000000D+00 -0.674354D-02  0.000000D+00
     11  0.000000D+00  0.626659D-03  0.000000D+00  0.000000D+00  0.154204D-01
     12  0.000000D+00  0.000000D+00 -0.258612D-04  0.000000D+00  0.000000D+00
                6             7             8             9            10 
      6  0.108621D+01
      7  0.000000D+00  0.135632D-03
      8  0.000000D+00  0.000000D+00  0.703884D-01
      9 -0.727869D+00  0.000000D+00  0.000000D+00  0.124220D+01
     10  0.000000D+00  0.375269D-02  0.000000D+00  0.000000D+00 -0.180049D-03
     11  0.000000D+00  0.000000D+00 -0.355424D-01  0.000000D+00  0.000000D+00
     12  0.864887D-02  0.000000D+00  0.000000D+00 -0.414363D+00  0.000000D+00
               11            12 
     11  0.194953D-01
     12  0.000000D+00  0.405740D+00
 Leave Link  716 at Mon Jun 20 12:00:35 2016, MaxMem=    33554432 cpu:         0.1
 (Enter /home/proyectos/fulerenos/M3C-v1.9/M3C-deps_CCC/g09-AM64L-G09RevC.01/l103.exe)

 GradGradGradGradGradGradGradGradGradGradGradGradGradGradGradGradGradGrad
 Berny optimization.
 Search for a local minimum.
 Step number   1 out of a maximum of    2
 All quantities printed in internal units (Hartrees-Bohrs-Radians)
 Second derivative matrix not updated -- analytic derivatives used.
 The second derivative matrix:
                          X1        Y1        Z1        X2        Y2
           X1           0.01174
           Y1          -0.00000   0.00494
           Z1          -0.00000  -0.00000   0.46698
           X2          -0.02162   0.00000   0.00000   0.03896
           Y2           0.00000  -0.00969   0.00000   0.00000   0.03325
           Z2           0.00000   0.00000  -0.36699  -0.00000  -0.00000
           X3           0.00671  -0.00000   0.00000  -0.01060  -0.00000
           Y3           0.00000   0.00413   0.00000  -0.00000  -0.03898
           Z3          -0.00000  -0.00000  -0.09996   0.00000   0.00000
           X4           0.00317   0.00000   0.00000  -0.00674  -0.00000
           Y4          -0.00000   0.00063   0.00000   0.00000   0.01542
           Z4          -0.00000   0.00000  -0.00003   0.00000  -0.00000
                          Z2        X3        Y3        Z3        X4
           Z2           1.08621
           X3          -0.00000   0.00014
           Y3          -0.00000   0.00000   0.07039
           Z3          -0.72787   0.00000   0.00000   1.24220
           X4          -0.00000   0.00375  -0.00000   0.00000  -0.00018
           Y4          -0.00000  -0.00000  -0.03554   0.00000   0.00000
           Z4           0.00865  -0.00000   0.00000  -0.41436  -0.00000
                          Y4        Z4
           Y4           0.01950
           Z4           0.00000   0.40574
 ITU=  0
     Eigenvalues ---   -0.00360   0.01469   0.05439   0.10325   0.32788
     Eigenvalues ---    0.85817   1.97021
 Eigenvalue     1 is  -3.60D-03 should be greater than     0.000000 Eigenvector:
                          X4        X3        X1        X2        Y4
   1                    0.84324  -0.52182   0.10992   0.06764  -0.00000
                          Z1        Z4        Y3        Z3        Z2
   1                    0.00000  -0.00000   0.00000  -0.00000  -0.00000
 Angle between quadratic step and forces=  29.31 degrees.
 ClnCor:  largest displacement from symmetrization is 2.56D-11 for atom     2.
 Linear search not attempted -- first point.
 ClnCor:  largest displacement from symmetrization is 4.04D-28 for atom     4.
 B after Tr=     0.000000    0.000000   -0.000012
         Rot=    1.000000    0.000000    0.000000    0.000000 Ang=   0.00 deg.
 Variable       Old X    -DE/DX   Delta X   Delta X   Delta X     New X
                                 (Linear)    (Quad)   (Total)
    X1        0.00000  -0.00000   0.00000   0.00000   0.00000   0.00000
    Y1        0.00000  -0.00000   0.00000   0.00000   0.00000   0.00000
    Z1       -2.68920   0.00003   0.00000  -0.00002  -0.00003  -2.68923
    X2        0.00000  -0.00000   0.00000   0.00000   0.00000   0.00000
    Y2        0.00000  -0.00000   0.00000   0.00000   0.00000   0.00000
    Z2       -0.17448  -0.00024   0.00000  -0.00014  -0.00015  -0.17463
    X3        0.00000  -0.00000   0.00000   0.00000   0.00000   0.00000
    Y3        0.00000  -0.00000   0.00000   0.00000   0.00000   0.00000
    Z3        2.16731   0.00023   0.00000   0.00013   0.00011   2.16743
    X4        0.00000  -0.00000   0.00000   0.00000   0.00000   0.00000
    Y4        0.00000  -0.00000   0.00000   0.00000   0.00000   0.00000
    Z4        4.17818  -0.00002   0.00000   0.00008   0.00007   4.17825
         Item               Value     Threshold  Converged?
 Maximum Force            0.000236     0.000450     YES
 RMS     Force            0.000095     0.000300     YES
 Maximum Displacement     0.000153     0.001800     YES
 RMS     Displacement     0.000059     0.001200     YES
 Predicted change in Energy=-2.969631D-08
 Optimization completed.
    -- Stationary point found.
 GradGradGradGradGradGradGradGradGradGradGradGradGradGradGradGradGradGrad

 Leave Link  103 at Mon Jun 20 12:00:35 2016, MaxMem=    33554432 cpu:         0.1
 (Enter /home/proyectos/fulerenos/M3C-v1.9/M3C-deps_CCC/g09-AM64L-G09RevC.01/l9999.exe)
 1\1\GINC-BELVIS4\Freq\UB3LYP\6-311++G(3df,2p)\C3H1(2)\ROOT\20-Jun-2016
 \0\\#p b3lyp/6-311++G(3df,2p) freq symmetry=Loose\\b3lyp opt\\0,2\C,0.
 ,0.,-1.423061\C,0.,0.,-0.092332\C,0.,0.,1.146893\H,0.,0.,2.210995\\Ver
 sion=EM64L-G09RevE.01\HF=-114.7190018\S2=0.766968\S2-1=0.\S2A=0.750099
 \RMSD=1.735e-09\RMSF=9.491e-05\ZeroPoint=0.0181573\Thermal=0.0214299\D
 ipole=0.,0.,1.4605721\DipoleDeriv=-0.2699012,0.,0.,0.,-0.3254295,0.,0.
 ,0.,0.8502207,0.1678051,0.,0.,0.,0.1637668,0.,0.,0.,-1.1801582,-0.1680
 317,0.,0.,0.,0.030399,0.,0.,0.,0.0357843,0.2701279,0.,0.,0.,0.1312637,
 0.,0.,0.,0.2941532\Polar=25.9208815,-0.0000001,24.3893913,0.,0.,56.868
 0718\PG=C*V [C*(H1C1C1C1)]\NImag=1\\0.01173594,0.,0.00493792,0.,0.,0.4
 6698327,-0.02161986,0.,0.,0.03896475,0.,-0.00969428,0.,0.,0.03324959,0
 .,0.,-0.36699257,0.,0.,1.08621299,0.00671303,0.,0.,-0.01060136,0.,0.,0
 .00013563,0.,0.00412970,0.,0.,-0.03897573,0.,0.,0.07038844,0.,0.,-0.09
 996483,0.,0.,-0.72786929,0.,0.,1.24219678,0.00317089,0.,0.,-0.00674354
 ,0.,0.,0.00375269,0.,0.,-0.00018005,0.,0.00062666,0.,0.,0.01542042,0.,
 0.,-0.03554241,0.,0.,0.01949533,0.,0.,-0.00002586,0.,0.,0.00864887,0.,
 0.,-0.41436266,0.,0.,0.40573965\\0.,0.,-0.00002983,0.,0.,0.00023624,0.
 ,0.,-0.00022589,0.,0.,0.00001948\\\@


 MUD THROWN IS GROUND LOST -- FROM A TEA BAG
 Job cpu time:       0 days  0 hours  3 minutes 34.3 seconds.
 File lengths (MBytes):  RWF=     17 Int=      0 D2E=      0 Chk=      2 Scr=      1
 Normal termination of Gaussian 09 at Mon Jun 20 12:00:35 2016.
