1
Energy = -36.4783251890
  C            0.00000000          0.00000000          0.00000000

FREQUENCIES 0

SYMMETRY R3
ELECTRONIC_STATE ??
