3
Energy = -473.4808578700
S -0.074402000 -0.193685000  0.000000000
C  0.589793151  1.350130149 -0.000000000
C  1.478586849 -0.836138149 -0.000000000

FREQUENCIES 3
271.4716
372.3254
909.1368

SYMMETRY C2V
ELECTRONIC_STATE 3-A2
