3
Energy = -472.4939327100
S -0.025605000 -0.173927000  0.000000000
C  0.499010975  1.503187115 -0.000000000
C  1.520572025 -1.008954115 -0.000000000

FREQUENCIES 3
259.8431
690.5057
781.6871

SYMMETRY C2V
ELECTRONIC_STATE 1-A1
