3
Energy = -472.5770974800
    S   -0.425018   -0.602362    0.000000
    C    2.215263    0.450186   -0.000000
    C    0.998502   -0.035624   -0.000000

FREQUENCIES 4
274.2473
348.9911
908.8811
1606.1598

SYMMETRY C*V
ELECTRONIC_STATE ??
