3
Energy = -473.0829313400
S  0.957494404 -0.026521476  0.000000000
C  1.763504461  1.374822635  0.000000000
C  0.151720462 -1.428001366 -0.000000000

FREQUENCIES 4
120.7703
120.7703
648.6269
859.5979

SYMMETRY ??
ELECTRONIC_STATE 4-SGU
