3
Energy = -472.6142327200
S -0.449984369 -0.612019315 -0.000000000
C  2.300663835  0.483652537  0.000000000
C  0.938169148 -0.059686031  0.000000000

FREQUENCIES 4
200.2988
200.2988
778.7573
1618.9812

SYMMETRY C*V
ELECTRONIC_STATE 1-SG
