3
Energy = -472.5465996300
S  0.229586000 -0.117898000  0.000000000
C  1.537670611  0.900496632 -0.000000000
C  1.868732389 -0.365712632 -0.000000000

FREQUENCIES 3
373.8254
994.4371
1607.3647

SYMMETRY C2V
ELECTRONIC_STATE 1-A1
