3
Energy = -472.5550331900
S  0.197340000 -0.126356000  0.000000000
C  1.546257983  0.933477611 -0.000000000
C  1.892390017 -0.390235611  0.000000000

FREQUENCIES 3
760.5053
833.0376
1411.5049

SYMMETRY C2V
ELECTRONIC_STATE 3-B2
