3
Energy = -473.1977097300
S  0.126131000 -0.144993000  0.000000000
C  1.590877046  0.908286305 -0.000000000
C  1.918980954 -0.346406305  0.000000000

FREQUENCIES 3
494.5196
704.3427
1664.4239

SYMMETRY C2V
ELECTRONIC_STATE 4-A2
