4
Energy = -870.4739071100
S -1.756407000 -0.134076000  0.083872000
S  1.434055000 -0.006630000  0.430731000
C  1.142809508  1.525474559 -0.209329465
C -0.278166508 -0.023179559  0.224149465

FREQUENCIES 6
79.7286
298.4677
337.7032
508.2992
904.0197
1510.6055

SYMMETRY CS
ELECTRONIC_STATE 1-A'
