4
Energy = -870.8935595700
S -1.106526011  0.431292114  0.029032877
S  0.847940614  0.739580972 -0.232510508
C  0.308291791 -2.148162373 -0.053921928
C  0.100059933 -0.847333856 -0.076676390

FREQUENCIES 6
130.5772
276.6550
426.0644
546.7408
708.8809
1684.3459

SYMMETRY C2V
ELECTRONIC_STATE 2-A2
