4
Energy = -871.1441795700
S -1.646846630 -1.051506373 -0.468271703
S  2.334688086  0.597615624  0.181473772
C -0.254848619 -0.474936076 -0.241082179
C  0.942671068  0.021081074 -0.045690004

FREQUENCIES 7
172.7632
183.0564
388.4732
534.5799
580.3530
1336.3222
1887.9503

SYMMETRY C*V
ELECTRONIC_STATE ??
