4
Energy = -870.4154786600
S -1.148437098  0.407296595  0.034999052
S  0.895230353  0.729623303 -0.238478228
C  0.312905276 -2.176568705 -0.052691754
C  0.090094380 -0.784964023 -0.077556775

FREQUENCIES 6
188.0089
198.9137
468.0566
654.7042
695.1484
1364.3158

SYMMETRY C2V
ELECTRONIC_STATE 3-B2
