4
Energy = -870.3378505700
S -0.530722000  0.204057000  0.592358000
S  1.409804000  0.541517000  0.331800000
C -0.851936493 -1.100728196 -0.325746650
C -1.288663507 -2.070036804 -0.954681350

FREQUENCIES 6
104.3572
278.9476
316.3629
494.0934
789.9870
2011.5592

SYMMETRY CS
ELECTRONIC_STATE 3-A'
