4
Energy = -871.2999925100
S -1.009771000 -0.645569000  0.034279000
S  2.136784000 -0.773450000  0.346665000
C  0.598316184 -0.754339190  0.237566267
C -1.310892184  0.546334190 -1.181352267

FREQUENCIES 6
114.2279
238.1580
417.3583
537.9150
634.0364
1447.6492

SYMMETRY CS
ELECTRONIC_STATE 3-A"
