4
Energy = -870.6260804300
S -2.074190742 -0.283788398 -0.240863621
S  2.244282449 -0.588934737  0.086080756
C  0.766904151 -0.484595609 -0.025712608
C -0.596827368 -0.388201032 -0.128941752

FREQUENCIES 7
179.5981
179.5981
513.8371
513.8371
566.7332
1476.8164
1795.2072

SYMMETRY C*V
ELECTRONIC_STATE 1-SG
