2
Energy = -435.1469491000
    S    0.428923    0.000000    0.000000
    C    2.096971    0.000000    0.000000

FREQUENCIES 1
930.8594

SYMMETRY C*V
ELECTRONIC_STATE ??
