2
Energy = -435.6878578800
    S    0.586038    0.000000    0.000000
    C    2.117914    0.000000    0.000000

FREQUENCIES 1
1312.2994

SYMMETRY C*V
ELECTRONIC_STATE 1-SG
