2
Energy = -434.4574312400
    S    0.605087    0.000000    0.000000
    C    2.098865    0.000000    0.000000

FREQUENCIES 1
1326.8371

SYMMETRY C*V
ELECTRONIC_STATE 1-SG
