3
Energy = -833.3240097700
S  0.989645591 -0.089503899  0.000000000
S -0.974836591 -0.164470101 -0.000000000
C -0.053575000  1.470975000 -0.000000000

FREQUENCIES 3
432.8779
596.1459
686.8234

SYMMETRY C2V
ELECTRONIC_STATE 3-B2
