3
Energy = -832.4113046100
S  0.961610150 -0.309016117  0.000000000
S -0.967241150 -0.183501883  0.000000000
C  0.099928000  1.332661000 -0.000000000

FREQUENCIES 3
505.7007
607.6957
754.7763

SYMMETRY C2V
ELECTRONIC_STATE 1-A1
