3
Energy = -833.1311319700
S -1.652526412 -0.188610336  0.000000000
S  1.452148588 -0.214139336 -0.000000000
C -0.100189803 -0.201483210  0.000000000

FREQUENCIES 4
321.0431
383.4536
670.3697
1249.1103

SYMMETRY ??
ELECTRONIC_STATE ??
