3
Energy = -833.3859477800
S  1.064593026 -0.242957249  0.000000000
S -1.060825026 -0.104567751 -0.000000000
C  0.090529000  1.187668000  0.000000000

FREQUENCIES 3
501.0105
516.8210
897.1500

SYMMETRY C2V
ELECTRONIC_STATE 1-A1
