3
Energy = -833.3954059300
S -1.407908763  0.015175900 -0.000000000
S  1.487369763 -0.183718900  0.000000000
C -0.010429000 -0.814435000  0.000000000

FREQUENCIES 3
277.9545
800.4055
1047.3971

SYMMETRY C2V
ELECTRONIC_STATE 3-B2
