3
Energy = -833.3344582100
S  1.239675335 -0.204974499  0.000000000
S -1.229502335 -0.044207501 -0.000000000
C  0.084124000  1.089325000  0.000000000

FREQUENCIES 3
301.5448
345.8192
808.4231

SYMMETRY C2V
ELECTRONIC_STATE 3-B1
