3
Energy = -833.0434769600
S  1.007064646 -0.268002076  0.000000000
S -1.006972646 -0.137003924 -0.000000000
C  0.094205000  1.245149000 -0.000000000

FREQUENCIES 3
419.1989
581.4462
838.2211

SYMMETRY C2V
ELECTRONIC_STATE 2-A2
