6
Energy = -871.8311509500
S  1.037834000 -1.236192000 -0.588635000
S -0.064051000  1.806326000  0.076364000
C  0.872146038  0.322393391 -0.131219639
C  1.504821897  1.435429755  0.415322028
H  2.421491483  1.869193839  0.824518367
H -0.240714710 -1.430852591 -1.026172035

FREQUENCIES 12
287.8723
385.8165
512.7255
519.4962
822.4614
888.5844
956.8884
1009.1500
1060.3294
1474.7095
2533.9378
3123.2364

SYMMETRY CS
ELECTRONIC_STATE 1-A'
