6
Energy = -871.7668055100
    S    1.396462    1.862293   -0.896538
    S   -0.018558   -2.018494    0.695981
    C    0.459418   -0.540375    0.243697
    C    0.887093    0.547627   -0.284088
    H   -1.344579   -1.952015    1.049469
    H    0.619432   -2.334584    1.870852

FREQUENCIES 12
38.6914
160.2290
384.7328
412.9966
521.9821
626.0712
856.3907
1176.2951
1197.5763
1731.2980
2425.0925
2452.2656

SYMMETRY C1
ELECTRONIC_STATE 1-A
