6
Energy = -872.6046754600
    S   -0.047326    0.277038   -0.112734
    S   -1.506623   -0.737988    0.751740
    C    1.385823   -0.662910   -0.270261
    C    2.329436   -1.369123   -0.498362
    H    3.169279   -1.993758   -0.684311
    H    0.507910    1.091428    0.830930

FREQUENCIES 12
137.4457
266.3381
378.5315
553.8020
629.0615
679.6023
727.4648
794.0705
990.0496
2155.9412
2446.4816
3453.0030

SYMMETRY C1
ELECTRONIC_STATE 1-A
