6
Energy = -871.7339687800
    S    1.441602    0.012820    1.141786
    S   -1.260873   -0.907968   -0.398494
    C    0.415732   -0.783371    0.166386
    C    1.744927   -1.224980   -0.161264
    H   -1.256092   -2.250789   -0.674891
    H   -1.906187   -0.968948    0.807504

FREQUENCIES 12
176.8941
255.6000
360.2210
457.5768
618.7531
820.2514
842.5797
1067.1946
1156.0851
1286.5175
2483.1494
2501.2313

SYMMETRY C1
ELECTRONIC_STATE 1-A
