6
Energy = -872.6195499200
S  0.915885000 -0.867853000 -0.325399000
S -1.272806000  1.839894000  0.500182000
C  0.305819620  1.726804162  0.288497164
C  1.269613892  0.811691182 -0.017219194
H  2.313500661  1.091069829 -0.083326030
H  2.179112198 -1.263168961 -0.558371611

FREQUENCIES 12
128.8133
283.3095
434.6830
486.5816
712.8003
715.8256
871.9100
963.4272
1270.3811
1450.6825
2666.3275
3157.1532

SYMMETRY CS
ELECTRONIC_STATE 3-A"
