6
Energy = -872.5317322000
    S   -1.419657   -0.565286    0.289414
    S    0.571183   -0.991884    1.077345
    C    1.757270   -0.678248    0.018096
    C    2.763747   -0.283993   -0.624916
    H   -1.482015    0.595766    0.962678
    H    0.343307   -2.325184    0.938772

FREQUENCIES 12
104.2289
151.0753
214.1290
277.6198
395.6701
695.1583
793.5296
896.6866
1006.7158
1969.3163
2500.1969
2679.2211

SYMMETRY C1
ELECTRONIC_STATE 1-A
