5
Energy = -473.9421947600
S  0.692486000  0.498544000 -0.445470000
C -1.722493000 -0.910567000 -0.344940000
C -0.461609049 -0.770082532 -0.529788613
H -2.791964089 -1.137088529 -0.212027550
H -0.081143328 -1.803747087 -0.824849089

FREQUENCIES 9
201.3104
558.3374
665.3344
671.8895
817.7989
1042.7209
1610.4284
2647.4725
3080.7579

SYMMETRY CS
ELECTRONIC_STATE 3-A"
