6
Energy = -872.5245263600
S  0.579612524 -0.253589745  1.008129838
S  0.821549167 -1.555812860 -1.790295356
C  1.472498934 -0.681229064 -0.428337799
C  2.805896199 -0.295207185 -0.492691478
H -0.448959802 -1.753537856 -1.383562625
H -0.630920918 -0.774132800  0.721139520

FREQUENCIES 12
250.0453
272.2708
277.6067
292.3229
399.1850
522.5792
801.3310
937.2966
940.3639
1282.2231
2605.6647
2624.0158

SYMMETRY C2V
ELECTRONIC_STATE 3-A2
