6
Energy = -872.5197651200
S  0.582567000  0.549974000 -0.073376000
S -1.447309000 -0.383459000 -0.130848000
C  1.874690976 -0.584950979  0.037641564
C  2.891116445  0.280526498  0.049283473
H  1.742297488 -1.661479861  0.077614179
H -0.964641539 -1.634939357 -0.053754617

FREQUENCIES 12
94.5692
128.3325
179.9050
191.6572
289.8106
695.1564
703.7156
767.7010
1051.2417
1417.9976
2680.8548
3124.2681

SYMMETRY CS
ELECTRONIC_STATE 3-A"
