6
Energy = -872.5381839300
    S    0.306505    0.075531    0.488732
    S   -1.226761    0.502755   -0.654512
    C    1.318780   -1.290244   -0.318059
    C    2.522411   -0.832455   -0.272183
    H    0.776686   -2.140148   -0.696682
    H   -0.144738   -0.815149    1.411152

FREQUENCIES 12
128.3903
149.0445
223.0578
454.5704
581.5913
659.6992
790.6969
921.4778
959.7173
1696.1439
2493.8093
3251.7566

SYMMETRY C1
ELECTRONIC_STATE 1-A
