5
Energy = -474.0096436200
S  1.174354818 -0.454145597 -1.015064502
C -0.059309308 -0.025299576 -0.291954498
C -1.215760873  0.376705834  0.385897503
H -1.181664505  0.572366757  1.473171840
H -2.166572495  0.499713243 -0.164045840

FREQUENCIES 9
279.0372
331.7173
831.5655
969.8631
1144.9939
1380.2163
1598.1953
2938.0819
3044.3897

SYMMETRY C2V
ELECTRONIC_STATE 1-A1
