5
Energy = -474.0099934500
S -0.158121083  0.419291185 -0.318708193
C -1.503716729 -0.588434286 -0.310949783
C -0.333255322 -1.219285041 -0.651265571
H -2.589529396 -0.610160402 -0.129554907
H  0.219938649 -2.124396605 -0.946417666

FREQUENCIES 9
825.1558
834.0124
865.6258
937.9095
959.8256
1012.4894
1412.7510
3038.6009
3077.7058

SYMMETRY C2V
ELECTRONIC_STATE 1-A1
