6
Energy = -871.8707159800
S  1.076175000 -0.996458000 -0.255542000
S -1.091221000  2.317116000  0.601654000
C  0.040022129  1.420823694  0.260747686
C  1.173971464  0.629097509 -0.067334689
H  2.117758166  1.172147705 -0.186760335
H  2.394769715 -1.204725144 -0.545992628

FREQUENCIES 12
165.6367
286.2302
469.9178
634.8580
743.8902
906.4870
1030.2140
1052.9570
1304.5313
1654.1583
2531.3746
3063.2555

SYMMETRY CS
ELECTRONIC_STATE 1-A'
