5
Energy = -474.4926702700
    S   -0.324932   -0.835219   -1.282530
    C   -1.447457   -0.034689   -0.306196
    C   -2.140625   -0.578218    0.719192
    H   -1.696130    1.026393   -0.449776
    H   -0.016970    0.220064   -2.072941

FREQUENCIES 9
232.2173
348.5114
697.5622
812.1000
926.9382
1009.5950
1468.5211
2616.7080
3027.5173

SYMMETRY C1
ELECTRONIC_STATE 2-A
