5
Energy = -474.4475158600
S -0.041808053  0.017592973  0.950956286
C  0.096568030  0.644411950 -0.730845719
C -1.229824213  0.222730255 -0.575372598
H -2.046166023  0.921124455 -0.337802264
H -1.580831086 -0.759392073 -0.925855092

FREQUENCIES 9
370.0412
606.3912
741.6625
834.5019
1041.6124
1262.9382
1361.5210
2942.1720
3000.5804

SYMMETRY CS
ELECTRONIC_STATE 4-A'
