5
Energy = -474.8502452100
S -0.424500000 -0.062184000  0.337093000
C  2.077604000  0.118461000 -0.557644000
C  0.960391928  0.765450755 -0.216685047
H  3.064558507  0.356968462 -0.924030547
H  0.922576354  1.854575480 -0.291016891

FREQUENCIES 9
304.6322
570.7008
706.0152
861.1212
894.1431
1234.6876
1402.1305
3034.0470
3221.7024

SYMMETRY CS
ELECTRONIC_STATE 3-A"
