5
Energy = -473.8773197700
S -0.353234000 -0.830551000 -1.252567000
C -1.438820000 -0.000403000 -0.330673000
C -2.140246925 -0.651905891  0.749799870
H -1.700373677  1.074651148 -0.465690302
H  0.006307780  0.206451539 -2.093339133

FREQUENCIES 9
229.2958
390.2922
857.3604
861.1082
939.4017
1014.9853
1283.1644
2417.3590
2870.1742

SYMMETRY CS
ELECTRONIC_STATE 1-A'
