5
Energy = -474.8567927700
    S   -0.712428   -0.783661   -1.461994
    C   -1.729858    0.224069   -0.371561
    C   -1.282718   -0.621404    0.503824
    H   -2.348647    1.067298   -0.614571
    H    0.447539   -0.087972   -1.447948

FREQUENCIES 9
361.5428
557.6874
660.3019
685.5974
961.6361
990.1846
1654.6554
2575.8759
3287.0752

SYMMETRY C1
ELECTRONIC_STATE 1-A
