6
Energy = -871.8166367200
S  0.732469489 -1.358305244 -0.598122022
S -0.456935511  2.915576756 -0.356085022
C  0.003578989  1.397509256 -0.498618022
C  0.271954989  0.159762256 -0.455589022
H  0.095463643 -1.842472513  0.521919622
H  0.180070335  3.399744024 -1.476126667

FREQUENCIES 12
168.4483
175.8918
348.7351
526.8781
533.2046
623.7890
968.1622
969.2694
1145.2379
1973.7223
2448.9954
2454.7801

SYMMETRY C2H
ELECTRONIC_STATE 1-AG
