5
Energy = -473.8432781800
S -0.143925000 -0.165147000  0.337309000
C  0.146016000  1.397571000 -0.123784000
C -1.759475850 -0.359970293 -0.148587303
H -0.107792372  2.379640900 -0.563560230
H -2.515356424 -1.172255385 -0.117120140

FREQUENCIES 9
105.8035
326.0273
442.3278
661.9910
688.9623
739.1724
917.7644
2965.7764
3012.4157

SYMMETRY CS
ELECTRONIC_STATE 3-A'
