5
Energy = -474.7892308000
S  0.015018000  0.728170000 -0.572424000
C  0.798194000  0.498792000  0.872239000
C -1.240202657 -0.414220391 -0.743884641
H -1.836921014 -0.380921136 -1.643745076
H -1.424426105 -1.144725168  0.030078769

FREQUENCIES 9
301.6240
324.8451
634.8317
733.0820
860.6522
917.4482
1388.7983
3132.9899
3267.5975

SYMMETRY CS
ELECTRONIC_STATE 3-A"
