5
Energy = -473.9507965700
S  0.868614814  0.013221617  0.566229566
C -0.633702957 -0.005354214  0.028915633
C -1.796640000 -0.182936000 -0.430360000
H  0.919904560  1.353674453  0.940404350
H -2.812804112 -0.311247614 -0.824538067

FREQUENCIES 9
265.0751
279.7794
676.6382
828.2606
921.1640
964.6882
1910.8492
2340.6944
3126.7085

SYMMETRY CS
ELECTRONIC_STATE 1-A'
