6
Energy = -872.6286877600
    S    1.058002   -1.190036   -0.809953
    S   -0.167352    1.834845   -0.068322
    C    0.967093    0.373096   -0.120740
    C    1.542228    1.355828    0.460270
    H    2.396009    1.822754    0.908880
    H   -0.264432   -1.430164   -0.800030

FREQUENCIES 12
121.2280
234.9820
317.6858
429.9788
622.9270
625.4805
763.3006
935.5766
985.0928
1798.2421
2658.3487
3311.8642

SYMMETRY C1
ELECTRONIC_STATE 1-A
