5
Energy = -474.8904147700
S -0.082679830  0.550848235 -0.302520568
C -1.487086199 -0.659411180 -0.329538553
C -0.404199071 -1.242917333 -0.644347331
H -2.544175718 -0.658945820 -0.148179035
H  0.153507524 -2.112573562 -0.932429160

FREQUENCIES 9
457.2361
592.1671
666.8919
773.8868
907.9096
941.0304
1749.8259
3275.1298
3330.4821

SYMMETRY C2V
ELECTRONIC_STATE 1-A1
