5
Energy = -474.8148813600
S  0.017204523  0.042071750  0.928511178
C  0.091073140  0.620633763 -0.667713908
C -1.259926085  0.214875054 -0.576542995
H -2.057319801  0.923171260 -0.358326549
H -1.593201591 -0.753896053 -0.944712316

FREQUENCIES 9
403.3509
694.8112
851.9607
1011.6567
1052.2999
1231.5418
1487.2893
3045.3106
3116.8043

SYMMETRY CS
ELECTRONIC_STATE 3-A"
