5
Energy = -474.7759307600
S -0.042738000  0.558383000 -0.414413000
C  0.971829000  0.711910000  0.818168000
C -1.282848359 -0.461119543 -0.737997335
H -1.771376263 -0.289885121 -1.680154834
H -1.563482425 -1.231916367 -0.043143141

FREQUENCIES 9
169.0508
173.6100
454.7013
884.0383
914.0888
1068.3038
1377.2040
3179.1167
3320.0243

SYMMETRY CS
ELECTRONIC_STATE 1-A'
