6
Energy = -872.5956432100
    S    0.449998    0.275760   -0.384895
    S   -1.082554   -0.302151    0.952714
    C    1.664575   -1.020448   -0.451938
    C    2.208609   -0.252790    0.447365
    H    1.682014   -1.911681   -1.051433
    H   -1.718856   -1.112510    0.087959

FREQUENCIES 12
189.7108
222.4618
256.8781
383.1749
444.5395
661.6824
700.6609
839.0817
971.9425
1629.6445
2660.0509
3281.6127

SYMMETRY C1
ELECTRONIC_STATE 1-A
