6
Energy = -872.5927056200
    S    2.242771    0.640401    1.152407
    S   -1.268722   -1.189314   -0.305684
    C    1.142044   -0.287453    0.501761
    C    0.347221   -1.113603   -0.037921
    H   -1.426329   -2.254510   -1.138489
    H   -1.857875   -1.918760    0.708956

FREQUENCIES 12
57.8572
102.1167
437.6770
460.5180
610.3281
888.1040
941.9528
1104.6701
1239.7624
1947.5201
2303.9428
2485.5898

SYMMETRY C1
ELECTRONIC_STATE 1-A
