5
Energy = -474.7823863700
S -0.355586000 -0.807509000 -1.258992000
C -1.496595000  0.020920000 -0.272191000
C -2.123081195 -0.685873743  0.743392467
H -1.657453414  1.073785074 -0.514839761
H  0.006815750  0.197083841 -2.089437838

FREQUENCIES 9
315.6555
347.2333
712.1786
762.4837
906.6186
1159.9816
1298.7504
2587.9567
3030.8948

SYMMETRY CS
ELECTRONIC_STATE 3-A"
