6
Energy = -872.3781414200
S  1.067324000 -1.018291000 -0.281649000
S -1.101919000  2.295127000  0.594838000
C  0.087739646  1.422383207  0.250969352
C  1.162869475  0.666650564 -0.055015446
H  2.119064997  1.171591845 -0.156629461
H  2.376136547 -1.199280088 -0.547081406

FREQUENCIES 12
152.8511
288.2533
442.9575
487.4890
715.6070
759.6317
959.7376
1041.7255
1253.1422
1716.0721
2659.5408
3142.6265

SYMMETRY CS
ELECTRONIC_STATE 2-A"
