6
Energy = -872.6736351100
    S    1.413601   -1.006904    0.170334
    S   -1.193892    2.062507    0.212586
    C    0.194203    1.367796    0.184027
    C    1.359615    0.771172    0.164865
    H    2.278563    1.340227    0.215200
    H    1.659227   -1.196698   -1.141032

FREQUENCIES 12
127.2625
154.9138
426.6947
475.8647
621.7210
740.9295
902.6588
952.0827
1196.5066
1797.4788
2617.0116
3162.0986

SYMMETRY C1
ELECTRONIC_STATE 1-A
