5
Energy = -473.9283213600
    S    0.907791    0.006065    0.578257
    C   -0.622221   -0.019387    0.029130
    C   -1.805269   -0.181801   -0.433201
    H    0.888850    1.362617    0.933084
    H   -2.824201   -0.300450   -0.825423

FREQUENCIES 9
298.3483
318.1182
642.9742
708.1271
735.9146
798.9670
1725.2534
2239.2952
3104.9347

SYMMETRY C1
ELECTRONIC_STATE 3-A
