6
Energy = -871.8029865200
    S    1.520553   -1.036605    0.189638
    S   -1.172065    2.166245    0.224770
    C    0.114097    1.375946    0.186320
    C    1.308121    0.735139    0.160625
    H    2.244786    1.309073    0.209960
    H    1.695826   -1.211696   -1.165334

FREQUENCIES 12
148.3913
256.8895
400.7290
435.6691
620.7289
652.2811
874.3351
942.6528
1185.9252
1530.6461
2446.4072
3002.9759

SYMMETRY C1
ELECTRONIC_STATE 3-A
