6
Energy = -872.1372957700
    S    0.434138    0.637780   -0.086097
    S   -1.305133   -0.413430   -0.123530
    C    1.769284   -0.487615    0.030417
    C    2.979056    0.037314    0.063753
    H    1.567559   -1.557445    0.070816
    H   -0.766190   -1.650928   -0.048665

FREQUENCIES 12
103.8875
184.7094
191.6995
386.0279
544.9967
683.6847
699.5486
876.9980
1189.9789
1448.1474
2619.0129
3084.2171

SYMMETRY C1
ELECTRONIC_STATE 4-A
