5
Energy = -474.4483277200
S -0.350911000 -0.828924000 -1.255892000
C -1.472250000  0.006041000 -0.294287000
C -2.109669480 -0.645597999  0.711463471
H -1.673970848  1.059734151 -0.489613835
H -0.018999390  0.207187841 -2.063650821

FREQUENCIES 9
391.1614
478.2519
818.3327
818.5560
981.2524
1235.1309
1337.5027
2607.3891
3087.9127

SYMMETRY CS
ELECTRONIC_STATE 4-A"
