6
Energy = -871.7776909700
S  0.479750000  0.814759000 -0.156334000
S -1.396762000  0.450287000 -0.742709000
C  2.170735880 -1.406534691  0.278373368
C  1.317825017 -0.549585451  0.049432118
H  2.907815765 -2.178528444  0.475068146
H -1.351444529 -0.917384860 -0.779128989

FREQUENCIES 12
157.0595
234.9835
375.5953
482.3147
550.9227
771.6628
812.3074
855.7792
882.2626
2022.0805
2513.8882
3248.3206

SYMMETRY CS
ELECTRONIC_STATE 1-A'
