6
Energy = -872.6518157600
    S    0.363246    0.738282    0.099613
    S   -1.111008    0.127562   -1.245100
    C    2.289300   -1.407368    0.218794
    C    1.457738   -0.539882    0.133027
    H    3.020740   -2.174148    0.287444
    H   -1.892384   -0.531470   -0.368136

FREQUENCIES 12
146.2687
272.8660
392.3017
396.3490
484.8483
574.7492
704.4370
733.3117
867.9327
2126.5207
2638.9571
3459.2548

SYMMETRY C1
ELECTRONIC_STATE 1-A
