6
Energy = -871.6420061900
S -0.008813000 -0.343169000  0.290457000
S -1.611962000  0.185825000 -0.469602000
C  1.269962614 -1.218069827 -0.367902725
C  2.407288932 -1.538185068  0.325346300
H  1.207695546 -1.562446971 -1.416307226
H  0.288547903 -0.023985287  1.596570316

FREQUENCIES 12
122.1840
183.7333
295.7837
429.6131
658.7365
659.8078
839.4278
932.1001
1063.8850
1455.0732
2411.5716
2967.0012

SYMMETRY CS
ELECTRONIC_STATE 1-A'
