5
Energy = -474.9441548700
S -0.556674541 -0.510779642  0.189614863
C  0.737635936  0.281537688 -0.153717960
C  1.824185263  0.943610403 -0.440945080
H  2.796200000  0.476654000 -0.354014000
H  1.774361936  1.972467443 -0.771648123

FREQUENCIES 9
365.4987
425.4625
722.2270
862.0669
933.3656
1379.3689
1814.4879
3139.3298
3216.8367

SYMMETRY CS
ELECTRONIC_STATE 1-A'
