5
Energy = -834.6734152500
    S   -1.716682   -0.531666   -0.164029
    S    0.517907    1.481024    0.211787
    C   -0.279552    0.126724   -0.517998
    H   -0.437851    1.761615    1.117203
    H    0.346261   -0.273234   -1.314985

FREQUENCIES 9
324.2740
439.7853
683.6005
853.4426
945.4526
1071.0632
1319.1434
2644.6796
3083.1379

SYMMETRY C1
ELECTRONIC_STATE 1-A
