4
Energy = -435.8724228100
S  0.913163872  0.027807291  0.178794303
C -0.527046657  1.005071890 -0.203905141
H -1.103893508  1.466577559  0.627506522
H -0.824212492  1.136633441 -1.267563522

FREQUENCIES 6
680.5345
808.4434
1040.8953
1323.0718
2855.5466
2986.9166

SYMMETRY C2V
ELECTRONIC_STATE 3-A2
