5
Energy = -834.6124355500
S -1.319371698 -0.057431371  0.746394251
S  0.751589913  0.250976966 -1.147782923
C -0.190946462  0.988708566  0.046148874
H -1.862085891  0.825873797  1.607147653
H  1.498405557  1.326319374 -1.466480638

FREQUENCIES 9
282.3583
489.9993
547.4580
652.9893
847.0462
1019.5568
1102.1268
2618.1926
2620.6023

SYMMETRY C2V
ELECTRONIC_STATE 1-A1
