5
Energy = -833.7064528400
S -1.651550000  0.734823000  0.360045000
S  1.377334000  0.622486000 -0.616770000
C -0.029475206  0.575245732  0.215459869
H -1.745465140  0.394303782  1.700136970
H  0.926812610  1.007375434 -1.873339399

FREQUENCIES 9
177.2814
309.8744
550.3240
616.5257
872.3564
903.8079
991.9811
2334.1917
2366.6773

SYMMETRY CS
ELECTRONIC_STATE 3-A"
