4
Energy = -436.8530247000
S -0.103116733  0.368777895 -0.170429135
C -1.663875322  0.864308269  0.024759658
H -2.075039000  0.833128000 -0.997937000
H  0.341128317  0.428901140  1.110121410

FREQUENCIES 6
882.7082
946.7129
984.4940
1168.4565
2543.7654
2986.3007

SYMMETRY CS
ELECTRONIC_STATE 1-A'
