5
Energy = -834.2178819700
    S   -1.013769    0.192381    0.438527
    S    0.840756   -0.640264    0.102312
    C    0.506478   -1.629295   -1.261815
    H    0.272496   -2.690463   -1.293017
    H   -0.664644    0.739312    1.630860

FREQUENCIES 9
218.8339
343.1781
440.7491
500.6414
776.5271
852.5875
880.4784
2591.9580
3149.6381

SYMMETRY C1
ELECTRONIC_STATE 4-A
