4
Energy = -436.4286342900
    S    0.107101   -0.111867    0.289263
    C   -1.450226    0.458763   -0.359397
    H   -2.244076    0.869529    0.263581
    H    0.869717    1.010269    0.098319

FREQUENCIES 6
470.6218
687.8369
858.2799
880.0408
2480.3945
3126.8697

SYMMETRY C1
ELECTRONIC_STATE 4-A
