5
Energy = -833.6532028500
S -1.143119845  0.115012769  0.437146674
S  0.943473249 -0.263290398  0.716155839
C  0.187434756  1.459696979  0.508066653
H  1.464582791 -0.234788169 -0.566834468
H -1.277516797  0.262359532 -0.933494800

FREQUENCIES 9
424.6010
446.7740
549.2343
560.5651
704.6807
775.1031
871.3382
2369.6399
2393.8950

SYMMETRY CS
ELECTRONIC_STATE 1-A'
