4
Energy = -435.8049117400
S -0.910548731 -1.233053964  0.231217608
C -1.526270462  0.455897510  0.016815642
H -0.095966139 -1.132922598 -0.918453093
H  0.016098075 -0.821287664  1.214623944

FREQUENCIES 6
504.8294
610.5552
672.3008
1017.0287
2169.9881
2178.9633

SYMMETRY CS
ELECTRONIC_STATE 1-A'
