5
Energy = -834.5661739300
    S   -0.997761    0.897983    0.947889
    S    1.143656   -0.275552   -1.039289
    C    0.384540    0.827126   -0.014282
    H   -0.811767   -0.181473    1.753646
    H    0.145928   -0.538555   -1.924922

FREQUENCIES 9
184.5677
259.8865
345.8536
559.0653
917.7945
918.0460
1060.6860
2495.4996
2496.5806

SYMMETRY C1
ELECTRONIC_STATE 3-A
