5
Energy = -833.7114538200
S -1.480634391 -0.000391125  1.336968302
S  0.229442312 -1.276264735 -0.891620074
C -0.306347326 -0.156363539  0.191719156
H -1.153243139  1.285610081  1.728599284
H  1.258804565 -0.513998092 -1.414804438

FREQUENCIES 9
227.7168
346.3299
602.5481
603.6301
821.3243
936.3881
976.9779
2379.4362
2392.4543

SYMMETRY C2V
ELECTRONIC_STATE 3-A2
