4
Energy = -436.3912060400
S -0.193202170 -0.380548361  0.061185554
C -1.769375974  0.258255182  0.076257788
H -0.345318385 -1.449749830 -0.780777662
H -0.208795495 -1.159334804  1.187454485

FREQUENCIES 6
792.2496
894.6645
904.5263
1153.0686
2462.6617
2469.5912

SYMMETRY CS
ELECTRONIC_STATE 4-A"
