5
Energy = -834.2475108200
    S   -0.930100    1.359409    0.033106
    S    1.856666    0.723357   -0.486239
    C    0.202819    0.335777   -0.797196
    H   -1.663364    0.404807    0.658113
    H   -0.006052   -0.731325   -0.841391

FREQUENCIES 9
217.4590
249.0466
515.6315
690.4392
866.7382
923.3415
1129.6378
2587.3142
3105.1634

SYMMETRY C1
ELECTRONIC_STATE 4-A
