5
Energy = -833.6549978500
S -1.337104528 -0.045958446  0.547349151
S  0.602390377 -0.767583839  0.016169274
C  0.039944583  1.044761206 -0.203016514
H -0.995609262  0.248400293  1.856745353
H  0.238677093 -1.141122641 -1.266782756

FREQUENCIES 9
388.5528
461.1266
556.4800
582.0580
646.2829
747.0071
943.3435
2376.9921
2391.8890

SYMMETRY C2
ELECTRONIC_STATE 1-A
