4
Energy = -436.5858336200
S  0.802453985  0.096750320  0.150435712
C -0.477350959  0.971817481 -0.190784233
H -1.068301886  1.442685939  0.600583162
H -0.798806114  1.124807061 -1.225416162

FREQUENCIES 6
775.8904
1007.0143
1070.5844
1372.0160
3018.6723
3115.6932

SYMMETRY C2V
ELECTRONIC_STATE 2-B2
