5
Energy = -833.7562585800
    S   -1.032893    1.423699    0.443260
    S    1.872398    0.832868    0.195080
    C    0.280297    0.558806   -0.219464
    H   -2.019020    0.770741   -0.253398
    H    0.098311   -0.232067   -0.964178

FREQUENCIES 9
265.3275
390.5837
707.2953
737.6698
798.7874
988.3745
1192.7319
2487.9853
2989.3196

SYMMETRY C1
ELECTRONIC_STATE 3-A
