5
Energy = -834.6128334300
S -1.471805000  0.924076000  0.338611000
S  1.039468000 -0.342518000 -0.292335000
C  0.183273155  0.881984107  0.474030539
H  2.284366759  0.017149116  0.081666528
H -1.860457622 -0.141552401 -0.441139000

FREQUENCIES 9
264.9483
518.1334
564.7474
641.8322
925.7526
985.0116
1074.2491
2383.3559
2614.0559

SYMMETRY CS
ELECTRONIC_STATE 1-A'
