5
Energy = -834.3095743900
    S   -1.717865    0.998310    0.473933
    S    1.163717    0.261212   -0.629359
    C   -0.310502    0.840707   -0.298038
    H   -1.554855    0.055526    1.452486
    H    1.426016    1.046919   -1.710682

FREQUENCIES 9
154.9421
199.4043
385.2081
577.7413
910.8741
927.7685
1302.0917
2463.0574
2523.7131

SYMMETRY C1
ELECTRONIC_STATE 2-A
