5
Energy = -834.6009987800
    S   -0.500253    0.841497    0.781190
    S    0.832025   -0.382930   -0.580670
    C    0.581354   -1.888755   -0.827527
    H   -0.183485   -2.551783   -0.441566
    H   -1.302769   -0.192474    1.081420

FREQUENCIES 9
152.4069
228.9743
349.8120
672.7762
736.7774
780.7643
1183.1462
2682.2511
3185.9219

SYMMETRY C1
ELECTRONIC_STATE 1-A
