4
Energy = -436.5330033800
S  0.022608000  0.030236000  0.107292000
C -1.363582000 -0.582837000 -0.305190000
H -2.094903710 -1.382804971 -0.282336760
H  0.526820710 -0.991006029  0.885210760

FREQUENCIES 6
485.2891
803.7359
942.1294
1111.4989
2385.1740
3213.6118

SYMMETRY CS
ELECTRONIC_STATE 2-A'
