5
Energy = -834.2502191000
    S   -1.471832   -0.046210    0.610613
    S    0.911669    1.617977    0.481745
    C   -0.250503    0.683138   -0.388749
    H   -1.978676    1.076562    1.178068
    H    0.181413   -0.014188   -1.106762

FREQUENCIES 9
214.7082
336.9012
604.8493
692.6080
859.4842
929.7708
1178.9802
2586.7404
3092.2945

SYMMETRY C1
ELECTRONIC_STATE 4-A
