4
Energy = -435.8108610600
S  0.117829000  0.079437000  0.131961000
C -1.446800000 -0.552423000 -0.363858000
H -2.120933811 -1.438419813 -0.267723579
H  0.540846811 -1.015007187  0.904597579

FREQUENCIES 6
428.8663
609.4665
738.6708
916.5562
2249.8556
2899.1253

SYMMETRY CS
ELECTRONIC_STATE 3-A"
