4
Energy = -436.7355487700
S -0.229167243 -0.398589033  0.075977661
C -1.848006951  0.374469275  0.052688841
H -0.269506704 -1.486770008 -0.753742373
H -0.170008089 -1.220482230  1.169226127

FREQUENCIES 6
516.7202
587.7535
699.1491
1171.9705
2388.2389
2402.2760

SYMMETRY CS
ELECTRONIC_STATE 3-A"
