5
Energy = -834.3446850700
S -0.838661000 -0.139228000  0.638830000
S  1.944639000  0.437263000 -0.288084000
C  0.338414133  0.756982047 -0.165475608
H -1.868823297  0.675917208  0.331901216
H  0.021953707  1.669045222 -0.677913925

FREQUENCIES 9
285.2669
450.8127
735.3518
804.5781
957.1340
1052.1708
1228.6231
2644.6237
3067.0067

SYMMETRY CS
ELECTRONIC_STATE 2-A'
