5
Energy = -834.5930703600
S -1.060910000  0.056725000  0.050275000
S  0.538214000 -0.474383000 -1.271719000
C  1.788799307 -0.899159191 -0.366997359
H  2.601275680 -1.168925777 -1.054422106
H -0.324947361 -0.196005929  1.148754415

FREQUENCIES 9
210.4914
294.0558
393.7137
754.4973
788.4674
832.6233
1023.9540
2654.1822
3040.5766

SYMMETRY CS
ELECTRONIC_STATE 1-A'
