4
Energy = -436.5365379100
S  0.024644959  0.332347214 -0.160067483
C -1.489824665  0.782679823 -0.171542175
H -2.297563000  0.916657000 -0.884578000
H  0.261799279  0.463298274  1.182721556

FREQUENCIES 6
663.1201
849.2893
936.0497
1115.2393
2473.0232
3197.2978

SYMMETRY CS
ELECTRONIC_STATE 2-A'
