5
Energy = -833.6773620500
    S   -0.880619   -0.261993    0.169561
    S    1.038829    0.179249   -0.631221
    C    0.301190   -1.468599   -0.304440
    H    0.156551   -2.304558   -0.998255
    H   -0.536469   -0.008554    1.499069

FREQUENCIES 9
422.9860
501.6224
612.4385
636.1001
709.3886
830.4377
984.6375
2270.2556
3080.4921

SYMMETRY C1
ELECTRONIC_STATE 3-A
