5
Energy = -834.2043234700
S -1.104478364  0.170543645  0.398591577
S  0.937555526 -0.199730438  0.671637684
C  0.179679987  1.555261644  0.696014072
H  1.292327012 -0.313177911 -0.640638821
H -1.130145061  0.126079552 -0.964554389

FREQUENCIES 9
330.4530
498.3906
510.6072
544.0605
606.7795
838.9410
859.3511
2506.4590
2511.2215

SYMMETRY CS
ELECTRONIC_STATE 2-A'
