5
Energy = -833.7731606500
    S   -0.785993   -0.247443    0.196737
    S    1.312030    0.330786    0.425265
    C    0.273300    1.000058   -0.580745
    H   -1.349398    0.558996    1.162758
    H    0.147640    1.757759   -1.364479

FREQUENCIES 9
430.6401
631.5099
713.6652
834.0693
948.2878
982.1966
1139.5057
2436.6077
3083.4947

SYMMETRY C1
ELECTRONIC_STATE 1-A
