4
Energy = -435.9067068500
S  0.142641000 -0.319816000  0.188186000
C -1.187551000  0.439166000  0.079217000
H -2.152513644  0.997069252 -0.000692421
H  0.479938644  1.110274748  0.025054421

FREQUENCIES 6
143.9116
776.5809
915.1460
1258.3825
1879.2989
2925.1718

SYMMETRY CS
ELECTRONIC_STATE 1-A'
