5
Energy = -834.2808634100
    S   -0.472912    0.855912    0.756408
    S    0.792183   -0.308953   -0.556538
    C    0.409409   -1.784682   -0.670738
    H   -0.011126   -2.776681   -0.621631
    H   -1.290681   -0.160043    1.105346

FREQUENCIES 9
181.3597
226.7342
334.0016
419.3571
697.9403
798.3676
1186.7942
2645.4264
3275.1176

SYMMETRY C1
ELECTRONIC_STATE 2-A
