4
Energy = -435.8964330500
S  0.818482864  0.084643140  0.154915256
C -0.416908637  0.930487293 -0.174670349
H -1.105406729  1.467996112  0.582410477
H -0.838232271  1.152847888 -1.227836477

FREQUENCIES 6
120.0420
814.1664
942.9422
1175.4199
2447.0990
2515.8502

SYMMETRY C2V
ELECTRONIC_STATE 1-A1
