5
Energy = -834.5673386200
    S   -0.833986   -0.293185    0.145917
    S    0.978405    0.126133   -0.699085
    C    0.459332   -1.602714   -0.122684
    H    0.057769   -2.066597   -1.037995
    H   -0.582039   -0.028093    1.448562

FREQUENCIES 9
397.5489
499.4648
628.1250
705.2701
886.6596
1061.4742
1115.6065
2576.7807
2961.4830

SYMMETRY C1
ELECTRONIC_STATE 1-A
