5
Energy = -833.7545137000
S -1.250673000 -0.674883000  0.724363000
S  1.516572000 -0.448708000 -0.508506000
C  0.004026823 -1.119387899 -0.343927256
H -0.244147218 -1.967264423 -1.003826633
H -0.644175658  0.366891214  1.377869711

FREQUENCIES 9
259.4265
386.8389
679.5297
767.6319
844.2018
965.8535
1243.8513
2499.5214
2981.9801

SYMMETRY CS
ELECTRONIC_STATE 3-A"
