3
Energy = -397.7635675500
S -0.633617000  0.083753000 -0.000000000
H -1.341063324 -1.201580930  0.000000000
H -1.148639676  1.457548930 -0.000000000

FREQUENCIES 3
811.2285
1742.4846
1841.1800

SYMMETRY C2V
ELECTRONIC_STATE 3-B1
