3
Energy = -397.7362283500
S  0.294035000 -0.107887000  0.000000000
H -1.391092480 -0.029678628 -0.000000000
H -1.067844520  0.887630628 -0.000000000

FREQUENCIES 3
825.6675
1106.8836
2176.7302

SYMMETRY C2V
ELECTRONIC_STATE 3-A2
