3
Energy = -398.5471862700
S -0.131498000  0.042744000 -0.000000000
H -1.344141339 -0.578588232  0.000000000
H -0.689261661  1.285908232  0.000000000

FREQUENCIES 3
1186.6393
2570.0136
2571.8546

SYMMETRY C2V
ELECTRONIC_STATE 2-B1
