4
Energy = -795.6734417800
S -1.517886412 -0.143935649  0.772925530
S  0.130881412 -0.100757351 -0.073041530
H  0.911217247 -1.232037539 -0.301253854
H  0.723708753  1.066483539 -0.549386146

FREQUENCIES 6
409.9592
689.6435
708.0748
1129.9026
2279.4841
2334.8640

SYMMETRY C2V
ELECTRONIC_STATE 1-A1
