4
Energy = -796.2949735900
S -0.631341251 -0.444189529 -0.552571975
S  1.376595320 -0.274131414 -0.669086213
H -0.850810173 -1.623751250  0.085179563
H -0.995882033  0.359882406  0.480306444

FREQUENCIES 6
460.6012
739.9190
786.0174
1206.4540
2550.6700
2563.7924

SYMMETRY CS
ELECTRONIC_STATE 2-A'
