4
Energy = -795.6795804100
S -0.957234948 -0.315564167 -0.493688111
S  1.027279948  0.498387167 -0.457976889
H  0.758834944  1.430454596  0.537772563
H -0.687931944 -1.333240596  0.414133437

FREQUENCIES 6
391.5107
464.2646
755.2028
771.3920
2352.8739
2369.6220

SYMMETRY C2
ELECTRONIC_STATE 3-B
