4
Energy = -796.5717661400
S -1.193934182 -0.298939091 -0.016268530
S  1.264413818  0.438960909  0.016374470
H  0.795153818  1.695382909  0.072941970
H -0.724674182 -1.555361091 -0.072836030

FREQUENCIES 6
273.1979
397.2018
448.4319
599.0851
2691.0757
2691.8753

SYMMETRY C2H
ELECTRONIC_STATE 3-AU
