4
Energy = -795.6933340000
S -0.699234425 -0.260872753 -0.021991179
S  1.402017819  0.210530655 -0.098431579
H -0.931728251  0.298360491  1.221214298
H -0.543754362 -1.560004355  0.425711950

FREQUENCIES 6
393.0701
730.6843
757.2013
1104.7596
2394.6469
2400.8274

SYMMETRY CS
ELECTRONIC_STATE 3-A"
