4
Energy = -796.6551338900
S -1.181758139  0.118293218  0.125088752
S  0.817432139 -0.414865218 -0.017937752
H -1.156453268  0.664371549  1.356028228
H  0.729073268 -1.661979549  0.483013772

FREQUENCIES 6
437.7040
499.1123
891.0903
891.6722
2624.8513
2626.8515

SYMMETRY C2
ELECTRONIC_STATE 1-A
