4
Energy = -796.5697824400
S -1.168552297  0.708991396  0.144362337
S  0.817970297 -0.852523396 -0.415379337
H -1.207215682  0.200240344  1.386613153
H  0.766092682 -1.350887344  0.830594847

FREQUENCIES 6
272.8442
349.8147
432.3814
464.8193
2686.8756
2695.9111

SYMMETRY C2V
ELECTRONIC_STATE 3-B1
