7
Energy = -873.2754635000
    S   -1.885219    0.715573    1.386717
    S    1.875587    0.091888   -0.698860
    C    0.592225    0.242122    0.447217
    C   -0.708476    0.600036    0.191066
    H    0.899633    0.019197    1.461231
    H   -0.983003    0.817788   -0.839256
    H    1.174596    0.424356   -1.797743

FREQUENCIES 15
162.8567
236.1169
362.0606
366.9022
783.7974
824.2857
903.4298
915.1333
983.6994
1240.5085
1296.0461
1432.7770
2662.5246
3087.6814
3175.2105

SYMMETRY C1
ELECTRONIC_STATE 2-A
