6
Energy = -475.1557486500
S -0.408581000 -0.239780000  1.222648000
C  1.419696000  0.631642000 -0.814537000
C  0.892884966  0.085627185  0.307781935
H  0.796078546  1.127292953 -1.558852406
H  2.489496736  0.587442371 -1.000810846
H -1.400163876  0.317989452  0.457245027

FREQUENCIES 12
227.6395
359.9280
653.9821
749.9252
879.9412
955.1234
1022.1017
1412.4342
1492.9113
2448.1430
3067.7897
3174.5628

SYMMETRY CS
ELECTRONIC_STATE 3-A"
