6
Energy = -475.4922077800
    S   -0.983039   -0.259951   -0.305876
    C    1.525873   -0.304612    0.938279
    C    0.675683   -0.016707   -0.018765
    H    2.510911    0.147144    0.967793
    H    1.292892   -1.014981    1.730264
    H   -0.890484   -0.634483   -1.595481

FREQUENCIES 12
275.9797
309.6505
561.4881
708.8193
903.0225
958.5912
1015.1307
1409.5346
1670.1690
2640.5781
3063.2810
3158.2929

SYMMETRY C1
ELECTRONIC_STATE 2-A
