7
Energy = -872.8869806000
S -0.886758000 -0.765396000  0.103771000
S  1.280972000  1.213758000  0.266595000
C  0.394557931  0.079125471 -0.624612031
C -1.544719399 -1.771705571 -0.973704566
H  0.634704498 -0.117622386 -1.661034458
H -1.548886280 -2.170982225 -1.976436679
H  2.111814395  1.550887809 -0.739227699

FREQUENCIES 15
127.9184
202.0299
323.1950
341.4074
370.0877
590.0818
741.5124
750.7654
925.0895
948.7908
1031.5636
1250.1771
2656.4572
3185.5792
3242.9139

SYMMETRY CS
ELECTRONIC_STATE 3-A"
