7
Energy = -872.9029309000
    S   -1.635068    0.208228   -0.894535
    S    1.574934   -0.329854   -0.041503
    C   -0.052273    0.183415    0.086923
    C   -0.880897    1.087852    0.475411
    H    2.135781    0.332051    1.002774
    H   -1.083430    1.943546    1.099153
    H    1.547828   -1.530581    0.609468

FREQUENCIES 15
128.4233
160.1838
216.1909
406.1581
594.9451
742.1766
823.6381
899.2899
916.2675
998.0680
1172.6127
1751.7390
2474.8510
2577.2482
3260.0915

SYMMETRY C1
ELECTRONIC_STATE 1-A
