6
Energy = -475.3883527400
    S   -0.210361   -0.060564    1.223735
    C    1.434377    0.541038   -0.960264
    C    0.585999   -0.407906   -0.236064
    H    0.971693    1.283657   -1.604514
    H    2.424178    0.776580   -0.581132
    H   -1.416419    0.377807    0.771933

FREQUENCIES 12
314.7415
339.7086
442.6137
606.6511
732.5570
873.4658
968.0776
1148.5393
1415.3023
2488.9709
3071.6109
3164.1709

SYMMETRY C1
ELECTRONIC_STATE 4-A
