6
Energy = -475.2326139900
S -0.414267541  0.286395970  1.301711664
C  1.418864119  0.688150294 -0.873983745
C  0.558507129  0.467304055  0.050318331
H  1.320234844  1.546031757 -1.537965723
H  2.261559264  0.015209383 -1.027527964
H -1.355383753 -0.492555365  0.701167415

FREQUENCIES 12
297.8179
339.2682
739.2266
802.6676
870.0726
931.6397
999.3444
1339.4354
1837.6131
2553.0551
3083.1186
3159.8606

SYMMETRY CS
ELECTRONIC_STATE 1-A'
