6
Energy = -474.6000090800
    S   -0.315526    0.060039    1.371026
    C    1.429212    0.679089   -0.886932
    C    0.565694    0.385980    0.088380
    H    1.176467    1.408429   -1.682247
    H    2.423058    0.188989   -0.937908
    H   -1.489438   -0.211915    0.661373

FREQUENCIES 12
296.1681
326.3840
443.3025
754.0236
769.6052
901.0806
961.7074
1286.3080
1475.9289
2278.3086
2891.2670
2971.6290

SYMMETRY C1
ELECTRONIC_STATE 2-A
