7
Energy = -873.0833611800
    S   -0.327811   -1.388208    0.029227
    S    1.422185    1.005885    0.277508
    C   -0.311347    0.451172    0.113529
    C   -1.224357    0.984184    1.175877
    H    1.676669    0.338821    1.415965
    H   -0.634354    0.853500   -0.848301
    H   -1.667075   -1.517625    0.041444

FREQUENCIES 15
215.6769
255.8239
283.3895
340.8792
410.8212
568.9141
672.9185
820.3772
909.3941
958.5838
1154.5390
1213.7379
2647.6126
2670.0400
3033.3327

SYMMETRY C1
ELECTRONIC_STATE 4-A
