7
Energy = -873.1337444200
    S   -0.907949   -0.000250    0.472945
    S    1.910436   -0.570111   -0.605617
    C    0.843206    0.064920    0.589406
    C   -1.457890    1.581008    0.329953
    H    1.305889    0.372476    1.515842
    H   -1.744362    2.149464   -0.549502
    H    1.016013   -0.686549   -1.602654

FREQUENCIES 15
62.3494
167.0827
260.2331
286.2223
415.0498
450.9329
638.2144
834.5678
843.8742
886.4739
956.6179
1229.1288
2658.6896
3134.3036
3188.9180

SYMMETRY C1
ELECTRONIC_STATE 4-A
