7
Energy = -872.4705263600
    S   -1.999761    1.494611   -0.372236
    S    1.489677   -0.635086   -0.585204
    C    0.576837    0.466371    0.572796
    C   -0.694093    0.953946    0.065545
    H    0.415426   -0.092887    1.511699
    H    1.235798    1.319577    0.814151
    H    2.547252   -0.837923    0.257580

FREQUENCIES 15
151.6517
221.1294
342.5069
433.2259
646.4848
743.8652
771.1996
954.9009
1140.0674
1236.9749
1351.1678
1671.6556
2526.1479
2924.7375
2960.3428

SYMMETRY C1
ELECTRONIC_STATE 2-A
