7
Energy = -873.2544224700
S -0.433191000  0.902755000  0.915979000
S  1.802016000 -0.855176000 -0.140650000
C  0.941501059 -0.139518674  1.042567921
C -0.770249354  1.078225190 -0.714108103
H  1.179203883 -0.268097314  2.095663144
H -1.607592737  1.703881300 -0.975050235
H -0.164437608  0.578992833 -1.455294717

FREQUENCIES 15
216.6432
224.8764
394.1137
418.6146
558.5219
717.7163
771.5444
846.7949
922.9188
1038.8083
1288.7778
1382.8926
3104.6096
3148.6778
3284.5998

SYMMETRY CS
ELECTRONIC_STATE 2-A"
