7
Energy = -872.8982114500
    S   -0.361979    0.583007   -0.753351
    S    1.343332    0.049576    0.362207
    C   -0.545731   -1.291661   -0.702203
    C   -0.429565   -0.729426    0.662767
    H    0.243532   -1.799129   -1.250532
    H   -1.557316   -1.588058   -0.969455
    H    1.243865    0.993745    1.330860

FREQUENCIES 15
308.6939
350.6945
456.8276
510.9132
595.0179
703.0512
883.8145
945.3673
1013.9297
1058.3567
1123.6958
1476.5685
2597.0777
3082.7088
3177.2790

SYMMETRY C1
ELECTRONIC_STATE 1-A
