7
Energy = -872.9998561900
    S   -2.126237   -0.104314   -0.576759
    S    1.657015    0.429061   -0.536332
    C    0.306232    1.028510    0.572354
    C   -0.890957    0.482261    0.027839
    H    0.445941    0.737592    1.616197
    H    0.280063    2.121334    0.517316
    H    1.749144   -0.793858    0.016964

FREQUENCIES 15
143.4363
240.3842
361.1628
428.1726
672.6003
751.4112
788.4498
986.5503
1152.9555
1197.2033
1390.0362
1644.3735
2664.9720
3027.1432
3077.8997

SYMMETRY C1
ELECTRONIC_STATE 1-A
