7
Energy = -873.1779929600
    S   -0.824044   -1.885557    0.536278
    S    0.471771    0.740218   -0.506805
    C    0.113052   -0.415510    0.977230
    C    0.157246    2.256467   -0.047326
    H    1.075999   -0.655560    1.416491
    H   -0.480853    0.172999    1.669604
    H    0.180809   -2.556043   -0.050111

FREQUENCIES 15
38.4168
193.6995
238.0699
252.4575
484.6541
695.9169
730.2509
952.1314
973.3789
1146.3712
1191.0441
1425.2309
2668.7525
3086.9199
3162.8919

SYMMETRY C1
ELECTRONIC_STATE 2-A
