7
Energy = -872.8878133000
    S   -0.423755   -1.194216    0.470643
    S    1.009160    1.248671    0.844297
    C   -0.309493    0.509515   -0.173040
    C   -0.877714    0.639414    1.136671
    H    1.766582    0.143042    1.037770
    H   -0.532670    0.811887   -1.187953
    H   -1.698197   -1.430587    0.076862

FREQUENCIES 15
271.7486
358.7573
398.4236
516.6639
561.0047
681.9952
716.1856
928.6785
933.6277
998.0061
1053.2106
1176.9324
2597.1688
2605.7792
3192.0103

SYMMETRY C1
ELECTRONIC_STATE 1-A
