7
Energy = -872.9781713100
    S   -0.267781   -1.069722    0.783683
    S    1.373915   -0.062948   -0.142886
    C   -0.744503    0.636584    0.782954
    C    0.227519    1.287199    0.144596
    H   -1.650958    1.005039    1.242730
    H    0.437050    2.317374   -0.091924
    H    1.092598   -0.361057   -1.438872

FREQUENCIES 15
347.1072
455.3631
528.1372
674.2104
711.8098
752.9726
800.6528
857.0473
939.7354
1087.1327
1232.1342
1584.3935
2564.0278
3211.5391
3252.5992

SYMMETRY C1
ELECTRONIC_STATE 1-A
