7
Energy = -873.2175491500
    S   -0.271886   -0.560388   -0.400309
    S    1.757553   -0.896992   -0.602530
    C   -0.364442    0.767575    0.819214
    C   -1.211289    1.742064    0.675003
    H    0.287707    0.644055    1.676483
    H   -1.948367    2.104964   -0.019764
    H    2.031821    0.030180   -1.541806

FREQUENCIES 15
71.8130
191.4948
315.6240
346.0957
492.9266
627.0249
673.5568
818.2478
849.0915
872.0147
1186.3075
1604.4515
2618.3704
3140.0140
3266.0910

SYMMETRY C1
ELECTRONIC_STATE 2-A
