7
Energy = -872.8920785700
    S   -0.667587    0.457834   -0.409437
    S    1.993742   -0.918788   -0.309170
    C    0.872115    0.211929    0.235825
    C   -1.365043    1.650071    0.453618
    H    1.189906    0.820920    1.074144
    H   -2.324345    2.146179    0.418067
    H    1.266554   -1.457186   -1.312675

FREQUENCIES 15
138.6503
211.0860
351.3426
365.2211
412.5252
650.0791
783.4161
820.4720
901.8800
993.0681
1015.8094
1296.8066
2628.8818
3173.3217
3234.2868

SYMMETRY C1
ELECTRONIC_STATE 3-A
