6
Energy = -475.1596193900
S -0.909835000 -0.654314000 -0.358045000
C  1.534974000 -0.307573000  0.975467000
C  0.644825965 -0.243895642 -0.047533256
H  2.543567915  0.075263906  0.847012057
H  1.276794433 -0.736095668  1.943706565
H -0.958742933 -0.216219539 -1.644124554

FREQUENCIES 12
272.7410
379.7248
640.6639
773.0701
925.6767
963.3991
1009.7242
1401.2786
1481.8578
2555.2433
3072.6902
3179.2260

SYMMETRY CS
ELECTRONIC_STATE 3-A"
