7
Energy = -873.1725832300
    S   -2.241249   -0.655085    0.014851
    S    1.442543    0.234158    0.464043
    C    0.328519   -0.000675   -0.852945
    C   -0.731312   -0.971909   -0.721934
    H    0.428896    0.644399   -1.716531
    H   -0.624002   -1.996350   -1.076802
    H    2.218280    1.166798   -0.116136

FREQUENCIES 15
84.9341
210.9422
256.1609
310.6024
397.9866
413.9704
718.3127
786.7698
938.2002
1130.0366
1180.9830
1239.9291
2656.0988
3063.7675
3143.0873

SYMMETRY C1
ELECTRONIC_STATE 4-A
