7
Energy = -872.8962471100
    S   -0.590264    0.967934    1.016896
    S    1.622500   -0.681596   -0.331952
    C    0.759667   -0.042393    0.953984
    C   -1.036630    1.308402   -0.512761
    H    1.113901   -0.312327    1.943288
    H   -1.820316    1.897584   -0.966905
    H    0.899094   -0.135627   -1.333492

FREQUENCIES 15
185.4842
234.0158
394.5698
421.3548
422.2535
678.9568
724.2655
807.3371
899.4575
982.6274
1033.5720
1328.7999
2622.4286
3168.0777
3234.1833

SYMMETRY C1
ELECTRONIC_STATE 3-A
