7
Energy = -872.9030946300
S -0.656847000 -1.274717000 -0.222340000
S  0.311113000  1.419187000  0.619468000
C  0.423002720 -0.329930508  0.583639921
C -1.055325004  1.608659415 -0.310927392
H  1.252089680 -0.774992839  1.126829153
H -1.270252105  2.681568510 -0.389871349
H -0.054170167 -2.439889557  0.118131849

FREQUENCIES 15
163.2539
210.9763
449.0733
563.4901
621.0580
652.2664
826.9603
950.8520
990.3428
1013.2208
1034.1670
1287.0156
2600.7599
3071.9116
3156.6277

SYMMETRY CS
ELECTRONIC_STATE 1-A'
