7
Energy = -872.3205818000
    S   -0.941070   -0.560418   -0.019818
    S    1.773927    0.933112    0.127511
    C    0.601730   -0.108155   -0.696024
    C   -1.600584   -1.589008   -1.032102
    H    0.963558   -0.544703   -1.632895
    H   -1.794355   -2.243663   -1.880264
    H    1.441027    2.128020   -0.469919

FREQUENCIES 15
134.7759
181.7432
222.1036
328.6227
336.8420
594.0930
615.6435
653.9486
763.1219
880.9437
1038.9243
1146.7614
2445.0480
3048.8795
3169.1305

SYMMETRY C1
ELECTRONIC_STATE 4-A
