7
Energy = -872.9760510600
S -1.444613288 -1.370277136  1.463642363
S  1.758430873  0.409709308 -0.115938607
C  0.324665921 -0.452261365 -0.580164784
C -0.488153338 -0.872353273  0.388432013
H  2.736937795 -0.203499716 -0.828579838
H  0.117170053 -0.631490585 -1.626082662
H  1.743408444  1.500171450 -0.923419425

FREQUENCIES 15
153.6641
189.8558
442.5045
477.0691
585.0640
741.0872
851.6239
901.8151
984.8481
1218.1285
1256.9733
1773.4307
2560.8910
2569.9339
3185.1749

SYMMETRY CS
ELECTRONIC_STATE 1-A'
