7
Energy = -872.9655147100
    S   -2.199399    0.253845    0.993090
    S    1.678165    1.040076   -0.741856
    C   -0.588702    0.169252    0.554218
    C    0.056303    1.074338   -0.266391
    H   -0.054775   -0.682536    0.974626
    H   -0.485430    1.918000   -0.679388
    H    2.055483   -0.079013   -0.088544

FREQUENCIES 15
173.3110
220.3196
348.7379
445.0144
801.9701
810.0348
912.2220
922.0371
1000.4752
1250.8591
1288.8265
1480.3948
2641.1840
3096.2113
3165.6952

SYMMETRY C1
ELECTRONIC_STATE 3-A
