7
Energy = -872.9599291100
    S   -0.250414   -0.176802   -0.345245
    S    1.720305    0.199946   -0.963882
    C   -0.448388    0.613889    1.243890
    C   -0.892784    1.361798    0.296540
    H   -0.212869    0.406665    2.275950
    H   -1.319134    2.274779   -0.088450
    H    1.684381   -0.848817   -1.812511

FREQUENCIES 15
77.5885
224.2710
285.3624
462.0708
660.7273
685.2247
711.2549
839.4581
879.7901
943.8007
982.2308
1695.4359
2640.9391
3232.3616
3284.1171

SYMMETRY C1
ELECTRONIC_STATE 1-A
