7
Energy = -873.1534195700
    S   -0.697843   -1.352041    0.410441
    S    1.552503    0.921911    0.128599
    C   -0.189544    0.504522    0.109726
    C   -0.980873    0.356099    1.294771
    H    1.681999    0.851408    1.465400
    H   -0.627804    0.822386   -0.838122
    H   -1.804529   -1.376555   -0.365565

FREQUENCIES 15
158.2667
277.8116
312.4968
373.5624
415.5309
472.2268
637.1818
824.5549
932.0667
945.5527
1111.5910
1239.7884
2582.3975
2659.4236
3039.9072

SYMMETRY C1
ELECTRONIC_STATE 2-A
