7
Energy = -872.4277660900
    S   -0.340150   -1.026572    0.777161
    S    1.424519   -0.090272   -0.148695
    C   -0.764422    0.622345    0.828878
    C    0.239899    1.271406    0.143744
    H   -1.662833    1.020490    1.300058
    H    0.407784    2.306586   -0.148428
    H    1.163041   -0.351511   -1.472435

FREQUENCIES 15
246.4612
424.9551
518.3067
684.3461
721.8198
772.8779
842.7977
876.2174
931.3231
1077.6459
1245.0485
1371.4770
2464.8614
3134.4237
3156.1538

SYMMETRY C1
ELECTRONIC_STATE 2-A
