7
Energy = -873.1576519600
    S   -0.416135    0.463681   -0.376109
    S    1.705701    0.605716   -0.003105
    C   -0.668858   -1.348917   -0.661006
    C   -1.137094   -0.908348    0.642517
    H    0.278021   -1.884222   -0.762649
    H   -1.371039   -1.548061   -1.471024
    H    1.545542    0.838204    1.311669

FREQUENCIES 15
121.0824
200.9903
239.6084
313.8759
494.2728
550.2299
816.4024
841.5042
886.5979
1021.2472
1124.6146
1436.8424
2664.4794
3010.8224
3079.0306

SYMMETRY C1
ELECTRONIC_STATE 2-A
