7
Energy = -872.4285514700
    S   -1.764458    0.004267   -1.099426
    S    1.387407    0.321705    0.163719
    C   -0.245274   -0.259342   -0.234007
    C   -1.090254   -1.232061   -0.026398
    H    1.793003    0.634933   -1.104572
    H   -1.392198   -2.178526    0.416832
    H    1.057643    1.608305    0.491496

FREQUENCIES 15
74.9083
254.4764
295.8737
450.9530
676.8326
813.3531
854.2241
896.6780
927.2594
982.0773
1162.3687
1676.8392
2507.2179
2509.1186
3180.5568

SYMMETRY C1
ELECTRONIC_STATE 2-A
