7
Energy = -873.2129661900
    S   -0.695811   -1.321481   -0.391902
    S    1.694727    0.470618   -0.191343
    C   -0.036326    0.215697    0.221113
    C   -0.808112    1.081923    0.810780
    H    1.925096    1.464289    0.684344
    H   -0.811358    2.076531    1.216431
    H    0.338661   -2.092922   -0.011733

FREQUENCIES 15
182.1502
222.9136
258.9804
326.2269
423.2248
537.3363
591.6496
685.7008
817.3717
948.7087
967.8546
1616.6564
2656.4782
2660.4671
3282.9382

SYMMETRY C1
ELECTRONIC_STATE 2-A
