7
Energy = -872.9012820700
S -0.715869000  0.526022000 -0.423104000
S  1.925137000 -0.954371000 -0.161129000
C  0.781767508  0.108269105  0.356564303
C -1.273859719  1.630749460  0.706671376
H  0.967673480  0.621814454  1.299450723
H -2.244815159  1.986591907  0.328396297
H  1.322691214 -1.345380149 -1.311369165

FREQUENCIES 15
121.7352
215.3651
364.8245
496.6401
642.4403
737.3834
797.9611
959.8992
978.6657
1003.2550
1055.4548
1266.2189
2594.5995
3035.8317
3124.4551

SYMMETRY CS
ELECTRONIC_STATE 1-A'
