5
Energy = -437.0937118200
    S    0.266246   -0.476486   -0.355798
    C   -1.273762   -0.867549    0.042700
    H    1.417306   -1.214242   -0.213559
    H    0.314253   -0.007112   -1.618228
    H   -1.326893   -1.553410    0.898002

FREQUENCIES 9
253.1612
696.8023
769.3285
899.0543
1059.9313
1233.5676
2414.0673
2639.7137
3085.3511

SYMMETRY C1
ELECTRONIC_STATE 1-A
