5
Energy = -436.9756192300
    S    0.123100    0.885323    0.038397
    C   -0.879238   -0.589511   -0.428912
    H    0.606173    1.017599    1.316347
    H    1.301123    1.153068   -0.613043
    H   -0.415429    2.143215   -0.067008

FREQUENCIES 9
322.2051
324.4520
401.5634
1093.4998
1139.8074
1140.2999
2404.2381
2405.4406
2433.2017

SYMMETRY C1
ELECTRONIC_STATE 3-A
