5
Energy = -437.0963310900
S  0.403077528 -0.305047934 -0.214841731
C -0.949568172 -1.311836210  0.070490944
H  1.378958227 -1.227837598 -0.445905000
H  0.237865517 -0.002970364 -1.533450190
H -1.673562579 -1.270701629  0.876461259

FREQUENCIES 9
299.1415
747.5894
777.9784
869.0217
956.9973
1181.2556
2520.9286
2521.0391
3194.2006

SYMMETRY CS
ELECTRONIC_STATE 3-A"
