6
Energy = -834.8492445400
    S   -0.168187    0.178963    0.865125
    S   -2.101033   -0.647466    1.044545
    C    0.595368    1.433207    0.249208
    H    0.675709   -0.485462    1.680008
    H   -1.967029   -1.343753   -0.106166
    H    0.036160    2.119674   -0.391125

FREQUENCIES 12
97.0865
201.3233
252.9227
417.2676
747.8597
809.8053
927.7204
970.1943
1105.3958
2622.6620
2628.2490
3131.2445

SYMMETRY C1
ELECTRONIC_STATE 1-A
