6
Energy = -834.8911658700
    S    1.100124    0.176268    0.679866
    S   -1.644402   -0.456131    0.845399
    C   -0.507663    0.805178    0.487223
    H    1.016028   -0.201256    1.979104
    H   -2.207996   -0.623599   -0.379802
    H   -0.685102    1.554704   -0.270197

FREQUENCIES 12
228.1628
347.2204
381.3885
492.9654
716.5854
831.5315
884.6498
972.8472
1203.3735
2558.4136
2583.6090
3207.4162

SYMMETRY C1
ELECTRONIC_STATE 3-A
