4
Energy = -399.2038621300
S -0.830150955  0.140041715  0.291529537
H -2.171292831  0.244330053  0.465459383
H -0.779188308  1.098439302 -0.666941149
H -0.923868299 -0.882383231 -0.594841418

FREQUENCIES 6
1064.1351
1220.1628
1220.1629
2601.7900
2605.2773
2605.2777

SYMMETRY C3V
ELECTRONIC_STATE 1-A1
