5
Energy = -796.3404426700
    S    1.200308   -0.698153   -0.015625
    S   -0.908939   -0.363673    0.309738
    H   -1.174401   -1.471548    1.084769
    H    1.015329   -1.922843   -0.623452
    H   -0.748140    0.525238    1.345986

FREQUENCIES 9
258.3272
397.1314
726.4026
729.1747
948.3130
1133.4240
2427.9673
2448.0355
2465.0930

SYMMETRY C1
ELECTRONIC_STATE 2-A
