8
Energy = -873.5764027500
    S    1.916422    0.911616   -0.353636
    S   -1.708712   -0.189194   -0.513681
    C    0.370595    1.344579    0.494641
    C   -0.419426    0.053734    0.416482
    H   -0.058865   -0.756613    1.047891
    H    1.466364    1.112012   -1.606617
    H    0.617211    1.554756    1.534488
    H   -0.130654    2.192022    0.042231

FREQUENCIES 18
89.2753
257.2086
295.6243
327.7247
664.2114
778.1229
823.5202
880.8796
996.2457
1046.5698
1153.6555
1236.6897
1286.0678
1458.7943
2662.7189
3080.5956
3111.8268
3172.1099

SYMMETRY C1
ELECTRONIC_STATE 2-A
