7
Energy = -475.5512797200
S  0.133888008  0.187755993  0.268002511
C -0.171279496 -1.209024500 -0.653779105
C -0.781472428  1.545797068  0.728050345
H  0.664924988 -0.279621977  1.434266497
H  1.276401134  0.708305544 -0.265252657
H -1.141179141 -1.395424546 -1.112574337
H -1.820070154  1.669546391  0.424827270

FREQUENCIES 15
223.4771
252.4847
273.7105
556.9899
660.7303
688.1051
743.5975
934.5719
948.5153
1100.3608
1131.4175
2437.8410
2479.9437
3153.1286
3153.8510

SYMMETRY CS
ELECTRONIC_STATE 4-A'
