7
Energy = -475.7114381700
    S    0.053040    0.835424    0.970429
    C   -0.383555    0.199676   -0.599099
    C    0.332543   -0.835443   -1.296153
    H    0.034516   -1.873526   -1.190050
    H    1.152908   -0.586669   -1.960730
    H   -0.645136    0.004579    1.809000
    H   -1.267430    0.709017   -0.999707

FREQUENCIES 15
254.9505
339.5243
466.1407
513.2685
607.3604
649.1378
854.6084
928.0755
1097.4296
1118.5798
1392.0164
2449.5164
3013.4483
3092.5368
3200.4245

SYMMETRY C1
ELECTRONIC_STATE 4-A
