7
Energy = -475.6489941400
    S    1.055405    0.444704    0.745296
    C   -1.798622    0.427869    0.553939
    C   -0.651292    0.049557   -0.204852
    H    0.715008   -0.083583    1.941413
    H    0.757679    1.708603    1.118872
    H   -0.544612   -1.025493   -0.373452
    H   -0.503451    0.614786   -1.129061

FREQUENCIES 15
197.3873
245.3316
370.0564
637.9577
753.6013
939.7034
1114.9291
1137.6888
1194.7263
1214.3700
1416.7050
2625.6170
2635.8801
3010.7085
3073.2814

SYMMETRY C1
ELECTRONIC_STATE 4-A
