7
Energy = -475.6920350700
S  0.028859000  0.631356000  0.210678000
C -0.118360000 -1.022415000 -0.112648000
C -0.847476939  1.963170760  0.456158137
H  0.792309068 -1.602379241 -0.211623309
H  1.346136607  0.889353576  0.280503830
H -1.110222942 -1.442726777 -0.209117397
H -1.930039469  1.810802325  0.410358227

FREQUENCIES 15
101.2970
298.3387
390.6426
629.3666
702.8793
762.1323
832.3189
838.7563
1056.2740
1149.9943
1364.4695
2662.9897
3114.9093
3118.1818
3269.4189

SYMMETRY CS
ELECTRONIC_STATE 2-A"
