7
Energy = -475.0992572400
S  1.052572034  0.454983579  0.767359995
C -1.838156331  0.375713907  0.440432748
C -0.578538568  0.076909127 -0.141416751
H  0.767561611 -0.092288572  1.984608978
H  0.812838876  1.746194381  1.138487347
H -0.612769532 -1.011954937 -0.400742186
H -0.573348241  0.588746205 -1.137429932

FREQUENCIES 15
129.0185
315.9804
354.5842
509.3074
764.4500
822.0674
956.7449
1041.2937
1142.3135
1169.5528
1207.2524
2532.3529
2542.7352
2808.2721
2816.1024

SYMMETRY CS
ELECTRONIC_STATE 3-A'
