7
Energy = -475.9873592700
    S   -0.002641   -0.233692    0.232779
    C   -0.351039   -1.648744   -0.376824
    C   -0.374474    1.363553    0.301545
    H    1.046873   -0.337994    1.058102
    H    0.239216    1.973338    0.944561
    H   -1.199901   -1.635324   -1.059978
    H   -1.196815    1.746175   -0.276657

FREQUENCIES 15
190.3935
318.5278
340.9860
499.8479
757.7938
793.6023
819.9099
943.0290
1164.7686
1188.0566
1366.8502
2675.9580
3134.6150
3166.1481
3305.3372

SYMMETRY C1
ELECTRONIC_STATE 1-A
