7
Energy = -475.6833558000
    S    0.950088    0.437154    0.718341
    C   -1.496243    0.533965    0.788933
    C   -0.574037    0.027599   -0.249325
    H    0.569163   -0.098058    1.911029
    H    0.602914    1.699827    1.093128
    H   -0.532619   -1.054668   -0.423080
    H   -0.489151    0.590624   -1.186869

FREQUENCIES 15
72.1556
253.3888
593.2784
678.3455
767.0279
854.7538
1010.0303
1086.2766
1164.3933
1216.2086
1428.5746
2545.3387
2550.5675
2985.2861
3046.8377

SYMMETRY C1
ELECTRONIC_STATE 2-A
