8
Energy = -873.1235210400
    S    1.421931   -0.069526   -0.215930
    S   -2.334348    1.178188   -1.279661
    C   -0.199972   -0.780317   -0.844693
    C   -1.228897    0.223217   -1.040625
    H    1.191204   -0.166545    1.121339
    H    2.122038   -1.234874   -0.286822
    H    0.036799   -1.237885   -1.815408
    H   -0.558843   -1.557933   -0.160738

FREQUENCIES 18
143.6753
147.9218
343.4066
424.9909
639.9201
740.4394
771.0021
916.9785
955.1388
1176.4665
1195.6098
1266.2818
1398.8664
1670.2589
2559.3442
2568.8997
2993.1447
3053.4327

SYMMETRY C1
ELECTRONIC_STATE 1-A
