7
Energy = -475.1546203500
S  0.999826628  0.458427154  0.771987556
C -1.629690604  0.444568530  0.601238968
C -0.579887292  0.040476025 -0.220706633
H  0.683940789 -0.093570097  1.986621165
H  0.729363501  1.751948712  1.137324807
H -0.607041232 -1.058372526 -0.432187220
H -0.566350408  0.594890319 -1.193008570

FREQUENCIES 15
120.5191
134.4700
437.0795
538.7454
792.5093
816.9353
989.3471
1030.0897
1150.7671
1206.0599
1355.3390
2487.0027
2495.0540
2810.4514
2838.6304

SYMMETRY CS
ELECTRONIC_STATE 1-A'
