7
Energy = -835.8847252200
    S    1.215518   -0.162090    0.732074
    S   -1.473585    0.554601   -0.403382
    C    0.214370    1.136025   -0.087131
    H    0.688167    1.448414   -1.012274
    H   -1.151915   -0.385102   -1.307571
    H    0.102109    1.996314    0.567872
    H    2.395649    0.481186    0.661135

FREQUENCIES 15
190.9428
227.3185
271.4583
637.8193
736.6616
760.6041
930.3630
980.6990
1164.7402
1243.8594
1461.5498
2649.7755
2672.9327
3072.0751
3130.1154

SYMMETRY C1
ELECTRONIC_STATE 1-A
