7
Energy = -835.8133338300
    S    1.551946   -0.543501   -1.611341
    S   -0.101803    0.337262   -0.142430
    C   -0.472688    1.929737   -0.077329
    H    2.405606   -0.716858   -0.590199
    H   -1.001730   -0.097387   -1.036480
    H   -0.881644    2.461942   -0.922302
    H    0.049528    2.489790    0.683716

FREQUENCIES 15
177.1738
200.7063
288.7396
444.9826
650.3779
694.8040
730.8182
927.7048
1000.1780
1109.9786
1436.8789
2673.3754
2683.9642
3148.5176
3257.5247

SYMMETRY C1
ELECTRONIC_STATE 1-A
