6
Energy = -437.9877053800
S -0.428797672  1.004891272 -0.720257448
C  0.937675250  0.752126717  0.280668993
H  1.778514139  0.211196366 -0.117067352
H  0.161297443  0.290263325 -1.880498521
H  0.923903502  1.140069582  1.284222955
H -1.181336589  1.749567407  0.320995321

FREQUENCIES 12
261.0992
316.1769
368.9090
682.5144
841.2791
934.9101
938.1519
1013.2213
1393.2827
1821.4786
3175.3391
3307.9154

SYMMETRY C2V
ELECTRONIC_STATE 3-B1
