6
Energy = -437.2023630300
S -0.681839800 -0.053846801  0.282389363
C  0.909653370  0.383779522 -0.066445621
H -0.643092659 -1.281504904  0.912166156
H  1.628887700 -0.397970243 -0.355285816
H  1.166330807  1.451354214 -0.145567961
H -1.185438686  0.886820304  1.158059466

FREQUENCIES 12
429.6772
644.0144
709.2659
871.1080
1030.0913
1062.8249
1175.8356
1394.1857
2390.8853
2421.4478
2979.3756
3105.2038

SYMMETRY CS
ELECTRONIC_STATE 1-A'
