6
Energy = -437.1557885600
S -0.806009493  0.606512889 -0.211216064
C  0.006705596 -0.800786213 -0.101175347
H  0.247038330  1.492657213 -0.319999923
H  1.121257802 -0.769519852  0.398892344
H  1.094694662 -0.867155577 -0.653576289
H -0.499830160 -1.766137669  0.001163066

FREQUENCIES 12
444.7678
670.5715
755.0667
857.7755
984.3019
989.1855
1065.2382
1457.3412
2018.5737
2371.1877
2438.9982
3084.5012

SYMMETRY CS
ELECTRONIC_STATE 1-A'
