7
Energy = -835.5614876000
S  1.221082186  0.295918434  1.035976185
S -1.169603083  0.217386014 -0.285040219
C  0.195685802  1.379680279  0.001148551
H  0.681417202  1.736640311 -0.899115695
H -0.624408766 -0.421612041 -1.341373158
H -0.168199241  2.201521833  0.610825618
H  1.857353879 -0.340087790  0.029969698

FREQUENCIES 15
256.9627
338.8571
390.8763
640.1179
701.3678
766.8951
855.7955
1057.2764
1142.4026
1223.6887
1438.4225
2642.1859
2646.0454
3108.4890
3190.6395

SYMMETRY CS
ELECTRONIC_STATE 2-A"
