6
Energy = -437.8142569700
    S   -0.750740    0.605580   -0.213655
    C    0.262436   -0.853599   -0.102496
    H    0.238073    1.529234   -0.322340
    H    0.927788   -0.754225    0.762916
    H    0.882978   -0.919739   -1.003705
    H   -0.396652   -1.711577   -0.005552

FREQUENCIES 12
210.4836
690.4716
792.3665
823.6505
1097.9141
1309.4412
1402.4398
1425.2443
2594.5864
2983.8580
3040.5478
3158.3603

SYMMETRY C1
ELECTRONIC_STATE 2-A
