6
Energy = -438.1575028400
    S   -0.771841    0.640048   -0.217418
    C    0.290167   -0.839172   -0.104870
    H    0.210878    1.547977   -0.322013
    H    0.931567   -0.798751    0.771464
    H    0.886199   -0.966677   -1.004600
    H   -0.383085   -1.687754   -0.007396

FREQUENCIES 12
233.0150
698.6356
801.9097
973.1918
1099.0735
1360.6944
1478.6521
1491.3190
2679.1589
3049.2655
3130.5189
3131.4858

SYMMETRY C1
ELECTRONIC_STATE 1-A
