7
Energy = -834.9842071500
    S    1.548144   -0.696632   -0.254212
    S    0.093824    0.584780   -0.891602
    C   -0.309663    1.907352   -0.021188
    H    2.121427   -0.736213   -1.494875
    H   -1.032080    0.090336   -1.507156
    H   -1.292076    2.363025   -0.191834
    H    0.419637    2.348337    0.664501

FREQUENCIES 15
170.9486
247.0348
314.6793
453.7853
645.7950
829.5645
923.2078
969.2279
1021.2139
1060.6298
1382.8699
2427.6441
2520.9359
3023.1382
3155.2693

SYMMETRY C1
ELECTRONIC_STATE 1-A
