6
Energy = -437.7815428700
    S   -0.737789   -0.054379    0.110599
    C    0.937735    0.435122    0.022655
    H   -0.624671   -1.236829    0.765754
    H    1.636531   -0.294624   -0.358603
    H    1.134133    1.496764    0.046397
    H   -1.151448    0.642617    1.198517

FREQUENCIES 12
55.7229
501.5485
712.4023
742.2091
856.9621
1072.3951
1167.7888
1381.0548
2573.5482
2590.8900
3144.9028
3293.2105

SYMMETRY C1
ELECTRONIC_STATE 2-A
