5
Energy = -399.1588567200
S  0.771011333 -0.366058278  0.187932306
H  0.832706060 -0.854175223 -1.110974092
H  1.604757347 -1.118356707  1.005328708
H  1.181326680  0.960821209  0.203881111
H -0.534744753 -0.452522391  0.653493495

FREQUENCIES 9
956.0057
956.0057
956.0057
1164.6821
1164.6821
2350.3767
2350.3767
2350.3767
2353.3492

SYMMETRY TD
ELECTRONIC_STATE 1-A1
