5
Energy = -399.9817245100
S  1.026530719  0.467637506 -0.148150659
H -0.135613159  0.056565594 -0.807692894
H  1.874131156  0.624700314  0.952512435
H  0.286237560  1.544071359  0.349655197
H  1.452280436 -0.862805451 -0.204835656

FREQUENCIES 9
679.7017
734.1880
1505.3452
1505.3452
1785.3388
2038.5908
2126.5106
2126.5106
2318.3837

SYMMETRY C4V
ELECTRONIC_STATE 1-A1
