6
Energy = -796.9981885400
S  1.254700161  0.023177644  0.269026168
S -0.869117073  0.583975386  0.564168185
H -1.346054173 -0.364314809 -0.306016492
H  1.731637261  0.971467838  1.139210845
H -1.033160576 -0.217390377  1.666369304
H  1.418743664  0.824543406 -0.833174951

FREQUENCIES 12
111.3076
404.1933
719.8873
734.7193
926.0938
949.8771
1142.9983
1162.3763
2475.4914
2484.3148
2485.6329
2492.6385

SYMMETRY C2H
ELECTRONIC_STATE 1-AG
