8
Energy = -476.3549041900
    S    0.755137   -0.009994    1.057158
    C   -2.051454   -0.263412    0.327850
    C   -0.693998   -0.752969    0.516288
    H    1.648152   -0.406875    0.108865
    H   -2.674051   -1.082949   -0.040282
    H   -2.489165    0.094388    1.267708
    H   -2.093030    0.547056   -0.409943
    H    1.205948   -0.905522    1.978712

FREQUENCIES 18
38.1511
143.3269
280.7102
618.1783
836.5296
848.1209
973.0353
983.6017
1176.4803
1224.2806
1378.9723
1413.4377
1420.4416
2512.8964
2519.4211
2971.2998
3027.5997
3068.5208

SYMMETRY C1
ELECTRONIC_STATE 3-A
