7
Energy = -438.4614318800
S  0.614910712 -0.214125560 -0.537857294
C -0.718849080 -0.904900357  0.505753869
H -1.603634916 -0.310894368  0.289725718
H  1.684433976 -0.852801888 -0.012223044
H -0.862236914 -1.928090195  0.166814735
H  0.863232989  0.938466507  0.123917896
H -0.444389970 -0.858730854  1.553815694

FREQUENCIES 15
230.0366
630.5367
749.5970
776.7980
1058.4168
1109.7570
1204.0849
1372.1332
1461.0296
1462.2789
2619.9631
2628.5685
3064.2163
3161.5071
3187.5543

SYMMETRY CS
ELECTRONIC_STATE 1-A'
