9
Energy = -476.3802662300
    S   -0.112861    0.675096   -0.109918
    C   -1.576213   -0.127983    0.206851
    C    1.467625   -0.288990   -0.241678
    H   -0.232081    1.481338   -1.224834
    H    2.231371    0.484058   -0.388074
    H   -2.131982   -0.960485   -0.234559
    H    1.558242   -0.824694    0.706805
    H    1.335220   -0.942422   -1.108056
    H   -0.003762    1.596606    0.900001

FREQUENCIES 21
177.5720
215.2844
244.7865
449.7700
512.7194
651.8590
792.4795
849.4874
926.7055
1049.4505
1061.4729
1126.2317
1331.9292
1392.0811
1409.2634
2374.8815
2464.3422
2985.5043
3106.6635
3108.3118
3130.6044

SYMMETRY C1
ELECTRONIC_STATE 3-A
