9
Energy = -476.3697735600
    S   -0.117070    0.652432   -0.206395
    C   -1.505303   -0.522608    0.478230
    C    1.490175   -0.279183   -0.228385
    H   -0.185425    1.455880   -1.325112
    H    2.250631    0.496388   -0.360564
    H   -2.291511   -0.533665   -0.318606
    H    1.539150   -0.784892    0.738599
    H    1.416866   -0.960119   -1.079475
    H   -0.061956    1.568290    0.808246

FREQUENCIES 21
149.1677
166.0607
265.9241
335.6666
456.8202
540.4788
697.6024
783.5482
1032.0591
1056.8210
1089.6305
1144.0237
1338.5326
1404.0085
1414.9823
2408.3515
2494.2931
2907.6406
2998.8472
3122.1009
3137.2259

SYMMETRY C1
ELECTRONIC_STATE 1-A
