9
Energy = -476.4947382000
    S    1.391737   -1.463079    1.313869
    C   -0.140784    0.502941   -0.135066
    C    0.432723   -0.175009    1.077466
    H   -1.252352    0.591209   -0.129138
    H    0.494501    0.415155   -1.141524
    H    0.100658    1.588876   -0.211241
    H   -0.321279   -0.186521   -1.092198
    H    0.133362    0.312665    2.009324
    H    1.608271   -1.868586    0.031196

FREQUENCIES 21
128.7618
351.2085
504.0235
565.2418
649.5816
766.6310
893.3658
920.8567
1019.1702
1096.0585
1157.2502
1262.4237
1386.4933
1441.5734
1485.8097
2321.7636
2559.7887
2570.4887
2887.1808
2901.2584
3090.4811

SYMMETRY C1
ELECTRONIC_STATE 1-A
