9
Energy = -477.1970580900
    S    0.367108    0.352555   -0.192927
    C   -1.106236   -0.325285   -0.277195
    C    1.313025   -0.151696    1.027007
    H   -1.878723    0.268515   -0.740269
    H    2.377359   -0.090407    0.861854
    H   -1.162221   -1.399211   -0.217607
    H    0.882696   -0.166019    2.014219
    H    1.356743    0.371310   -1.176832
    H   -0.031732    1.658313   -0.482797

FREQUENCIES 21
336.5636
470.7090
474.7414
507.5525
581.8101
758.6440
807.8493
886.2455
918.3907
1058.2975
1076.1689
1180.5671
1311.6920
1382.6846
1399.5166
2152.0188
2229.8560
3157.0280
3157.5937
3283.6115
3285.0003

SYMMETRY C1
ELECTRONIC_STATE 1-A
