9
Energy = -477.0406486000
    S   -0.119629   -0.314848    0.672285
    C   -1.180288   -0.198541   -0.692849
    C    1.564267    0.051013    0.052478
    H   -1.329518    0.787252   -1.107526
    H    1.782369   -0.564197   -0.813899
    H   -1.809242   -1.039619   -0.939938
    H   -0.042290   -1.658006    0.779586
    H    1.571731    1.111160   -0.189271
    H    2.236853   -0.148945    0.884391

FREQUENCIES 21
72.4488
180.7777
260.1403
511.8964
618.8182
711.0938
775.4264
817.7295
985.7487
1051.3253
1095.8218
1354.5040
1393.2069
1453.1882
1458.0393
2632.9673
3057.1882
3150.2142
3156.1843
3183.5690
3293.7253

SYMMETRY C1
ELECTRONIC_STATE 2-A
