5
Energy = -870.9595075900
    S   -1.312099   -0.316183   -0.413802
    S    1.774486   -0.000701   -0.031915
    C   -1.367116    1.064287    0.401006
    C    0.476411   -0.762862   -0.572959
    H    0.579867   -1.707145   -1.135660

FREQUENCIES 9
62.5867
187.0773
402.3453
498.1938
731.3313
973.2854
1024.4996
1213.6927
2967.8261

SYMMETRY C1
ELECTRONIC_STATE 4-A
