5
Energy = -871.6868921200
S -1.464044566  0.581115143 -0.195667936
S  1.188425434 -0.088720857 -0.494774936
C  0.020347875  0.433583749  0.637669548
C -0.405215583 -0.531874590 -0.974113370
H -0.675808286 -1.586097049 -1.012838217

FREQUENCIES 9
417.5660
434.3749
547.1767
770.8252
842.1433
919.8964
959.0571
1177.6319
3120.9176

SYMMETRY CS
ELECTRONIC_STATE 1-A'
