4
Energy = -473.1753991800
S  1.110001000  0.194306000 -0.285350000
C -0.460375000  0.174779000  0.072003000
C -1.709292400 -0.010509159  0.171325046
H  1.497002800  1.147353910  0.659287450

FREQUENCIES 6
171.8509
289.5497
769.3868
934.1710
1825.2054
2312.5338

SYMMETRY CS
ELECTRONIC_STATE 2-A'
