5
Energy = -871.6887519600
S -1.771706000  0.224868000  0.311013000
S  0.900747000 -0.615272000 -1.253380000
C -0.259325023  0.827595897  0.989689632
C -0.194932267  0.016834137 -0.194722141
H  0.027872476 -1.254162408 -2.067236898

FREQUENCIES 9
279.5887
397.8103
490.9277
542.1577
702.1873
901.8968
1054.6433
1361.3814
2609.8189

SYMMETRY CS
ELECTRONIC_STATE 1-A'
