5
Energy = -871.5998967400
    S   -2.226225   -0.231795   -0.374753
    S    0.630549   -0.711599    0.253829
    C    1.744762    0.381412    0.905745
    C   -0.808369    0.298694    0.186432
    H   -0.696993    1.326820    0.549363

FREQUENCIES 9
55.9714
140.3915
284.9032
605.8493
784.0798
794.4097
999.4064
1154.1223
3038.7585

SYMMETRY C1
ELECTRONIC_STATE 3-A
