5
Energy = -871.6011188000
    S   -1.324713   -0.365864   -0.448811
    S    1.645941    0.066272   -0.001661
    C   -1.192550    1.056950    0.410995
    C    0.408839   -0.775151   -0.584623
    H    0.614033   -1.704811   -1.129230

FREQUENCIES 9
106.3516
153.8979
389.6285
526.8971
708.4321
798.4955
1009.4702
1153.1069
3033.5875

SYMMETRY C1
ELECTRONIC_STATE 3-A
