5
Energy = -871.9240825400
S -0.793652000 -0.087305000  0.508869000
S  1.619393000  1.251048000 -0.868416000
C  0.457314869  0.933649203  0.149243505
C -0.938297685 -1.302184250 -0.637767923
H -1.622674204 -2.133171428 -0.736170981

FREQUENCIES 9
132.5738
196.8182
344.1407
396.5344
620.0187
755.3819
798.4263
1288.2041
3207.2464

SYMMETRY CS
ELECTRONIC_STATE 4-A"
