5
Energy = -871.5843526200
S -1.448619903  0.408044616  0.011605272
S  1.137450615 -0.244899220 -0.280106460
C  0.118893348  0.868234549  0.538240136
C -0.432980200 -0.713450977 -0.813889567
H -0.711021556 -1.510325533 -1.495110795

FREQUENCIES 9
412.0973
548.6049
633.5024
660.6511
747.4036
858.7694
933.5748
1127.9379
3175.8813

SYMMETRY C2V
ELECTRONIC_STATE 3-B1
