4
Energy = -474.1113503500
S  0.041932000 -0.356021000  0.183406000
C  1.439965000  0.482645000  0.398539000
C -1.228885730  0.651068433 -0.263471948
H  2.450104756  0.221605798  0.677127378

FREQUENCIES 6
348.5493
374.6415
691.5587
751.5760
864.7508
3220.7894

SYMMETRY CS
ELECTRONIC_STATE 4-A"
