5
Energy = -871.9538762600
    S   -2.249250   -0.259327   -0.385566
    S    0.669609   -0.663983    0.276032
    C    1.807735    0.327990    0.910686
    C   -0.870679    0.323792    0.175700
    H   -0.713693    1.335060    0.543762

FREQUENCIES 9
74.7728
208.7754
290.2863
583.0343
783.0543
917.1981
1086.8296
1224.6495
3107.5363

SYMMETRY C1
ELECTRONIC_STATE 2-A
