5
Energy = -871.9854214000
S -1.830378000  0.162463000  0.228764000
S  0.913507000 -0.627458000 -1.271856000
C -0.199463092  0.826321138  0.978947895
C -0.155288788  0.066162163 -0.128167023
H -0.025604437 -1.228923604 -2.021426466

FREQUENCIES 9
223.2813
258.7379
375.7642
445.4416
576.1878
874.9106
1007.7608
1533.9797
2673.4041

SYMMETRY CS
ELECTRONIC_STATE 2-A"
