5
Energy = -871.1020819700
    S   -1.559355    0.342632    0.180308
    S    1.237219   -0.362644   -0.133461
    C    0.051540    0.798537    0.093039
    C   -0.417713   -0.739424   -0.608096
    H   -0.647941   -1.231107   -1.571520

FREQUENCIES 9
382.4716
399.7810
459.1035
567.3923
790.2266
895.0347
970.9271
1103.3779
2969.0452

SYMMETRY C1
ELECTRONIC_STATE 2-A
