5
Energy = -871.6758473900
    S   -2.072837    1.048520    0.384972
    S    0.865232    0.038905   -0.360113
    C   -0.703506    0.567525    0.034355
    C    0.412829   -1.501848   -0.892326
    H    1.375294   -1.958440   -1.185054

FREQUENCIES 9
117.6487
300.9902
425.7664
468.0047
727.8663
737.5560
1024.7599
1538.4397
3001.1925

SYMMETRY C1
ELECTRONIC_STATE 1-A
