5
Energy = -871.1929405400
    S   -2.007890    0.909080    1.333343
    S    1.201932   -0.608416   -1.268577
    C   -0.949120    0.354737    0.394843
    C   -0.058210   -0.138044   -0.433209
    H    0.515952   -1.317580   -2.240975

FREQUENCIES 9
157.2694
177.3262
368.9156
517.2762
545.0081
907.8525
1234.5897
1679.1883
2372.5721

SYMMETRY C1
ELECTRONIC_STATE 2-A
