5
Energy = -871.1301895400
    S   -2.100948    0.915516    1.353895
    S    1.267216   -0.619511   -1.302250
    C   -0.939903    0.338244    0.368926
    C   -0.070647   -0.109521   -0.392373
    H    0.546947   -1.324953   -2.242774

FREQUENCIES 9
153.9419
160.5529
354.8995
369.1481
476.6959
785.8424
924.0075
1954.2630
2436.2632

SYMMETRY C1
ELECTRONIC_STATE 4-A
