4
Energy = -474.0050017700
S -0.430530000  0.093278000 -0.308779000
C -1.448343000 -1.043599000  0.380122000
C -0.109584783  1.744925915 -0.018245394
H  0.312803396 -0.423416974 -1.340798276

FREQUENCIES 6
222.8741
388.4820
438.8223
773.2655
847.2485
2311.0654

SYMMETRY CS
ELECTRONIC_STATE 2-A"
