5
Energy = -871.1184140600
S -1.807742000 -0.130658000 -0.439019000
S  1.242244000  0.369423000  0.930697000
C -0.699321999 -1.325085619 -0.409383585
C -0.054967782 -0.275059975  0.201246840
H  0.723470379  1.619168123  1.151794947

FREQUENCIES 9
267.6581
383.0140
408.8742
490.1688
788.5252
964.9838
1028.7300
1491.5003
2491.2074

SYMMETRY CS
ELECTRONIC_STATE 2-A'
