5
Energy = -871.8928986400
    S   -1.249127   -0.333837   -0.425029
    S    1.708245    0.064625    0.001163
    C   -1.303610    1.081181    0.418661
    C    0.406417   -0.806031   -0.603256
    H    0.589623   -1.728541   -1.144867

FREQUENCIES 9
152.8648
203.1865
363.5987
478.3925
624.4285
860.4837
920.2480
1127.1689
3135.5570

SYMMETRY C1
ELECTRONIC_STATE 4-A
