5
Energy = -871.9408379200
S -1.697794000  1.508535000  0.913868000
S  0.622971000 -0.195758000 -0.395903000
C -0.637579138  0.608736997  0.249880127
C  0.152997723 -1.663664905 -1.112396612
H  1.155249984 -1.985829108 -1.453941180

FREQUENCIES 9
139.6065
180.7368
454.7223
537.6434
537.6721
694.7730
1073.5695
1452.6647
2955.2713

SYMMETRY CS
ELECTRONIC_STATE 2-A"
