5
Energy = -871.8882617500
    S   -2.247532   -0.315685   -0.405779
    S    0.620286   -0.608556    0.283117
    C    1.875216    0.260110    0.904260
    C   -0.816483    0.348542    0.199997
    H   -0.787765    1.379123    0.539019

FREQUENCIES 9
118.0658
157.0582
290.8944
514.2889
688.1249
849.1938
912.1091
1121.8840
3133.2217

SYMMETRY C1
ELECTRONIC_STATE 4-A
