5
Energy = -871.6897860500
S -1.301131000 -1.396343000 -0.250337000
S -0.372114000  1.404677000  0.869944000
C  0.449038601 -1.202095013 -0.272912154
C -0.345742684 -0.116313227  0.230043307
H  0.973974005  1.567889891  0.858378159

FREQUENCIES 9
268.3398
399.6256
494.2349
550.5442
718.5937
887.5475
1051.3232
1361.0616
2593.8384

SYMMETRY CS
ELECTRONIC_STATE 1-A'
