4
Energy = -473.2840167800
S  0.392552000  0.214358000 -0.895706000
C  0.032581000 -1.165999000  0.093731000
C -0.809701972 -0.104115950  0.207586198
H  0.416248666 -2.180027601  0.313883619

FREQUENCIES 6
708.1887
874.0909
923.0951
957.1530
1431.7363
3011.8811

SYMMETRY CS
ELECTRONIC_STATE 2-A'
