4
Energy = -474.0979212600
    S   -0.737403    0.217061    0.103646
    C    1.984212    0.456267    0.087673
    C    0.858750   -0.372491   -0.044019
    H   -0.500392    1.536684    0.351238

FREQUENCIES 6
342.5940
423.9956
623.1929
727.4792
1190.6214
2472.9381

SYMMETRY C1
ELECTRONIC_STATE 4-A
