4
Energy = -474.1950002100
S -0.896003000  0.600257000  0.168556000
C  1.480238000 -0.248934000 -0.668745000
C  0.319228523 -0.451054158  0.007644719
H  1.864554730  0.601797899 -1.232191629

FREQUENCIES 6
348.3884
736.7361
917.0626
958.5769
1391.3600
3070.7698

SYMMETRY CS
ELECTRONIC_STATE 4-A"
