5
Energy = -871.9758773200
S -1.404289555  0.336340383  0.067017724
S  1.077397445 -0.290153617 -0.213009276
C  0.155580867  1.038485266  0.482622225
C -0.461998623 -0.861975299 -0.738730899
H -0.702960436 -1.414696103 -1.637628258

FREQUENCIES 9
334.1616
431.3998
506.1686
686.0086
692.5056
784.2448
862.6705
1149.9571
3169.6160

SYMMETRY CS
ELECTRONIC_STATE 2-A'
