4
Energy = -473.2004795400
S  0.864304000  0.074073000 -1.192387000
C -0.039550000 -0.808561000 -0.033181000
C -1.094136205 -0.632785042  0.700907222
H  0.301129464 -1.868467501  0.244243332

FREQUENCIES 6
209.6110
561.4953
672.7955
832.9549
1524.0733
2588.4624

SYMMETRY CS
ELECTRONIC_STATE 4-A"
