4
Energy = -473.1118186000
S  0.006499000 -0.247615000  0.159497000
C  1.469479000  0.433224000  0.412889000
C -1.296313261  0.595137223 -0.271765710
H  2.523335128  0.218620318  0.695461520

FREQUENCIES 6
310.2967
498.2512
595.0804
806.8457
916.8278
2945.9446

SYMMETRY CS
ELECTRONIC_STATE 4-A"
