3
Energy = -436.0748989000
    S   -0.463609   -0.056530    0.000000
    C    1.583392    0.016718    0.000000
    H   -0.827208    1.252130    0.000000

FREQUENCIES 3
303.2559
524.3983
2540.5404

SYMMETRY CS
ELECTRONIC_STATE 4-A'
