3
Energy = -436.2716188700
    S   -0.426118   -0.195769    0.000000
    C    1.051518    0.295071    0.000000
    H    1.496950    1.287417    0.000000

FREQUENCIES 3
820.1778
1209.0624
3109.1587

SYMMETRY CS
ELECTRONIC_STATE 2-A'
