3
Energy = -436.1588981100
    S   -0.536819   -0.238788    0.000000
    C    1.138917    0.304734    0.000000
    H    1.520253    1.320773    0.000000

FREQUENCIES 3
795.8958
867.3067
3145.5692

SYMMETRY CS
ELECTRONIC_STATE 4-A'
