3
Energy = -436.1236640600
    S   -0.220478    0.176907    0.000000
    C    1.348916   -0.470296    0.000000
    H    0.085693    1.496669    0.000000

FREQUENCIES 3
794.9640
924.6480
2552.4814

SYMMETRY CS
ELECTRONIC_STATE 4-A"
