3
Energy = -435.7737673500
    S   -0.429697   -0.092576    0.000000
    C    1.471467    0.066489    0.000000
    H   -0.749195    1.238406    0.000000

FREQUENCIES 3
502.2396
730.4911
2508.6764

SYMMETRY CS
ELECTRONIC_STATE 3-A"
