4
Energy = -834.0257477400
S  0.668880000  1.738540000 -0.332974000
S -0.529821000 -1.046156000 -0.115130000
C  0.045107772  0.462069972  0.349769764
H -0.875848262 -1.498368665  1.107690828

FREQUENCIES 6
259.1897
431.9928
634.5392
961.9874
1283.7557
2612.5727

SYMMETRY CS
ELECTRONIC_STATE 2-A'
