4
Energy = -833.0465183600
S  0.702993000  1.801500000 -0.394160000
S -0.517992000 -1.022871000 -0.126631000
C  0.014140313  0.408529367  0.416178031
H -0.890157761 -1.531351408  1.114052625

FREQUENCIES 6
225.8855
404.8722
568.9107
842.0285
939.0137
2317.3269

SYMMETRY CS
ELECTRONIC_STATE 4-A"
