4
Energy = -833.6580436700
    S    0.405222    1.649493   -0.034471
    S   -1.007269   -1.028654    0.286114
    C   -0.550018    0.405029   -0.366676
    H    0.069965   -1.356210    1.071145

FREQUENCIES 6
150.8006
333.6534
634.0796
918.3888
1098.3714
2441.2270

SYMMETRY C1
ELECTRONIC_STATE 3-A
