4
Energy = -833.0116016700
    S    1.102647    0.229836    0.300028
    S   -0.978484   -0.227479    0.494411
    C   -0.771376   -1.654763   -0.396261
    H    0.916484    1.395271    1.021953

FREQUENCIES 6
126.3901
129.3109
389.0537
815.7791
904.6036
2408.6393

SYMMETRY C1
ELECTRONIC_STATE 2-A
