4
Energy = -833.9266370500
    S    0.938822   -1.068287    0.100712
    S   -0.886984    1.165482   -0.088591
    C   -0.634380   -0.488974    0.138122
    H    1.134580   -1.360395   -1.224937

FREQUENCIES 6
234.6823
398.3857
704.9093
908.3970
1030.0972
2375.7600

SYMMETRY C1
ELECTRONIC_STATE 4-A
