4
Energy = -833.6617056500
    S    0.389801    1.647517   -0.617385
    S   -0.447500   -1.101601    0.089990
    C   -0.361937    0.546220    0.283813
    H   -0.598465   -1.422885    1.403624

FREQUENCIES 6
185.4806
327.7091
704.2820
931.2958
1078.3066
2555.1216

SYMMETRY C1
ELECTRONIC_STATE 3-A
