4
Energy = -833.9632760900
S  1.163628958  0.289131016 -0.223155554
S -1.241403042 -0.537227984 -0.586110554
C -0.442463193  0.867403436  0.012273556
H -0.783761972  1.511137727  0.808181759

FREQUENCIES 6
280.2515
472.9967
773.3743
858.3056
1104.3746
3195.1153

SYMMETRY CS
ELECTRONIC_STATE 4-A'
