2
Energy = -397.9041117700
    S    0.134292    0.000000    0.000000
    H   -1.235353    0.000000    0.000000

FREQUENCIES 1
2532.5471

SYMMETRY C*V
ELECTRONIC_STATE 3-SG
