2
Energy = -398.2784372900
    S    0.122470    0.000000    0.000000
    H   -1.223531    0.000000    0.000000

FREQUENCIES 1
2675.7689

SYMMETRY C*V
ELECTRONIC_STATE ??
