3
Energy = -795.0692333400
    S    0.912021   -0.061283    0.000000
    S   -0.978210    0.119272    0.000000
    H    0.973392   -1.470517    0.000000

FREQUENCIES 3
627.4013
755.6343
2180.2448

SYMMETRY CS
ELECTRONIC_STATE 2-A'
