3
Energy = -795.6878556600
    S    0.959851   -0.083345    0.000000
    S   -1.003569    0.118081    0.000000
    H    0.950921   -1.447266    0.000000

FREQUENCIES 3
592.5138
766.5200
2528.6264

SYMMETRY CS
ELECTRONIC_STATE 3-A"
