3
Energy = -795.9345928800
    S   -1.235105    0.109161    0.000000
    S    0.816093   -0.029245   -0.000000
    H   -2.724947    0.264739    0.000000

FREQUENCIES 3
279.4091
524.2557
1400.7373

SYMMETRY CS
ELECTRONIC_STATE 4-A"
