2
Energy = -794.4835484700
    S   -0.884179    0.000000    0.000000
    S    0.884179    0.000000    0.000000

FREQUENCIES 1
920.9273

SYMMETRY D*H
ELECTRONIC_STATE 1-SGG
