3
Energy =   -474.106189112     
    S    0.957324   -0.026424   -0.000000
    C    1.771577    1.388370   -0.000000
    C    0.144074   -1.441787   -0.000000

FREQUENCIES 4
-99.7015
156.6461
855.4176
861.1906

SYMMETRY C*V
ELECTRONIC_STATE ??
