3
Energy =   -473.062297116     
    S    0.957198   -0.026466    0.000000
    C    1.799585    1.436986   -0.000000
    C    0.116192   -1.490362    0.000000

FREQUENCIES 3
-737.2707
-145.7867
748.3116

SYMMETRY CS
ELECTRONIC_STATE 3-A"
