3
Energy =   -473.763602635     
    S    0.957247   -0.026393   -0.000000
    C    1.797599    1.433537   -0.000000
    C    0.118130   -1.486985   -0.000000

FREQUENCIES 3
-159.1252
471.7269
787.8122

SYMMETRY CS
ELECTRONIC_STATE 2-A"
