3
Energy =   -473.107748450     
    S    0.957147   -0.026321   -0.000000
    C    1.833444    1.495748   -0.000000
    C    0.082385   -1.549268   -0.000000

FREQUENCIES 3
-175.1617
684.4717
727.1475

SYMMETRY CS
ELECTRONIC_STATE 1-A'
