4
Energy =   -871.517331545     
    S   -1.219899    0.150266   -0.042914
    S    0.998286    0.928646   -0.006939
    C    0.758627   -1.915729   -0.438954
    C    0.285625   -0.581861   -0.213212

FREQUENCIES 6
-155.5726
27.1342
331.6764
692.3458
699.5981
1324.4160

SYMMETRY C1
ELECTRONIC_STATE 1-A
