4
Energy =   -872.453252653     
    S   -1.351493    0.268942    0.066988
    S    1.131610    0.661395   -0.265239
    C    0.287479   -2.024298   -0.056673
    C    0.082134   -0.730668   -0.079087

FREQUENCIES 6
-313.0902
249.3897
313.7385
389.4232
611.9311
1543.4790

SYMMETRY C1
ELECTRONIC_STATE 3-A
