4
Energy =   -872.122757054     
    S   -1.425573    0.189412    0.079035
    S    1.226876    0.606885   -0.275875
    C    0.282137   -1.981289   -0.056976
    C    0.066290   -0.639637   -0.080196

FREQUENCIES 6
-197.0263
242.6912
341.1641
663.3361
695.3249
1409.9842

SYMMETRY C1
ELECTRONIC_STATE 4-A
