3
Energy =   -834.436337911     
    S   -1.697251   -0.188160   -0.000000
    S    1.496874   -0.214425    0.000000
    C   -0.100193   -0.201819    0.000000

FREQUENCIES 4
-399.9776
268.9712
591.9910
1183.0470

SYMMETRY ??
ELECTRONIC_STATE ??
