3
Energy =   -834.077650487     
    S   -1.698967   -0.188145   -0.000000
    S    1.498591   -0.214438    0.000000
    C   -0.100193   -0.201821   -0.000000

FREQUENCIES 4
-397.8285
257.9292
588.8643
1294.3380

SYMMETRY ??
ELECTRONIC_STATE ??
