4
Energy =   -437.450250332     
    S    0.849374    0.063352    0.163130
    C   -0.505005    0.993835   -0.198647
    H   -1.077918    1.448356    0.597737
    H   -0.808444    1.130539   -1.227384

FREQUENCIES 6
-62.4152
752.9929
868.6149
1343.7747
3123.6898
3233.1391

SYMMETRY C1
ELECTRONIC_STATE 3-A
