3
Energy =   -398.888759883     
    S   -1.278618   -0.093874   -0.000000
    H   -0.551287   -1.468711    0.000000
    H   -2.004585    1.279360   -0.000000

FREQUENCIES 4
-467.6347
994.2799
994.2799
1621.8030

SYMMETRY C*V
ELECTRONIC_STATE 4-SG
