3
Energy =   -399.274552884     
    S   -1.086612    0.005790    0.000000
    H   -0.677721   -1.460421    0.000000
    H   -2.070158    1.171406    0.000000

FREQUENCIES 3
-98.6527
645.7426
1793.3330

SYMMETRY CS
ELECTRONIC_STATE 3-A"
