3
Energy =   -398.895274827     
    S   -0.294775    0.035451   -0.000000
    H   -2.019398    0.062169    0.000000
    H   -2.875263    0.076727    0.000000

FREQUENCIES 4
-359.2698
418.6437
599.5482
2960.2138

SYMMETRY C*V
ELECTRONIC_STATE ??
