7
Energy =   -873.610703674     
    S   -1.899341   -1.120691    0.457896
    S    1.063892    0.740828    0.509223
    C    0.435565   -0.091045   -0.752974
    C   -0.825626   -0.861721   -0.716233
    H    0.954250   -0.103310   -1.710451
    H   -1.083602   -1.354002   -1.668386
    H    2.176536    1.211277   -0.124530

FREQUENCIES 15
-164.0677
163.8957
490.2388
521.6997
742.6550
807.6429
961.1155
983.0076
1018.0227
1169.5769
1282.9743
1392.2007
2543.9912
2972.8452
3131.5779

SYMMETRY C1
ELECTRONIC_STATE 2-A
