5
Energy =   -437.848533425     
    S   -0.145138    0.641453    0.013252
    C   -0.479439   -0.945817    0.040430
    H   -0.771301    1.446888    0.952758
    H    1.061587    1.443948    0.134877
    H   -0.514744    1.375919   -1.106524

FREQUENCIES 9
-295.3190
543.8580
890.0348
920.1735
1199.7722
1299.4664
1684.3441
2118.6242
2228.3282

SYMMETRY C1
ELECTRONIC_STATE 2-A
