4
Energy =   -398.961189169     
    S   -0.581829   -0.654386    0.049183
    H   -1.793518   -0.107894    0.519802
    H    0.470748   -0.915738    0.950367
    H   -0.422644   -0.939410   -1.322599

FREQUENCIES 6
-315.2985
987.6391
988.1415
2181.3476
2198.7721
2201.3669

SYMMETRY C1
ELECTRONIC_STATE 2-A
