7
Energy =   -836.051547848     
    S    1.385428   -0.221952    0.395588
    S   -1.357024    0.770325   -0.826260
    C    0.233154    0.961038   -0.152297
    H    0.757793    1.694591   -0.849010
    H   -1.484317   -0.592446   -0.822075
    H    0.120060    1.769380    0.642071
    H    2.335218    0.688412    0.762708

FREQUENCIES 15
-194.2020
292.1189
355.7269
518.7770
600.9205
870.0045
879.6765
910.9371
936.0390
1046.5488
1130.4562
2515.2690
2530.0147
2601.5389
2679.8279

SYMMETRY C1
ELECTRONIC_STATE 1-A
