7
Energy =   -836.053745007     
    S    1.517504    0.469419   -0.397724
    S   -1.522395    0.060006   -1.006466
    C   -0.206720    0.954984   -0.271091
    H    2.036745    1.703728   -0.671141
    H   -1.925917   -0.679976    0.084863
    H   -0.469444    1.929557    0.151083
    H    1.827506    0.514794    0.934848

FREQUENCIES 15
-5.7772
242.2644
310.2324
557.5877
586.4288
762.5988
866.1835
867.8297
905.1223
1149.8448
1176.8074
2422.5891
2491.7887
2513.0131
3056.3379

SYMMETRY C1
ELECTRONIC_STATE 3-A
