8
Energy =   -439.041666803     
    S    0.633603   -0.016858   -0.391532
    C   -1.181219    0.353900   -0.289770
    H   -1.768365   -0.232162   -1.077560
    H    0.935246    0.274199    0.908581
    H   -1.573381    1.028907   -1.161937
    H   -1.363704    1.440121    0.022930
    H   -1.779666   -0.052997    0.552294
    H    0.539396   -1.364375   -0.187960

FREQUENCIES 18
-435.1751
159.3745
487.1110
649.3767
766.2440
773.5451
974.8535
1036.9723
1165.4144
1197.2139
1309.5277
1393.6024
2445.4680
2525.0722
2527.6830
2631.3489
2751.0839
2931.9989

SYMMETRY C1
ELECTRONIC_STATE 1-A
