9
Energy =   -837.390815681     
    S   -0.841137   -0.731974    0.552706
    S    2.212048   -0.397778   -0.228595
    C    0.830894   -1.517123    0.270099
    H    0.749163   -2.259277   -0.524375
    H   -1.132458   -1.308055    1.750161
    H    1.637027    0.301541   -1.242543
    H    1.159405   -2.002029    1.189670
    H   -1.594275   -1.597485   -0.178302
    H    2.097196    0.595939    0.691771

FREQUENCIES 21
-120.3641
189.9261
242.2021
552.6922
654.7695
659.8562
835.6532
844.7672
892.1314
1001.3716
1177.7322
1182.4405
1230.9799
1296.7333
1408.7393
2556.9415
2564.7403
2567.5998
2579.6811
3065.7072
3134.2520

SYMMETRY C1
ELECTRONIC_STATE 1-A
