5
Energy =   -873.050055551     
    S   -1.508968    0.417852    0.015760
    S    1.194722   -0.264729   -0.289170
    C    0.121025    0.874308    0.543856
    C   -0.432900   -0.711086   -0.818700
    H   -0.710128   -1.508351   -1.491476

FREQUENCIES 9
-255.0329
231.9133
464.8546
632.4102
703.1151
804.0321
817.6030
1100.8762
3205.3814

SYMMETRY C1
ELECTRONIC_STATE 4-A
