3
Energy =   -436.410953135     
    S   -0.603493   -0.788484   -0.000000
    C   -1.318795    0.613454    0.000000
    H    0.027526   -2.037120   -0.000000

FREQUENCIES 3
-516.0997
1167.7422
2247.4054

SYMMETRY CS
ELECTRONIC_STATE 1-A'
