3
Energy =   -795.981802065     
    S   -1.047816    0.152541    0.000000
    S    0.780760   -0.059329   -0.000000
    H   -2.487723    0.435186    0.000000

FREQUENCIES 3
-1174.7174
762.9590
1783.5348

SYMMETRY CS
ELECTRONIC_STATE 2-A'
