3
Energy =   -796.605474465     
    S   -1.100723    0.162951    0.000000
    S    0.795308   -0.061354   -0.000000
    H   -2.449363    0.426801    0.000000

FREQUENCIES 3
-1265.6875
668.8474
2425.2297

SYMMETRY CS
ELECTRONIC_STATE 3-A"
