3
Energy =   -796.918484129     
    S   -1.275721    0.118088    0.000000
    S    0.735812   -0.025068   -0.000000
    H   -2.604050    0.251637    0.000000

FREQUENCIES 3
-1794.9551
538.4947
2718.1773

SYMMETRY CS
ELECTRONIC_STATE 2-A"
