3
Energy =   -796.567843745     
    S   -1.100225    0.161528   -0.000000
    S    0.802829   -0.061963    0.000000
    H   -2.457381    0.428835   -0.000000

FREQUENCIES 3
-1670.6844
652.3596
2341.3032

SYMMETRY CS
ELECTRONIC_STATE 1-A'
