3
Energy =   -796.565974947     
    S   -1.228595    0.115916    0.000000
    S    0.675723   -0.021222   -0.000000
    H   -2.591088    0.249962    0.000000

FREQUENCIES 3
-1787.3939
666.9909
2472.2231

SYMMETRY CS
ELECTRONIC_STATE 1-A'
