3
Energy =   -796.920914182     
    S   -1.149755    0.161614    0.000000
    S    0.867920   -0.067842    0.000000
    H   -2.472944    0.434625    0.000000

FREQUENCIES 3
-1634.0590
513.7088
2554.8316

SYMMETRY CS
ELECTRONIC_STATE 2-A"
