3
Energy =   -796.570694911     
    S   -1.075938    0.142393    0.000000
    S    0.840381   -0.041257    0.000000
    H   -2.448692    0.447169   -0.000000

FREQUENCIES 3
-1461.5998
632.8907
2121.5013

SYMMETRY CS
ELECTRONIC_STATE 1-A'
