3
Energy =   -796.924077311     
    S   -1.128992    0.140754    0.000000
    S    0.911291   -0.045286   -0.000000
    H   -2.466549    0.452836    0.000000

FREQUENCIES 3
-1366.7552
482.0644
2326.2265

SYMMETRY CS
ELECTRONIC_STATE 2-A"
