1
Energy =   -37.2381929198     
  C           -0.00000000         -0.00000000         -0.00000000

FREQUENCIES 0

SYMMETRY R3
ELECTRONIC_STATE 4-P
