1
Energy =   -37.4328483022     
  C           -0.00000000         -0.00000000         -0.00000000

FREQUENCIES 0

SYMMETRY SO3
ELECTRONIC_STATE 2-P
