2
Energy =   -75.9381105604     
    C    0.652985    0.000000    0.000000
    C   -0.652985    0.000000    0.000000

FREQUENCIES 1
1688.7231

SYMMETRY D*H
ELECTRONIC_STATE 3-PIU
