2
Energy =   -75.5003626548     
    C    0.703133    0.000000    0.000000
    C   -0.703133    0.000000    0.000000

FREQUENCIES 1
1340.0611

SYMMETRY D*H
ELECTRONIC_STATE 4-SGG
