3
Energy =   -150.832315783     
    C   -0.181106    0.107985   -1.008168
    C    0.483521   -0.081600    1.647563
    O    0.102330    0.027135    0.124391

FREQUENCIES 4
108.9154
140.1184
296.3478
1826.4490

SYMMETRY C*V
ELECTRONIC_STATE 2-PI
