3
Energy =   -151.234673377     
C  0.240393170  0.873125428  0.000000000
C  0.822122830 -0.504781428 -0.000000000
O -0.499495000 -0.250995000  0.000000000

FREQUENCIES 3
929.2816
952.5420
1415.2468

SYMMETRY C2V
ELECTRONIC_STATE 1-A1
