3
Energy =   -113.615630939     
C  0.760531620 -0.262473214  0.000000000
C -0.152958127  0.789876098 -0.000000000
C -0.607574492 -0.527403885 -0.000000000

FREQUENCIES 3
1177.2439
1177.2439
1557.7601

SYMMETRY D3H
ELECTRONIC_STATE 4-A1'
