3
Energy =   -113.639155899     
C -0.180340507  0.790412127 -0.000000000
C -0.530741493 -0.612852127  0.000000000
C  0.711081000 -0.177560000 -0.000000000

FREQUENCIES 3
720.7704
1230.2466
1662.0788

SYMMETRY C2V
ELECTRONIC_STATE 2-B2
