3
Energy =   -114.046213913     
    C   -0.073214   -0.787355    0.000000
    C    0.718477    0.330272    0.000000
    C   -0.645263    0.457083    0.000000

FREQUENCIES 3
1157.0326
1157.0326
1615.7428

SYMMETRY D3H
ELECTRONIC_STATE 3-A1'
