3
Energy =   -113.577089194     
C -1.242589   -0.241125   -0.000000
C  0.000000   -0.000000    0.000000
C  1.242589    0.241125    0.000000

FREQUENCIES 4
287.4847
398.4563
1340.9445
1920.3042

SYMMETRY D*H
ELECTRONIC_STATE 4-PIU
