3
Energy =   -113.630522336     
C       -1.276324    0.000000    0.054287
C       -0.032943    0.000000    0.000000
C        1.309173   -0.000000    0.058598

FREQUENCIES 3 
115.1231
1193.6938
2019.8052

SYMMETRY CS
ELECTRONIC_STATE 2-A'
