4
Energy =   -189.279308721     
C  0.007947426  1.775701742  0.043102301
C  0.282886040 -1.946681784 -0.022656508
C  0.189593337 -0.692138775 -0.000391706
O  0.094032648  0.604507863  0.022511935

FREQUENCIES 7
124.7710
124.7710
374.2303
374.2303
850.6383
1837.7982
2010.9723

SYMMETRY C*V
ELECTRONIC_STATE 1-SG
