4
Energy =   -188.897364306     
C  1.058827600 -0.817996615 -0.098192570
C  1.212981134  0.603771434  0.022860455
C -0.132696799  0.024661660  0.030130134
O -1.325905701  0.148604641  0.093897235

FREQUENCIES 6
418.1452
463.3009
802.4969
842.1775
1141.7308
1449.7499

SYMMETRY C2V
ELECTRONIC_STATE 4-A2
