4
Energy =   -189.044793634     
    C    1.893260   -0.477683   -0.061199
    C    0.732972   -0.121165   -0.033588
    C   -0.544047    0.270783   -0.002054
    O   -1.617254    0.600258    0.023945

FREQUENCIES 7
206.5324
206.5324
589.1080
589.1080
953.9922
2177.6025
2415.5837

SYMMETRY C*V
ELECTRONIC_STATE 2-SG
