4
Energy =   -189.291059573     
C -0.222703000  1.153148000  0.031326000
C  1.344466000 -1.085593000  0.022765000
C  0.448798129 -0.160793448  0.013457169
O -0.997408597  0.151745086 -0.048844127

FREQUENCIES 6
209.8771
289.8683
634.9363
800.3318
1344.4367
1876.2131

SYMMETRY CS
ELECTRONIC_STATE 1-A'
