4
Energy =   -189.341148373     
C  0.737207000 -0.099748000  0.130611000
C  1.871189000 -0.627925000  0.208242000
C -0.592351324 -0.095967346 -0.247555853
O -1.568375757  0.561972010 -0.219510860

FREQUENCIES 6
209.0159
231.1094
415.3645
840.3100
1641.2735
1960.8223

SYMMETRY CS
ELECTRONIC_STATE 3-A'
