4
Energy =   -188.909151899     
    C    0.810578    0.018239   -0.316326
    C    2.058272    0.269651    0.161533
    C   -0.496658   -0.078053    0.179906
    O   -1.619323   -0.251503    0.072645

FREQUENCIES 6
212.3815
256.9795
385.0885
718.3956
1282.8532
2070.6350

SYMMETRY C1
ELECTRONIC_STATE 4-A
