4
Energy = -151.706576795
C 0.020653 0.035426 -0.807359
C -0.021888 1.149444 -0.000000
C 0.020653 0.035426 0.807359
C -0.019418 -1.220295 0.000000
 
FREQUENCIES 6
279.5347 
409.2364 
569.3176
1109.2154 
1202.7237 
1286.2193
 
SYMMETRY CS
ELECTRONIC_STATE 2-A'
