4
Energy =   -152.063891213     
C  0.858845261  0.471636584  0.186740760
C -0.312947095  0.727714108 -0.606155635
C  0.385736214 -0.884537557  0.252446518
C -0.931634381 -0.314813134  0.166968358

FREQUENCIES 6
617.6085
644.9041
651.6545
720.1411
720.1411
1323.3393

SYMMETRY D2D
ELECTRONIC_STATE 3-A1
