4
Energy =   -151.716844965     
    C    0.000000   -0.000000    1.995751
    C   -0.000000    0.000000    0.628935
    C   -0.000000    0.000000   -0.628935
    C    0.000000   -0.000000   -1.995751

FREQUENCIES 7
125.0401
142.1696
213.5035
284.6582
888.7989
1324.5813
2142.5447

SYMMETRY D*H
ELECTRONIC_STATE 2-PIG
