9
Energy =   -229.765153622     
C  0.000000000  1.081711000  0.366126000
C -0.000000000 -1.081711000  0.366126000
O  0.000000000  0.000000000  1.169660000
C -0.000000000 -0.690493000 -0.992005000
C  0.000000000  0.690493000 -0.992005000
H  0.000000000  2.046796000  0.854964000
H -0.000000000 -2.046796000  0.854964000
H -0.000000000 -1.363219000 -1.837032500
H  0.000000000  1.363219000 -1.837032500

FREQUENCIES 21
476.4126
497.3887
765.9444
787.7640
837.8913
882.9477
898.0193
962.5461
1005.1948
1034.6187
1062.2400
1113.7558
1163.8420
1294.1573
1402.2716
1444.9201
1510.8751
3241.0188
3249.3619
3251.8725
3262.9547

SYMMETRY C2V
ELECTRONIC_STATE 2-A2
