9
Energy = -230.037329338
C 2.161463 -0.464824 0.000000
C -1.373631 0.171777 0.000000
O -1.467886 -1.024312 0.000000
C -0.072786 0.967355 0.000000
C 1.150181 0.182498 0.000000
H -0.111066 1.635191 -0.871878
H -2.276868 0.819729 0.000000
H -0.111066 1.635191 0.871878
H 3.051303 -1.045631 0.000000
 
FREQUENCIES 21
142.3303 
149.0050 
321.1239
376.9225 
681.4329 
692.5779
713.9429 
735.3693 
829.9228
1017.2081 
1045.3044 
1235.4546
1324.5802 
1411.7413 
1436.8542
1822.8957 
2230.4161 
2879.4515
3003.1990 
3024.5136 
3476.9665
 
SYMMETRY CS
ELECTRONIC_STATE 1-A'
