9
Energy =   -230.047398163     
    O   -2.963557    1.001641    0.280930
    C    1.821420   -0.038642    0.000069
    C    0.369007   -0.009741   -0.001118
    C   -0.837864    0.040263    0.006176
    C   -2.277758    0.043374   -0.002294
    H    2.205545    0.152463    1.006325
    H    2.219925    0.736770   -0.660487
    H    2.201828   -1.006810   -0.335251
    H   -2.738646   -0.919318   -0.294350

FREQUENCIES 21
8.9084
131.7763
169.4251
339.0514
393.9844
564.8408
816.9591
1007.4984
1043.7561
1055.3032
1164.8459
1411.4987
1414.2405
1470.1465
1473.3571
1738.5285
2320.4604
2929.3715
3028.2251
3087.1775
3093.6230

SYMMETRY C1
ELECTRONIC_STATE 1-A
