9
Energy = -229.699833662
C 1.166202 0.307795 0.156246
C -1.867270 -0.734861 -0.429447
O 2.069313 -0.261669 0.487487
C -1.237568 0.126544 0.317935
C -0.053457 0.955469 -0.233609
H -0.027840 1.980717 0.159791
H -2.709484 -1.409011 -0.442349
H -1.505398 0.334025 1.354661
H -0.048981 1.004641 -1.330711
 
FREQUENCIES 21
72.8232 
202.6703 
380.7416
408.2428 
539.1998 
664.0350
685.0640 
846.0568 
864.5191
902.3244 
960.8387 
1193.0996
1239.8414 
1259.5930 
1391.8039
1638.5908 
2336.2090 
3018.3125
3064.7031 
3097.3722 
3276.5820
 
SYMMETRY C1
ELECTRONIC_STATE 2-A
