9
Energy =   -229.996528943     
O  0.064882000 -0.493030000  0.000454000
C  1.079827000  0.466295000  0.000027000
C  2.348408011  0.091849043  0.000047627
C -1.167163012 -0.073536049  0.000414298
C -2.317790004  0.266580983  0.000395417
H  0.720816989  1.488273954 -0.000301541
H  3.123213008  0.845484033 -0.000285843
H  2.633809021 -0.952203916  0.000390402
H -3.336800949  0.561587206  0.000380882

FREQUENCIES 21
72.0767
178.0842
433.9114
439.7456
551.5998
576.9835
665.5922
693.6579
853.9109
887.1741
964.9496
1122.2380
1186.4193
1333.9310
1413.4241
1701.8162
2271.2173
3164.6394
3197.6387
3261.1233
3491.2775

SYMMETRY CS
ELECTRONIC_STATE 1-A'
