9
Energy =   -230.028206022     
    O    0.909222    1.434360   -0.000000
    C    0.337909    0.188084    0.000000
    C    1.019902   -0.965732    0.000000
    C   -1.089972    0.247729    0.000000
    C   -2.291745    0.301142    0.000000
    H    2.103973   -0.983430    0.000000
    H    0.495173   -1.909363    0.000000
    H    1.868959    1.341139   -0.000000
    H   -3.353419    0.346171    0.000000

FREQUENCIES 21
196.8659
266.8011
341.1436
448.4715
586.2518
629.1329
659.7820
699.7496
716.1236
814.2326
827.7069
974.1496
1182.3012
1358.7745
1440.2422
1668.7802
2217.6971
3151.7433
3255.9884
3477.0728
3817.9202

SYMMETRY CS
ELECTRONIC_STATE 1-A'
