9
Energy =   -229.710236005     
O  1.703747628  0.706803465  0.002161584
C -0.729271883 -0.170194833 -0.000869881
C  0.768357836 -0.016409235  0.000541198
C  0.045552027 -1.234253962 -0.001487495
C -1.949042606  0.633653565 -0.000924294
H  0.207661017 -2.307898976 -0.002619567
H -1.975091224  1.273024727  0.886828714
H -2.814275932 -0.037136902 -0.002425293
H -1.973634380  1.275115276 -0.887209539

FREQUENCIES 21
87.9262
212.0916
330.4513
428.7994
539.4355
541.3320
756.1426
834.1756
928.4437
1016.7969
1031.0062
1033.9102
1384.4749
1416.9213
1438.4042
1652.1715
1878.1311
3022.1186
3103.0487
3105.4686
3196.9435

SYMMETRY CS
ELECTRONIC_STATE 2-A'
