9
Energy =   -229.680544036     
C  3.187226804  3.400151677  0.909566124
C  3.043392246  1.940922519  0.666581347
O  3.954271092  1.256850995  0.180375725
C  1.904389285  1.145105525  0.937663711
C  0.979891665  0.387310622  1.134873110
H  4.170677984  3.759003748  0.608526932
H  3.014356643  3.576230143  1.978606830
H  2.393815484  3.908922498  0.347973318
H  0.138290420 -0.248805421  1.325361816

FREQUENCIES 21
111.1481
134.7531
226.2086
329.0081
484.5686
558.6143
756.8445
768.5260
805.7776
985.5475
1004.9112
1134.6717
1325.7500
1420.1439
1432.7597
1537.5744
2168.1400
3012.6706
3076.2603
3154.5725
3397.7643

SYMMETRY CS
ELECTRONIC_STATE 2-A'
