9
Energy =   -229.697918147     
    O    2.729998    0.859048    0.000000
    C    0.745573   -0.446629    0.000000
    C    1.520219    0.798069    0.000000
    C   -0.569210   -0.398129    0.000000
    C   -1.867607   -0.397313    0.000000
    H    1.318592   -1.369341    0.000000
    H    0.976818    1.764193    0.000000
    H   -2.427242   -0.404949    0.933984
    H   -2.427242   -0.404949   -0.933984

FREQUENCIES 21
136.6346
178.9342
267.9212
401.7750
421.7445
489.4290
692.5877
753.4035
893.3312
947.5237
953.3269
1103.6356
1176.6617
1263.5882
1376.7467
1463.3110
1893.8882
2909.9913
3104.3831
3163.6171
3189.2097

SYMMETRY CS
ELECTRONIC_STATE 2-A'
