9
Energy =   -230.087883759     
    C   -0.000000   -1.095313    0.318830
    C    0.000000    1.095313    0.318830
    O   -0.000000    0.000000    1.130286
    C    0.000000    0.717701   -0.985871
    C   -0.000000   -0.717701   -0.985871
    H   -0.000000   -2.049676    0.817177
    H    0.000000    2.049676    0.817177
    H    0.000000    1.373120   -1.842140
    H   -0.000000   -1.373120   -1.842140

FREQUENCIES 21
609.4673
618.5237
730.5128
754.9002
849.8190
879.7344
887.1563
893.2482
1011.4794
1056.6594
1083.0190
1162.5121
1195.4155
1283.8074
1409.0639
1506.0013
1587.6931
3240.8979
3251.6762
3277.3213
3283.5375

SYMMETRY C2V
ELECTRONIC_STATE 1-A1
