9
Energy =   -229.720812696     
    O   -2.558674   -1.565194    0.022944
    C    1.030426   -0.246338    0.056204
    C    0.247568    1.028608   -0.067929
    C   -0.453849   -0.279100    0.004982
    C   -1.588074   -0.972387    0.014575
    H    1.468500   -0.515118    1.015323
    H    1.534923   -0.653160   -0.817876
    H    0.192520    1.532556   -1.030755
    H    0.126561    1.670232    0.802533

FREQUENCIES 21
128.9839
169.8437
459.9500
588.5102
608.5704
720.8383
860.5487
896.8702
1011.6812
1020.8375
1079.1472
1108.1687
1178.6958
1422.8441
1434.6257
1490.8267
2238.7008
3086.7098
3094.3126
3172.8665
3187.7339

SYMMETRY C1
ELECTRONIC_STATE 2-A
