5
Energy =   -227.267522178     
C  0.096537058 -0.162051427 -0.837334919
C  0.262321058  0.159983573  0.789217081
C  1.378935766 -0.124518937 -0.121868595
C -0.599042095  1.031080161 -0.149058795
O -0.832760591 -0.625514528  0.202745671

FREQUENCIES 9
281.5877
468.7343
524.4178
596.0517
706.3987
870.0186
902.4797
1162.2704
1221.9023

SYMMETRY CS
ELECTRONIC_STATE 1-A'
