5
Energy =   -227.093283916     
C  0.001182000  0.100709000  0.065982000
C  0.376118000 -0.647512000  1.318569000
C -0.210810802  0.619005043  1.267982263
C  0.002166787  0.030202314 -1.305405353
O  0.013331261 -0.049747017 -2.424735932

FREQUENCIES 9
188.2063
227.4739
493.9800
610.8810
641.2149
786.4162
1145.4010
1722.6253
2323.2745

SYMMETRY CS
ELECTRONIC_STATE 2-A'
