5
Energy =   -227.295019132     
C  0.657768219 -0.278976792  0.062797314
C -0.702249557  0.144923136 -0.090721571
C -1.977311479 -0.107036430 -0.290634069
C  1.579491073 -1.215645722  0.110858008
O  0.316489308  1.072456856  0.131611238

FREQUENCIES 9
162.4676
286.2559
286.9588
393.0065
701.3192
818.0543
961.1039
1571.3516
1906.3743

SYMMETRY C2V
ELECTRONIC_STATE 1-A1
