2
Energy =   -113.134185911     
    C   -0.767128    0.000000    0.000000
    O    0.436505    0.000000    0.000000

FREQUENCIES 1
1783.1219

SYMMETRY C*V
ELECTRONIC_STATE 3-PI
