2
Energy =  -0.609495413580     
    H    0.554306    0.000000    0.000000
    H   -0.554306    0.000000    0.000000

FREQUENCIES 1
2048.4590

SYMMETRY D*H
ELECTRONIC_STATE 2-SGG
