3
Energy =   -39.1661175374     
C -0.112091000 -0.022174000 -0.000000000
H  0.642433491  0.750298493 -0.000000000
H -1.191737491 -0.041780493  0.000000000

FREQUENCIES 3
1040.1837
3119.1825
3363.2656

SYMMETRY C2V
ELECTRONIC_STATE 3-B1
