5
Energy =   -152.229954624     
    C    1.097309    0.271182   -0.714181
    C   -0.046150    0.291124   -0.237031
    H    2.086298    0.294274   -1.134296
    H   -1.696150    1.002587    0.365366
    O   -1.176130    0.172384    0.256338

FREQUENCIES 9
379.8798
449.5195
612.9917
627.3281
1160.0291
1210.5510
2203.7549
3358.2706
3541.8360

SYMMETRY C1
ELECTRONIC_STATE 2-A
