5
Energy =   -152.147665672     
C  0.147470000  0.419504000  0.001341000
C  1.498106000  0.105030000 -0.123687000
H  2.122045505 -0.742669090 -0.392655244
H -0.147315553  1.455169090  0.319402739
O -0.841066309 -0.303540875 -0.193768718

FREQUENCIES 9
468.3058
667.4554
771.8586
812.7665
1137.0292
1189.3499
1460.5347
2777.9535
3203.1315

SYMMETRY CS
ELECTRONIC_STATE 4-A"
