5
Energy =   -152.111225427     
C  0.801989000 -0.525386000  0.423232000
C  0.069285000  0.540687000 -0.051253000
H  1.858342925 -0.383008532  0.689159047
H  0.371752102 -1.530547597  0.550763222
O -1.182685252  0.375659383 -0.367349704

FREQUENCIES 9
383.1408
575.2289
800.8478
882.9953
1235.1174
1303.4208
1466.1629
2971.3531
3070.0416

SYMMETRY CS
ELECTRONIC_STATE 4-A"
