4
Energy =   -76.8725442253     
C  0.895915478 -0.268126472 -0.189177180
C -0.414735419 -0.133883462  0.041271158
H -1.080120360 -0.992228401 -0.161007867
H -0.754394360  0.662213599  0.727763133

FREQUENCIES 6
479.3368
737.7791
969.7593
1285.0379
2965.5749
3048.8588

SYMMETRY CS
ELECTRONIC_STATE 2-A'
