5
Energy =   -152.592576050     
    C    1.265170   -0.126944   -0.277112
    C    0.087132    0.011706   -0.098965
    H    2.307345   -0.241983   -0.437720
    H   -1.543651    0.944013   -0.159904
    O   -1.199497    0.088240    0.126607

FREQUENCIES 9
395.5425
443.9812
553.6248
651.2914
1084.6606
1242.6425
2278.4261
3492.8055
3784.1596

SYMMETRY C1
ELECTRONIC_STATE 1-A
