4
Energy =   -77.2182722496     
C  0.618175077  0.356870634 -0.036042879
C -0.273914077 -0.626879634 -0.013947121
H  0.637754513  1.278846488  0.553120937
H -1.176163513 -0.721449488  0.598049063

FREQUENCIES 6
794.8701
818.0481
1088.5432
1627.1050
3027.7306
3068.4854

SYMMETRY C2V
ELECTRONIC_STATE 3-B2
