5
Energy =   -115.321375609     
C  0.017663000 -0.714851000  1.131524000
C -0.070968000  0.286741000  0.234860000
C -0.491262134  1.207069295 -0.564969891
H -0.864847062 -1.150342835  1.586855571
H  0.990112675 -1.104990708  1.414130121

FREQUENCIES 9
358.2067
440.9259
648.4946
914.3100
1001.9626
1361.4858
1445.0995
3125.5048
3214.0464

SYMMETRY CS
ELECTRONIC_STATE 3-A"
