5
Energy =   -115.273687510     
C  0.798557000  0.000059120  0.000033003
C -0.630740005  0.644438958 -0.000288794
C -0.630646995 -0.644527042  0.000203793
H  1.375821266 -0.000251809 -0.922582004
H  1.375723734  0.000453374  0.922708995

FREQUENCIES 9
598.9196
641.7818
910.1011
978.4429
1017.3283
1499.0332
1738.8818
3062.3953
3138.1278

SYMMETRY C2V
ELECTRONIC_STATE 3-B2
