5
Energy =   -115.367915768     
C -0.887597837  0.614836073  0.780482124
C  0.541399908 -0.069476625 -1.289937136
C -0.183974071  0.277887552 -0.238970987
H  0.080936146 -0.426315859 -2.209671700
H  1.628559854 -0.012747141 -1.278198300

FREQUENCIES 9
250.4661
298.7231
1045.5343
1050.9090
1145.5714
1484.6143
2041.6304
3093.2779
3170.9580

SYMMETRY C2V
ELECTRONIC_STATE 1-A1
