6
Energy =   -190.048703817     
    C   -1.878593    0.889833    0.218660
    C   -0.875467    0.363272   -0.167978
    C    1.540972    0.214446    0.174826
    H    0.264485   -1.185650   -0.725442
    H    2.176133    0.890479   -0.403656
    O    0.307611   -0.249599   -0.415619

FREQUENCIES 12
146.3689
154.0346
281.3764
364.2537
475.1704
866.7185
987.9101
1085.9811
1398.9189
2227.3018
3113.8808
3503.3081

SYMMETRY C1
ELECTRONIC_STATE 4-A
