5
Energy =   -115.374250221     
    C    0.000000   -0.000000    0.000000
    C    1.268723   -0.000000   -0.000000
    C   -1.268723   -0.000000   -0.000000
    H   -2.331381    0.000000    0.000000
    H    2.331381    0.000000    0.000000

FREQUENCIES 10
-101.9219
-101.9219
90.1087
90.1087
430.1311
430.1311
1285.8986
1717.9755
3447.1108
3458.3397

SYMMETRY D*H
ELECTRONIC_STATE 3-SGG
