5
Energy =   -114.950249029     
    C    1.254728    0.720729    0.308437
    C   -0.032610    0.889713    0.128271
    C   -1.319503    1.058096   -0.054654
    H   -2.384144    0.916527   -0.133275
    H    2.318363    0.864427    0.396377

FREQUENCIES 9
121.1284
154.8065
296.8080
406.8360
442.8552
1188.0080
1689.7227
3303.7809
3318.9123

SYMMETRY C1
ELECTRONIC_STATE 4-A
