5
Energy = -115.045148472
C 0.000000 0.000000 1.261398
H 0.000000 0.000000 2.338108
C 0.000000 0.000000 0.000000
C 0.000000 0.000000 -1.261398
H 0.000000 0.000000 -2.338108
 
FREQUENCIES 10
282.6523 
297.9340 
304.4091
398.5754 
896.6140 
909.8121
1304.4059 
1929.9834 
3333.7321
3336.5592  
 
SYMMETRY D*H
ELECTRONIC_STATE 2-PIG
