6
Energy =   -190.639150677     
C -0.640415000  0.271273000 -0.272871000
C -1.897241000  0.195543000 -0.118166000
C  0.682607896  0.384152730 -0.452783997
H  1.135540086 -1.258961490  0.350804128
H  1.154215446  1.237011181 -0.934969187
O  1.583918795 -0.510241216 -0.075667936

FREQUENCIES 12
180.0318
207.2353
597.4359
711.3315
992.0807
1037.2473
1251.7379
1340.4769
1491.3177
2072.6899
3161.1004
3722.1109

SYMMETRY CS
ELECTRONIC_STATE 1-A'
