6
Energy =   -153.088431401     
C  1.547302000  0.037746000  0.000713000
C  0.287860000 -0.129781000  0.000258000
C -1.010354000  0.558544000 -0.000056055
C -1.044383000 -0.766985000 -0.000306084
H  2.610722000  0.204877000  0.001101804
H -1.295770001  1.604281999  0.000035862

FREQUENCIES 12
287.1126
392.8859
532.6823
589.0923
711.7123
789.5341
842.1301
960.4510
1494.0333
1684.9124
3240.8068
3328.2639

SYMMETRY CS
ELECTRONIC_STATE 2-A"
