7
Energy =   -228.490557367     
C  1.564402000  0.961289000 -0.007662000
C -0.563712000 -0.090903000  0.153913000
C  0.207682017  0.961032220 -0.254417082
C -1.281338903 -1.018110277  0.506967469
H -1.909710146 -1.828991212  0.815586748
H -0.191266821  1.829191677 -0.779860155
O  2.674331976  0.977930139  0.185637172

FREQUENCIES 15
133.9322
358.1096
372.7004
458.7636
641.0227
694.2210
707.0423
730.1915
980.8734
1138.7908
1374.3662
2093.1275
2300.0969
3125.4096
3394.7388

SYMMETRY CS
ELECTRONIC_STATE 2-A"
