6
Energy =   -153.400861515     
C  1.073981747 -0.000068226  0.123978987
C  0.000003617 -0.896317741 -0.135081114
C -1.074092230  0.000058731  0.123050016
C  0.000109573  0.896304258 -0.135094888
H  2.148038858 -0.000132088  0.074724968
H -2.148106338  0.000121826  0.072867029

FREQUENCIES 12
582.8975
588.6917
660.9299
821.9720
839.8169
1035.9353
1073.3792
1149.9383
1205.5225
1314.5532
3291.7316
3298.1105

SYMMETRY C2V
ELECTRONIC_STATE 3-A2
