6
Energy =   -153.105391732     
C -0.803456061  0.135943575 -0.645933427
C  0.703021679  0.035855901  1.462183315
C -1.577281633  0.187355155 -1.728800169
C -0.069281985  0.087166369  0.381446281
H  1.589688681  0.668829012  1.540532363
H  0.460544319 -0.639916012  2.285292637

FREQUENCIES 12
82.5765
144.1128
374.2847
400.3416
898.3589
935.3439
954.4302
1362.3843
1512.7524
2077.0600
3072.4522
3168.1948

SYMMETRY C2V
ELECTRONIC_STATE 2-B1
