6
Energy =   -153.018420044     
C  1.571121000 -0.412783000 -0.000019000
C  0.596502000  0.551300000 -0.000014000
C -0.724136000  0.158182000  0.000002810
C -1.867337000 -0.313209000  0.000018135
H  1.633775000 -1.497085000 -0.000013285
H  0.850253000  1.612305000 -0.000023049

FREQUENCIES 12
166.6073
367.9782
436.2401
780.8765
829.3063
847.7363
1066.2392
1253.1504
1426.6147
2059.0046
3120.6693
3209.2662

SYMMETRY C1
ELECTRONIC_STATE 4-A
