6
Energy =   -153.465193413     
C  0.933596872  0.699012954  1.100344947
C -0.885589135 -0.430466234 -0.356418730
C -1.785999940 -0.989504871 -1.077447670
C  0.019988204  0.131780151  0.368747453
H  1.418554807  0.154831259  1.904470044
H  1.229225193  1.727837741  0.921295956

FREQUENCIES 12
165.1547
209.2774
422.5523
522.8867
790.6489
924.1949
949.1903
1373.2564
1744.9462
2160.1399
3130.6806
3210.5551

SYMMETRY C2V
ELECTRONIC_STATE 1-A1
