7
Energy =   -228.699780645     
    C    0.908921   -0.780739    0.212181
    C   -2.805649    0.339762   -0.081599
    C   -0.346897   -0.403800    0.113120
    C   -1.577920   -0.043626    0.017662
    H    1.751126    0.931569   -0.044443
    H    1.153373   -1.821440    0.392460
    O    2.008532    0.014782    0.114778

FREQUENCIES 15
127.3594
194.9410
283.2553
389.5046
440.1221
629.5589
782.9430
886.1201
1160.0817
1265.9959
1383.4737
1718.5914
2133.3256
3185.6064
3805.3310

SYMMETRY C1
ELECTRONIC_STATE 1-A
