6
Energy =   -153.071755572     
    C    0.706442    0.154793   -0.776620
    C   -0.665392    0.536613   -0.633520
    C   -0.622836   -0.404521    0.398786
    C    0.668331    0.050780    0.624033
    H    1.380234   -0.175807   -1.561677
    H   -1.330790    1.335669   -0.945597

FREQUENCIES 12
56.4626
556.9770
779.0851
829.0080
941.9726
1057.6342
1075.3543
1294.7090
1321.2717
1430.9317
3195.6101
3214.5766

SYMMETRY C1
ELECTRONIC_STATE 2-A
