6
Energy =   -153.025039339     
C  1.103077103  0.000056598  0.131506635
C -0.000079557 -0.853588639 -0.143283592
C -1.103010896  0.000137715  0.132158324
C -0.000017216  0.853322159 -0.144709371
H  2.181544292 -0.000031708  0.072944087
H -2.181512500  0.000128720  0.074232956

FREQUENCIES 12
563.3605
612.7542
692.2874
864.5642
888.0168
925.2948
1012.5881
1169.9190
1196.7558
1319.5922
3252.8648
3266.0484

SYMMETRY C2V
ELECTRONIC_STATE 4-A2
