4
Energy =   -114.433976555     
C  0.442767114 -0.164967734 -0.350067040
H  0.768545138 -1.215902030 -0.306213393
H  0.460757138  0.266794970 -1.362872393
O -0.654276103  0.077420679  0.309602079

FREQUENCIES 6
739.6950
864.4255
1280.8120
1290.1036
2923.7873
3014.5935

SYMMETRY CS
ELECTRONIC_STATE 3-A"
