4
Energy =   -114.044011818     
C  0.938533411 -0.259995887  0.316412485
H -0.318365161  0.623766102 -1.117371793
H -0.666392031  1.089041999  0.460903791
O -0.100235733  0.550453534 -0.151567989

FREQUENCIES 6
578.9462
865.7286
938.7832
1624.2302
3388.9881
3474.2026

SYMMETRY C2V
ELECTRONIC_STATE 2-B2
