4
Energy =   -113.935327993     
    C    0.823072    0.127611    0.074044
    H    1.020649    1.013288    0.697087
    H   -0.857265   -0.963218    0.715450
    O   -0.629319   -0.241972    0.054783

FREQUENCIES 6
485.0540
717.6528
977.5017
1032.8699
3015.8636
3347.6313

SYMMETRY C1
ELECTRONIC_STATE 4-A
