4
Energy =   -114.541848958     
C  0.113356025  0.220640244 -0.407603887
H  0.664453922 -0.485410892 -1.060200910
H  0.351826100  1.294429504 -0.542543216
O -0.694668958 -0.155694159  0.398341986

FREQUENCIES 6
1202.1526
1259.7416
1530.9484
1814.9543
2884.6128
2942.5507

SYMMETRY C2V
ELECTRONIC_STATE 1-A1
