3
Energy =   -75.9790393662     
H -0.607215140  0.980387392 -0.000000000
H -0.979083860 -0.927113392  0.000000000
O -0.409191000 -0.048216000 -0.000000000

FREQUENCIES 3
979.0006
2807.3053
2947.8156

SYMMETRY C2V
ELECTRONIC_STATE 2-B1
