3
Energy =   -76.4585307393     
H  0.653684566  0.804541692 -0.000000000
H  1.197188434 -0.622688692  0.000000000
O  0.378735000 -0.117263000  0.000000000

FREQUENCIES 3
1601.8978
3818.9376
3924.3421

SYMMETRY C2V
ELECTRONIC_STATE 1-A1
