6
Energy =   -153.075898353     
    C    0.441893    0.277993   -0.412726
    C    0.977180   -1.059147   -0.074598
    H    0.936376   -1.420455    0.953061
    H    1.071694   -1.810616   -0.857144
    H   -1.339841    0.795876    0.133024
    O   -0.872192    0.457809   -0.648992

FREQUENCIES 12
373.1711
422.3531
472.9552
640.6009
957.0735
1015.1359
1127.0269
1276.6473
1424.1261
3057.6467
3152.0322
3636.0404

SYMMETRY C1
ELECTRONIC_STATE 4-A
