6
Energy =   -152.800772981     
C       -1.170245    0.951516   -0.326003
C        0.551038   -0.720833    0.377558
H        1.134335   -0.477417    1.259745
H       -0.875283    1.715776   -1.068527
O       -0.216098    0.186057   -0.068699
H        0.576230   -1.655068   -0.174084

FREQUENCIES 12
229.7897
393.7876
908.3641
935.9669
1027.8052
1124.3284
1195.3462
1479.3308
1648.7010
3001.9167
3116.3528
3280.8118

SYMMETRY CS
ELECTRONIC_STATE 1-A'
