6
Energy =   -153.183186904     
    C    0.071685   -0.036961   -0.072400
    C    0.869003   -1.060460   -0.301321
    H    0.709967   -1.713681   -1.158605
    H    1.710283   -1.259316    0.348614
    H   -1.139585    1.263073   -0.739751
    O   -1.093415    0.305679   -0.626254

FREQUENCIES 12
353.6553
445.6944
625.1724
826.0502
960.0848
1121.1608
1220.5737
1404.1877
1707.0173
3092.0688
3220.6278
3800.5620

SYMMETRY C1
ELECTRONIC_STATE 2-A
