6
Energy =   -152.969678038     
C  0.798696480 -0.720603882 -0.057337946
C -0.504756345 -0.245635227  0.270203766
H  1.531363202 -0.176766946  0.554026534
H  0.841872052 -1.796542809  0.159034327
H  0.978266912 -0.536647285 -1.125158200
O -1.523582237  0.125617460  0.526222219

FREQUENCIES 12
418.6593
418.6611
909.2589
1027.9186
1027.9188
1363.2153
1396.4473
1396.4475
2385.0485
2998.4021
3080.3845
3080.3847

SYMMETRY C3V
ELECTRONIC_STATE 1-A1
