6
Energy =   -115.863258856     
    C    0.517629    0.696291    0.165709
    C   -0.486343   -0.429435   -0.260735
    C   -0.898815    0.812175    0.431095
    H    1.272526    0.394247    0.895826
    H   -0.398531   -1.426424    0.179302
    H    0.922567    1.325192   -0.635729

FREQUENCIES 12
711.3536
732.4577
778.5266
974.8065
985.9336
1000.8541
1045.6344
1245.8337
1405.8349
3002.9460
3046.8077
3072.0172

SYMMETRY C1
ELECTRONIC_STATE 4-A
