7
Energy = -191.010971448
C -0.158702 1.904009 -0.000000
C 0.104727 0.722528 -0.000000
C 0.487251 -0.606450 0.000000
H -0.402549 2.948038 -0.000000
H -1.259930 -1.367133 0.000000
H 1.540646 -0.886939 0.000000
O -0.309768 -1.601644 0.000000
 
FREQUENCIES 15
207.0819 
255.5958 
606.4734
742.8460 
784.1864 
849.0548
1023.4862 
1055.4492 
1243.1087
1413.5389 
1567.1423 
2195.4234
3158.5256 
3398.0252 
3639.4146
 
SYMMETRY CS
ELECTRONIC_STATE 1-A'
