6
Energy =   -115.609230360     
C  1.065277000 -0.156745000  0.722667000
C -0.246299000 -0.184671000  0.350381000
C -0.824664833  0.920370398 -0.187889561
H  1.800109234 -0.829828578  1.161840963
H -0.833319002 -1.103975454  0.487366458
H -0.580761233  1.944006260 -0.459644694

FREQUENCIES 12
139.0638
427.3468
736.8532
765.3836
866.3771
910.0929
1227.2676
1289.8043
1535.7681
3011.7029
3183.7972
3208.1938

SYMMETRY CS
ELECTRONIC_STATE 3-A'
