7
Energy =   -191.026469682     
C  1.245231000 -0.330707000  0.009922000
C  0.610844000  0.218261000 -1.058776000
C -0.131116077 -0.266022951 -0.010604956
H  2.178314213 -0.601026247  0.485902326
H -1.301492104 -0.883052415  1.343099314
H  0.685867103  0.690741804 -2.028860128
O -1.297830580 -0.454301421  0.468016185

FREQUENCIES 15
459.9798
492.0255
619.3711
859.7733
865.5062
993.4755
1008.8822
1021.9114
1189.7446
1373.8844
1444.7475
1875.5384
3237.1577
3269.3613
3695.0340

SYMMETRY CS
ELECTRONIC_STATE 1-A'
