6
Energy =   -116.039757124     
C  0.041120028  0.028487228  0.723456272
C  1.030941757 -0.567468714  1.124520545
C -1.065496239  0.694763307  0.275068208
H  1.890838445 -1.085198852  1.472940699
H -1.946247739  0.153399937 -0.048103128
H -1.083098261  1.777011063  0.234237128

FREQUENCIES 12
357.6675
411.2186
478.8472
645.3332
692.8996
1031.3859
1088.3164
1454.0731
2007.6967
3139.6054
3230.8220
3467.1612

SYMMETRY C2V
ELECTRONIC_STATE 2-B1
