7
Energy =   -153.632383182     
C -0.303147000 -0.001985996 -0.000003933
C -0.391975999  1.342881989 -0.000498865
C -1.367926998 -0.823294036  0.000275868
C  1.269877998 -0.317965968  0.000143496
H  1.822591997  0.627087054 -0.000191955
H  1.457961043 -0.870715198  0.920126092
H  1.457997954 -0.871389744 -0.919425929

FREQUENCIES 15
122.1473
164.5498
269.6251
301.4574
678.4764
976.7730
1010.4218
1210.0567
1411.1301
1422.0944
1447.5207
1685.5277
3029.5593
3128.0959
3183.1488

SYMMETRY CS
ELECTRONIC_STATE 1-A'
