7
Energy =   -153.686801090     
C  1.741756006  0.000679549  0.009493782
H  2.032782004  0.021259447 -1.062115163
H  2.163274426  0.903931437  0.469111933
H  2.164166578 -0.919027709  0.434344890
C  0.331805010 -0.000198350  0.019344593
C -0.938344002 -0.000500171  0.002577073
C -2.201404015 -0.000971543 -0.005118419

FREQUENCIES 15
166.3058
197.1923
356.8013
443.2055
550.0293
811.9219
935.0170
1271.9148
1317.3545
1421.5373
1558.1329
1984.3580
2922.0162
3012.2767
3051.7029

SYMMETRY CS
ELECTRONIC_STATE 3-A"
