7
Energy =   -153.944373202     
    C    1.203356    0.657923   -0.104688
    C    1.202710   -0.657289   -0.106300
    C   -0.049954   -0.000506    0.431696
    C   -1.443453   -0.000061   -0.104042
    H   -1.465382    0.008889   -1.202703
    H   -1.979262   -0.887022    0.246609
    H   -1.984762    0.877542    0.261242

FREQUENCIES 15
132.4218
347.9247
372.2666
505.0114
771.3060
1016.7261
1036.4814
1192.6761
1385.4550
1463.5975
1467.3462
1629.5304
2980.8644
3061.3822
3084.9995

SYMMETRY C1
ELECTRONIC_STATE 4-A
