7
Energy =   -153.762169462     
    C    0.594412   -0.978688    0.000000
    H    1.492536   -1.582027   -0.000000
    C   -0.750087   -0.883470    0.000000
    H   -1.721759   -1.359874   -0.000000
    C    0.000799    0.286995    0.000000
    C    0.057484    1.659814    0.000000
    H    0.814656    2.432706   -0.000000

FREQUENCIES 15
358.6162
407.7965
598.1765
794.2011
820.0109
861.8042
968.5575
999.3782
1018.4580
1162.6906
1419.4455
1711.5710
3229.1863
3241.1142
3266.2618

SYMMETRY CS
ELECTRONIC_STATE 3-A"
