7
Energy =   -153.773533176     
C  0.000048095 -1.891563000  0.000000000
H  0.934741145 -2.454380724  0.000000000
H -0.934654856 -2.454364278  0.000000000
C  0.000059996 -0.538880000  0.000000000
C  0.000071223  0.737323000 -0.000000000
C  0.000082346  2.001640000 -0.000000000
H  0.000091784  3.074451998 -0.000000000

FREQUENCIES 15
107.3140
209.8199
232.6890
364.6401
487.1052
745.0041
899.1789
994.1208
1011.1394
1437.2093
1555.6769
2007.5343
3075.2156
3172.9657
3364.8873

SYMMETRY C2V
ELECTRONIC_STATE 3-A2
