7
Energy =   -154.022534629     
    C    0.000109   -1.068026   -0.000000
    C    1.041872   -0.079134   -0.000000
    C   -0.000088    0.915787    0.000000
    H   -0.000196    1.998777   -0.000000
    C   -1.041851   -0.079341   -0.000000
    H   -2.119183   -0.076125    0.000000
    H    2.119203   -0.075704    0.000000

FREQUENCIES 15
491.5879
594.4686
613.2322
644.9016
851.6542
918.3700
940.4135
1087.2030
1223.0960
1253.0023
1264.0851
1290.8505
3188.7880
3262.6958
3270.2374

SYMMETRY C2V
ELECTRONIC_STATE 4-B2
