8
Energy = -229.116541886
C -1.416266 0.610381 -0.137995
C 0.917219 -0.127571 0.459822
O 1.994323 -0.180960 0.148827
C -0.428396 -0.060857 0.848349
C -1.474803 -0.660657 -0.123727
H -1.721895 1.610907 -0.396527
H -0.561835 -0.042667 1.930056
H -1.870907 -1.634645 -0.359843
 
FREQUENCIES 18
189.7818 
205.9455 
615.6618
625.3806 
704.4506 
733.0780
833.3885 
905.7526 
913.7760
960.3827 
1011.0247 
1024.5678
1319.3687 
1776.1064 
2318.0550
3108.8883 
3262.8370 
3324.0468
 
SYMMETRY C1
ELECTRONIC_STATE 1-A
