7
Energy =   -153.952645742     
    C   -0.791660    0.490668   -0.000159
    H   -1.024484    1.096063    0.885741
    H   -1.024331    1.095722   -0.886331
    C   -1.727320   -0.716505   -0.000007
    C    0.613740    0.121474    0.000033
    C    1.776829   -0.186909    0.000192
    H    2.804771   -0.456891    0.000332

FREQUENCIES 15
219.2943
318.9805
529.2322
665.8233
698.3523
881.1757
898.8704
951.1853
1180.7370
1258.4759
1436.6185
2194.1242
2984.4272
3017.9714
3474.5412

SYMMETRY CS
ELECTRONIC_STATE 4-A"
