7
Energy =   -154.055689317     
    C    0.002101   -0.000462   -0.004456
    C   -1.199205    0.681386    0.000295
    C   -1.200007   -0.681019    0.000619
    C    1.468753   -0.000617   -0.003044
    H    1.853919    0.872488   -0.535190
    H    1.822414    0.046791    1.031656
    H    1.856182   -0.915506   -0.457320

FREQUENCIES 15
32.7833
317.0670
392.7410
651.8947
787.3727
1018.5799
1036.2957
1337.8391
1395.9449
1455.9565
1465.9936
1713.9112
3031.6632
3097.7143
3112.0761

SYMMETRY C1
ELECTRONIC_STATE 2-A
