8
Energy = -229.100294156
C -1.589205 -0.678366 0.070098
C 1.038448 0.017961 -0.562299
O 1.744655 -0.014624 0.397260
C -0.454723 0.010076 -0.280631
C -1.587799 0.675250 0.116433
H -2.094528 -1.624502 0.214942
H 1.358577 0.052404 -1.614118
H -2.091695 1.610337 0.324292
 
FREQUENCIES 18
7.7565 
183.5455 
293.2627
539.2082 
748.1505 
907.7025
952.1255 
966.9068 
1004.2503
1025.8618 
1263.5083 
1349.3957
1374.3177 
1719.1670 
1815.7203
3029.8278 
3233.2171 
3268.6089
 
SYMMETRY C1
ELECTRONIC_STATE 1-A
