8
Energy = -229.386954865
C 0.726737 0.972484 -0.000339
H -2.067031 -0.850267 0.000257
C 1.092555 -0.340430 -0.000117
C -1.113754 -0.353650 0.000063
C -0.694444 0.927509 -0.000059
H 1.378326 1.830479 -0.000563
H 2.048596 -0.836914 -0.000131
O 0.001874 -1.160155 0.000223

FREQUENCIES 18
540.9677 
613.0934 
700.5217
762.2279 
848.6175 
865.8477
873.5924 
1012.5225 
1043.3863
1137.1092 
1170.1838 
1238.5870
1372.5200 
1485.4286 
1541.8376
3253.8838 
3274.6509 
3296.0988
 
SYMMETRY C1
ELECTRONIC_STATE 2-A
