8
Energy = -228.994105604
C 0.262179 0.666079 -0.385401
C -0.883464 -0.441014 -0.249381
O -0.913437 0.699498 0.504618
C 0.410206 -1.027210 -0.102226
C 1.355919 -0.168111 0.194781
H 0.237786 1.218735 -1.318875
H -1.681376 -0.715838 -0.931443
H 2.309942 -0.038026 0.680352
 
FREQUENCIES 18
443.6402 
486.2760 
639.7911
655.1462 
725.3346 
790.6652
902.5224 
924.4340 
999.1648
1082.2444 
1126.8385 
1203.2368
1247.8553 
1295.9322 
1646.8133
3195.7771 
3208.9968 
3286.4372
 
SYMMETRY C1
ELECTRONIC_STATE 1-A
