7
Energy =   -153.709408905     
C -0.637730000 -0.827081000  0.000063894
H -0.688806000 -1.375299000 -0.937614670
H -0.688602000 -1.375337000  0.937731330
C -0.881681000  0.608662000  0.000119523
H -1.681815000  1.343110000  0.000221444
C  0.439571000  0.541300000 -0.000025567
C  1.599567000 -0.084953000 -0.000164441

FREQUENCIES 15
138.0259
160.0126
565.9697
650.7580
933.3778
936.0853
1037.6393
1064.7690
1150.5133
1245.0335
1445.6578
1892.4833
3096.9352
3205.4208
3217.4617

SYMMETRY C1
ELECTRONIC_STATE 1-A
