7
Energy =   -154.118263854     
C -0.000795426 -1.869018010  0.000000000
H  0.923867729 -2.446155509  0.000000000
H -0.925830300 -2.445559529  0.000000000
C -0.000374559 -0.562803990  0.000000000
C  0.000049942  0.754688004 -0.000000000
C  0.000446982  1.986952001 -0.000000000
H  0.000789291  3.049349984 -0.000000000

FREQUENCIES 15
90.0668
234.0945
302.2949
383.9960
546.9919
645.9108
890.2482
899.3051
975.7314
1432.6418
1793.8584
2013.4731
3063.6823
3124.1441
3466.4672

SYMMETRY C2V
ELECTRONIC_STATE 2-B2
