7
Energy =   -153.931492723     
    C    0.143465   -0.001105    0.482611
    H    0.138338   -0.003579    1.576631
    C   -1.131627    0.647548   -0.201912
    C   -1.131665   -0.646165   -0.204605
    C    1.445761    0.000502   -0.186885
    H    1.932382    0.932809   -0.453160
    H    1.931230   -0.930248   -0.460507

FREQUENCIES 15
291.2480
301.5299
345.1730
515.5628
586.2712
778.7910
789.3446
1009.4462
1106.2052
1297.0012
1428.7187
1669.2116
3025.3495
3120.1907
3220.9577

SYMMETRY C1
ELECTRONIC_STATE 4-A
