5
Energy =   -114.676094079     
C -0.472724642  0.519378005  0.268898779
H  0.903209055  0.126508770 -1.230833812
H  0.772085055 -1.088020230 -0.135399812
H -0.326756752  1.235153103  1.079964994
O  0.658441522 -0.127600169 -0.313017358

FREQUENCIES 9
387.6437
533.6176
964.7359
1030.7302
1091.6709
1659.9759
3130.1127
3537.8289
3607.7336

SYMMETRY CS
ELECTRONIC_STATE 3-A"
