5
Energy =   -115.092244718     
C -0.129505257 -0.205030790 -0.425108346
H -0.497642010  0.545026472  0.290636580
H -0.452459739  0.135524779 -1.430173220
H -0.600025010 -1.186234528 -0.263084420
O  1.233091177 -0.265437640 -0.488184674

FREQUENCIES 9
686.3686
957.8351
1104.0630
1353.6581
1364.9727
1510.2518
2892.9448
2965.5246
3007.7139

SYMMETRY CS
ELECTRONIC_STATE 2-A'
