5
Energy =   -114.696332435     
C -1.045250000  0.188546000 -0.220592000
H -1.423828000 -0.801764000 -0.542203000
H  0.852269555  0.651762128  0.370246840
H  0.769556712 -0.968623300 -0.018591192
O  0.299388858 -0.099316239  0.058298647

FREQUENCIES 9
651.6223
897.3867
942.9097
1004.6521
1439.4503
1681.8106
3002.3692
3419.7108
3598.9848

SYMMETRY CS
ELECTRONIC_STATE 1-A'
