5
Energy =   -40.0673620420     
C -0.654441250 -0.029803312  0.219492688
H -0.203126992 -0.659808789  1.030965630
H -1.564365697  0.589629138  0.001729656
H  0.061960221  0.828625796  0.314087589
H -0.912232532 -0.877659395 -0.468812126

FREQUENCIES 9
408.1398
408.1398
1060.7766
1294.6598
1449.1365
2669.1496
2799.1679
2866.5350
2866.5350

SYMMETRY D2D
ELECTRONIC_STATE 2-B2
