6
Energy =   -78.5133339098     
C  0.827673743 -0.353811748  0.008774172
C -0.605939314 -0.410330252  0.200956543
H -1.070894339 -0.107577958  1.136766579
H  1.471797547 -1.196519308  0.250706071
H -1.275765791 -0.757819969 -0.582730856
H  1.318331440  0.533633235 -0.385280365

FREQUENCIES 12
434.1102
434.1102
708.9237
923.5187
923.5187
1132.2893
1420.8674
1440.0961
3080.1804
3085.8243
3161.5400
3161.5400

SYMMETRY D2D
ELECTRONIC_STATE 3-A1
