7
Energy =   -153.800951840     
    C    0.430688   -0.472353    0.017269
    C   -1.031839   -0.613559   -0.244115
    H   -1.440843   -1.276494    0.527755
    H    1.645401    0.913810    0.316274
    H   -1.146512   -1.169366   -1.182357
    H   -1.597571    0.325709   -0.282348
    O    0.698556    0.813941    0.146994

FREQUENCIES 15
100.8792
510.1314
734.2850
917.2278
974.7973
1056.0753
1283.2766
1335.5152
1371.4540
1443.0716
1464.9202
2988.0060
3065.5071
3075.2317
3759.9855

SYMMETRY C1
ELECTRONIC_STATE 1-A
