7
Energy =   -153.794947587     
C  0.568789792  0.676011239 -0.132761876
C -0.761692147  0.445564407  0.502408645
H -1.387063526  1.325562795  0.315480800
H -1.292426430 -0.466756749  0.165862323
H -0.620845224  0.410260662  1.588384858
H  0.199480849 -0.962743128 -1.088830866
O  0.882229974 -0.253442458 -0.989774272

FREQUENCIES 15
152.2618
533.8939
744.9274
910.1160
978.2858
1058.3751
1319.1913
1344.1017
1369.1911
1427.8313
1466.3293
2892.5362
3058.7443
3080.3245
3327.4964

SYMMETRY CS
ELECTRONIC_STATE 1-A'
