8
Energy =   -191.495197598     
    C   -0.727126    1.803814   -0.540862
    C    0.415366    0.036572    0.202385
    C   -0.681006    0.350313   -0.735800
    H    1.818542   -0.201096   -1.084197
    H   -0.596946    0.012521   -1.779159
    H    0.255187    0.070349    1.277149
    H   -1.664398    0.027884   -0.331682
    O    1.639076   -0.127484   -0.127432

FREQUENCIES 18
153.6056
320.7436
429.4997
514.4125
679.7207
855.1884
965.2436
1017.5472
1051.8811
1140.5454
1269.8500
1313.6018
1414.6904
1551.6684
2922.6227
3020.7367
3186.7672
3665.3441

SYMMETRY C1
ELECTRONIC_STATE 2-A
