7
Energy =   -116.171718938     
C -0.036938000  1.086410000 -0.000441175
C -0.717814000 -0.391216000 -0.000225962
C  0.743476000 -0.356152000  0.000505021
H -1.252282469 -0.541376084  0.937933796
H -1.251326532 -0.542089916 -0.938815205
H  1.285365516 -0.469167073  0.939227902
H  1.286321484 -0.469880927 -0.937579098

FREQUENCIES 15
129.5838
691.1882
746.8963
840.7140
910.0485
1066.4024
1092.1485
1168.8537
1184.9854
1426.5860
1485.6244
3074.6677
3079.6662
3187.7833
3193.0452

SYMMETRY CS
ELECTRONIC_STATE 4-A"
