7
Energy =   -116.695403386     
    C   -1.469474    0.249735    0.602407
    C   -0.234948    0.654525    0.497692
    C    0.999832    1.058604    0.393114
    H    1.238567    2.103650    0.222179
    H   -1.972499    0.216774    1.563773
    H   -2.035501   -0.065068   -0.268719
    H    1.829361    0.362719    0.470385

FREQUENCIES 15
373.7869
373.8132
869.8292
869.8541
881.2127
1016.5349
1016.5547
1106.6911
1421.7479
1477.2057
2042.7240
3117.9697
3121.9912
3193.7281
3193.7679

SYMMETRY C1
ELECTRONIC_STATE 1-A
