7
Energy =   -116.596211658     
    C   -0.479716   -0.106426    0.462633
    C    0.770963   -0.337755    0.952702
    C   -0.805797    1.264850    0.396604
    H   -1.871752    1.397718    0.660854
    H   -1.184558   -0.934664    0.351442
    H    1.477282    0.482350    1.008382
    H    1.055805   -1.294388    1.382155

FREQUENCIES 15
224.8597
537.2004
755.8982
933.1220
962.3026
1008.5699
1080.5005
1170.2184
1312.1258
1428.4743
1577.2973
2961.6516
3061.4483
3127.3463
3233.3306

SYMMETRY C1
ELECTRONIC_STATE 1-A
