8
Energy =   -191.492289638     
    C   -1.972945   -0.831789    0.219454
    C    0.381201    0.064496   -0.279289
    C   -0.582498   -0.563262    0.552158
    H    1.848398   -0.035505    0.985241
    H   -0.267070   -0.884883    1.547782
    H    0.161034    0.417419   -1.280167
    H   -2.624190   -0.670472   -0.630480
    O    1.619619    0.272369    0.089165

FREQUENCIES 18
175.5162
290.2438
302.4599
500.0768
522.6679
812.2726
832.8131
893.0689
1087.7509
1159.1826
1262.5130
1308.1122
1387.7731
1550.6581
3112.3186
3209.9402
3229.5914
3688.5464

SYMMETRY C1
ELECTRONIC_STATE 4-A
