8
Energy =   -191.459302687     
    C   -0.984800   -1.254783    0.489893
    C    0.680230    0.610977    0.747701
    C   -0.700357    0.070930    0.435026
    H    0.759704    1.704163    0.888884
    H    1.224438    0.143407    1.591856
    H   -0.555237   -2.186436    0.841085
    H   -1.413595    0.759653   -0.018292
    O    1.259776    0.230312   -0.425192

FREQUENCIES 18
115.6530
316.7779
401.1928
724.7415
759.1149
822.5267
883.0460
939.7264
1022.1149
1094.1686
1264.3747
1267.3163
1323.2586
1466.7570
2908.1317
2945.9686
3134.0735
3223.2690

SYMMETRY C1
ELECTRONIC_STATE 4-A
