7
Energy =   -116.692850437     
C -1.136810396  0.842089239  0.232591667
C  1.352530906  0.160956039  0.872912478
C  0.227037636  0.468913341  0.583407475
H -1.205619830  1.126659378 -0.821041701
H -1.825893436  0.010175896  0.402717896
H -1.477118823  1.689922010  0.833614084
H  2.346986347 -0.111146713  1.128711277

FREQUENCIES 15
343.2619
343.2660
670.2830
670.2831
942.9347
1055.9575
1055.9583
1415.7553
1478.6796
1478.6798
2222.1264
3027.0801
3085.9109
3085.9114
3478.8173

SYMMETRY C3V
ELECTRONIC_STATE 1-A1
