7
Energy =   -116.236378526     
C  1.066024696 -0.176019654  0.000571091
H  1.094715800 -1.262879430 -0.003578657
H  1.615528764  0.247396405 -0.862655010
H  1.612411141  0.240702391  0.869017849
C -0.283609126  0.402562730  0.000377860
C -1.443196476 -0.344577875 -0.004597979
H -0.430727828  1.495567221  0.004338150

FREQUENCIES 15
129.8146
180.8122
454.0033
770.9616
893.9564
963.5960
1143.4932
1235.0983
1366.8914
1435.3434
1477.1917
2922.9891
2928.6714
3018.6029
3165.7977

SYMMETRY CS
ELECTRONIC_STATE 2-A"
