8
Energy =   -191.419055120     
    C   -1.669792    0.435621    0.596655
    C    0.380607    0.535808   -0.862084
    C   -0.970372   -0.008732   -0.505483
    H    1.238468   -1.214570   -0.326236
    H    0.679134    0.354427   -1.893545
    H    0.571683    1.554930   -0.540079
    H   -1.346405   -0.890456   -1.032730
    O    0.993270   -0.365599    0.086749

FREQUENCIES 18
169.1002
316.4308
449.7927
535.4553
822.0378
912.5306
985.5077
1044.1508
1127.7081
1263.2142
1309.1160
1327.0348
1382.2874
1495.8761
3086.6298
3105.7116
3196.2610
3686.8663

SYMMETRY C1
ELECTRONIC_STATE 4-A
