7
Energy =   -116.345251865     
C  1.313904025 -0.000080954  0.000152909
H  1.877362212 -0.850839054  0.391038381
H  1.877401338  0.850629520 -0.390779815
C -0.000027975 -0.000025425  0.000208000
C -1.313959975  0.000030104  0.000263091
H -1.877385382  0.850790130  0.391191619
H -1.877490068 -0.850682296 -0.390618185

FREQUENCIES 15
325.0042
345.3371
784.4456
803.3174
911.6566
934.6926
997.4724
1066.7868
1348.2693
1393.9863
1637.2735
3057.0442
3074.2163
3150.0109
3152.5013

SYMMETRY C1
ELECTRONIC_STATE 2-A
