7
Energy =   -116.223609887     
    C   -1.214099   -0.178875    0.000750
    H   -1.424041   -1.133106    0.484400
    H   -2.014482    0.303543   -0.561447
    C    0.076115    0.403756    0.048933
    H    0.152049    1.476755    0.283453
    H    2.337260   -0.123503    0.139964
    C    1.296708   -0.312286   -0.106327

FREQUENCIES 15
394.6356
423.8657
576.8737
651.0307
784.0901
860.6822
950.5475
1125.2658
1187.8720
1363.5590
1425.5137
3010.6182
3070.8342
3176.2731
3202.8749

SYMMETRY C1
ELECTRONIC_STATE 4-A
