9
Energy =   -230.013941566     
O  2.052645007 -0.946744292  1.055354442
C  0.343542339 -0.112163884 -0.389934127
C -1.171985792 -0.161808950 -0.545331147
C -0.677022530  1.018494262 -0.449077079
C  0.949349047 -0.472830581  0.917480704
H  0.985627078 -0.311497582 -1.247395565
H -2.001556523 -0.831540806 -0.688307128
H -0.776569940  2.089596396 -0.450087544
H  0.296382499 -0.270761502  1.797356960

FREQUENCIES 21
132.8996
322.1316
343.8361
518.4584
642.2464
743.0942
860.0209
925.2177
999.4040
1029.6991
1064.2673
1101.5220
1112.3238
1314.2962
1409.2906
1735.6617
1792.2167
2856.5132
3097.2406
3259.5673
3310.1546

SYMMETRY CS
ELECTRONIC_STATE 1-A'
