9
Energy =   -229.667024017     
O  0.074397000 -0.346537000  0.000410000
C  1.096487000  0.561944000 -0.000194000
C  2.350916995  0.060066963 -0.000011393
C -1.154394995 -0.014743968  0.000322453
C -2.349432997  0.199614024  0.000299207
H  0.806172004  1.606126027 -0.000766553
H  3.194843994  0.739006958 -0.000469434
H  2.529073991 -1.009611063  0.000585043
H -3.398861021  0.405433857  0.000268747

FREQUENCIES 21
141.6272
173.9533
424.5323
428.6590
555.0009
642.7795
675.0783
683.4515
864.1376
914.9207
1002.3161
1077.4127
1155.8459
1310.8162
1402.4325
1542.9670
2131.0699
3156.7413
3209.7714
3266.4482
3413.4582

SYMMETRY CS
ELECTRONIC_STATE 2-A"
