8
Energy =   -154.416304434     
C  1.859386000  0.000001702 -0.008025991
H  2.280908000  0.908652371 -0.457138991
H  2.280925000 -0.910432629 -0.453495991
H  2.155808000  0.002144509  1.060574005
C  0.447859000 -0.000029549 -0.017043991
C -0.826743000 -0.000011948 -0.002307002
C -2.078399000 -0.000011365  0.003824985
H -3.151587000 -0.000011329  0.008850973

FREQUENCIES 18
134.3179
191.3316
275.6933
366.6820
443.4340
543.4860
803.0954
878.4020
942.0298
1287.1376
1325.7289
1422.8663
1562.9028
1988.2538
2935.3939
3012.3439
3051.4419
3368.5115

SYMMETRY CS
ELECTRONIC_STATE 2-A"
