8
Energy =   -154.693364240     
    C   -1.632233   -0.149641   -0.006364
    H    0.334032    1.445393   -0.922146
    C    0.369919    0.883545    0.001067
    H    0.331718    1.445498    0.924166
    C   -0.415049   -0.512317    0.001345
    C    1.041995   -0.453734    0.002096
    H    1.536852   -0.767778    0.916300
    H    1.536947   -0.768162   -0.911939

FREQUENCIES 18
115.4625
258.9299
739.2493
809.4105
819.1613
947.0662
1036.2488
1056.1631
1112.0923
1145.6465
1180.8552
1468.3373
1494.7612
1940.8633
3104.2027
3147.5623
3182.5898
3253.3047

SYMMETRY C1
ELECTRONIC_STATE 1-A
