8
Energy =   -154.628002559     
    C   -0.954409   -0.718594   -0.357323
    C    0.207466   -0.201471    0.448513
    H    0.244480   -0.473178    1.507067
    C    1.490180    0.157148   -0.172888
    H    2.172247   -0.617194   -0.508306
    H    1.787708    1.192375   -0.299729
    C   -1.172380    0.499453   -0.041776
    H   -1.646245    1.458438    0.041335

FREQUENCIES 18
207.3278
309.4772
350.3697
514.7509
608.4467
642.7800
825.7563
879.2243
923.8986
1027.3843
1133.0370
1322.7397
1433.1896
1748.3933
3035.5087
3119.7208
3220.0772
3325.4258

SYMMETRY C1
ELECTRONIC_STATE 3-A
