9
Energy = -229.672503315
C -0.405417 1.060944 0.000000
C -0.074037 -1.522457 -0.658918
O 0.131048 2.100391 0.000000
C -0.074037 -1.522457 0.658918
C 0.485818 -0.350486 0.000000
H -1.497593 0.892000 -0.000000
H -0.237250 -2.021468 1.602364
H -0.237250 -2.021468 -1.602364
H 1.524324 -0.015936 0.000000
 
FREQUENCIES 21
48.6787 
270.3082 
326.0828
379.1111 
536.0765 
741.6516
809.1496 
859.8602 
937.7880
942.1558 
1026.9305 
1074.0831
1130.6587 
1185.1860 
1226.9433
1616.0287 
1884.3008 
2952.0055
3081.3079 
3244.7544 
3287.8835
 
SYMMETRY CS
ELECTRONIC_STATE 2-A'
