9
Energy = -230.013941604
C -0.354494 0.989057 -0.000000
C -0.083402 -1.510843 -0.641792
O 0.089873 2.113022 -0.000000
C -0.083402 -1.510843 0.641792
C 0.472277 -0.245040 -0.000000
H -1.453667 0.805181 -0.000000
H -0.258862 -1.990482 1.588419
H -0.258862 -1.990482 -1.588419
H 1.546142 -0.060507 -0.000000
 
FREQUENCIES 21
132.9192 
322.1099 
344.2599
518.5064 
641.6423 
743.5540
859.5244 
924.9415 
999.0026
1030.1385 
1064.3519 
1101.5534
1112.3985 
1314.2771 
1409.5021
1735.4051 
1792.3663 
2854.0926
3097.2503 
3260.5822 
3311.1363
 
SYMMETRY CS
ELECTRONIC_STATE 1-A'
