8
Energy =   -154.634040952     
    C   -0.000000    0.799751   -0.582022
    H   -0.902293    1.229802   -1.021562
    H    0.902293    1.229802   -1.021562
    C   -0.000000   -0.799751   -0.582022
    H   -0.902293   -1.229802   -1.021562
    H    0.902293   -1.229802   -1.021562
    C   -0.000000    0.667566    0.925241
    C    0.000000   -0.667566    0.925241

FREQUENCIES 18
319.3357
767.9678
775.6522
790.2601
954.6353
964.6741
1022.4032
1043.1309
1105.6500
1116.0742
1204.2233
1453.9018
1470.4627
1612.9995
3043.3975
3048.3188
3103.8521
3118.1177

SYMMETRY C2V
ELECTRONIC_STATE 3-B2
