8
Energy =   -154.637275271     
C  0.399819000 -0.000809302  0.498934000
H  1.351729000 -0.000023473 -1.296742000
H  0.419280999 -0.001855707  1.586744999
C  1.609673999 -0.001286944 -0.220686001
C -0.930972831 -0.629543335 -0.121659795
C -0.929766168  0.631641666 -0.120468204
H -1.327139556 -1.616969924 -0.260476214
H -1.324042443  1.620085076 -0.257417786

FREQUENCIES 18
142.9263
470.2150
526.8380
615.6317
666.6758
778.5122
790.5307
867.4911
934.9268
1083.5469
1125.1308
1264.7938
1362.8790
1809.6011
2952.3389
3107.5539
3294.0427
3356.8715

SYMMETRY CS
ELECTRONIC_STATE 1-A'
