8
Energy =   -154.327656886     
    C    0.974953   -0.530460    0.062565
    H    1.499932   -0.949556   -0.798467
    H    1.245566   -0.969482    1.022635
    C    0.551288    0.881531    0.000291
    H    0.385984    1.440992    0.914581
    H    0.617632    1.432514   -0.933185
    C   -0.471082   -0.422430   -0.169109
    C   -1.697257   -0.097463    0.074131

FREQUENCIES 18
68.3813
303.2837
490.9018
751.4457
767.8812
906.8275
966.2508
1073.6809
1085.7436
1136.7308
1192.9008
1343.5537
1430.1345
1471.9868
3066.3629
3127.1515
3153.4345
3244.6477

SYMMETRY C1
ELECTRONIC_STATE 2-A
