9
Energy = -229.700437194
C -0.907724 0.024358 0.345472
C 2.133477 -0.510605 -0.042332
O -1.370049 -0.984159 0.526190
C 1.356027 0.522716 -0.043051
C 0.019945 1.128116 0.085686
H -0.061451 1.834375 0.924161
H 1.781994 -1.533196 0.124203
H 3.204048 -0.397565 -0.212960
H -0.318817 1.638637 -0.827032
 
FREQUENCIES 21
124.2984 
142.8214 
256.4865
346.5579 
395.6867 
515.4811
780.4369 
887.5758 
913.3682
916.9980 
934.4596 
1227.2237
1258.7360 
1379.5283 
1388.4193
1797.3826 
2261.1163 
3005.6556
3043.8942 
3050.8269 
3139.3470
 
SYMMETRY C1
ELECTRONIC_STATE 2-A
