8
Energy =   -154.274169304     
C  0.000115320  0.829105670  0.253234680
C  1.176171934 -0.000560238 -0.135553913
C -0.000148145 -0.828910220  0.255238396
C -1.176164066 -0.000186592 -0.135677132
H  2.061464659  0.000069640  0.502057329
H  1.412510091 -0.001898158 -1.211567542
H -2.061523341  0.000724537  0.501841360
H -1.412389909 -0.001449450 -1.211715515

FREQUENCIES 18
387.5590
655.1281
689.5357
855.8559
860.2930
862.1482
1034.3305
1085.0344
1108.4744
1138.6947
1165.8281
1195.8322
1394.0913
1424.4215
2953.7722
2975.9716
3115.4822
3122.7472

SYMMETRY C2V
ELECTRONIC_STATE 4-B1
