8
Energy =   -154.246049114     
    C    1.505787   -0.505925   -0.000278
    H    1.833292   -0.916258   -0.946123
    H    1.825403   -0.925998    0.943968
    C    0.501480    0.616086    0.001003
    H    0.622670    1.292227    0.881231
    H    0.625391    1.297408   -0.874537
    C   -0.867282    0.246680   -0.001392
    C   -1.972701   -0.482164   -0.000121

FREQUENCIES 18
29.9263
202.5803
242.3425
508.7080
561.3207
691.0404
771.6860
968.2532
995.8701
1112.2409
1156.3171
1237.8628
1363.6649
1456.7583
2828.1821
2835.4810
3147.3881
3283.2758

SYMMETRY C1
ELECTRONIC_STATE 4-A
