8
Energy =   -154.223693305     
    C    1.724934   -0.176202   -0.215135
    H    2.117722   -1.186193   -0.232392
    C    0.583962    0.498057    0.070433
    H    0.578894    1.585780   -0.004323
    C   -0.659600   -0.182437    0.424245
    H   -1.271880    0.410254    1.158096
    H   -0.579071   -1.217723    0.780013
    C   -1.798764   -0.073116   -0.567632

FREQUENCIES 18
152.7642
347.0284
389.5998
592.7591
753.7101
762.4344
861.0353
902.1069
1016.5617
1095.6401
1166.1582
1273.4757
1315.5493
1479.8213
2816.8329
3038.2610
3127.8786
3226.8655

SYMMETRY C1
ELECTRONIC_STATE 4-A
