8
Energy =   -154.286427189     
    C    1.643922   -0.262387   -0.124534
    H    2.388635   -1.033554   -0.192546
    C    0.655716    0.511752   -0.009405
    H    0.604245    1.588012   -0.139954
    C   -0.820137   -0.113981    0.461571
    H   -1.155299    0.467528    1.335376
    H   -0.731256   -1.180608    0.751906
    C   -1.676286   -0.112513   -0.618811

FREQUENCIES 18
111.3429
233.1363
306.4369
373.0223
521.2596
628.9952
733.4526
774.7976
910.1451
984.4681
1122.9881
1231.7972
1362.2818
1743.8194
2943.7026
3019.2337
3175.5034
3354.1268

SYMMETRY C1
ELECTRONIC_STATE 2-A
