8
Energy =   -154.346409759     
    C    1.620571   -0.269144    0.000152
    H    2.208196    0.073381   -0.868802
    H    1.511120   -1.350183    0.001642
    H    2.209957    0.076088    0.866705
    C    0.355705    0.471261   -0.000279
    H    0.390483    1.566959   -0.000342
    C   -0.871390   -0.083718   -0.000348
    C   -2.164724   -0.179433    0.000835

FREQUENCIES 18
138.8653
207.4354
234.2928
468.2414
780.4216
841.9611
1020.4756
1079.4242
1154.3632
1273.9940
1279.1478
1414.0330
1441.6777
1526.0355
2968.2618
2994.7525
3074.6244
3173.0939

SYMMETRY C1
ELECTRONIC_STATE 2-A
