9
Energy =   -229.733149628     
    O   -3.412153   -0.739923    0.000000
    C    1.175217    0.752286    0.000000
    C    0.343836   -0.479714    0.000000
    C   -0.971768   -0.539484    0.000000
    C   -2.272197   -0.651224    0.000000
    H    1.836633    0.714806    0.875735
    H    1.836633    0.714806   -0.875735
    H    0.591941    1.669510    0.000000
    H    0.872058   -1.441164    0.000000

FREQUENCIES 21
98.0046
135.9643
205.0844
412.5257
475.3702
593.6373
773.4436
775.8146
1008.7274
1032.3263
1101.4803
1284.3095
1361.4303
1442.4670
1465.4464
1777.7163
2245.6255
3009.0219
3053.1942
3054.5413
3167.8635

SYMMETRY CS
ELECTRONIC_STATE 2-A'
