8
Energy =   -154.245813169     
C  0.018261001  0.000327799  0.445670017
H  0.047397001  0.001238748  1.553009027
C  1.427969997 -0.000142176 -0.187210065
H  1.945136270  0.893343167  0.172296949
H  1.945199719 -0.892998748  0.173764809
H  1.372379999 -0.001037809 -1.274766017
C -1.170269748  0.682492948 -0.181826968
C -1.170221249 -0.682952101 -0.180704964

FREQUENCIES 18
181.0732
288.9088
351.3300
688.3519
760.5928
913.8941
928.9798
1008.2373
1027.9547
1139.7504
1364.1078
1444.6355
1451.3712
1455.1746
2896.5598
3034.6874
3117.5856
3157.2625

SYMMETRY CS
ELECTRONIC_STATE 4-A"
