8
Energy =   -154.711780932     
C -0.019734079 -1.018203801 -0.000140949
H -0.040653944 -2.098005697 -0.000187046
C  0.019719618  1.018242262 -0.000054012
H  0.040639483  2.098044158 -0.000007915
C  1.018215802 -0.019707617 -0.000118908
C -1.018230263  0.019746078 -0.000076054
H  2.098017698 -0.040627481 -0.000141631
H -2.098032160  0.040665942 -0.000053331

FREQUENCIES 18
468.8668
557.1804
605.7862
605.7863
720.4986
894.5286
894.5286
951.6147
1009.5794
1205.9359
1286.5675
1312.1238
1312.1238
1355.2962
3215.2213
3229.0105
3229.0105
3253.3959

SYMMETRY CI
ELECTRONIC_STATE 3-AG
