6
Energy =   -115.764999220     
C  0.269131625 -0.327674666 -0.314571478
H -1.655488671 -0.020228997 -0.125902526
H  0.452297532  0.410301590 -1.105188354
H  1.114801319 -0.311751919  0.373262548
H  0.208283910 -1.326001567 -0.764987619
O -0.888500600 -0.014523383  0.453350230

FREQUENCIES 12
294.3768
1041.9324
1070.1007
1167.4000
1355.8032
1479.7483
1493.6685
1504.9500
2989.8993
3037.3469
3112.7025
3849.0801

SYMMETRY CS
ELECTRONIC_STATE 1-A'
