2
Energy =   -38.0563752953     
    C    1.019803    0.000000    0.000000
    H    2.164006    0.000000    0.000000

FREQUENCIES 1
2615.9361

SYMMETRY C*V
ELECTRONIC_STATE 3-PI
