3
Energy =   -76.6309418733     
    C    0.576400    0.388326   -0.000000
    C   -0.524456   -0.099458   -0.000000
    H    1.552384    0.819002    0.000000

FREQUENCIES 4
307.3691
310.2801
2077.0824
3438.0377

SYMMETRY C*V
ELECTRONIC_STATE 2-SG
