3
Energy =   -76.1520737853     
    C    0.677846   -0.409992    0.000000
    C   -0.094457    0.681414    0.000000
    H   -1.092226    1.133251    0.000000

FREQUENCIES 3
638.0926
1378.0634
3138.7262

SYMMETRY CS
ELECTRONIC_STATE 1-A'
