3
Energy =   -76.4985595775     
    C   -0.774043    0.044066    0.000000
    C    0.653628   -0.252668    0.000000
    H    0.974156   -1.315493    0.000000

FREQUENCIES 3
862.0333
1170.9924
2879.9121

SYMMETRY CS
ELECTRONIC_STATE 4-A"
