3
Energy =   -76.5938972447     
    H    0.000000    0.000000    1.025789
    C    0.000000    0.636623   -0.086600
    C    0.000000   -0.636623   -0.086600

FREQUENCIES 3
255.4162
1803.5563
2367.1924

SYMMETRY C2V
ELECTRONIC_STATE 2-A1
