4
Energy =   -151.883218749     
C -0.597391000  0.281698000 -0.290316000
C  0.699381000  0.552032000  0.238691000
H  1.426864667 -0.062785547  0.771262740
O -1.164407792 -0.772942091 -0.233536796

FREQUENCIES 6
479.0885
703.7282
919.7920
1132.0345
1738.5703
3102.5485

SYMMETRY CS
ELECTRONIC_STATE 4-A"
