4
Energy =   -151.476917407     
C -0.134113000  0.006828000  0.319531000
C  0.224461000  1.361447000 -0.216879000
H -0.728255608  0.152476757  1.261086013
O  0.159169913 -1.041747985 -0.166795688

FREQUENCIES 6
188.4865
699.4786
788.2809
1056.4987
1617.3813
2783.5722

SYMMETRY CS
ELECTRONIC_STATE 3-A"
