4
Energy =   -151.795979875     
C -0.305079000  0.491646000 -0.300396000
C  1.046278000  0.979208000 -0.459169000
H  0.271475454 -0.798941880  0.962748700
O -0.550198841 -0.484719320  0.516956144

FREQUENCIES 6
493.9065
602.3141
1019.4762
1151.4456
1316.2107
3425.5418

SYMMETRY CS
ELECTRONIC_STATE 4-A"
