4
Energy =   -151.974189656     
C -0.067026000 -0.318262000  0.019096000
C -0.249822000  0.952934000  0.088746000
H -0.939514912  1.654641883  0.512324219
O  0.247245369 -1.437851180 -0.142506451

FREQUENCIES 6
426.4648
502.0711
555.8251
1268.1950
2086.6363
3354.5463

SYMMETRY CS
ELECTRONIC_STATE 2-A"
