4
Energy =   -151.479660843     
C -1.161229000  0.878166000 -0.462843000
C -0.153187000  0.098122000  0.043077000
H  1.540896094 -0.458531320  0.682647286
O  0.604007807 -0.742467105  0.494225170

FREQUENCIES 6
100.7509
286.2607
1040.7716
1171.4630
1966.7936
3382.2806

SYMMETRY CS
ELECTRONIC_STATE 1-A'
