4
Energy =   -151.564996246     
C  0.157198000 -0.299885000  0.015486000
C -0.730468000  0.751519000  0.236116000
H -1.043275563  1.036973856  1.248505415
O  0.838951598 -1.081826241 -0.434929026

FREQUENCIES 6
372.3526
484.4341
631.2653
1057.7840
2204.1554
3120.2418

SYMMETRY CS
ELECTRONIC_STATE 1-A'
