4
Energy =   -151.777812639     
C -1.216778000 -0.566744000  0.313332000
C  0.882038000  0.302239000 -0.376696000
H  1.052804626 -0.286080774 -1.277550361
O -0.175889414  0.217172548  0.423520210

FREQUENCIES 6
409.7564
457.3990
1000.9289
1098.3016
1147.3806
3118.5982

SYMMETRY CS
ELECTRONIC_STATE 4-A"
