4
Energy =   -151.778285594     
    C   -0.880729   -0.372718   -0.284793
    C   -0.028909    0.623552    0.341989
    H    0.262233    0.766753    1.383157
    O    0.475941   -0.522346   -0.363026

FREQUENCIES 6
735.1206
919.2829
1005.8562
1050.7503
1363.6874
3089.2350

SYMMETRY C1
ELECTRONIC_STATE 4-A
