4
Energy =   -151.525984009     
C -0.715029000 -0.584174000 -0.543974000
C -0.311094000  0.200414000  0.618896000
H -0.296966100  0.779554885  1.545371265
O  0.609351756 -0.152807368 -0.168940017

FREQUENCIES 6
674.7171
924.9680
978.4081
1237.0693
1578.7473
3162.4351

SYMMETRY CS
ELECTRONIC_STATE 1-A'
