4
Energy =   -114.280668362     
    H    0.000000    0.000000    1.447742
    C   -0.000000    0.000000    0.331816
    C    0.000000    1.210003   -0.286383
    C    0.000000   -1.210003   -0.286383

FREQUENCIES 6
351.8073
471.1829
721.4547
1222.1616
1624.7818
2894.1649

SYMMETRY C2V
ELECTRONIC_STATE 1-A1
