4
Energy = -114.313202337
C 0.000000 0.000000 -1.391072
C 0.000000 0.000000 -0.117590
C 0.000000 0.000000 1.139144
H 0.000000 0.000000 2.217110
 
FREQUENCIES 7
306.3993 
357.0732 
421.0635
900.8258 
1310.0719 
1922.2456
3325.0729  
 
SYMMETRY C*V
ELECTRONIC_STATE 3-PI
