4
Energy =   -114.280668565     
C  1.267182447 -0.294425948  0.314712223
C -1.064085593 -0.011077999 -0.270564488
C  0.245522153  0.348033349 -0.308957330
H  0.505801913  1.253367177 -0.907404863

FREQUENCIES 6
351.0742
471.1564
721.6374
1222.7409
1626.6298
2893.2989

SYMMETRY C2V
ELECTRONIC_STATE 1-A1
