4
Energy =   -114.711626869     
    C    0.000000   -0.011368   -1.414866
    C   -0.000000    0.028879   -0.086554
    C    0.000000   -0.016513    1.161573
    H    0.000000    0.299002    2.182343

FREQUENCIES 6
257.0070
258.2880
377.2187
1188.3413
1891.2855
3401.2982

SYMMETRY CS
ELECTRONIC_STATE 2-A'
