4
Energy =   -114.369799677     
    C    0.796151    0.429042   -0.776699
    C   -1.332404   -0.200710    0.522169
    C   -0.222702    0.127620   -0.155111
    H    1.690832    0.693327   -1.323919

FREQUENCIES 7
190.9587
190.9596
844.4086
844.4087
1203.0122
2181.0331
3313.0933

SYMMETRY C*V
ELECTRONIC_STATE 1-SG
