5
Energy =   -189.914137077     
    C   -0.627506    0.083605   -0.178655
    C   -1.813417   -0.417033    0.147724
    C    0.599194   -0.547812    0.327728
    H   -0.550932    0.968327   -0.825812
    O    1.723592   -0.228041    0.130288

FREQUENCIES 9
128.9421
353.2847
565.5358
596.5244
1016.2074
1208.9674
1537.4098
1890.2676
2981.9631

SYMMETRY C1
ELECTRONIC_STATE 4-A
