5
Energy =   -189.784610748     
    C   -0.233518   -0.005306   -0.362018
    C    0.719126    0.509317    0.416703
    C   -1.098364   -0.471970   -1.069648
    H   -1.866728   -0.886655   -1.698275
    O    1.522043    0.942973    1.073274

FREQUENCIES 10
207.8832
207.8833
607.1274
607.1274
821.8566
821.8567
944.4324
2158.9836
2415.1761
3366.7499

SYMMETRY C*V
ELECTRONIC_STATE 1-SG
