5
Energy =   -189.602403293     
C  0.159451000  0.191036000  0.509509000
C  0.033680000 -0.925244000 -0.183568000
C -0.092444567 -2.101278661 -0.549711812
H  0.350473387  1.955004335  1.163960599
O  0.281263964  1.416234850  0.344008197

FREQUENCIES 9
230.3233
240.9223
435.0495
650.4310
958.6309
1185.3474
1747.0410
1999.9633
3566.0076

SYMMETRY CS
ELECTRONIC_STATE 3-A'
