5
Energy =   -152.382406549     
    C    0.182374    0.882146    0.000000
    H    0.041864    1.960815   -0.000000
    C   -0.556751   -0.861254    0.000000
    C    0.183070   -0.175477    0.951694
    C    0.183070   -0.175477   -0.951694

FREQUENCIES 9
482.9706
530.9483
850.2657
901.0939
1040.7695
1221.2482
1298.2489
1433.9339
3194.7968

SYMMETRY CS
ELECTRONIC_STATE 3-A"
