5
Energy =   -152.386993534     
C -0.240072000  0.446827000 -0.075545000
C  1.025232000 -0.124005000  0.037169000
C -1.161229967  1.445946534 -0.274131278
C  0.045884969 -0.975591219  0.208210858
H -0.492976019 -1.898094785  0.392970045

FREQUENCIES 9
250.8291
325.5370
725.3785
819.6244
913.2929
988.0085
1395.0103
1721.7550
3241.4794

SYMMETRY CS
ELECTRONIC_STATE 3-A"
