5
Energy =   -152.815483050     
C -2.047711000  0.057483000  0.000004000
C -0.772036000 -0.074321000  0.000051000
C  0.558788000 -0.015911000 -0.000038525
C  1.782874000  0.022463999 -0.000110013
H  2.846430001  0.057801013 -0.000173537

FREQUENCIES 9
157.5678
412.8683
415.2545
530.9242
707.0996
927.6805
1828.8651
2067.7512
3455.1859

SYMMETRY CS
ELECTRONIC_STATE 2-A'
