5
Energy =   -152.382407098     
C  0.541557417  0.809560677 -0.398456247
C  0.820451399 -0.404237309  0.211808753
C -0.667916601  0.783627691  0.279784753
C -0.581307465 -0.626350850  0.108088524
H -1.244771003 -1.441645506 -0.171685397

FREQUENCIES 9
483.6177
531.1753
850.2885
900.7938
1041.1140
1221.1458
1296.8991
1433.2498
3195.1427

SYMMETRY CS
ELECTRONIC_STATE 3-A"
