5
Energy =   -152.763808107     
C  1.098614683 -0.002819554 -0.004209118
H  2.171193438 -0.005469993 -0.008185956
C -1.318175470  0.003152554  0.004751698
C -0.075023717 -0.755356033  0.000141951
C -0.071290283  0.755508033  0.000129049

FREQUENCIES 9
253.0817
361.0132
462.1646
749.5541
947.3817
1001.7215
1229.7386
1395.2044
3331.1438

SYMMETRY C2V
ELECTRONIC_STATE 2-B1
