5
Energy =   -152.413447604     
C  1.302212871  0.041378846 -0.278430968
C  0.222679730 -0.779182185  0.345840267
C -0.993573923 -0.137092027  0.364403644
C -0.049211714  0.672961027 -0.222018888
H -2.038049571 -0.218287930  0.656863335

FREQUENCIES 9
246.1012
524.8550
825.3977
882.1269
1039.5197
1177.0499
1207.4710
1515.2555
3212.1244

SYMMETRY C2V
ELECTRONIC_STATE 1-A1
