5
Energy =   -152.678207280     
    C    1.616956    0.799334    0.269460
    C    0.478823    0.278131   -0.062561
    C   -1.839445   -0.334422    0.333333
    C   -0.674530   -0.282999   -0.471933
    H   -0.765073   -0.733947   -1.466170

FREQUENCIES 9
187.5676
259.2631
529.3070
770.9637
1014.9034
1132.4258
1248.7740
1861.7061
3031.7674

SYMMETRY C1
ELECTRONIC_STATE 4-A
