5
Energy =   -152.373359540     
    H   -0.000000   -2.589239   -0.000000
    C    0.000000   -1.508140    0.000000
    C    0.000000   -0.199660    0.000000
    C    0.649730    1.078519   -0.000000
    C   -0.649730    1.078519   -0.000000

FREQUENCIES 9
110.4771
344.7387
398.4846
590.9167
889.8297
942.6136
1572.7330
1666.0764
3278.2114

SYMMETRY C2V
ELECTRONIC_STATE 3-A2
