5
Energy =   -152.414630633     
C  0.759167255 -0.073231915  0.323784901
C  2.085614321 -0.097516793  0.543818913
C -1.751150667 -0.027654517 -0.091644941
C -0.520401880 -0.050332556  0.111981595
H -2.813994338 -0.008705631 -0.267773629

FREQUENCIES 10
60.0608
186.9405
297.7725
430.9125
529.8732
919.9531
926.7024
1651.5507
2133.4830
3333.2755

SYMMETRY C*V
ELECTRONIC_STATE 1-SG
