6
Energy =   -227.978373986     
C -0.088447000  0.224909000 -0.061640000
C  0.892282000 -0.141673000  0.902900000
C -0.848393811  1.127056877 -0.734309101
C  1.347745061 -1.330919517  1.227637577
H  1.375771942  0.646071245  1.495505793
O -0.833858497 -0.468844348 -0.912316719

FREQUENCIES 12
150.0535
162.2662
258.9826
405.8074
431.7238
675.9891
852.5916
970.4072
1241.2653
1623.4405
1730.3696
3057.1159

SYMMETRY CS
ELECTRONIC_STATE 2-A"
