6
Energy =   -227.634180693     
    C   -0.672831    0.021465    0.654541
    C    0.239580    0.347867   -0.946860
    C    1.750024   -1.167418    0.535975
    C    0.756153   -0.371774    0.135345
    H    0.647327    1.071982   -1.654336
    O   -1.068233    0.291135   -0.655679

FREQUENCIES 12
192.8168
226.3821
418.1632
471.0341
779.1056
783.2199
1008.4833
1042.4604
1194.7270
1351.4934
1755.8930
3154.3113

SYMMETRY C1
ELECTRONIC_STATE 1-A
