6
Energy =   -227.795190462     
C -1.066570000  0.081902000  0.471703000
C  1.025135000  0.423922000 -1.072185000
C  1.513400931 -0.534536315 -0.139303474
C  0.167182669  0.029208760 -0.122023063
H  1.147279155  1.066071756 -1.937305747
O -2.075352522  0.119326994  0.964215075

FREQUENCIES 12
188.2147
225.8050
562.3822
614.3348
681.5429
912.3594
966.0233
1052.6545
1156.7770
1684.8487
2328.7591
3230.3112

SYMMETRY CS
ELECTRONIC_STATE 1-A'
