3
Energy =   -113.891331131     
    C   -0.793481   -0.237924    0.000000
    H   -1.172439   -1.296375    0.000000
    O    0.340890    0.064695    0.000000

FREQUENCIES 3
1098.6149
1935.4806
2661.3337

SYMMETRY CS
ELECTRONIC_STATE 2-A'
