3
Energy =   -113.581720162     
    C   -0.234429   -0.520488   -0.000000
    H   -0.610524   -1.561792   -0.000000
    O    0.140523    0.519605    0.000000

FREQUENCIES 4
898.1008
898.1008
2240.7526
3129.1965

SYMMETRY C*V
ELECTRONIC_STATE 1-SG
