3
Energy =   -113.824290645     
    C    1.073474    0.036474    0.000000
    H   -0.162735    1.493471    0.000000
    O   -0.107272    0.507572    0.000000

FREQUENCIES 3
1118.4689
1379.0182
3282.2597

SYMMETRY CS
ELECTRONIC_STATE 2-A'
