3
Energy =   -113.707664711     
    C   -0.524163   -0.757599    0.000000
    H   -0.019320   -1.724094    0.000000
    O    0.273305    0.384101    0.000000

FREQUENCIES 3
943.6039
1212.1890
3109.6009

SYMMETRY CS
ELECTRONIC_STATE 4-A"
