2
Energy =   -75.7624123365     
    H   -0.846017    0.000000    0.000000
    O    0.129836    0.000000    0.000000

FREQUENCIES 1
3709.5032

SYMMETRY C*V
ELECTRONIC_STATE 2-PI
