2
Energy =   -75.2757215714     
    H   -0.882227    0.000000    0.000000
    O    0.155529    0.000000    0.000000

FREQUENCIES 1
3059.7287

SYMMETRY C*V
ELECTRONIC_STATE 3-SG
