1
Energy =   -75.0898794536     
  O            0.00000000          0.00000000          0.00000000

FREQUENCIES 0

SYMMETRY R3
ELECTRONIC_STATE 3-P
