5
Energy =   -206.588956594     
    C    1.317698    0.000000   -0.000000
    C   -0.002695   -0.000000   -0.000000
    C   -1.277419   -0.000000   -0.000000
    C   -2.530378    0.000000    0.000000
    N    2.492793    0.000000    0.000000

FREQUENCIES 10
135.7601
143.2524
313.8620
386.0669
442.2550
604.6515
774.8595
1578.7288
1955.6143
2137.4519

SYMMETRY C*V
ELECTRONIC_STATE ??
