6
Energy =   -244.640686673     
    C   -0.268762   -0.856491    0.753566
    C   -0.172519    1.068992    0.473598
    C   -0.481527    0.235544    1.413231
    C    0.134155   -1.216280   -0.482814
    C    0.245997    1.021584   -0.808220
    N    0.389820   -0.196421   -1.258012

FREQUENCIES 12
342.9902
443.1034
503.6880
535.6732
668.0619
675.9103
1104.0508
1149.9150
1234.8860
1323.4405
1631.6419
1748.5942

SYMMETRY C2V
ELECTRONIC_STATE 3-B2
