6
Energy =   -244.811184925     
C  0.740844189  0.033630441 -0.990065347
C  0.539927384  0.795315490  0.215453696
C -0.733768364 -0.235662880 -0.825159615
C  0.987997689 -0.543589112  0.498959094
C -0.493530227 -0.796731811  0.622201873
N -0.907566576  0.634830319  0.393501828

FREQUENCIES 12
408.8860
499.2745
523.1423
579.4840
742.9859
782.2663
845.0958
902.2726
936.1455
1011.6630
1097.0473
1241.4095

SYMMETRY CS
ELECTRONIC_STATE 4-A'
