6
Energy =   -244.982536820     
C -1.306240319  0.419443336 -0.376368572
C  1.524014102  0.187240039  1.973162407
C -1.306254167 -0.742439125 -1.257550771
C  0.035912328  0.177587957 -0.044633637
C  0.060688681 -0.249878664 -1.381261572
N  0.820728464  0.169136821  1.028559696

FREQUENCIES 12
166.7518
174.9836
337.5017
477.4620
579.2495
625.8369
661.7743
880.8539
984.2651
1178.2259
1551.5684
2156.7930

SYMMETRY CS
ELECTRONIC_STATE 2-A"
