5
Energy =   -206.997049762     
    C   -2.008725    1.175515    0.000000
    C   -0.755312    1.175515    0.000000
    C    0.582016    1.175515    0.000000
    N    1.748993    1.175515   -0.000000
    C   -3.325294    1.175515   -0.000000

FREQUENCIES 10
116.0733
134.0608
307.4368
368.1391
448.0899
592.1229
752.3080
1421.2988
1989.2849
2181.4514

SYMMETRY C*V
ELECTRONIC_STATE ??
