5
Energy = -115.0903274200
    C   -0.000000   -0.000000    0.000000
    C    1.099292    0.663219   -0.000000
    C   -1.099292   -0.663219    0.000000
    H    1.253957    1.732270   -0.000000
    H   -1.253957   -1.732270    0.000000

FREQUENCIES 9
219.1358
287.1256
510.5696
737.5043
956.5296
1227.1307
1843.8683
3224.5284
3229.0657

SYMMETRY C2H
ELECTRONIC_STATE 1-AG
