3
Energy = -37.75336768600
C 0.000000 0.000000 0.000000
H 0.000000 0.000000 1.529771
H 0.000000 0.000000 -1.529771
