7
Energy = -189.10433264000
C -0.959985 1.441620 -0.161567
C -0.558673 0.009001 0.225304
C 0.893986 -0.195471 -0.266212
C 2.064222 -0.038188 0.255057
C -1.525259 -1.142541 -0.059960
H 1.162980 -0.491509 -1.339304
H -0.648723 0.044983 1.383571
