7
Energy = -190.06645239000
C -0.410853 -0.118849 -0.000052
C -1.501079 0.787046 -0.000073
C 0.958488 0.177437 0.000375
C 2.205439 0.286930 -0.000261
C -0.608234 -1.513481 0.000019
H -1.331756 1.867408 0.000378
H -2.530799 0.418092 -0.000427
