8
Energy = -190.58296327000
C 2.473925 0.080772 0.000000
C -1.326477 -0.014764 0.000000
C -2.539115 -0.258281 0.000000
C 0.000000 0.425021 0.000000
H 0.122091 1.300088 0.744218
H 0.122091 1.300088 -0.744218
C 1.164395 -0.412774 0.000000
H 1.119447 -1.520022 0.000000
