8
Energy = -191.58796759000
C -0.965557 0.624941 -0.016617
H -1.088731 1.333851 0.809493
H -1.097689 1.220994 -0.932074
C -1.919833 -0.491376 0.077943
H -1.921669 -1.498696 -0.310397
C 0.424445 0.127840 0.000664
C 1.355689 -0.861677 0.018298
C 1.789938 0.424246 -0.008124
