7
Energy = -115.45829112000
C -0.000728 -0.802624 0.000022
C -0.761796 0.312561 -0.000185
C 0.762172 0.311815 0.000263
H -0.000571 -1.899196 0.000027
H -1.754235 0.810113 -0.000205
H 1.755697 0.807428 -0.001370
H 0.001219 1.351146 0.000950
