9
Energy = -191.98418263000
C -0.371796 -0.873050 -0.359771
C -1.563839 -0.131716 0.191032
H -1.762783 -0.488165 1.203181
H -0.531235 1.674421 -0.703529
H -2.466676 -0.033604 -0.405210
C -0.471138 0.838744 -0.009400
C 0.693968 0.013347 0.025514
C 2.016894 0.041206 0.146261
H 2.936166 -0.483837 -0.056259
