9
Energy = -190.61232692000
C -2.375629 0.140991 -0.004156
H -2.950530 -0.743718 -0.505777
H -2.766951 1.113092 -0.458789
H -2.804368 0.013270 1.072803
C 2.683404 0.597588 0.020061
C -1.052347 -0.012847 -0.006721
C 0.264567 -0.164072 -0.010073
C 1.566116 -0.385260 -0.016867
H 2.005180 -1.441044 -0.001699
