6
Energy = -189.41973654000
H 0.667317 2.920820 0.000000
C 0.344890 1.874056 0.000000
C 0.000000 0.662348 0.000000
C -0.259932 -0.691326 0.000000
C -1.362491 -1.589027 0.000000
C 1.166314 -0.742855 0.000000
