3
Energy =   -151.315636317     
    C    0.313360    0.839104    0.000000
    C    0.848642   -0.428762    0.000000
    O   -0.598982   -0.292995    0.000000

FREQUENCIES 3
478.8234
891.6808
1452.0720

SYMMETRY C2V
ELECTRONIC_STATE 2-B1
