3
Energy =   -151.400775096     
    C   -0.160656   -0.006997   -0.000000
    C   -1.465788   -0.057060    0.000000
    O    1.063978    0.040882   -0.000000

FREQUENCIES 4
486.9536
540.2255
1148.9872
1862.8097

SYMMETRY C*V
ELECTRONIC_STATE ??
