3
Energy =   -151.213261889     
    C    0.169483    1.001179    0.000000
    C    0.864392   -0.644901    0.000000
    O   -0.470854   -0.238930    0.000000

FREQUENCIES 3
382.3983
543.6638
1128.0672

SYMMETRY C2V
ELECTRONIC_STATE 4-B2
