4
Energy =   -189.393225513     
    C    0.798030    0.067655   -0.010533
    C    2.093142    0.248842    0.007329
    C   -0.461301   -0.096170    0.046082
    O   -1.677001   -0.261994    0.054880

FREQUENCIES 6
21.4299
281.8037
282.9466
936.3855
1512.9924
2116.0637

SYMMETRY C1
ELECTRONIC_STATE 4-A
