4
Energy =   -189.505309248     
    C    0.803090    0.066468   -0.021689
    C    2.051699    0.228301   -0.081899
    C   -0.503355   -0.054917    0.328707
    O   -1.598564   -0.281518   -0.127361

FREQUENCIES 6
225.8505
238.7804
528.7378
914.7406
1773.6917
1936.1649

SYMMETRY CS
ELECTRONIC_STATE 2-A'
