4
Energy =   -189.505309837     
    C    0.415119   -0.564938    0.157994
    C   -0.031860    0.706961    0.000719
    C   -0.227140    1.952335    0.000203
    O    0.156637   -1.712490   -0.117111

FREQUENCIES 6
224.8923
239.0738
526.9138
915.2199
1772.8127
1936.2511

SYMMETRY CS
ELECTRONIC_STATE 2-A'
