5
Energy =   -227.562550436     
    C    0.040714    0.012234    0.006363
    C    0.348708   -0.587603    1.331087
    C   -0.216850    0.635264    1.332169
    C    0.016197    0.001416   -1.274112
    O   -0.006781   -0.008654   -2.473116

FREQUENCIES 9
176.8278
249.9070
433.2607
534.7367
659.2308
748.6248
1255.7796
1519.1745
2111.5286

SYMMETRY C2V
ELECTRONIC_STATE 2-B1
