5
Energy =   -227.562550724     
    C    0.279840    0.085372   -0.002390
    C    1.490861    0.534752    0.735938
    C    1.684724   -0.010929   -0.480692
    C   -0.983384   -0.085005   -0.126458
    O   -2.166049   -0.245212   -0.242698

FREQUENCIES 9
178.0286
250.0132
433.7926
534.1703
658.0604
746.1504
1255.9063
1518.0528
2112.1149

SYMMETRY CS
ELECTRONIC_STATE 2-A"
