2
Energy =   -113.312196262     
    C   -0.756731    0.000000    0.000000
    O    0.426108    0.000000    0.000000

FREQUENCIES 1
1664.1269

SYMMETRY C*V
ELECTRONIC_STATE ??
