2
Energy =   -113.137277634     
    C   -0.810199    0.000000    0.000000
    O    0.489559    0.000000    0.000000

FREQUENCIES 1
1240.4468

SYMMETRY C*V
ELECTRONIC_STATE 4-SG
