2
Energy =   -113.312196262     
    C   -0.803439    0.000000    0.000000
    O    0.379405    0.000000    0.000000

FREQUENCIES 1
1664.0972

SYMMETRY C*V
ELECTRONIC_STATE ??
