2
Energy =   -113.137277663     
    C   -0.861954    0.000000    0.000000
    O    0.437920    0.000000    0.000000

FREQUENCIES 1
1239.9291

SYMMETRY C*V
ELECTRONIC_STATE 4-SG
