5
Energy =   -152.551946244     
C -1.369776000 -0.241895000 -0.373139000
O -0.541986000 -0.728127000  0.347550000
C -2.574506497  0.459003990 -0.069323150
H -3.214109973  0.835884030 -0.864131828
H -2.889726060  0.637677091  0.956734623

FREQUENCIES 9
403.5379
453.4226
814.2850
972.9811
1066.2096
1423.8828
1762.7588
3006.1627
3139.8747

SYMMETRY CS
ELECTRONIC_STATE 4-A"
