5
Energy =   -152.589663621     
    C    1.268379   -0.123481   -0.279064
    C    0.085859   -0.012899   -0.088541
    H    2.309368   -0.236551   -0.440452
    H   -1.555463    0.964943   -0.166231
    O   -1.191644    0.083021    0.127194

FREQUENCIES 9
355.0540
419.6351
534.6574
631.2113
1064.5653
1168.6038
2206.4417
2971.6104
3465.1486

SYMMETRY CS
ELECTRONIC_STATE 2-A'
