5
Energy =   -152.551946263     
    C    1.241612   -0.584979    0.570008
    C    0.062741    0.217140    0.534728
    H    2.128202   -0.246800    1.101848
    H    1.291997   -1.550806    0.071449
    O   -1.001292    0.026426    0.011889

FREQUENCIES 9
404.8800
453.7924
814.4638
973.2189
1066.7430
1423.8800
1760.6565
3005.4308
3139.4478

SYMMETRY CS
ELECTRONIC_STATE 4-A"
