5
Energy =   -152.589663297     
    C    1.085772    0.287912   -0.711745
    C   -0.019218    0.232859   -0.239446
    H    2.060049    0.319690   -1.126885
    H   -1.651518    1.042144    0.341347
    O   -1.209908    0.148948    0.272923

FREQUENCIES 9
355.5895
419.7201
534.5285
631.0541
1065.1532
1169.8093
2205.6866
2961.4110
3464.7654

SYMMETRY CS
ELECTRONIC_STATE 2-A'
