5
Energy =   -152.569355474     
C  1.419511000  0.473532000 -0.731716000
C  0.551699000 -0.064629000  0.100197000
H  0.815151022 -0.427732928  1.108545922
H -1.214923319 -0.683029931  0.650993659
O -0.859567419 -0.272076384 -0.146106599

FREQUENCIES 9
86.3926
484.0725
687.8903
813.3379
1157.5662
1249.2809
1606.6473
2878.7823
3728.7701

SYMMETRY CS
ELECTRONIC_STATE 2-A'
