5
Energy =   -152.456231291     
    C    1.447575    0.115043    0.305110
    C    0.197136    0.317857   -0.152307
    H    1.767399   -0.686826    0.965627
    H   -0.988125   -1.048224    0.543266
    O   -0.975377   -0.232510   -0.044564

FREQUENCIES 9
407.4300
634.0032
787.8389
1044.1069
1078.8508
1246.6447
1588.9216
2884.0715
3088.7135

SYMMETRY CS
ELECTRONIC_STATE 4-A"
