6
Energy =   -190.701333370     
    C   -0.653648    0.297363   -0.284989
    C   -1.888183    0.120540   -0.080490
    C    0.688935    0.432396   -0.477975
    H    1.061230   -1.236604    0.346024
    H    1.202070    1.257723   -0.950213
    O    1.608223   -0.552641   -0.056010

FREQUENCIES 12
192.2372
325.4817
394.5171
413.5690
569.2454
942.0082
1139.1668
1230.5791
1407.6454
1863.7671
3170.8302
3795.3668

SYMMETRY CS
ELECTRONIC_STATE 2-A"
