7
Energy =   -228.674988512     
    C   -0.938490    0.672576   -0.171013
    C    1.075553   -0.143158    0.288425
    O    0.318946    1.026428    0.235331
    C    0.146843   -1.178035    0.209527
    C   -1.093415   -0.707065   -0.194839
    H   -1.583173    1.470373   -0.510969
    H   -1.979423   -1.237933   -0.505348

FREQUENCIES 15
389.3592
486.1451
602.1957
687.6078
774.9353
838.2332
883.1254
967.8622
1066.3463
1130.2515
1222.0606
1287.8919
1410.8981
3175.0840
3195.2946

SYMMETRY C1
ELECTRONIC_STATE 4-A
