7
Energy =   -228.780314651     
C -0.940118000  0.672719000 -0.223411000
C  1.054552000 -0.187808000  0.408118000
O  0.326868531  1.021771552  0.150348287
C  0.198618724 -1.175571656  0.178605449
C -1.083709438 -0.685334031 -0.225465131
H -1.622753353  1.479240207 -0.455191074
H -1.986303571 -1.221863797 -0.482929341

FREQUENCIES 15
399.9831
409.5966
602.9393
664.9136
790.1708
807.5670
883.4762
1010.4929
1097.0484
1123.8299
1321.2611
1411.5899
1522.5158
3158.3726
3184.0263

SYMMETRY CS
ELECTRONIC_STATE 2-A'
