7
Energy =   -228.806594922     
    C    1.068761   -0.619630   -0.064023
    C   -1.676420   -0.481437    0.006097
    C   -1.210827    0.657753    0.617668
    C   -0.253776   -0.208699    0.153890
    H   -1.462957    1.583241    1.114196
    H    1.170265   -1.591102   -0.584976
    O    2.114354    0.012736    0.276782

FREQUENCIES 15
215.7441
227.0975
390.4301
545.0788
704.2631
808.6604
846.4648
966.2766
1051.9046
1310.1614
1371.5263
1475.2666
1704.4519
2864.4723
3174.1277

SYMMETRY CS
ELECTRONIC_STATE 2-A"
