7
Energy =   -228.802398289     
C  1.132594000  0.852154000 -0.381408000
C -1.120106000 -0.446674000  0.280783000
C -1.434264804 -0.039171902 -0.991895738
C -0.145100551  0.269811807 -0.363714879
H -1.460790016 -0.978650205  1.159058301
H  1.716411265  0.711776992  0.553091714
O  1.657782751  1.499018648 -1.333652476

FREQUENCIES 15
219.4241
226.2848
369.2289
580.7802
721.3574
765.6188
803.0136
923.8174
1128.0940
1322.2510
1365.1245
1480.3761
1690.2159
2815.1128
3148.6743

SYMMETRY CS
ELECTRONIC_STATE 2-A"
