4
Energy =   -114.413053206     
    C    0.444253   -0.148858   -0.327884
    H    0.767031   -1.209950   -0.327012
    H    0.464871    0.245553   -1.364272
    O   -0.658362    0.076602    0.309617

FREQUENCIES 6
768.7538
845.2395
1205.5876
1305.1242
2773.8562
2860.3484

SYMMETRY CS
ELECTRONIC_STATE 4-A"
