4
Energy =   -114.337991288     
    C    1.126529    0.115416    0.075777
    H   -0.794297   -0.924060   -0.399910
    H   -0.990092    0.637125   -0.418247
    O   -0.347775   -0.078321   -0.671420

FREQUENCIES 6
423.4652
629.0450
692.2830
1465.2647
3048.5256
3182.1647

SYMMETRY CS
ELECTRONIC_STATE 2-A"
