4
Energy =   -114.455725081     
    C    0.544853   -0.307117   -0.263626
    H    0.406095   -1.415037   -0.200177
    H   -0.756697    1.098589   -0.372341
    O   -0.845680    0.148837   -0.317764

FREQUENCIES 6
564.8662
836.6521
1062.2650
1365.6721
2721.0926
3891.3359

SYMMETRY CS
ELECTRONIC_STATE 2-A"
