6
Energy =   -153.140459904     
    C    1.132380   -0.458227    0.309645
    C    0.112967    0.591570    0.051020
    H    0.065087    0.900279   -1.011859
    H    0.274925    1.513130    0.644050
    H   -1.073040   -0.776013    0.705134
    O   -1.248779    0.124997    0.396653

FREQUENCIES 12
317.0401
412.0638
816.2656
885.5607
954.0623
1154.5486
1187.8257
1342.4966
1456.9665
2787.3180
2816.4931
3683.9150

SYMMETRY C1
ELECTRONIC_STATE 3-A
