6
Energy =   -153.173887033     
    C    0.076591   -0.078750    0.099417
    C    0.895845   -1.108327    0.003858
    H    1.571756   -1.358352    0.814214
    H    0.898737   -1.752586   -0.873601
    H   -1.475070    1.019322   -0.237054
    O   -0.752750    0.520152   -0.714210

FREQUENCIES 12
260.2111
427.4775
567.0389
771.5397
957.3508
1097.1676
1185.1258
1411.3520
1678.8159
2971.2515
3052.7756
3138.5405

SYMMETRY C1
ELECTRONIC_STATE 3-A
