6
Energy =   -153.173886883     
    C    0.064754   -0.050783   -0.151458
    C    0.872807   -1.082041   -0.306387
    H    0.737159   -1.793351   -1.119123
    H    1.715246   -1.232854    0.359575
    H   -1.206777    1.321241   -0.629344
    O   -1.055253    0.336121   -0.702979

FREQUENCIES 12
263.1377
427.5238
567.2562
771.3146
957.4765
1097.2254
1185.0068
1411.3129
1678.7027
2968.8829
3053.1603
3138.9978

SYMMETRY C1
ELECTRONIC_STATE 3-A
