6
Energy =   -153.173887056     
    C    1.190581   -0.953329    0.178305
    C    0.120881   -0.786359   -0.575478
    H    1.263053   -0.506597    1.168316
    H    2.042395   -1.519286   -0.182371
    H   -1.492973    0.033269   -1.246974
    O   -1.063701   -0.264071   -0.394893

FREQUENCIES 12
260.9362
427.5192
567.0638
771.3906
957.2919
1097.1821
1185.0897
1411.2517
1678.7197
2970.1904
3053.0334
3138.8651

SYMMETRY C1
ELECTRONIC_STATE 3-A
