6
Energy =   -153.231455951     
    C    0.183460    0.103435    0.012750
    C    0.856143   -1.030963   -0.277644
    H    0.586049   -1.693400   -1.112548
    H    1.707554   -1.326660    0.324947
    H   -1.298752    1.130186   -0.595961
    O   -0.906518    0.315735   -0.901261

FREQUENCIES 12
442.3454
484.8371
694.2412
739.3596
831.2667
1030.5424
1182.8827
1358.3307
1540.7854
2941.9425
3133.3931
3923.5975

SYMMETRY C1
ELECTRONIC_STATE 1-A
