6
Energy =   -153.231460445     
    C    0.181324    0.003378   -0.646391
    C    0.916511   -1.066047   -0.272368
    H    1.966018   -1.123498   -0.538304
    H    0.504878   -1.907846    0.302895
    H   -1.590099    0.686933   -0.516490
    O   -1.180120   -0.113116   -0.196782

FREQUENCIES 12
435.9773
485.1480
693.5049
739.3227
830.8940
1030.3357
1182.2894
1358.2860
1540.3344
2941.5317
3132.5752
3922.2521

SYMMETRY CS
ELECTRONIC_STATE 1-A'
