7
Energy =   -191.264241179     
C  1.124421116 -0.021055212 -0.007426772
C  0.761894363  1.103575516 -0.733639476
C -0.597215204 -1.512244344  0.616479186
H  1.651788525 -0.848110485 -0.493615223
H  1.415065065  0.068626123  1.044238275
H -0.234305890  1.403911588 -1.066020320
O -1.634304375 -1.148380171  0.239934251

FREQUENCIES 15
90.1444
101.7694
158.5313
192.2051
380.8962
444.5400
756.7945
797.3706
945.7878
1250.1190
1427.0074
1888.6669
2968.5066
2992.4105
3008.0838

SYMMETRY CS
ELECTRONIC_STATE 3-A"
