7
Energy =   -191.356795463     
    C    0.984295   -0.353082    0.310352
    C    0.200830    0.638216   -0.522998
    C   -0.468790   -0.464215   -0.219080
    H    1.779761   -0.969127   -0.137794
    H    1.165492   -0.176574    1.382326
    H    0.276115    1.605382   -0.997483
    O   -1.450448   -1.233929   -0.214791

FREQUENCIES 15
186.8085
456.3915
581.1075
702.2753
893.5630
941.3392
967.1696
1063.4799
1080.0922
1160.8905
1483.8475
1826.3193
2877.8108
2886.8445
3160.0518

SYMMETRY CS
ELECTRONIC_STATE 1-A'
