8
Energy =   -229.388515678     
    C   -1.478099    0.613596   -0.087907
    C    1.054431   -0.176469   -0.007975
    O    1.987706   -0.179023    0.795856
    C   -0.337526   -0.052490    0.658655
    C   -1.554240   -0.667128   -0.007648
    H   -1.865535    1.540688   -0.470367
    H   -0.315591    0.015885    1.762526
    H   -2.053708   -1.581129   -0.274176

FREQUENCIES 18
111.4137
293.9654
323.8895
482.6570
573.8740
692.5357
829.2591
859.2194
912.2085
998.8535
1040.8550
1127.4219
1242.5382
1554.9748
1719.6847
2848.1600
3221.8489
3268.2608

SYMMETRY C1
ELECTRONIC_STATE 1-A
