8
Energy =   -229.358771025     
    C    0.190567    0.683271   -0.455871
    C   -0.728158   -0.431342   -0.344257
    O   -0.942539    0.754309    0.490888
    C    0.426528   -1.335910    0.277286
    C    1.240234   -0.241884    0.120289
    H    0.225044    1.498713   -1.178435
    H   -1.566163   -0.703675   -0.978383
    H    2.252242   -0.029368    0.460907

FREQUENCIES 18
403.0226
491.7252
648.5036
723.4749
747.1498
827.0432
846.0112
887.4796
946.2954
1052.2168
1140.3110
1182.3661
1238.2344
1346.7654
1424.8558
3038.1199
3074.3687
3109.5897

SYMMETRY C1
ELECTRONIC_STATE 1-A
