8
Energy =   -229.470094014     
    C   -0.657317    0.887837    0.107076
    C    0.075936   -1.274646   -0.060566
    O   -1.055479   -0.412576    0.030626
    C    1.151341   -0.397972   -0.033989
    C    0.698493    0.960785    0.071537
    H   -1.428090    1.640806    0.179393
    H    2.185340   -0.711606   -0.083908
    H    1.285110    1.868367    0.115977

FREQUENCIES 18
599.8258
616.4670
653.1467
755.0403
802.9139
811.9870
855.7859
899.2640
985.9667
1077.0589
1111.1944
1167.2325
1355.6730
1371.2107
1541.5730
3157.8679
3173.4222
3200.3489

SYMMETRY C1
ELECTRONIC_STATE 1-A
