5
Energy =   -115.075420598     
    C   -0.117800   -0.207155   -0.420503
    H   -0.500519    0.547489    0.283911
    H   -0.463013    0.134221   -1.424190
    H   -0.602836   -1.184002   -0.269914
    O    1.237628   -0.266706   -0.485218

FREQUENCIES 9
619.4632
949.1926
1096.3253
1322.5212
1330.0068
1499.9489
2778.9961
2893.9365
2958.5101

SYMMETRY CS
ELECTRONIC_STATE 3-A'
