5
Energy =   -115.100985515     
C -0.011765110 -0.314269542  0.703365751
H  0.303913978  0.533317249 -1.021381121
H  0.457693460 -1.292148051  0.924252603
H  0.109227681  0.276800014  1.631496266
O  0.901474388  0.343289268 -0.305399610

FREQUENCIES 9
352.7197
771.1344
978.4832
1175.6198
1191.0071
1450.8578
2822.1973
2857.0030
3938.6736

SYMMETRY CS
ELECTRONIC_STATE 1-A'
