7
Energy =   -153.850718621     
C -0.097044000  0.216360000  0.479969000
C -1.189144000  0.220899000 -0.279473000
H -2.012468467  0.875515106 -0.010791875
H  0.961052894 -1.088599455 -0.464310371
H -0.012439284  0.846831728  1.353705273
H -1.303779728 -0.396863725 -1.157836369
O  1.035132787 -0.519799166  0.322382834

FREQUENCIES 15
451.6094
478.0826
689.9009
832.4366
931.8031
990.2652
1085.9695
1308.9746
1352.3409
1428.5993
1660.6148
3089.1744
3181.2619
3205.1516
3535.5405

SYMMETRY CS
ELECTRONIC_STATE 2-A'
