8
Energy =   -191.801169802     
    C   -0.209491    0.962678   -0.250922
    C    0.907656    0.001994   -0.455890
    C   -0.450925   -0.343886   -0.946723
    H    1.916920   -1.453131    0.310713
    H   -0.189820    1.852186   -0.886037
    H   -0.624927    1.146735    0.736476
    H   -1.108804   -1.129994   -0.599598
    O    1.507428   -0.600415    0.588187

FREQUENCIES 18
333.5537
393.0148
434.2973
664.3834
777.6687
827.7025
895.6164
949.8147
996.9912
1058.9359
1144.5670
1228.7413
1367.2347
1424.8355
2995.1173
3106.2334
3156.6390
3264.5377

SYMMETRY C1
ELECTRONIC_STATE 4-A
