8
Energy =   -191.847360338     
    C   -1.199736    1.003613    0.179867
    C    0.983753   -0.228776    0.467663
    C   -0.506485   -0.285086    0.250100
    H    1.316497    0.461513    1.263488
    H   -0.679517   -0.901628   -0.641336
    H   -2.198940    1.340508    0.451247
    H   -0.995134   -0.854731    1.095371
    O    1.789927   -0.996210   -0.089279

FREQUENCIES 18
98.9831
274.3831
340.7842
496.9200
665.7814
724.2067
891.8662
1007.1239
1081.6330
1130.4726
1237.4517
1331.2525
1384.5368
1535.1302
2562.8685
2891.7494
2959.5583
3075.4199

SYMMETRY C1
ELECTRONIC_STATE 4-A
