8
Energy =   -191.904179694     
C -1.991534000 -0.889058000  0.344726000
C  0.279081000  0.039318000 -0.291344000
C -0.645948863 -0.580701077  0.548214139
H  1.706985413 -0.069454697  0.971146893
H -0.199795879 -0.856706651  1.523622642
H  0.072006193  0.395137858 -1.290671184
H -2.273159763 -0.545064833 -0.678495415
O  1.615525650  0.276234703  0.077217962

FREQUENCIES 18
143.5079
304.5037
329.7304
486.0644
533.1080
625.2702
929.6569
968.4636
1081.3421
1179.8976
1187.2608
1254.5543
1359.6039
1426.2399
2776.6629
2846.5417
3184.3593
3802.0385

SYMMETRY CS
ELECTRONIC_STATE 2-A"
