8
Energy =   -191.915574938     
    C   -1.158967   -1.183136    0.713066
    C    0.783213    0.544135    0.591069
    C   -0.699518   -0.038267    0.294970
    H    0.541968    1.416702    1.258107
    H    1.263503   -0.218242    1.253548
    H   -0.637557   -1.947207    1.284149
    H   -1.252943    0.655706   -0.333578
    O    1.430459    0.848532   -0.510370

FREQUENCIES 18
138.9818
353.3355
373.5488
613.1167
697.5153
842.3214
905.8913
1002.8765
1192.9713
1220.6626
1238.1559
1303.2391
1471.6726
1622.2820
2621.4221
2696.8298
3086.3917
3107.8194

SYMMETRY C1
ELECTRONIC_STATE 2-A
