9
Energy =   -230.029517419     
    C   -0.322302    0.836570   -0.000001
    C    0.166145   -1.571218   -0.678101
    O   -0.050322    2.046956    0.000001
    C    0.166144   -1.571218    0.678101
    C    0.615520   -0.270000   -0.000000
    H   -1.387528    0.510183    0.000001
    H   -0.618906   -1.698696    1.425787
    H   -0.618906   -1.698696   -1.425787
    H    1.665758    0.015183   -0.000000

FREQUENCIES 21
177.5591
324.9503
415.1888
509.2448
617.7336
629.4759
823.9084
914.5974
918.5275
1006.4521
1010.4688
1052.9229
1135.1769
1262.6289
1381.3857
1437.1311
1620.9942
2810.4480
2979.3059
3030.6872
3057.8129

SYMMETRY CS
ELECTRONIC_STATE 2-A"
