9
Energy =   -229.957240604     
    C    1.219581    0.121107   -0.038103
    C   -2.223798   -0.406491   -0.419640
    O    1.954566    0.188621    0.935586
    C   -1.150790    0.055776    0.266788
    C   -0.040000    0.891676   -0.311196
    H    0.029267    1.902237    0.147345
    H   -2.732374   -1.361916   -0.500151
    H   -1.076296   -0.103661    1.343664
    H   -0.194638    1.016303   -1.384290

FREQUENCIES 21
108.7785
139.9255
201.1067
385.0223
420.5131
504.7995
583.3644
759.8203
869.3771
918.8769
997.6406
1151.6016
1199.4799
1250.5730
1426.2553
1431.6821
1624.3307
2765.2215
3031.3065
3044.5708
3059.8907

SYMMETRY C1
ELECTRONIC_STATE 4-A
