9
Energy =   -229.987882948     
    O   -3.463470   -0.729386    0.000000
    C    1.201504    0.738842   -0.000000
    C    0.352139   -0.500364   -0.000000
    C   -0.999337   -0.537251   -0.000000
    C   -2.268677   -0.676875    0.000000
    H    1.856784    0.759580    0.879430
    H    1.856784    0.759580   -0.879430
    H    0.603823    1.648889   -0.000000
    H    0.860652   -1.463117   -0.000000

FREQUENCIES 21
68.4423
120.4419
157.4653
251.4913
368.0954
471.6357
581.8041
766.7250
1004.3310
1020.1391
1076.3987
1277.9511
1380.9868
1463.5079
1464.2908
1523.3292
2111.9600
2946.0460
2994.6579
3066.8552
3087.4092

SYMMETRY CS
ELECTRONIC_STATE 4-A"
