9
Energy =   -229.991546803     
    O    1.888908    0.802904    0.345648
    C   -0.347618   -0.048486   -0.028470
    C    0.666390    0.871170    0.276034
    C   -0.113919   -1.347651   -0.483809
    C   -1.789007    0.443866    0.013425
    H   -0.527687   -2.314896   -0.210399
    H   -1.827246    1.448806    0.438835
    H   -2.420657   -0.210520    0.626799
    H   -2.245163    0.477511   -0.983967

FREQUENCIES 21
129.4706
174.6319
255.6666
286.9995
384.8283
503.9308
594.8240
823.2560
852.3453
996.6258
1037.2375
1188.9874
1332.2172
1375.6110
1471.0768
1490.8673
1686.4652
2953.4150
2973.1936
3052.2770
3090.4795

SYMMETRY C1
ELECTRONIC_STATE 4-A
