9
Energy =   -230.080963135     
    C    0.000000   -1.093072    0.317862
    C   -0.000000    1.093072    0.317862
    O    0.000000    0.000000    1.129938
    C    0.000000    0.715472   -0.982707
    C   -0.000000   -0.715472   -0.982707
    H    0.000000   -2.049283    0.812138
    H   -0.000000    2.049283    0.812138
    H    0.000000    1.370900   -1.839123
    H   -0.000000   -1.370900   -1.839123

FREQUENCIES 21
612.2271
612.3756
731.2490
774.7957
860.6948
865.3187
880.8623
894.0783
1001.7298
1049.8771
1077.2556
1160.0893
1188.5457
1285.9625
1408.2672
1505.6849
1586.0354
3200.7171
3205.1716
3234.6297
3236.6389

SYMMETRY C2V
ELECTRONIC_STATE 2-A1
