9
Energy =   -229.937230475     
    O    2.875299    0.768753   -0.000047
    C    0.711437   -0.305545    0.000066
    C    1.564136    0.814156   -0.000006
    C   -0.626102   -0.294838    0.000020
    C   -1.918942   -0.469130   -0.000009
    H    1.201695   -1.278532    0.000117
    H    1.182173    1.836339   -0.000104
    H   -2.494889   -0.535809    0.922894
    H   -2.494907   -0.535394   -0.922930

FREQUENCIES 21
109.5623
127.5445
199.0125
366.1402
448.1320
514.0820
525.8346
851.9743
890.4915
984.1137
984.2728
1063.4738
1157.9241
1244.6329
1330.7384
1441.7411
1825.1430
3013.3699
3046.2745
3057.6268
3079.3266

SYMMETRY CS
ELECTRONIC_STATE 4-A"
