9
Energy =   -230.033985513     
    C    0.349399   -1.248995    0.628103
    C   -0.027530    0.646390   -0.836735
    O   -0.475683   -0.866449    1.625457
    C   -0.531070    1.700537   -1.138699
    C    0.582653   -0.587267   -0.515061
    H    0.833405   -2.190292    0.843689
    H   -0.888424   -0.020677    1.390290
    H   -0.972930    2.628009   -1.407518
    H    1.277378   -1.028222   -1.224395

FREQUENCIES 21
125.3003
276.1176
365.4186
511.1182
616.4846
649.0030
695.2066
728.0779
799.1667
948.4706
962.4564
1089.7121
1215.6147
1353.4263
1419.9901
1662.5252
2164.8113
3094.7585
3194.4202
3438.2212
3656.8856

SYMMETRY C1
ELECTRONIC_STATE 2-A
