9
Energy =   -230.071951272     
    O   -2.951434    1.069203    0.185614
    C    1.771000   -0.043114   -0.047883
    C    0.365166   -0.020019   -0.497653
    C   -0.825744    0.039790   -0.139315
    C   -2.199915    0.053386    0.086707
    H    1.865496   -0.076961    1.055179
    H    2.315173    0.841700   -0.391585
    H    2.310139   -0.908072   -0.444646
    H   -2.649980   -0.955914    0.193579

FREQUENCIES 21
103.2945
140.4146
179.7996
308.3700
383.8104
597.5226
796.7058
828.4274
1015.5468
1049.2196
1156.5642
1336.8014
1384.6653
1467.3856
1475.5521
1497.9901
2031.5228
2819.0567
2838.7854
2999.9164
3021.8961

SYMMETRY C1
ELECTRONIC_STATE 2-A
