9
Energy =   -229.964130871     
    C   -1.183960    0.096218   -0.140410
    C    2.169153   -0.437680   -0.023839
    O   -1.418667   -0.953321    0.430644
    C    1.240033    0.412191   -0.433345
    C   -0.003297    1.016102    0.047146
    H    0.109341    1.252686    1.146285
    H    2.143603   -0.861477    0.981261
    H    2.978763   -0.769887   -0.664818
    H   -0.197520    1.967845   -0.462587

FREQUENCIES 21
117.6368
198.3018
315.8934
358.9992
413.6659
530.5338
727.5558
836.6023
855.9446
930.6700
1016.7183
1138.1475
1242.1458
1352.1505
1399.9983
1544.2731
1611.5765
2564.6049
2956.4496
3037.1425
3130.0998

SYMMETRY C1
ELECTRONIC_STATE 4-A
