9
Energy =   -229.992487137     
    O    0.060517   -0.477348    0.000464
    C    1.085765    0.467771    0.000032
    C    2.348842    0.086717    0.000044
    C   -1.172756   -0.056523    0.000424
    C   -2.329181    0.259639    0.000407
    H    0.741414    1.492167   -0.000292
    H    3.128213    0.838681   -0.000295
    H    2.638624   -0.953597    0.000379
    H   -3.352236    0.543794    0.000359

FREQUENCIES 21
89.0691
165.1747
419.1062
454.1516
560.7900
638.0827
689.1899
699.3705
842.4919
885.3567
976.8142
1107.8706
1145.4309
1329.8171
1411.0143
1689.5701
2244.8197
3115.1890
3185.9015
3222.5908
3437.4447

SYMMETRY CS
ELECTRONIC_STATE 2-A'
