6
Energy =   -115.749826133     
    C    0.268828   -0.326182   -0.307438
    H   -1.649919   -0.023433   -0.137142
    H    0.445114    0.405724   -1.103992
    H    1.121707   -0.313064    0.371896
    H    0.202468   -1.319474   -0.765949
    O   -0.887673   -0.013451    0.458587

FREQUENCIES 12
239.0179
1029.2547
1078.5906
1177.1241
1370.6181
1468.0602
1490.4732
1506.2618
2949.5968
3005.2347
3068.2490
3666.8852

SYMMETRY CS
ELECTRONIC_STATE 2-A'
