4
Energy =   -151.966335083     
    C    0.031642   -0.384489   -0.268923
    C    0.205230    0.908176    0.204697
    H   -0.553448    1.279879    0.923082
    O   -0.345074   -1.432387    0.249960

FREQUENCIES 6
474.5271
624.4197
693.4942
1120.4826
1585.3988
2837.7155

SYMMETRY C1
ELECTRONIC_STATE 3-A
