4
Energy =   -152.069003942     
    C   -0.903988   -0.003124    0.446274
    C    0.310507   -0.030623    0.128980
    H   -1.570342    0.422628    1.162543
    O    1.450086   -0.145894   -0.286443

FREQUENCIES 6
417.6451
587.8946
600.7021
1240.5324
2079.0192
3356.4398

SYMMETRY CS
ELECTRONIC_STATE 1-A'
