4
Energy =   -151.972150781     
    C   -0.379633   -0.239158    0.024150
    C    0.861672    0.197156   -0.516402
    H    1.091189   -0.382322   -1.421631
    O   -1.031054    0.090911    0.996490

FREQUENCIES 6
314.9913
557.3878
979.9056
1037.9881
1630.0407
2961.2818

SYMMETRY C1
ELECTRONIC_STATE 3-A
