4
Energy =   -151.879417046     
    C    0.169269   -1.487735   -0.181613
    C   -0.035006    1.023430    0.210620
    H   -0.795808    1.166571    1.003506
    O   -0.000105   -0.331088    0.076303

FREQUENCIES 6
403.0792
494.9812
805.1443
1255.7459
1644.4000
2849.2165

SYMMETRY CS
ELECTRONIC_STATE 1-A'
