4
Energy =   -151.960247187     
    C   -0.123652    0.082308    0.304716
    C    0.226807    1.351286   -0.220819
    H   -0.727326    0.107486    1.258611
    O    0.145434   -1.062077   -0.145567

FREQUENCIES 6
537.3856
813.7775
1096.7099
1333.8021
1430.4329
2617.8653

SYMMETRY CS
ELECTRONIC_STATE 3-A"
