4
Energy =   -151.887424053     
    C   -0.987478   -0.366095   -0.303783
    C   -0.022049    0.571489    0.323389
    H    0.280337    0.765163    1.371997
    O    0.557725   -0.475316   -0.314277

FREQUENCIES 6
526.4169
872.1950
947.7135
1081.9836
1271.3443
2723.7880

SYMMETRY C1
ELECTRONIC_STATE 3-A
