4
Energy =   -151.983859441     
    C    0.389625   -0.343289    0.200307
    C    1.562349   -0.686866    0.404206
    H   -0.943306    0.634516   -0.717565
    O   -0.916417    0.007397    0.010718

FREQUENCIES 6
306.7832
364.8816
932.5922
1219.5740
2050.5168
3772.2801

SYMMETRY CS
ELECTRONIC_STATE 1-A'
