5
Energy =   -190.111174148     
    C   -0.198707    0.004603   -0.405312
    C    0.672376    0.485623    0.387421
    C   -0.968726   -0.455707   -1.365346
    H   -1.955310   -0.889856   -1.425568
    O    1.492926    0.943696    1.168840

FREQUENCIES 9
247.6224
251.0762
332.1222
439.4645
760.8776
925.2494
1534.2019
2128.0934
3169.2700

SYMMETRY CS
ELECTRONIC_STATE 3-A"
