5
Energy =   -190.065786262     
    C    0.156886    0.105736    0.852615
    C    0.037518   -0.908301   -0.064538
    C   -0.081917   -1.965169   -0.734971
    H    0.347874    1.962720    0.978848
    O    0.272064    1.340767    0.252243

FREQUENCIES 9
241.3415
247.2110
607.9079
698.7242
967.8542
1103.7915
1333.3121
1977.9821
3837.3616

SYMMETRY CS
ELECTRONIC_STATE 1-A'
