6
Energy =   -228.093183227     
    C   -0.865723    0.486440   -0.481368
    C    0.323573   -0.791617    0.833542
    C    0.759796    0.455312    0.513165
    C    0.224039    1.424065   -0.262881
    H    0.697292   -1.599754    1.436116
    O   -0.842310   -0.859733    0.162599

FREQUENCIES 12
381.1719
444.8103
485.0977
541.5914
637.4662
729.5093
840.0276
1095.9109
1183.3032
1341.7941
1563.9127
3233.8151

SYMMETRY CS
ELECTRONIC_STATE 1-A'
