3
Energy =   -113.815974963     
    C   -1.197456    0.123994    0.000000
    H    0.602780   -1.553811   -0.000000
    O   -0.024185    0.361056    0.000000

FREQUENCIES 3
102.2534
534.5938
1591.1245

SYMMETRY CS
ELECTRONIC_STATE 3-A'
