2
Energy =   -75.7357763557     
    H   -0.863352    0.000000    0.000000
    O    0.136654    0.000000    0.000000

FREQUENCIES 1
3186.0076

SYMMETRY C*V
ELECTRONIC_STATE ??
