2
Energy =   -796.397310570     
    S    0.951648    0.000000    0.000000
    S   -0.951648    0.000000    0.000000

FREQUENCIES 1
712.8468

SYMMETRY D*H
ELECTRONIC_STATE 1-DLTG
