2
Energy =   -796.009532528     
    S    1.029760    0.000000    0.000000
    S   -1.029760    0.000000    0.000000

FREQUENCIES 1
561.3748

SYMMETRY D*H
ELECTRONIC_STATE 4-SGG
