3
Energy =   -1194.62911093     
    S   -0.726764   -0.542922    0.000000
    S    1.238373   -0.899840    0.000000
    S   -0.511610    1.442761    0.000000

FREQUENCIES 3
206.8856
471.8277
589.4334

SYMMETRY C2V
ELECTRONIC_STATE 3-A2
