3
Energy =   -1194.65715856     
    S   -0.525271   -0.392435    0.000000
    S    1.250501   -1.126212    0.000000
    S   -0.725231    1.518645    0.000000

FREQUENCIES 3
262.3283
595.3557
687.5534

SYMMETRY C2V
ELECTRONIC_STATE 1-A1
