3
Energy =   -1194.64244352     
S -0.967118813 -0.722475027 -0.000000000
S  1.109240845 -0.476312448  0.000000000
S -0.142122031  1.198786474  0.000000000

FREQUENCIES 3
455.1302
455.1302
597.8331

SYMMETRY D3H
ELECTRONIC_STATE 1-A1'
