4
Energy =   -1592.52293123     
    S    0.078531   -1.220524   -0.450015
    S   -1.368235   -0.000008    0.521112
    S    0.078519    1.220525   -0.450014
    S    1.611185    0.000007    0.378916

FREQUENCIES 6
264.9283
293.3158
338.0045
353.5928
435.4449
532.9997

SYMMETRY C2V
ELECTRONIC_STATE 2-B2
