4
Energy =   -1592.87681457     
S -0.094721000 -0.345337500  2.472064250
S  0.196195000  0.604827500  0.818859750
S -0.196195000 -0.604827500 -0.818860250
S  0.094721000  0.345337500 -2.472064750

FREQUENCIES 6
92.8091
124.2447
225.5143
466.1248
634.5676
647.2336

SYMMETRY C2H
ELECTRONIC_STATE 1-AG
