4
Energy =   -1592.88026735     
S -0.000170966  1.223160913  1.567030484
S -0.000134814 -0.660278981  1.272818140
S  0.000134814 -0.715726019 -1.231279140
S  0.000170966  1.152845087 -1.608570484

FREQUENCIES 6
80.6199
87.7755
221.7119
263.8248
666.4190
694.8498

SYMMETRY C2V
ELECTRONIC_STATE 3-B2
