4
Energy =   -1592.56883782     
    S    0.100007   -1.472763    0.000049
    S   -1.372716   -0.000007    0.011664
    S    0.099993    1.472763    0.000050
    S    1.572716    0.000007   -0.011764

FREQUENCIES 6
88.6745
313.0096
472.4785
472.4785
524.3837
564.3395

SYMMETRY D4H
ELECTRONIC_STATE 2-B2U
