4
Energy =   -1592.85595686     
S  1.261654980  0.703083427  0.292455129
S -0.456373541  1.060857097 -0.915388739
S  0.571218530 -1.311353134  0.354532992
S -1.376501968 -0.452588390  0.268400618

FREQUENCIES 6
201.4656
301.9130
413.2925
413.2925
440.7274
504.9179

SYMMETRY D2D
ELECTRONIC_STATE 1-A1
