4
Energy =   -1592.85739432     
S  1.170576911  0.954600678  0.364436671
S -0.496741911 -0.449235678  1.551555329
S  0.301445819  0.283043350 -1.322295604
S -1.155007819 -0.943250350 -0.285311396

FREQUENCIES 6
71.0565
164.8812
286.1052
398.6128
499.0401
588.0410

SYMMETRY C2V
ELECTRONIC_STATE 3-B1
