4
Energy =   -1592.85595690     
S  1.224132886  0.591868843  0.481304970
S -0.543117550 -0.079358990  1.463349766
S  0.056197227  0.483919824 -1.297010579
S -0.916939563 -1.151270677 -0.339258157

FREQUENCIES 6
201.3442
301.8954
413.3919
413.3919
440.8861
504.9970

SYMMETRY D2D
ELECTRONIC_STATE 1-A1
