5
Energy =   -1990.78878722     
    S   -0.487287   -0.553328   -0.597916
    S   -2.093630   -0.352642    0.678824
    S   -1.761904    1.040596   -0.888465
    S    1.379770    0.388632    0.634907
    S    2.963051   -0.523259    0.172649

FREQUENCIES 9
28.2119
65.0310
99.1119
117.3193
284.6745
430.8526
433.3560
603.1022
698.7853

SYMMETRY C1
ELECTRONIC_STATE 2-A
