5
Energy =   -1991.10627014     
    S    0.052311    0.936646   -0.684042
    S    1.357128    0.026559    0.727367
    S   -0.693135    0.334122    3.386308
    S   -0.662728   -0.362473   -1.944423
    S    0.078604   -0.934875    2.128667

FREQUENCIES 9
25.0337
47.9560
117.6214
216.9262
223.8317
337.0167
399.0127
592.3929
595.7799

SYMMETRY C1
ELECTRONIC_STATE 3-A
