5
Energy =   -1991.09520369     
    S    0.408485   -0.907822    1.825049
    S   -0.291165    0.622572   -0.939287
    S   -0.232880    0.634247   -2.874877
    S   -0.467739    0.778211    2.225897
    S    0.583299   -1.127209   -0.236782

FREQUENCIES 9
64.0269
89.9764
159.8376
170.1847
269.3283
413.2804
458.5351
607.4419
626.6302

SYMMETRY C1
ELECTRONIC_STATE 1-A
