5
Energy =   -1991.05816470     
    S    0.066180   -0.192029   -0.609765
    S   -1.532377   -0.654210    0.573380
    S   -2.043913    0.924774   -0.721638
    S    1.422982    0.958704    0.391208
    S    2.087128   -1.037240    0.366814

FREQUENCIES 9
94.7938
101.1220
120.4235
181.5099
225.9452
468.4226
469.6757
542.8111
563.2516

SYMMETRY C1
ELECTRONIC_STATE 1-A
