5
Energy =   -1990.78757039     
S -0.973197043  0.011214563 -1.774435732
S  1.017020126  0.088974669 -1.367456434
S  1.204749323  0.405674935  2.194536949
S -1.699383874  0.096389669  0.122414566
S  0.450812467 -0.602254837  0.824939652

FREQUENCIES 9
33.4612
70.8107
197.2973
255.7166
262.9076
297.1303
490.6640
531.6807
745.0750

SYMMETRY CS
ELECTRONIC_STATE 2-A'
