5
Energy =   -1991.10601267     
    S   -1.100978   -0.476077   -1.387503
    S    0.905907    0.161118   -1.088674
    S    1.046708    0.340658    2.272234
    S   -2.366003    0.728721   -0.527851
    S    1.514367   -0.754421    0.731794

FREQUENCIES 9
24.4124
30.0466
145.8775
183.4228
234.1108
333.9396
403.0705
592.9486
594.2519

SYMMETRY C1
ELECTRONIC_STATE 3-A
