5
Energy =   -1990.80075959     
S -0.640421136 -0.095816441 -0.952679381
S  0.647528906  0.011797486  0.724838812
S  0.381398875 -0.115025223  3.975167726
S  0.398369667  0.128828763 -2.527202178
S -0.654694313  0.070193416  2.393751020

FREQUENCIES 9
6.0001
51.4228
75.3344
168.3131
187.1402
251.4867
477.2401
635.7902
653.2809

SYMMETRY C2
ELECTRONIC_STATE 2-A
