6
Energy =   -2389.30126092     
S -0.321058974 -0.600682835 -0.310129784
S  1.926237811  0.116490506  1.861457124
S -0.249217074 -0.275783978  1.875265690
S -1.269952346  0.785706027 -1.229259076
S  1.865937714 -0.278638051 -0.312688967
S  2.347578870  1.940158330  2.266400013

FREQUENCIES 12
43.5700
120.3864
138.3731
171.0207
201.3132
278.2355
291.0275
354.8677
378.5249
382.7597
641.2183
654.6429

SYMMETRY C2V
ELECTRONIC_STATE 1-A1
