6
Energy =   -2389.05918784     
S  1.267963741  0.430428771  0.748111925
S -1.339946678  0.810333938 -1.328308229
S  0.043622678 -0.525574271  2.110929229
S -1.863928481  0.250026114  1.937965421
S  0.567604481  0.034733553 -1.155344421
S -2.564287741 -0.145669104  0.034509075

FREQUENCIES 12
63.9185
63.9185
200.6000
200.6000
256.0437
310.9406
340.8738
429.2451
429.2451
448.8710
449.9224
449.9224

SYMMETRY D3D
ELECTRONIC_STATE 2-A1G
