6
Energy =   -2389.34271284     
S  0.848765170 -0.806551620 -0.583371415
S  0.736850988  0.418708502  3.443567062
S -0.936306153  1.200048240  2.934752854
S -1.860709951 -0.152595286  1.307317724
S -0.557658947 -1.582728830  1.075613857
S  0.214277893  0.923438994 -1.106245083

FREQUENCIES 12
35.5147
61.0340
73.7224
124.9305
134.1468
237.7887
252.9116
263.0350
305.4408
588.6556
658.3584
662.9823

SYMMETRY C2
ELECTRONIC_STATE 3-B
