6
Energy =   -2389.31561227     
    S   -1.485172    0.560174    1.054540
    S    2.995494    0.722437    0.783894
    S   -1.696926   -0.605938   -0.475839
    S    1.514518   -0.791020    0.685781
    S    0.292856    0.088951    2.078951
    S    4.735478    0.025333    1.255663

FREQUENCIES 12
40.4694
44.1103
85.1423
103.3765
141.0358
196.4354
293.8866
349.6679
397.5192
500.1183
615.7650
632.4077

SYMMETRY C1
ELECTRONIC_STATE 1-A
