6
Energy =   -2389.04225871     
    S   -0.203882   -0.144774   -0.875424
    S    0.304975    1.904742    3.516008
    S   -0.485122    1.270999    1.934188
    S   -1.346233   -1.625868    1.891372
    S   -0.810282   -2.061293    0.092868
    S    0.985763    0.656513    0.512621

FREQUENCIES 12
59.4169
69.1418
122.9341
157.1054
177.9108
200.8234
263.9632
296.9610
411.4996
536.1522
629.7270
707.7342

SYMMETRY C1
ELECTRONIC_STATE 2-A
