6
Energy =   -2389.34030905     
    S   -0.127620   -0.494266   -0.937015
    S    0.515186    1.246915    3.497465
    S   -0.720913    1.104812    2.035770
    S   -1.646906   -0.934997    1.693327
    S   -0.228752   -1.919580    0.589606
    S    0.654224    0.997435    0.192481

FREQUENCIES 12
50.9735
133.0495
182.9701
229.6880
253.7844
262.3122
275.2543
308.5743
393.9619
478.0979
518.6646
643.8902

SYMMETRY C1
ELECTRONIC_STATE 1-A
