6
Energy =   -2389.34056057     
    S   -1.478579    0.614384   -0.902712
    S    2.373409   -1.068134    3.242828
    S   -2.098395   -0.346783    0.636334
    S    2.011985   -0.491630    1.434335
    S    0.709387    1.281280    1.577168
    S    0.393244    1.782150   -0.311819

FREQUENCIES 12
22.0639
46.4157
71.1847
114.2338
127.3564
175.4499
266.7967
286.6146
387.8770
552.2528
634.0905
655.8321

SYMMETRY C1
ELECTRONIC_STATE 3-A
