6
Energy =   -2389.03881627     
    S   -1.326891    0.610704    0.570245
    S    3.389387   -0.835450    1.094078
    S    0.817287    1.216571    0.571286
    S    1.633952    0.167440    2.028880
    S   -1.716983   -0.705016    1.863002
    S    3.559495   -0.454312   -0.744500

FREQUENCIES 12
20.8257
63.4024
78.0030
95.2696
113.3355
190.1502
252.0130
293.4255
302.4422
552.9659
675.6582
688.9005

SYMMETRY C1
ELECTRONIC_STATE 2-A
