6
Energy =   -2389.33900075     
S  3.700668985 -0.581392831  0.550107602
S  2.071315843 -0.407855069 -0.475772600
S -3.680346161 -0.680784502 -0.571988777
S  0.836027296  1.084828356  0.549662017
S -2.056850252 -0.490550612  0.460197886
S -0.870815712  1.075754658 -0.512205128

FREQUENCIES 12
16.9842
21.9671
72.5855
104.0488
112.7545
156.5627
216.2861
394.5306
396.6134
523.1420
632.3521
634.1191

SYMMETRY C2
ELECTRONIC_STATE 3-B
