6
Energy =   -2389.33479137     
    S    0.942219   -2.034707    0.129044
    S    2.215559   -0.135781    0.349997
    S   -0.710418   -1.296721   -0.647599
    S    0.983935    1.230918   -0.355909
    S   -1.011343    0.600900    0.656860
    S   -2.419952    1.635390   -0.132394

FREQUENCIES 12
89.5680
94.6799
128.7473
177.2120
200.1249
216.0524
273.7611
310.9164
336.4123
563.3971
567.2673
654.5857

SYMMETRY C1
ELECTRONIC_STATE 1-A
