 Entering Gaussian System, Link 0=/home/proyectos/fulerenos/M3C-v2.0/M3C-deps_CCC/g09-AM64L-G09RevC.01/g09
 Initial command:
 /home/proyectos/fulerenos/M3C-v2.0/M3C-deps_CCC/g09-AM64L-G09RevC.01/l1.exe "/scratch/naguirre/gaussian/Gau-12189.inp" -scrdir="/scratch/naguirre/gaussian/"
 Entering Link 1 = /home/proyectos/fulerenos/M3C-v2.0/M3C-deps_CCC/g09-AM64L-G09RevC.01/l1.exe PID=     12197.
  
 Copyright (c) 1988,1990,1992,1993,1995,1998,2003,2009,2015,
            Gaussian, Inc.  All Rights Reserved.
  
 This is part of the Gaussian(R) 09 program.  It is based on
 the Gaussian(R) 03 system (copyright 2003, Gaussian, Inc.),
 the Gaussian(R) 98 system (copyright 1998, Gaussian, Inc.),
 the Gaussian(R) 94 system (copyright 1995, Gaussian, Inc.),
 the Gaussian 92(TM) system (copyright 1992, Gaussian, Inc.),
 the Gaussian 90(TM) system (copyright 1990, Gaussian, Inc.),
 the Gaussian 88(TM) system (copyright 1988, Gaussian, Inc.),
 the Gaussian 86(TM) system (copyright 1986, Carnegie Mellon
 University), and the Gaussian 82(TM) system (copyright 1983,
 Carnegie Mellon University). Gaussian is a federally registered
 trademark of Gaussian, Inc.
  
 This software contains proprietary and confidential information,
 including trade secrets, belonging to Gaussian, Inc.
  
 This software is provided under written license and may be
 used, copied, transmitted, or stored only in accord with that
 written license.
  
 The following legend is applicable only to US Government
 contracts under FAR:
  
                    RESTRICTED RIGHTS LEGEND
  
 Use, reproduction and disclosure by the US Government is
 subject to restrictions as set forth in subparagraphs (a)
 and (c) of the Commercial Computer Software - Restricted
 Rights clause in FAR 52.227-19.
  
 Gaussian, Inc.
 340 Quinnipiac St., Bldg. 40, Wallingford CT 06492
  
  
 ---------------------------------------------------------------
 Warning -- This program may not be used in any manner that
 competes with the business of Gaussian, Inc. or will provide
 assistance to any competitor of Gaussian, Inc.  The licensee
 of this program is prohibited from giving any competitor of
 Gaussian, Inc. access to this program.  By using this program,
 the user acknowledges that Gaussian, Inc. is engaged in the
 business of creating and licensing software in the field of
 computational chemistry and represents and warrants to the
 licensee that it is not a competitor of Gaussian, Inc. and that
 it will not use this program in any manner prohibited above.
 ---------------------------------------------------------------
  

 Cite this work as:
 Gaussian 09, Revision E.01,
 M. J. Frisch, G. W. Trucks, H. B. Schlegel, G. E. Scuseria, 
 M. A. Robb, J. R. Cheeseman, G. Scalmani, V. Barone, B. Mennucci, 
 G. A. Petersson, H. Nakatsuji, M. Caricato, X. Li, H. P. Hratchian, 
 A. F. Izmaylov, J. Bloino, G. Zheng, J. L. Sonnenberg, M. Hada, 
 M. Ehara, K. Toyota, R. Fukuda, J. Hasegawa, M. Ishida, T. Nakajima, 
 Y. Honda, O. Kitao, H. Nakai, T. Vreven, J. A. Montgomery, Jr., 
 J. E. Peralta, F. Ogliaro, M. Bearpark, J. J. Heyd, E. Brothers, 
 K. N. Kudin, V. N. Staroverov, T. Keith, R. Kobayashi, J. Normand, 
 K. Raghavachari, A. Rendell, J. C. Burant, S. S. Iyengar, J. Tomasi, 
 M. Cossi, N. Rega, J. M. Millam, M. Klene, J. E. Knox, J. B. Cross, 
 V. Bakken, C. Adamo, J. Jaramillo, R. Gomperts, R. E. Stratmann, 
 O. Yazyev, A. J. Austin, R. Cammi, C. Pomelli, J. W. Ochterski, 
 R. L. Martin, K. Morokuma, V. G. Zakrzewski, G. A. Voth, 
 P. Salvador, J. J. Dannenberg, S. Dapprich, A. D. Daniels, 
 O. Farkas, J. B. Foresman, J. V. Ortiz, J. Cioslowski, 
 and D. J. Fox, Gaussian, Inc., Wallingford CT, 2013.
 
 ******************************************
 Gaussian 09:  EM64L-G09RevE.01 30-Nov-2015
                 5-Aug-2016 
 ******************************************
 %NProcShared=4
 Will use up to    4 processors via shared memory.
 ---------------------------------------------
 #p b3lyp/6-311++G(3df,2p) freq symmetry=Loose
 ---------------------------------------------
 1/10=4,30=1,38=1/1,3;
 2/12=2,17=4,18=3,40=1/2;
 3/5=4,6=6,7=1216,11=2,16=1,25=1,30=1,71=2,74=-5,140=1/1,2,3;
 4//1;
 5/5=2,38=5,98=1/2;
 8/6=4,10=90,11=11/1;
 11/6=1,8=1,9=11,15=111,16=1/1,2,10;
 10/6=1/2;
 6/7=2,8=2,9=2,10=2,18=1,28=1/1;
 7/8=1,10=1,25=1/1,2,3,16;
 1/10=4,30=1/3;
 99//99;
 Leave Link    1 at Fri Aug  5 07:07:24 2016, MaxMem=           0 cpu:         0.3
 (Enter /home/proyectos/fulerenos/M3C-v2.0/M3C-deps_CCC/g09-AM64L-G09RevC.01/l101.exe)
 ---------
 b3lyp opt
 ---------
 Symbolic Z-matrix:
 Charge =  2 Multiplicity = 2
 N                     0.33322  -0.08424  -0.80099 
 C                     1.25174   0.97383  -1.13045 
 C                     1.7008   -0.50661  -0.95222 
 C                    -0.93796  -0.43795  -0.53514 
 
 NAtoms=      4 NQM=        4 NQMF=       0 NMMI=      0 NMMIF=      0
                NMic=       0 NMicF=      0.
                    Isotopes and Nuclear Properties:
 (Nuclear quadrupole moments (NQMom) in fm**2, nuclear magnetic moments (NMagM)
  in nuclear magnetons)

  Atom         1           2           3           4
 IAtWgt=          14          12          12          12
 AtmWgt=  14.0030740  12.0000000  12.0000000  12.0000000
 NucSpn=           2           0           0           0
 AtZEff=   0.0000000   0.0000000   0.0000000   0.0000000
 NQMom=    2.0440000   0.0000000   0.0000000   0.0000000
 NMagM=    0.4037610   0.0000000   0.0000000   0.0000000
 AtZNuc=   7.0000000   6.0000000   6.0000000   6.0000000
 Leave Link  101 at Fri Aug  5 07:07:24 2016, MaxMem=    33554432 cpu:         0.2
 (Enter /home/proyectos/fulerenos/M3C-v2.0/M3C-deps_CCC/g09-AM64L-G09RevC.01/l103.exe)

 GradGradGradGradGradGradGradGradGradGradGradGradGradGradGradGradGradGrad
 Berny optimization.
 Initialization pass.
 Trust Radius=3.00D-01 FncErr=1.00D-07 GrdErr=1.00D-07
 Number of steps in this run=      2 maximum allowed number of steps=      2.
 GradGradGradGradGradGradGradGradGradGradGradGradGradGradGradGradGradGrad

 Leave Link  103 at Fri Aug  5 07:07:24 2016, MaxMem=    33554432 cpu:         0.1
 (Enter /home/proyectos/fulerenos/M3C-v2.0/M3C-deps_CCC/g09-AM64L-G09RevC.01/l202.exe)
                          Input orientation:                          
 ---------------------------------------------------------------------
 Center     Atomic      Atomic             Coordinates (Angstroms)
 Number     Number       Type             X           Y           Z
 ---------------------------------------------------------------------
      1          7           0        0.333219   -0.084236   -0.800991
      2          6           0        1.251739    0.973826   -1.130448
      3          6           0        1.700801   -0.506606   -0.952216
      4          6           0       -0.937958   -0.437949   -0.535136
 ---------------------------------------------------------------------
                    Distance matrix (angstroms):
                    1          2          3          4
     1  N    0.000000
     2  C    1.439346   0.000000
     3  C    1.439287   1.557274   0.000000
     4  C    1.345988   2.672504   2.672399   0.000000
 Stoichiometry    C3N(2+,2)
 Framework group  C1[X(C3N)]
 Deg. of freedom     6
 Full point group                 C1      NOp   1
 Largest Abelian subgroup         C1      NOp   1
 Largest concise Abelian subgroup C1      NOp   1
                         Standard orientation:                         
 ---------------------------------------------------------------------
 Center     Atomic      Atomic             Coordinates (Angstroms)
 Number     Number       Type             X           Y           Z
 ---------------------------------------------------------------------
      1          7           0        0.258012   -0.000028    0.000475
      2          6           0       -0.952580   -0.778606   -0.000146
      3          6           0       -0.952434    0.778668   -0.000146
      4          6           0        1.603999   -0.000029   -0.000262
 ---------------------------------------------------------------------
 Rotational constants (GHZ):     34.7324775      9.4321600      7.4177520
 Leave Link  202 at Fri Aug  5 07:07:24 2016, MaxMem=    33554432 cpu:         0.0
 (Enter /home/proyectos/fulerenos/M3C-v2.0/M3C-deps_CCC/g09-AM64L-G09RevC.01/l301.exe)
 Standard basis: 6-311++G(3df,2p) (5D, 7F)
 Ernie: Thresh=  0.10000D-02 Tol=  0.10000D-05 Strict=F.
 There are   180 symmetry adapted cartesian basis functions of A   symmetry.
 There are   156 symmetry adapted basis functions of A   symmetry.
   156 basis functions,   232 primitive gaussians,   180 cartesian basis functions
    12 alpha electrons       11 beta electrons
       nuclear repulsion energy        73.8857185943 Hartrees.
 IExCor=  402 DFT=T Ex+Corr=B3LYP ExCW=0 ScaHFX=  0.200000
 ScaDFX=  0.800000  0.720000  1.000000  0.810000 ScalE2=  1.000000  1.000000
 IRadAn=      0 IRanWt=     -1 IRanGd=            0 ICorTp=0 IEmpDi=  4
 NAtoms=    4 NActive=    4 NUniq=    4 SFac= 1.00D+00 NAtFMM=   60 NAOKFM=F Big=F
 Integral buffers will be    131072 words long.
 Raffenetti 2 integral format.
 Two-electron integral symmetry is turned on.
 Leave Link  301 at Fri Aug  5 07:07:24 2016, MaxMem=    33554432 cpu:         0.2
 (Enter /home/proyectos/fulerenos/M3C-v2.0/M3C-deps_CCC/g09-AM64L-G09RevC.01/l302.exe)
 NPDir=0 NMtPBC=     1 NCelOv=     1 NCel=       1 NClECP=     1 NCelD=      1
         NCelK=      1 NCelE2=     1 NClLst=     1 CellRange=     0.0.
 One-electron integrals computed using PRISM.
 NBasis=   156 RedAO= T EigKep=  1.27D-04  NBF=   156
 NBsUse=   156 1.00D-06 EigRej= -1.00D+00 NBFU=   156
 Precomputing XC quadrature grid using
 IXCGrd= 4 IRadAn=           0 IRanWt=          -1 IRanGd=           0 AccXCQ= 0.00D+00.
 Generated NRdTot=       0 NPtTot=           0 NUsed=           0 NTot=          32
 NSgBfM=   180   180   180   180   180 MxSgAt=     4 MxSgA2=     4.
 Leave Link  302 at Fri Aug  5 07:07:24 2016, MaxMem=    33554432 cpu:         0.9
 (Enter /home/proyectos/fulerenos/M3C-v2.0/M3C-deps_CCC/g09-AM64L-G09RevC.01/l303.exe)
 DipDrv:  MaxL=1.
 Leave Link  303 at Fri Aug  5 07:07:24 2016, MaxMem=    33554432 cpu:         0.1
 (Enter /home/proyectos/fulerenos/M3C-v2.0/M3C-deps_CCC/g09-AM64L-G09RevC.01/l401.exe)
 ExpMin= 4.38D-02 ExpMax= 6.29D+03 ExpMxC= 9.49D+02 IAcc=2 IRadAn=         4 AccDes= 0.00D+00
 Harris functional with IExCor=  402 and IRadAn=       4 diagonalized for initial guess.
 HarFok:  IExCor=  402 AccDes= 0.00D+00 IRadAn=         4 IDoV= 1 UseB2=F ITyADJ=14
 ICtDFT=  3500011 ScaDFX=  1.000000  1.000000  1.000000  1.000000
 FoFCou: FMM=F IPFlag=           0 FMFlag=      100000 FMFlg1=           0
         NFxFlg=           0 DoJE=T BraDBF=F KetDBF=T FulRan=T
         wScrn=  0.000000 ICntrl=     500 IOpCl=  0 I1Cent=   200000004 NGrid=           0
         NMat0=    1 NMatS0=      1 NMatT0=    0 NMatD0=    1 NMtDS0=    0 NMtDT0=    0
 Petite list used in FoFCou.
 Harris En= -168.200821398961    
 JPrj=0 DoOrth=F DoCkMO=F.
 Initial guess <Sx>= 0.0000 <Sy>= 0.0000 <Sz>= 0.5000 <S**2>= 0.7500 S= 0.5000
 Leave Link  401 at Fri Aug  5 07:07:25 2016, MaxMem=    33554432 cpu:         1.9
 (Enter /home/proyectos/fulerenos/M3C-v2.0/M3C-deps_CCC/g09-AM64L-G09RevC.01/l502.exe)
 UHF open shell SCF:
 Using DIIS extrapolation, IDIIS=  1040.
 Integral symmetry usage will be decided dynamically.
 IVT=      118110 IEndB=      118110 NGot=    33554432 MDV=    33485543
 LenX=    33485543 LenY=    33452702
 Requested convergence on RMS density matrix=1.00D-08 within 128 cycles.
 Requested convergence on MAX density matrix=1.00D-06.
 Requested convergence on             energy=1.00D-06.
 No special actions if energy rises.
 Fock matrices will be formed incrementally for  20 cycles.

 Cycle   1  Pass 1  IDiag  1:
 FoFJK:  IHMeth= 1 ICntrl=       0 DoSepK=F KAlg= 0 I1Cent=   0 FoldK=F
 IRaf= 990000000 NMat=   1 IRICut=       1 DoRegI=T DoRafI=F ISym2E= 0.
 FoFCou: FMM=F IPFlag=           0 FMFlag=      100000 FMFlg1=           0
         NFxFlg=           0 DoJE=F BraDBF=F KetDBF=F FulRan=T
         wScrn=  0.000000 ICntrl=       0 IOpCl=  1 I1Cent=           0 NGrid=           0
         NMat0=    1 NMatS0=      1 NMatT0=    0 NMatD0=    1 NMtDS0=    0 NMtDT0=    0
 Symmetry not used in FoFCou.
 E= -167.577276844116    
 DIIS: error= 3.11D-02 at cycle   1 NSaved=   1.
 NSaved= 1 IEnMin= 1 EnMin= -167.577276844116     IErMin= 1 ErrMin= 3.11D-02
 ErrMax= 3.11D-02  0.00D+00 EMaxC= 1.00D-01 BMatC= 2.86D-01 BMatP= 2.86D-01
 IDIUse=3 WtCom= 6.89D-01 WtEn= 3.11D-01
 Coeff-Com:  0.100D+01
 Coeff-En:   0.100D+01
 Coeff:      0.100D+01
 Gap=     0.120 Goal=   None    Shift=    0.000
 Gap=     0.096 Goal=   None    Shift=    0.000
 GapD=    0.096 DampG=0.500 DampE=0.500 DampFc=0.2500 IDamp=-1.
 Damping current iteration by 2.50D-01
 RMSDP=4.48D-03 MaxDP=1.68D-01              OVMax= 2.13D-01

 Cycle   2  Pass 1  IDiag  1:
 RMSU=  1.07D-03    CP:  1.02D+00
 E= -167.608872801041     Delta-E=       -0.031595956926 Rises=F Damp=T
 DIIS: error= 1.69D-02 at cycle   2 NSaved=   2.
 NSaved= 2 IEnMin= 2 EnMin= -167.608872801041     IErMin= 2 ErrMin= 1.69D-02
 ErrMax= 1.69D-02  0.00D+00 EMaxC= 1.00D-01 BMatC= 1.25D-01 BMatP= 2.86D-01
 IDIUse=3 WtCom= 8.31D-01 WtEn= 1.69D-01
 Coeff-Com: -0.122D+01 0.222D+01
 Coeff-En:   0.000D+00 0.100D+01
 Coeff:     -0.101D+01 0.201D+01
 Gap=     0.162 Goal=   None    Shift=    0.000
 Gap=     0.123 Goal=   None    Shift=    0.000
 RMSDP=3.27D-03 MaxDP=9.83D-02 DE=-3.16D-02 OVMax= 1.58D-01

 Cycle   3  Pass 1  IDiag  1:
 RMSU=  1.82D-03    CP:  1.11D+00  3.00D+00
 E= -167.657918508474     Delta-E=       -0.049045707433 Rises=F Damp=F
 DIIS: error= 2.14D-02 at cycle   3 NSaved=   3.
 NSaved= 3 IEnMin= 3 EnMin= -167.657918508474     IErMin= 2 ErrMin= 1.69D-02
 ErrMax= 2.14D-02  0.00D+00 EMaxC= 1.00D-01 BMatC= 1.06D-01 BMatP= 1.25D-01
 IDIUse=3 WtCom= 7.86D-01 WtEn= 2.14D-01
 Coeff-Com: -0.938D+00 0.151D+01 0.430D+00
 Coeff-En:   0.000D+00 0.000D+00 0.100D+01
 Coeff:     -0.737D+00 0.119D+01 0.552D+00
 Gap=     0.159 Goal=   None    Shift=    0.000
 Gap=     0.113 Goal=   None    Shift=    0.000
 RMSDP=1.25D-03 MaxDP=3.31D-02 DE=-4.90D-02 OVMax= 1.23D-01

 Cycle   4  Pass 1  IDiag  1:
 RMSU=  9.41D-04    CP:  1.11D+00  3.00D+00  5.51D-01
 E= -167.670373394945     Delta-E=       -0.012454886470 Rises=F Damp=F
 DIIS: error= 1.68D-02 at cycle   4 NSaved=   4.
 NSaved= 4 IEnMin= 4 EnMin= -167.670373394945     IErMin= 4 ErrMin= 1.68D-02
 ErrMax= 1.68D-02  0.00D+00 EMaxC= 1.00D-01 BMatC= 4.82D-02 BMatP= 1.06D-01
 IDIUse=3 WtCom= 8.32D-01 WtEn= 1.68D-01
 Coeff-Com: -0.226D+00 0.383D+00 0.389D+00 0.454D+00
 Coeff-En:   0.000D+00 0.000D+00 0.388D+00 0.612D+00
 Coeff:     -0.188D+00 0.319D+00 0.389D+00 0.480D+00
 Gap=     0.152 Goal=   None    Shift=    0.000
 Gap=     0.121 Goal=   None    Shift=    0.000
 RMSDP=8.44D-04 MaxDP=3.85D-02 DE=-1.25D-02 OVMax= 7.96D-02

 Cycle   5  Pass 1  IDiag  1:
 RMSU=  3.76D-04    CP:  1.13D+00  3.00D+00  9.11D-01  6.94D-01
 E= -167.683733877336     Delta-E=       -0.013360482391 Rises=F Damp=F
 DIIS: error= 3.58D-03 at cycle   5 NSaved=   5.
 NSaved= 5 IEnMin= 5 EnMin= -167.683733877336     IErMin= 5 ErrMin= 3.58D-03
 ErrMax= 3.58D-03  0.00D+00 EMaxC= 1.00D-01 BMatC= 2.90D-03 BMatP= 4.82D-02
 IDIUse=3 WtCom= 9.64D-01 WtEn= 3.58D-02
 Coeff-Com:  0.962D-01-0.140D+00 0.158D+00 0.330D+00 0.555D+00
 Coeff-En:   0.000D+00 0.000D+00 0.000D+00 0.283D-01 0.972D+00
 Coeff:      0.927D-01-0.135D+00 0.153D+00 0.319D+00 0.570D+00
 Gap=     0.144 Goal=   None    Shift=    0.000
 Gap=     0.109 Goal=   None    Shift=    0.000
 RMSDP=2.33D-04 MaxDP=6.51D-03 DE=-1.34D-02 OVMax= 2.40D-02

 Cycle   6  Pass 1  IDiag  1:
 RMSU=  1.14D-04    CP:  1.13D+00  3.00D+00  8.61D-01  8.13D-01  6.51D-01
 E= -167.684605671276     Delta-E=       -0.000871793940 Rises=F Damp=F
 DIIS: error= 1.07D-03 at cycle   6 NSaved=   6.
 NSaved= 6 IEnMin= 6 EnMin= -167.684605671276     IErMin= 6 ErrMin= 1.07D-03
 ErrMax= 1.07D-03  0.00D+00 EMaxC= 1.00D-01 BMatC= 1.83D-04 BMatP= 2.90D-03
 IDIUse=3 WtCom= 9.89D-01 WtEn= 1.07D-02
 Coeff-Com:  0.147D-01-0.258D-01-0.648D-02-0.100D-03 0.204D+00 0.814D+00
 Coeff-En:   0.000D+00 0.000D+00 0.000D+00 0.000D+00 0.176D-01 0.982D+00
 Coeff:      0.145D-01-0.255D-01-0.641D-02-0.991D-04 0.202D+00 0.816D+00
 Gap=     0.142 Goal=   None    Shift=    0.000
 Gap=     0.110 Goal=   None    Shift=    0.000
 RMSDP=6.30D-05 MaxDP=2.33D-03 DE=-8.72D-04 OVMax= 6.98D-03

 Cycle   7  Pass 1  IDiag  1:
 RMSU=  4.32D-05    CP:  1.13D+00  3.00D+00  8.74D-01  7.99D-01  7.46D-01
                    CP:  1.08D+00
 E= -167.684676138604     Delta-E=       -0.000070467328 Rises=F Damp=F
 DIIS: error= 1.27D-04 at cycle   7 NSaved=   7.
 NSaved= 7 IEnMin= 7 EnMin= -167.684676138604     IErMin= 7 ErrMin= 1.27D-04
 ErrMax= 1.27D-04  0.00D+00 EMaxC= 1.00D-01 BMatC= 2.96D-06 BMatP= 1.83D-04
 IDIUse=3 WtCom= 9.99D-01 WtEn= 1.27D-03
 Coeff-Com: -0.363D-02 0.506D-02-0.107D-01-0.193D-01-0.465D-01-0.537D-01
 Coeff-Com:  0.113D+01
 Coeff-En:   0.000D+00 0.000D+00 0.000D+00 0.000D+00 0.000D+00 0.000D+00
 Coeff-En:   0.100D+01
 Coeff:     -0.362D-02 0.505D-02-0.107D-01-0.193D-01-0.465D-01-0.537D-01
 Coeff:      0.113D+01
 Gap=     0.142 Goal=   None    Shift=    0.000
 Gap=     0.110 Goal=   None    Shift=    0.000
 RMSDP=2.61D-05 MaxDP=7.02D-04 DE=-7.05D-05 OVMax= 3.40D-03

 Cycle   8  Pass 1  IDiag  1:
 RMSU=  1.11D-05    CP:  1.13D+00  3.00D+00  8.73D-01  8.09D-01  7.58D-01
                    CP:  1.22D+00  1.29D+00
 E= -167.684681626850     Delta-E=       -0.000005488246 Rises=F Damp=F
 DIIS: error= 8.89D-05 at cycle   8 NSaved=   8.
 NSaved= 8 IEnMin= 8 EnMin= -167.684681626850     IErMin= 8 ErrMin= 8.89D-05
 ErrMax= 8.89D-05  0.00D+00 EMaxC= 1.00D-01 BMatC= 8.21D-07 BMatP= 2.96D-06
 IDIUse=1 WtCom= 1.00D+00 WtEn= 0.00D+00
 Coeff-Com:  0.459D-02-0.587D-02 0.341D-02 0.611D-02-0.539D-02-0.914D-01
 Coeff-Com: -0.164D+00 0.125D+01
 Coeff:      0.459D-02-0.587D-02 0.341D-02 0.611D-02-0.539D-02-0.914D-01
 Coeff:     -0.164D+00 0.125D+01
 Gap=     0.142 Goal=   None    Shift=    0.000
 Gap=     0.110 Goal=   None    Shift=    0.000
 RMSDP=1.30D-05 MaxDP=3.73D-04 DE=-5.49D-06 OVMax= 1.47D-03

 Cycle   9  Pass 1  IDiag  1:
 RMSU=  5.21D-06    CP:  1.13D+00  3.00D+00  8.73D-01  8.11D-01  7.60D-01
                    CP:  1.27D+00  1.45D+00  1.74D+00
 E= -167.684682921752     Delta-E=       -0.000001294902 Rises=F Damp=F
 DIIS: error= 3.59D-05 at cycle   9 NSaved=   9.
 NSaved= 9 IEnMin= 9 EnMin= -167.684682921752     IErMin= 9 ErrMin= 3.59D-05
 ErrMax= 3.59D-05  0.00D+00 EMaxC= 1.00D-01 BMatC= 1.37D-07 BMatP= 8.21D-07
 IDIUse=1 WtCom= 1.00D+00 WtEn= 0.00D+00
 Coeff-Com: -0.138D-02 0.178D-02 0.226D-04 0.250D-03 0.130D-01 0.460D-01
 Coeff-Com: -0.400D-01-0.730D+00 0.171D+01
 Coeff:     -0.138D-02 0.178D-02 0.226D-04 0.250D-03 0.130D-01 0.460D-01
 Coeff:     -0.400D-01-0.730D+00 0.171D+01
 Gap=     0.142 Goal=   None    Shift=    0.000
 Gap=     0.110 Goal=   None    Shift=    0.000
 RMSDP=9.04D-06 MaxDP=3.68D-04 DE=-1.29D-06 OVMax= 1.05D-03

 Cycle  10  Pass 1  IDiag  1:
 RMSU=  2.22D-06    CP:  1.13D+00  3.00D+00  8.72D-01  8.12D-01  7.58D-01
                    CP:  1.27D+00  1.50D+00  2.33D+00  1.93D+00
 E= -167.684683231658     Delta-E=       -0.000000309906 Rises=F Damp=F
 DIIS: error= 1.55D-05 at cycle  10 NSaved=  10.
 NSaved=10 IEnMin=10 EnMin= -167.684683231658     IErMin=10 ErrMin= 1.55D-05
 ErrMax= 1.55D-05  0.00D+00 EMaxC= 1.00D-01 BMatC= 8.35D-08 BMatP= 1.37D-07
 IDIUse=1 WtCom= 1.00D+00 WtEn= 0.00D+00
 Coeff-Com: -0.153D-02 0.198D-02-0.425D-03-0.693D-03 0.958D-02 0.425D-01
 Coeff-Com: -0.474D-02-0.641D+00 0.114D+01 0.457D+00
 Coeff:     -0.153D-02 0.198D-02-0.425D-03-0.693D-03 0.958D-02 0.425D-01
 Coeff:     -0.474D-02-0.641D+00 0.114D+01 0.457D+00
 Gap=     0.142 Goal=   None    Shift=    0.000
 Gap=     0.110 Goal=   None    Shift=    0.000
 RMSDP=2.12D-06 MaxDP=1.05D-04 DE=-3.10D-07 OVMax= 2.56D-04

 Cycle  11  Pass 1  IDiag  1:
 RMSU=  1.23D-06    CP:  1.13D+00  3.00D+00  8.72D-01  8.12D-01  7.57D-01
                    CP:  1.28D+00  1.51D+00  2.43D+00  2.13D+00  7.04D-01
 E= -167.684683270843     Delta-E=       -0.000000039186 Rises=F Damp=F
 DIIS: error= 5.32D-06 at cycle  11 NSaved=  11.
 NSaved=11 IEnMin=11 EnMin= -167.684683270843     IErMin=11 ErrMin= 5.32D-06
 ErrMax= 5.32D-06  0.00D+00 EMaxC= 1.00D-01 BMatC= 1.26D-08 BMatP= 8.35D-08
 IDIUse=1 WtCom= 1.00D+00 WtEn= 0.00D+00
 Coeff-Com: -0.309D-03 0.395D-03-0.290D-03-0.699D-03-0.346D-03 0.421D-02
 Coeff-Com:  0.160D-01-0.261D-01-0.155D+00 0.263D+00 0.899D+00
 Coeff:     -0.309D-03 0.395D-03-0.290D-03-0.699D-03-0.346D-03 0.421D-02
 Coeff:      0.160D-01-0.261D-01-0.155D+00 0.263D+00 0.899D+00
 Gap=     0.142 Goal=   None    Shift=    0.000
 Gap=     0.110 Goal=   None    Shift=    0.000
 RMSDP=1.42D-06 MaxDP=4.10D-05 DE=-3.92D-08 OVMax= 1.70D-04

 Cycle  12  Pass 1  IDiag  1:
 RMSU=  2.74D-07    CP:  1.13D+00  3.00D+00  8.72D-01  8.12D-01  7.57D-01
                    CP:  1.28D+00  1.51D+00  2.51D+00  2.27D+00  9.91D-01
                    CP:  1.04D+00
 E= -167.684683281474     Delta-E=       -0.000000010630 Rises=F Damp=F
 DIIS: error= 1.81D-06 at cycle  12 NSaved=  12.
 NSaved=12 IEnMin=12 EnMin= -167.684683281474     IErMin=12 ErrMin= 1.81D-06
 ErrMax= 1.81D-06  0.00D+00 EMaxC= 1.00D-01 BMatC= 6.81D-10 BMatP= 1.26D-08
 IDIUse=1 WtCom= 1.00D+00 WtEn= 0.00D+00
 Coeff-Com:  0.162D-03-0.213D-03 0.135D-04-0.409D-04-0.137D-02-0.492D-02
 Coeff-Com:  0.157D-02 0.771D-01-0.177D+00-0.194D-01 0.157D+00 0.967D+00
 Coeff:      0.162D-03-0.213D-03 0.135D-04-0.409D-04-0.137D-02-0.492D-02
 Coeff:      0.157D-02 0.771D-01-0.177D+00-0.194D-01 0.157D+00 0.967D+00
 Gap=     0.142 Goal=   None    Shift=    0.000
 Gap=     0.110 Goal=   None    Shift=    0.000
 RMSDP=4.80D-07 MaxDP=1.45D-05 DE=-1.06D-08 OVMax= 5.80D-05

 Cycle  13  Pass 1  IDiag  1:
 RMSU=  1.20D-07    CP:  1.13D+00  3.00D+00  8.72D-01  8.12D-01  7.57D-01
                    CP:  1.28D+00  1.51D+00  2.54D+00  2.32D+00  1.04D+00
                    CP:  1.16D+00  1.12D+00
 E= -167.684683282329     Delta-E=       -0.000000000855 Rises=F Damp=F
 DIIS: error= 8.17D-07 at cycle  13 NSaved=  13.
 NSaved=13 IEnMin=13 EnMin= -167.684683282329     IErMin=13 ErrMin= 8.17D-07
 ErrMax= 8.17D-07  0.00D+00 EMaxC= 1.00D-01 BMatC= 1.21D-10 BMatP= 6.81D-10
 IDIUse=1 WtCom= 1.00D+00 WtEn= 0.00D+00
 Coeff-Com:  0.865D-04-0.113D-03 0.336D-04 0.522D-04-0.463D-03-0.219D-02
 Coeff-Com: -0.646D-03 0.286D-01-0.491D-01-0.295D-01-0.208D-01 0.366D+00
 Coeff-Com:  0.708D+00
 Coeff:      0.865D-04-0.113D-03 0.336D-04 0.522D-04-0.463D-03-0.219D-02
 Coeff:     -0.646D-03 0.286D-01-0.491D-01-0.295D-01-0.208D-01 0.366D+00
 Coeff:      0.708D+00
 Gap=     0.142 Goal=   None    Shift=    0.000
 Gap=     0.110 Goal=   None    Shift=    0.000
 RMSDP=8.71D-08 MaxDP=2.82D-06 DE=-8.55D-10 OVMax= 8.37D-06

 Cycle  14  Pass 1  IDiag  1:
 RMSU=  4.84D-08    CP:  1.13D+00  3.00D+00  8.72D-01  8.12D-01  7.57D-01
                    CP:  1.28D+00  1.51D+00  2.54D+00  2.33D+00  1.05D+00
                    CP:  1.17D+00  1.23D+00  1.03D+00
 E= -167.684683282409     Delta-E=       -0.000000000080 Rises=F Damp=F
 DIIS: error= 3.04D-07 at cycle  14 NSaved=  14.
 NSaved=14 IEnMin=14 EnMin= -167.684683282409     IErMin=14 ErrMin= 3.04D-07
 ErrMax= 3.04D-07  0.00D+00 EMaxC= 1.00D-01 BMatC= 1.93D-11 BMatP= 1.21D-10
 IDIUse=1 WtCom= 1.00D+00 WtEn= 0.00D+00
 Coeff-Com: -0.676D-05 0.923D-05 0.433D-05 0.186D-04 0.112D-03 0.248D-03
 Coeff-Com: -0.317D-04-0.557D-02 0.156D-01-0.193D-02-0.249D-01-0.786D-01
 Coeff-Com:  0.909D-01 0.100D+01
 Coeff:     -0.676D-05 0.923D-05 0.433D-05 0.186D-04 0.112D-03 0.248D-03
 Coeff:     -0.317D-04-0.557D-02 0.156D-01-0.193D-02-0.249D-01-0.786D-01
 Coeff:      0.909D-01 0.100D+01
 Gap=     0.142 Goal=   None    Shift=    0.000
 Gap=     0.110 Goal=   None    Shift=    0.000
 RMSDP=5.61D-08 MaxDP=2.78D-06 DE=-8.03D-11 OVMax= 7.33D-06

 Cycle  15  Pass 1  IDiag  1:
 RMSU=  3.11D-08    CP:  1.13D+00  3.00D+00  8.72D-01  8.12D-01  7.57D-01
                    CP:  1.28D+00  1.51D+00  2.55D+00  2.33D+00  1.05D+00
                    CP:  1.18D+00  1.28D+00  1.26D+00  1.69D+00
 E= -167.684683282458     Delta-E=       -0.000000000049 Rises=F Damp=F
 DIIS: error= 2.34D-07 at cycle  15 NSaved=  15.
 NSaved=15 IEnMin=15 EnMin= -167.684683282458     IErMin=15 ErrMin= 2.34D-07
 ErrMax= 2.34D-07  0.00D+00 EMaxC= 1.00D-01 BMatC= 1.23D-11 BMatP= 1.93D-11
 IDIUse=1 WtCom= 1.00D+00 WtEn= 0.00D+00
 Coeff-Com: -0.340D-05 0.412D-05-0.408D-05-0.713D-05 0.112D-04 0.888D-04
 Coeff-Com:  0.220D-04-0.477D-03-0.181D-03 0.308D-02 0.749D-02-0.156D-01
 Coeff-Com: -0.721D-01-0.206D+00 0.128D+01
 Coeff:     -0.340D-05 0.412D-05-0.408D-05-0.713D-05 0.112D-04 0.888D-04
 Coeff:      0.220D-04-0.477D-03-0.181D-03 0.308D-02 0.749D-02-0.156D-01
 Coeff:     -0.721D-01-0.206D+00 0.128D+01
 Gap=     0.142 Goal=   None    Shift=    0.000
 Gap=     0.110 Goal=   None    Shift=    0.000
 RMSDP=6.34D-08 MaxDP=3.23D-06 DE=-4.88D-11 OVMax= 9.03D-06

 Cycle  16  Pass 1  IDiag  1:
 RMSU=  1.22D-08    CP:  1.13D+00  3.00D+00  8.72D-01  8.12D-01  7.57D-01
                    CP:  1.28D+00  1.51D+00  2.55D+00  2.33D+00  1.05D+00
                    CP:  1.18D+00  1.32D+00  1.45D+00  2.58D+00  2.18D+00
 E= -167.684683282509     Delta-E=       -0.000000000051 Rises=F Damp=F
 DIIS: error= 2.26D-07 at cycle  16 NSaved=  16.
 NSaved=16 IEnMin=16 EnMin= -167.684683282509     IErMin=16 ErrMin= 2.26D-07
 ErrMax= 2.26D-07  0.00D+00 EMaxC= 1.00D-01 BMatC= 1.13D-11 BMatP= 1.23D-11
 IDIUse=1 WtCom= 1.00D+00 WtEn= 0.00D+00
 Coeff-Com:  0.320D-05-0.408D-05 0.448D-06-0.565D-05-0.458D-04-0.103D-03
 Coeff-Com:  0.251D-04 0.194D-02-0.568D-02 0.175D-03 0.719D-02 0.334D-01
 Coeff-Com:  0.622D-03-0.334D+00-0.573D+00 0.187D+01
 Coeff:      0.320D-05-0.408D-05 0.448D-06-0.565D-05-0.458D-04-0.103D-03
 Coeff:      0.251D-04 0.194D-02-0.568D-02 0.175D-03 0.719D-02 0.334D-01
 Coeff:      0.622D-03-0.334D+00-0.573D+00 0.187D+01
 Gap=     0.142 Goal=   None    Shift=    0.000
 Gap=     0.110 Goal=   None    Shift=    0.000
 RMSDP=1.11D-07 MaxDP=5.66D-06 DE=-5.11D-11 OVMax= 1.59D-05

 Cycle  17  Pass 1  IDiag  1:
 RMSU=  6.74D-08    CP:  1.13D+00  3.00D+00  8.72D-01  8.12D-01  7.57D-01
                    CP:  1.28D+00  1.51D+00  2.55D+00  2.33D+00  1.05D+00
                    CP:  1.18D+00  1.38D+00  1.77D+00  3.00D+00  3.00D+00
                    CP:  3.00D+00
 E= -167.684683282594     Delta-E=       -0.000000000084 Rises=F Damp=F
 DIIS: error= 2.16D-07 at cycle  17 NSaved=  17.
 NSaved=17 IEnMin=17 EnMin= -167.684683282594     IErMin=17 ErrMin= 2.16D-07
 ErrMax= 2.16D-07  0.00D+00 EMaxC= 1.00D-01 BMatC= 1.03D-11 BMatP= 1.13D-11
 IDIUse=1 WtCom= 1.00D+00 WtEn= 0.00D+00
 Coeff-Com: -0.136D-05 0.186D-05 0.325D-05 0.192D-04 0.594D-04 0.310D-04
 Coeff-Com: -0.310D-04-0.261D-02 0.104D-01-0.451D-02-0.243D-01-0.404D-01
 Coeff-Com:  0.124D+00 0.868D+00-0.469D+00-0.397D+01 0.451D+01
 Coeff:     -0.136D-05 0.186D-05 0.325D-05 0.192D-04 0.594D-04 0.310D-04
 Coeff:     -0.310D-04-0.261D-02 0.104D-01-0.451D-02-0.243D-01-0.404D-01
 Coeff:      0.124D+00 0.868D+00-0.469D+00-0.397D+01 0.451D+01
 Gap=     0.142 Goal=   None    Shift=    0.000
 Gap=     0.110 Goal=   None    Shift=    0.000
 RMSDP=3.50D-07 MaxDP=1.80D-05 DE=-8.44D-11 OVMax= 5.01D-05

 Cycle  18  Pass 1  IDiag  1:
 RMSU=  1.99D-07    CP:  1.13D+00  3.00D+00  8.72D-01  8.12D-01  7.57D-01
                    CP:  1.28D+00  1.51D+00  2.55D+00  2.33D+00  1.06D+00
                    CP:  1.19D+00  1.57D+00  2.78D+00  3.00D+00  3.00D+00
                    CP:  3.00D+00  3.00D+00
 E= -167.684683282845     Delta-E=       -0.000000000251 Rises=F Damp=F
 DIIS: error= 1.98D-07 at cycle  18 NSaved=  18.
 NSaved=18 IEnMin=18 EnMin= -167.684683282845     IErMin=18 ErrMin= 1.98D-07
 ErrMax= 1.98D-07  0.00D+00 EMaxC= 1.00D-01 BMatC= 8.01D-12 BMatP= 1.03D-11
 IDIUse=1 WtCom= 1.00D+00 WtEn= 0.00D+00
 Coeff-Com: -0.112D-04 0.147D-04-0.232D-05 0.514D-05 0.115D-03 0.380D-03
 Coeff-Com: -0.240D-03-0.427D-02 0.967D-02 0.336D-02-0.138D-02-0.713D-01
 Coeff-Com: -0.944D-01 0.148D+00 0.197D+01-0.197D+01-0.373D+01 0.473D+01
 Coeff:     -0.112D-04 0.147D-04-0.232D-05 0.514D-05 0.115D-03 0.380D-03
 Coeff:     -0.240D-03-0.427D-02 0.967D-02 0.336D-02-0.138D-02-0.713D-01
 Coeff:     -0.944D-01 0.148D+00 0.197D+01-0.197D+01-0.373D+01 0.473D+01
 Gap=     0.142 Goal=   None    Shift=    0.000
 Gap=     0.110 Goal=   None    Shift=    0.000
 RMSDP=1.21D-06 MaxDP=6.20D-05 DE=-2.51D-10 OVMax= 1.74D-04

 Cycle  19  Pass 1  IDiag  1:
 RMSU=  8.32D-07    CP:  1.13D+00  3.00D+00  8.72D-01  8.12D-01  7.57D-01
                    CP:  1.28D+00  1.51D+00  2.55D+00  2.33D+00  1.06D+00
                    CP:  1.22D+00  2.22D+00  3.00D+00  3.00D+00  3.00D+00
                    CP:  3.00D+00  3.00D+00  3.00D+00
 E= -167.684683283435     Delta-E=       -0.000000000590 Rises=F Damp=F
 DIIS: error= 1.21D-07 at cycle  19 NSaved=  19.
 NSaved=19 IEnMin=19 EnMin= -167.684683283435     IErMin=19 ErrMin= 1.21D-07
 ErrMax= 1.21D-07  0.00D+00 EMaxC= 1.00D-01 BMatC= 2.43D-12 BMatP= 8.01D-12
 IDIUse=1 WtCom= 1.00D+00 WtEn= 0.00D+00
 Coeff-Com: -0.396D-05 0.519D-05-0.268D-05-0.988D-05 0.182D-04 0.159D-03
 Coeff-Com: -0.148D-03-0.283D-03-0.225D-02 0.405D-02 0.155D-01-0.619D-02
 Coeff-Com: -0.120D+00-0.508D+00 0.106D+01 0.193D+01-0.462D+01 0.197D+01
 Coeff-Com:  0.128D+01
 Coeff:     -0.396D-05 0.519D-05-0.268D-05-0.988D-05 0.182D-04 0.159D-03
 Coeff:     -0.148D-03-0.283D-03-0.225D-02 0.405D-02 0.155D-01-0.619D-02
 Coeff:     -0.120D+00-0.508D+00 0.106D+01 0.193D+01-0.462D+01 0.197D+01
 Coeff:      0.128D+01
 Gap=     0.142 Goal=   None    Shift=    0.000
 Gap=     0.110 Goal=   None    Shift=    0.000
 RMSDP=8.79D-07 MaxDP=4.52D-05 DE=-5.90D-10 OVMax= 1.26D-04

 Cycle  20  Pass 1  IDiag  1:
 RMSU=  1.40D-07    CP:  1.13D+00  3.00D+00  8.72D-01  8.12D-01  7.57D-01
                    CP:  1.28D+00  1.51D+00  2.55D+00  2.34D+00  1.07D+00
                    CP:  1.24D+00  2.70D+00  3.00D+00  3.00D+00  3.00D+00
                    CP:  3.00D+00  3.00D+00  3.00D+00  2.03D+00
 E= -167.684683283601     Delta-E=       -0.000000000166 Rises=F Damp=F
 DIIS: error= 2.82D-08 at cycle  20 NSaved=  20.
 NSaved=20 IEnMin=20 EnMin= -167.684683283601     IErMin=20 ErrMin= 2.82D-08
 ErrMax= 2.82D-08  0.00D+00 EMaxC= 1.00D-01 BMatC= 3.31D-13 BMatP= 2.43D-12
 IDIUse=1 WtCom= 1.00D+00 WtEn= 0.00D+00
 Coeff-Com:  0.244D-05-0.323D-05 0.404D-06-0.148D-06-0.186D-04-0.759D-04
 Coeff-Com:  0.240D-04 0.749D-03-0.127D-02-0.136D-02-0.327D-03 0.103D-01
 Coeff-Com:  0.233D-01 0.268D-01-0.370D+00 0.139D+00 0.837D+00-0.814D+00
 Coeff-Com: -0.381D-01 0.119D+01
 Coeff:      0.244D-05-0.323D-05 0.404D-06-0.148D-06-0.186D-04-0.759D-04
 Coeff:      0.240D-04 0.749D-03-0.127D-02-0.136D-02-0.327D-03 0.103D-01
 Coeff:      0.233D-01 0.268D-01-0.370D+00 0.139D+00 0.837D+00-0.814D+00
 Coeff:     -0.381D-01 0.119D+01
 Gap=     0.142 Goal=   None    Shift=    0.000
 Gap=     0.110 Goal=   None    Shift=    0.000
 RMSDP=1.50D-07 MaxDP=7.68D-06 DE=-1.66D-10 OVMax= 2.15D-05

 Cycle  21  Pass 1  IDiag  1:
 Restarting incremental Fock formation.
 E= -167.684683283599     Delta-E=        0.000000000002 Rises=F Damp=F
 DIIS: error= 2.50D-08 at cycle  21 NSaved=  20.
 NSaved=20 IEnMin=19 EnMin= -167.684683283601     IErMin=20 ErrMin= 2.50D-08
 ErrMax= 2.50D-08  0.00D+00 EMaxC= 1.00D-01 BMatC= 1.61D-13 BMatP= 3.31D-13
 IDIUse=1 WtCom= 1.00D+00 WtEn= 0.00D+00
 Coeff-Com: -0.147D-07 0.963D-06 0.380D-05 0.799D-05 0.917D-05 0.180D-05
 Coeff-Com: -0.247D-03 0.122D-02-0.714D-03-0.239D-02-0.550D-02 0.805D-02
 Coeff-Com:  0.892D-01 0.114D+00-0.632D+00 0.346D+00 0.306D+00-0.287D+00
 Coeff-Com: -0.119D+01 0.226D+01
 Coeff:     -0.147D-07 0.963D-06 0.380D-05 0.799D-05 0.917D-05 0.180D-05
 Coeff:     -0.247D-03 0.122D-02-0.714D-03-0.239D-02-0.550D-02 0.805D-02
 Coeff:      0.892D-01 0.114D+00-0.632D+00 0.346D+00 0.306D+00-0.287D+00
 Coeff:     -0.119D+01 0.226D+01
 Gap=     0.142 Goal=   None    Shift=    0.000
 Gap=     0.110 Goal=   None    Shift=    0.000
 RMSDP=3.76D-08 MaxDP=1.84D-06 DE= 2.39D-12 OVMax= 5.18D-06

 Cycle  22  Pass 1  IDiag  1:
 RMSU=  3.76D-08    CP:  1.00D+00
 E= -167.684683283599     Delta-E=       -0.000000000001 Rises=F Damp=F
 DIIS: error= 1.50D-08 at cycle  22 NSaved=  20.
 NSaved=20 IEnMin=18 EnMin= -167.684683283601     IErMin=20 ErrMin= 1.50D-08
 ErrMax= 1.50D-08  0.00D+00 EMaxC= 1.00D-01 BMatC= 5.71D-14 BMatP= 1.61D-13
 IDIUse=1 WtCom= 1.00D+00 WtEn= 0.00D+00
 Large coefficients: NSaved= 20 BigCof=    0.00 CofMax=   10.00 Det=-4.00D-15
 Inversion failed.  Reducing to 19 matrices.
 Large coefficients: NSaved= 19 BigCof=    0.00 CofMax=   10.00 Det=-4.58D-15
 Inversion failed.  Reducing to 18 matrices.
 Large coefficients: NSaved= 18 BigCof=    0.00 CofMax=   10.00 Det=-5.72D-15
 Inversion failed.  Reducing to 17 matrices.
 Large coefficients: NSaved= 17 BigCof=    0.00 CofMax=   10.00 Det=-6.46D-15
 Inversion failed.  Reducing to 16 matrices.
 Coeff-Com:  0.350D-05 0.288D-04-0.371D-03 0.159D-03 0.108D-02 0.641D-03
 Coeff-Com: -0.675D-02-0.375D-01 0.853D-01 0.113D+00-0.388D+00 0.245D+00
 Coeff-Com:  0.788D-01-0.216D+00-0.762D+00 0.189D+01
 Coeff:      0.350D-05 0.288D-04-0.371D-03 0.159D-03 0.108D-02 0.641D-03
 Coeff:     -0.675D-02-0.375D-01 0.853D-01 0.113D+00-0.388D+00 0.245D+00
 Coeff:      0.788D-01-0.216D+00-0.762D+00 0.189D+01
 Gap=     0.142 Goal=   None    Shift=    0.000
 Gap=     0.110 Goal=   None    Shift=    0.000
 RMSDP=2.44D-08 MaxDP=1.08D-06 DE=-6.82D-13 OVMax= 3.23D-06

 Cycle  23  Pass 1  IDiag  1:
 RMSU=  5.36D-09    CP:  1.00D+00  1.63D+00
 E= -167.684683283599     Delta-E=        0.000000000000 Rises=F Damp=F
 DIIS: error= 7.95D-09 at cycle  23 NSaved=  17.
 NSaved=17 IEnMin=14 EnMin= -167.684683283601     IErMin=17 ErrMin= 7.95D-09
 ErrMax= 7.95D-09  0.00D+00 EMaxC= 1.00D-01 BMatC= 1.64D-14 BMatP= 5.71D-14
 IDIUse=1 WtCom= 1.00D+00 WtEn= 0.00D+00
 Large coefficients: NSaved= 17 BigCof=    0.00 CofMax=   10.00 Det=-5.00D-15
 Inversion failed.  Reducing to 16 matrices.
 Large coefficients: NSaved= 16 BigCof=    0.00 CofMax=   10.00 Det=-5.24D-15
 Inversion failed.  Reducing to 15 matrices.
 Coeff-Com: -0.699D-04 0.179D-03 0.595D-03-0.679D-03-0.306D-02-0.121D-01
 Coeff-Com:  0.279D-02 0.125D+00-0.155D+00-0.867D-02 0.911D-01 0.244D+00
 Coeff-Com: -0.701D+00 0.397D+00 0.102D+01
 Coeff:     -0.699D-04 0.179D-03 0.595D-03-0.679D-03-0.306D-02-0.121D-01
 Coeff:      0.279D-02 0.125D+00-0.155D+00-0.867D-02 0.911D-01 0.244D+00
 Coeff:     -0.701D+00 0.397D+00 0.102D+01
 Gap=     0.142 Goal=   None    Shift=    0.000
 Gap=     0.110 Goal=   None    Shift=    0.000
 RMSDP=5.93D-09 MaxDP=2.30D-07 DE= 1.14D-13 OVMax= 7.61D-07

 SCF Done:  E(UB3LYP) =  -167.684683284     A.U. after   23 cycles
            NFock= 23  Conv=0.59D-08     -V/T= 2.0035
 <Sx>= 0.0000 <Sy>= 0.0000 <Sz>= 0.5000 <S**2>= 0.7716 S= 0.5108
 <L.S>= 0.000000000000E+00
 KE= 1.670937377417D+02 PE=-5.240448996052D+02 EE= 1.153807599856D+02
 Annihilation of the first spin contaminant:
 S**2 before annihilation     0.7716,   after     0.7501
 Leave Link  502 at Fri Aug  5 07:08:38 2016, MaxMem=    33554432 cpu:       293.3
 (Enter /home/proyectos/fulerenos/M3C-v2.0/M3C-deps_CCC/g09-AM64L-G09RevC.01/l801.exe)
 DoSCS=F DFT=T ScalE2(SS,OS)=  1.000000  1.000000
 Range of M.O.s used for correlation:     1   156
 NBasis=   156 NAE=    12 NBE=    11 NFC=     0 NFV=     0
 NROrb=    156 NOA=    12 NOB=    11 NVA=   144 NVB=   145

 **** Warning!!: The largest alpha MO coefficient is  0.29296611D+02


 **** Warning!!: The largest beta MO coefficient is  0.29361506D+02

 Leave Link  801 at Fri Aug  5 07:08:38 2016, MaxMem=    33554432 cpu:         0.1
 (Enter /home/proyectos/fulerenos/M3C-v2.0/M3C-deps_CCC/g09-AM64L-G09RevC.01/l1101.exe)
 Using compressed storage, NAtomX=     4.
 Will process      5 centers per pass.
 Leave Link 1101 at Fri Aug  5 07:08:38 2016, MaxMem=    33554432 cpu:         0.9
 (Enter /home/proyectos/fulerenos/M3C-v2.0/M3C-deps_CCC/g09-AM64L-G09RevC.01/l1102.exe)
 Symmetrizing basis deriv contribution to polar:
 IMax=3 JMax=2 DiffMx= 0.00D+00
 Leave Link 1102 at Fri Aug  5 07:08:38 2016, MaxMem=    33554432 cpu:         0.1
 (Enter /home/proyectos/fulerenos/M3C-v2.0/M3C-deps_CCC/g09-AM64L-G09RevC.01/l1110.exe)
 Forming Gx(P) for the SCF density, NAtomX=     4.
 Integral derivatives from FoFJK, PRISM(SPDF).
 Do as many integral derivatives as possible in FoFJK.
 G2DrvN: MDV=      33554296.
 G2DrvN: will do     5 centers at a time, making    1 passes.
 Calling FoFCou, ICntrl=  3107 FMM=F I1Cent=   0 AccDes= 0.00D+00.
 FoFJK:  IHMeth= 1 ICntrl=    3107 DoSepK=F KAlg= 0 I1Cent=   0 FoldK=F
 IRaf=         0 NMat=   1 IRICut=       1 DoRegI=T DoRafI=F ISym2E= 0.
 FoFCou: FMM=F IPFlag=           0 FMFlag=      100000 FMFlg1=           0
         NFxFlg=           0 DoJE=F BraDBF=F KetDBF=F FulRan=T
         wScrn=  0.000000 ICntrl=    3107 IOpCl=  1 I1Cent=           0 NGrid=           0
         NMat0=    1 NMatS0=      1 NMatT0=    0 NMatD0=    1 NMtDS0=    0 NMtDT0=    0
 Symmetry not used in FoFCou.
 End of G2Drv F.D. properties file   721 does not exist.
 End of G2Drv F.D. properties file   722 does not exist.
 End of G2Drv F.D. properties file   788 does not exist.
 Leave Link 1110 at Fri Aug  5 07:09:04 2016, MaxMem=    33554432 cpu:       100.3
 (Enter /home/proyectos/fulerenos/M3C-v2.0/M3C-deps_CCC/g09-AM64L-G09RevC.01/l1002.exe)
 Minotr:  UHF open shell wavefunction.
          IDoAtm=1111
          Direct CPHF calculation.
          Differentiating once with respect to electric field.
                with respect to dipole field.
          Differentiating once with respect to nuclear coordinates.
          Requested convergence is 1.0D-08 RMS, and 1.0D-07 maximum.
          Secondary convergence is 1.0D-12 RMS, and 1.0D-12 maximum.
          NewPWx=T KeepS1=F KeepF1=F KeepIn=T MapXYZ=F SortEE=F KeepMc=T.
          MDV=      33554076 using IRadAn=       2.
 Generate precomputed XC quadrature information.
          Solving linear equations simultaneously, MaxMat=       0.
 FoFJK:  IHMeth= 1 ICntrl=       0 DoSepK=F KAlg= 0 I1Cent=   0 FoldK=F
 IRaf= 990000000 NMat=  15 IRICut=      37 DoRegI=T DoRafI=T ISym2E= 2.
 FoFCou: FMM=F IPFlag=           0 FMFlag=      100000 FMFlg1=           0
         NFxFlg=           0 DoJE=F BraDBF=F KetDBF=F FulRan=T
         wScrn=  0.000000 ICntrl=       0 IOpCl=  1 I1Cent=           0 NGrid=           0
         NMat0=   15 NMatS0=     15 NMatT0=    0 NMatD0=   15 NMtDS0=    0 NMtDT0=    0
 Integrals replicated using symmetry in FoFCou.
          There are    15 degrees of freedom in the 1st order CPHF.  IDoFFX=6 NUNeed=     3.
     13 vectors produced by pass  0 Test12= 2.22D-14 6.67D-09 XBig12= 2.34D+02 1.17D+01.
 AX will form    13 AO Fock derivatives at one time.
     12 vectors produced by pass  1 Test12= 2.22D-14 6.67D-09 XBig12= 6.04D+01 2.09D+00.
     12 vectors produced by pass  2 Test12= 2.22D-14 6.67D-09 XBig12= 4.97D+00 7.73D-01.
     12 vectors produced by pass  3 Test12= 2.22D-14 6.67D-09 XBig12= 5.09D-02 5.95D-02.
     12 vectors produced by pass  4 Test12= 2.22D-14 6.67D-09 XBig12= 1.90D-03 1.38D-02.
     12 vectors produced by pass  5 Test12= 2.22D-14 6.67D-09 XBig12= 2.98D-05 1.63D-03.
     12 vectors produced by pass  6 Test12= 2.22D-14 6.67D-09 XBig12= 5.86D-07 2.35D-04.
     12 vectors produced by pass  7 Test12= 2.22D-14 6.67D-09 XBig12= 3.53D-09 1.12D-05.
      7 vectors produced by pass  8 Test12= 2.22D-14 6.67D-09 XBig12= 1.46D-11 7.23D-07.
      3 vectors produced by pass  9 Test12= 2.22D-14 6.67D-09 XBig12= 5.25D-14 6.15D-08.
      2 vectors produced by pass 10 Test12= 2.22D-14 6.67D-09 XBig12= 2.58D-15 1.48D-08.
 InvSVY:  IOpt=1 It=  1 EMax= 8.88D-15
 Solved reduced A of dimension   109 with    15 vectors.
 FullF1:  Do perturbations    1 to     3.
 Isotropic polarizability for W=    0.000000       36.02 Bohr**3.
 End of Minotr F.D. properties file   721 does not exist.
 End of Minotr F.D. properties file   722 does not exist.
 End of Minotr F.D. properties file   788 does not exist.
 Leave Link 1002 at Fri Aug  5 07:10:19 2016, MaxMem=    33554432 cpu:       300.6
 (Enter /home/proyectos/fulerenos/M3C-v2.0/M3C-deps_CCC/g09-AM64L-G09RevC.01/l601.exe)
 Copying SCF densities to generalized density rwf, IOpCl= 1 IROHF=0.

 **********************************************************************

            Population analysis using the SCF density.

 **********************************************************************

 Orbital symmetries:
 Alpha Orbitals:
       Occupied  (A) (A) (A) (A) (A) (A) (A) (A) (A) (A) (A) (A)
       Virtual   (A) (A) (A) (A) (A) (A) (A) (A) (A) (A) (A) (A)
                 (A) (A) (A) (A) (A) (A) (A) (A) (A) (A) (A) (A)
                 (A) (A) (A) (A) (A) (A) (A) (A) (A) (A) (A) (A)
                 (A) (A) (A) (A) (A) (A) (A) (A) (A) (A) (A) (A)
                 (A) (A) (A) (A) (A) (A) (A) (A) (A) (A) (A) (A)
                 (A) (A) (A) (A) (A) (A) (A) (A) (A) (A) (A) (A)
                 (A) (A) (A) (A) (A) (A) (A) (A) (A) (A) (A) (A)
                 (A) (A) (A) (A) (A) (A) (A) (A) (A) (A) (A) (A)
                 (A) (A) (A) (A) (A) (A) (A) (A) (A) (A) (A) (A)
                 (A) (A) (A) (A) (A) (A) (A) (A) (A) (A) (A) (A)
                 (A) (A) (A) (A) (A) (A) (A) (A) (A) (A) (A) (A)
                 (A) (A) (A) (A) (A) (A) (A) (A) (A) (A) (A) (A)
 Beta  Orbitals:
       Occupied  (A) (A) (A) (A) (A) (A) (A) (A) (A) (A) (A)
       Virtual   (A) (A) (A) (A) (A) (A) (A) (A) (A) (A) (A) (A)
                 (A) (A) (A) (A) (A) (A) (A) (A) (A) (A) (A) (A)
                 (A) (A) (A) (A) (A) (A) (A) (A) (A) (A) (A) (A)
                 (A) (A) (A) (A) (A) (A) (A) (A) (A) (A) (A) (A)
                 (A) (A) (A) (A) (A) (A) (A) (A) (A) (A) (A) (A)
                 (A) (A) (A) (A) (A) (A) (A) (A) (A) (A) (A) (A)
                 (A) (A) (A) (A) (A) (A) (A) (A) (A) (A) (A) (A)
                 (A) (A) (A) (A) (A) (A) (A) (A) (A) (A) (A) (A)
                 (A) (A) (A) (A) (A) (A) (A) (A) (A) (A) (A) (A)
                 (A) (A) (A) (A) (A) (A) (A) (A) (A) (A) (A) (A)
                 (A) (A) (A) (A) (A) (A) (A) (A) (A) (A) (A) (A)
                 (A) (A) (A) (A) (A) (A) (A) (A) (A) (A) (A) (A)
                 (A)
 The electronic state is 2-A.
 Alpha  occ. eigenvalues --  -15.04354 -10.96948 -10.96943 -10.96921  -1.67071
 Alpha  occ. eigenvalues --   -1.43784  -1.20023  -1.07565  -1.05239  -0.94526
 Alpha  occ. eigenvalues --   -0.92997  -0.91961
 Alpha virt. eigenvalues --   -0.77800  -0.70689  -0.65855  -0.60112  -0.48875
 Alpha virt. eigenvalues --   -0.45387  -0.36254  -0.34646  -0.29359  -0.27276
 Alpha virt. eigenvalues --   -0.26876  -0.25615  -0.22148  -0.22137  -0.21924
 Alpha virt. eigenvalues --   -0.21230  -0.20581  -0.18474  -0.16232  -0.15468
 Alpha virt. eigenvalues --   -0.12726  -0.12433  -0.12357  -0.10461  -0.08498
 Alpha virt. eigenvalues --   -0.07255  -0.04487  -0.00818   0.00682   0.03529
 Alpha virt. eigenvalues --    0.04616   0.05007   0.05783   0.07463   0.07815
 Alpha virt. eigenvalues --    0.09078   0.09433   0.10252   0.13002   0.13719
 Alpha virt. eigenvalues --    0.13974   0.19714   0.19754   0.24793   0.25072
 Alpha virt. eigenvalues --    0.26498   0.27732   0.29346   0.32899   0.34134
 Alpha virt. eigenvalues --    0.37211   0.40353   0.53763   0.54318   0.63933
 Alpha virt. eigenvalues --    0.72188   0.80053   0.81723   0.84713   0.87332
 Alpha virt. eigenvalues --    0.99058   1.02672   1.02693   1.06461   1.06764
 Alpha virt. eigenvalues --    1.06836   1.12241   1.13728   1.24770   1.24862
 Alpha virt. eigenvalues --    1.26631   1.32410   1.40513   1.51391   1.53396
 Alpha virt. eigenvalues --    1.75958   1.80784   1.80790   1.93494   1.99930
 Alpha virt. eigenvalues --    2.01353   2.02371   2.03832   2.11443   2.14806
 Alpha virt. eigenvalues --    2.15200   2.17577   2.20818   2.21337   2.22688
 Alpha virt. eigenvalues --    2.28068   2.31589   2.32042   2.45996   2.53710
 Alpha virt. eigenvalues --    2.54734   2.59864   2.68454   2.70072   2.74424
 Alpha virt. eigenvalues --    2.76244   2.83559   2.89408   2.95358   3.05225
 Alpha virt. eigenvalues --    3.07639   3.31764   3.31847   3.40775   3.49348
 Alpha virt. eigenvalues --    3.57940   3.64072   3.73450   3.85088   4.12771
 Alpha virt. eigenvalues --    4.21022   4.27248   4.63784   5.32504   5.40394
 Alpha virt. eigenvalues --    6.22903   6.29066   6.29262   6.35756   6.43471
 Alpha virt. eigenvalues --    6.46015   6.49762   6.58710   6.64458   6.69492
 Alpha virt. eigenvalues --    6.72731   6.78966   6.86578   6.97116   7.41562
 Alpha virt. eigenvalues --    9.61253   9.63229   9.96349  10.34601  10.65049
 Alpha virt. eigenvalues --   23.34882  23.57558  23.74149  35.48527
  Beta  occ. eigenvalues --  -15.04400 -10.97021 -10.95886 -10.95874  -1.66289
  Beta  occ. eigenvalues --   -1.43259  -1.16900  -1.06573  -1.05156  -0.92795
  Beta  occ. eigenvalues --   -0.88883
  Beta virt. eigenvalues --   -0.77914  -0.77212  -0.70941  -0.63845  -0.60033
  Beta virt. eigenvalues --   -0.45130  -0.44153  -0.35777  -0.33460  -0.29297
  Beta virt. eigenvalues --   -0.27186  -0.25540  -0.25438  -0.22104  -0.21861
  Beta virt. eigenvalues --   -0.21809  -0.20781  -0.20230  -0.17796  -0.15916
  Beta virt. eigenvalues --   -0.15425  -0.12721  -0.12383  -0.12302  -0.10277
  Beta virt. eigenvalues --   -0.08370  -0.05983  -0.04231  -0.00432   0.00958
  Beta virt. eigenvalues --    0.04659   0.04881   0.05585   0.05891   0.07637
  Beta virt. eigenvalues --    0.08176   0.09559   0.09669   0.11690   0.13523
  Beta virt. eigenvalues --    0.14269   0.14289   0.19801   0.20340   0.25311
  Beta virt. eigenvalues --    0.25450   0.26557   0.28305   0.29922   0.32931
  Beta virt. eigenvalues --    0.34484   0.37882   0.40619   0.53778   0.55268
  Beta virt. eigenvalues --    0.64043   0.72943   0.83046   0.83268   0.85463
  Beta virt. eigenvalues --    0.88183   1.00623   1.02620   1.03819   1.06864
  Beta virt. eigenvalues --    1.07207   1.07464   1.13217   1.15372   1.25292
  Beta virt. eigenvalues --    1.27264   1.30817   1.33245   1.42534   1.51841
  Beta virt. eigenvalues --    1.57259   1.76598   1.80914   1.81346   1.95111
  Beta virt. eigenvalues --    2.01473   2.01643   2.04406   2.06167   2.11808
  Beta virt. eigenvalues --    2.15132   2.18274   2.19082   2.20895   2.21153
  Beta virt. eigenvalues --    2.23097   2.29680   2.33078   2.33282   2.46412
  Beta virt. eigenvalues --    2.56285   2.56619   2.61383   2.70350   2.71383
  Beta virt. eigenvalues --    2.75425   2.77032   2.84651   2.89989   2.95913
  Beta virt. eigenvalues --    3.05641   3.09892   3.31596   3.34915   3.41237
  Beta virt. eigenvalues --    3.49613   3.58292   3.65305   3.73628   3.87967
  Beta virt. eigenvalues --    4.12924   4.23144   4.28090   4.63915   5.33095
  Beta virt. eigenvalues --    5.41026   6.26893   6.28503   6.28695   6.38795
  Beta virt. eigenvalues --    6.44795   6.46841   6.51296   6.59098   6.64573
  Beta virt. eigenvalues --    6.70981   6.76365   6.81097   6.90439   7.00569
  Beta virt. eigenvalues --    7.45076   9.61104   9.63148   9.96114  10.34529
  Beta virt. eigenvalues --   10.65321  23.35933  23.58784  23.74100  35.48486
          Condensed to atoms (all electrons):
               1          2          3          4
     1  N    8.116526  -0.318995  -0.319047  -0.550876
     2  C   -0.318995   6.218951  -0.425250  -0.109273
     3  C   -0.319047  -0.425250   6.218988  -0.109271
     4  C   -0.550876  -0.109273  -0.109271   6.110958
          Atomic-Atomic Spin Densities.
               1          2          3          4
     1  N    0.037667  -0.060821  -0.060861  -0.010949
     2  C   -0.060821   0.507470   0.103474   0.010193
     3  C   -0.060861   0.103474   0.507714   0.010188
     4  C   -0.010949   0.010193   0.010188  -0.035300
 Mulliken charges and spin densities:
               1          2
     1  N    0.072392  -0.094964
     2  C    0.634567   0.560317
     3  C    0.634580   0.560515
     4  C    0.658462  -0.025868
 Sum of Mulliken charges =   2.00000   1.00000
 Mulliken charges and spin densities with hydrogens summed into heavy atoms:
               1          2
     1  N    0.072392  -0.094964
     2  C    0.634567   0.560317
     3  C    0.634580   0.560515
     4  C    0.658462  -0.025868
 APT charges:
               1
     1  N   -0.234057
     2  C    0.553344
     3  C    0.553199
     4  C    1.127513
 Sum of APT charges =   2.00000
 APT charges with hydrogens summed into heavy atoms:
               1
     1  N   -0.234057
     2  C    0.553344
     3  C    0.553199
     4  C    1.127513
 Electronic spatial extent (au):  <R**2>=            147.7657
 Charge=              2.0000 electrons
 Dipole moment (field-independent basis, Debye):
    X=              0.0631    Y=              0.0003    Z=             -0.0001  Tot=              0.0631
 Quadrupole moment (field-independent basis, Debye-Ang):
   XX=             -6.0898   YY=            -13.2486   ZZ=            -15.7884
   XY=             -0.0003   XZ=              0.0009   YZ=             -0.0000
 Traceless Quadrupole moment (field-independent basis, Debye-Ang):
   XX=              5.6191   YY=             -1.5397   ZZ=             -4.0794
   XY=             -0.0003   XZ=              0.0009   YZ=             -0.0000
 Octapole moment (field-independent basis, Debye-Ang**2):
  XXX=              4.9321  YYY=              0.0011  ZZZ=              0.0007  XYY=             -2.5022
  XXY=             -0.0006  XXZ=              0.0036  XZZ=              0.0319  YZZ=              0.0001
  YYZ=              0.0001  XYZ=             -0.0000
 Hexadecapole moment (field-independent basis, Debye-Ang**3):
 XXXX=           -120.8137 YYYY=            -43.0709 ZZZZ=            -12.7015 XXXY=             -0.0001
 XXXZ=              0.0062 YYYX=             -0.0011 YYYZ=             -0.0000 ZZZX=              0.0013
 ZZZY=             -0.0000 XXYY=            -25.8318 XXZZ=            -21.6231 YYZZ=             -8.9327
 XXYZ=             -0.0000 YYXZ=              0.0002 ZZXY=             -0.0001
 N-N= 7.388571859432D+01 E-N=-5.240448995201D+02  KE= 1.670937377417D+02
  Exact polarizability:  45.456   0.002  42.733  -0.003   0.000  19.864
 Approx polarizability: 111.904   0.003  70.928   0.011  -0.000  32.913
                          Isotropic Fermi Contact Couplings
        Atom                 a.u.       MegaHertz       Gauss      10(-4) cm-1
     1  N(14)              0.00163       0.52609       0.18772       0.17549
     2  C(13)              0.21160     237.87349      84.87917      79.34606
     3  C(13)              0.21183     238.14130      84.97474      79.43539
     4  C(13)             -0.00973     -10.93525      -3.90197      -3.64761
 --------------------------------------------------------
       Center         ----  Spin Dipole Couplings  ----
                      3XX-RR        3YY-RR        3ZZ-RR
 --------------------------------------------------------
     1   Atom        0.028543      0.075682     -0.104225
     2   Atom       -0.368058      0.769411     -0.401352
     3   Atom       -0.368121      0.769540     -0.401418
     4   Atom        0.100710     -0.107280      0.006571
 --------------------------------------------------------
                        XY            XZ            YZ
 --------------------------------------------------------
     1   Atom        0.000000      0.000166      0.000000
     2   Atom       -0.179344      0.000191      0.000072
     3   Atom        0.179373      0.000191     -0.000072
     4   Atom       -0.000065     -0.001459      0.000000
 --------------------------------------------------------


 ---------------------------------------------------------------------------------
              Anisotropic Spin Dipole Couplings in Principal Axis System
 ---------------------------------------------------------------------------------

       Atom             a.u.   MegaHertz   Gauss  10(-4) cm-1        Axes

              Baa    -0.1042    -4.020    -1.434    -1.341 -0.0013 -0.0000  1.0000
     1 N(14)  Bbb     0.0285     1.101     0.393     0.367  1.0000 -0.0000  0.0013
              Bcc     0.0757     2.919     1.042     0.974  0.0000  1.0000  0.0000
 
              Baa    -0.4014   -53.859   -19.218   -17.965 -0.0347 -0.0054  0.9994
     2 C(13)  Bbb    -0.3957   -53.094   -18.945   -17.710  0.9878  0.1520  0.0351
              Bcc     0.7970   106.952    38.163    35.675 -0.1521  0.9884  0.0000
 
              Baa    -0.4014   -53.867   -19.221   -17.968 -0.0347  0.0054  0.9994
     3 C(13)  Bbb    -0.3957   -53.103   -18.948   -17.713  0.9878 -0.1520  0.0351
              Bcc     0.7972   106.970    38.170    35.681  0.1521  0.9884 -0.0000
 
              Baa    -0.1073   -14.396    -5.137    -4.802  0.0003  1.0000  0.0000
     4 C(13)  Bbb     0.0065     0.879     0.314     0.293  0.0155 -0.0000  0.9999
              Bcc     0.1007    13.517     4.823     4.509  0.9999 -0.0003 -0.0155
 

 ---------------------------------------------------------------------------------

 No NMR shielding tensors so no spin-rotation constants.
 Leave Link  601 at Fri Aug  5 07:10:19 2016, MaxMem=    33554432 cpu:         1.6
 (Enter /home/proyectos/fulerenos/M3C-v2.0/M3C-deps_CCC/g09-AM64L-G09RevC.01/l701.exe)
 Compute integral second derivatives.
 ... and contract with generalized density number  0.
 Leave Link  701 at Fri Aug  5 07:10:20 2016, MaxMem=    33554432 cpu:         1.3
 (Enter /home/proyectos/fulerenos/M3C-v2.0/M3C-deps_CCC/g09-AM64L-G09RevC.01/l702.exe)
 L702 exits ... SP integral derivatives will be done elsewhere.
 Leave Link  702 at Fri Aug  5 07:10:20 2016, MaxMem=    33554432 cpu:         0.1
 (Enter /home/proyectos/fulerenos/M3C-v2.0/M3C-deps_CCC/g09-AM64L-G09RevC.01/l703.exe)
 Compute integral second derivatives, UseDBF=F ICtDFT=           0.
 Integral derivatives from FoFJK, PRISM(SPDF).
 Calling FoFJK, ICntrl=    100127 FMM=F ISym2X=0 I1Cent= 0 IOpClX= 1 NMat=1 NMatS=1 NMatT=0.
 FoFJK:  IHMeth= 1 ICntrl=  100127 DoSepK=F KAlg= 0 I1Cent=   0 FoldK=F
 IRaf=         0 NMat=   1 IRICut=       1 DoRegI=T DoRafI=F ISym2E= 0.
 FoFCou: FMM=F IPFlag=           0 FMFlag=      100000 FMFlg1=         800
         NFxFlg=           0 DoJE=F BraDBF=F KetDBF=F FulRan=T
         wScrn=  0.000000 ICntrl=  100127 IOpCl=  1 I1Cent=           0 NGrid=           0
         NMat0=    1 NMatS0=      1 NMatT0=    0 NMatD0=    1 NMtDS0=    0 NMtDT0=    0
 Symmetry not used in FoFCou.
 Leave Link  703 at Fri Aug  5 07:10:52 2016, MaxMem=    33554432 cpu:       130.5
 (Enter /home/proyectos/fulerenos/M3C-v2.0/M3C-deps_CCC/g09-AM64L-G09RevC.01/l716.exe)
 Dipole        = 2.48384905D-02 1.04417335D-04-3.74426540D-05
 Polarizability= 4.54562600D+01 2.10318279D-03 4.27328921D+01
                -2.66078238D-03 2.40435237D-05 1.98644166D+01
 Full mass-weighted force constant matrix:
 Low frequencies --- -700.2279  -17.9682   -5.0519    0.0008    0.0008    0.0009
 Low frequencies ---   10.4117  258.4320  307.6327
 ******    1 imaginary frequencies (negative Signs) ****** 
 Diagonal vibrational polarizability:
       19.2009661      10.0767894       0.0347991
 Harmonic frequencies (cm**-1), IR intensities (KM/Mole), Raman scattering
 activities (A**4/AMU), depolarization ratios for plane and unpolarized
 incident light, reduced masses (AMU), force constants (mDyne/A),
 and normal coordinates:
                      1                      2                      3
                      A                      A                      A
 Frequencies --   -700.2279               258.4314               307.6326
 Red. masses --     12.4989                13.3407                12.7811
 Frc consts  --      3.6108                 0.5250                 0.7127
 IR Inten    --    182.7075                 0.0864                 0.1719
  Atom  AN      X      Y      Z        X      Y      Z        X      Y      Z
     1   7     0.00   0.50  -0.00     0.00  -0.00   0.82     0.00   0.62   0.00
     2   6    -0.53  -0.31  -0.00     0.00   0.00  -0.25     0.37  -0.08  -0.00
     3   6     0.53  -0.31   0.00     0.00  -0.00  -0.25    -0.37  -0.08   0.00
     4   6     0.00   0.04   0.00    -0.00   0.00  -0.45    -0.00  -0.57  -0.00
                      4                      5                      6
                      A                      A                      A
 Frequencies --    659.3862               965.1647              1246.9167
 Red. masses --     12.0877                12.0307                13.2330
 Frc consts  --      3.0965                 6.6031                12.1223
 IR Inten    --      5.1530                 0.5594              1089.9798
  Atom  AN      X      Y      Z        X      Y      Z        X      Y      Z
     1   7     0.21  -0.00   0.00     0.12  -0.00   0.00     0.78  -0.00  -0.00
     2   6    -0.34   0.52  -0.00    -0.35  -0.47  -0.00    -0.18  -0.07  -0.00
     3   6    -0.34  -0.52  -0.00    -0.35   0.47  -0.00    -0.18   0.07  -0.00
     4   6     0.43  -0.00  -0.00     0.55  -0.00  -0.00    -0.56  -0.00   0.00

 -------------------
 - Thermochemistry -
 -------------------
 Temperature   298.150 Kelvin.  Pressure   1.00000 Atm.
 Atom     1 has atomic number  7 and mass  14.00307
 Atom     2 has atomic number  6 and mass  12.00000
 Atom     3 has atomic number  6 and mass  12.00000
 Atom     4 has atomic number  6 and mass  12.00000
 Molecular mass:    50.00307 amu.
 Principal axes and moments of inertia in atomic units:
                           1         2         3
     Eigenvalues --    51.96120 191.33912 243.30029
           X            1.00000   0.00000  -0.00000
           Y           -0.00000   1.00000   0.00000
           Z            0.00000  -0.00000   1.00000
 This molecule is an asymmetric top.
 Rotational symmetry number  1.
 Rotational temperatures (Kelvin)      1.66689     0.45267     0.35600
 Rotational constants (GHZ):          34.73248     9.43216     7.41775
    1 imaginary frequencies ignored.
 Zero-point vibrational energy      20561.0 (Joules/Mol)
                                    4.91420 (Kcal/Mol)
 Warning -- explicit consideration of   2 degrees of freedom as
           vibrations may cause significant error
 Vibrational temperatures:    371.82   442.61   948.71  1388.66  1794.03
          (Kelvin)
 
 Zero-point correction=                           0.007831 (Hartree/Particle)
 Thermal correction to Energy=                    0.011735
 Thermal correction to Enthalpy=                  0.012680
 Thermal correction to Gibbs Free Energy=        -0.018197
 Sum of electronic and zero-point Energies=           -167.676852
 Sum of electronic and thermal Energies=              -167.672948
 Sum of electronic and thermal Enthalpies=            -167.672004
 Sum of electronic and thermal Free Energies=         -167.702880
 
                     E (Thermal)             CV                S
                      KCal/Mol        Cal/Mol-Kelvin    Cal/Mol-Kelvin
 Total                    7.364             10.871             64.984
 Electronic               0.000              0.000              1.377
 Translational            0.889              2.981             37.652
 Rotational               0.889              2.981             22.408
 Vibrational              5.587              4.910              3.547
 Vibration     1          0.667              1.749              1.672
 Vibration     2          0.697              1.659              1.375
                       Q            Log10(Q)             Ln(Q)
 Total Bot       0.234334D+09          8.369836         19.272259
 Total V=0       0.937484D+12         11.971964         27.566466
 Vib (Bot)       0.478847D-03         -3.319804         -7.644130
 Vib (Bot)    1  0.752158D+00         -0.123691         -0.284809
 Vib (Bot)    2  0.615513D+00         -0.210763         -0.485299
 Vib (V=0)       0.191569D+01          0.282324          0.650076
 Vib (V=0)    1  0.140318D+01          0.147115          0.338744
 Vib (V=0)    2  0.129300D+01          0.111600          0.256969
 Electronic      0.200000D+01          0.301030          0.693147
 Translational   0.138979D+08          7.142950         16.447251
 Rotational      0.176059D+05          4.245659          9.775992
 
                                                              b3lyp opt
                                                             IR Spectrum
 
     1                                                                                                                               
     2                            9                              6                                   3    2                          
     4                            6                              5                                   0    5                          
     7                            5                              9                                   8    8                          
 
     X                            X                              X                                   X    X                          
     X                                                                                                                               
     X                                                                                                                               
     X                                                                                                                               
     X                                                                                                                               
     X                                                                                                                               
     X                                                                                                                               
     X                                                                                                                               
     X                                                                                                                               
     X                                                                                                                               
     X                                                                                                                               
     X                                                                                                                               
     X                                                                                                                               
     X                                                                                                                               
     X                                                                                                                               
     X                                                                                                                               
     X                                                                                                                               
     X                                                                                                                               
     X                                                                                                                               
     X                                                                                                                               
 
 ***** Axes restored to original set *****
 -------------------------------------------------------------------
 Center     Atomic                   Forces (Hartrees/Bohr)
 Number     Number              X              Y              Z
 -------------------------------------------------------------------
      1        7           0.000238481    0.000049219   -0.000079842
      2        6          -0.000164236    0.000152990    0.000009363
      3        6          -0.000069433   -0.000204767    0.000054673
      4        6          -0.000004811    0.000002558    0.000015807
 -------------------------------------------------------------------
 Cartesian Forces:  Max     0.000238481 RMS     0.000117671
 Z-matrix is all fixed cartesians, so copy forces.
 Force constants in Cartesian coordinates: 
                1             2             3             4             5 
      1  0.493325D+00
      2  0.152890D+00 -0.703110D-02
      3 -0.101920D+00 -0.193902D-01  0.447048D-01
      4 -0.132414D+00  0.264266D-01  0.160187D-01  0.427050D-01
      5 -0.920051D-01  0.308794D-01  0.870316D-02 -0.207960D-01  0.123839D+00
      6  0.360999D-01 -0.106706D-01 -0.106559D-01 -0.314249D-02 -0.173627D-01
      7 -0.115597D+00 -0.117429D+00  0.377448D-01  0.116553D+00  0.160456D+00
      8  0.987783D-03  0.154333D-01 -0.395880D-02  0.663666D-02 -0.145247D+00
      9  0.175685D-01  0.153854D-01 -0.120530D-01 -0.198244D-01 -0.118294D-02
     10 -0.245313D+00 -0.618876D-01  0.481560D-01 -0.268440D-01 -0.476552D-01
     11 -0.618727D-01 -0.392816D-01  0.146458D-01 -0.122672D-01 -0.947147D-02
     12  0.482511D-01  0.146754D-01 -0.219959D-01  0.694819D-02  0.984245D-02
                6             7             8             9            10 
      6  0.512955D-02
      7 -0.459516D-01  0.495461D-01
      8  0.239023D-01 -0.310560D-01  0.117587D+00
      9  0.525119D-02 -0.251788D-02 -0.146131D-01  0.456594D-02
     10  0.129942D-01 -0.505021D-01  0.234315D-01  0.477374D-02  0.322659D+00
     11  0.413098D-02 -0.119713D-01  0.122264D-01  0.410604D-03  0.861113D-01
     12  0.275194D-03  0.107247D-01 -0.533041D-02  0.223587D-02 -0.659239D-01
               11            12 
     11  0.365267D-01
     12 -0.191874D-01  0.194848D-01
 Leave Link  716 at Fri Aug  5 07:10:52 2016, MaxMem=    33554432 cpu:         0.1
 (Enter /home/proyectos/fulerenos/M3C-v2.0/M3C-deps_CCC/g09-AM64L-G09RevC.01/l103.exe)

 GradGradGradGradGradGradGradGradGradGradGradGradGradGradGradGradGradGrad
 Berny optimization.
 Search for a local minimum.
 Step number   1 out of a maximum of    2
 All quantities printed in internal units (Hartrees-Bohrs-Radians)
 Second derivative matrix not updated -- analytic derivatives used.
 The second derivative matrix:
                          X1        Y1        Z1        X2        Y2
           X1           0.49332
           Y1           0.15289  -0.00703
           Z1          -0.10192  -0.01939   0.04470
           X2          -0.13241   0.02643   0.01602   0.04271
           Y2          -0.09201   0.03088   0.00870  -0.02080   0.12384
           Z2           0.03610  -0.01067  -0.01066  -0.00314  -0.01736
           X3          -0.11560  -0.11743   0.03774   0.11655   0.16046
           Y3           0.00099   0.01543  -0.00396   0.00664  -0.14525
           Z3           0.01757   0.01539  -0.01205  -0.01982  -0.00118
           X4          -0.24531  -0.06189   0.04816  -0.02684  -0.04766
           Y4          -0.06187  -0.03928   0.01465  -0.01227  -0.00947
           Z4           0.04825   0.01468  -0.02200   0.00695   0.00984
                          Z2        X3        Y3        Z3        X4
           Z2           0.00513
           X3          -0.04595   0.04955
           Y3           0.02390  -0.03106   0.11759
           Z3           0.00525  -0.00252  -0.01461   0.00457
           X4           0.01299  -0.05050   0.02343   0.00477   0.32266
           Y4           0.00413  -0.01197   0.01223   0.00041   0.08611
           Z4           0.00028   0.01072  -0.00533   0.00224  -0.06592
                          Y4        Z4
           Y4           0.03653
           Z4          -0.01919   0.01948
 ITU=  0
     Eigenvalues ---   -0.23281   0.03385   0.04590   0.19888   0.42402
     Eigenvalues ---    0.78250
 Eigenvalue     1 is  -2.33D-01 should be greater than     0.000000 Eigenvector:
                          X3        Y1        Y2        X2        Y3
   1                    0.56899   0.51345  -0.42664  -0.39117  -0.15976
                          X1        Z2        Z3        Z1        Y4
   1                   -0.15573   0.13620  -0.06560  -0.06181   0.03181
 Angle between quadratic step and forces=  36.62 degrees.
 Linear search not attempted -- first point.
 B after Tr=     0.000005   -0.000004   -0.000022
         Rot=    1.000000   -0.000000    0.000001   -0.000000 Ang=  -0.00 deg.
 Variable       Old X    -DE/DX   Delta X   Delta X   Delta X     New X
                                 (Linear)    (Quad)   (Total)
    X1        0.62969   0.00024   0.00000   0.00042   0.00043   0.63012
    Y1       -0.15918   0.00005   0.00000  -0.00011  -0.00011  -0.15930
    Z1       -1.51365  -0.00008   0.00000  -0.00099  -0.00102  -1.51467
    X2        2.36544  -0.00016   0.00000  -0.00075  -0.00074   2.36471
    Y2        1.84026   0.00015   0.00000   0.00080   0.00080   1.84106
    Z2       -2.13624   0.00001   0.00000   0.00025   0.00024  -2.13600
    X3        3.21405  -0.00007   0.00000  -0.00021  -0.00020   3.21385
    Y3       -0.95735  -0.00020   0.00000  -0.00094  -0.00094  -0.95829
    Z3       -1.79943   0.00005   0.00000   0.00046   0.00045  -1.79898
    X4       -1.77248  -0.00000   0.00000   0.00051   0.00051  -1.77197
    Y4       -0.82760   0.00000   0.00000   0.00026   0.00026  -0.82735
    Z4       -1.01126   0.00002   0.00000   0.00036   0.00033  -1.01093
         Item               Value     Threshold  Converged?
 Maximum Force            0.000238     0.000450     YES
 RMS     Force            0.000118     0.000300     YES
 Maximum Displacement     0.001016     0.001800     YES
 RMS     Displacement     0.000579     0.001200     YES
 Predicted change in Energy=-3.296021D-07
 Optimization completed.
    -- Stationary point found.
 GradGradGradGradGradGradGradGradGradGradGradGradGradGradGradGradGradGrad

 Leave Link  103 at Fri Aug  5 07:10:52 2016, MaxMem=    33554432 cpu:         0.1
 (Enter /home/proyectos/fulerenos/M3C-v2.0/M3C-deps_CCC/g09-AM64L-G09RevC.01/l9999.exe)
 1\1\GINC-DEPAZ14\Freq\UB3LYP\6-311++G(3df,2p)\C3N1(2+,2)\NAGUIRRE\05-A
 ug-2016\0\\#p b3lyp/6-311++G(3df,2p) freq symmetry=Loose\\b3lyp opt\\2
 ,2\N,0.333219,-0.084236,-0.800991\C,1.251739,0.973826,-1.130448\C,1.70
 0801,-0.506606,-0.952216\C,-0.937958,-0.437949,-0.535136\\Version=EM64
 L-G09RevE.01\State=2-A\HF=-167.6846833\S2=0.771626\S2-1=0.\S2A=0.75013
 3\RMSD=5.934e-09\RMSF=1.177e-04\ZeroPoint=0.0078313\Thermal=0.0117354\
 Dipole=-0.0234316,-0.0066305,0.0048948\DipoleDeriv=-2.2587096,-1.04913
 72,0.631516,-1.0490215,1.1388454,0.0674193,0.6299101,0.0670133,0.41769
 47,1.2330053,-0.3858455,-0.056299,0.4231964,-0.0629171,0.0241321,-0.19
 3508,0.1560153,0.4899451,0.8645042,0.979847,-0.22815,0.1705522,0.27432
 46,0.0079782,-0.0905206,-0.1238542,0.5207697,2.1612002,0.4551357,-0.34
 70669,0.4552729,0.6497471,-0.0995295,-0.3458814,-0.0991744,0.5715905\P
 olar=44.588731,0.0801898,42.2980768,-4.0292048,-3.8190882,21.166761\PG
 =C01 [X(C3N1)]\NImag=1\\0.49332477,0.15289005,-0.00703110,-0.10191951,
 -0.01939019,0.04470480,-0.13241443,0.02642658,0.01601866,0.04270502,-0
 .09200512,0.03087937,0.00870316,-0.02079604,0.12383891,0.03609993,-0.0
 1067061,-0.01065593,-0.00314249,-0.01736268,0.00512955,-0.11559740,-0.
 11742902,0.03774484,0.11655345,0.16045632,-0.04595162,0.04954607,0.000
 98778,0.01543335,-0.00395880,0.00663666,-0.14524681,0.02390231,-0.0310
 5596,0.11758705,0.01756851,0.01538543,-0.01205299,-0.01982436,-0.00118
 294,0.00525119,-0.00251788,-0.01461310,0.00456594,-0.24531294,-0.06188
 761,0.04815601,-0.02684404,-0.04765516,0.01299418,-0.05050211,0.023431
 51,0.00477374,0.32265908,-0.06187271,-0.03928162,0.01464582,-0.0122671
 9,-0.00947147,0.00413098,-0.01197135,0.01222641,0.00041060,0.08611125,
 0.03652668,0.04825107,0.01467536,-0.02199588,0.00694819,0.00984245,0.0
 0027519,0.01072466,-0.00533041,0.00223587,-0.06592393,-0.01918741,0.01
 948482\\-0.00023848,-0.00004922,0.00007984,0.00016424,-0.00015299,-0.0
 0000936,0.00006943,0.00020477,-0.00005467,0.00000481,-0.00000256,-0.00
 001581\\\@


 IT'S WHAT A FELLER THINKS HE KNOWS THAT HURTS HIM...
                    ------
           KIN HUBBARD
 Job cpu time:       0 days  0 hours 13 minutes 53.2 seconds.
 File lengths (MBytes):  RWF=     25 Int=      0 D2E=      0 Chk=      3 Scr=      1
 Normal termination of Gaussian 09 at Fri Aug  5 07:10:52 2016.
