 Entering Gaussian System, Link 0=/home/proyectos/fulerenos/M3C-v2.0/M3C-deps_CCC/g09-AM64L-G09RevC.01/g09
 Initial command:
 /home/proyectos/fulerenos/M3C-v2.0/M3C-deps_CCC/g09-AM64L-G09RevC.01/l1.exe "/scratch/naguirre/gaussian/Gau-15081.inp" -scrdir="/scratch/naguirre/gaussian/"
 Entering Link 1 = /home/proyectos/fulerenos/M3C-v2.0/M3C-deps_CCC/g09-AM64L-G09RevC.01/l1.exe PID=     15089.
  
 Copyright (c) 1988,1990,1992,1993,1995,1998,2003,2009,2015,
            Gaussian, Inc.  All Rights Reserved.
  
 This is part of the Gaussian(R) 09 program.  It is based on
 the Gaussian(R) 03 system (copyright 2003, Gaussian, Inc.),
 the Gaussian(R) 98 system (copyright 1998, Gaussian, Inc.),
 the Gaussian(R) 94 system (copyright 1995, Gaussian, Inc.),
 the Gaussian 92(TM) system (copyright 1992, Gaussian, Inc.),
 the Gaussian 90(TM) system (copyright 1990, Gaussian, Inc.),
 the Gaussian 88(TM) system (copyright 1988, Gaussian, Inc.),
 the Gaussian 86(TM) system (copyright 1986, Carnegie Mellon
 University), and the Gaussian 82(TM) system (copyright 1983,
 Carnegie Mellon University). Gaussian is a federally registered
 trademark of Gaussian, Inc.
  
 This software contains proprietary and confidential information,
 including trade secrets, belonging to Gaussian, Inc.
  
 This software is provided under written license and may be
 used, copied, transmitted, or stored only in accord with that
 written license.
  
 The following legend is applicable only to US Government
 contracts under FAR:
  
                    RESTRICTED RIGHTS LEGEND
  
 Use, reproduction and disclosure by the US Government is
 subject to restrictions as set forth in subparagraphs (a)
 and (c) of the Commercial Computer Software - Restricted
 Rights clause in FAR 52.227-19.
  
 Gaussian, Inc.
 340 Quinnipiac St., Bldg. 40, Wallingford CT 06492
  
  
 ---------------------------------------------------------------
 Warning -- This program may not be used in any manner that
 competes with the business of Gaussian, Inc. or will provide
 assistance to any competitor of Gaussian, Inc.  The licensee
 of this program is prohibited from giving any competitor of
 Gaussian, Inc. access to this program.  By using this program,
 the user acknowledges that Gaussian, Inc. is engaged in the
 business of creating and licensing software in the field of
 computational chemistry and represents and warrants to the
 licensee that it is not a competitor of Gaussian, Inc. and that
 it will not use this program in any manner prohibited above.
 ---------------------------------------------------------------
  

 Cite this work as:
 Gaussian 09, Revision E.01,
 M. J. Frisch, G. W. Trucks, H. B. Schlegel, G. E. Scuseria, 
 M. A. Robb, J. R. Cheeseman, G. Scalmani, V. Barone, B. Mennucci, 
 G. A. Petersson, H. Nakatsuji, M. Caricato, X. Li, H. P. Hratchian, 
 A. F. Izmaylov, J. Bloino, G. Zheng, J. L. Sonnenberg, M. Hada, 
 M. Ehara, K. Toyota, R. Fukuda, J. Hasegawa, M. Ishida, T. Nakajima, 
 Y. Honda, O. Kitao, H. Nakai, T. Vreven, J. A. Montgomery, Jr., 
 J. E. Peralta, F. Ogliaro, M. Bearpark, J. J. Heyd, E. Brothers, 
 K. N. Kudin, V. N. Staroverov, T. Keith, R. Kobayashi, J. Normand, 
 K. Raghavachari, A. Rendell, J. C. Burant, S. S. Iyengar, J. Tomasi, 
 M. Cossi, N. Rega, J. M. Millam, M. Klene, J. E. Knox, J. B. Cross, 
 V. Bakken, C. Adamo, J. Jaramillo, R. Gomperts, R. E. Stratmann, 
 O. Yazyev, A. J. Austin, R. Cammi, C. Pomelli, J. W. Ochterski, 
 R. L. Martin, K. Morokuma, V. G. Zakrzewski, G. A. Voth, 
 P. Salvador, J. J. Dannenberg, S. Dapprich, A. D. Daniels, 
 O. Farkas, J. B. Foresman, J. V. Ortiz, J. Cioslowski, 
 and D. J. Fox, Gaussian, Inc., Wallingford CT, 2013.
 
 ******************************************
 Gaussian 09:  EM64L-G09RevE.01 30-Nov-2015
                 5-Aug-2016 
 ******************************************
 %NProcShared=4
 Will use up to    4 processors via shared memory.
 ---------------------------------------------
 #p b3lyp/6-311++G(3df,2p) freq symmetry=Loose
 ---------------------------------------------
 1/10=4,30=1,38=1/1,3;
 2/12=2,17=4,18=3,40=1/2;
 3/5=4,6=6,7=1216,11=2,16=1,25=1,30=1,71=2,74=-5,140=1/1,2,3;
 4//1;
 5/5=2,38=5,98=1/2;
 8/6=4,10=90,11=11/1;
 11/6=1,8=1,9=11,15=111,16=1/1,2,10;
 10/6=1/2;
 6/7=2,8=2,9=2,10=2,18=1,28=1/1;
 7/8=1,10=1,25=1/1,2,3,16;
 1/10=4,30=1/3;
 99//99;
 Leave Link    1 at Fri Aug  5 08:27:46 2016, MaxMem=           0 cpu:         0.3
 (Enter /home/proyectos/fulerenos/M3C-v2.0/M3C-deps_CCC/g09-AM64L-G09RevC.01/l101.exe)
 ---------
 b3lyp opt
 ---------
 Symbolic Z-matrix:
 Charge =  1 Multiplicity = 1
 N                    -0.27603   0.00998  -0.31233 
 C                    -1.97441   0.0646   -2.22708 
 C                     1.67846   0.50055   1.32102 
 C                     1.09278  -0.5934    1.80704 
 C                    -1.0768    0.03583  -1.21522 
 C                     0.55602  -0.01758   0.62656 
 
 NAtoms=      6 NQM=        6 NQMF=       0 NMMI=      0 NMMIF=      0
                NMic=       0 NMicF=      0.
                    Isotopes and Nuclear Properties:
 (Nuclear quadrupole moments (NQMom) in fm**2, nuclear magnetic moments (NMagM)
  in nuclear magnetons)

  Atom         1           2           3           4           5           6
 IAtWgt=          14          12          12          12          12          12
 AtmWgt=  14.0030740  12.0000000  12.0000000  12.0000000  12.0000000  12.0000000
 NucSpn=           2           0           0           0           0           0
 AtZEff=   0.0000000   0.0000000   0.0000000   0.0000000   0.0000000   0.0000000
 NQMom=    2.0440000   0.0000000   0.0000000   0.0000000   0.0000000   0.0000000
 NMagM=    0.4037610   0.0000000   0.0000000   0.0000000   0.0000000   0.0000000
 AtZNuc=   7.0000000   6.0000000   6.0000000   6.0000000   6.0000000   6.0000000
 Leave Link  101 at Fri Aug  5 08:27:47 2016, MaxMem=    33554432 cpu:         0.2
 (Enter /home/proyectos/fulerenos/M3C-v2.0/M3C-deps_CCC/g09-AM64L-G09RevC.01/l103.exe)

 GradGradGradGradGradGradGradGradGradGradGradGradGradGradGradGradGradGrad
 Berny optimization.
 Initialization pass.
 Trust Radius=3.00D-01 FncErr=1.00D-07 GrdErr=1.00D-07
 Number of steps in this run=      2 maximum allowed number of steps=      2.
 GradGradGradGradGradGradGradGradGradGradGradGradGradGradGradGradGradGrad

 Leave Link  103 at Fri Aug  5 08:27:47 2016, MaxMem=    33554432 cpu:         0.1
 (Enter /home/proyectos/fulerenos/M3C-v2.0/M3C-deps_CCC/g09-AM64L-G09RevC.01/l202.exe)
                          Input orientation:                          
 ---------------------------------------------------------------------
 Center     Atomic      Atomic             Coordinates (Angstroms)
 Number     Number       Type             X           Y           Z
 ---------------------------------------------------------------------
      1          7           0       -0.276027    0.009982   -0.312327
      2          6           0       -1.974406    0.064602   -2.227084
      3          6           0        1.678458    0.500549    1.321017
      4          6           0        1.092779   -0.593404    1.807035
      5          6           0       -1.076800    0.035833   -1.215220
      6          6           0        0.556020   -0.017583    0.626560
 ---------------------------------------------------------------------
                    Distance matrix (angstroms):
                    1          2          3          4          5
     1  N    0.000000
     2  C    2.560033   0.000000
     3  C    2.593931   5.111016   0.000000
     4  C    2.594109   5.110256   1.332654   0.000000
     5  C    1.207113   1.352920   3.773580   3.773200   0.000000
     6  C    1.254819   3.814852   1.417956   1.418873   2.461932
                    6
     6  C    0.000000
 Stoichiometry    C5N(1+)
 Framework group  CS[SG(C5N)]
 Deg. of freedom     9
 Full point group                 CS      NOp   2
 Largest Abelian subgroup         CS      NOp   2
 Largest concise Abelian subgroup C1      NOp   1
                         Standard orientation:                         
 ---------------------------------------------------------------------
 Center     Atomic      Atomic             Coordinates (Angstroms)
 Number     Number       Type             X           Y           Z
 ---------------------------------------------------------------------
      1          7           0        0.000933    0.405670    0.000000
      2          6           0       -0.001293    2.965702    0.000000
      3          6           0        0.665901   -2.101579   -0.000000
      4          6           0       -0.666753   -2.101040   -0.000000
      5          6           0       -0.000000    1.612783    0.000000
      6          6           0        0.001057   -0.849149   -0.000000
 ---------------------------------------------------------------------
 Rotational constants (GHZ):     47.4274083      1.9921389      1.9118343
 Leave Link  202 at Fri Aug  5 08:27:47 2016, MaxMem=    33554432 cpu:         0.0
 (Enter /home/proyectos/fulerenos/M3C-v2.0/M3C-deps_CCC/g09-AM64L-G09RevC.01/l301.exe)
 Standard basis: 6-311++G(3df,2p) (5D, 7F)
 Ernie: Thresh=  0.10000D-02 Tol=  0.10000D-05 Strict=F.
 There are   186 symmetry adapted cartesian basis functions of A'  symmetry.
 There are    84 symmetry adapted cartesian basis functions of A"  symmetry.
 There are   156 symmetry adapted basis functions of A'  symmetry.
 There are    78 symmetry adapted basis functions of A"  symmetry.
   234 basis functions,   348 primitive gaussians,   270 cartesian basis functions
    18 alpha electrons       18 beta electrons
       nuclear repulsion energy       147.4633972258 Hartrees.
 IExCor=  402 DFT=T Ex+Corr=B3LYP ExCW=0 ScaHFX=  0.200000
 ScaDFX=  0.800000  0.720000  1.000000  0.810000 ScalE2=  1.000000  1.000000
 IRadAn=      0 IRanWt=     -1 IRanGd=            0 ICorTp=0 IEmpDi=  4
 NAtoms=    6 NActive=    6 NUniq=    6 SFac= 1.00D+00 NAtFMM=   60 NAOKFM=F Big=F
 Integral buffers will be    131072 words long.
 Raffenetti 2 integral format.
 Two-electron integral symmetry is turned on.
 Leave Link  301 at Fri Aug  5 08:27:47 2016, MaxMem=    33554432 cpu:         0.2
 (Enter /home/proyectos/fulerenos/M3C-v2.0/M3C-deps_CCC/g09-AM64L-G09RevC.01/l302.exe)
 NPDir=0 NMtPBC=     1 NCelOv=     1 NCel=       1 NClECP=     1 NCelD=      1
         NCelK=      1 NCelE2=     1 NClLst=     1 CellRange=     0.0.
 One-electron integrals computed using PRISM.
 NBasis=   234 RedAO= T EigKep=  9.11D-06  NBF=   156    78
 NBsUse=   234 1.00D-06 EigRej= -1.00D+00 NBFU=   156    78
 Precomputing XC quadrature grid using
 IXCGrd= 4 IRadAn=           0 IRanWt=          -1 IRanGd=           0 AccXCQ= 0.00D+00.
 Generated NRdTot=       0 NPtTot=           0 NUsed=           0 NTot=          32
 NSgBfM=   270   270   270   270   270 MxSgAt=     6 MxSgA2=     6.
 Leave Link  302 at Fri Aug  5 08:27:47 2016, MaxMem=    33554432 cpu:         1.0
 (Enter /home/proyectos/fulerenos/M3C-v2.0/M3C-deps_CCC/g09-AM64L-G09RevC.01/l303.exe)
 DipDrv:  MaxL=1.
 Leave Link  303 at Fri Aug  5 08:27:47 2016, MaxMem=    33554432 cpu:         0.1
 (Enter /home/proyectos/fulerenos/M3C-v2.0/M3C-deps_CCC/g09-AM64L-G09RevC.01/l401.exe)
 ExpMin= 4.38D-02 ExpMax= 6.29D+03 ExpMxC= 9.49D+02 IAcc=2 IRadAn=         4 AccDes= 0.00D+00
 Harris functional with IExCor=  402 and IRadAn=       4 diagonalized for initial guess.
 HarFok:  IExCor=  402 AccDes= 0.00D+00 IRadAn=         4 IDoV= 1 UseB2=F ITyADJ=14
 ICtDFT=  3500011 ScaDFX=  1.000000  1.000000  1.000000  1.000000
 FoFCou: FMM=F IPFlag=           0 FMFlag=      100000 FMFlg1=           0
         NFxFlg=           0 DoJE=T BraDBF=F KetDBF=T FulRan=T
         wScrn=  0.000000 ICntrl=     500 IOpCl=  0 I1Cent=   200000004 NGrid=           0
         NMat0=    1 NMatS0=      1 NMatT0=    0 NMatD0=    1 NMtDS0=    0 NMtDT0=    0
 Petite list used in FoFCou.
 Harris En= -244.674382328301    
 JPrj=0 DoOrth=F DoCkMO=F.
 Initial guess orbital symmetries:
       Occupied  (A') (A') (A') (A') (A') (A') (A') (A') (A') (A')
                 (A') (A') (A") (A') (A") (A') (A') (A')
       Virtual   (A") (A') (A") (A") (A') (A') (A") (A') (A') (A")
                 (A') (A') (A') (A") (A') (A') (A') (A") (A") (A')
                 (A') (A') (A') (A") (A') (A') (A') (A') (A') (A")
                 (A') (A') (A") (A') (A') (A') (A") (A') (A') (A")
                 (A") (A') (A') (A') (A') (A') (A") (A") (A') (A')
                 (A") (A") (A") (A') (A') (A') (A') (A') (A') (A")
                 (A") (A') (A") (A') (A') (A') (A') (A") (A') (A")
                 (A') (A") (A') (A') (A") (A') (A') (A') (A") (A')
                 (A') (A') (A") (A') (A') (A') (A") (A") (A') (A")
                 (A') (A") (A') (A') (A') (A") (A') (A') (A") (A')
                 (A') (A') (A') (A") (A') (A") (A") (A') (A') (A')
                 (A") (A') (A') (A') (A") (A") (A') (A") (A") (A')
                 (A') (A") (A') (A") (A') (A') (A') (A") (A") (A')
                 (A") (A') (A') (A") (A') (A") (A") (A") (A') (A')
                 (A') (A") (A') (A') (A") (A") (A') (A') (A') (A')
                 (A") (A') (A') (A") (A') (A') (A') (A") (A') (A')
                 (A") (A') (A") (A') (A') (A') (A') (A") (A') (A")
                 (A') (A") (A') (A") (A') (A') (A') (A") (A') (A')
                 (A") (A') (A") (A') (A') (A") (A") (A') (A") (A')
                 (A') (A") (A") (A') (A') (A") (A") (A') (A") (A')
                 (A') (A') (A') (A') (A') (A") (A') (A") (A') (A')
                 (A') (A') (A') (A') (A') (A')
 The electronic state of the initial guess is 1-A'.
 Leave Link  401 at Fri Aug  5 08:27:48 2016, MaxMem=    33554432 cpu:         2.3
 (Enter /home/proyectos/fulerenos/M3C-v2.0/M3C-deps_CCC/g09-AM64L-G09RevC.01/l502.exe)
 Closed shell SCF:
 Using DIIS extrapolation, IDIIS=  1040.
 Integral symmetry usage will be decided dynamically.
 IVT=      240848 IEndB=      240848 NGot=    33554432 MDV=    33403395
 LenX=    33403395 LenY=    33330054
 Requested convergence on RMS density matrix=1.00D-08 within 128 cycles.
 Requested convergence on MAX density matrix=1.00D-06.
 Requested convergence on             energy=1.00D-06.
 No special actions if energy rises.
 Fock matrices will be formed incrementally for  20 cycles.

 Cycle   1  Pass 1  IDiag  1:
 FoFJK:  IHMeth= 1 ICntrl=       0 DoSepK=F KAlg= 0 I1Cent=   0 FoldK=F
 IRaf= 960000000 NMat=   1 IRICut=       1 DoRegI=T DoRafI=F ISym2E= 1.
 FoFCou: FMM=F IPFlag=           0 FMFlag=      100000 FMFlg1=           0
         NFxFlg=           0 DoJE=F BraDBF=F KetDBF=F FulRan=T
         wScrn=  0.000000 ICntrl=       0 IOpCl=  0 I1Cent=           0 NGrid=           0
         NMat0=    1 NMatS0=      1 NMatT0=    0 NMatD0=    1 NMtDS0=    0 NMtDT0=    0
 Petite list used in FoFCou.
 E= -244.468717583075    
 DIIS: error= 4.23D-02 at cycle   1 NSaved=   1.
 NSaved= 1 IEnMin= 1 EnMin= -244.468717583075     IErMin= 1 ErrMin= 4.23D-02
 ErrMax= 4.23D-02  0.00D+00 EMaxC= 1.00D-01 BMatC= 9.12D-02 BMatP= 9.12D-02
 IDIUse=3 WtCom= 5.77D-01 WtEn= 4.23D-01
 Coeff-Com:  0.100D+01
 Coeff-En:   0.100D+01
 Coeff:      0.100D+01
 Gap=    -0.134 Goal=   None    Shift=    0.000
 GapD=   -0.134 DampG=0.250 DampE=0.500 DampFc=0.2500 IDamp=-1.
 Damping current iteration by 2.50D-01
 RMSDP=1.15D-02 MaxDP=9.18D-01              OVMax= 8.76D-01

 Cycle   2  Pass 1  IDiag  1:
 RMSU=  2.49D-03    CP:  9.32D-01
 E= -244.447623619313     Delta-E=        0.021093963763 Rises=F Damp=T
 DIIS: error= 2.57D-02 at cycle   2 NSaved=   2.
 NSaved= 2 IEnMin= 1 EnMin= -244.468717583075     IErMin= 2 ErrMin= 2.57D-02
 ErrMax= 2.57D-02  0.00D+00 EMaxC= 1.00D-01 BMatC= 3.29D-02 BMatP= 9.12D-02
 IDIUse=3 WtCom= 7.43D-01 WtEn= 2.57D-01
 Coeff-Com:  0.268D+00 0.732D+00
 Coeff-En:   0.557D+00 0.443D+00
 Coeff:      0.343D+00 0.657D+00
 Gap=     0.034 Goal=   None    Shift=    0.000
 RMSDP=3.46D-03 MaxDP=2.40D-01 DE= 2.11D-02 OVMax= 6.03D-01

 Cycle   3  Pass 1  IDiag  1:
 RMSU=  2.82D-03    CP:  1.02D+00  6.55D-01
 E= -244.509021013074     Delta-E=       -0.061397393761 Rises=F Damp=F
 DIIS: error= 4.21D-02 at cycle   3 NSaved=   3.
 NSaved= 3 IEnMin= 3 EnMin= -244.509021013074     IErMin= 2 ErrMin= 2.57D-02
 ErrMax= 4.21D-02  0.00D+00 EMaxC= 1.00D-01 BMatC= 4.29D-02 BMatP= 3.29D-02
 IDIUse=2 WtCom= 0.00D+00 WtEn= 1.00D+00
 EnCoef did     4 forward-backward iterations
 Coeff-En:   0.411D-01 0.309D+00 0.650D+00
 Coeff:      0.411D-01 0.309D+00 0.650D+00
 Gap=    -0.032 Goal=   None    Shift=    0.000
 RMSDP=7.58D-03 MaxDP=5.62D-01 DE=-6.14D-02 OVMax= 9.50D-01

 Cycle   4  Pass 1  IDiag  1:
 RMSU=  2.82D-03    CP:  8.28D-01  2.44D+00 -3.28D-01
 E= -243.168583207863     Delta-E=        1.340437805210 Rises=F Damp=F
 DIIS: error= 1.63D-01 at cycle   4 NSaved=   4.
 NSaved= 4 IEnMin= 3 EnMin= -244.509021013074     IErMin= 2 ErrMin= 2.57D-02
 ErrMax= 1.63D-01  0.00D+00 EMaxC= 1.00D-01 BMatC= 6.86D-01 BMatP= 3.29D-02
 IDIUse=2 WtCom= 0.00D+00 WtEn= 1.00D+00
 EnCoef did     5 forward-backward iterations
 Coeff-En:   0.906D-01 0.000D+00 0.782D+00 0.128D+00
 Coeff:      0.906D-01 0.000D+00 0.782D+00 0.128D+00
 Gap=     0.020 Goal=   None    Shift=    0.000
 RMSDP=5.14D-03 MaxDP=3.45D-01 DE= 1.34D+00 OVMax= 1.50D-01

 Cycle   5  Pass 1  IDiag  1:
 RMSU=  2.54D-03    CP:  9.28D-01  1.35D+00  3.79D-01  2.57D-01
 E= -244.521880536363     Delta-E=       -1.353297328499 Rises=F Damp=F
 DIIS: error= 3.00D-02 at cycle   5 NSaved=   5.
 NSaved= 5 IEnMin= 5 EnMin= -244.521880536363     IErMin= 2 ErrMin= 2.57D-02
 ErrMax= 3.00D-02  0.00D+00 EMaxC= 1.00D-01 BMatC= 4.75D-02 BMatP= 3.29D-02
 IDIUse=2 WtCom= 0.00D+00 WtEn= 1.00D+00
 Coeff-En:   0.000D+00 0.000D+00 0.466D+00 0.000D+00 0.534D+00
 Coeff:      0.000D+00 0.000D+00 0.466D+00 0.000D+00 0.534D+00
 Gap=     0.046 Goal=   None    Shift=    0.000
 RMSDP=1.29D-03 MaxDP=4.93D-02 DE=-1.35D+00 OVMax= 9.97D-02

 Cycle   6  Pass 1  IDiag  1:
 RMSU=  7.36D-04    CP:  9.31D-01  1.51D+00  6.14D-01  8.70D-02  7.81D-01
 E= -244.561895812603     Delta-E=       -0.040015276240 Rises=F Damp=F
 DIIS: error= 1.31D-02 at cycle   6 NSaved=   6.
 NSaved= 6 IEnMin= 6 EnMin= -244.561895812603     IErMin= 6 ErrMin= 1.31D-02
 ErrMax= 1.31D-02  0.00D+00 EMaxC= 1.00D-01 BMatC= 1.72D-02 BMatP= 3.29D-02
 IDIUse=3 WtCom= 8.69D-01 WtEn= 1.31D-01
 EnCoef did     4 forward-backward iterations
 Coeff-Com:  0.619D-01-0.601D-01 0.277D+00 0.284D-02 0.340D+00 0.378D+00
 Coeff-En:   0.000D+00 0.000D+00 0.251D+00 0.000D+00 0.275D+00 0.474D+00
 Coeff:      0.538D-01-0.522D-01 0.274D+00 0.247D-02 0.331D+00 0.391D+00
 Gap=     0.069 Goal=   None    Shift=    0.000
 RMSDP=1.25D-03 MaxDP=9.53D-02 DE=-4.00D-02 OVMax= 6.17D-02

 Cycle   7  Pass 1  IDiag  1:
 RMSU=  2.58D-04    CP:  9.60D-01  1.15D+00  6.27D-01  2.21D-01  7.07D-01
                    CP:  5.19D-01
 E= -244.579767911040     Delta-E=       -0.017872098437 Rises=F Damp=F
 DIIS: error= 2.05D-03 at cycle   7 NSaved=   7.
 NSaved= 7 IEnMin= 7 EnMin= -244.579767911040     IErMin= 7 ErrMin= 2.05D-03
 ErrMax= 2.05D-03  0.00D+00 EMaxC= 1.00D-01 BMatC= 3.60D-04 BMatP= 1.72D-02
 IDIUse=3 WtCom= 9.79D-01 WtEn= 2.05D-02
 Coeff-Com:  0.184D-01-0.273D-01 0.340D-01 0.176D-02 0.167D-01 0.145D+00
 Coeff-Com:  0.812D+00
 Coeff-En:   0.000D+00 0.000D+00 0.000D+00 0.000D+00 0.000D+00 0.000D+00
 Coeff-En:   0.100D+01
 Coeff:      0.180D-01-0.267D-01 0.333D-01 0.172D-02 0.164D-01 0.142D+00
 Coeff:      0.815D+00
 Gap=     0.059 Goal=   None    Shift=    0.000
 RMSDP=1.61D-04 MaxDP=6.93D-03 DE=-1.79D-02 OVMax= 8.69D-03

 Cycle   8  Pass 1  IDiag  1:
 RMSU=  8.57D-05    CP:  9.59D-01  1.16D+00  6.53D-01  1.92D-01  6.98D-01
                    CP:  5.69D-01  8.03D-01
 E= -244.580073343551     Delta-E=       -0.000305432511 Rises=F Damp=F
 DIIS: error= 7.05D-04 at cycle   8 NSaved=   8.
 NSaved= 8 IEnMin= 8 EnMin= -244.580073343551     IErMin= 8 ErrMin= 7.05D-04
 ErrMax= 7.05D-04  0.00D+00 EMaxC= 1.00D-01 BMatC= 6.45D-05 BMatP= 3.60D-04
 IDIUse=3 WtCom= 9.93D-01 WtEn= 7.05D-03
 Coeff-Com: -0.123D-02 0.988D-03 0.128D-01 0.394D-03-0.102D-01 0.329D-01
 Coeff-Com:  0.461D+00 0.504D+00
 Coeff-En:   0.000D+00 0.000D+00 0.000D+00 0.000D+00 0.000D+00 0.000D+00
 Coeff-En:   0.851D-01 0.915D+00
 Coeff:     -0.122D-02 0.981D-03 0.127D-01 0.391D-03-0.101D-01 0.327D-01
 Coeff:      0.458D+00 0.507D+00
 Gap=     0.059 Goal=   None    Shift=    0.000
 RMSDP=5.91D-05 MaxDP=2.96D-03 DE=-3.05D-04 OVMax= 2.73D-03

 Cycle   9  Pass 1  IDiag  1:
 RMSU=  4.40D-05    CP:  9.59D-01  1.15D+00  6.44D-01  1.94D-01  7.00D-01
                    CP:  5.54D-01  8.44D-01  8.89D-01
 E= -244.580122341394     Delta-E=       -0.000048997843 Rises=F Damp=F
 DIIS: error= 2.45D-04 at cycle   9 NSaved=   9.
 NSaved= 9 IEnMin= 9 EnMin= -244.580122341394     IErMin= 9 ErrMin= 2.45D-04
 ErrMax= 2.45D-04  0.00D+00 EMaxC= 1.00D-01 BMatC= 6.42D-06 BMatP= 6.45D-05
 IDIUse=3 WtCom= 9.98D-01 WtEn= 2.45D-03
 Coeff-Com: -0.741D-02 0.116D-01 0.429D-02-0.648D-03-0.839D-02-0.694D-02
 Coeff-Com:  0.155D+00 0.268D+00 0.584D+00
 Coeff-En:   0.000D+00 0.000D+00 0.000D+00 0.000D+00 0.000D+00 0.000D+00
 Coeff-En:   0.000D+00 0.438D-01 0.956D+00
 Coeff:     -0.739D-02 0.116D-01 0.428D-02-0.647D-03-0.836D-02-0.693D-02
 Coeff:      0.155D+00 0.267D+00 0.585D+00
 Gap=     0.059 Goal=   None    Shift=    0.000
 RMSDP=1.95D-05 MaxDP=1.26D-03 DE=-4.90D-05 OVMax= 1.15D-03

 Cycle  10  Pass 1  IDiag  1:
 RMSU=  1.00D-05    CP:  9.60D-01  1.15D+00  6.47D-01  1.94D-01  6.97D-01
                    CP:  5.57D-01  8.39D-01  9.18D-01  7.07D-01
 E= -244.580127422253     Delta-E=       -0.000005080859 Rises=F Damp=F
 DIIS: error= 2.43D-04 at cycle  10 NSaved=  10.
 NSaved=10 IEnMin=10 EnMin= -244.580127422253     IErMin=10 ErrMin= 2.43D-04
 ErrMax= 2.43D-04  0.00D+00 EMaxC= 1.00D-01 BMatC= 1.38D-06 BMatP= 6.42D-06
 IDIUse=3 WtCom= 9.98D-01 WtEn= 2.43D-03
 Coeff-Com: -0.352D-02 0.443D-02-0.694D-03-0.165D-03-0.303D-02-0.799D-03
 Coeff-Com:  0.476D-01 0.620D-01 0.206D+00 0.688D+00
 Coeff-En:   0.000D+00 0.000D+00 0.000D+00 0.000D+00 0.000D+00 0.000D+00
 Coeff-En:   0.000D+00 0.000D+00 0.000D+00 0.100D+01
 Coeff:     -0.351D-02 0.442D-02-0.693D-03-0.164D-03-0.302D-02-0.797D-03
 Coeff:      0.475D-01 0.619D-01 0.205D+00 0.689D+00
 Gap=     0.059 Goal=   None    Shift=    0.000
 RMSDP=1.27D-05 MaxDP=8.64D-04 DE=-5.08D-06 OVMax= 1.03D-03

 Cycle  11  Pass 1  IDiag  1:
 RMSU=  4.35D-06    CP:  9.59D-01  1.16D+00  6.45D-01  1.94D-01  7.00D-01
                    CP:  5.61D-01  8.41D-01  9.03D-01  6.84D-01  9.55D-01
 E= -244.580129596456     Delta-E=       -0.000002174204 Rises=F Damp=F
 DIIS: error= 9.41D-05 at cycle  11 NSaved=  11.
 NSaved=11 IEnMin=11 EnMin= -244.580129596456     IErMin=11 ErrMin= 9.41D-05
 ErrMax= 9.41D-05  0.00D+00 EMaxC= 1.00D-01 BMatC= 2.35D-07 BMatP= 1.38D-06
 IDIUse=1 WtCom= 1.00D+00 WtEn= 0.00D+00
 Coeff-Com: -0.935D-03 0.116D-02-0.518D-03-0.452D-04 0.245D-03 0.363D-03
 Coeff-Com: -0.528D-02-0.374D-01-0.942D-01 0.709D-01 0.107D+01
 Coeff:     -0.935D-03 0.116D-02-0.518D-03-0.452D-04 0.245D-03 0.363D-03
 Coeff:     -0.528D-02-0.374D-01-0.942D-01 0.709D-01 0.107D+01
 Gap=     0.059 Goal=   None    Shift=    0.000
 RMSDP=7.36D-06 MaxDP=6.19D-04 DE=-2.17D-06 OVMax= 5.92D-04

 Cycle  12  Pass 1  IDiag  1:
 RMSU=  1.86D-06    CP:  9.59D-01  1.16D+00  6.45D-01  1.94D-01  7.01D-01
                    CP:  5.63D-01  8.39D-01  9.12D-01  6.77D-01  1.11D+00
                    CP:  1.24D+00
 E= -244.580130015994     Delta-E=       -0.000000419537 Rises=F Damp=F
 DIIS: error= 8.51D-06 at cycle  12 NSaved=  12.
 NSaved=12 IEnMin=12 EnMin= -244.580130015994     IErMin=12 ErrMin= 8.51D-06
 ErrMax= 8.51D-06  0.00D+00 EMaxC= 1.00D-01 BMatC= 6.76D-09 BMatP= 2.35D-07
 IDIUse=1 WtCom= 1.00D+00 WtEn= 0.00D+00
 Coeff-Com: -0.244D-03 0.321D-03-0.841D-04-0.124D-04 0.427D-04-0.620D-04
 Coeff-Com: -0.212D-02-0.135D-01-0.446D-01-0.369D-01 0.353D+00 0.744D+00
 Coeff:     -0.244D-03 0.321D-03-0.841D-04-0.124D-04 0.427D-04-0.620D-04
 Coeff:     -0.212D-02-0.135D-01-0.446D-01-0.369D-01 0.353D+00 0.744D+00
 Gap=     0.059 Goal=   None    Shift=    0.000
 RMSDP=1.48D-06 MaxDP=1.09D-04 DE=-4.20D-07 OVMax= 9.01D-05

 Cycle  13  Pass 1  IDiag  1:
 RMSU=  1.26D-06    CP:  9.59D-01  1.16D+00  6.46D-01  1.94D-01  7.01D-01
                    CP:  5.64D-01  8.40D-01  9.14D-01  6.73D-01  1.13D+00
                    CP:  1.34D+00  8.57D-01
 E= -244.580130016379     Delta-E=       -0.000000000386 Rises=F Damp=F
 DIIS: error= 7.17D-06 at cycle  13 NSaved=  13.
 NSaved=13 IEnMin=13 EnMin= -244.580130016379     IErMin=13 ErrMin= 7.17D-06
 ErrMax= 7.17D-06  0.00D+00 EMaxC= 1.00D-01 BMatC= 8.35D-09 BMatP= 6.76D-09
 IDIUse=1 WtCom= 1.00D+00 WtEn= 0.00D+00
 Coeff-Com:  0.223D-04-0.128D-04 0.832D-04 0.111D-05-0.103D-03-0.200D-03
 Coeff-Com:  0.641D-03 0.820D-03-0.795D-02-0.503D-01-0.179D-01 0.639D+00
 Coeff-Com:  0.436D+00
 Coeff:      0.223D-04-0.128D-04 0.832D-04 0.111D-05-0.103D-03-0.200D-03
 Coeff:      0.641D-03 0.820D-03-0.795D-02-0.503D-01-0.179D-01 0.639D+00
 Coeff:      0.436D+00
 Gap=     0.059 Goal=   None    Shift=    0.000
 RMSDP=8.16D-07 MaxDP=4.88D-05 DE=-3.86D-10 OVMax= 5.49D-05

 Cycle  14  Pass 1  IDiag  1:
 RMSU=  2.72D-07    CP:  9.59D-01  1.16D+00  6.46D-01  1.94D-01  7.01D-01
                    CP:  5.64D-01  8.40D-01  9.15D-01  6.71D-01  1.13D+00
                    CP:  1.36D+00  1.07D+00  5.02D-01
 E= -244.580130025677     Delta-E=       -0.000000009298 Rises=F Damp=F
 DIIS: error= 2.98D-07 at cycle  14 NSaved=  14.
 NSaved=14 IEnMin=14 EnMin= -244.580130025677     IErMin=14 ErrMin= 2.98D-07
 ErrMax= 2.98D-07  0.00D+00 EMaxC= 1.00D-01 BMatC= 1.00D-11 BMatP= 6.76D-09
 IDIUse=1 WtCom= 1.00D+00 WtEn= 0.00D+00
 Coeff-Com: -0.189D-05 0.929D-06 0.107D-04-0.258D-06-0.621D-05-0.438D-05
 Coeff-Com:  0.127D-03 0.416D-03 0.523D-03-0.122D-02-0.671D-02 0.199D-01
 Coeff-Com:  0.353D-01 0.952D+00
 Coeff:     -0.189D-05 0.929D-06 0.107D-04-0.258D-06-0.621D-05-0.438D-05
 Coeff:      0.127D-03 0.416D-03 0.523D-03-0.122D-02-0.671D-02 0.199D-01
 Coeff:      0.353D-01 0.952D+00
 Gap=     0.059 Goal=   None    Shift=    0.000
 RMSDP=6.14D-08 MaxDP=3.73D-06 DE=-9.30D-09 OVMax= 3.26D-06

 Cycle  15  Pass 1  IDiag  1:
 RMSU=  2.59D-08    CP:  9.59D-01  1.16D+00  6.46D-01  1.94D-01  7.01D-01
                    CP:  5.64D-01  8.40D-01  9.15D-01  6.71D-01  1.13D+00
                    CP:  1.36D+00  1.07D+00  5.18D-01  9.88D-01
 E= -244.580130025691     Delta-E=       -0.000000000014 Rises=F Damp=F
 DIIS: error= 4.33D-07 at cycle  15 NSaved=  15.
 NSaved=15 IEnMin=15 EnMin= -244.580130025691     IErMin=14 ErrMin= 2.98D-07
 ErrMax= 4.33D-07  0.00D+00 EMaxC= 1.00D-01 BMatC= 4.36D-12 BMatP= 1.00D-11
 IDIUse=1 WtCom= 1.00D+00 WtEn= 0.00D+00
 Coeff-Com:  0.177D-05-0.191D-05 0.434D-06 0.104D-06-0.395D-05 0.329D-05
 Coeff-Com:  0.388D-04 0.923D-04 0.320D-03 0.132D-02-0.808D-03-0.148D-01
 Coeff-Com: -0.625D-02 0.162D+00 0.858D+00
 Coeff:      0.177D-05-0.191D-05 0.434D-06 0.104D-06-0.395D-05 0.329D-05
 Coeff:      0.388D-04 0.923D-04 0.320D-03 0.132D-02-0.808D-03-0.148D-01
 Coeff:     -0.625D-02 0.162D+00 0.858D+00
 Gap=     0.059 Goal=   None    Shift=    0.000
 RMSDP=2.85D-08 MaxDP=2.04D-06 DE=-1.36D-11 OVMax= 1.72D-06

 Cycle  16  Pass 1  IDiag  1:
 RMSU=  6.31D-09    CP:  9.59D-01  1.16D+00  6.46D-01  1.94D-01  7.01D-01
                    CP:  5.64D-01  8.40D-01  9.15D-01  6.71D-01  1.13D+00
                    CP:  1.36D+00  1.07D+00  5.20D-01  1.00D+00  9.32D-01
 E= -244.580130025693     Delta-E=       -0.000000000002 Rises=F Damp=F
 DIIS: error= 7.30D-08 at cycle  16 NSaved=  16.
 NSaved=16 IEnMin=16 EnMin= -244.580130025693     IErMin=16 ErrMin= 7.30D-08
 ErrMax= 7.30D-08  0.00D+00 EMaxC= 1.00D-01 BMatC= 1.43D-13 BMatP= 4.36D-12
 IDIUse=1 WtCom= 1.00D+00 WtEn= 0.00D+00
 Coeff-Com:  0.232D-06-0.267D-06-0.110D-06 0.102D-07-0.602D-06-0.100D-05
 Coeff-Com: -0.225D-05-0.127D-04 0.117D-04 0.262D-03 0.356D-03-0.287D-02
 Coeff-Com: -0.206D-02-0.278D-02 0.107D+00 0.900D+00
 Coeff:      0.232D-06-0.267D-06-0.110D-06 0.102D-07-0.602D-06-0.100D-05
 Coeff:     -0.225D-05-0.127D-04 0.117D-04 0.262D-03 0.356D-03-0.287D-02
 Coeff:     -0.206D-02-0.278D-02 0.107D+00 0.900D+00
 Gap=     0.059 Goal=   None    Shift=    0.000
 RMSDP=4.79D-09 MaxDP=3.78D-07 DE=-1.71D-12 OVMax= 2.96D-07

 SCF Done:  E(RB3LYP) =  -244.580130026     A.U. after   16 cycles
            NFock= 16  Conv=0.48D-08     -V/T= 2.0042
 KE= 2.435658505250D+02 PE=-8.538382645316D+02 EE= 2.182288867551D+02
 Leave Link  502 at Fri Aug  5 08:29:45 2016, MaxMem=    33554432 cpu:       468.7
 (Enter /home/proyectos/fulerenos/M3C-v2.0/M3C-deps_CCC/g09-AM64L-G09RevC.01/l801.exe)
 DoSCS=F DFT=T ScalE2(SS,OS)=  1.000000  1.000000
 Range of M.O.s used for correlation:     1   234
 NBasis=   234 NAE=    18 NBE=    18 NFC=     0 NFV=     0
 NROrb=    234 NOA=    18 NOB=    18 NVA=   216 NVB=   216

 **** Warning!!: The largest alpha MO coefficient is  0.15808836D+03


 **** Warning!!: The smallest alpha delta epsilon is  0.59317664D-01

 Leave Link  801 at Fri Aug  5 08:29:45 2016, MaxMem=    33554432 cpu:         0.1
 (Enter /home/proyectos/fulerenos/M3C-v2.0/M3C-deps_CCC/g09-AM64L-G09RevC.01/l1101.exe)
 Using compressed storage, NAtomX=     6.
 Will process      7 centers per pass.
 Leave Link 1101 at Fri Aug  5 08:29:45 2016, MaxMem=    33554432 cpu:         1.1
 (Enter /home/proyectos/fulerenos/M3C-v2.0/M3C-deps_CCC/g09-AM64L-G09RevC.01/l1102.exe)
 Symmetrizing basis deriv contribution to polar:
 IMax=3 JMax=2 DiffMx= 0.00D+00
 Leave Link 1102 at Fri Aug  5 08:29:45 2016, MaxMem=    33554432 cpu:         0.1
 (Enter /home/proyectos/fulerenos/M3C-v2.0/M3C-deps_CCC/g09-AM64L-G09RevC.01/l1110.exe)
 Forming Gx(P) for the SCF density, NAtomX=     6.
 Integral derivatives from FoFJK, PRISM(SPDF).
 Do as many integral derivatives as possible in FoFJK.
 G2DrvN: MDV=      33554280.
 G2DrvN: will do     7 centers at a time, making    1 passes.
 Calling FoFCou, ICntrl=  3107 FMM=F I1Cent=   0 AccDes= 0.00D+00.
 FoFJK:  IHMeth= 1 ICntrl=    3107 DoSepK=F KAlg= 0 I1Cent=   0 FoldK=F
 IRaf=         0 NMat=   1 IRICut=       1 DoRegI=T DoRafI=F ISym2E= 1.
 FoFCou: FMM=F IPFlag=           0 FMFlag=      100000 FMFlg1=           0
         NFxFlg=           0 DoJE=F BraDBF=F KetDBF=F FulRan=T
         wScrn=  0.000000 ICntrl=    3107 IOpCl=  0 I1Cent=           0 NGrid=           0
         NMat0=    1 NMatS0=      1 NMatT0=    0 NMatD0=    1 NMtDS0=    0 NMtDT0=    0
 Petite list used in FoFCou.
 End of G2Drv F.D. properties file   721 does not exist.
 End of G2Drv F.D. properties file   722 does not exist.
 End of G2Drv F.D. properties file   788 does not exist.
 Leave Link 1110 at Fri Aug  5 08:30:42 2016, MaxMem=    33554432 cpu:       220.5
 (Enter /home/proyectos/fulerenos/M3C-v2.0/M3C-deps_CCC/g09-AM64L-G09RevC.01/l1002.exe)
 Minotr:  Closed shell wavefunction.
          IDoAtm=111111
          Direct CPHF calculation.
          Differentiating once with respect to electric field.
                with respect to dipole field.
          Differentiating once with respect to nuclear coordinates.
          Using symmetry in CPHF.
          Requested convergence is 1.0D-08 RMS, and 1.0D-07 maximum.
          Secondary convergence is 1.0D-12 RMS, and 1.0D-12 maximum.
          NewPWx=T KeepS1=F KeepF1=F KeepIn=T MapXYZ=F SortEE=F KeepMc=T.
          MDV=      33554134 using IRadAn=       2.
 Generate precomputed XC quadrature information.
          Solving linear equations simultaneously, MaxMat=       0.
 FoFJK:  IHMeth= 1 ICntrl=       0 DoSepK=F KAlg= 0 I1Cent=   0 FoldK=F
 IRaf= 960000000 NMat=  21 IRICut=      52 DoRegI=T DoRafI=T ISym2E= 2.
 FoFCou: FMM=F IPFlag=           0 FMFlag=      100000 FMFlg1=           0
         NFxFlg=           0 DoJE=F BraDBF=F KetDBF=F FulRan=T
         wScrn=  0.000000 ICntrl=       0 IOpCl=  0 I1Cent=           0 NGrid=           0
         NMat0=   21 NMatS0=     21 NMatT0=    0 NMatD0=   21 NMtDS0=    0 NMtDT0=    0
 Integrals replicated using symmetry in FoFCou.
          There are    21 degrees of freedom in the 1st order CPHF.  IDoFFX=6 NUNeed=     3.
     18 vectors produced by pass  0 Test12= 1.85D-14 4.76D-09 XBig12= 9.02D+02 2.63D+01.
 AX will form    18 AO Fock derivatives at one time.
     18 vectors produced by pass  1 Test12= 1.85D-14 4.76D-09 XBig12= 2.53D+02 4.83D+00.
     18 vectors produced by pass  2 Test12= 1.85D-14 4.76D-09 XBig12= 2.99D+00 3.37D-01.
     18 vectors produced by pass  3 Test12= 1.85D-14 4.76D-09 XBig12= 4.57D-02 6.36D-02.
     18 vectors produced by pass  4 Test12= 1.85D-14 4.76D-09 XBig12= 4.43D-04 5.47D-03.
     18 vectors produced by pass  5 Test12= 1.85D-14 4.76D-09 XBig12= 2.26D-06 2.89D-04.
     13 vectors produced by pass  6 Test12= 1.85D-14 4.76D-09 XBig12= 6.93D-09 1.48D-05.
      7 vectors produced by pass  7 Test12= 1.85D-14 4.76D-09 XBig12= 9.83D-12 5.10D-07.
      5 vectors produced by pass  8 Test12= 1.85D-14 4.76D-09 XBig12= 8.13D-14 1.00D-07.
      2 vectors produced by pass  9 Test12= 1.85D-14 4.76D-09 XBig12= 1.22D-15 8.27D-09.
 InvSVY:  IOpt=1 It=  1 EMax= 3.55D-15
 Solved reduced A of dimension   135 with    21 vectors.
 FullF1:  Do perturbations    1 to     3.
 Isotropic polarizability for W=    0.000000       75.45 Bohr**3.
 End of Minotr F.D. properties file   721 does not exist.
 End of Minotr F.D. properties file   722 does not exist.
 End of Minotr F.D. properties file   788 does not exist.
 Leave Link 1002 at Fri Aug  5 08:33:40 2016, MaxMem=    33554432 cpu:       709.0
 (Enter /home/proyectos/fulerenos/M3C-v2.0/M3C-deps_CCC/g09-AM64L-G09RevC.01/l601.exe)
 Copying SCF densities to generalized density rwf, IOpCl= 0 IROHF=0.

 **********************************************************************

            Population analysis using the SCF density.

 **********************************************************************

 Orbital symmetries:
       Occupied  (A') (A') (A') (A') (A') (A') (A') (A') (A') (A')
                 (A') (A") (A') (A') (A") (A') (A') (A')
       Virtual   (A") (A') (A") (A") (A') (A') (A") (A') (A") (A')
                 (A') (A') (A") (A') (A') (A') (A') (A") (A") (A')
                 (A') (A') (A') (A") (A') (A') (A') (A") (A") (A')
                 (A') (A') (A') (A') (A') (A") (A') (A') (A') (A")
                 (A') (A") (A') (A") (A') (A') (A') (A") (A") (A')
                 (A') (A") (A") (A') (A') (A') (A') (A') (A") (A")
                 (A') (A") (A') (A') (A') (A") (A') (A') (A') (A")
                 (A") (A') (A') (A") (A') (A') (A') (A') (A") (A')
                 (A') (A") (A') (A') (A') (A') (A") (A') (A") (A")
                 (A') (A") (A') (A') (A') (A') (A") (A') (A") (A')
                 (A') (A') (A") (A') (A") (A') (A") (A') (A') (A')
                 (A") (A') (A') (A') (A") (A") (A') (A") (A') (A")
                 (A') (A") (A') (A") (A') (A') (A') (A") (A") (A')
                 (A") (A') (A") (A') (A') (A") (A") (A") (A') (A')
                 (A') (A") (A') (A') (A") (A") (A') (A') (A') (A")
                 (A') (A') (A") (A') (A') (A') (A") (A') (A') (A")
                 (A') (A") (A') (A') (A') (A') (A') (A") (A") (A')
                 (A') (A") (A') (A") (A') (A') (A') (A") (A') (A')
                 (A") (A') (A") (A') (A') (A") (A') (A") (A") (A')
                 (A') (A") (A") (A') (A') (A") (A") (A") (A') (A')
                 (A') (A') (A') (A') (A') (A") (A') (A") (A') (A')
                 (A') (A') (A') (A') (A') (A')
 The electronic state is 1-A'.
 Alpha  occ. eigenvalues --  -14.71111 -10.59324 -10.54783 -10.54229 -10.50128
 Alpha  occ. eigenvalues --  -10.50038  -1.30834  -1.20804  -1.08168  -0.99509
 Alpha  occ. eigenvalues --   -0.78701  -0.75348  -0.71982  -0.67928  -0.62860
 Alpha  occ. eigenvalues --   -0.57004  -0.53101  -0.52071
 Alpha virt. eigenvalues --   -0.46139  -0.39839  -0.30003  -0.24459  -0.20972
 Alpha virt. eigenvalues --   -0.17677  -0.15756  -0.11411  -0.11407  -0.11132
 Alpha virt. eigenvalues --   -0.10597  -0.07075  -0.06440  -0.06036  -0.05176
 Alpha virt. eigenvalues --   -0.04322  -0.02895  -0.02674  -0.01700  -0.01340
 Alpha virt. eigenvalues --   -0.01001  -0.00321   0.01854   0.02956   0.03957
 Alpha virt. eigenvalues --    0.04655   0.05024   0.05653   0.06976   0.07817
 Alpha virt. eigenvalues --    0.08253   0.09360   0.09426   0.10671   0.12146
 Alpha virt. eigenvalues --    0.15620   0.17790   0.18167   0.22002   0.23075
 Alpha virt. eigenvalues --    0.25494   0.26258   0.28067   0.28172   0.29272
 Alpha virt. eigenvalues --    0.29841   0.30322   0.31974   0.33284   0.33757
 Alpha virt. eigenvalues --    0.34567   0.35224   0.35810   0.37814   0.39352
 Alpha virt. eigenvalues --    0.39434   0.41525   0.43507   0.44992   0.45356
 Alpha virt. eigenvalues --    0.46440   0.46621   0.49715   0.50107   0.52299
 Alpha virt. eigenvalues --    0.56303   0.56571   0.57406   0.59402   0.61082
 Alpha virt. eigenvalues --    0.66113   0.67355   0.68872   0.68913   0.72763
 Alpha virt. eigenvalues --    0.73138   0.74822   0.82989   0.94348   0.97490
 Alpha virt. eigenvalues --    1.00470   1.08349   1.08521   1.12458   1.13642
 Alpha virt. eigenvalues --    1.15211   1.15737   1.17099   1.17580   1.21646
 Alpha virt. eigenvalues --    1.21769   1.22113   1.23626   1.31232   1.31393
 Alpha virt. eigenvalues --    1.35373   1.36581   1.44745   1.45344   1.46824
 Alpha virt. eigenvalues --    1.49329   1.53757   1.63932   1.65589   1.74793
 Alpha virt. eigenvalues --    1.74870   1.79803   1.81218   1.83500   1.84515
 Alpha virt. eigenvalues --    1.84581   1.90150   2.05847   2.14973   2.17800
 Alpha virt. eigenvalues --    2.18761   2.24570   2.32310   2.36355   2.37029
 Alpha virt. eigenvalues --    2.37256   2.37594   2.43837   2.46748   2.49518
 Alpha virt. eigenvalues --    2.50347   2.52027   2.54759   2.56295   2.60023
 Alpha virt. eigenvalues --    2.61796   2.63655   2.66149   2.66469   2.69272
 Alpha virt. eigenvalues --    2.73247   2.74124   2.85831   2.88140   2.93621
 Alpha virt. eigenvalues --    2.93675   2.93773   2.98257   3.00641   3.07577
 Alpha virt. eigenvalues --    3.10583   3.13225   3.18764   3.22817   3.24126
 Alpha virt. eigenvalues --    3.24671   3.32067   3.33448   3.34947   3.42768
 Alpha virt. eigenvalues --    3.46148   3.59473   3.61175   3.67088   3.80442
 Alpha virt. eigenvalues --    3.84753   3.86552   3.87092   3.92160   3.96681
 Alpha virt. eigenvalues --    4.08341   4.15668   4.21454   4.27331   4.29865
 Alpha virt. eigenvalues --    4.60210   4.67355   4.84844   5.05296   5.14516
 Alpha virt. eigenvalues --    5.32009   5.73915   5.94965   6.17987   6.44190
 Alpha virt. eigenvalues --    6.62189   6.63036   6.67671   6.72569   6.73495
 Alpha virt. eigenvalues --    6.74258   6.75363   6.78579   6.86307   6.91014
 Alpha virt. eigenvalues --    6.92601   6.93941   7.04634   7.07294   7.12646
 Alpha virt. eigenvalues --    7.25042   7.31538   7.36862   7.36909   7.40527
 Alpha virt. eigenvalues --    7.74293   7.87430   7.97858   8.56048   8.58292
 Alpha virt. eigenvalues --    9.88452   9.88854  10.63016  10.67395  11.07315
 Alpha virt. eigenvalues --   24.05058  24.59518  25.16766  25.37435  25.45043
 Alpha virt. eigenvalues --   36.74417
          Condensed to atoms (all electrons):
               1          2          3          4          5          6
     1  N    8.099982  -0.034063  -0.265232  -0.265150   0.215035   0.153396
     2  C   -0.034063   9.757752   0.015805   0.014881  -3.344008  -0.128758
     3  C   -0.265232   0.015805   8.872428  -1.973336  -0.036389  -0.716885
     4  C   -0.265150   0.014881  -1.973336   8.868401  -0.037418  -0.709622
     5  C    0.215035  -3.344008  -0.036389  -0.037418   8.078318  -0.023358
     6  C    0.153396  -0.128758  -0.716885  -0.709622  -0.023358   6.593323
 Mulliken charges:
               1
     1  N   -0.903968
     2  C   -0.281609
     3  C    0.103609
     4  C    0.102245
     5  C    1.147819
     6  C    0.831904
 Sum of Mulliken charges =   1.00000
 Mulliken charges with hydrogens summed into heavy atoms:
               1
     1  N   -0.903968
     2  C   -0.281609
     3  C    0.103609
     4  C    0.102245
     5  C    1.147819
     6  C    0.831904
 APT charges:
               1
     1  N    0.085289
     2  C    0.648525
     3  C   -0.006417
     4  C   -0.004931
     5  C   -0.368497
     6  C    0.646031
 Sum of APT charges =   1.00000
 APT charges with hydrogens summed into heavy atoms:
               1
     1  N    0.085289
     2  C    0.648525
     3  C   -0.006417
     4  C   -0.004931
     5  C   -0.368497
     6  C    0.646031
 Electronic spatial extent (au):  <R**2>=            529.5594
 Charge=              1.0000 electrons
 Dipole moment (field-independent basis, Debye):
    X=              0.0045    Y=              0.4289    Z=             -0.0000  Tot=              0.4289
 Quadrupole moment (field-independent basis, Debye-Ang):
   XX=            -32.4615   YY=            -17.0050   ZZ=            -27.9647
   XY=             -0.0060   XZ=             -0.0000   YZ=             -0.0000
 Traceless Quadrupole moment (field-independent basis, Debye-Ang):
   XX=             -6.6511   YY=              8.8054   ZZ=             -2.1543
   XY=             -0.0060   XZ=             -0.0000   YZ=             -0.0000
 Octapole moment (field-independent basis, Debye-Ang**2):
  XXX=              0.0225  YYY=            -13.8126  ZZZ=              0.0000  XYY=              0.0140
  XXY=              1.9133  XXZ=             -0.0000  XZZ=              0.0026  YZZ=              2.4002
  YYZ=             -0.0000  XYZ=              0.0000
 Hexadecapole moment (field-independent basis, Debye-Ang**3):
 XXXX=            -67.8453 YYYY=           -680.0276 ZZZZ=            -26.8527 XXXY=              0.0257
 XXXZ=             -0.0000 YYYX=              0.0531 YYYZ=             -0.0000 ZZZX=             -0.0000
 ZZZY=             -0.0000 XXYY=           -135.4574 XXZZ=            -14.8862 YYZZ=           -109.0602
 XXYZ=             -0.0000 YYXZ=             -0.0000 ZZXY=              0.0112
 N-N= 1.474633972258D+02 E-N=-8.538382631156D+02  KE= 2.435658505250D+02
 Symmetry A'   KE= 2.382299209421D+02
 Symmetry A"   KE= 5.335929582972D+00
  Exact polarizability:  42.866  -0.031 150.416  -0.000  -0.000  33.055
 Approx polarizability:  79.874  -0.232 506.713   0.000   0.000  51.065
 No NMR shielding tensors so no spin-rotation constants.
 Leave Link  601 at Fri Aug  5 08:33:40 2016, MaxMem=    33554432 cpu:         1.4
 (Enter /home/proyectos/fulerenos/M3C-v2.0/M3C-deps_CCC/g09-AM64L-G09RevC.01/l701.exe)
 Compute integral second derivatives.
 ... and contract with generalized density number  0.
 Leave Link  701 at Fri Aug  5 08:33:41 2016, MaxMem=    33554432 cpu:         1.5
 (Enter /home/proyectos/fulerenos/M3C-v2.0/M3C-deps_CCC/g09-AM64L-G09RevC.01/l702.exe)
 L702 exits ... SP integral derivatives will be done elsewhere.
 Leave Link  702 at Fri Aug  5 08:33:41 2016, MaxMem=    33554432 cpu:         0.1
 (Enter /home/proyectos/fulerenos/M3C-v2.0/M3C-deps_CCC/g09-AM64L-G09RevC.01/l703.exe)
 Compute integral second derivatives, UseDBF=F ICtDFT=           0.
 Integral derivatives from FoFJK, PRISM(SPDF).
 Calling FoFJK, ICntrl=    100127 FMM=F ISym2X=1 I1Cent= 0 IOpClX= 0 NMat=1 NMatS=1 NMatT=0.
 FoFJK:  IHMeth= 1 ICntrl=  100127 DoSepK=F KAlg= 0 I1Cent=   0 FoldK=F
 IRaf=         0 NMat=   1 IRICut=       1 DoRegI=T DoRafI=F ISym2E= 1.
 FoFCou: FMM=F IPFlag=           0 FMFlag=      100000 FMFlg1=         800
         NFxFlg=           0 DoJE=F BraDBF=F KetDBF=F FulRan=T
         wScrn=  0.000000 ICntrl=  100127 IOpCl=  0 I1Cent=           0 NGrid=           0
         NMat0=    1 NMatS0=      1 NMatT0=    0 NMatD0=    1 NMtDS0=    0 NMtDT0=    0
 Petite list used in FoFCou.
 Leave Link  703 at Fri Aug  5 08:35:52 2016, MaxMem=    33554432 cpu:       525.8
 (Enter /home/proyectos/fulerenos/M3C-v2.0/M3C-deps_CCC/g09-AM64L-G09RevC.01/l716.exe)
 Dipole        = 1.75087516D-03 1.68744900D-01-1.92623328D-17
 Polarizability= 4.28657034D+01-3.07855821D-02 1.50415735D+02
                -4.10485686D-09-1.44034437D-08 3.30547657D+01
 Full mass-weighted force constant matrix:
 Low frequencies ---  -39.2376   -4.5100   -3.3170   -2.8292   -0.0007    0.0001
 Low frequencies ---    0.0003  107.9576  252.4881
 ******    1 imaginary frequencies (negative Signs) ****** 
 Diagonal vibrational polarizability:
      337.3915362       7.4940577      29.5341468
 Harmonic frequencies (cm**-1), IR intensities (KM/Mole), Raman scattering
 activities (A**4/AMU), depolarization ratios for plane and unpolarized
 incident light, reduced masses (AMU), force constants (mDyne/A),
 and normal coordinates:
                      1                      2                      3
                     A'                     A"                     A'
 Frequencies --    -39.2225               107.9565               252.4880
 Red. masses --     12.6118                12.4436                12.0607
 Frc consts  --      0.0114                 0.0854                 0.4530
 IR Inten    --     18.1833                10.3556                29.3544
  Atom  AN      X      Y      Z        X      Y      Z        X      Y      Z
     1   7     0.55   0.00  -0.00    -0.00   0.00  -0.47     0.17   0.00   0.00
     2   6    -0.47  -0.00   0.00     0.00  -0.00   0.64    -0.44  -0.00   0.00
     3   6    -0.33  -0.12   0.00     0.00   0.00   0.27     0.10  -0.13  -0.00
     4   6    -0.33   0.13   0.00     0.00  -0.00   0.27     0.11   0.13  -0.00
     5   6    -0.00  -0.00  -0.00    -0.00   0.00  -0.44     0.61   0.00  -0.00
     6   6     0.48   0.00   0.00    -0.00  -0.00  -0.19    -0.59  -0.00   0.00
                      4                      5                      6
                     A"                     A'                     A'
 Frequencies --    265.1453               396.4241               503.4094
 Red. masses --     12.3197                12.7169                12.0580
 Frc consts  --      0.5103                 1.1775                 1.8004
 IR Inten    --     11.3868                28.2868                19.5835
  Atom  AN      X      Y      Z        X      Y      Z        X      Y      Z
     1   7     0.00  -0.00  -0.40     0.60   0.00   0.00    -0.17  -0.00   0.00
     2   6    -0.00   0.00  -0.17     0.20   0.00   0.00     0.03  -0.00  -0.00
     3   6     0.00  -0.00   0.20     0.09  -0.02  -0.00     0.13  -0.67   0.00
     4   6     0.00   0.00   0.20     0.09   0.02  -0.00     0.13   0.67   0.00
     5   6     0.00  -0.00   0.71    -0.58  -0.00  -0.00    -0.18  -0.00  -0.00
     6   6    -0.00  -0.00  -0.48    -0.50  -0.00   0.00     0.09  -0.00  -0.00
                      7                      8                      9
                     A"                     A'                     A'
 Frequencies --    563.6388               673.8513              1166.0039
 Red. masses --     12.6727                12.0401                12.3263
 Frc consts  --      2.3720                 3.2211                 9.8738
 IR Inten    --     14.9180                 8.7765               144.2766
  Atom  AN      X      Y      Z        X      Y      Z        X      Y      Z
     1   7    -0.00  -0.00  -0.58     0.00   0.14  -0.00     0.00  -0.40  -0.00
     2   6     0.00  -0.00  -0.01    -0.00   0.59   0.00    -0.00   0.62   0.00
     3   6     0.00  -0.00  -0.14    -0.05  -0.50  -0.00     0.11   0.28  -0.00
     4   6     0.00   0.00  -0.14     0.05  -0.49  -0.00    -0.11   0.28  -0.00
     5   6    -0.00  -0.00   0.21    -0.00   0.35  -0.00     0.00  -0.21  -0.00
     6   6    -0.00   0.00   0.76     0.00  -0.12   0.00     0.00  -0.49   0.00
                     10                     11                     12
                     A'                     A'                     A'
 Frequencies --   1441.0885              1681.6041              2075.1552
 Red. masses --     12.0538                12.2000                12.8386
 Frc consts  --     14.7488                20.3263                32.5738
 IR Inten    --      1.2826               257.8745               263.1348
  Atom  AN      X      Y      Z        X      Y      Z        X      Y      Z
     1   7     0.00   0.16   0.00     0.00  -0.32  -0.00     0.00  -0.65   0.00
     2   6     0.00  -0.12  -0.00    -0.00   0.28   0.00     0.00  -0.17  -0.00
     3   6     0.68  -0.04   0.00     0.17  -0.13  -0.00     0.01   0.03   0.00
     4   6    -0.68  -0.04   0.00    -0.17  -0.13  -0.00    -0.01   0.03   0.00
     5   6    -0.00   0.14   0.00     0.00  -0.40  -0.00    -0.00   0.73   0.00
     6   6    -0.00  -0.13  -0.00    -0.00   0.75   0.00    -0.00   0.14  -0.00

 -------------------
 - Thermochemistry -
 -------------------
 Temperature   298.150 Kelvin.  Pressure   1.00000 Atm.
 Atom     1 has atomic number  7 and mass  14.00307
 Atom     2 has atomic number  6 and mass  12.00000
 Atom     3 has atomic number  6 and mass  12.00000
 Atom     4 has atomic number  6 and mass  12.00000
 Atom     5 has atomic number  6 and mass  12.00000
 Atom     6 has atomic number  6 and mass  12.00000
 Molecular mass:    74.00307 amu.
 Principal axes and moments of inertia in atomic units:
                           1         2         3
     Eigenvalues --    38.05271 905.93141 943.98412
           X           -0.00014   1.00000  -0.00000
           Y            1.00000   0.00014  -0.00000
           Z            0.00000   0.00000   1.00000
 This molecule is an asymmetric top.
 Rotational symmetry number  1.
 Rotational temperatures (Kelvin)      2.27615     0.09561     0.09175
 Rotational constants (GHZ):          47.42741     1.99214     1.91183
    1 imaginary frequencies ignored.
 Zero-point vibrational energy      54590.2 (Joules/Mol)
                                   13.04737 (Kcal/Mol)
 Warning -- explicit consideration of   6 degrees of freedom as
           vibrations may cause significant error
 Vibrational temperatures:    155.33   363.27   381.48   570.37   724.29
          (Kelvin)            810.95   969.52  1677.62  2073.40  2419.45
                             2985.68
 
 Zero-point correction=                           0.020792 (Hartree/Particle)
 Thermal correction to Energy=                    0.026160
 Thermal correction to Enthalpy=                  0.027104
 Thermal correction to Gibbs Free Energy=        -0.007583
 Sum of electronic and zero-point Energies=           -244.559338
 Sum of electronic and thermal Energies=              -244.553970
 Sum of electronic and thermal Enthalpies=            -244.553026
 Sum of electronic and thermal Free Energies=         -244.587714
 
                     E (Thermal)             CV                S
                      KCal/Mol        Cal/Mol-Kelvin    Cal/Mol-Kelvin
 Total                   16.416             16.478             73.007
 Electronic               0.000              0.000              0.000
 Translational            0.889              2.981             38.821
 Rotational               0.889              2.981             24.990
 Vibrational             14.638             10.517              9.196
 Vibration     1          0.606              1.943              3.305
 Vibration     2          0.664              1.759              1.713
 Vibration     3          0.671              1.737              1.628
 Vibration     4          0.763              1.478              0.976
 Vibration     5          0.859              1.242              0.650
 Vibration     6          0.919              1.110              0.517
                       Q            Log10(Q)             Ln(Q)
 Total Bot       0.307715D+04          3.488149          8.031759
 Total V=0       0.112700D+14         13.051923         30.053162
 Vib (Bot)       0.190436D-08         -8.720250        -20.079119
 Vib (Bot)    1  0.189799D+01          0.278293          0.640794
 Vib (Bot)    2  0.772079D+00         -0.112338         -0.258668
 Vib (Bot)    3  0.730680D+00         -0.136273         -0.313780
 Vib (Bot)    4  0.450784D+00         -0.346031         -0.796767
 Vib (Bot)    5  0.325491D+00         -0.487461         -1.122421
 Vib (Bot)    6  0.274770D+00         -0.561030         -1.291820
 Vib (V=0)       0.697467D+01          0.843524          1.942285
 Vib (V=0)    1  0.246274D+01          0.391419          0.901275
 Vib (V=0)    2  0.141984D+01          0.152239          0.350544
 Vib (V=0)    3  0.138538D+01          0.141568          0.325972
 Vib (V=0)    4  0.117321D+01          0.069374          0.159740
 Vib (V=0)    5  0.109661D+01          0.040052          0.092224
 Vib (V=0)    6  0.107052D+01          0.029597          0.068149
 Electronic      0.100000D+01          0.000000          0.000000
 Translational   0.250225D+08          7.398330         17.035284
 Rotational      0.645757D+05          4.810069         11.075594
 
                                                              b3lyp opt
                                                             IR Spectrum
 
      2                       1             1                1                                                                       
      0                       6             4                1                             6      5   5     3       22        1      
      7                       8             4                6                             7      6   0     9       65        0      
      5                       2             1                6                             4      4   3     6       52        8      
 
      X                       X             X                X                             X      X   X     X       XX        X      
      X                       X                              X                                              X        X               
      X                       X                              X                                                                       
      X                       X                              X                                                                       
      X                       X                              X                                                                       
      X                       X                              X                                                                       
      X                       X                              X                                                                       
      X                       X                              X                                                                       
      X                       X                              X                                                                       
      X                       X                              X                                                                       
      X                       X                              X                                                                       
      X                       X                                                                                                      
      X                       X                                                                                                      
      X                       X                                                                                                      
      X                       X                                                                                                      
      X                       X                                                                                                      
      X                       X                                                                                                      
      X                       X                                                                                                      
      X                       X                                                                                                      
      X                       X                                                                                                      
 
 ***** Axes restored to original set *****
 -------------------------------------------------------------------
 Center     Atomic                   Forces (Hartrees/Bohr)
 Number     Number              X              Y              Z
 -------------------------------------------------------------------
      1        7           0.000079708    0.000016599    0.000070123
      2        6          -0.000102900    0.000008366   -0.000121217
      3        6          -0.000004142   -0.000003180   -0.000001256
      4        6           0.000019375   -0.000001305    0.000022545
      5        6           0.000048247   -0.000013699    0.000066906
      6        6          -0.000040289   -0.000006781   -0.000037101
 -------------------------------------------------------------------
 Cartesian Forces:  Max     0.000121217 RMS     0.000051559
 Z-matrix is all fixed cartesians, so copy forces.
 Force constants in Cartesian coordinates: 
                1             2             3             4             5 
      1  0.643594D+00
      2 -0.305769D-01  0.494716D-01
      3  0.658315D+00 -0.115183D-01  0.803003D+00
      4 -0.303449D-01  0.276921D-02 -0.375704D-01  0.206679D+00
      5  0.276688D-02  0.455813D-02 -0.243802D-03 -0.464813D-02  0.665345D-02
      6 -0.375680D-01 -0.241252D-03 -0.394783D-01  0.227693D+00 -0.887556D-02
      7 -0.327751D-01 -0.874787D-02 -0.373267D-01 -0.731267D-02  0.923575D-03
      8  0.447697D-02  0.463973D-02  0.997922D-02 -0.710060D-02  0.376364D-03
      9 -0.509499D-01 -0.449218D-02 -0.415534D-01 -0.632320D-03  0.571001D-03
     10 -0.309790D-01  0.607253D-02 -0.506310D-01 -0.627797D-04 -0.455087D-03
     11 -0.700679D-02  0.439726D-02 -0.233451D-02  0.759116D-02 -0.538269D-04
     12 -0.371577D-01  0.119777D-01 -0.434245D-01 -0.783647D-02 -0.491505D-03
     13 -0.332858D+00  0.131106D-01 -0.346607D+00 -0.188577D+00  0.197281D-02
     14  0.130900D-01 -0.227438D-01  0.844596D-02  0.197900D-02 -0.127660D-01
     15 -0.346586D+00  0.846858D-02 -0.416428D+00 -0.202475D+00  0.974085D-02
     16 -0.216637D+00  0.173724D-01 -0.186180D+00  0.196179D-01 -0.560040D-03
     17  0.172498D-01 -0.403230D-01 -0.432861D-02 -0.590624D-03  0.123187D-02
     18 -0.186054D+00 -0.419453D-02 -0.262119D+00  0.208211D-01 -0.700981D-03
                6             7             8             9            10 
      6  0.261273D+00
      7 -0.889818D-02  0.196768D+00
      8 -0.820953D-02  0.192489D+00  0.322945D+00
      9 -0.133053D-02  0.121267D-01 -0.117426D+00  0.138711D+00
     10  0.452117D-03 -0.591304D-01 -0.160727D+00  0.959814D-01  0.144655D+00
     11  0.831317D-02 -0.186265D+00 -0.317706D+00  0.128049D+00  0.145275D+00
     12 -0.811636D-02  0.122289D+00  0.155994D+00 -0.224155D-01  0.378868D-02
     13 -0.202469D+00  0.653692D-02 -0.526682D-02  0.128570D-01  0.172925D-01
     14  0.974762D-02 -0.845934D-02 -0.269853D-02 -0.673904D-02  0.460670D-02
     15 -0.237000D+00  0.161457D-01 -0.324560D-02  0.207564D-01  0.144795D-01
     16  0.207896D-01 -0.104086D+00 -0.238716D-01 -0.693829D-01 -0.717753D-01
     17 -0.734447D-03  0.100597D-01 -0.755728D-02  0.366923D-04  0.522784D-02
     18  0.246521D-01 -0.104336D+00 -0.370930D-01 -0.941683D-01 -0.640707D-01
               11            12            13            14            15 
     11  0.325929D+00
     12 -0.172211D+00  0.185977D+00
     13  0.134458D-02  0.178399D-01  0.563296D+00
     14 -0.337931D-02  0.823724D-02 -0.122071D-01  0.328188D-01
     15  0.466764D-02  0.107596D-01  0.604198D+00 -0.238477D-01  0.708350D+00
     16  0.390612D-01 -0.989231D-01 -0.656910D-01  0.990827D-03 -0.857619D-01
     17 -0.918752D-02 -0.350675D-02  0.104595D-02  0.876876D-02  0.421620D-02
     18  0.335157D-01 -0.122780D+00 -0.858187D-01  0.415589D-02 -0.864383D-01
               16            17            18 
     16  0.438572D+00
     17 -0.329927D-01  0.470672D-01
     18  0.419458D+00  0.431691D-02  0.540854D+00
 Leave Link  716 at Fri Aug  5 08:35:52 2016, MaxMem=    33554432 cpu:         0.2
 (Enter /home/proyectos/fulerenos/M3C-v2.0/M3C-deps_CCC/g09-AM64L-G09RevC.01/l103.exe)

 GradGradGradGradGradGradGradGradGradGradGradGradGradGradGradGradGradGrad
 Berny optimization.
 Search for a local minimum.
 Step number   1 out of a maximum of    2
 All quantities printed in internal units (Hartrees-Bohrs-Radians)
 Second derivative matrix not updated -- analytic derivatives used.
 The second derivative matrix:
                          X1        Y1        Z1        X2        Y2
           X1           0.64359
           Y1          -0.03058   0.04947
           Z1           0.65832  -0.01152   0.80300
           X2          -0.03034   0.00277  -0.03757   0.20668
           Y2           0.00277   0.00456  -0.00024  -0.00465   0.00665
           Z2          -0.03757  -0.00024  -0.03948   0.22769  -0.00888
           X3          -0.03278  -0.00875  -0.03733  -0.00731   0.00092
           Y3           0.00448   0.00464   0.00998  -0.00710   0.00038
           Z3          -0.05095  -0.00449  -0.04155  -0.00063   0.00057
           X4          -0.03098   0.00607  -0.05063  -0.00006  -0.00046
           Y4          -0.00701   0.00440  -0.00233   0.00759  -0.00005
           Z4          -0.03716   0.01198  -0.04342  -0.00784  -0.00049
           X5          -0.33286   0.01311  -0.34661  -0.18858   0.00197
           Y5           0.01309  -0.02274   0.00845   0.00198  -0.01277
           Z5          -0.34659   0.00847  -0.41643  -0.20248   0.00974
           X6          -0.21664   0.01737  -0.18618   0.01962  -0.00056
           Y6           0.01725  -0.04032  -0.00433  -0.00059   0.00123
           Z6          -0.18605  -0.00419  -0.26212   0.02082  -0.00070
                          Z2        X3        Y3        Z3        X4
           Z2           0.26127
           X3          -0.00890   0.19677
           Y3          -0.00821   0.19249   0.32295
           Z3          -0.00133   0.01213  -0.11743   0.13871
           X4           0.00045  -0.05913  -0.16073   0.09598   0.14466
           Y4           0.00831  -0.18626  -0.31771   0.12805   0.14527
           Z4          -0.00812   0.12229   0.15599  -0.02242   0.00379
           X5          -0.20247   0.00654  -0.00527   0.01286   0.01729
           Y5           0.00975  -0.00846  -0.00270  -0.00674   0.00461
           Z5          -0.23700   0.01615  -0.00325   0.02076   0.01448
           X6           0.02079  -0.10409  -0.02387  -0.06938  -0.07178
           Y6          -0.00073   0.01006  -0.00756   0.00004   0.00523
           Z6           0.02465  -0.10434  -0.03709  -0.09417  -0.06407
                          Y4        Z4        X5        Y5        Z5
           Y4           0.32593
           Z4          -0.17221   0.18598
           X5           0.00134   0.01784   0.56330
           Y5          -0.00338   0.00824  -0.01221   0.03282
           Z5           0.00467   0.01076   0.60420  -0.02385   0.70835
           X6           0.03906  -0.09892  -0.06569   0.00099  -0.08576
           Y6          -0.00919  -0.00351   0.00105   0.00877   0.00422
           Z6           0.03352  -0.12278  -0.08582   0.00416  -0.08644
                          X6        Y6        Z6
           X6           0.43857
           Y6          -0.03299   0.04707
           Z6           0.41946   0.00432   0.54085
 ITU=  0
     Eigenvalues ---   -0.00073   0.00549   0.02910   0.03282   0.07596
     Eigenvalues ---    0.11580   0.15322   0.20689   0.63368   0.94729
     Eigenvalues ---    1.30473   2.11080
 Eigenvalue     1 is  -7.35D-04 should be greater than     0.000000 Eigenvector:
                          Y1        Y6        Y2        Y3        Y4
   1                    0.46109   0.40004  -0.37567  -0.26614  -0.26067
                          X1        X4        X6        Z3        Z1
   1                    0.24666  -0.22458   0.21388   0.21097  -0.20507
 Angle between quadratic step and forces=  83.66 degrees.
 ClnCor:  largest displacement from symmetrization is 7.78D-12 for atom     5.
 Linear search not attempted -- first point.
 ClnCor:  largest displacement from symmetrization is 5.44D-15 for atom     2.
 B after Tr=     0.000014    0.000025   -0.000010
         Rot=    1.000000   -0.000001    0.000001    0.000001 Ang=  -0.00 deg.
 Variable       Old X    -DE/DX   Delta X   Delta X   Delta X     New X
                                 (Linear)    (Quad)   (Total)
    X1       -0.52161   0.00008   0.00000   0.00104   0.00106  -0.52055
    Y1        0.01886   0.00002   0.00000   0.00184   0.00187   0.02073
    Z1       -0.59022   0.00007   0.00000  -0.00076  -0.00077  -0.59099
    X2       -3.73110  -0.00010   0.00000  -0.00087  -0.00085  -3.73194
    Y2        0.12209   0.00001   0.00000  -0.00121  -0.00118   0.12091
    Z2       -4.20857  -0.00012   0.00000   0.00030   0.00029  -4.20828
    X3        3.17182  -0.00000   0.00000  -0.00027  -0.00026   3.17156
    Y3        0.94591  -0.00000   0.00000  -0.00099  -0.00097   0.94494
    Z3        2.49637  -0.00000   0.00000   0.00072   0.00072   2.49708
    X4        2.06504   0.00002   0.00000  -0.00064  -0.00063   2.06442
    Y4       -1.12136  -0.00000   0.00000  -0.00095  -0.00094  -1.12230
    Z4        3.41481   0.00002   0.00000   0.00028   0.00028   3.41508
    X5       -2.03486   0.00005   0.00000  -0.00012  -0.00011  -2.03496
    Y5        0.06771  -0.00001   0.00000  -0.00024  -0.00021   0.06750
    Z5       -2.29643   0.00007   0.00000   0.00011   0.00010  -2.29633
    X6        1.05074  -0.00004   0.00000   0.00077   0.00078   1.05153
    Y6       -0.03324  -0.00001   0.00000   0.00140   0.00142  -0.03182
    Z6        1.18401  -0.00004   0.00000  -0.00060  -0.00061   1.18340
         Item               Value     Threshold  Converged?
 Maximum Force            0.000121     0.000450     YES
 RMS     Force            0.000052     0.000300     YES
 Maximum Displacement     0.001869     0.001800     NO 
 RMS     Displacement     0.000860     0.001200     YES
 Predicted change in Energy=-5.359409D-08
 GradGradGradGradGradGradGradGradGradGradGradGradGradGradGradGradGradGrad

 Leave Link  103 at Fri Aug  5 08:35:52 2016, MaxMem=    33554432 cpu:         0.1
 (Enter /home/proyectos/fulerenos/M3C-v2.0/M3C-deps_CCC/g09-AM64L-G09RevC.01/l9999.exe)
 1\1\GINC-DEPAZ26\Freq\RB3LYP\6-311++G(3df,2p)\C5N1(1+)\NAGUIRRE\05-Aug
 -2016\0\\#p b3lyp/6-311++G(3df,2p) freq symmetry=Loose\\b3lyp opt\\1,1
 \N,-0.2760231562,0.0099783815,-0.3123305127\C,-1.9744108125,0.06460653
 04,-2.227079602\C,1.6784532059,0.5005535131,1.3210213811\C,1.092774242
 8,-0.5933995217,1.8070393474\C,-1.0767996863,0.0358327047,-1.215220286
 7\C,0.5560295657,-0.017592005,0.6265512583\\Version=EM64L-G09RevE.01\S
 tate=1-A'\HF=-244.58013\RMSD=4.788e-09\RMSF=5.156e-05\ZeroPoint=0.0207
 923\Thermal=0.0261603\Dipole=-0.111116,0.0051586,-0.1269036\DipoleDeri
 v=0.1018735,0.0433163,0.1439921,0.0442237,0.0203614,-0.0451982,0.14305
 74,-0.0461912,0.1336317,0.8411636,0.0456758,0.9998705,0.046264,0.02686
 65,-0.0961093,0.9992646,-0.096753,1.0775439,-0.1678863,-0.2844411,0.02
 7877,-0.2604072,-0.0828927,-0.1229157,0.0031193,-0.149215,0.2315293,0.
 2283934,0.1026154,0.0636468,0.0781531,-0.1068502,0.2714342,0.0888459,0
 .2982024,-0.1363353,-0.5890426,-0.1247979,-1.2507282,-0.1258623,0.3645
 316,0.1784176,-1.2496317,0.1795824,-0.8809802,0.5854985,0.2176315,0.01
 53416,0.2176288,0.7779835,-0.1856287,0.0153445,-0.1856257,0.5746106\Po
 lar=86.5601655,1.8377304,39.7219617,56.6556706,-4.8570558,100.0540772\
 PG=CS [SG(C5N1)]\NImag=1\\0.64359450,-0.03057686,0.04947164,0.65831511
 ,-0.01151826,0.80300312,-0.03034495,0.00276921,-0.03757043,0.20667916,
 0.00276688,0.00455813,-0.00024380,-0.00464813,0.00665345,-0.03756803,-
 0.00024125,-0.03947833,0.22769326,-0.00887556,0.26127317,-0.03277509,-
 0.00874787,-0.03732671,-0.00731267,0.00092358,-0.00889818,0.19676768,0
 .00447697,0.00463973,0.00997922,-0.00710060,0.00037636,-0.00820953,0.1
 9248893,0.32294543,-0.05094988,-0.00449218,-0.04155343,-0.00063232,0.0
 0057100,-0.00133053,0.01212674,-0.11742554,0.13871134,-0.03097900,0.00
 607253,-0.05063098,-0.00006278,-0.00045509,0.00045212,-0.05913042,-0.1
 6072683,0.09598138,0.14465506,-0.00700679,0.00439726,-0.00233451,0.007
 59116,-0.00005383,0.00831317,-0.18626496,-0.31770572,0.12804906,0.1452
 7485,0.32592910,-0.03715772,0.01197765,-0.04342450,-0.00783647,-0.0004
 9150,-0.00811636,0.12228871,0.15599439,-0.02241546,0.00378868,-0.17221
 103,0.18597681,-0.33285803,0.01311063,-0.34660696,-0.18857666,0.001972
 81,-0.20246878,0.00653692,-0.00526682,0.01285700,0.01729247,0.00134458
 ,0.01783986,0.56329635,0.01308997,-0.02274375,0.00844596,0.00197900,-0
 .01276598,0.00974762,-0.00845934,-0.00269853,-0.00673904,0.00460670,-0
 .00337931,0.00823724,-0.01220715,0.03281880,-0.34658567,0.00846858,-0.
 41642779,-0.20247515,0.00974085,-0.23700003,0.01614568,-0.00324560,0.0
 2075643,0.01447949,0.00466764,0.01075963,0.60419755,-0.02384767,0.7083
 5004,-0.21663743,0.01737236,-0.18618003,0.01961789,-0.00056004,0.02078
 962,-0.10408643,-0.02387165,-0.06938292,-0.07177534,0.03906117,-0.0989
 2306,-0.06569105,0.00099083,-0.08576189,0.43857236,0.01724984,-0.04032
 300,-0.00432861,-0.00059062,0.00123187,-0.00073445,0.01005967,-0.00755
 728,0.00003669,0.00522784,-0.00918752,-0.00350675,0.00104595,0.0087687
 6,0.00421620,-0.03299267,0.04706716,-0.18605381,-0.00419453,-0.2621190
 7,0.02082112,-0.00070098,0.02465208,-0.10433623,-0.03709295,-0.0941683
 4,-0.06407068,0.03351567,-0.12278013,-0.08581868,0.00415589,-0.0864382
 8,0.41945828,0.00431691,0.54085374\\-0.00007971,-0.00001660,-0.0000701
 2,0.00010290,-0.00000837,0.00012122,0.00000414,0.00000318,0.00000126,-
 0.00001937,0.00000130,-0.00002255,-0.00004825,0.00001370,-0.00006691,0
 .00004029,0.00000678,0.00003710\\\@


 ACHIEVEMENT--  THE MAN WHO ROWS THE BOAT GENERALLY 
                DOESN'T HAVE TIME TO ROCK IT.

                   -- FROM THE BACK OF A SUGAR PACKET
 Job cpu time:       0 days  0 hours 32 minutes 13.4 seconds.
 File lengths (MBytes):  RWF=     37 Int=      0 D2E=      0 Chk=      4 Scr=      1
 Normal termination of Gaussian 09 at Fri Aug  5 08:35:52 2016.
