 Entering Gaussian System, Link 0=/home/proyectos/fulerenos/M3C-v2.0/M3C-deps_CCC/g09-AM64L-G09RevC.01/g09
 Initial command:
 /home/proyectos/fulerenos/M3C-v2.0/M3C-deps_CCC/g09-AM64L-G09RevC.01/l1.exe "/scratch/naguirre/gaussian/Gau-13399.inp" -scrdir="/scratch/naguirre/gaussian/"
 Entering Link 1 = /home/proyectos/fulerenos/M3C-v2.0/M3C-deps_CCC/g09-AM64L-G09RevC.01/l1.exe PID=     13407.
  
 Copyright (c) 1988,1990,1992,1993,1995,1998,2003,2009,2015,
            Gaussian, Inc.  All Rights Reserved.
  
 This is part of the Gaussian(R) 09 program.  It is based on
 the Gaussian(R) 03 system (copyright 2003, Gaussian, Inc.),
 the Gaussian(R) 98 system (copyright 1998, Gaussian, Inc.),
 the Gaussian(R) 94 system (copyright 1995, Gaussian, Inc.),
 the Gaussian 92(TM) system (copyright 1992, Gaussian, Inc.),
 the Gaussian 90(TM) system (copyright 1990, Gaussian, Inc.),
 the Gaussian 88(TM) system (copyright 1988, Gaussian, Inc.),
 the Gaussian 86(TM) system (copyright 1986, Carnegie Mellon
 University), and the Gaussian 82(TM) system (copyright 1983,
 Carnegie Mellon University). Gaussian is a federally registered
 trademark of Gaussian, Inc.
  
 This software contains proprietary and confidential information,
 including trade secrets, belonging to Gaussian, Inc.
  
 This software is provided under written license and may be
 used, copied, transmitted, or stored only in accord with that
 written license.
  
 The following legend is applicable only to US Government
 contracts under FAR:
  
                    RESTRICTED RIGHTS LEGEND
  
 Use, reproduction and disclosure by the US Government is
 subject to restrictions as set forth in subparagraphs (a)
 and (c) of the Commercial Computer Software - Restricted
 Rights clause in FAR 52.227-19.
  
 Gaussian, Inc.
 340 Quinnipiac St., Bldg. 40, Wallingford CT 06492
  
  
 ---------------------------------------------------------------
 Warning -- This program may not be used in any manner that
 competes with the business of Gaussian, Inc. or will provide
 assistance to any competitor of Gaussian, Inc.  The licensee
 of this program is prohibited from giving any competitor of
 Gaussian, Inc. access to this program.  By using this program,
 the user acknowledges that Gaussian, Inc. is engaged in the
 business of creating and licensing software in the field of
 computational chemistry and represents and warrants to the
 licensee that it is not a competitor of Gaussian, Inc. and that
 it will not use this program in any manner prohibited above.
 ---------------------------------------------------------------
  

 Cite this work as:
 Gaussian 09, Revision E.01,
 M. J. Frisch, G. W. Trucks, H. B. Schlegel, G. E. Scuseria, 
 M. A. Robb, J. R. Cheeseman, G. Scalmani, V. Barone, B. Mennucci, 
 G. A. Petersson, H. Nakatsuji, M. Caricato, X. Li, H. P. Hratchian, 
 A. F. Izmaylov, J. Bloino, G. Zheng, J. L. Sonnenberg, M. Hada, 
 M. Ehara, K. Toyota, R. Fukuda, J. Hasegawa, M. Ishida, T. Nakajima, 
 Y. Honda, O. Kitao, H. Nakai, T. Vreven, J. A. Montgomery, Jr., 
 J. E. Peralta, F. Ogliaro, M. Bearpark, J. J. Heyd, E. Brothers, 
 K. N. Kudin, V. N. Staroverov, T. Keith, R. Kobayashi, J. Normand, 
 K. Raghavachari, A. Rendell, J. C. Burant, S. S. Iyengar, J. Tomasi, 
 M. Cossi, N. Rega, J. M. Millam, M. Klene, J. E. Knox, J. B. Cross, 
 V. Bakken, C. Adamo, J. Jaramillo, R. Gomperts, R. E. Stratmann, 
 O. Yazyev, A. J. Austin, R. Cammi, C. Pomelli, J. W. Ochterski, 
 R. L. Martin, K. Morokuma, V. G. Zakrzewski, G. A. Voth, 
 P. Salvador, J. J. Dannenberg, S. Dapprich, A. D. Daniels, 
 O. Farkas, J. B. Foresman, J. V. Ortiz, J. Cioslowski, 
 and D. J. Fox, Gaussian, Inc., Wallingford CT, 2013.
 
 ******************************************
 Gaussian 09:  EM64L-G09RevE.01 30-Nov-2015
                 5-Aug-2016 
 ******************************************
 %NProcShared=4
 Will use up to    4 processors via shared memory.
 ---------------------------------------------
 #p b3lyp/6-311++G(3df,2p) freq symmetry=Loose
 ---------------------------------------------
 1/10=4,30=1,38=1/1,3;
 2/12=2,17=4,18=3,40=1/2;
 3/5=4,6=6,7=1216,11=2,16=1,25=1,30=1,71=2,74=-5,140=1/1,2,3;
 4//1;
 5/5=2,38=5,98=1/2;
 8/6=4,10=90,11=11/1;
 11/6=1,8=1,9=11,15=111,16=1/1,2,10;
 10/6=1/2;
 6/7=2,8=2,9=2,10=2,18=1,28=1/1;
 7/8=1,10=1,25=1/1,2,3,16;
 1/10=4,30=1/3;
 99//99;
 Leave Link    1 at Fri Aug  5 07:52:46 2016, MaxMem=           0 cpu:         0.3
 (Enter /home/proyectos/fulerenos/M3C-v2.0/M3C-deps_CCC/g09-AM64L-G09RevC.01/l101.exe)
 ---------
 b3lyp opt
 ---------
 Symbolic Z-matrix:
 Charge =  0 Multiplicity = 4
 N                     0.        0.        1.91183 
 C                     0.        0.        0.68186 
 C                     0.        0.       -0.62349 
 C                     0.        0.       -1.88263 
 C                     0.        0.       -3.23461 
 C                     0.        0.        3.14704 
 
 NAtoms=      6 NQM=        6 NQMF=       0 NMMI=      0 NMMIF=      0
                NMic=       0 NMicF=      0.
                    Isotopes and Nuclear Properties:
 (Nuclear quadrupole moments (NQMom) in fm**2, nuclear magnetic moments (NMagM)
  in nuclear magnetons)

  Atom         1           2           3           4           5           6
 IAtWgt=          14          12          12          12          12          12
 AtmWgt=  14.0030740  12.0000000  12.0000000  12.0000000  12.0000000  12.0000000
 NucSpn=           2           0           0           0           0           0
 AtZEff=   0.0000000   0.0000000   0.0000000   0.0000000   0.0000000   0.0000000
 NQMom=    2.0440000   0.0000000   0.0000000   0.0000000   0.0000000   0.0000000
 NMagM=    0.4037610   0.0000000   0.0000000   0.0000000   0.0000000   0.0000000
 AtZNuc=   7.0000000   6.0000000   6.0000000   6.0000000   6.0000000   6.0000000
 Leave Link  101 at Fri Aug  5 07:52:46 2016, MaxMem=    33554432 cpu:         0.2
 (Enter /home/proyectos/fulerenos/M3C-v2.0/M3C-deps_CCC/g09-AM64L-G09RevC.01/l103.exe)

 GradGradGradGradGradGradGradGradGradGradGradGradGradGradGradGradGradGrad
 Berny optimization.
 Initialization pass.
 Trust Radius=3.00D-01 FncErr=1.00D-07 GrdErr=1.00D-07
 Number of steps in this run=      2 maximum allowed number of steps=      2.
 GradGradGradGradGradGradGradGradGradGradGradGradGradGradGradGradGradGrad

 Leave Link  103 at Fri Aug  5 07:52:47 2016, MaxMem=    33554432 cpu:         0.1
 (Enter /home/proyectos/fulerenos/M3C-v2.0/M3C-deps_CCC/g09-AM64L-G09RevC.01/l202.exe)
                          Input orientation:                          
 ---------------------------------------------------------------------
 Center     Atomic      Atomic             Coordinates (Angstroms)
 Number     Number       Type             X           Y           Z
 ---------------------------------------------------------------------
      1          7           0        0.000000    0.000000    1.911830
      2          6           0        0.000000    0.000000    0.681863
      3          6           0        0.000000    0.000000   -0.623488
      4          6           0        0.000000    0.000000   -1.882632
      5          6           0        0.000000    0.000000   -3.234611
      6          6           0        0.000000    0.000000    3.147038
 ---------------------------------------------------------------------
                    Distance matrix (angstroms):
                    1          2          3          4          5
     1  N    0.000000
     2  C    1.229967   0.000000
     3  C    2.535318   1.305351   0.000000
     4  C    3.794462   2.564495   1.259144   0.000000
     5  C    5.146441   3.916474   2.611123   1.351979   0.000000
     6  C    1.235208   2.465175   3.770526   5.029670   6.381649
                    6
     6  C    0.000000
 Stoichiometry    C5N(4)
 Framework group  C*V[C*(CCCCNC)]
 Deg. of freedom     5
 Full point group                 C*V     NOp   4
 Largest Abelian subgroup         C2V     NOp   4
 Largest concise Abelian subgroup C1      NOp   1
                         Standard orientation:                         
 ---------------------------------------------------------------------
 Center     Atomic      Atomic             Coordinates (Angstroms)
 Number     Number       Type             X           Y           Z
 ---------------------------------------------------------------------
      1          7           0        0.000000    0.000000    1.860159
      2          6           0        0.000000    0.000000    0.630192
      3          6           0        0.000000    0.000000   -0.675159
      4          6           0        0.000000    0.000000   -1.934303
      5          6           0        0.000000    0.000000   -3.286282
      6          6           0        0.000000    0.000000    3.095367
 ---------------------------------------------------------------------
 Rotational constants (GHZ):      0.0000000      1.4515762      1.4515762
 Leave Link  202 at Fri Aug  5 07:52:47 2016, MaxMem=    33554432 cpu:         0.1
 (Enter /home/proyectos/fulerenos/M3C-v2.0/M3C-deps_CCC/g09-AM64L-G09RevC.01/l301.exe)
 Standard basis: 6-311++G(3df,2p) (5D, 7F)
 Ernie: Thresh=  0.10000D-02 Tol=  0.10000D-05 Strict=F.
 There are   126 symmetry adapted cartesian basis functions of A1  symmetry.
 There are    24 symmetry adapted cartesian basis functions of A2  symmetry.
 There are    60 symmetry adapted cartesian basis functions of B1  symmetry.
 There are    60 symmetry adapted cartesian basis functions of B2  symmetry.
 There are   102 symmetry adapted basis functions of A1  symmetry.
 There are    24 symmetry adapted basis functions of A2  symmetry.
 There are    54 symmetry adapted basis functions of B1  symmetry.
 There are    54 symmetry adapted basis functions of B2  symmetry.
   234 basis functions,   348 primitive gaussians,   270 cartesian basis functions
    20 alpha electrons       17 beta electrons
       nuclear repulsion energy       137.9614966537 Hartrees.
 IExCor=  402 DFT=T Ex+Corr=B3LYP ExCW=0 ScaHFX=  0.200000
 ScaDFX=  0.800000  0.720000  1.000000  0.810000 ScalE2=  1.000000  1.000000
 IRadAn=      0 IRanWt=     -1 IRanGd=            0 ICorTp=0 IEmpDi=  4
 NAtoms=    6 NActive=    6 NUniq=    6 SFac= 1.00D+00 NAtFMM=   60 NAOKFM=F Big=F
 Integral buffers will be    131072 words long.
 Raffenetti 2 integral format.
 Two-electron integral symmetry is turned on.
 Leave Link  301 at Fri Aug  5 07:52:47 2016, MaxMem=    33554432 cpu:         0.2
 (Enter /home/proyectos/fulerenos/M3C-v2.0/M3C-deps_CCC/g09-AM64L-G09RevC.01/l302.exe)
 NPDir=0 NMtPBC=     1 NCelOv=     1 NCel=       1 NClECP=     1 NCelD=      1
         NCelK=      1 NCelE2=     1 NClLst=     1 CellRange=     0.0.
 One-electron integrals computed using PRISM.
 NBasis=   234 RedAO= T EigKep=  1.10D-05  NBF=   102    24    54    54
 NBsUse=   232 1.00D-06 EigRej=  2.05D-07 NBFU=   100    24    54    54
 Precomputing XC quadrature grid using
 IXCGrd= 4 IRadAn=           0 IRanWt=          -1 IRanGd=           0 AccXCQ= 0.00D+00.
 Generated NRdTot=       0 NPtTot=           0 NUsed=           0 NTot=          32
 NSgBfM=   270   270   270   270   270 MxSgAt=     6 MxSgA2=     6.
 Leave Link  302 at Fri Aug  5 07:52:47 2016, MaxMem=    33554432 cpu:         1.1
 (Enter /home/proyectos/fulerenos/M3C-v2.0/M3C-deps_CCC/g09-AM64L-G09RevC.01/l303.exe)
 DipDrv:  MaxL=1.
 Leave Link  303 at Fri Aug  5 07:52:47 2016, MaxMem=    33554432 cpu:         0.2
 (Enter /home/proyectos/fulerenos/M3C-v2.0/M3C-deps_CCC/g09-AM64L-G09RevC.01/l401.exe)
 ExpMin= 4.38D-02 ExpMax= 6.29D+03 ExpMxC= 9.49D+02 IAcc=2 IRadAn=         4 AccDes= 0.00D+00
 Harris functional with IExCor=  402 and IRadAn=       4 diagonalized for initial guess.
 HarFok:  IExCor=  402 AccDes= 0.00D+00 IRadAn=         4 IDoV= 1 UseB2=F ITyADJ=14
 ICtDFT=  3500011 ScaDFX=  1.000000  1.000000  1.000000  1.000000
 FoFCou: FMM=F IPFlag=           0 FMFlag=      100000 FMFlg1=           0
         NFxFlg=           0 DoJE=T BraDBF=F KetDBF=T FulRan=T
         wScrn=  0.000000 ICntrl=     500 IOpCl=  0 I1Cent=   200000004 NGrid=           0
         NMat0=    1 NMatS0=      1 NMatT0=    0 NMatD0=    1 NMtDS0=    0 NMtDT0=    0
 Petite list used in FoFCou.
 Harris En= -244.937696827887    
 JPrj=0 DoOrth=F DoCkMO=F.
 Initial guess orbital symmetries:
 Alpha Orbitals:
       Occupied  (SG) (SG) (SG) (SG) (SG) (SG) (SG) (SG) (SG) (SG)
                 (SG) (PI) (PI) (PI) (PI) (SG) (SG) (PI) (PI) (PI)
       Virtual   (PI) (PI) (PI) (SG) (SG) (PI) (PI) (SG) (PI) (PI)
                 (SG) (SG) (PI) (PI) (PI) (PI) (SG) (PI) (PI) (SG)
                 (SG) (SG) (DLTA) (DLTA) (SG) (PI) (PI) (PI) (PI)
                 (SG) (DLTA) (DLTA) (SG) (SG) (DLTA) (DLTA) (SG)
                 (SG) (SG) (PI) (PI) (DLTA) (DLTA) (PI) (PI) (PI)
                 (PI) (PI) (PI) (SG) (PI) (PI) (SG) (DLTA) (DLTA)
                 (SG) (PI) (PI) (SG) (PI) (PI) (SG) (SG) (DLTA)
                 (DLTA) (PI) (PI) (SG) (SG) (PI) (PI) (PI) (PI)
                 (PI) (PI) (SG) (SG) (SG) (SG) (DLTA) (DLTA) (PI)
                 (PI) (SG) (DLTA) (DLTA) (SG) (SG) (DLTA) (DLTA)
                 (PI) (PI) (DLTA) (DLTA) (SG) (PI) (PI) (SG) (DLTA)
                 (DLTA) (PI) (PI) (PI) (PI) (SG) (SG) (DLTA) (DLTA)
                 (PI) (PI) (DLTA) (DLTA) (SG) (PHI) (PHI) (PI)
                 (PI) (PHI) (PHI) (DLTA) (DLTA) (PI) (PI) (PHI)
                 (PHI) (PI) (PI) (SG) (PHI) (PHI) (SG) (PI) (PI)
                 (PI) (PI) (DLTA) (DLTA) (PHI) (PHI) (SG) (PI)
                 (PI) (SG) (PI) (PI) (SG) (DLTA) (DLTA) (SG) (PHI)
                 (PHI) (SG) (PI) (PI) (SG) (SG) (DLTA) (DLTA) (SG)
                 (PI) (PI) (PI) (PI) (SG) (DLTA) (DLTA) (PI) (PI)
                 (SG) (SG) (SG) (PI) (PI) (PI) (PI) (DLTA) (DLTA)
                 (DLTA) (DLTA) (DLTA) (DLTA) (DLTA) (DLTA) (SG)
                 (DLTA) (DLTA) (PI) (PI) (PI) (PI) (PI) (PI) (SG)
                 (PI) (PI) (SG) (PI) (PI) (SG) (SG) (SG) (DLTA)
                 (DLTA) (PI) (PI) (SG) (SG) (SG) (SG) (SG) (SG)
                 (SG)
 Beta  Orbitals:
       Occupied  (SG) (SG) (SG) (SG) (SG) (SG) (SG) (SG) (SG) (SG)
                 (SG) (PI) (PI) (PI) (PI) (SG) (SG)
       Virtual   (PI) (PI) (PI) (PI) (PI) (PI) (SG) (SG) (PI) (PI)
                 (SG) (PI) (PI) (SG) (SG) (PI) (PI) (PI) (PI) (SG)
                 (PI) (PI) (SG) (SG) (SG) (DLTA) (DLTA) (SG) (PI)
                 (PI) (PI) (PI) (SG) (DLTA) (DLTA) (SG) (SG) (DLTA)
                 (DLTA) (SG) (SG) (SG) (PI) (PI) (DLTA) (DLTA)
                 (PI) (PI) (PI) (PI) (PI) (PI) (SG) (PI) (PI) (SG)
                 (DLTA) (DLTA) (SG) (PI) (PI) (SG) (PI) (PI) (SG)
                 (SG) (DLTA) (DLTA) (PI) (PI) (SG) (SG) (PI) (PI)
                 (PI) (PI) (PI) (PI) (SG) (SG) (SG) (SG) (DLTA)
                 (DLTA) (PI) (PI) (SG) (DLTA) (DLTA) (SG) (SG)
                 (DLTA) (DLTA) (PI) (PI) (DLTA) (DLTA) (SG) (PI)
                 (PI) (SG) (DLTA) (DLTA) (PI) (PI) (PI) (PI) (SG)
                 (SG) (DLTA) (DLTA) (PI) (PI) (DLTA) (DLTA) (SG)
                 (PHI) (PHI) (PI) (PI) (PHI) (PHI) (DLTA) (DLTA)
                 (PI) (PI) (PHI) (PHI) (PI) (PI) (SG) (PHI) (PHI)
                 (SG) (PI) (PI) (PI) (PI) (DLTA) (DLTA) (PHI) (PHI)
                 (SG) (PI) (PI) (SG) (PI) (PI) (SG) (DLTA) (DLTA)
                 (SG) (PHI) (PHI) (SG) (PI) (PI) (SG) (SG) (DLTA)
                 (DLTA) (SG) (PI) (PI) (PI) (PI) (SG) (DLTA) (DLTA)
                 (PI) (PI) (SG) (SG) (SG) (PI) (PI) (PI) (PI) (DLTA)
                 (DLTA) (DLTA) (DLTA) (DLTA) (DLTA) (DLTA) (DLTA)
                 (SG) (DLTA) (DLTA) (PI) (PI) (PI) (PI) (PI) (PI)
                 (SG) (PI) (PI) (SG) (PI) (PI) (SG) (SG) (SG) (DLTA)
                 (DLTA) (PI) (PI) (SG) (SG) (SG) (SG) (SG) (SG)
                 (SG)
 Initial guess <Sx>= 0.0000 <Sy>= 0.0000 <Sz>= 1.5000 <S**2>= 3.7500 S= 1.5000
 Leave Link  401 at Fri Aug  5 07:52:48 2016, MaxMem=    33554432 cpu:         1.9
 (Enter /home/proyectos/fulerenos/M3C-v2.0/M3C-deps_CCC/g09-AM64L-G09RevC.01/l502.exe)
 UHF open shell SCF:
 Using DIIS extrapolation, IDIIS=  1040.
 Integral symmetry usage will be decided dynamically.
 IVT=      240964 IEndB=      240964 NGot=    33554432 MDV=    33403279
 LenX=    33403279 LenY=    33329938
 Requested convergence on RMS density matrix=1.00D-08 within 128 cycles.
 Requested convergence on MAX density matrix=1.00D-06.
 Requested convergence on             energy=1.00D-06.
 No special actions if energy rises.
 Fock matrices will be formed incrementally for  20 cycles.

 Cycle   1  Pass 1  IDiag  1:
 FoFJK:  IHMeth= 1 ICntrl=       0 DoSepK=F KAlg= 0 I1Cent=   0 FoldK=F
 IRaf= 930000000 NMat=   1 IRICut=       1 DoRegI=T DoRafI=F ISym2E= 1.
 FoFCou: FMM=F IPFlag=           0 FMFlag=      100000 FMFlg1=           0
         NFxFlg=           0 DoJE=F BraDBF=F KetDBF=F FulRan=T
         wScrn=  0.000000 ICntrl=       0 IOpCl=  1 I1Cent=           0 NGrid=           0
         NMat0=    1 NMatS0=      1 NMatT0=    0 NMatD0=    1 NMtDS0=    0 NMtDT0=    0
 Petite list used in FoFCou.
 E= -244.880540764004    
 DIIS: error= 2.66D-02 at cycle   1 NSaved=   1.
 NSaved= 1 IEnMin= 1 EnMin= -244.880540764004     IErMin= 1 ErrMin= 2.66D-02
 ErrMax= 2.66D-02  0.00D+00 EMaxC= 1.00D-01 BMatC= 3.64D-01 BMatP= 3.64D-01
 IDIUse=3 WtCom= 7.34D-01 WtEn= 2.66D-01
 Coeff-Com:  0.100D+01
 Coeff-En:   0.100D+01
 Coeff:      0.100D+01
 Gap=     0.054 Goal=   None    Shift=    0.000
 Gap=     0.034 Goal=   None    Shift=    0.000
 GapD=    0.034 DampG=0.250 DampE=0.500 DampFc=0.2500 IDamp=-1.
 Damping current iteration by 2.50D-01
 RMSDP=8.85D-03 MaxDP=5.02D-01              OVMax= 4.41D-01

 Cycle   2  Pass 1  IDiag  1:
 RMSU=  2.17D-03    CP:  9.78D-01
 E= -244.903228159905     Delta-E=       -0.022687395901 Rises=F Damp=T
 DIIS: error= 1.32D-02 at cycle   2 NSaved=   2.
 NSaved= 2 IEnMin= 2 EnMin= -244.903228159905     IErMin= 2 ErrMin= 1.32D-02
 ErrMax= 1.32D-02  0.00D+00 EMaxC= 1.00D-01 BMatC= 1.15D-01 BMatP= 3.64D-01
 IDIUse=3 WtCom= 8.68D-01 WtEn= 1.32D-01
 Coeff-Com: -0.390D+00 0.139D+01
 Coeff-En:   0.139D+00 0.861D+00
 Coeff:     -0.320D+00 0.132D+01
 Gap=     0.069 Goal=   None    Shift=    0.000
 Gap=     0.117 Goal=   None    Shift=    0.000
 RMSDP=4.65D-03 MaxDP=2.00D-01 DE=-2.27D-02 OVMax= 4.32D-01

 Cycle   3  Pass 1  IDiag  1:
 RMSU=  3.26D-03    CP:  9.06D-01  2.39D+00
 E= -244.907233776579     Delta-E=       -0.004005616674 Rises=F Damp=F
 DIIS: error= 3.73D-02 at cycle   3 NSaved=   3.
 NSaved= 3 IEnMin= 3 EnMin= -244.907233776579     IErMin= 2 ErrMin= 1.32D-02
 ErrMax= 3.73D-02  0.00D+00 EMaxC= 1.00D-01 BMatC= 1.79D-01 BMatP= 1.15D-01
 IDIUse=2 WtCom= 0.00D+00 WtEn= 1.00D+00
 Coeff-En:   0.000D+00 0.468D+00 0.532D+00
 Coeff:      0.000D+00 0.468D+00 0.532D+00
 Gap=     0.065 Goal=   None    Shift=    0.000
 Gap=     0.152 Goal=   None    Shift=    0.000
 RMSDP=3.27D-03 MaxDP=1.60D-01 DE=-4.01D-03 OVMax= 3.37D-01

 Cycle   4  Pass 1  IDiag  1:
 RMSU=  1.25D-03    CP:  9.08D-01  3.00D+00  2.29D-01
 E= -244.819499702770     Delta-E=        0.087734073808 Rises=F Damp=F
 DIIS: error= 5.17D-02 at cycle   4 NSaved=   4.
 NSaved= 4 IEnMin= 3 EnMin= -244.907233776579     IErMin= 2 ErrMin= 1.32D-02
 ErrMax= 5.17D-02  0.00D+00 EMaxC= 1.00D-01 BMatC= 4.09D-01 BMatP= 1.15D-01
 IDIUse=2 WtCom= 0.00D+00 WtEn= 1.00D+00
 Coeff-En:   0.000D+00 0.000D+00 0.645D+00 0.355D+00
 Coeff:      0.000D+00 0.000D+00 0.645D+00 0.355D+00
 Gap=     0.059 Goal=   None    Shift=    0.000
 Gap=     0.088 Goal=   None    Shift=    0.000
 RMSDP=2.31D-03 MaxDP=1.39D-01 DE= 8.77D-02 OVMax= 1.83D-01

 Cycle   5  Pass 1  IDiag  1:
 RMSU=  5.72D-04    CP:  9.04D-01  2.27D+00  5.52D-01  7.06D-01
 E= -244.966214160485     Delta-E=       -0.146714457714 Rises=F Damp=F
 DIIS: error= 8.44D-03 at cycle   5 NSaved=   5.
 NSaved= 5 IEnMin= 5 EnMin= -244.966214160485     IErMin= 5 ErrMin= 8.44D-03
 ErrMax= 8.44D-03  0.00D+00 EMaxC= 1.00D-01 BMatC= 1.71D-02 BMatP= 1.15D-01
 IDIUse=3 WtCom= 9.16D-01 WtEn= 8.44D-02
 Coeff-Com: -0.332D+00 0.460D+00 0.220D+00-0.145D+00 0.797D+00
 Coeff-En:   0.000D+00 0.000D+00 0.933D-01 0.000D+00 0.907D+00
 Coeff:     -0.304D+00 0.421D+00 0.210D+00-0.133D+00 0.806D+00
 Gap=     0.057 Goal=   None    Shift=    0.000
 Gap=     0.095 Goal=   None    Shift=    0.000
 RMSDP=4.63D-04 MaxDP=2.19D-02 DE=-1.47D-01 OVMax= 4.82D-02

 Cycle   6  Pass 1  IDiag  1:
 RMSU=  1.78D-04    CP:  9.05D-01  2.33D+00  6.46D-01  4.97D-01  8.80D-01
 E= -244.971107272530     Delta-E=       -0.004893112045 Rises=F Damp=F
 DIIS: error= 2.27D-03 at cycle   6 NSaved=   6.
 NSaved= 6 IEnMin= 6 EnMin= -244.971107272530     IErMin= 6 ErrMin= 2.27D-03
 ErrMax= 2.27D-03  0.00D+00 EMaxC= 1.00D-01 BMatC= 1.49D-03 BMatP= 1.71D-02
 IDIUse=3 WtCom= 9.77D-01 WtEn= 2.27D-02
 Coeff-Com: -0.222D+00 0.297D+00 0.120D+00-0.109D+00 0.546D+00 0.367D+00
 Coeff-En:   0.000D+00 0.000D+00 0.000D+00 0.000D+00 0.000D+00 0.100D+01
 Coeff:     -0.217D+00 0.291D+00 0.118D+00-0.106D+00 0.533D+00 0.381D+00
 Gap=     0.057 Goal=   None    Shift=    0.000
 Gap=     0.097 Goal=   None    Shift=    0.000
 RMSDP=1.36D-04 MaxDP=6.82D-03 DE=-4.89D-03 OVMax= 8.97D-03

 Cycle   7  Pass 1  IDiag  1:
 RMSU=  8.78D-05    CP:  9.05D-01  2.31D+00  6.26D-01  4.99D-01  9.92D-01
                    CP:  8.67D-01
 E= -244.971544652764     Delta-E=       -0.000437380234 Rises=F Damp=F
 DIIS: error= 8.37D-04 at cycle   7 NSaved=   7.
 NSaved= 7 IEnMin= 7 EnMin= -244.971544652764     IErMin= 7 ErrMin= 8.37D-04
 ErrMax= 8.37D-04  0.00D+00 EMaxC= 1.00D-01 BMatC= 1.34D-04 BMatP= 1.49D-03
 IDIUse=3 WtCom= 9.92D-01 WtEn= 8.37D-03
 Coeff-Com:  0.251D-01-0.386D-01-0.452D-01 0.402D-02-0.109D+00 0.139D+00
 Coeff-Com:  0.102D+01
 Coeff-En:   0.000D+00 0.000D+00 0.000D+00 0.000D+00 0.000D+00 0.000D+00
 Coeff-En:   0.100D+01
 Coeff:      0.249D-01-0.383D-01-0.448D-01 0.399D-02-0.108D+00 0.138D+00
 Coeff:      0.102D+01
 Gap=     0.058 Goal=   None    Shift=    0.000
 Gap=     0.098 Goal=   None    Shift=    0.000
 RMSDP=8.38D-05 MaxDP=3.65D-03 DE=-4.37D-04 OVMax= 8.62D-03

 Cycle   8  Pass 1  IDiag  1:
 RMSU=  5.43D-05    CP:  9.06D-01  2.32D+00  6.36D-01  4.81D-01  1.00D+00
                    CP:  1.12D+00  1.06D+00
 E= -244.971650714601     Delta-E=       -0.000106061838 Rises=F Damp=F
 DIIS: error= 4.82D-04 at cycle   8 NSaved=   8.
 NSaved= 8 IEnMin= 8 EnMin= -244.971650714601     IErMin= 8 ErrMin= 4.82D-04
 ErrMax= 4.82D-04  0.00D+00 EMaxC= 1.00D-01 BMatC= 7.65D-05 BMatP= 1.34D-04
 IDIUse=3 WtCom= 9.95D-01 WtEn= 4.82D-03
 Coeff-Com:  0.548D-01-0.785D-01-0.488D-01 0.200D-01-0.156D+00 0.197D-01
 Coeff-Com:  0.632D+00 0.557D+00
 Coeff-En:   0.000D+00 0.000D+00 0.000D+00 0.000D+00 0.000D+00 0.000D+00
 Coeff-En:   0.000D+00 0.100D+01
 Coeff:      0.545D-01-0.782D-01-0.486D-01 0.199D-01-0.155D+00 0.196D-01
 Coeff:      0.629D+00 0.559D+00
 Gap=     0.059 Goal=   None    Shift=    0.000
 Gap=     0.098 Goal=   None    Shift=    0.000
 RMSDP=4.85D-05 MaxDP=2.42D-03 DE=-1.06D-04 OVMax= 5.60D-03

 Cycle   9  Pass 1  IDiag  1:
 RMSU=  3.34D-05    CP:  9.05D-01  2.32D+00  6.32D-01  5.01D-01  1.02D+00
                    CP:  1.16D+00  1.21D+00  8.55D-01
 E= -244.971677871958     Delta-E=       -0.000027157357 Rises=F Damp=F
 DIIS: error= 3.04D-04 at cycle   9 NSaved=   9.
 NSaved= 9 IEnMin= 9 EnMin= -244.971677871958     IErMin= 9 ErrMin= 3.04D-04
 ErrMax= 3.04D-04  0.00D+00 EMaxC= 1.00D-01 BMatC= 2.19D-05 BMatP= 7.65D-05
 IDIUse=3 WtCom= 9.97D-01 WtEn= 3.04D-03
 Coeff-Com:  0.184D-02-0.120D-02 0.692D-02-0.362D-03 0.146D-01-0.399D-01
 Coeff-Com: -0.261D+00 0.349D+00 0.931D+00
 Coeff-En:   0.000D+00 0.000D+00 0.000D+00 0.000D+00 0.000D+00 0.000D+00
 Coeff-En:   0.000D+00 0.000D+00 0.100D+01
 Coeff:      0.184D-02-0.120D-02 0.690D-02-0.361D-03 0.145D-01-0.398D-01
 Coeff:     -0.261D+00 0.348D+00 0.931D+00
 Gap=     0.058 Goal=   None    Shift=    0.000
 Gap=     0.098 Goal=   None    Shift=    0.000
 RMSDP=2.41D-05 MaxDP=1.01D-03 DE=-2.72D-05 OVMax= 3.66D-03

 Cycle  10  Pass 1  IDiag  1:
 RMSU=  1.03D-05    CP:  9.06D-01  2.32D+00  6.36D-01  4.96D-01  1.01D+00
                    CP:  1.20D+00  1.21D+00  1.12D+00  1.10D+00
 E= -244.971688368662     Delta-E=       -0.000010496704 Rises=F Damp=F
 DIIS: error= 4.96D-05 at cycle  10 NSaved=  10.
 NSaved=10 IEnMin=10 EnMin= -244.971688368662     IErMin=10 ErrMin= 4.96D-05
 ErrMax= 4.96D-05  0.00D+00 EMaxC= 1.00D-01 BMatC= 1.15D-06 BMatP= 2.19D-05
 IDIUse=1 WtCom= 1.00D+00 WtEn= 0.00D+00
 Coeff-Com: -0.647D-02 0.925D-02 0.828D-02-0.308D-02 0.259D-01-0.163D-01
 Coeff-Com: -0.136D+00 0.723D-01 0.305D+00 0.740D+00
 Coeff:     -0.647D-02 0.925D-02 0.828D-02-0.308D-02 0.259D-01-0.163D-01
 Coeff:     -0.136D+00 0.723D-01 0.305D+00 0.740D+00
 Gap=     0.058 Goal=   None    Shift=    0.000
 Gap=     0.098 Goal=   None    Shift=    0.000
 RMSDP=1.03D-05 MaxDP=5.40D-04 DE=-1.05D-05 OVMax= 7.09D-04

 Cycle  11  Pass 1  IDiag  1:
 RMSU=  4.95D-06    CP:  9.06D-01  2.32D+00  6.35D-01  4.93D-01  1.01D+00
                    CP:  1.20D+00  1.23D+00  1.14D+00  1.08D+00  1.30D+00
 E= -244.971688796527     Delta-E=       -0.000000427865 Rises=F Damp=F
 DIIS: error= 4.79D-05 at cycle  11 NSaved=  11.
 NSaved=11 IEnMin=11 EnMin= -244.971688796527     IErMin=11 ErrMin= 4.79D-05
 ErrMax= 4.79D-05  0.00D+00 EMaxC= 1.00D-01 BMatC= 4.88D-07 BMatP= 1.15D-06
 IDIUse=1 WtCom= 1.00D+00 WtEn= 0.00D+00
 Coeff-Com: -0.154D-02 0.185D-02 0.898D-03-0.333D-03 0.382D-02-0.709D-03
 Coeff-Com:  0.238D-01-0.732D-01-0.146D+00 0.443D+00 0.749D+00
 Coeff:     -0.154D-02 0.185D-02 0.898D-03-0.333D-03 0.382D-02-0.709D-03
 Coeff:      0.238D-01-0.732D-01-0.146D+00 0.443D+00 0.749D+00
 Gap=     0.058 Goal=   None    Shift=    0.000
 Gap=     0.098 Goal=   None    Shift=    0.000
 RMSDP=5.93D-06 MaxDP=3.90D-04 DE=-4.28D-07 OVMax= 6.66D-04

 Cycle  12  Pass 1  IDiag  1:
 RMSU=  2.32D-06    CP:  9.06D-01  2.32D+00  6.35D-01  4.94D-01  1.01D+00
                    CP:  1.20D+00  1.25D+00  1.14D+00  1.16D+00  1.54D+00
                    CP:  9.10D-01
 E= -244.971689058559     Delta-E=       -0.000000262032 Rises=F Damp=F
 DIIS: error= 1.62D-05 at cycle  12 NSaved=  12.
 NSaved=12 IEnMin=12 EnMin= -244.971689058559     IErMin=12 ErrMin= 1.62D-05
 ErrMax= 1.62D-05  0.00D+00 EMaxC= 1.00D-01 BMatC= 3.33D-08 BMatP= 4.88D-07
 IDIUse=1 WtCom= 1.00D+00 WtEn= 0.00D+00
 Coeff-Com:  0.290D-03-0.327D-03-0.769D-03 0.713D-04-0.288D-02 0.114D-02
 Coeff-Com:  0.177D-01-0.166D-01-0.531D-01-0.635D-01 0.464D-01 0.107D+01
 Coeff:      0.290D-03-0.327D-03-0.769D-03 0.713D-04-0.288D-02 0.114D-02
 Coeff:      0.177D-01-0.166D-01-0.531D-01-0.635D-01 0.464D-01 0.107D+01
 Gap=     0.058 Goal=   None    Shift=    0.000
 Gap=     0.098 Goal=   None    Shift=    0.000
 RMSDP=1.91D-06 MaxDP=1.08D-04 DE=-2.62D-07 OVMax= 3.20D-04

 Cycle  13  Pass 1  IDiag  1:
 RMSU=  6.94D-07    CP:  9.06D-01  2.32D+00  6.35D-01  4.94D-01  1.01D+00
                    CP:  1.20D+00  1.25D+00  1.15D+00  1.17D+00  1.64D+00
                    CP:  1.00D+00  1.06D+00
 E= -244.971689091665     Delta-E=       -0.000000033106 Rises=F Damp=F
 DIIS: error= 3.41D-06 at cycle  13 NSaved=  13.
 NSaved=13 IEnMin=13 EnMin= -244.971689091665     IErMin=13 ErrMin= 3.41D-06
 ErrMax= 3.41D-06  0.00D+00 EMaxC= 1.00D-01 BMatC= 2.73D-09 BMatP= 3.33D-08
 IDIUse=1 WtCom= 1.00D+00 WtEn= 0.00D+00
 Coeff-Com:  0.879D-04-0.144D-03 0.414D-04-0.335D-05 0.122D-03-0.225D-03
 Coeff-Com: -0.197D-02 0.376D-02 0.120D-01-0.350D-01-0.683D-01 0.136D-01
 Coeff-Com:  0.108D+01
 Coeff:      0.879D-04-0.144D-03 0.414D-04-0.335D-05 0.122D-03-0.225D-03
 Coeff:     -0.197D-02 0.376D-02 0.120D-01-0.350D-01-0.683D-01 0.136D-01
 Coeff:      0.108D+01
 Gap=     0.058 Goal=   None    Shift=    0.000
 Gap=     0.098 Goal=   None    Shift=    0.000
 RMSDP=5.13D-07 MaxDP=2.87D-05 DE=-3.31D-08 OVMax= 6.97D-05

 Cycle  14  Pass 1  IDiag  1:
 RMSU=  2.60D-07    CP:  9.06D-01  2.32D+00  6.35D-01  4.94D-01  1.01D+00
                    CP:  1.20D+00  1.25D+00  1.15D+00  1.18D+00  1.65D+00
                    CP:  1.01D+00  1.13D+00  1.18D+00
 E= -244.971689094358     Delta-E=       -0.000000002693 Rises=F Damp=F
 DIIS: error= 1.28D-06 at cycle  14 NSaved=  14.
 NSaved=14 IEnMin=14 EnMin= -244.971689094358     IErMin=14 ErrMin= 1.28D-06
 ErrMax= 1.28D-06  0.00D+00 EMaxC= 1.00D-01 BMatC= 3.69D-10 BMatP= 2.73D-09
 IDIUse=1 WtCom= 1.00D+00 WtEn= 0.00D+00
 Coeff-Com:  0.617D-05-0.389D-05 0.564D-04-0.441D-05 0.170D-03-0.300D-03
 Coeff-Com: -0.182D-02 0.289D-02 0.847D-02 0.391D-02-0.234D-01-0.115D+00
 Coeff-Com:  0.117D+00 0.101D+01
 Coeff:      0.617D-05-0.389D-05 0.564D-04-0.441D-05 0.170D-03-0.300D-03
 Coeff:     -0.182D-02 0.289D-02 0.847D-02 0.391D-02-0.234D-01-0.115D+00
 Coeff:      0.117D+00 0.101D+01
 Gap=     0.058 Goal=   None    Shift=    0.000
 Gap=     0.098 Goal=   None    Shift=    0.000
 RMSDP=1.85D-07 MaxDP=1.19D-05 DE=-2.69D-09 OVMax= 2.78D-05

 Cycle  15  Pass 1  IDiag  1:
 RMSU=  8.36D-08    CP:  9.06D-01  2.32D+00  6.35D-01  4.94D-01  1.01D+00
                    CP:  1.20D+00  1.25D+00  1.15D+00  1.18D+00  1.65D+00
                    CP:  1.01D+00  1.15D+00  1.29D+00  1.27D+00
 E= -244.971689094725     Delta-E=       -0.000000000367 Rises=F Damp=F
 DIIS: error= 4.16D-07 at cycle  15 NSaved=  15.
 NSaved=15 IEnMin=15 EnMin= -244.971689094725     IErMin=15 ErrMin= 4.16D-07
 ErrMax= 4.16D-07  0.00D+00 EMaxC= 1.00D-01 BMatC= 4.96D-11 BMatP= 3.69D-10
 IDIUse=1 WtCom= 1.00D+00 WtEn= 0.00D+00
 Coeff-Com: -0.119D-04 0.155D-04-0.710D-05-0.681D-06-0.363D-04 0.140D-03
 Coeff-Com:  0.827D-03-0.157D-02-0.362D-02 0.305D-02 0.118D-01 0.370D-01
 Coeff-Com: -0.156D+00-0.345D+00 0.145D+01
 Coeff:     -0.119D-04 0.155D-04-0.710D-05-0.681D-06-0.363D-04 0.140D-03
 Coeff:      0.827D-03-0.157D-02-0.362D-02 0.305D-02 0.118D-01 0.370D-01
 Coeff:     -0.156D+00-0.345D+00 0.145D+01
 Gap=     0.058 Goal=   None    Shift=    0.000
 Gap=     0.098 Goal=   None    Shift=    0.000
 RMSDP=8.79D-08 MaxDP=5.56D-06 DE=-3.67D-10 OVMax= 1.53D-05

 Cycle  16  Pass 1  IDiag  1:
 RMSU=  2.33D-08    CP:  9.06D-01  2.32D+00  6.35D-01  4.94D-01  1.01D+00
                    CP:  1.20D+00  1.25D+00  1.14D+00  1.18D+00  1.65D+00
                    CP:  1.00D+00  1.16D+00  1.32D+00  1.47D+00  1.36D+00
 E= -244.971689094789     Delta-E=       -0.000000000064 Rises=F Damp=F
 DIIS: error= 9.25D-08 at cycle  16 NSaved=  16.
 NSaved=16 IEnMin=16 EnMin= -244.971689094789     IErMin=16 ErrMin= 9.25D-08
 ErrMax= 9.25D-08  0.00D+00 EMaxC= 1.00D-01 BMatC= 3.12D-12 BMatP= 4.96D-11
 IDIUse=1 WtCom= 1.00D+00 WtEn= 0.00D+00
 Coeff-Com: -0.120D-05 0.171D-05-0.453D-05-0.462D-06-0.169D-04 0.346D-04
 Coeff-Com:  0.160D-03-0.323D-03-0.881D-03 0.358D-04 0.182D-02 0.125D-01
 Coeff-Com: -0.110D-01-0.119D+00 0.758D-01 0.104D+01
 Coeff:     -0.120D-05 0.171D-05-0.453D-05-0.462D-06-0.169D-04 0.346D-04
 Coeff:      0.160D-03-0.323D-03-0.881D-03 0.358D-04 0.182D-02 0.125D-01
 Coeff:     -0.110D-01-0.119D+00 0.758D-01 0.104D+01
 Gap=     0.058 Goal=   None    Shift=    0.000
 Gap=     0.098 Goal=   None    Shift=    0.000
 RMSDP=1.86D-08 MaxDP=8.84D-07 DE=-6.43D-11 OVMax= 2.56D-06

 Cycle  17  Pass 1  IDiag  1:
 RMSU=  6.09D-09    CP:  9.06D-01  2.32D+00  6.35D-01  4.94D-01  1.01D+00
                    CP:  1.20D+00  1.25D+00  1.14D+00  1.18D+00  1.66D+00
                    CP:  1.00D+00  1.16D+00  1.33D+00  1.48D+00  1.43D+00
                    CP:  1.25D+00
 E= -244.971689094793     Delta-E=       -0.000000000004 Rises=F Damp=F
 DIIS: error= 2.63D-08 at cycle  17 NSaved=  17.
 NSaved=17 IEnMin=17 EnMin= -244.971689094793     IErMin=17 ErrMin= 2.63D-08
 ErrMax= 2.63D-08  0.00D+00 EMaxC= 1.00D-01 BMatC= 1.91D-13 BMatP= 3.12D-12
 IDIUse=1 WtCom= 1.00D+00 WtEn= 0.00D+00
 Coeff-Com: -0.571D-06 0.760D-06 0.663D-06-0.492D-06 0.425D-05-0.109D-04
 Coeff-Com: -0.549D-04 0.910D-04 0.228D-03-0.138D-03-0.924D-03-0.239D-02
 Coeff-Com:  0.119D-01 0.174D-01-0.101D+00 0.383D-01 0.104D+01
 Coeff:     -0.571D-06 0.760D-06 0.663D-06-0.492D-06 0.425D-05-0.109D-04
 Coeff:     -0.549D-04 0.910D-04 0.228D-03-0.138D-03-0.924D-03-0.239D-02
 Coeff:      0.119D-01 0.174D-01-0.101D+00 0.383D-01 0.104D+01
 Gap=     0.058 Goal=   None    Shift=    0.000
 Gap=     0.098 Goal=   None    Shift=    0.000
 RMSDP=3.06D-09 MaxDP=1.19D-07 DE=-3.87D-12 OVMax= 5.59D-07

 SCF Done:  E(UB3LYP) =  -244.971689095     A.U. after   17 cycles
            NFock= 17  Conv=0.31D-08     -V/T= 2.0042
 <Sx>= 0.0000 <Sy>= 0.0000 <Sz>= 1.5000 <S**2>= 3.7837 S= 1.5084
 <L.S>= 0.000000000000E+00
 KE= 2.439386738520D+02 PE=-8.442963674269D+02 EE= 2.174245078265D+02
 Annihilation of the first spin contaminant:
 S**2 before annihilation     3.7837,   after     3.7505
 Leave Link  502 at Fri Aug  5 07:55:08 2016, MaxMem=    33554432 cpu:       562.0
 (Enter /home/proyectos/fulerenos/M3C-v2.0/M3C-deps_CCC/g09-AM64L-G09RevC.01/l801.exe)
 DoSCS=F DFT=T ScalE2(SS,OS)=  1.000000  1.000000
 Range of M.O.s used for correlation:     1   232
 NBasis=   234 NAE=    20 NBE=    17 NFC=     0 NFV=     0
 NROrb=    232 NOA=    20 NOB=    17 NVA=   212 NVB=   215

 **** Warning!!: The largest alpha MO coefficient is  0.12169188D+03


 **** Warning!!: The smallest alpha delta epsilon is  0.58398600D-01


 **** Warning!!: The largest beta MO coefficient is  0.12029323D+03


 **** Warning!!: The smallest beta delta epsilon is  0.98430566D-01

 Leave Link  801 at Fri Aug  5 07:55:08 2016, MaxMem=    33554432 cpu:         0.1
 (Enter /home/proyectos/fulerenos/M3C-v2.0/M3C-deps_CCC/g09-AM64L-G09RevC.01/l1101.exe)
 Using compressed storage, NAtomX=     6.
 Will process      7 centers per pass.
 Leave Link 1101 at Fri Aug  5 07:55:09 2016, MaxMem=    33554432 cpu:         1.2
 (Enter /home/proyectos/fulerenos/M3C-v2.0/M3C-deps_CCC/g09-AM64L-G09RevC.01/l1102.exe)
 Symmetrizing basis deriv contribution to polar:
 IMax=3 JMax=2 DiffMx= 0.00D+00
 Leave Link 1102 at Fri Aug  5 07:55:09 2016, MaxMem=    33554432 cpu:         0.1
 (Enter /home/proyectos/fulerenos/M3C-v2.0/M3C-deps_CCC/g09-AM64L-G09RevC.01/l1110.exe)
 Forming Gx(P) for the SCF density, NAtomX=     6.
 Integral derivatives from FoFJK, PRISM(SPDF).
 Do as many integral derivatives as possible in FoFJK.
 G2DrvN: MDV=      33554280.
 G2DrvN: will do     7 centers at a time, making    1 passes.
 Calling FoFCou, ICntrl=  3107 FMM=F I1Cent=   0 AccDes= 0.00D+00.
 FoFJK:  IHMeth= 1 ICntrl=    3107 DoSepK=F KAlg= 0 I1Cent=   0 FoldK=F
 IRaf=         0 NMat=   1 IRICut=       1 DoRegI=T DoRafI=F ISym2E= 1.
 FoFCou: FMM=F IPFlag=           0 FMFlag=      100000 FMFlg1=           0
         NFxFlg=           0 DoJE=F BraDBF=F KetDBF=F FulRan=T
         wScrn=  0.000000 ICntrl=    3107 IOpCl=  1 I1Cent=           0 NGrid=           0
         NMat0=    1 NMatS0=      1 NMatT0=    0 NMatD0=    1 NMtDS0=    0 NMtDT0=    0
 Petite list used in FoFCou.
 End of G2Drv F.D. properties file   721 does not exist.
 End of G2Drv F.D. properties file   722 does not exist.
 End of G2Drv F.D. properties file   788 does not exist.
 Leave Link 1110 at Fri Aug  5 07:56:09 2016, MaxMem=    33554432 cpu:       241.6
 (Enter /home/proyectos/fulerenos/M3C-v2.0/M3C-deps_CCC/g09-AM64L-G09RevC.01/l1002.exe)
 Minotr:  UHF open shell wavefunction.
          IDoAtm=111111
          Direct CPHF calculation.
          Differentiating once with respect to electric field.
                with respect to dipole field.
          Differentiating once with respect to nuclear coordinates.
          Using symmetry in CPHF.
          Requested convergence is 1.0D-08 RMS, and 1.0D-07 maximum.
          Secondary convergence is 1.0D-12 RMS, and 1.0D-12 maximum.
          NewPWx=T KeepS1=F KeepF1=F KeepIn=T MapXYZ=F SortEE=F KeepMc=T.
          MDV=      33553904 using IRadAn=       2.
 Generate precomputed XC quadrature information.
          Solving linear equations simultaneously, MaxMat=       0.
 FoFJK:  IHMeth= 1 ICntrl=       0 DoSepK=F KAlg= 0 I1Cent=   0 FoldK=F
 IRaf= 930000000 NMat=  21 IRICut=      52 DoRegI=T DoRafI=T ISym2E= 2.
 FoFCou: FMM=F IPFlag=           0 FMFlag=      100000 FMFlg1=           0
         NFxFlg=           0 DoJE=F BraDBF=F KetDBF=F FulRan=T
         wScrn=  0.000000 ICntrl=       0 IOpCl=  1 I1Cent=           0 NGrid=           0
         NMat0=   21 NMatS0=     21 NMatT0=    0 NMatD0=   21 NMtDS0=    0 NMtDT0=    0
 Integrals replicated using symmetry in FoFCou.
          There are    21 degrees of freedom in the 1st order CPHF.  IDoFFX=6 NUNeed=     3.
     18 vectors produced by pass  0 Test12= 3.76D-14 4.76D-09 XBig12= 1.23D+03 2.11D+01.
 AX will form    18 AO Fock derivatives at one time.
     18 vectors produced by pass  1 Test12= 3.76D-14 4.76D-09 XBig12= 5.35D+02 6.20D+00.
     18 vectors produced by pass  2 Test12= 3.76D-14 4.76D-09 XBig12= 2.20D+01 1.07D+00.
     18 vectors produced by pass  3 Test12= 3.76D-14 4.76D-09 XBig12= 1.30D+00 2.38D-01.
     18 vectors produced by pass  4 Test12= 3.76D-14 4.76D-09 XBig12= 3.32D-02 5.99D-02.
     18 vectors produced by pass  5 Test12= 3.76D-14 4.76D-09 XBig12= 5.98D-04 6.74D-03.
     18 vectors produced by pass  6 Test12= 3.76D-14 4.76D-09 XBig12= 6.36D-06 4.58D-04.
     14 vectors produced by pass  7 Test12= 3.76D-14 4.76D-09 XBig12= 8.49D-08 5.88D-05.
      8 vectors produced by pass  8 Test12= 3.76D-14 4.76D-09 XBig12= 1.13D-09 5.42D-06.
      5 vectors produced by pass  9 Test12= 3.76D-14 4.76D-09 XBig12= 6.70D-12 3.52D-07.
      1 vectors produced by pass 10 Test12= 3.76D-14 4.76D-09 XBig12= 2.05D-13 1.06D-07.
      1 vectors produced by pass 11 Test12= 3.76D-14 4.76D-09 XBig12= 6.13D-16 4.78D-09.
 InvSVY:  IOpt=1 It=  1 EMax= 1.42D-14
 Solved reduced A of dimension   155 with    21 vectors.
 FullF1:  Do perturbations    1 to     3.
 Isotropic polarizability for W=    0.000000       93.84 Bohr**3.
 End of Minotr F.D. properties file   721 does not exist.
 End of Minotr F.D. properties file   722 does not exist.
 End of Minotr F.D. properties file   788 does not exist.
 Leave Link 1002 at Fri Aug  5 07:59:54 2016, MaxMem=    33554432 cpu:       893.3
 (Enter /home/proyectos/fulerenos/M3C-v2.0/M3C-deps_CCC/g09-AM64L-G09RevC.01/l601.exe)
 Copying SCF densities to generalized density rwf, IOpCl= 1 IROHF=0.

 **********************************************************************

            Population analysis using the SCF density.

 **********************************************************************

 Orbital symmetries:
 Alpha Orbitals:
       Occupied  (SG) (SG) (SG) (SG) (SG) (SG) (SG) (SG) (SG) (SG)
                 (SG) (PI) (PI) (PI) (PI) (SG) (SG) (?A) (?A) (PI)
       Virtual   (PI) (?A) (?A) (SG) (SG) (?A) (?A) (SG) (PI) (PI)
                 (SG) (PI) (PI) (SG) (SG) (?B) (?B) (?B) (?B) (SG)
                 (SG) (?C) (?C) (?C) (PI) (PI) (PI) (PI) (?D) (?D)
                 (?D) (?D) (SG) (DLTA) (DLTA) (SG) (SG) (SG) (?E)
                 (?E) (PI) (PI) (?E) (PI) (PI) (PI) (PI) (PI) (PI)
                 (SG) (PI) (PI) (?F) (?F) (?F) (PI) (PI) (SG) (SG)
                 (PI) (PI) (SG) (?G) (?G) (?G) (PI) (PI) (SG) (PI)
                 (PI) (SG) (PI) (PI) (PI) (PI) (SG) (SG) (SG) (?H)
                 (?H) (?H) (PI) (PI) (?I) (?I) (?I) (SG) (SG) (DLTA)
                 (DLTA) (PI) (PI) (DLTA) (DLTA) (SG) (PI) (PI)
                 (?J) (?J) (?J) (PI) (PI) (PI) (PI) (SG) (SG) (DLTA)
                 (DLTA) (PI) (PI) (DLTA) (DLTA) (PHI) (PHI) (SG)
                 (PHI) (PHI) (PI) (PI) (DLTA) (DLTA) (PHI) (PHI)
                 (PI) (PI) (PI) (PI) (PHI) (PHI) (SG) (SG) (PI)
                 (PI) (DLTA) (DLTA) (PI) (PI) (PHI) (PHI) (PI)
                 (PI) (SG) (PI) (PI) (SG) (SG) (DLTA) (DLTA) (SG)
                 (PHI) (PHI) (SG) (PI) (PI) (SG) (?K) (?K) (?K)
                 (SG) (PI) (PI) (PI) (PI) (SG) (DLTA) (DLTA) (PI)
                 (PI) (SG) (SG) (SG) (PI) (PI) (PI) (PI) (DLTA)
                 (DLTA) (DLTA) (DLTA) (DLTA) (DLTA) (DLTA) (DLTA)
                 (?L) (?L) (?L) (PI) (PI) (PI) (PI) (PI) (PI) (SG)
                 (PI) (PI) (SG) (PI) (PI) (SG) (SG) (SG) (DLTA)
                 (DLTA) (PI) (PI) (SG) (SG) (SG) (SG) (SG) (SG)
                 (SG)
 Beta  Orbitals:
       Occupied  (SG) (SG) (SG) (SG) (SG) (SG) (SG) (SG) (SG) (SG)
                 (SG) (PI) (PI) (PI) (PI) (SG) (SG)
       Virtual   (PI) (PI) (PI) (PI) (SG) (?A) (?A) (SG) (?A) (?A)
                 (SG) (PI) (PI) (SG) (PI) (PI) (SG) (SG) (?A) (?A)
                 (?A) (SG) (?A) (SG) (PI) (PI) (?B) (?B) (?B) (PI)
                 (PI) (SG) (?C) (?C) (?C) (?C) (?D) (?D) (?D) (?D)
                 (?D) (?D) (?D) (PI) (?D) (PI) (PI) (PI) (PI) (PI)
                 (PI) (PI) (SG) (PI) (PI) (?E) (?E) (?E) (PI) (SG)
                 (PI) (SG) (PI) (PI) (SG) (DLTA) (DLTA) (SG) (PI)
                 (PI) (SG) (PI) (PI) (SG) (PI) (PI) (SG) (PI) (PI)
                 (SG) (SG) (SG) (DLTA) (DLTA) (PI) (PI) (SG) (?C)
                 (?C) (?C) (?C) (DLTA) (DLTA) (PI) (PI) (DLTA)
                 (DLTA) (SG) (PI) (PI) (?F) (?F) (?F) (PI) (PI)
                 (PI) (PI) (SG) (SG) (DLTA) (DLTA) (PI) (PI) (DLTA)
                 (DLTA) (PHI) (PHI) (SG) (?G) (?G) (?G) (?G) (DLTA)
                 (DLTA) (?H) (?H) (?H) (?H) (?H) (?H) (SG) (?H)
                 (?H) (SG) (?H) (?H) (PI) (DLTA) (DLTA) (PI) (PHI)
                 (PHI) (PI) (SG) (PI) (PI) (?I) (PI) (?I) (?I)
                 (?I) (?I) (PHI) (PHI) (SG) (PI) (PI) (?J) (SG)
                 (?J) (?J) (SG) (PI) (PI) (PI) (PI) (SG) (DLTA)
                 (DLTA) (PI) (PI) (SG) (SG) (SG) (PI) (PI) (PI)
                 (PI) (DLTA) (DLTA) (DLTA) (DLTA) (?K) (?K) (?K)
                 (?K) (?K) (?K) (?K) (PI) (PI) (PI) (PI) (PI) (PI)
                 (SG) (PI) (PI) (SG) (PI) (PI) (SG) (SG) (SG) (DLTA)
                 (DLTA) (PI) (PI) (SG) (SG) (SG) (SG) (SG) (SG)
                 (SG)
 Unable to determine electronic state:  an orbital has unidentified symmetry.
 Alpha  occ. eigenvalues --  -14.44332 -10.34087 -10.28672 -10.27326 -10.26402
 Alpha  occ. eigenvalues --  -10.26001  -1.05871  -0.88915  -0.83958  -0.77362
 Alpha  occ. eigenvalues --   -0.68256  -0.51722  -0.51288  -0.41859  -0.41004
 Alpha  occ. eigenvalues --   -0.37958  -0.33903  -0.31908  -0.30442  -0.19971
 Alpha virt. eigenvalues --   -0.14131  -0.03867  -0.02599  -0.01573   0.02682
 Alpha virt. eigenvalues --    0.03396   0.03486   0.05347   0.06081   0.06093
 Alpha virt. eigenvalues --    0.06855   0.10157   0.10363   0.10767   0.11448
 Alpha virt. eigenvalues --    0.11500   0.12498   0.15618   0.15626   0.16620
 Alpha virt. eigenvalues --    0.17179   0.20863   0.20874   0.21085   0.21324
 Alpha virt. eigenvalues --    0.21365   0.22612   0.22627   0.24606   0.27023
 Alpha virt. eigenvalues --    0.27048   0.27629   0.29205   0.33794   0.33823
 Alpha virt. eigenvalues --    0.34966   0.41900   0.42474   0.44657   0.44682
 Alpha virt. eigenvalues --    0.44743   0.44806   0.45673   0.47088   0.47270
 Alpha virt. eigenvalues --    0.50355   0.50365   0.52430   0.52443   0.54068
 Alpha virt. eigenvalues --    0.59493   0.59779   0.61217   0.61227   0.62169
 Alpha virt. eigenvalues --    0.65788   0.65819   0.66927   0.68252   0.69097
 Alpha virt. eigenvalues --    0.69337   0.77693   0.80085   0.80099   0.80838
 Alpha virt. eigenvalues --    0.85833   0.85897   0.89518   0.97376   0.97506
 Alpha virt. eigenvalues --    1.01791   1.06560   1.06623   1.14315   1.14421
 Alpha virt. eigenvalues --    1.14490   1.20698   1.27185   1.31530   1.33214
 Alpha virt. eigenvalues --    1.33251   1.37620   1.37828   1.43229   1.44195
 Alpha virt. eigenvalues --    1.44246   1.46321   1.48452   1.53572   1.53666
 Alpha virt. eigenvalues --    1.58116   1.58150   1.59706   1.59794   1.66757
 Alpha virt. eigenvalues --    1.71925   1.72038   1.79359   1.79481   1.79531
 Alpha virt. eigenvalues --    1.83544   1.83719   1.97866   1.97970   2.04462
 Alpha virt. eigenvalues --    2.27842   2.33823   2.33832   2.38169   2.38213
 Alpha virt. eigenvalues --    2.42496   2.42523   2.49684   2.49687   2.53028
 Alpha virt. eigenvalues --    2.63621   2.63625   2.66371   2.66657   2.70956
 Alpha virt. eigenvalues --    2.70990   2.73327   2.73336   2.75037   2.75601
 Alpha virt. eigenvalues --    2.79949   2.80339   2.82724   2.82732   2.82826
 Alpha virt. eigenvalues --    2.90799   2.92422   2.92773   2.99838   2.99882
 Alpha virt. eigenvalues --    3.00397   3.00630   3.04837   3.04841   3.10518
 Alpha virt. eigenvalues --    3.10743   3.12670   3.29195   3.29215   3.29507
 Alpha virt. eigenvalues --    3.38082   3.40597   3.40636   3.50027   3.56622
 Alpha virt. eigenvalues --    3.56623   3.70394   3.78352   3.78369   3.92240
 Alpha virt. eigenvalues --    4.03805   4.04583   4.04620   4.11095   4.21971
 Alpha virt. eigenvalues --    4.22300   4.40616   4.40621   4.51414   4.66000
 Alpha virt. eigenvalues --    4.66024   5.08520   5.08584   5.19820   5.28712
 Alpha virt. eigenvalues --    5.73529   5.80994   5.81107   6.75646   6.75703
 Alpha virt. eigenvalues --    6.81140   6.81185   6.87755   6.87850   6.90642
 Alpha virt. eigenvalues --    6.90762   6.97156   6.97257   7.03474   7.04806
 Alpha virt. eigenvalues --    7.04856   7.20043   7.20755   7.24352   7.24942
 Alpha virt. eigenvalues --    7.35833   7.36318   7.41614   7.43160   7.43376
 Alpha virt. eigenvalues --    7.60651   7.68559   7.68797   7.92693   8.53256
 Alpha virt. eigenvalues --    8.90123  10.09631  10.09634  10.87580  10.87796
 Alpha virt. eigenvalues --   11.27145  24.30373  25.15347  25.47503  26.00748
 Alpha virt. eigenvalues --   26.53412  36.98185
  Beta  occ. eigenvalues --  -14.44562 -10.32711 -10.27516 -10.27062 -10.25903
  Beta  occ. eigenvalues --  -10.24546  -1.04712  -0.86243  -0.81126  -0.74075
  Beta  occ. eigenvalues --   -0.65822  -0.49094  -0.48458  -0.38412  -0.37437
  Beta  occ. eigenvalues --   -0.35447  -0.31037
  Beta virt. eigenvalues --   -0.21194  -0.20064  -0.10018  -0.08402  -0.01379
  Beta virt. eigenvalues --   -0.00178   0.00518   0.02969   0.04294   0.04844
  Beta virt. eigenvalues --    0.05660   0.06581   0.06801   0.07014   0.10797
  Beta virt. eigenvalues --    0.11111   0.11167   0.13706   0.14317   0.14756
  Beta virt. eigenvalues --    0.16670   0.16779   0.17359   0.17921   0.21413
  Beta virt. eigenvalues --    0.21601   0.21602   0.21841   0.21858   0.23256
  Beta virt. eigenvalues --    0.23653   0.25844   0.28009   0.28234   0.28319
  Beta virt. eigenvalues --    0.30238   0.35352   0.35480   0.35653   0.42597
  Beta virt. eigenvalues --    0.43742   0.45728   0.45757   0.45827   0.46315
  Beta virt. eigenvalues --    0.46438   0.48538   0.49174   0.51059   0.51517
  Beta virt. eigenvalues --    0.53252   0.53827   0.54482   0.60161   0.60855
  Beta virt. eigenvalues --    0.61710   0.61741   0.62771   0.66945   0.67625
  Beta virt. eigenvalues --    0.67684   0.69515   0.70774   0.71606   0.78219
  Beta virt. eigenvalues --    0.80602   0.80611   0.81905   0.86551   0.87258
  Beta virt. eigenvalues --    0.91145   0.98540   0.99125   1.03188   1.07806
  Beta virt. eigenvalues --    1.08604   1.15817   1.16018   1.16757   1.21459
  Beta virt. eigenvalues --    1.28451   1.33279   1.36004   1.36009   1.37932
  Beta virt. eigenvalues --    1.38354   1.44196   1.47917   1.48885   1.48888
  Beta virt. eigenvalues --    1.49429   1.58163   1.58164   1.59310   1.60148
  Beta virt. eigenvalues --    1.64282   1.64284   1.67426   1.73855   1.74951
  Beta virt. eigenvalues --    1.80661   1.82383   1.82385   1.85120   1.86221
  Beta virt. eigenvalues --    1.99471   2.00434   2.06823   2.29457   2.34135
  Beta virt. eigenvalues --    2.34138   2.39710   2.40658   2.44663   2.44664
  Beta virt. eigenvalues --    2.52354   2.52354   2.55017   2.67618   2.68066
  Beta virt. eigenvalues --    2.68068   2.68637   2.73675   2.73686   2.77579
  Beta virt. eigenvalues --    2.77717   2.78086   2.79225   2.82296   2.83559
  Beta virt. eigenvalues --    2.84175   2.87433   2.87441   2.92231   2.95337
  Beta virt. eigenvalues --    2.96796   3.02100   3.02527   3.02547   3.02705
  Beta virt. eigenvalues --    3.07730   3.07731   3.13821   3.13850   3.14830
  Beta virt. eigenvalues --    3.30858   3.31124   3.31938   3.39921   3.43563
  Beta virt. eigenvalues --    3.43563   3.52098   3.56854   3.56854   3.71848
  Beta virt. eigenvalues --    3.80059   3.81116   3.93451   4.05300   4.06695
  Beta virt. eigenvalues --    4.06716   4.12483   4.21844   4.22092   4.42167
  Beta virt. eigenvalues --    4.43171   4.52179   4.67675   4.67680   5.10113
  Beta virt. eigenvalues --    5.11016   5.20840   5.30285   5.75590   5.82151
  Beta virt. eigenvalues --    5.82956   6.77230   6.78100   6.85905   6.85910
  Beta virt. eigenvalues --    6.93462   6.93476   6.96503   6.96516   7.02343
  Beta virt. eigenvalues --    7.02380   7.05439   7.07700   7.07739   7.22536
  Beta virt. eigenvalues --    7.23760   7.27061   7.28257   7.36873   7.37925
  Beta virt. eigenvalues --    7.43690   7.45618   7.46344   7.62757   7.70326
  Beta virt. eigenvalues --    7.71139   7.93886   8.54388   8.90856  10.08959
  Beta virt. eigenvalues --   10.08962  10.87322  10.87445  11.26731  24.31536
  Beta virt. eigenvalues --   25.16800  25.48869  26.01907  26.54048  36.97993
          Condensed to atoms (all electrons):
               1          2          3          4          5          6
     1  N    8.033607   0.235742  -0.331375   0.013796   0.005346  -0.066436
     2  C    0.235742   6.761447  -0.792530  -0.101598  -0.384937  -0.151994
     3  C   -0.331375  -0.792530   7.388970  -0.158921  -0.324402   0.009635
     4  C    0.013796  -0.101598  -0.158921   8.753632  -3.398276   0.002173
     5  C    0.005346  -0.384937  -0.324402  -3.398276  10.769480  -0.007057
     6  C   -0.066436  -0.151994   0.009635   0.002173  -0.007057   6.194534
          Atomic-Atomic Spin Densities.
               1          2          3          4          5          6
     1  N   -0.136646   0.021670  -0.040624  -0.002062   0.001889   0.053401
     2  C    0.021670   0.765893  -0.082800  -0.039921  -0.030372  -0.038540
     3  C   -0.040624  -0.082800   0.450272   0.160379   0.030478  -0.006642
     4  C   -0.002062  -0.039921   0.160379   0.550565  -0.214411   0.003439
     5  C    0.001889  -0.030372   0.030478  -0.214411   1.025654   0.000022
     6  C    0.053401  -0.038540  -0.006642   0.003439   0.000022   0.712449
 Mulliken charges and spin densities:
               1          2
     1  N   -0.890680  -0.102372
     2  C    0.433871   0.595931
     3  C    0.208623   0.511063
     4  C    0.889195   0.457989
     5  C   -0.660153   0.813261
     6  C    0.019145   0.724129
 Sum of Mulliken charges =  -0.00000   3.00000
 Mulliken charges and spin densities with hydrogens summed into heavy atoms:
               1          2
     1  N   -0.890680  -0.102372
     2  C    0.433871   0.595931
     3  C    0.208623   0.511063
     4  C    0.889195   0.457989
     5  C   -0.660153   0.813261
     6  C    0.019145   0.724129
 APT charges:
               1
     1  N    0.070487
     2  C    0.387008
     3  C   -0.401741
     4  C    0.217252
     5  C   -0.102891
     6  C   -0.170114
 Sum of APT charges =  -0.00000
 APT charges with hydrogens summed into heavy atoms:
               1
     1  N    0.070487
     2  C    0.387008
     3  C   -0.401741
     4  C    0.217252
     5  C   -0.102891
     6  C   -0.170114
 Electronic spatial extent (au):  <R**2>=            712.9948
 Charge=             -0.0000 electrons
 Dipole moment (field-independent basis, Debye):
    X=              0.0000    Y=              0.0000    Z=              1.2728  Tot=              1.2728
 Quadrupole moment (field-independent basis, Debye-Ang):
   XX=            -32.1740   YY=            -33.9020   ZZ=            -56.8130
   XY=              0.0000   XZ=              0.0000   YZ=              0.0000
 Traceless Quadrupole moment (field-independent basis, Debye-Ang):
   XX=              8.7890   YY=              7.0610   ZZ=            -15.8500
   XY=              0.0000   XZ=              0.0000   YZ=              0.0000
 Octapole moment (field-independent basis, Debye-Ang**2):
  XXX=              0.0000  YYY=              0.0000  ZZZ=             27.8398  XYY=              0.0000
  XXY=              0.0000  XXZ=              3.1232  XZZ=              0.0000  YZZ=              0.0000
  YYZ=              3.7635  XYZ=              0.0000
 Hexadecapole moment (field-independent basis, Debye-Ang**3):
 XXXX=            -35.4570 YYYY=            -39.0278 ZZZZ=          -1524.6112 XXXY=              0.0000
 XXXZ=              0.0000 YYYX=              0.0000 YYYZ=              0.0000 ZZZX=              0.0000
 ZZZY=              0.0000 XXYY=            -12.4137 XXZZ=           -177.7936 YYZZ=           -192.7440
 XXYZ=              0.0000 YYXZ=              0.0000 ZZXY=              0.0000
 N-N= 1.379614966537D+02 E-N=-8.442963675438D+02  KE= 2.439386738520D+02
 Symmetry A1   KE= 2.294156660207D+02
 Symmetry A2   KE= 1.434229370646D-35
 Symmetry B1   KE= 6.531256697705D+00
 Symmetry B2   KE= 7.991751133653D+00
  Exact polarizability:  40.709   0.000  41.688  -0.000  -0.000 199.131
 Approx polarizability:  57.764  -0.000  55.955  -0.000  -0.000 431.175
                          Isotropic Fermi Contact Couplings
        Atom                 a.u.       MegaHertz       Gauss      10(-4) cm-1
     1  N(14)             -0.06173      -6.64788      -2.37213      -2.21750
     2  C(13)              0.02875      10.77229       3.84382       3.59325
     3  C(13)             -0.04706     -17.63484      -6.29255      -5.88235
     4  C(13)             -0.01785      -6.68886      -2.38675      -2.23116
     5  C(13)              0.03981      14.91883       5.32341       4.97638
     6  C(13)              0.03638      13.63101       4.86388       4.54681
 --------------------------------------------------------
       Center         ----  Spin Dipole Couplings  ----
                      3XX-RR        3YY-RR        3ZZ-RR
 --------------------------------------------------------
     1   Atom       -0.029266     -0.131859      0.161125
     2   Atom        0.130535      0.453271     -0.583806
     3   Atom       -0.246346      0.340641     -0.094295
     4   Atom        0.122341      0.050853     -0.173195
     5   Atom       -0.106772      0.764654     -0.657882
     6   Atom       -0.116433      0.631798     -0.515365
 --------------------------------------------------------
                        XY            XZ            YZ
 --------------------------------------------------------
     1   Atom        0.000000      0.000000      0.000000
     2   Atom        0.000000      0.000000      0.000000
     3   Atom        0.000000      0.000000      0.000000
     4   Atom        0.000000      0.000000      0.000000
     5   Atom        0.000000      0.000000      0.000000
     6   Atom        0.000000      0.000000      0.000000
 --------------------------------------------------------


 ---------------------------------------------------------------------------------
              Anisotropic Spin Dipole Couplings in Principal Axis System
 ---------------------------------------------------------------------------------

       Atom             a.u.   MegaHertz   Gauss  10(-4) cm-1        Axes

              Baa    -0.1319    -5.086    -1.815    -1.696 -0.0000  1.0000  0.0000
     1 N(14)  Bbb    -0.0293    -1.129    -0.403    -0.377  1.0000  0.0000  0.0000
              Bcc     0.1611     6.214     2.217     2.073  0.0000  0.0000  1.0000
 
              Baa    -0.5838   -78.341   -27.954   -26.132  0.0000  0.0000  1.0000
     2 C(13)  Bbb     0.1305    17.517     6.250     5.843  1.0000  0.0000  0.0000
              Bcc     0.4533    60.825    21.704    20.289 -0.0000  1.0000  0.0000
 
              Baa    -0.2463   -33.057   -11.796   -11.027  1.0000  0.0000  0.0000
     3 C(13)  Bbb    -0.0943   -12.653    -4.515    -4.221  0.0000  0.0000  1.0000
              Bcc     0.3406    45.711    16.311    15.247 -0.0000  1.0000  0.0000
 
              Baa    -0.1732   -23.241    -8.293    -7.752  0.0000  0.0000  1.0000
     4 C(13)  Bbb     0.0509     6.824     2.435     2.276 -0.0000  1.0000  0.0000
              Bcc     0.1223    16.417     5.858     5.476  1.0000  0.0000  0.0000
 
              Baa    -0.6579   -88.281   -31.501   -29.448  0.0000  0.0000  1.0000
     5 C(13)  Bbb    -0.1068   -14.328    -5.113    -4.779  1.0000  0.0000  0.0000
              Bcc     0.7647   102.609    36.614    34.227 -0.0000  1.0000  0.0000
 
              Baa    -0.5154   -69.157   -24.677   -23.068  0.0000  0.0000  1.0000
     6 C(13)  Bbb    -0.1164   -15.624    -5.575    -5.212  1.0000  0.0000  0.0000
              Bcc     0.6318    84.781    30.252    28.280 -0.0000  1.0000  0.0000
 

 ---------------------------------------------------------------------------------

 No NMR shielding tensors so no spin-rotation constants.
 Leave Link  601 at Fri Aug  5 07:59:55 2016, MaxMem=    33554432 cpu:         3.3
 (Enter /home/proyectos/fulerenos/M3C-v2.0/M3C-deps_CCC/g09-AM64L-G09RevC.01/l701.exe)
 Compute integral second derivatives.
 ... and contract with generalized density number  0.
 Leave Link  701 at Fri Aug  5 07:59:56 2016, MaxMem=    33554432 cpu:         1.7
 (Enter /home/proyectos/fulerenos/M3C-v2.0/M3C-deps_CCC/g09-AM64L-G09RevC.01/l702.exe)
 L702 exits ... SP integral derivatives will be done elsewhere.
 Leave Link  702 at Fri Aug  5 07:59:56 2016, MaxMem=    33554432 cpu:         0.1
 (Enter /home/proyectos/fulerenos/M3C-v2.0/M3C-deps_CCC/g09-AM64L-G09RevC.01/l703.exe)
 Compute integral second derivatives, UseDBF=F ICtDFT=           0.
 Integral derivatives from FoFJK, PRISM(SPDF).
 Calling FoFJK, ICntrl=    100127 FMM=F ISym2X=1 I1Cent= 0 IOpClX= 1 NMat=1 NMatS=1 NMatT=0.
 FoFJK:  IHMeth= 1 ICntrl=  100127 DoSepK=F KAlg= 0 I1Cent=   0 FoldK=F
 IRaf=         0 NMat=   1 IRICut=       1 DoRegI=T DoRafI=F ISym2E= 1.
 FoFCou: FMM=F IPFlag=           0 FMFlag=      100000 FMFlg1=         800
         NFxFlg=           0 DoJE=F BraDBF=F KetDBF=F FulRan=T
         wScrn=  0.000000 ICntrl=  100127 IOpCl=  1 I1Cent=           0 NGrid=           0
         NMat0=    1 NMatS0=      1 NMatT0=    0 NMatD0=    1 NMtDS0=    0 NMtDT0=    0
 Petite list used in FoFCou.
 Leave Link  703 at Fri Aug  5 08:02:00 2016, MaxMem=    33554432 cpu:       464.7
 (Enter /home/proyectos/fulerenos/M3C-v2.0/M3C-deps_CCC/g09-AM64L-G09RevC.01/l716.exe)
 Dipole        = 0.00000000D+00 0.00000000D+00 5.00745072D-01
 Polarizability= 4.07088994D+01 3.11080778D-08 4.16876129D+01
                -1.26162572D-07-3.37052801D-10 1.99130566D+02
 Full mass-weighted force constant matrix:
 Low frequencies --- -174.9842    0.0005    0.0009    0.0009    2.1133    2.7516
 Low frequencies ---   73.6445  100.6198  201.6526
 ******    1 imaginary frequencies (negative Signs) ****** 
 Diagonal vibrational polarizability:
       51.2452375      25.5394570       1.5381682
 Harmonic frequencies (cm**-1), IR intensities (KM/Mole), Raman scattering
 activities (A**4/AMU), depolarization ratios for plane and unpolarized
 incident light, reduced masses (AMU), force constants (mDyne/A),
 and normal coordinates:
                      1                      2                      3
                     ?A                     ?A                     ?A
 Frequencies --   -174.9842                73.6443               100.6197
 Red. masses --     12.1220                12.0006                12.0046
 Frc consts  --      0.2187                 0.0383                 0.0716
 IR Inten    --      2.7057                 3.4700                18.5508
  Atom  AN      X      Y      Z        X      Y      Z        X      Y      Z
     1   7     0.00  -0.25   0.00    -0.00  -0.02  -0.00    -0.05  -0.00  -0.00
     2   6    -0.00   0.89   0.00    -0.00   0.18   0.00    -0.36  -0.00  -0.00
     3   6     0.00  -0.33  -0.00    -0.00   0.74  -0.00    -0.45  -0.00   0.00
     4   6     0.00  -0.08  -0.00    -0.00   0.02   0.00    -0.24  -0.00   0.00
     5   6    -0.00  -0.03   0.00     0.00  -0.51   0.00     0.60   0.00   0.00
     6   6    -0.00  -0.16  -0.00     0.00  -0.40  -0.00     0.50   0.00  -0.00
                      4                      5                      6
                     ?A                     ?A                     ?A
 Frequencies --    201.6522               284.3636               320.8075
 Red. masses --     12.3279                13.1279                12.0004
 Frc consts  --      0.2954                 0.6255                 0.7277
 IR Inten    --      0.5510                 3.3737                18.4356
  Atom  AN      X      Y      Z        X      Y      Z        X      Y      Z
     1   7    -0.40   0.00  -0.00     0.00   0.75   0.00     0.00   0.01  -0.00
     2   6    -0.43  -0.00  -0.00     0.00   0.03  -0.00    -0.00  -0.06  -0.00
     3   6     0.19  -0.00   0.00    -0.00  -0.26   0.00    -0.00  -0.32  -0.00
     4   6     0.57  -0.00   0.00    -0.00  -0.10   0.00     0.00   0.83  -0.00
     5   6    -0.30   0.00   0.00     0.00   0.06  -0.00    -0.00  -0.44   0.00
     6   6     0.45  -0.00  -0.00    -0.00  -0.59  -0.00     0.00  -0.02   0.00
                      7                      8                      9
                     ?A                     ?A                     SG
 Frequencies --    373.7254               466.7334               651.2873
 Red. masses --     12.6771                12.1912                12.3619
 Frc consts  --      1.0432                 1.5647                 3.0894
 IR Inten    --      4.7696                 5.2797                 0.0034
  Atom  AN      X      Y      Z        X      Y      Z        X      Y      Z
     1   7     0.58  -0.00   0.00    -0.31  -0.00  -0.00     0.00   0.00  -0.43
     2   6    -0.36  -0.00   0.00     0.63   0.00  -0.00    -0.00   0.00  -0.17
     3   6    -0.46   0.00  -0.00    -0.63  -0.00   0.00    -0.00  -0.00   0.15
     4   6     0.50  -0.00  -0.00     0.33   0.00   0.00     0.00  -0.00   0.36
     5   6    -0.11   0.00  -0.00    -0.06  -0.00   0.00    -0.00   0.00   0.64
     6   6    -0.24   0.00   0.00     0.09   0.00  -0.00    -0.00   0.00  -0.48
                     10                     11                     12
                     SG                     SG                     SG
 Frequencies --   1111.9940              1517.1143              1701.8867
 Red. masses --     12.0108                12.6084                12.3555
 Frc consts  --      8.7503                17.0980                21.0849
 IR Inten    --     26.6417                37.9306                 4.7546
  Atom  AN      X      Y      Z        X      Y      Z        X      Y      Z
     1   7    -0.00   0.00  -0.07    -0.00  -0.00  -0.55    -0.00   0.00  -0.42
     2   6     0.00  -0.00  -0.18    -0.00   0.00  -0.28     0.00  -0.00   0.67
     3   6    -0.00  -0.00  -0.47     0.00  -0.00   0.30    -0.00  -0.00   0.30
     4   6     0.00  -0.00  -0.36    -0.00  -0.00   0.28     0.00  -0.00  -0.53
     5   6    -0.00   0.00   0.60     0.00   0.00  -0.27    -0.00   0.00   0.07
     6   6    -0.00  -0.00   0.50     0.00   0.00   0.61     0.00   0.00  -0.02
                     13
                     SG
 Frequencies --   2151.1427
 Red. masses --     12.1063
 Frc consts  --     33.0066
 IR Inten    --     80.8981
  Atom  AN      X      Y      Z
     1   7     0.00  -0.00   0.23
     2   6     0.00  -0.00  -0.52
     3   6    -0.00   0.00   0.65
     4   6     0.00   0.00  -0.48
     5   6    -0.00  -0.00   0.13
     6   6    -0.00   0.00  -0.04

 -------------------
 - Thermochemistry -
 -------------------
 Temperature   298.150 Kelvin.  Pressure   1.00000 Atm.
 Atom     1 has atomic number  7 and mass  14.00307
 Atom     2 has atomic number  6 and mass  12.00000
 Atom     3 has atomic number  6 and mass  12.00000
 Atom     4 has atomic number  6 and mass  12.00000
 Atom     5 has atomic number  6 and mass  12.00000
 Atom     6 has atomic number  6 and mass  12.00000
 Molecular mass:    74.00307 amu.
 Principal axes and moments of inertia in atomic units:
                           1         2         3
     Eigenvalues --     0.000001243.297621243.29762
           X            0.00000  -0.00000   1.00000
           Y            0.00000   1.00000   0.00000
           Z            1.00000   0.00000   0.00000
 This molecule is a prolate symmetric top.
 Rotational symmetry number  1.
 Warning -- assumption of classical behavior for rotation
           may cause significant error
 Rotational temperature (Kelvin)      0.06966
 Rotational constant (GHZ):           1.451576
    1 imaginary frequencies ignored.
 Zero-point vibrational energy      53562.6 (Joules/Mol)
                                   12.80177 (Kcal/Mol)
 Warning -- explicit consideration of   7 degrees of freedom as
           vibrations may cause significant error
 Vibrational temperatures:    105.96   144.77   290.13   409.14   461.57
          (Kelvin)            537.71   671.52   937.06  1599.91  2182.79
                             2448.63  3095.01
 
 Zero-point correction=                           0.020401 (Hartree/Particle)
 Thermal correction to Energy=                    0.026424
 Thermal correction to Enthalpy=                  0.027369
 Thermal correction to Gibbs Free Energy=        -0.008201
 Sum of electronic and zero-point Energies=           -244.951288
 Sum of electronic and thermal Energies=              -244.945265
 Sum of electronic and thermal Enthalpies=            -244.944320
 Sum of electronic and thermal Free Energies=         -244.979890
 
                     E (Thermal)             CV                S
                      KCal/Mol        Cal/Mol-Kelvin    Cal/Mol-Kelvin
 Total                   16.582             18.216             74.863
 Electronic               0.000              0.000              2.755
 Translational            0.889              2.981             38.821
 Rotational               0.592              1.987             18.604
 Vibrational             15.100             13.248             14.684
 Vibration     1          0.599              1.966              4.054
 Vibration     2          0.604              1.949              3.442
 Vibration     3          0.639              1.838              2.118
 Vibration     4          0.683              1.703              1.507
 Vibration     5          0.706              1.634              1.306
 Vibration     6          0.745              1.526              1.064
 Vibration     7          0.824              1.324              0.747
                       Q            Log10(Q)             Ln(Q)
 Total Bot       0.591821D+04          3.772191          8.685790
 Total V=0       0.143201D+14         13.155945         30.292682
 Vib (Bot)       0.138159D-07         -7.859622        -18.097448
 Vib (Bot)    1  0.279911D+01          0.447020          1.029301
 Vib (Bot)    2  0.203939D+01          0.309501          0.712653
 Vib (Bot)    3  0.988181D+00         -0.005163         -0.011889
 Vib (Bot)    4  0.674547D+00         -0.170988         -0.393714
 Vib (Bot)    5  0.585684D+00         -0.232337         -0.534975
 Vib (Bot)    6  0.485904D+00         -0.313450         -0.721744
 Vib (Bot)    7  0.362386D+00         -0.440829         -1.015045
 Vib (V=0)       0.334297D+02          1.524132          3.509444
 Vib (V=0)    1  0.334341D+01          0.524190          1.206993
 Vib (V=0)    2  0.259979D+01          0.414939          0.955432
 Vib (V=0)    3  0.160748D+01          0.206144          0.474665
 Vib (V=0)    4  0.133965D+01          0.126992          0.292409
 Vib (V=0)    5  0.127008D+01          0.103832          0.239081
 Vib (V=0)    6  0.119721D+01          0.078171          0.179994
 Vib (V=0)    7  0.111751D+01          0.048253          0.111107
 Electronic      0.400000D+01          0.602060          1.386294
 Translational   0.250225D+08          7.398330         17.035284
 Rotational      0.427979D+04          3.631423          8.361660
 
                                                              b3lyp opt
                                                             IR Spectrum
 
     2                          1          1                       1                                                                 
     1                          7          5                       1                          6          4    3   3 2    2     1     
     5                          0          1                       1                          5          6    7   2 8    0     07    
     1                          2          7                       2                          1          7    4   1 4    2     14    
 
     X                          X          X                       X                                     X    X   X X    X     XX    
     X                                     X                       X                                              X            X     
     X                                     X                       X                                              X            X     
     X                                     X                       X                                              X            X     
     X                                     X                       X                                              X            X     
     X                                     X                       X                                                                 
     X                                     X                       X                                                                 
     X                                     X                                                                                         
     X                                     X                                                                                         
     X                                                                                                                               
     X                                                                                                                               
     X                                                                                                                               
     X                                                                                                                               
     X                                                                                                                               
     X                                                                                                                               
     X                                                                                                                               
     X                                                                                                                               
     X                                                                                                                               
     X                                                                                                                               
     X                                                                                                                               
 
 ***** Axes restored to original set *****
 -------------------------------------------------------------------
 Center     Atomic                   Forces (Hartrees/Bohr)
 Number     Number              X              Y              Z
 -------------------------------------------------------------------
      1        7          -0.000000000   -0.000000000    0.000238946
      2        6          -0.000000000   -0.000000000    0.000015597
      3        6          -0.000000000   -0.000000000   -0.000015172
      4        6          -0.000000000   -0.000000000   -0.000302009
      5        6          -0.000000000   -0.000000000    0.000227189
      6        6          -0.000000000   -0.000000000   -0.000164551
 -------------------------------------------------------------------
 Cartesian Forces:  Max     0.000302009 RMS     0.000112415
 Z-matrix is all fixed cartesians, so copy forces.
 Force constants in Cartesian coordinates: 
                1             2             3             4             5 
      1  0.442877D-01
      2  0.000000D+00  0.245875D-01
      3  0.000000D+00  0.000000D+00  0.920830D+00
      4 -0.329935D-01  0.000000D+00  0.000000D+00  0.500997D-01
      5  0.000000D+00  0.431263D-02  0.000000D+00  0.000000D+00 -0.106853D-01
      6  0.000000D+00  0.000000D+00 -0.510190D+00  0.000000D+00  0.000000D+00
      7  0.163312D-02  0.000000D+00  0.000000D+00 -0.289629D-01  0.000000D+00
      8  0.000000D+00 -0.937743D-02  0.000000D+00  0.000000D+00  0.503572D-02
      9  0.000000D+00  0.000000D+00 -0.106795D-01  0.000000D+00  0.000000D+00
     10  0.402782D-02  0.000000D+00  0.000000D+00  0.521795D-02  0.000000D+00
     11  0.000000D+00 -0.259794D-02  0.000000D+00  0.000000D+00 -0.148294D-02
     12  0.000000D+00  0.000000D+00 -0.131966D+00  0.000000D+00  0.000000D+00
     13  0.582775D-04  0.000000D+00  0.000000D+00  0.323263D-04  0.000000D+00
     14  0.000000D+00  0.118817D-02  0.000000D+00  0.000000D+00  0.148382D-02
     15  0.000000D+00  0.000000D+00  0.114322D+00  0.000000D+00  0.000000D+00
     16 -0.170134D-01  0.000000D+00  0.000000D+00  0.660638D-02  0.000000D+00
     17  0.000000D+00 -0.181129D-01  0.000000D+00  0.000000D+00  0.133609D-02
     18  0.000000D+00  0.000000D+00 -0.382317D+00  0.000000D+00  0.000000D+00
                6             7             8             9            10 
      6  0.123930D+01
      7  0.000000D+00  0.525081D-01
      8  0.000000D+00  0.000000D+00  0.709371D-02
      9 -0.490556D+00  0.000000D+00  0.000000D+00  0.121366D+01
     10  0.000000D+00 -0.312863D-01  0.000000D+00  0.000000D+00  0.313354D-01
     11  0.000000D+00  0.000000D+00 -0.120233D-01  0.000000D+00  0.000000D+00
     12  0.241850D-01  0.000000D+00  0.000000D+00 -0.669308D+00  0.000000D+00
     13  0.000000D+00  0.449951D-02  0.000000D+00  0.000000D+00 -0.902297D-02
     14  0.000000D+00  0.000000D+00  0.515116D-02  0.000000D+00  0.000000D+00
     15 -0.841108D-01  0.000000D+00  0.000000D+00 -0.226855D-01  0.000000D+00
     16  0.000000D+00  0.160837D-02  0.000000D+00  0.000000D+00 -0.271937D-03
     17  0.000000D+00  0.000000D+00  0.412010D-02  0.000000D+00  0.000000D+00
     18 -0.178631D+00  0.000000D+00  0.000000D+00 -0.204319D-01  0.000000D+00
               11            12            13            14            15 
     11  0.326347D-01
     12  0.000000D+00  0.102162D+01
     13  0.000000D+00  0.000000D+00  0.444373D-02
     14 -0.175598D-01  0.000000D+00  0.000000D+00  0.100072D-01
     15  0.000000D+00 -0.328761D+00  0.000000D+00  0.000000D+00  0.388262D+00
     16  0.000000D+00  0.000000D+00 -0.108627D-04  0.000000D+00  0.000000D+00
     17  0.102920D-02  0.000000D+00  0.000000D+00 -0.270536D-03  0.000000D+00
     18  0.000000D+00  0.842337D-01  0.000000D+00  0.000000D+00 -0.670279D-01
               16            17            18 
     16  0.908145D-02
     17  0.000000D+00  0.118980D-01
     18  0.000000D+00  0.000000D+00  0.564174D+00
 Leave Link  716 at Fri Aug  5 08:02:01 2016, MaxMem=    33554432 cpu:         0.1
 (Enter /home/proyectos/fulerenos/M3C-v2.0/M3C-deps_CCC/g09-AM64L-G09RevC.01/l103.exe)

 GradGradGradGradGradGradGradGradGradGradGradGradGradGradGradGradGradGrad
 Berny optimization.
 Search for a local minimum.
 Step number   1 out of a maximum of    2
 All quantities printed in internal units (Hartrees-Bohrs-Radians)
 Second derivative matrix not updated -- analytic derivatives used.
 The second derivative matrix:
                          X1        Y1        Z1        X2        Y2
           X1           0.04429
           Y1          -0.00000   0.02459
           Z1           0.00000   0.00000   0.92083
           X2          -0.03299   0.00000   0.00000   0.05010
           Y2           0.00000   0.00431  -0.00000   0.00000  -0.01069
           Z2          -0.00000   0.00000  -0.51019   0.00000  -0.00000
           X3           0.00163   0.00000  -0.00000  -0.02896  -0.00000
           Y3           0.00000  -0.00938   0.00000  -0.00000   0.00504
           Z3           0.00000  -0.00000  -0.01068  -0.00000   0.00000
           X4           0.00403  -0.00000   0.00000   0.00522  -0.00000
           Y4          -0.00000  -0.00260   0.00000  -0.00000  -0.00148
           Z4           0.00000  -0.00000  -0.13197  -0.00000   0.00000
           X5           0.00006   0.00000  -0.00000   0.00003   0.00000
           Y5           0.00000   0.00119  -0.00000  -0.00000   0.00148
           Z5           0.00000   0.00000   0.11432   0.00000  -0.00000
           X6          -0.01701   0.00000  -0.00000   0.00661  -0.00000
           Y6          -0.00000  -0.01811   0.00000  -0.00000   0.00134
           Z6          -0.00000  -0.00000  -0.38232   0.00000   0.00000
                          Z2        X3        Y3        Z3        X4
           Z2           1.23930
           X3          -0.00000   0.05251
           Y3          -0.00000  -0.00000   0.00709
           Z3          -0.49056   0.00000   0.00000   1.21366
           X4           0.00000  -0.03129   0.00000  -0.00000   0.03134
           Y4          -0.00000  -0.00000  -0.01202   0.00000   0.00000
           Z4           0.02419   0.00000  -0.00000  -0.66931  -0.00000
           X5          -0.00000   0.00450  -0.00000  -0.00000  -0.00902
           Y5           0.00000  -0.00000   0.00515  -0.00000   0.00000
           Z5          -0.08411  -0.00000   0.00000  -0.02269   0.00000
           X6           0.00000   0.00161  -0.00000   0.00000  -0.00027
           Y6          -0.00000   0.00000   0.00412   0.00000   0.00000
           Z6          -0.17863   0.00000  -0.00000  -0.02043  -0.00000
                          Y4        Z4        X5        Y5        Z5
           Y4           0.03263
           Z4           0.00000   1.02162
           X5          -0.00000   0.00000   0.00444
           Y5          -0.01756  -0.00000  -0.00000   0.01001
           Z5          -0.00000  -0.32876  -0.00000   0.00000   0.38826
           X6           0.00000  -0.00000  -0.00001   0.00000  -0.00000
           Y6           0.00103   0.00000  -0.00000  -0.00027  -0.00000
           Z6          -0.00000   0.08423   0.00000   0.00000  -0.06703
                          X6        Y6        Z6
           X6           0.00908
           Y6           0.00000   0.01190
           Z6           0.00000  -0.00000   0.56417
 ITU=  0
     Eigenvalues ---   -0.01406   0.00246   0.00460   0.01898   0.04034
     Eigenvalues ---    0.04674   0.06716   0.10094   0.19845   0.56203
     Eigenvalues ---    1.09349   1.36743   2.12549
 Eigenvalue     1 is  -1.41D-02 should be greater than     0.000000 Eigenvector:
                          Y2        Y3        Y1        Y6        Y4
   1                    0.88813  -0.32950  -0.25950  -0.16744  -0.07913
                          Y5        X5        X4        X3        X6
   1                   -0.03178  -0.00000   0.00000   0.00000  -0.00000
 Angle between quadratic step and forces=  21.93 degrees.
 ClnCor:  largest displacement from symmetrization is 1.14D-11 for atom     5.
 Linear search not attempted -- first point.
 ClnCor:  largest displacement from symmetrization is 4.44D-16 for atom     1.
 B after Tr=     0.000000    0.000000    0.000002
         Rot=    1.000000    0.000000    0.000000    0.000000 Ang=   0.00 deg.
 Variable       Old X    -DE/DX   Delta X   Delta X   Delta X     New X
                                 (Linear)    (Quad)   (Total)
    X1        0.00000  -0.00000   0.00000   0.00000   0.00000   0.00000
    Y1        0.00000  -0.00000   0.00000   0.00000   0.00000   0.00000
    Z1        3.61284   0.00024   0.00000   0.00016   0.00016   3.61300
    X2        0.00000  -0.00000   0.00000  -0.00000   0.00000   0.00000
    Y2        0.00000  -0.00000   0.00000   0.00000   0.00000   0.00000
    Z2        1.28853   0.00002   0.00000   0.00003   0.00004   1.28857
    X3        0.00000  -0.00000   0.00000   0.00000   0.00000   0.00000
    Y3        0.00000  -0.00000   0.00000   0.00000   0.00000   0.00000
    Z3       -1.17822  -0.00002   0.00000  -0.00014  -0.00014  -1.17836
    X4        0.00000  -0.00000   0.00000   0.00000   0.00000   0.00000
    Y4        0.00000  -0.00000   0.00000   0.00000   0.00000   0.00000
    Z4       -3.55766  -0.00030   0.00000  -0.00026  -0.00026  -3.55792
    X5        0.00000  -0.00000   0.00000   0.00000   0.00000   0.00000
    Y5        0.00000  -0.00000   0.00000   0.00000   0.00000   0.00000
    Z5       -6.11253   0.00023   0.00000   0.00030   0.00030  -6.11223
    X6        0.00000  -0.00000   0.00000   0.00000   0.00000   0.00000
    Y6        0.00000  -0.00000   0.00000   0.00000   0.00000   0.00000
    Z6        5.94704  -0.00016   0.00000  -0.00010  -0.00010   5.94694
         Item               Value     Threshold  Converged?
 Maximum Force            0.000302     0.000450     YES
 RMS     Force            0.000112     0.000300     YES
 Maximum Displacement     0.000300     0.001800     YES
 RMS     Displacement     0.000109     0.001200     YES
 Predicted change in Energy=-1.022322D-07
 Optimization completed.
    -- Stationary point found.
 GradGradGradGradGradGradGradGradGradGradGradGradGradGradGradGradGradGrad

 Leave Link  103 at Fri Aug  5 08:02:01 2016, MaxMem=    33554432 cpu:         0.1
 (Enter /home/proyectos/fulerenos/M3C-v2.0/M3C-deps_CCC/g09-AM64L-G09RevC.01/l9999.exe)
 1\1\GINC-DEPAZ26\Freq\UB3LYP\6-311++G(3df,2p)\C5N1(4)\NAGUIRRE\05-Aug-
 2016\0\\#p b3lyp/6-311++G(3df,2p) freq symmetry=Loose\\b3lyp opt\\0,4\
 N,0.,0.,1.91183\C,0.,0.,0.681863\C,0.,0.,-0.623488\C,0.,0.,-1.882632\C
 ,0.,0.,-3.234611\C,0.,0.,3.147038\\Version=EM64L-G09RevE.01\HF=-244.97
 16891\S2=3.783725\S2-1=0.\S2A=3.750457\RMSD=3.063e-09\RMSF=1.124e-04\Z
 eroPoint=0.0204009\Thermal=0.0264245\Dipole=0.,0.,0.5007451\DipoleDeri
 v=0.077002,0.,0.,0.,0.1421841,0.,0.,0.,-0.0077248,0.2184546,0.,0.,0.,0
 .1809584,0.,0.,0.,0.7616114,-0.0446949,0.,0.,0.,-0.1189765,0.,0.,0.,-1
 .0415528,0.3408748,0.,0.,0.,0.3481353,0.,0.,0.,-0.0372549,-0.3831021,0
 .,0.,0.,-0.3430617,0.,0.,0.,0.4174902,-0.2085344,0.,0.,0.,-0.2092396,0
 .,0.,0.,-0.092569\Polar=40.7088994,0.,41.6876129,-0.0000001,0.,199.130
 5655\PG=C*V [C*(C1C1C1C1N1C1)]\NImag=1\\0.04428771,0.,0.02458746,0.,0.
 ,0.92083004,-0.03299353,0.,0.,0.05009973,0.,0.00431263,0.,0.,-0.010685
 32,0.,0.,-0.51018961,0.,0.,1.23930240,0.00163312,0.,0.,-0.02896286,0.,
 0.,0.05250813,0.,-0.00937743,0.,0.,0.00503572,0.,0.,0.00709371,0.,0.,-
 0.01067952,0.,0.,-0.49055567,0.,0.,1.21366083,0.00402782,0.,0.,0.00521
 795,0.,0.,-0.03128626,0.,0.,0.03133539,0.,-0.00259794,0.,0.,-0.0014829
 4,0.,0.,-0.01202327,0.,0.,0.03263473,0.,0.,-0.13196637,0.,0.,0.0241850
 4,0.,0.,-0.66930824,0.,0.,1.02161659,0.00005828,0.,0.,0.00003233,0.,0.
 ,0.00449951,0.,0.,-0.00902297,0.,0.,0.00444373,0.,0.00118817,0.,0.,0.0
 0148382,0.,0.,0.00515116,0.,0.,-0.01755978,0.,0.,0.01000716,0.,0.,0.11
 432244,0.,0.,-0.08411082,0.,0.,-0.02268550,0.,0.,-0.32876070,0.,0.,0.3
 8826249,-0.01701340,0.,0.,0.00660638,0.,0.,0.00160837,0.,0.,-0.0002719
 4,0.,0.,-0.00001086,0.,0.,0.00908145,0.,-0.01811289,0.,0.,0.00133609,0
 .,0.,0.00412010,0.,0.,0.00102920,0.,0.,-0.00027054,0.,0.,0.01189803,0.
 ,0.,-0.38231697,0.,0.,-0.17863134,0.,0.,-0.02043189,0.,0.,0.08423367,0
 .,0.,-0.06702790,0.,0.,0.56417443\\0.,0.,-0.00023895,0.,0.,-0.00001560
 ,0.,0.,0.00001517,0.,0.,0.00030201,0.,0.,-0.00022719,0.,0.,0.00016455\
 \\@


 A MAN IS EXACTLY AS GREAT AS THE TIDE SURGING
 BENEATH HIM.      - BISMARCK
 Job cpu time:       0 days  0 hours 36 minutes 14.0 seconds.
 File lengths (MBytes):  RWF=     66 Int=      0 D2E=      0 Chk=      5 Scr=      1
 Normal termination of Gaussian 09 at Fri Aug  5 08:02:01 2016.
