3
Energy = -129.3453709800
    C    0.026596   -0.000000    0.000000
    C   -1.284826    0.000000   -0.000000
    N    1.258229    0.000000   -0.000000

FREQUENCIES 4
252.8908
252.8908
1158.0784
2037.7658

SYMMETRY C*V
ELECTRONIC_STATE 2-SG
