3
Energy = -130.1323611600
C  1.406039000  0.006382000  0.000000000
C  0.022611000  0.016598000  0.000000000
N -1.155078000  0.028772000  0.000000000

FREQUENCIES 4
197.4710
197.4710
1108.8536
2239.2493

SYMMETRY C*V
ELECTRONIC_STATE 1-SG
