3
Energy = -130.0757278200
    N    0.000009   -0.000000   -0.000000
    C   -1.234928    0.000000    0.000000
    C    1.234919    0.000000    0.000000

FREQUENCIES 4
241.2011
405.3510
1156.2773
1318.4553

SYMMETRY D*H
ELECTRONIC_STATE 3-PIU
