3
Energy = -129.2574496900
    N    1.370519    0.052594    0.000000
    C    0.141804   -0.079245    0.000000
    C   -1.238751    0.078403   -0.000000

FREQUENCIES 3
278.7332
787.2225
1278.3864

SYMMETRY CS
ELECTRONIC_STATE 4-A"
