3
Energy = -129.3063061500
C -0.561482269  0.516003538 -0.000000000
C  0.720147269  0.250818462  0.000000000
N -0.158665000 -0.766822000  0.000000000

FREQUENCIES 3
1122.5830
1662.8755
2185.8230

SYMMETRY C2V
ELECTRONIC_STATE 2-A1
