4
Energy = -167.4268344800
    C    0.023475   -0.592804    0.000000
    C   -0.034267    0.710898   -0.000000
    C   -0.091246    1.999689   -0.000000
    N    0.077910   -1.822368    0.000000

FREQUENCIES 7
204.2544
204.2544
484.7149
484.7150
935.1802
1609.9149
2115.8843

SYMMETRY C*V
ELECTRONIC_STATE 4-SG
