4
Energy = -167.4282355200
    C   -0.010670   -0.000000   -0.568508
    C   -0.005069    0.000000   -2.105118
    C   -0.019329   -0.000000    1.939943
    N   -0.014931    0.000000    0.627327

FREQUENCIES 7
124.7841
126.1678
213.1324
241.2685
652.8185
1172.6690
2050.4433

SYMMETRY C*V
ELECTRONIC_STATE 2-PI
