4
Energy = -168.5118554400
    C   -0.000000   -0.152083   -0.648618
    C   -0.000000    0.055848   -1.902426
    C   -0.000000    0.046938    1.818016
    N    0.000000   -0.020702    0.632380

FREQUENCIES 6
209.4210
324.3025
414.0600
948.0192
1718.8964
2069.6726

SYMMETRY CS
ELECTRONIC_STATE 2-A'
