4
Energy = -168.0645987000
    C    0.063011    0.687974    0.135246
    C    0.672249    0.687974   -1.256757
    C    1.856034    0.687974   -1.981004
    N   -0.618835    0.687974   -1.002870

FREQUENCIES 6
196.1972
246.9821
639.3777
906.1396
1258.1587
1693.6642

SYMMETRY CS
ELECTRONIC_STATE 1-A'
