4
Energy = -167.4350733200
    C    0.004388   -0.000000   -0.623378
    C   -0.055738    0.000000   -1.939045
    C   -0.070937    0.000000    1.870108
    N    0.072288    0.000000    0.585959

FREQUENCIES 6
112.3451
447.7425
454.4361
973.0086
1488.7227
2105.8987

SYMMETRY CS
ELECTRONIC_STATE 4-A"
