4
Energy = -167.3681822900
C  0.274121288 -0.100753330 -0.789095968
C  1.320649163  0.864850784 -1.123014134
C  1.698082800 -0.379201860 -0.973251522
N -0.945051501 -0.439860795 -0.533429465

FREQUENCIES 6
199.3544
381.9586
431.3967
845.6576
1407.4584
1611.8927

SYMMETRY C2V
ELECTRONIC_STATE 4-A2
