4
Energy = -168.1060193600
    C    0.920547    0.527832    1.559966
    C    2.078756    1.148919    1.865293
    C   -0.887315   -1.092457    1.118491
    N    0.039797   -0.323788    1.359001

FREQUENCIES 6
167.6222
205.6681
340.2543
917.0643
1565.2248
2012.9985

SYMMETRY C1
ELECTRONIC_STATE 3-A
