4
Energy = -167.3671973500
C  1.152838096  0.749671491  0.727331321
C  1.061275513  0.277579575  2.184135035
C -0.157193825 -0.652010888  2.115392122
N  0.094884328 -0.114753296  0.875885877

FREQUENCIES 6
169.6854
359.7931
387.0266
737.8090
921.7133
1188.9544

SYMMETRY C2V
ELECTRONIC_STATE 2-B2
