4
Energy = -167.8810440400
C -0.116758375  0.503412759  0.709818538
C -0.029860444 -0.811434263  0.333351600
C -0.771150893  0.067329562 -0.412546454
N  0.817866610  0.214423093 -0.559500015

FREQUENCIES 6
544.1217
544.1256
740.6447
966.5492
966.5492
1591.6227

SYMMETRY C3V
ELECTRONIC_STATE 1-A1
