4
Energy = -168.4115326800
    N    1.705309    1.093960    1.085306
    C    0.743208    0.247837    1.399173
    C    0.000709   -0.577827    2.398425
    C   -0.297441   -0.503464    1.019848

FREQUENCIES 6
383.0739
420.9162
754.9921
925.6773
1218.2156
1392.4388

SYMMETRY CS
ELECTRONIC_STATE 4-A"
