4
Energy = -167.3563240300
    N    1.148657    0.721364    0.823763
    C    1.004758    0.271654    2.067447
    C   -0.106375   -0.627399    2.163991
    C    0.104745   -0.105113    0.847552

FREQUENCIES 6
290.9976
571.2323
743.7796
865.1351
1214.6918
1379.7428

SYMMETRY CS
ELECTRONIC_STATE 4-A"
