5
Energy = -206.3884742700
C  0.043361141 -1.100214280 -0.137275733
C  0.784664730  0.083138057 -0.628825829
C -0.106168600  1.104419033 -0.033110790
C -1.000535415 -0.056088934 -0.244781574
N  0.192388695 -0.031298180  0.942979937

FREQUENCIES 9
325.0451
352.5520
472.6440
746.7352
787.9944
873.7404
919.7812
943.5038
1255.4570

SYMMETRY C2V
ELECTRONIC_STATE 2-B2
