5
Energy = -206.5449544400
C -0.770975219  0.671469789 -0.168571244
C  0.304491290 -0.183452741  0.056067240
C  0.926740000 -1.157826000  0.804278000
C  1.536938059 -0.679406806 -0.309935681
N -1.662574683  1.380361793 -0.354973556

FREQUENCIES 9
200.3382
233.7771
540.4833
575.4854
575.6269
722.4937
1292.1243
1673.0832
2300.8231

SYMMETRY CS
ELECTRONIC_STATE 2-A'
