5
Energy = -206.0218552700
C -0.057714516 -1.513612954 -1.424199034
C  1.145832347  1.426093569  0.962195734
C  0.259418883  0.555926797  0.417373383
C -0.193110302 -0.549392022 -0.479902255
N -0.985622067  0.097042380  0.367024290

FREQUENCIES 9
147.0969
241.7891
281.5295
361.1851
668.5705
958.0719
1121.2056
1390.3457
1823.3787

SYMMETRY C2V
ELECTRONIC_STATE 1-A1
