5
Energy = -206.1201638700
    C   -2.281377   -0.721296   -0.380576
    C    2.412488    0.786101    0.365865
    C    1.237807    0.408839    0.179304
    C    0.034325    0.022495   -0.012006
    N   -1.132060   -0.352170   -0.197622

FREQUENCIES 10
120.4636
133.6380
253.8461
298.2102
343.0162
573.5252
823.4629
1574.7252
1942.7012
1976.7605

SYMMETRY C*V
ELECTRONIC_STATE 3-PI
