5
Energy = -206.1025426000
    C    0.119747    0.001541   -0.242350
    C    0.696791   -0.047926   -1.521901
    C   -0.166186   -0.324450    2.276572
    C   -0.043705   -0.160091    1.072862
    N   -0.452998    0.494966   -1.387539

FREQUENCIES 9
197.1643
197.3763
488.8552
545.0041
762.4106
841.3210
1339.4657
1725.6930
2110.3695

SYMMETRY C1
ELECTRONIC_STATE 3-A
