5
Energy = -206.0829408400
    C    1.325308    1.347552    0.506842
    C    0.596908    0.274912    0.084660
    C   -0.770013   -0.141241    0.035213
    C    1.050398   -0.889213   -0.505475
    N   -1.826693   -0.608624   -0.071497

FREQUENCIES 9
93.3929
211.1667
223.6537
360.5758
425.1457
822.8902
1222.5944
1566.2084
2264.7842

SYMMETRY C1
ELECTRONIC_STATE 1-A
