5
Energy = -205.9886744900
C  0.862443303 -0.127978326  0.317260359
C -0.125298754 -0.986720204 -0.325653912
C  0.613769617  1.025631815 -0.502807221
C -0.659421697  0.359205674 -0.497720641
N -0.536583258 -0.257720823  0.878148784

FREQUENCIES 9
160.9037
545.0979
658.1311
757.4707
767.3402
893.8142
918.3382
1188.8881
1331.8397

SYMMETRY CS
ELECTRONIC_STATE 3-A'
