5
Energy = -206.0976755700
C  0.429314000 -0.037736000 -0.838464000
C  0.965104000  0.089319000  1.768466000
C -0.939382388 -0.009221018 -0.091483173
C  0.320005622  0.029526651  0.584368935
N -0.775040486 -0.071839971 -1.422891081

FREQUENCIES 9
199.4400
200.8533
540.1213
637.2408
655.4655
794.7851
1026.0636
1523.8068
1744.8690

SYMMETRY CS
ELECTRONIC_STATE 1-A'
