5
Energy = -206.0983067000
C  0.499784873 -0.522784493 -0.665625387
C  1.626667255 -0.465401865  0.051777821
C -0.614469520  0.216110933 -0.037313584
C  0.673299343  0.224569194  0.686485308
N -1.782782815  0.571386198 -0.083757279

FREQUENCIES 9
256.4043
373.8559
559.2273
607.4767
678.7717
966.4199
1238.9487
1679.1272
1823.1965

SYMMETRY C2V
ELECTRONIC_STATE 3-B2
