5
Energy = -206.0985901000
    N   -0.001281   -0.034160   -0.007973
    C    0.297455   -2.554035   -0.003054
    C    0.141076   -1.234976   -0.005629
    C   -0.295649    2.486819   -0.013046
    C   -0.141683    1.166950   -0.010297

FREQUENCIES 10
112.0519
112.0519
217.8224
217.8224
552.1625
552.1625
820.7775
1341.1932
2007.2375
2245.4922

SYMMETRY C*V
ELECTRONIC_STATE 1-SG
