5
Energy = -206.0120902900
C  0.145668386 -1.417215625 -1.390832698
C  1.256186245  1.297990041  0.809388813
C  0.161300428  0.534033187  0.425762016
C -0.266342273 -0.511549175 -0.421508168
N -1.127887246  0.112370205  0.420098316

FREQUENCIES 9
130.7757
261.8297
293.0978
342.9994
787.0636
831.4588
1049.3418
1166.8627
1679.5104

SYMMETRY C2V
ELECTRONIC_STATE 3-B2
