6
Energy = -244.3614469600
    C    0.573248    0.182240   -1.440450
    C    0.517662    0.563248    0.187337
    C   -0.516081   -0.278313   -0.819569
    N    0.944578   -0.613580    0.924120
    C   -0.435540   -0.683560    0.593954
    C   -0.949962    0.717756    0.469512

FREQUENCIES 12
207.1183
381.3664
409.0629
483.9166
497.6618
666.9750
727.9593
838.2224
893.1742
1148.4263
1184.4130
1405.6374

SYMMETRY C1
ELECTRONIC_STATE 2-A
