6
Energy = -244.1648711800
    C    1.650633   -1.606862   -0.088749
    C    1.301962   -0.171267   -0.010574
    C    0.204702   -1.297103   -0.039416
    C   -1.047436    1.017570    0.106930
    C   -0.061056    0.058116    0.034195
    N   -1.876985    1.824326    0.167498

FREQUENCIES 12
123.2152
177.7672
248.7042
441.2790
586.2519
633.3567
667.1339
925.1167
1170.2088
1207.2836
1651.7369
2313.3241

SYMMETRY C1
ELECTRONIC_STATE 1-A
