6
Energy = -244.1228113900
C -1.062139301 -0.033091248 -0.856978428
C  0.950998685 -0.934634162  0.581625828
C  1.175002418  0.093311169  1.477531337
C  0.132118995 -0.025315304 -0.158293665
C  1.057420685  0.923364838  0.379040828
N -2.056720128 -0.040719395 -1.449413057

FREQUENCIES 12
173.9322
193.9712
375.8975
472.4811
558.2261
668.2031
784.3769
812.2331
1176.2094
1391.2131
1506.8144
2303.9314

SYMMETRY CS
ELECTRONIC_STATE 3-A"
