6
Energy = -243.9323114400
N  0.715851000 -1.563702000 -0.226753000
C  1.087644000  0.647080000  0.270955000
C -1.204107236 -0.140137771 -0.209962212
C  2.015547158  1.395772199  0.552298647
C  0.168404086 -0.351511118 -0.059518829
C -2.387995009  0.091123690 -0.329870606

FREQUENCIES 12
49.9253
175.9261
229.1265
256.7164
280.1405
451.8860
628.2836
736.9746
1166.6682
1214.0363
2074.6266
2155.5877

SYMMETRY CS
ELECTRONIC_STATE 3-A'
