6
Energy = -244.1430962300
    N    0.000000   -0.000000    1.908268
    C    0.000000   -0.000000    0.660781
    C    0.000000   -0.000000   -0.599605
    C   -0.000000    0.000000   -1.880872
    C   -0.000000    0.000000   -3.212772
    C   -0.000000    0.000000    3.124199

FREQUENCIES 13
77.4534
108.5739
153.2787
213.2824
287.2965
367.4015
469.4669
618.9993
673.3293
1237.7044
1760.2334
2026.4580
2173.9377

SYMMETRY C*V
ELECTRONIC_STATE 1-PI
