6
Energy = -244.3244589900
    C   -1.088754   -0.040919   -0.923808
    N    0.856152   -0.786721    0.601672
    C    1.550908    0.012588    1.522442
    C   -0.033770    0.071957   -0.093884
    C    1.013978    0.841964    0.472255
    C   -2.101827   -0.115873   -1.605175

FREQUENCIES 12
141.3948
165.7172
346.6306
403.7640
478.8782
601.1454
674.6807
807.4664
958.3486
1231.4861
1501.1223
2025.0481

SYMMETRY C1
ELECTRONIC_STATE 4-A
