6
Energy = -243.9996426500
N -1.204789000  0.302934000 -0.270157000
C -0.058076000 -0.076914000  1.361494000
C -1.400535707  0.071205409  1.076278610
C  0.277180276  0.238594570 -0.498688176
C -2.511643460  0.342525906  0.025310606
C  1.008890891 -0.024071885  0.653618960

FREQUENCIES 12
94.9002
233.3061
248.2862
297.5584
503.8972
574.1015
692.0622
977.9369
1142.0573
1186.7704
1412.3381
1677.6922

SYMMETRY CS
ELECTRONIC_STATE 3-A"
