6
Energy = -244.0083470300
C  0.430832665 -0.912194089 -0.027328042
C -0.510131352  0.374848712 -0.504260733
C -0.644510847  0.955436085  0.949922061
C -0.956078986 -1.118228655 -0.300207236
C  0.616884669  0.326088747  0.719183014
N  0.913770730  0.302122458 -0.738502626

FREQUENCIES 12
225.8671
259.7031
535.2777
589.2871
654.2265
677.1631
766.3449
825.7294
996.7974
1064.2685
1161.9803
1309.1386

SYMMETRY CS
ELECTRONIC_STATE 1-A'
