6
Energy = -244.0192781100
    N    1.012552   -1.087432   -0.053219
    C    1.261948    0.245402    0.215713
    C   -1.360599   -0.140775   -0.236932
    C    2.050194    1.315310    0.518073
    C   -0.021327   -0.298622   -0.067652
    C   -2.547403    0.044774   -0.379003

FREQUENCIES 12
118.1569
197.1408
215.8755
281.1652
492.0222
546.0049
722.0657
861.5721
1037.1703
1359.7813
1781.2954
2212.7894

SYMMETRY CS
ELECTRONIC_STATE 3-A"
