6
Energy = -244.1240018700
C -0.796848000  0.904328000  0.206630000
C -0.285404000 -1.070124000 -0.652803000
C  0.331255912  1.209058237  0.769713721
C -1.300819849 -0.105212962 -0.505775256
C  0.964739723  0.124324182  0.423260693
N  0.947115755 -0.990329535 -0.171170851

FREQUENCIES 12
418.2487
418.9328
504.8274
545.3972
591.9903
680.6728
1070.8401
1154.3848
1184.5082
1218.7812
1659.0691
1761.9525

SYMMETRY CS
ELECTRONIC_STATE 3-A'
