6
Energy = -244.0133194900
C  1.083447000 -0.179909000 -0.404696000
C -1.834605000 -0.268654000  1.116951000
C  1.081856510  0.917421035 -1.150420268
C -0.645442322 -0.180069664  0.461189385
C -0.118762688  0.894237763 -0.533414338
N  0.451008715 -1.007285257  0.474879618

FREQUENCIES 12
202.1246
222.1750
401.8984
422.4794
558.8934
566.6225
649.3875
884.7913
1048.3517
1185.7828
1463.4254
1605.1101

SYMMETRY CS
ELECTRONIC_STATE 3-A"
