6
Energy = -244.3539555500
    N    1.046389   -1.016919   -0.035976
    C    1.243116    0.272646    0.217726
    C   -1.374282   -0.186424   -0.246891
    C    2.185823    1.243351    0.525435
    C   -0.072411   -0.227277   -0.062701
    C   -2.633269   -0.006720   -0.400613

FREQUENCIES 12
120.6560
157.3294
310.2930
323.9306
520.9063
577.6510
653.2142
820.4955
1039.0011
1247.0753
1616.6371
1970.2915

SYMMETRY CS
ELECTRONIC_STATE 4-A"
