6
Energy = -244.0655674700
    C    1.184627    0.229444   -0.284182
    C   -0.540302   -1.446647    0.941061
    C   -0.902342   -0.334137    0.280278
    C    0.515328   -0.778491    0.416633
    C   -0.777065    0.901920   -0.506263
    N    0.459391    1.212757   -0.825482

FREQUENCIES 12
98.5784
203.2474
594.1398
608.2376
622.3301
787.5607
819.7445
873.8115
1112.3220
1216.2557
1331.3136
1592.8285

SYMMETRY C1
ELECTRONIC_STATE 3-A
