6
Energy = -244.3563194800
C  0.519769671 -0.755590323 -0.066445910
C -0.535287760  0.316411338 -0.514644705
N -0.463705751  1.016626633  0.792826143
C -0.904691220 -1.079961143 -0.240478927
C  0.406791572  0.149752291  1.191705931
C  0.827900447  0.280879099 -1.064132890

FREQUENCIES 12
117.2000
299.8423
344.0477
559.8870
650.5508
710.4566
791.5705
909.5484
969.9945
1197.3106
1256.0186
1445.3682

SYMMETRY CS
ELECTRONIC_STATE 2-A'
