6
Energy = -243.9749632300
    N    0.720190   -0.014163   -1.034790
    C    0.504350    0.768669    0.298483
    C   -0.642502   -0.291978   -0.853192
    C    1.004771   -0.556633    0.439261
    C   -0.491847   -0.680352    0.608737
    C   -0.961062    0.662255    0.456377

FREQUENCIES 12
334.3519
453.4956
514.9694
555.4961
684.1196
739.4994
780.2600
879.1918
924.1525
1058.0844
1187.0354
1231.4839

SYMMETRY C1
ELECTRONIC_STATE 3-A
