6
Energy = -244.4307548500
C -1.312168174  0.292408162 -0.335033754
C  1.605312864  0.386338896  1.950583293
C -1.340297286 -0.414473705 -1.521769553
C -0.004573845 -0.131054586  0.105979621
C  0.025290826 -0.363406838 -1.318357754
N  0.855273241  0.191284060  1.060513126

FREQUENCIES 12
174.2264
176.6975
391.6008
489.6485
526.3831
615.0124
821.3452
941.1331
1168.6226
1300.3822
1485.2023
2083.0859

SYMMETRY CS
ELECTRONIC_STATE 4-A"
