6
Energy = -243.9777706100
N -0.242410000  0.291814000 -0.084104000
C -1.602316000 -0.088474000 -0.149439000
C -0.044287862 -2.279975873  0.353447089
C -0.609871731 -1.082683208  0.105438448
C  1.648556651  2.022434239 -0.189060841
C  0.710665942  1.095309842 -0.125800696

FREQUENCIES 12
107.2280
132.4778
217.9090
236.1768
436.7354
489.8652
618.1446
703.8498
946.9602
1261.7865
1640.6274
1934.5522

SYMMETRY CS
ELECTRONIC_STATE 1-A'
