6
Energy = -244.1229148200
C  0.553031000 -1.200565000 -0.269832000
C  0.239216000  1.439907000 -0.832698000
C -0.611300625  1.090191042  0.280380015
C  0.200069388  0.127095439 -0.325635217
C -1.508288829  1.132842918  1.309630544
N  0.872227770 -2.315186771 -0.249609865

FREQUENCIES 12
128.4368
196.9520
233.2826
244.8644
539.8788
551.5407
680.7391
854.6173
954.9237
1415.2208
1665.5143
2288.7936

SYMMETRY CS
ELECTRONIC_STATE 1-A'
