6
Energy = -244.4859199700
    N    2.525815    0.032572    0.891938
    C    0.043007   -0.104772    0.146013
    C    1.218128   -0.001518    0.897031
    C    0.044675    0.060305    1.655390
    C    3.709643    0.058611    0.887643
    C   -1.185021   -0.045261    0.904977

FREQUENCIES 12
93.6849
160.8240
313.9659
381.9300
450.7197
599.1796
678.6440
770.4618
1011.5416
1253.8853
1583.5882
2055.7008

SYMMETRY C1
ELECTRONIC_STATE 2-A
