6
Energy = -244.4302808200
C  1.741003000 -0.524698000  1.456885000
C -2.065460000  0.500521000 -1.701903000
C  0.687323873 -0.191366103  0.556804587
C -0.507510981 -0.547559223 -0.083168787
C  1.691047133  0.673257439  0.801243419
N -1.263110736  0.068638903 -0.924188473

FREQUENCIES 12
133.4179
151.6180
333.1628
372.6615
483.1580
496.1288
696.5138
774.3993
1210.5758
1395.7714
1677.4085
1883.4997

SYMMETRY CS
ELECTRONIC_STATE 4-A"
