6
Energy = -243.9796071300
    C    0.457979   -0.790787   -0.025806
    C   -0.635214    0.312138   -0.587673
    C   -0.583754    0.810840    0.783874
    C   -1.031999   -1.046311   -0.283634
    C    0.766824    0.332250    0.932209
    N    0.876935    0.309984   -0.720139

FREQUENCIES 12
190.4009
270.1443
534.8759
574.3585
646.4838
768.7305
868.1969
928.6132
1080.7877
1107.0342
1189.3392
1286.5224

SYMMETRY C1
ELECTRONIC_STATE 3-A
