6
Energy = -244.0154125100
N  1.433269000 -0.383863000 -0.479637000
C -1.858604000 -0.237641000  1.090135000
C  0.949701780  0.759796497 -0.917891644
C -0.712291843 -0.062875313  0.408987564
C -0.333776527  1.012054166 -0.422220888
C  0.539170590 -0.911777350  0.285047968

FREQUENCIES 12
75.9186
189.6103
328.1814
470.3676
576.0458
608.8728
680.5848
1014.0612
1132.6882
1350.8532
1418.8337
1617.8178

SYMMETRY CS
ELECTRONIC_STATE 3-A"
