6
Energy = -244.3737030900
    C   -1.757274    1.146056   -0.531826
    C   -0.739004    0.445180   -0.139042
    C    1.507292   -0.311994   -1.296145
    C    0.572798   -0.164277   -0.385295
    C   -0.422982   -0.249528    1.209979
    N    0.691768   -0.767454    1.000062

FREQUENCIES 12
139.1457
182.2255
246.3846
250.2446
508.6183
572.4132
659.2575
731.7752
792.4264
1613.2449
1624.3953
1830.2648

SYMMETRY C1
ELECTRONIC_STATE 2-A
