2
Energy = -92.0546295940
    C   -0.676469    0.000000    0.000000
    N    0.553861    0.000000    0.000000

FREQUENCIES 1
1797.9825

SYMMETRY C*V
ELECTRONIC_STATE 3-PI
