2
Energy = -92.0639448550
    C   -0.647422    0.000000    0.000000
    N    0.524814    0.000000    0.000000

FREQUENCIES 1
2078.8493

SYMMETRY C*V
ELECTRONIC_STATE 1-SG
