2
Energy = -92.0205161310
    C   -0.738242    0.000000    0.000000
    N    0.628065    0.000000    0.000000

FREQUENCIES 1
835.6732

SYMMETRY C*V
ELECTRONIC_STATE 1-SG
