3
Energy = -130.4438760900
    N    0.011854   -0.000000   -0.000000
    C   -1.242924    0.000000    0.000000
    C    1.231070    0.000000    0.000000

FREQUENCIES 4
438.2993
438.2993
1267.4912
1483.1304

SYMMETRY C*V
ELECTRONIC_STATE 4-SG
