4
Energy = -168.3806805100
C  1.189622702  0.652734324  0.768960609
C  0.999594808  0.342389460  2.162510238
C -0.032312298 -0.661519676  2.120805609
N -0.005099611 -0.073075950  0.850452752

FREQUENCIES 6
418.2354
584.1381
722.4354
865.8928
1009.6481
1265.1095

SYMMETRY CS
ELECTRONIC_STATE 4-A'
