4
Energy = -168.4752465400
    C    1.743482    1.116588    1.121183
    C    0.760473    0.279126    1.322198
    C   -0.024284   -0.585669    2.344747
    N   -0.327886   -0.549539    1.114624

FREQUENCIES 6
222.7413
292.6176
582.6881
870.2341
1458.2504
1803.9636

SYMMETRY C1
ELECTRONIC_STATE 2-A
