5
Energy = -206.4136068900
    C    0.221935    1.644103   -0.001108
    C    0.155197    0.215306    0.004060
    C    0.294154   -1.071901    0.004744
    C    0.447831   -2.312637    0.006769
    N   -0.967866    1.314611    0.002834

FREQUENCIES 9
130.2303
187.0378
348.4885
369.7420
457.4984
711.6866
1379.3393
1720.6413
1858.8644

SYMMETRY C1
ELECTRONIC_STATE 4-A
