5
Energy = -206.4882977800
    C    0.296643    1.663303   -0.000419
    C    0.008895    0.224535    0.001566
    C    0.237334   -1.050876    0.001313
    C    0.519918   -2.303146    0.010064
    N   -0.911540    1.255666    0.004775

FREQUENCIES 9
159.1807
169.5952
454.2327
531.9752
688.1478
771.9590
1284.6822
1664.5844
2008.1941

SYMMETRY C1
ELECTRONIC_STATE 2-A
