5
Energy = -206.3345196700
C  0.168249368 -1.398237830 -1.381972953
C  1.262470322  1.278060561  0.787626389
C  0.154302736  0.594608836  0.484737231
C -0.320442981 -0.566547139 -0.456579046
N -1.095723953  0.108037063  0.408842468

FREQUENCIES 9
211.9988
275.7376
308.6679
375.1611
429.2481
879.4180
1029.2498
1453.3148
1711.7763

SYMMETRY C2V
ELECTRONIC_STATE 4-A1
