 Entering Gaussian System, Link 0=/home/proyectos/fulerenos/M3C-v2.0/M3C-deps_CCC/g09-AM64L-G09RevC.01/g09
 Initial command:
 /home/proyectos/fulerenos/M3C-v2.0/M3C-deps_CCC/g09-AM64L-G09RevC.01/l1.exe "/scratch/naguirre/gaussian/Gau-51134.inp" -scrdir="/scratch/naguirre/gaussian/"
 Entering Link 1 = /home/proyectos/fulerenos/M3C-v2.0/M3C-deps_CCC/g09-AM64L-G09RevC.01/l1.exe PID=     51144.
  
 Copyright (c) 1988,1990,1992,1993,1995,1998,2003,2009,2015,
            Gaussian, Inc.  All Rights Reserved.
  
 This is part of the Gaussian(R) 09 program.  It is based on
 the Gaussian(R) 03 system (copyright 2003, Gaussian, Inc.),
 the Gaussian(R) 98 system (copyright 1998, Gaussian, Inc.),
 the Gaussian(R) 94 system (copyright 1995, Gaussian, Inc.),
 the Gaussian 92(TM) system (copyright 1992, Gaussian, Inc.),
 the Gaussian 90(TM) system (copyright 1990, Gaussian, Inc.),
 the Gaussian 88(TM) system (copyright 1988, Gaussian, Inc.),
 the Gaussian 86(TM) system (copyright 1986, Carnegie Mellon
 University), and the Gaussian 82(TM) system (copyright 1983,
 Carnegie Mellon University). Gaussian is a federally registered
 trademark of Gaussian, Inc.
  
 This software contains proprietary and confidential information,
 including trade secrets, belonging to Gaussian, Inc.
  
 This software is provided under written license and may be
 used, copied, transmitted, or stored only in accord with that
 written license.
  
 The following legend is applicable only to US Government
 contracts under FAR:
  
                    RESTRICTED RIGHTS LEGEND
  
 Use, reproduction and disclosure by the US Government is
 subject to restrictions as set forth in subparagraphs (a)
 and (c) of the Commercial Computer Software - Restricted
 Rights clause in FAR 52.227-19.
  
 Gaussian, Inc.
 340 Quinnipiac St., Bldg. 40, Wallingford CT 06492
  
  
 ---------------------------------------------------------------
 Warning -- This program may not be used in any manner that
 competes with the business of Gaussian, Inc. or will provide
 assistance to any competitor of Gaussian, Inc.  The licensee
 of this program is prohibited from giving any competitor of
 Gaussian, Inc. access to this program.  By using this program,
 the user acknowledges that Gaussian, Inc. is engaged in the
 business of creating and licensing software in the field of
 computational chemistry and represents and warrants to the
 licensee that it is not a competitor of Gaussian, Inc. and that
 it will not use this program in any manner prohibited above.
 ---------------------------------------------------------------
  

 Cite this work as:
 Gaussian 09, Revision E.01,
 M. J. Frisch, G. W. Trucks, H. B. Schlegel, G. E. Scuseria, 
 M. A. Robb, J. R. Cheeseman, G. Scalmani, V. Barone, B. Mennucci, 
 G. A. Petersson, H. Nakatsuji, M. Caricato, X. Li, H. P. Hratchian, 
 A. F. Izmaylov, J. Bloino, G. Zheng, J. L. Sonnenberg, M. Hada, 
 M. Ehara, K. Toyota, R. Fukuda, J. Hasegawa, M. Ishida, T. Nakajima, 
 Y. Honda, O. Kitao, H. Nakai, T. Vreven, J. A. Montgomery, Jr., 
 J. E. Peralta, F. Ogliaro, M. Bearpark, J. J. Heyd, E. Brothers, 
 K. N. Kudin, V. N. Staroverov, T. Keith, R. Kobayashi, J. Normand, 
 K. Raghavachari, A. Rendell, J. C. Burant, S. S. Iyengar, J. Tomasi, 
 M. Cossi, N. Rega, J. M. Millam, M. Klene, J. E. Knox, J. B. Cross, 
 V. Bakken, C. Adamo, J. Jaramillo, R. Gomperts, R. E. Stratmann, 
 O. Yazyev, A. J. Austin, R. Cammi, C. Pomelli, J. W. Ochterski, 
 R. L. Martin, K. Morokuma, V. G. Zakrzewski, G. A. Voth, 
 P. Salvador, J. J. Dannenberg, S. Dapprich, A. D. Daniels, 
 O. Farkas, J. B. Foresman, J. V. Ortiz, J. Cioslowski, 
 and D. J. Fox, Gaussian, Inc., Wallingford CT, 2013.
 
 ******************************************
 Gaussian 09:  EM64L-G09RevE.01 30-Nov-2015
                 8-Mar-2019 
 ******************************************
 %NProcShared=4
 Will use up to    4 processors via shared memory.
 --------------------------------------
 #p ccsd(t,maxcyc=200)/6-311++G(3df,2p)
 --------------------------------------
 1/38=1/1;
 2/12=2,17=6,18=5,40=1/2;
 3/5=4,6=6,7=1216,11=9,16=1,25=1,30=1/1,2,3;
 4//1;
 5/5=2,38=5/2;
 8/6=4,9=120000,10=2/1,4;
 9/5=7,6=200,14=2/13;
 6/7=2,8=2,9=2,10=2/1;
 99/5=1,9=1/99;
 Leave Link    1 at Fri Mar  8 08:38:52 2019, MaxMem=           0 cpu:         1.0
 (Enter /home/proyectos/fulerenos/M3C-v2.0/M3C-deps_CCC/g09-AM64L-G09RevC.01/l101.exe)
 -------------
 ccsd(t) iener
 -------------
 Symbolic Z-matrix:
 Charge = -1 Multiplicity = 4
 C                    -0.86195   0.        0. 
 O                     0.43792   0.        0. 
 
 NAtoms=      2 NQM=        2 NQMF=       0 NMMI=      0 NMMIF=      0
                NMic=       0 NMicF=      0.
                    Isotopes and Nuclear Properties:
 (Nuclear quadrupole moments (NQMom) in fm**2, nuclear magnetic moments (NMagM)
  in nuclear magnetons)

  Atom         1           2
 IAtWgt=          12          16
 AtmWgt=  12.0000000  15.9949146
 NucSpn=           0           0
 AtZEff=   0.0000000   0.0000000
 NQMom=    0.0000000   0.0000000
 NMagM=    0.0000000   0.0000000
 AtZNuc=   6.0000000   8.0000000
 Leave Link  101 at Fri Mar  8 08:38:53 2019, MaxMem=    33554432 cpu:         1.4
 (Enter /home/proyectos/fulerenos/M3C-v2.0/M3C-deps_CCC/g09-AM64L-G09RevC.01/l202.exe)
                          Input orientation:                          
 ---------------------------------------------------------------------
 Center     Atomic      Atomic             Coordinates (Angstroms)
 Number     Number       Type             X           Y           Z
 ---------------------------------------------------------------------
      1          6           0       -0.861954    0.000000    0.000000
      2          8           0        0.437920    0.000000    0.000000
 ---------------------------------------------------------------------
 Stoichiometry    CO(1-,4)
 Framework group  C*V[C*(CO)]
 Deg. of freedom     1
 Full point group                 C*V     NOp   4
 Largest Abelian subgroup         C2V     NOp   4
 Largest concise Abelian subgroup C1      NOp   1
                         Standard orientation:                         
 ---------------------------------------------------------------------
 Center     Atomic      Atomic             Coordinates (Angstroms)
 Number     Number       Type             X           Y           Z
 ---------------------------------------------------------------------
      1          6           0        0.000000    0.000000   -0.742785
      2          8           0        0.000000    0.000000    0.557089
 ---------------------------------------------------------------------
 Rotational constants (GHZ):      0.0000000     43.6245195     43.6245195
 Leave Link  202 at Fri Mar  8 08:38:54 2019, MaxMem=    33554432 cpu:         0.8
 (Enter /home/proyectos/fulerenos/M3C-v2.0/M3C-deps_CCC/g09-AM64L-G09RevC.01/l301.exe)
 Standard basis: 6-311++G(3df,2p) (5D, 7F)
 Ernie: Thresh=  0.10000D-02 Tol=  0.10000D-05 Strict=F.
 There are    42 symmetry adapted cartesian basis functions of A1  symmetry.
 There are     8 symmetry adapted cartesian basis functions of A2  symmetry.
 There are    20 symmetry adapted cartesian basis functions of B1  symmetry.
 There are    20 symmetry adapted cartesian basis functions of B2  symmetry.
 There are    34 symmetry adapted basis functions of A1  symmetry.
 There are     8 symmetry adapted basis functions of A2  symmetry.
 There are    18 symmetry adapted basis functions of B1  symmetry.
 There are    18 symmetry adapted basis functions of B2  symmetry.
    78 basis functions,   116 primitive gaussians,    90 cartesian basis functions
     9 alpha electrons        6 beta electrons
       nuclear repulsion energy        19.5407447278 Hartrees.
 IExCor=    0 DFT=F Ex=HF Corr=None ExCW=0 ScaHFX=  1.000000
 ScaDFX=  1.000000  1.000000  1.000000  1.000000 ScalE2=  1.000000  1.000000
 IRadAn=      0 IRanWt=     -1 IRanGd=            0 ICorTp=0 IEmpDi=  4
 NAtoms=    2 NActive=    2 NUniq=    2 SFac= 1.00D+00 NAtFMM=   60 NAOKFM=F Big=F
 Integral buffers will be    131072 words long.
 Raffenetti 2 integral format.
 Two-electron integral symmetry is turned on.
 Leave Link  301 at Fri Mar  8 08:38:56 2019, MaxMem=    33554432 cpu:         1.9
 (Enter /home/proyectos/fulerenos/M3C-v2.0/M3C-deps_CCC/g09-AM64L-G09RevC.01/l302.exe)
 NPDir=0 NMtPBC=     1 NCelOv=     1 NCel=       1 NClECP=     1 NCelD=      1
         NCelK=      1 NCelE2=     1 NClLst=     1 CellRange=     0.0.
 One-electron integrals computed using PRISM.
 NBasis=    78 RedAO= T EigKep=  2.17D-03  NBF=    34     8    18    18
 NBsUse=    78 1.00D-06 EigRej= -1.00D+00 NBFU=    34     8    18    18
 Leave Link  302 at Fri Mar  8 08:38:58 2019, MaxMem=    33554432 cpu:         3.3
 (Enter /home/proyectos/fulerenos/M3C-v2.0/M3C-deps_CCC/g09-AM64L-G09RevC.01/l303.exe)
 DipDrv:  MaxL=1.
 Leave Link  303 at Fri Mar  8 08:39:00 2019, MaxMem=    33554432 cpu:         1.6
 (Enter /home/proyectos/fulerenos/M3C-v2.0/M3C-deps_CCC/g09-AM64L-G09RevC.01/l401.exe)
 ExpMin= 4.38D-02 ExpMax= 8.59D+03 ExpMxC= 1.30D+03 IAcc=2 IRadAn=         4 AccDes= 0.00D+00
 Harris functional with IExCor=  205 and IRadAn=       4 diagonalized for initial guess.
 HarFok:  IExCor=  205 AccDes= 0.00D+00 IRadAn=         4 IDoV= 1 UseB2=F ITyADJ=14
 ICtDFT=  3500011 ScaDFX=  1.000000  1.000000  1.000000  1.000000
 FoFCou: FMM=F IPFlag=           0 FMFlag=      100000 FMFlg1=           0
         NFxFlg=           0 DoJE=T BraDBF=F KetDBF=T FulRan=T
         wScrn=  0.000000 ICntrl=     500 IOpCl=  0 I1Cent=   200000004 NGrid=           0
         NMat0=    1 NMatS0=      1 NMatT0=    0 NMatD0=    1 NMtDS0=    0 NMtDT0=    0
 Petite list used in FoFCou.
 Harris En= -112.627626930428    
 JPrj=0 DoOrth=F DoCkMO=F.
 Initial guess orbital symmetries:
 Alpha Orbitals:
       Occupied  (SG) (SG) (SG) (SG) (PI) (PI) (SG) (PI) (PI)
       Virtual   (SG) (SG) (PI) (PI) (SG) (PI) (PI) (SG) (SG) (DLTA)
                 (DLTA) (PI) (PI) (SG) (PI) (PI) (SG) (SG) (DLTA)
                 (DLTA) (PI) (PI) (SG) (PI) (PI) (SG) (DLTA) (DLTA)
                 (PI) (PI) (SG) (SG) (PI) (PI) (PHI) (PHI) (DLTA)
                 (DLTA) (PI) (PI) (SG) (SG) (DLTA) (DLTA) (PI)
                 (PI) (SG) (PI) (PI) (PHI) (PHI) (DLTA) (DLTA)
                 (SG) (PI) (PI) (SG) (DLTA) (DLTA) (PI) (PI) (SG)
                 (DLTA) (DLTA) (PI) (PI) (SG) (SG) (SG)
 Beta  Orbitals:
       Occupied  (SG) (SG) (SG) (SG) (PI) (PI)
       Virtual   (SG) (PI) (PI) (SG) (SG) (PI) (PI) (SG) (PI) (PI)
                 (SG) (SG) (DLTA) (DLTA) (PI) (PI) (SG) (PI) (PI)
                 (SG) (SG) (DLTA) (DLTA) (PI) (PI) (SG) (PI) (PI)
                 (SG) (DLTA) (DLTA) (PI) (PI) (SG) (SG) (PI) (PI)
                 (PHI) (PHI) (DLTA) (DLTA) (PI) (PI) (SG) (SG)
                 (DLTA) (DLTA) (PI) (PI) (SG) (PI) (PI) (PHI) (PHI)
                 (DLTA) (DLTA) (SG) (PI) (PI) (SG) (DLTA) (DLTA)
                 (PI) (PI) (SG) (DLTA) (DLTA) (PI) (PI) (SG) (SG)
                 (SG)
 The electronic state of the initial guess is 4-SG.
 Initial guess <Sx>= 0.0000 <Sy>= 0.0000 <Sz>= 1.5000 <S**2>= 3.7500 S= 1.5000
 Leave Link  401 at Fri Mar  8 08:39:01 2019, MaxMem=    33554432 cpu:         1.5
 (Enter /home/proyectos/fulerenos/M3C-v2.0/M3C-deps_CCC/g09-AM64L-G09RevC.01/l502.exe)
 UHF open shell SCF:
 Using DIIS extrapolation, IDIIS=  1040.
 Integral symmetry usage will be decided dynamically.
 Keep R1 and R2 ints in memory in symmetry-blocked form, NReq=6755459.
 IVT=       44096 IEndB=       44096 NGot=    33554432 MDV=    31053347
 LenX=    31053347 LenY=    31044806
 Requested convergence on RMS density matrix=1.00D-08 within 128 cycles.
 Requested convergence on MAX density matrix=1.00D-06.
 Requested convergence on             energy=1.00D-06.
 No special actions if energy rises.
 FoFCou: FMM=F IPFlag=           0 FMFlag=           0 FMFlg1=           0
         NFxFlg=           0 DoJE=F BraDBF=F KetDBF=F FulRan=T
         wScrn=  0.000000 ICntrl=     600 IOpCl=  0 I1Cent=           0 NGrid=           0
         NMat0=    1 NMatS0=   3081 NMatT0=    0 NMatD0=    1 NMtDS0=    0 NMtDT0=    0
 Petite list used in FoFCou.

 Cycle   1  Pass 1  IDiag  1:
 E= -112.443309592573    
 DIIS: error= 5.75D-02 at cycle   1 NSaved=   1.
 NSaved= 1 IEnMin= 1 EnMin= -112.443309592573     IErMin= 1 ErrMin= 5.75D-02
 ErrMax= 5.75D-02  0.00D+00 EMaxC= 1.00D-01 BMatC= 9.05D-01 BMatP= 9.05D-01
 IDIUse=3 WtCom= 4.25D-01 WtEn= 5.75D-01
 Coeff-Com:  0.100D+01
 Coeff-En:   0.100D+01
 Coeff:      0.100D+01
 Gap=     0.266 Goal=   None    Shift=    0.000
 Gap=     0.401 Goal=   None    Shift=    0.000
 GapD=    0.266 DampG=1.000 DampE=0.500 DampFc=0.5000 IDamp=-1.
 Damping current iteration by 5.00D-01
 RMSDP=4.65D-03 MaxDP=8.00D-02              OVMax= 1.57D-01

 Cycle   2  Pass 1  IDiag  1:
 E= -112.498930490714     Delta-E=       -0.055620898141 Rises=F Damp=T
 DIIS: error= 3.28D-02 at cycle   2 NSaved=   2.
 NSaved= 2 IEnMin= 2 EnMin= -112.498930490714     IErMin= 2 ErrMin= 3.28D-02
 ErrMax= 3.28D-02  0.00D+00 EMaxC= 1.00D-01 BMatC= 1.73D-01 BMatP= 9.05D-01
 IDIUse=3 WtCom= 6.72D-01 WtEn= 3.28D-01
 Coeff-Com: -0.453D+00 0.145D+01
 Coeff-En:   0.000D+00 0.100D+01
 Coeff:     -0.305D+00 0.130D+01
 Gap=     0.307 Goal=   None    Shift=    0.000
 Gap=     0.405 Goal=   None    Shift=    0.000
 RMSDP=1.74D-03 MaxDP=5.54D-02 DE=-5.56D-02 OVMax= 7.89D-02

 Cycle   3  Pass 1  IDiag  1:
 E= -112.555615259587     Delta-E=       -0.056684768873 Rises=F Damp=F
 DIIS: error= 1.04D-02 at cycle   3 NSaved=   3.
 NSaved= 3 IEnMin= 3 EnMin= -112.555615259587     IErMin= 3 ErrMin= 1.04D-02
 ErrMax= 1.04D-02  0.00D+00 EMaxC= 1.00D-01 BMatC= 1.45D-02 BMatP= 1.73D-01
 IDIUse=3 WtCom= 8.96D-01 WtEn= 1.04D-01
 Coeff-Com: -0.178D+00 0.305D+00 0.873D+00
 Coeff-En:   0.000D+00 0.000D+00 0.100D+01
 Coeff:     -0.159D+00 0.273D+00 0.886D+00
 Gap=     0.301 Goal=   None    Shift=    0.000
 Gap=     0.391 Goal=   None    Shift=    0.000
 RMSDP=5.73D-04 MaxDP=2.07D-02 DE=-5.67D-02 OVMax= 1.86D-02

 Cycle   4  Pass 1  IDiag  1:
 E= -112.559072807519     Delta-E=       -0.003457547932 Rises=F Damp=F
 DIIS: error= 4.34D-03 at cycle   4 NSaved=   4.
 NSaved= 4 IEnMin= 4 EnMin= -112.559072807519     IErMin= 4 ErrMin= 4.34D-03
 ErrMax= 4.34D-03  0.00D+00 EMaxC= 1.00D-01 BMatC= 9.49D-04 BMatP= 1.45D-02
 IDIUse=3 WtCom= 9.57D-01 WtEn= 4.34D-02
 Coeff-Com:  0.105D-01-0.390D-01 0.505D-01 0.978D+00
 Coeff-En:   0.000D+00 0.000D+00 0.000D+00 0.100D+01
 Coeff:      0.100D-01-0.373D-01 0.483D-01 0.979D+00
 Gap=     0.294 Goal=   None    Shift=    0.000
 Gap=     0.392 Goal=   None    Shift=    0.000
 RMSDP=2.51D-04 MaxDP=5.56D-03 DE=-3.46D-03 OVMax= 1.80D-02

 Cycle   5  Pass 1  IDiag  1:
 E= -112.559683363519     Delta-E=       -0.000610556001 Rises=F Damp=F
 DIIS: error= 2.09D-03 at cycle   5 NSaved=   5.
 NSaved= 5 IEnMin= 5 EnMin= -112.559683363519     IErMin= 5 ErrMin= 2.09D-03
 ErrMax= 2.09D-03  0.00D+00 EMaxC= 1.00D-01 BMatC= 2.77D-04 BMatP= 9.49D-04
 IDIUse=3 WtCom= 9.79D-01 WtEn= 2.09D-02
 Coeff-Com:  0.237D-01-0.360D-01-0.192D+00-0.955D-01 0.130D+01
 Coeff-En:   0.000D+00 0.000D+00 0.000D+00 0.000D+00 0.100D+01
 Coeff:      0.232D-01-0.353D-01-0.188D+00-0.935D-01 0.129D+01
 Gap=     0.296 Goal=   None    Shift=    0.000
 Gap=     0.391 Goal=   None    Shift=    0.000
 RMSDP=1.98D-04 MaxDP=4.81D-03 DE=-6.11D-04 OVMax= 1.51D-02

 Cycle   6  Pass 1  IDiag  1:
 E= -112.559930223314     Delta-E=       -0.000246859794 Rises=F Damp=F
 DIIS: error= 1.04D-03 at cycle   6 NSaved=   6.
 NSaved= 6 IEnMin= 6 EnMin= -112.559930223314     IErMin= 6 ErrMin= 1.04D-03
 ErrMax= 1.04D-03  0.00D+00 EMaxC= 1.00D-01 BMatC= 4.29D-05 BMatP= 2.77D-04
 IDIUse=3 WtCom= 9.90D-01 WtEn= 1.04D-02
 Coeff-Com: -0.201D-01 0.339D-01 0.138D+00-0.659D-02-0.984D+00 0.184D+01
 Coeff-En:   0.000D+00 0.000D+00 0.000D+00 0.000D+00 0.000D+00 0.100D+01
 Coeff:     -0.199D-01 0.336D-01 0.136D+00-0.652D-02-0.974D+00 0.183D+01
 Gap=     0.296 Goal=   None    Shift=    0.000
 Gap=     0.389 Goal=   None    Shift=    0.000
 RMSDP=1.14D-04 MaxDP=3.32D-03 DE=-2.47D-04 OVMax= 9.81D-03

 Cycle   7  Pass 1  IDiag  1:
 E= -112.559992103392     Delta-E=       -0.000061880078 Rises=F Damp=F
 DIIS: error= 3.73D-04 at cycle   7 NSaved=   7.
 NSaved= 7 IEnMin= 7 EnMin= -112.559992103392     IErMin= 7 ErrMin= 3.73D-04
 ErrMax= 3.73D-04  0.00D+00 EMaxC= 1.00D-01 BMatC= 8.78D-06 BMatP= 4.29D-05
 IDIUse=3 WtCom= 9.96D-01 WtEn= 3.73D-03
 Coeff-Com:  0.312D-02-0.588D-02-0.235D-01 0.105D-01 0.238D+00-0.100D+01
 Coeff-Com:  0.178D+01
 Coeff-En:   0.000D+00 0.000D+00 0.000D+00 0.000D+00 0.000D+00 0.000D+00
 Coeff-En:   0.100D+01
 Coeff:      0.311D-02-0.586D-02-0.234D-01 0.105D-01 0.237D+00-0.999D+00
 Coeff:      0.178D+01
 Gap=     0.296 Goal=   None    Shift=    0.000
 Gap=     0.388 Goal=   None    Shift=    0.000
 RMSDP=7.03D-05 MaxDP=2.08D-03 DE=-6.19D-05 OVMax= 5.37D-03

 Cycle   8  Pass 1  IDiag  1:
 E= -112.560004844457     Delta-E=       -0.000012741065 Rises=F Damp=F
 DIIS: error= 7.31D-05 at cycle   8 NSaved=   8.
 NSaved= 8 IEnMin= 8 EnMin= -112.560004844457     IErMin= 8 ErrMin= 7.31D-05
 ErrMax= 7.31D-05  0.00D+00 EMaxC= 1.00D-01 BMatC= 6.83D-07 BMatP= 8.78D-06
 IDIUse=1 WtCom= 1.00D+00 WtEn= 0.00D+00
 Coeff-Com:  0.142D-02-0.235D-02-0.667D-02-0.313D-02 0.347D-01 0.163D+00
 Coeff-Com: -0.715D+00 0.153D+01
 Coeff:      0.142D-02-0.235D-02-0.667D-02-0.313D-02 0.347D-01 0.163D+00
 Coeff:     -0.715D+00 0.153D+01
 Gap=     0.296 Goal=   None    Shift=    0.000
 Gap=     0.388 Goal=   None    Shift=    0.000
 RMSDP=1.68D-05 MaxDP=4.46D-04 DE=-1.27D-05 OVMax= 1.01D-03

 Cycle   9  Pass 1  IDiag  1:
 E= -112.560005485822     Delta-E=       -0.000000641365 Rises=F Damp=F
 DIIS: error= 1.48D-05 at cycle   9 NSaved=   9.
 NSaved= 9 IEnMin= 9 EnMin= -112.560005485822     IErMin= 9 ErrMin= 1.48D-05
 ErrMax= 1.48D-05  0.00D+00 EMaxC= 1.00D-01 BMatC= 2.52D-08 BMatP= 6.83D-07
 IDIUse=1 WtCom= 1.00D+00 WtEn= 0.00D+00
 Coeff-Com: -0.603D-03 0.106D-02 0.282D-02 0.518D-03-0.209D-01-0.117D-02
 Coeff-Com:  0.120D+00-0.430D+00 0.133D+01
 Coeff:     -0.603D-03 0.106D-02 0.282D-02 0.518D-03-0.209D-01-0.117D-02
 Coeff:      0.120D+00-0.430D+00 0.133D+01
 Gap=     0.296 Goal=   None    Shift=    0.000
 Gap=     0.388 Goal=   None    Shift=    0.000
 RMSDP=2.25D-06 MaxDP=5.71D-05 DE=-6.41D-07 OVMax= 9.15D-05

 Cycle  10  Pass 1  IDiag  1:
 E= -112.560005507179     Delta-E=       -0.000000021357 Rises=F Damp=F
 DIIS: error= 6.67D-06 at cycle  10 NSaved=  10.
 NSaved=10 IEnMin=10 EnMin= -112.560005507179     IErMin=10 ErrMin= 6.67D-06
 ErrMax= 6.67D-06  0.00D+00 EMaxC= 1.00D-01 BMatC= 4.58D-09 BMatP= 2.52D-08
 IDIUse=1 WtCom= 1.00D+00 WtEn= 0.00D+00
 Coeff-Com:  0.269D-03-0.467D-03-0.148D-02 0.953D-04 0.109D-01-0.201D-02
 Coeff-Com: -0.530D-01 0.205D+00-0.832D+00 0.167D+01
 Coeff:      0.269D-03-0.467D-03-0.148D-02 0.953D-04 0.109D-01-0.201D-02
 Coeff:     -0.530D-01 0.205D+00-0.832D+00 0.167D+01
 Gap=     0.296 Goal=   None    Shift=    0.000
 Gap=     0.388 Goal=   None    Shift=    0.000
 RMSDP=9.20D-07 MaxDP=1.55D-05 DE=-2.14D-08 OVMax= 4.47D-05

 Cycle  11  Pass 1  IDiag  1:
 E= -112.560005512669     Delta-E=       -0.000000005490 Rises=F Damp=F
 DIIS: error= 3.69D-06 at cycle  11 NSaved=  11.
 NSaved=11 IEnMin=11 EnMin= -112.560005512669     IErMin=11 ErrMin= 3.69D-06
 ErrMax= 3.69D-06  0.00D+00 EMaxC= 1.00D-01 BMatC= 1.33D-09 BMatP= 4.58D-09
 IDIUse=1 WtCom= 1.00D+00 WtEn= 0.00D+00
 Coeff-Com: -0.111D-03 0.195D-03 0.606D-03 0.295D-03-0.560D-02 0.163D-02
 Coeff-Com:  0.192D-01-0.909D-01 0.548D+00-0.191D+01 0.244D+01
 Coeff:     -0.111D-03 0.195D-03 0.606D-03 0.295D-03-0.560D-02 0.163D-02
 Coeff:      0.192D-01-0.909D-01 0.548D+00-0.191D+01 0.244D+01
 Gap=     0.296 Goal=   None    Shift=    0.000
 Gap=     0.388 Goal=   None    Shift=    0.000
 RMSDP=8.38D-07 MaxDP=1.58D-05 DE=-5.49D-09 OVMax= 4.55D-05

 Cycle  12  Pass 1  IDiag  1:
 E= -112.560005514680     Delta-E=       -0.000000002011 Rises=F Damp=F
 DIIS: error= 5.72D-07 at cycle  12 NSaved=  12.
 NSaved=12 IEnMin=12 EnMin= -112.560005514680     IErMin=12 ErrMin= 5.72D-07
 ErrMax= 5.72D-07  0.00D+00 EMaxC= 1.00D-01 BMatC= 4.69D-11 BMatP= 1.33D-09
 IDIUse=1 WtCom= 1.00D+00 WtEn= 0.00D+00
 Coeff-Com:  0.317D-04-0.536D-04-0.213D-03-0.418D-04 0.169D-02-0.920D-03
 Coeff-Com: -0.399D-02 0.218D-01-0.137D+00 0.534D+00-0.809D+00 0.139D+01
 Coeff:      0.317D-04-0.536D-04-0.213D-03-0.418D-04 0.169D-02-0.920D-03
 Coeff:     -0.399D-02 0.218D-01-0.137D+00 0.534D+00-0.809D+00 0.139D+01
 Gap=     0.296 Goal=   None    Shift=    0.000
 Gap=     0.388 Goal=   None    Shift=    0.000
 RMSDP=1.23D-07 MaxDP=1.95D-06 DE=-2.01D-09 OVMax= 4.76D-06

 Cycle  13  Pass 1  IDiag  1:
 E= -112.560005514718     Delta-E=       -0.000000000038 Rises=F Damp=F
 DIIS: error= 1.40D-07 at cycle  13 NSaved=  13.
 NSaved=13 IEnMin=13 EnMin= -112.560005514718     IErMin=13 ErrMin= 1.40D-07
 ErrMax= 1.40D-07  0.00D+00 EMaxC= 1.00D-01 BMatC= 2.96D-12 BMatP= 4.69D-11
 IDIUse=1 WtCom= 1.00D+00 WtEn= 0.00D+00
 Coeff-Com: -0.738D-05 0.123D-04 0.614D-04 0.160D-04-0.446D-03 0.993D-04
 Coeff-Com:  0.155D-02-0.643D-02 0.321D-01-0.115D+00 0.192D+00-0.566D+00
 Coeff-Com:  0.146D+01
 Coeff:     -0.738D-05 0.123D-04 0.614D-04 0.160D-04-0.446D-03 0.993D-04
 Coeff:      0.155D-02-0.643D-02 0.321D-01-0.115D+00 0.192D+00-0.566D+00
 Coeff:      0.146D+01
 Gap=     0.296 Goal=   None    Shift=    0.000
 Gap=     0.388 Goal=   None    Shift=    0.000
 RMSDP=4.06D-08 MaxDP=1.00D-06 DE=-3.81D-11 OVMax= 1.69D-06

 Cycle  14  Pass 1  IDiag  1:
 E= -112.560005514721     Delta-E=       -0.000000000003 Rises=F Damp=F
 DIIS: error= 4.67D-08 at cycle  14 NSaved=  14.
 NSaved=14 IEnMin=14 EnMin= -112.560005514721     IErMin=14 ErrMin= 4.67D-08
 ErrMax= 4.67D-08  0.00D+00 EMaxC= 1.00D-01 BMatC= 2.68D-13 BMatP= 2.96D-12
 IDIUse=1 WtCom= 1.00D+00 WtEn= 0.00D+00
 Coeff-Com: -0.612D-06 0.117D-05-0.314D-05 0.411D-05-0.533D-05 0.631D-05
 Coeff-Com: -0.407D-04-0.533D-05 0.191D-02-0.111D-01 0.102D-01 0.692D-01
 Coeff-Com: -0.484D+00 0.141D+01
 Coeff:     -0.612D-06 0.117D-05-0.314D-05 0.411D-05-0.533D-05 0.631D-05
 Coeff:     -0.407D-04-0.533D-05 0.191D-02-0.111D-01 0.102D-01 0.692D-01
 Coeff:     -0.484D+00 0.141D+01
 Gap=     0.296 Goal=   None    Shift=    0.000
 Gap=     0.388 Goal=   None    Shift=    0.000
 RMSDP=1.17D-08 MaxDP=2.88D-07 DE=-2.87D-12 OVMax= 4.82D-07

 Cycle  15  Pass 1  IDiag  1:
 E= -112.560005514722     Delta-E=       -0.000000000000 Rises=F Damp=F
 DIIS: error= 1.47D-08 at cycle  15 NSaved=  15.
 NSaved=15 IEnMin=15 EnMin= -112.560005514722     IErMin=15 ErrMin= 1.47D-08
 ErrMax= 1.47D-08  0.00D+00 EMaxC= 1.00D-01 BMatC= 1.69D-14 BMatP= 2.68D-13
 IDIUse=1 WtCom= 1.00D+00 WtEn= 0.00D+00
 Coeff-Com: -0.152D-06 0.227D-06 0.389D-05-0.328D-06-0.195D-04 0.175D-04
 Coeff-Com:  0.618D-04-0.249D-03 0.370D-03 0.179D-02-0.217D-02-0.200D-01
 Coeff-Com:  0.188D+00-0.749D+00 0.158D+01
 Coeff:     -0.152D-06 0.227D-06 0.389D-05-0.328D-06-0.195D-04 0.175D-04
 Coeff:      0.618D-04-0.249D-03 0.370D-03 0.179D-02-0.217D-02-0.200D-01
 Coeff:      0.188D+00-0.749D+00 0.158D+01
 Gap=     0.296 Goal=   None    Shift=    0.000
 Gap=     0.388 Goal=   None    Shift=    0.000
 RMSDP=3.00D-09 MaxDP=7.68D-08 DE=-3.98D-13 OVMax= 1.24D-07

 SCF Done:  E(UHF) =  -112.560005515     A.U. after   15 cycles
            NFock= 15  Conv=0.30D-08     -V/T= 2.0004
 <Sx>= 0.0000 <Sy>= 0.0000 <Sz>= 1.5000 <S**2>= 3.7827 S= 1.5082
 <L.S>= 0.000000000000E+00
 KE= 1.125161055121D+02 PE=-3.097774360538D+02 EE= 6.516058029915D+01
 Annihilation of the first spin contaminant:
 S**2 before annihilation     3.7827,   after     3.7504
 Leave Link  502 at Fri Mar  8 08:39:04 2019, MaxMem=    33554432 cpu:         7.7
 (Enter /home/proyectos/fulerenos/M3C-v2.0/M3C-deps_CCC/g09-AM64L-G09RevC.01/l801.exe)
 Windowed orbitals will be sorted by symmetry type.
 ExpMin= 4.38D-02 ExpMax= 8.59D+03 ExpMxC= 1.30D+03 IAcc=3 IRadAn=         5 AccDes= 0.00D+00
 HarFok:  IExCor=  205 AccDes= 0.00D+00 IRadAn=         5 IDoV=-2 UseB2=F ITyADJ=14
 ICtDFT= 12500011 ScaDFX=  1.000000  1.000000  1.000000  1.000000
 Largest valence mixing into a core orbital is  1.19D-04
 Largest core mixing into a valence orbital is  3.81D-05
 Largest valence mixing into a core orbital is  2.19D-04
 Largest core mixing into a valence orbital is  5.19D-05
 Range of M.O.s used for correlation:     3    78
 NBasis=    78 NAE=     9 NBE=     6 NFC=     2 NFV=     0
 NROrb=     76 NOA=     7 NOB=     4 NVA=    69 NVB=    72
 Leave Link  801 at Fri Mar  8 08:39:07 2019, MaxMem=    33554432 cpu:         4.1
 (Enter /home/proyectos/fulerenos/M3C-v2.0/M3C-deps_CCC/g09-AM64L-G09RevC.01/l804.exe)
 Open-shell transformation, MDV=    33554432 ITran=4 ISComp=2.
 Semi-Direct transformation.
 ModeAB=           2 MOrb=             7 LenV=      33223681
 LASXX=       364543 LTotXX=      364543 LenRXX=      364543
 LTotAB=      385358 MaxLAS=     2178540 LenRXY=     2178540
 NonZer=     2299836 LenScr=     4137984 LnRSAI=           0
 LnScr1=           0 LExtra=           0 Total=      6681067
 MaxDsk=          -1 SrtSym=           F ITran=            4
 DoSDTr:  NPSUse=  4
 JobTyp=1 Pass  1:  I=   1 to   7.
 (rs|ai) integrals will be sorted in core.
 Complete sort for first half transformation.
 First half transformation complete.
 Complete sort for second half transformation.
 Second half transformation complete.
 ModeAB=           2 MOrb=             4 LenV=      33223681
 LASXX=       214556 LTotXX=      214556 LenRXX=     1244880
 LTotAB=      186061 MaxLAS=     1244880 LenRXY=      186061
 NonZer=     1314192 LenScr=     2627584 LnRSAI=           0
 LnScr1=           0 LExtra=           0 Total=      4058525
 MaxDsk=          -1 SrtSym=           F ITran=            4
 DoSDTr:  NPSUse=  4
 JobTyp=2 Pass  1:  I=   1 to   4.
 (rs|ai) integrals will be sorted in core.
 Complete sort for first half transformation.
 First half transformation complete.
 Complete sort for second half transformation.
 Second half transformation complete.
 Spin components of T(2) and E(2):
     alpha-alpha T2 =       0.1775259877D-01 E2=     -0.5985925836D-01
     alpha-beta  T2 =       0.6627019638D-01 E2=     -0.2355803390D+00
     beta-beta   T2 =       0.1493220873D-01 E2=     -0.4070347682D-01
 ANorm=    0.1048310547D+01
 E2 =    -0.3361430741D+00 EUMP2 =    -0.11289614858886D+03
 (S**2,0)=  0.37827D+01           (S**2,1)=  0.37628D+01
 E(PUHF)=      -0.11256382213D+03        E(PMP2)=      -0.11289881093D+03
 Leave Link  804 at Fri Mar  8 08:39:12 2019, MaxMem=    33554432 cpu:        13.0
 (Enter /home/proyectos/fulerenos/M3C-v2.0/M3C-deps_CCC/g09-AM64L-G09RevC.01/l913.exe)
 CIDS:  MDV=    33554432.
 Frozen-core window:  NFC=   2 NFV=   0.
 IFCWin=0 IBDFC=1 NFBD=     0     0 NFCmp=     0     0 NFFFC=     0     0
 Using original routines for 1st iteration, S=T.
 Using DD4UQ or CC4UQ for 2nd and later iterations.
 Keep R2 and R3 ints in memory in symmetry-blocked form, NReq=6698119.
 FoFCou: FMM=F IPFlag=           0 FMFlag=           0 FMFlg1=           0
         NFxFlg=           0 DoJE=F BraDBF=F KetDBF=F FulRan=T
         wScrn=  0.000000 ICntrl=     600 IOpCl=  0 I1Cent=           0 NGrid=           0
         NMat0=    1 NMatS0=   3081 NMatT0=    0 NMatD0=    1 NMtDS0=    0 NMtDT0=    0
 Petite list used in FoFCou.
 CCSD(T)
 =======
 Iterations= 200 Convergence= 0.100D-06
 Iteration Nr.   1
 **********************
 DD1Dir will call FoFMem   1 times, MxPair=        84
 NAB=    28 NAA=    21 NBB=     6.
 E(PMP3)=      -0.11289797065D+03
 MP4(R+Q)=  0.67800894D-02
 Maximum subspace dimension=  5
 Norm of the A-vectors is  3.6836290D-01 conv= 1.00D-05.
 RLE energy=       -0.3292199600
 E3=        0.40584486D-04        EUMP3=      -0.11289610800D+03
 E4(DQ)=   -0.13683578D-02        UMP4(DQ)=   -0.11289747636D+03
 E4(SDQ)=  -0.81316616D-02        UMP4(SDQ)=  -0.11290423967D+03
 VARIATIONAL ENERGIES WITH THE FIRST-ORDER WAVEFUNCTION:
 DE(Corr)= -0.32907455     E(Corr)=     -112.88908007    
 NORM(A)=   0.10495624D+01
 Iteration Nr.   2
 **********************
 DD1Dir will call FoFMem   1 times, MxPair=        84
 NAB=    28 NAA=    21 NBB=     6.
 Norm of the A-vectors is  1.9165160D-01 conv= 1.00D-05.
 RLE energy=       -0.3421542104
 DE(Corr)= -0.34137940     E(CORR)=     -112.90138492     Delta=-1.23D-02
 NORM(A)=   0.10570476D+01
 Iteration Nr.   3
 **********************
 DD1Dir will call FoFMem   1 times, MxPair=        84
 NAB=    28 NAA=    21 NBB=     6.
 Norm of the A-vectors is  6.6084856D-02 conv= 1.00D-05.
 RLE energy=       -0.3440466148
 DE(Corr)= -0.34173043     E(CORR)=     -112.90173594     Delta=-3.51D-04
 NORM(A)=   0.10631832D+01
 Iteration Nr.   4
 **********************
 DD1Dir will call FoFMem   1 times, MxPair=        84
 NAB=    28 NAA=    21 NBB=     6.
 Norm of the A-vectors is  5.1214745D-02 conv= 1.00D-05.
 RLE energy=       -0.3445207335
 DE(Corr)= -0.34402484     E(CORR)=     -112.90403036     Delta=-2.29D-03
 NORM(A)=   0.10666905D+01
 Iteration Nr.   5
 **********************
 DD1Dir will call FoFMem   1 times, MxPair=        84
 NAB=    28 NAA=    21 NBB=     6.
 Norm of the A-vectors is  1.9024553D-02 conv= 1.00D-05.
 RLE energy=       -0.3448171365
 DE(Corr)= -0.34462505     E(CORR)=     -112.90463057     Delta=-6.00D-04
 NORM(A)=   0.10686347D+01
 Iteration Nr.   6
 **********************
 DD1Dir will call FoFMem   1 times, MxPair=        84
 NAB=    28 NAA=    21 NBB=     6.
 Norm of the A-vectors is  1.2572640D-02 conv= 1.00D-05.
 RLE energy=       -0.3448328980
 DE(Corr)= -0.34479838     E(CORR)=     -112.90480389     Delta=-1.73D-04
 NORM(A)=   0.10692176D+01
 Iteration Nr.   7
 **********************
 DD1Dir will call FoFMem   1 times, MxPair=        84
 NAB=    28 NAA=    21 NBB=     6.
 Norm of the A-vectors is  4.5957304D-03 conv= 1.00D-05.
 RLE energy=       -0.3448090841
 DE(Corr)= -0.34485012     E(CORR)=     -112.90485564     Delta=-5.17D-05
 NORM(A)=   0.10693438D+01
 Iteration Nr.   8
 **********************
 DD1Dir will call FoFMem   1 times, MxPair=        84
 NAB=    28 NAA=    21 NBB=     6.
 Norm of the A-vectors is  2.4776982D-03 conv= 1.00D-05.
 RLE energy=       -0.3448427641
 DE(Corr)= -0.34484645     E(CORR)=     -112.90485197     Delta= 3.67D-06
 NORM(A)=   0.10694309D+01
 Iteration Nr.   9
 **********************
 DD1Dir will call FoFMem   1 times, MxPair=        84
 NAB=    28 NAA=    21 NBB=     6.
 Norm of the A-vectors is  1.3479374D-03 conv= 1.00D-05.
 RLE energy=       -0.3448503861
 DE(Corr)= -0.34485273     E(CORR)=     -112.90485824     Delta=-6.27D-06
 NORM(A)=   0.10694398D+01
 Iteration Nr.  10
 **********************
 DD1Dir will call FoFMem   1 times, MxPair=        84
 NAB=    28 NAA=    21 NBB=     6.
 Norm of the A-vectors is  6.1915909D-04 conv= 1.00D-05.
 RLE energy=       -0.3448523458
 DE(Corr)= -0.34485199     E(CORR)=     -112.90485750     Delta= 7.37D-07
 NORM(A)=   0.10694593D+01
 Iteration Nr.  11
 **********************
 DD1Dir will call FoFMem   1 times, MxPair=        84
 NAB=    28 NAA=    21 NBB=     6.
 Norm of the A-vectors is  3.6938506D-04 conv= 1.00D-05.
 RLE energy=       -0.3448568836
 DE(Corr)= -0.34485613     E(CORR)=     -112.90486164     Delta=-4.14D-06
 NORM(A)=   0.10694708D+01
 Iteration Nr.  12
 **********************
 DD1Dir will call FoFMem   1 times, MxPair=        84
 NAB=    28 NAA=    21 NBB=     6.
 Norm of the A-vectors is  1.3633749D-04 conv= 1.00D-05.
 RLE energy=       -0.3448582422
 DE(Corr)= -0.34485716     E(CORR)=     -112.90486268     Delta=-1.03D-06
 NORM(A)=   0.10694825D+01
 Iteration Nr.  13
 **********************
 DD1Dir will call FoFMem   1 times, MxPair=        84
 NAB=    28 NAA=    21 NBB=     6.
 Norm of the A-vectors is  1.0400341D-04 conv= 1.00D-05.
 RLE energy=       -0.3448593501
 DE(Corr)= -0.34485877     E(CORR)=     -112.90486428     Delta=-1.61D-06
 NORM(A)=   0.10694893D+01
 Iteration Nr.  14
 **********************
 DD1Dir will call FoFMem   1 times, MxPair=        84
 NAB=    28 NAA=    21 NBB=     6.
 Norm of the A-vectors is  5.1326519D-05 conv= 1.00D-05.
 RLE energy=       -0.3448600752
 DE(Corr)= -0.34485962     E(CORR)=     -112.90486513     Delta=-8.49D-07
 NORM(A)=   0.10694936D+01
 Iteration Nr.  15
 **********************
 DD1Dir will call FoFMem   1 times, MxPair=        84
 NAB=    28 NAA=    21 NBB=     6.
 Norm of the A-vectors is  3.3407142D-05 conv= 1.00D-05.
 RLE energy=       -0.3448603036
 DE(Corr)= -0.34486006     E(CORR)=     -112.90486557     Delta=-4.39D-07
 NORM(A)=   0.10694962D+01
 Iteration Nr.  16
 **********************
 DD1Dir will call FoFMem   1 times, MxPair=        84
 NAB=    28 NAA=    21 NBB=     6.
 Norm of the A-vectors is  2.2039775D-05 conv= 1.00D-05.
 RLE energy=       -0.3448604340
 DE(Corr)= -0.34486036     E(CORR)=     -112.90486588     Delta=-3.03D-07
 NORM(A)=   0.10694972D+01
 Iteration Nr.  17
 **********************
 DD1Dir will call FoFMem   1 times, MxPair=        84
 NAB=    28 NAA=    21 NBB=     6.
 Norm of the A-vectors is  1.1695710D-05 conv= 1.00D-05.
 RLE energy=       -0.3448604560
 DE(Corr)= -0.34486044     E(CORR)=     -112.90486595     Delta=-7.61D-08
 NORM(A)=   0.10694976D+01
 Iteration Nr.  18
 **********************
 DD1Dir will call FoFMem   1 times, MxPair=        84
 NAB=    28 NAA=    21 NBB=     6.
 Norm of the A-vectors is  7.5510629D-06 conv= 1.00D-05.
 RLE energy=       -0.3448604459
 DE(Corr)= -0.34486046     E(CORR)=     -112.90486597     Delta=-2.10D-08
 NORM(A)=   0.10694976D+01
 CI/CC converged in   18 iterations to DelEn=-2.10D-08 Conv= 1.00D-07 ErrA1= 7.55D-06 Conv= 1.00D-05
 Largest amplitude= 6.90D-02
 Time for triples=       20.85 seconds.
 T4(CCSD)= -0.18497628D-01
 T5(CCSD)=  0.20604878D-02
 CCSD(T)= -0.11292130311D+03

 S**2, projected HF & approx projected MPn energies after annihilation of
 unwanted spin states (see manual for definitions):

 spins       (S**2,0) (S**2,1)    PUHF        PMP2        PMP3        PMP4
 annihilated
 s+1         3.74975  3.75015 -112.563822 -112.898811 -112.897971
 s+1,s+2     3.75000  3.75000 -112.563794 -112.898788 -112.897948
 s+1 to s+3  3.75000  3.75000 -112.563794 -112.898788 -112.897948
 s+1 to s+4  3.75000  3.75000 -112.563794 -112.898788 -112.897948

 Discarding MO integrals.
 Leave Link  913 at Fri Mar  8 08:39:29 2019, MaxMem=    33554432 cpu:        68.8
 (Enter /home/proyectos/fulerenos/M3C-v2.0/M3C-deps_CCC/g09-AM64L-G09RevC.01/l601.exe)
 Copying SCF densities to generalized density rwf, IOpCl= 1 IROHF=0.

 **********************************************************************

            Population analysis using the SCF density.

 **********************************************************************

 Orbital symmetries:
 Alpha Orbitals:
       Occupied  (SG) (SG) (SG) (SG) (PI) (PI) (SG) (PI) (PI)
       Virtual   (SG) (SG) (PI) (PI) (SG) (PI) (PI) (SG) (DLTA)
                 (DLTA) (SG) (PI) (PI) (SG) (PI) (PI) (SG) (SG)
                 (DLTA) (DLTA) (PI) (PI) (SG) (PI) (PI) (SG) (DLTA)
                 (DLTA) (PI) (PI) (SG) (SG) (PI) (PI) (PHI) (PHI)
                 (DLTA) (DLTA) (PI) (PI) (SG) (SG) (DLTA) (DLTA)
                 (PI) (PI) (SG) (PHI) (PHI) (PI) (PI) (DLTA) (DLTA)
                 (SG) (PI) (PI) (SG) (DLTA) (DLTA) (PI) (PI) (SG)
                 (DLTA) (DLTA) (PI) (PI) (SG) (SG) (SG)
 Beta  Orbitals:
       Occupied  (SG) (SG) (SG) (SG) (PI) (PI)
       Virtual   (SG) (SG) (PI) (PI) (SG) (SG) (PI) (PI) (PI) (PI)
                 (SG) (DLTA) (DLTA) (SG) (PI) (PI) (SG) (PI) (PI)
                 (SG) (SG) (DLTA) (DLTA) (PI) (PI) (SG) (PI) (PI)
                 (SG) (DLTA) (DLTA) (PI) (PI) (SG) (SG) (PI) (PI)
                 (PHI) (PHI) (DLTA) (DLTA) (PI) (PI) (SG) (SG)
                 (DLTA) (DLTA) (PI) (PI) (SG) (PHI) (PHI) (PI)
                 (PI) (DLTA) (DLTA) (SG) (PI) (PI) (SG) (DLTA)
                 (DLTA) (PI) (PI) (SG) (DLTA) (DLTA) (PI) (PI)
                 (SG) (SG) (SG)
 The electronic state is 4-SG.
 Alpha  occ. eigenvalues --  -20.27895 -11.05043  -1.08181  -0.56450  -0.31931
 Alpha  occ. eigenvalues --   -0.31931  -0.31911  -0.04868  -0.04868
 Alpha virt. eigenvalues --    0.24768   0.26130   0.28243   0.28243   0.46267
 Alpha virt. eigenvalues --    0.49877   0.49877   0.54850   0.67613   0.67613
 Alpha virt. eigenvalues --    0.68742   0.78898   0.78898   0.86952   0.93833
 Alpha virt. eigenvalues --    0.93833   1.05755   1.22146   1.32794   1.32794
 Alpha virt. eigenvalues --    1.46013   1.46013   1.56976   1.69880   1.69880
 Alpha virt. eigenvalues --    1.85400   2.05316   2.05316   2.29108   2.29108
 Alpha virt. eigenvalues --    2.42124   2.54540   3.33473   3.33473   3.35573
 Alpha virt. eigenvalues --    3.35573   3.42096   3.42096   3.51801   3.51801
 Alpha virt. eigenvalues --    3.77454   3.98989   4.08648   4.08648   4.60753
 Alpha virt. eigenvalues --    4.60753   4.96622   5.78574   5.78574   5.91667
 Alpha virt. eigenvalues --    5.91667   6.02638   6.02638   6.18340   6.78105
 Alpha virt. eigenvalues --    6.78105   6.99264   7.64375   7.64375   7.93746
 Alpha virt. eigenvalues --    7.93746   8.23430  15.27856  15.27856  15.52202
 Alpha virt. eigenvalues --   15.52202  15.79178  25.66331  52.15357
  Beta  occ. eigenvalues --  -20.24875 -10.98676  -0.98690  -0.33741  -0.17479
  Beta  occ. eigenvalues --   -0.17479
  Beta virt. eigenvalues --    0.21309   0.26171   0.27208   0.27208   0.34717
  Beta virt. eigenvalues --    0.47036   0.48073   0.48073   0.54315   0.54315
  Beta virt. eigenvalues --    0.57677   0.72474   0.72474   0.76397   0.84721
  Beta virt. eigenvalues --    0.84721   0.93250   1.04477   1.04477   1.15693
  Beta virt. eigenvalues --    1.28936   1.33677   1.33677   1.49760   1.49760
  Beta virt. eigenvalues --    1.60814   1.75309   1.75309   1.87995   2.19205
  Beta virt. eigenvalues --    2.19205   2.39140   2.39140   2.51350   2.58467
  Beta virt. eigenvalues --    3.43071   3.43071   3.44116   3.44116   3.48814
  Beta virt. eigenvalues --    3.48814   3.57766   3.57766   3.84953   4.04908
  Beta virt. eigenvalues --    4.14418   4.14418   4.65711   4.65711   5.01131
  Beta virt. eigenvalues --    5.81272   5.81272   5.96273   5.96273   6.05399
  Beta virt. eigenvalues --    6.05399   6.21320   6.81386   6.81386   7.03048
  Beta virt. eigenvalues --    7.73398   7.73398   8.00623   8.00623   8.29845
  Beta virt. eigenvalues --   15.32366  15.32366  15.55753  15.55753  15.82483
  Beta virt. eigenvalues --   25.70791  52.17112
          Condensed to atoms (all electrons):
               1          2
     1  C    6.361625  -0.153810
     2  O   -0.153810   8.945994
          Atomic-Atomic Spin Densities.
               1          2
     1  C    3.338979  -0.624515
     2  O   -0.624515   0.910052
 Mulliken charges and spin densities:
               1          2
     1  C   -0.207815   2.714463
     2  O   -0.792185   0.285537
 Sum of Mulliken charges =  -1.00000   3.00000
 Mulliken charges and spin densities with hydrogens summed into heavy atoms:
               1          2
     1  C   -0.207815   2.714463
     2  O   -0.792185   0.285537
 Electronic spatial extent (au):  <R**2>=             56.9081
 Charge=             -1.0000 electrons
 Dipole moment (field-independent basis, Debye):
    X=              0.0000    Y=              0.0000    Z=             -0.3083  Tot=              0.3083
 Quadrupole moment (field-independent basis, Debye-Ang):
   XX=            -15.6808   YY=            -15.6808   ZZ=            -17.3559
   XY=              0.0000   XZ=              0.0000   YZ=              0.0000
 Traceless Quadrupole moment (field-independent basis, Debye-Ang):
   XX=              0.5584   YY=              0.5584   ZZ=             -1.1167
   XY=              0.0000   XZ=              0.0000   YZ=              0.0000
 Octapole moment (field-independent basis, Debye-Ang**2):
  XXX=              0.0000  YYY=              0.0000  ZZZ=              8.3551  XYY=              0.0000
  XXY=              0.0000  XXZ=              4.0303  XZZ=              0.0000  YZZ=              0.0000
  YYZ=              4.0303  XYZ=              0.0000
 Hexadecapole moment (field-independent basis, Debye-Ang**3):
 XXXX=            -27.1681 YYYY=            -27.1681 ZZZZ=            -61.2450 XXXY=              0.0000
 XXXZ=              0.0000 YYYX=              0.0000 YYYZ=              0.0000 ZZZX=              0.0000
 ZZZY=              0.0000 XXYY=             -9.0560 XXZZ=            -16.8987 YYZZ=            -16.8987
 XXYZ=              0.0000 YYXZ=              0.0000 ZZXY=              0.0000
 N-N= 1.954074472781D+01 E-N=-3.097774358512D+02  KE= 1.125161055121D+02
 Symmetry A1   KE= 1.019687878542D+02
 Symmetry A2   KE=-3.795975771512D-52
 Symmetry B1   KE= 5.273658828924D+00
 Symmetry B2   KE= 5.273658828925D+00
 Leave Link  601 at Fri Mar  8 08:39:30 2019, MaxMem=    33554432 cpu:         0.2
 (Enter /home/proyectos/fulerenos/M3C-v2.0/M3C-deps_CCC/g09-AM64L-G09RevC.01/l9999.exe)
 1\1\GINC-DUBNIO\SP\UCCSD(T)-FC\6-311++G(3df,2p)\C1O1(1-,4)\ROOT\08-Mar
 -2019\0\\#p ccsd(t,maxcyc=200)/6-311++G(3df,2p)\\ccsd(t) iener\\-1,4\C
 ,0,-0.861954,0.,0.\O,0,0.43792,0.,0.\\Version=EM64L-G09RevE.01\State=4
 -SG\HF=-112.5600055\MP2=-112.8961486\MP3=-112.896108\MP4D=-112.9042565
 \MP4DQ=-112.8974764\PUHF=-112.5638221\PMP2-0=-112.8988109\PMP3-0=-112.
 8979706\MP4SDQ=-112.9042397\CCSD=-112.904866\CCSD(T)=-112.9213031\S2=3
 .782705\S2-1=3.762768\S2A=3.750359\RMSD=3.001e-09\PG=C*V [C*(C1O1)]\\@


 A DANDELION FROM A LOVER MEANS MORE THAN AN ORCHID FROM A FRIEND.
 Job cpu time:       0 days  0 hours  1 minutes 46.2 seconds.
 File lengths (MBytes):  RWF=     58 Int=      0 D2E=      0 Chk=      2 Scr=      1
 Normal termination of Gaussian 09 at Fri Mar  8 08:39:30 2019.
