 Entering Gaussian System, Link 0=/home/proyectos/fulerenos/M3C-v2.0/M3C-deps_CCC/g09-AM64L-G09RevC.01/g09
 Initial command:
 /home/proyectos/fulerenos/M3C-v2.0/M3C-deps_CCC/g09-AM64L-G09RevC.01/l1.exe "/scratch/naguirre/gaussian/Gau-40301.inp" -scrdir="/scratch/naguirre/gaussian/"
 Entering Link 1 = /home/proyectos/fulerenos/M3C-v2.0/M3C-deps_CCC/g09-AM64L-G09RevC.01/l1.exe PID=     40308.
  
 Copyright (c) 1988,1990,1992,1993,1995,1998,2003,2009,2015,
            Gaussian, Inc.  All Rights Reserved.
  
 This is part of the Gaussian(R) 09 program.  It is based on
 the Gaussian(R) 03 system (copyright 2003, Gaussian, Inc.),
 the Gaussian(R) 98 system (copyright 1998, Gaussian, Inc.),
 the Gaussian(R) 94 system (copyright 1995, Gaussian, Inc.),
 the Gaussian 92(TM) system (copyright 1992, Gaussian, Inc.),
 the Gaussian 90(TM) system (copyright 1990, Gaussian, Inc.),
 the Gaussian 88(TM) system (copyright 1988, Gaussian, Inc.),
 the Gaussian 86(TM) system (copyright 1986, Carnegie Mellon
 University), and the Gaussian 82(TM) system (copyright 1983,
 Carnegie Mellon University). Gaussian is a federally registered
 trademark of Gaussian, Inc.
  
 This software contains proprietary and confidential information,
 including trade secrets, belonging to Gaussian, Inc.
  
 This software is provided under written license and may be
 used, copied, transmitted, or stored only in accord with that
 written license.
  
 The following legend is applicable only to US Government
 contracts under FAR:
  
                    RESTRICTED RIGHTS LEGEND
  
 Use, reproduction and disclosure by the US Government is
 subject to restrictions as set forth in subparagraphs (a)
 and (c) of the Commercial Computer Software - Restricted
 Rights clause in FAR 52.227-19.
  
 Gaussian, Inc.
 340 Quinnipiac St., Bldg. 40, Wallingford CT 06492
  
  
 ---------------------------------------------------------------
 Warning -- This program may not be used in any manner that
 competes with the business of Gaussian, Inc. or will provide
 assistance to any competitor of Gaussian, Inc.  The licensee
 of this program is prohibited from giving any competitor of
 Gaussian, Inc. access to this program.  By using this program,
 the user acknowledges that Gaussian, Inc. is engaged in the
 business of creating and licensing software in the field of
 computational chemistry and represents and warrants to the
 licensee that it is not a competitor of Gaussian, Inc. and that
 it will not use this program in any manner prohibited above.
 ---------------------------------------------------------------
  

 Cite this work as:
 Gaussian 09, Revision E.01,
 M. J. Frisch, G. W. Trucks, H. B. Schlegel, G. E. Scuseria, 
 M. A. Robb, J. R. Cheeseman, G. Scalmani, V. Barone, B. Mennucci, 
 G. A. Petersson, H. Nakatsuji, M. Caricato, X. Li, H. P. Hratchian, 
 A. F. Izmaylov, J. Bloino, G. Zheng, J. L. Sonnenberg, M. Hada, 
 M. Ehara, K. Toyota, R. Fukuda, J. Hasegawa, M. Ishida, T. Nakajima, 
 Y. Honda, O. Kitao, H. Nakai, T. Vreven, J. A. Montgomery, Jr., 
 J. E. Peralta, F. Ogliaro, M. Bearpark, J. J. Heyd, E. Brothers, 
 K. N. Kudin, V. N. Staroverov, T. Keith, R. Kobayashi, J. Normand, 
 K. Raghavachari, A. Rendell, J. C. Burant, S. S. Iyengar, J. Tomasi, 
 M. Cossi, N. Rega, J. M. Millam, M. Klene, J. E. Knox, J. B. Cross, 
 V. Bakken, C. Adamo, J. Jaramillo, R. Gomperts, R. E. Stratmann, 
 O. Yazyev, A. J. Austin, R. Cammi, C. Pomelli, J. W. Ochterski, 
 R. L. Martin, K. Morokuma, V. G. Zakrzewski, G. A. Voth, 
 P. Salvador, J. J. Dannenberg, S. Dapprich, A. D. Daniels, 
 O. Farkas, J. B. Foresman, J. V. Ortiz, J. Cioslowski, 
 and D. J. Fox, Gaussian, Inc., Wallingford CT, 2013.
 
 ******************************************
 Gaussian 09:  EM64L-G09RevE.01 30-Nov-2015
                 8-Mar-2019 
 ******************************************
 %NProcShared=4
 Will use up to    4 processors via shared memory.
 --------------------------------------
 #p ccsd(t,maxcyc=200)/6-311++G(3df,2p)
 --------------------------------------
 1/38=1/1;
 2/12=2,17=6,18=5,40=1/2;
 3/5=4,6=6,7=1216,11=9,16=1,25=1,30=1/1,2,3;
 4//1;
 5/5=2,38=5/2;
 8/6=4,9=120000,10=2/1,4;
 9/5=7,6=200,14=2/13;
 6/7=2,8=2,9=2,10=2/1;
 99/5=1,9=1/99;
 Leave Link    1 at Fri Mar  8 16:49:17 2019, MaxMem=           0 cpu:         0.5
 (Enter /home/proyectos/fulerenos/M3C-v2.0/M3C-deps_CCC/g09-AM64L-G09RevC.01/l101.exe)
 -------------
 ccsd(t) iener
 -------------
 Symbolic Z-matrix:
 Charge = -1 Multiplicity = 1
 C                    -0.94082   0.31199   0.62594 
 H                     1.15128  -0.67242  -1.46204 
 H                     0.57305   0.09989  -0.20548 
 H                    -0.70782   1.00643   1.48021 
 O                     1.45856  -0.08047  -0.76901 
 
 NAtoms=      5 NQM=        5 NQMF=       0 NMMI=      0 NMMIF=      0
                NMic=       0 NMicF=      0.
                    Isotopes and Nuclear Properties:
 (Nuclear quadrupole moments (NQMom) in fm**2, nuclear magnetic moments (NMagM)
  in nuclear magnetons)

  Atom         1           2           3           4           5
 IAtWgt=          12           1           1           1          16
 AtmWgt=  12.0000000   1.0078250   1.0078250   1.0078250  15.9949146
 NucSpn=           0           1           1           1           0
 AtZEff=   0.0000000   0.0000000   0.0000000   0.0000000   0.0000000
 NQMom=    0.0000000   0.0000000   0.0000000   0.0000000   0.0000000
 NMagM=    0.0000000   2.7928460   2.7928460   2.7928460   0.0000000
 AtZNuc=   6.0000000   1.0000000   1.0000000   1.0000000   8.0000000
 Leave Link  101 at Fri Mar  8 16:49:17 2019, MaxMem=    33554432 cpu:         0.5
 (Enter /home/proyectos/fulerenos/M3C-v2.0/M3C-deps_CCC/g09-AM64L-G09RevC.01/l202.exe)
                          Input orientation:                          
 ---------------------------------------------------------------------
 Center     Atomic      Atomic             Coordinates (Angstroms)
 Number     Number       Type             X           Y           Z
 ---------------------------------------------------------------------
      1          6           0       -0.940820    0.311986    0.625935
      2          1           0        1.151282   -0.672415   -1.462044
      3          1           0        0.573048    0.099892   -0.205480
      4          1           0       -0.707816    1.006429    1.480213
      5          8           0        1.458561   -0.080473   -0.769011
 ---------------------------------------------------------------------
                    Distance matrix (angstroms):
                    1          2          3          4          5
     1  C    0.000000
     2  H    3.115380   0.000000
     3  H    1.740124   1.584224   0.000000
     4  H    1.125315   3.864148   2.303038   0.000000
     5  O    2.803021   0.961827   1.065003   3.306592   0.000000
 Stoichiometry    CH3O(1-)
 Framework group  C1[X(CH3O)]
 Deg. of freedom     9
 Full point group                 C1      NOp   1
 Largest Abelian subgroup         C1      NOp   1
 Largest concise Abelian subgroup C1      NOp   1
                         Standard orientation:                         
 ---------------------------------------------------------------------
 Center     Atomic      Atomic             Coordinates (Angstroms)
 Number     Number       Type             X           Y           Z
 ---------------------------------------------------------------------
      1          6           0        1.566521   -0.181477   -0.000154
      2          1           0       -1.486407   -0.802138    0.001169
      3          1           0       -0.156864    0.059302   -0.000480
      4          1           0        2.004275    0.855202    0.001051
      5          8           0       -1.220016    0.122062   -0.000102
 ---------------------------------------------------------------------
 Rotational constants (GHZ):    268.9760528      8.4660610      8.2077226
 Leave Link  202 at Fri Mar  8 16:49:18 2019, MaxMem=    33554432 cpu:         0.3
 (Enter /home/proyectos/fulerenos/M3C-v2.0/M3C-deps_CCC/g09-AM64L-G09RevC.01/l301.exe)
 Standard basis: 6-311++G(3df,2p) (5D, 7F)
 Ernie: Thresh=  0.10000D-02 Tol=  0.10000D-05 Strict=F.
 There are   120 symmetry adapted cartesian basis functions of A   symmetry.
 There are   108 symmetry adapted basis functions of A   symmetry.
   108 basis functions,   152 primitive gaussians,   120 cartesian basis functions
     9 alpha electrons        9 beta electrons
       nuclear repulsion energy        25.0846055097 Hartrees.
 IExCor=    0 DFT=F Ex=HF Corr=None ExCW=0 ScaHFX=  1.000000
 ScaDFX=  1.000000  1.000000  1.000000  1.000000 ScalE2=  1.000000  1.000000
 IRadAn=      0 IRanWt=     -1 IRanGd=            0 ICorTp=0 IEmpDi=  4
 NAtoms=    5 NActive=    5 NUniq=    5 SFac= 1.00D+00 NAtFMM=   60 NAOKFM=F Big=F
 Integral buffers will be    131072 words long.
 Raffenetti 1 integral format.
 Two-electron integral symmetry is turned on.
 Leave Link  301 at Fri Mar  8 16:49:18 2019, MaxMem=    33554432 cpu:         0.5
 (Enter /home/proyectos/fulerenos/M3C-v2.0/M3C-deps_CCC/g09-AM64L-G09RevC.01/l302.exe)
 NPDir=0 NMtPBC=     1 NCelOv=     1 NCel=       1 NClECP=     1 NCelD=      1
         NCelK=      1 NCelE2=     1 NClLst=     1 CellRange=     0.0.
 One-electron integrals computed using PRISM.
 NBasis=   108 RedAO= T EigKep=  7.67D-04  NBF=   108
 NBsUse=   108 1.00D-06 EigRej= -1.00D+00 NBFU=   108
 Leave Link  302 at Fri Mar  8 16:49:19 2019, MaxMem=    33554432 cpu:         1.5
 (Enter /home/proyectos/fulerenos/M3C-v2.0/M3C-deps_CCC/g09-AM64L-G09RevC.01/l303.exe)
 DipDrv:  MaxL=1.
 Leave Link  303 at Fri Mar  8 16:49:19 2019, MaxMem=    33554432 cpu:         0.7
 (Enter /home/proyectos/fulerenos/M3C-v2.0/M3C-deps_CCC/g09-AM64L-G09RevC.01/l401.exe)
 ExpMin= 3.60D-02 ExpMax= 8.59D+03 ExpMxC= 1.30D+03 IAcc=3 IRadAn=         5 AccDes= 0.00D+00
 Harris functional with IExCor=  205 and IRadAn=       5 diagonalized for initial guess.
 HarFok:  IExCor=  205 AccDes= 0.00D+00 IRadAn=         5 IDoV= 1 UseB2=F ITyADJ=14
 ICtDFT=  3500011 ScaDFX=  1.000000  1.000000  1.000000  1.000000
 FoFCou: FMM=F IPFlag=           0 FMFlag=      100000 FMFlg1=           0
         NFxFlg=           0 DoJE=T BraDBF=F KetDBF=T FulRan=T
         wScrn=  0.000000 ICntrl=     500 IOpCl=  0 I1Cent=   200000004 NGrid=           0
         NMat0=    1 NMatS0=      1 NMatT0=    0 NMatD0=    1 NMtDS0=    0 NMtDT0=    0
 Petite list used in FoFCou.
 Harris En= -114.629681923211    
 JPrj=0 DoOrth=F DoCkMO=F.
 Leave Link  401 at Fri Mar  8 16:49:21 2019, MaxMem=    33554432 cpu:         3.4
 (Enter /home/proyectos/fulerenos/M3C-v2.0/M3C-deps_CCC/g09-AM64L-G09RevC.01/l502.exe)
 Closed shell SCF:
 Using DIIS extrapolation, IDIIS=  1040.
 Integral symmetry usage will be decided dynamically.
 Keep R1 ints in memory in canonical form, NReq=19365354.
 IVT=       63344 IEndB=       63344 NGot=    33554432 MDV=    16165648
 LenX=    16165648 LenY=    16150807
 Requested convergence on RMS density matrix=1.00D-08 within 128 cycles.
 Requested convergence on MAX density matrix=1.00D-06.
 Requested convergence on             energy=1.00D-06.
 No special actions if energy rises.
 FoFCou: FMM=F IPFlag=           0 FMFlag=           0 FMFlg1=           0
         NFxFlg=           0 DoJE=F BraDBF=F KetDBF=F FulRan=T
         wScrn=  0.000000 ICntrl=     600 IOpCl=  0 I1Cent=           0 NGrid=           0
         NMat0=    1 NMatS0=   5886 NMatT0=    0 NMatD0=    1 NMtDS0=    0 NMtDT0=    0
 Symmetry not used in FoFCou.

 Cycle   1  Pass 1  IDiag  1:
 E= -114.131481874978    
 DIIS: error= 5.02D-02 at cycle   1 NSaved=   1.
 NSaved= 1 IEnMin= 1 EnMin= -114.131481874978     IErMin= 1 ErrMin= 5.02D-02
 ErrMax= 5.02D-02  0.00D+00 EMaxC= 1.00D-01 BMatC= 3.07D-01 BMatP= 3.07D-01
 IDIUse=3 WtCom= 4.98D-01 WtEn= 5.02D-01
 Coeff-Com:  0.100D+01
 Coeff-En:   0.100D+01
 Coeff:      0.100D+01
 Gap=     0.402 Goal=   None    Shift=    0.000
 GapD=    0.402 DampG=2.000 DampE=0.500 DampFc=1.0000 IDamp=-1.
 RMSDP=5.37D-03 MaxDP=9.54D-02              OVMax= 2.14D-01

 Cycle   2  Pass 1  IDiag  1:
 E= -114.247636951485     Delta-E=       -0.116155076507 Rises=F Damp=F
 DIIS: error= 3.77D-02 at cycle   2 NSaved=   2.
 NSaved= 2 IEnMin= 2 EnMin= -114.247636951485     IErMin= 2 ErrMin= 3.77D-02
 ErrMax= 3.77D-02  0.00D+00 EMaxC= 1.00D-01 BMatC= 8.61D-02 BMatP= 3.07D-01
 IDIUse=3 WtCom= 6.23D-01 WtEn= 3.77D-01
 Coeff-Com:  0.318D+00 0.682D+00
 Coeff-En:   0.873D-01 0.913D+00
 Coeff:      0.231D+00 0.769D+00
 Gap=     0.248 Goal=   None    Shift=    0.000
 RMSDP=2.52D-03 MaxDP=8.36D-02 DE=-1.16D-01 OVMax= 8.84D-02

 Cycle   3  Pass 1  IDiag  1:
 E= -114.301808405524     Delta-E=       -0.054171454038 Rises=F Damp=F
 DIIS: error= 1.19D-02 at cycle   3 NSaved=   3.
 NSaved= 3 IEnMin= 3 EnMin= -114.301808405524     IErMin= 3 ErrMin= 1.19D-02
 ErrMax= 1.19D-02  0.00D+00 EMaxC= 1.00D-01 BMatC= 9.34D-03 BMatP= 8.61D-02
 IDIUse=3 WtCom= 8.81D-01 WtEn= 1.19D-01
 Coeff-Com: -0.155D-01 0.230D+00 0.786D+00
 Coeff-En:   0.000D+00 0.000D+00 0.100D+01
 Coeff:     -0.136D-01 0.202D+00 0.811D+00
 Gap=     0.243 Goal=   None    Shift=    0.000
 RMSDP=5.14D-04 MaxDP=1.71D-02 DE=-5.42D-02 OVMax= 2.16D-02

 Cycle   4  Pass 1  IDiag  1:
 E= -114.307796109879     Delta-E=       -0.005987704356 Rises=F Damp=F
 DIIS: error= 1.59D-03 at cycle   4 NSaved=   4.
 NSaved= 4 IEnMin= 4 EnMin= -114.307796109879     IErMin= 4 ErrMin= 1.59D-03
 ErrMax= 1.59D-03  0.00D+00 EMaxC= 1.00D-01 BMatC= 1.91D-04 BMatP= 9.34D-03
 IDIUse=3 WtCom= 9.84D-01 WtEn= 1.59D-02
 Coeff-Com: -0.927D-02 0.278D-01 0.201D+00 0.780D+00
 Coeff-En:   0.000D+00 0.000D+00 0.000D+00 0.100D+01
 Coeff:     -0.912D-02 0.274D-01 0.198D+00 0.784D+00
 Gap=     0.236 Goal=   None    Shift=    0.000
 RMSDP=1.42D-04 MaxDP=2.99D-03 DE=-5.99D-03 OVMax= 7.56D-03

 Cycle   5  Pass 1  IDiag  1:
 E= -114.308015973739     Delta-E=       -0.000219863860 Rises=F Damp=F
 DIIS: error= 2.55D-04 at cycle   5 NSaved=   5.
 NSaved= 5 IEnMin= 5 EnMin= -114.308015973739     IErMin= 5 ErrMin= 2.55D-04
 ErrMax= 2.55D-04  0.00D+00 EMaxC= 1.00D-01 BMatC= 1.00D-05 BMatP= 1.91D-04
 IDIUse=3 WtCom= 9.97D-01 WtEn= 2.55D-03
 Coeff-Com:  0.358D-02-0.259D-01-0.117D+00-0.142D+00 0.128D+01
 Coeff-En:   0.000D+00 0.000D+00 0.000D+00 0.000D+00 0.100D+01
 Coeff:      0.357D-02-0.258D-01-0.117D+00-0.142D+00 0.128D+01
 Gap=     0.237 Goal=   None    Shift=    0.000
 RMSDP=1.35D-04 MaxDP=2.77D-03 DE=-2.20D-04 OVMax= 5.67D-03

 Cycle   6  Pass 1  IDiag  1:
 E= -114.308056527851     Delta-E=       -0.000040554112 Rises=F Damp=F
 DIIS: error= 1.10D-04 at cycle   6 NSaved=   6.
 NSaved= 6 IEnMin= 6 EnMin= -114.308056527851     IErMin= 6 ErrMin= 1.10D-04
 ErrMax= 1.10D-04  0.00D+00 EMaxC= 1.00D-01 BMatC= 8.40D-07 BMatP= 1.00D-05
 IDIUse=3 WtCom= 9.99D-01 WtEn= 1.10D-03
 Coeff-Com: -0.667D-03 0.734D-02 0.341D-01 0.912D-02-0.560D+00 0.151D+01
 Coeff-En:   0.000D+00 0.000D+00 0.000D+00 0.000D+00 0.000D+00 0.100D+01
 Coeff:     -0.667D-03 0.733D-02 0.341D-01 0.911D-02-0.560D+00 0.151D+01
 Gap=     0.236 Goal=   None    Shift=    0.000
 RMSDP=5.53D-05 MaxDP=1.08D-03 DE=-4.06D-05 OVMax= 2.99D-03

 Cycle   7  Pass 1  IDiag  1:
 E= -114.308062363797     Delta-E=       -0.000005835946 Rises=F Damp=F
 DIIS: error= 2.38D-05 at cycle   7 NSaved=   7.
 NSaved= 7 IEnMin= 7 EnMin= -114.308062363797     IErMin= 7 ErrMin= 2.38D-05
 ErrMax= 2.38D-05  0.00D+00 EMaxC= 1.00D-01 BMatC= 5.83D-08 BMatP= 8.40D-07
 IDIUse=1 WtCom= 1.00D+00 WtEn= 0.00D+00
 Coeff-Com: -0.263D-04-0.494D-03-0.351D-02 0.127D-01 0.961D-01-0.534D+00
 Coeff-Com:  0.143D+01
 Coeff:     -0.263D-04-0.494D-03-0.351D-02 0.127D-01 0.961D-01-0.534D+00
 Coeff:      0.143D+01
 Gap=     0.236 Goal=   None    Shift=    0.000
 RMSDP=1.93D-05 MaxDP=5.81D-04 DE=-5.84D-06 OVMax= 9.36D-04

 Cycle   8  Pass 1  IDiag  1:
 E= -114.308062809109     Delta-E=       -0.000000445312 Rises=F Damp=F
 DIIS: error= 6.80D-06 at cycle   8 NSaved=   8.
 NSaved= 8 IEnMin= 8 EnMin= -114.308062809109     IErMin= 8 ErrMin= 6.80D-06
 ErrMax= 6.80D-06  0.00D+00 EMaxC= 1.00D-01 BMatC= 3.79D-09 BMatP= 5.83D-08
 IDIUse=1 WtCom= 1.00D+00 WtEn= 0.00D+00
 Coeff-Com:  0.536D-04-0.249D-03-0.449D-03-0.612D-02-0.570D-02 0.130D+00
 Coeff-Com: -0.610D+00 0.149D+01
 Coeff:      0.536D-04-0.249D-03-0.449D-03-0.612D-02-0.570D-02 0.130D+00
 Coeff:     -0.610D+00 0.149D+01
 Gap=     0.236 Goal=   None    Shift=    0.000
 RMSDP=7.41D-06 MaxDP=2.37D-04 DE=-4.45D-07 OVMax= 2.80D-04

 Cycle   9  Pass 1  IDiag  1:
 E= -114.308062844052     Delta-E=       -0.000000034942 Rises=F Damp=F
 DIIS: error= 2.29D-06 at cycle   9 NSaved=   9.
 NSaved= 9 IEnMin= 9 EnMin= -114.308062844052     IErMin= 9 ErrMin= 2.29D-06
 ErrMax= 2.29D-06  0.00D+00 EMaxC= 1.00D-01 BMatC= 2.80D-10 BMatP= 3.79D-09
 IDIUse=1 WtCom= 1.00D+00 WtEn= 0.00D+00
 Coeff-Com: -0.600D-05 0.745D-04 0.323D-03 0.283D-03-0.679D-02 0.157D-01
 Coeff-Com:  0.995D-02-0.284D+00 0.126D+01
 Coeff:     -0.600D-05 0.745D-04 0.323D-03 0.283D-03-0.679D-02 0.157D-01
 Coeff:      0.995D-02-0.284D+00 0.126D+01
 Gap=     0.236 Goal=   None    Shift=    0.000
 RMSDP=2.10D-06 MaxDP=6.84D-05 DE=-3.49D-08 OVMax= 7.37D-05

 Cycle  10  Pass 1  IDiag  1:
 E= -114.308062846656     Delta-E=       -0.000000002604 Rises=F Damp=F
 DIIS: error= 8.73D-07 at cycle  10 NSaved=  10.
 NSaved=10 IEnMin=10 EnMin= -114.308062846656     IErMin=10 ErrMin= 8.73D-07
 ErrMax= 8.73D-07  0.00D+00 EMaxC= 1.00D-01 BMatC= 4.34D-11 BMatP= 2.80D-10
 IDIUse=1 WtCom= 1.00D+00 WtEn= 0.00D+00
 Coeff-Com: -0.302D-05 0.572D-05-0.367D-04 0.530D-03 0.216D-02-0.153D-01
 Coeff-Com:  0.507D-01-0.577D-01-0.354D+00 0.137D+01
 Coeff:     -0.302D-05 0.572D-05-0.367D-04 0.530D-03 0.216D-02-0.153D-01
 Coeff:      0.507D-01-0.577D-01-0.354D+00 0.137D+01
 Gap=     0.236 Goal=   None    Shift=    0.000
 RMSDP=8.07D-07 MaxDP=2.69D-05 DE=-2.60D-09 OVMax= 2.91D-05

 Cycle  11  Pass 1  IDiag  1:
 E= -114.308062847112     Delta-E=       -0.000000000457 Rises=F Damp=F
 DIIS: error= 4.52D-07 at cycle  11 NSaved=  11.
 NSaved=11 IEnMin=11 EnMin= -114.308062847112     IErMin=11 ErrMin= 4.52D-07
 ErrMax= 4.52D-07  0.00D+00 EMaxC= 1.00D-01 BMatC= 1.13D-11 BMatP= 4.34D-11
 IDIUse=1 WtCom= 1.00D+00 WtEn= 0.00D+00
 Coeff-Com:  0.206D-05-0.112D-04-0.189D-04-0.275D-03-0.950D-04 0.462D-02
 Coeff-Com: -0.222D-01 0.627D-01-0.106D-01-0.647D+00 0.161D+01
 Coeff:      0.206D-05-0.112D-04-0.189D-04-0.275D-03-0.950D-04 0.462D-02
 Coeff:     -0.222D-01 0.627D-01-0.106D-01-0.647D+00 0.161D+01
 Gap=     0.236 Goal=   None    Shift=    0.000
 RMSDP=3.65D-07 MaxDP=1.20D-05 DE=-4.57D-10 OVMax= 1.70D-05

 Cycle  12  Pass 1  IDiag  1:
 E= -114.308062847272     Delta-E=       -0.000000000160 Rises=F Damp=F
 DIIS: error= 4.24D-07 at cycle  12 NSaved=  12.
 NSaved=12 IEnMin=12 EnMin= -114.308062847272     IErMin=12 ErrMin= 4.24D-07
 ErrMax= 4.24D-07  0.00D+00 EMaxC= 1.00D-01 BMatC= 5.38D-12 BMatP= 1.13D-11
 IDIUse=1 WtCom= 1.00D+00 WtEn= 0.00D+00
 Coeff-Com: -0.589D-06 0.331D-05 0.596D-05 0.862D-04-0.114D-03-0.966D-03
 Coeff-Com:  0.639D-02-0.303D-01 0.656D-01 0.167D+00-0.907D+00 0.170D+01
 Coeff:     -0.589D-06 0.331D-05 0.596D-05 0.862D-04-0.114D-03-0.966D-03
 Coeff:      0.639D-02-0.303D-01 0.656D-01 0.167D+00-0.907D+00 0.170D+01
 Gap=     0.236 Goal=   None    Shift=    0.000
 RMSDP=1.30D-07 MaxDP=3.57D-06 DE=-1.60D-10 OVMax= 1.22D-05

 Cycle  13  Pass 1  IDiag  1:
 E= -114.308062847370     Delta-E=       -0.000000000098 Rises=F Damp=F
 DIIS: error= 3.95D-07 at cycle  13 NSaved=  13.
 NSaved=13 IEnMin=13 EnMin= -114.308062847370     IErMin=13 ErrMin= 3.95D-07
 ErrMax= 3.95D-07  0.00D+00 EMaxC= 1.00D-01 BMatC= 4.40D-12 BMatP= 5.38D-12
 IDIUse=1 WtCom= 1.00D+00 WtEn= 0.00D+00
 Coeff-Com:  0.364D-06-0.185D-05-0.362D-05-0.656D-04 0.259D-03 0.239D-03
 Coeff-Com: -0.432D-02 0.371D-01-0.130D+00-0.881D-01 0.122D+01-0.344D+01
 Coeff-Com:  0.341D+01
 Coeff:      0.364D-06-0.185D-05-0.362D-05-0.656D-04 0.259D-03 0.239D-03
 Coeff:     -0.432D-02 0.371D-01-0.130D+00-0.881D-01 0.122D+01-0.344D+01
 Coeff:      0.341D+01
 Gap=     0.236 Goal=   None    Shift=    0.000
 RMSDP=1.51D-07 MaxDP=4.00D-06 DE=-9.84D-11 OVMax= 2.33D-05

 Cycle  14  Pass 1  IDiag  1:
 E= -114.308062847541     Delta-E=       -0.000000000171 Rises=F Damp=F
 DIIS: error= 3.39D-07 at cycle  14 NSaved=  14.
 NSaved=14 IEnMin=14 EnMin= -114.308062847541     IErMin=14 ErrMin= 3.39D-07
 ErrMax= 3.39D-07  0.00D+00 EMaxC= 1.00D-01 BMatC= 3.29D-12 BMatP= 4.40D-12
 IDIUse=1 WtCom= 1.00D+00 WtEn= 0.00D+00
 Coeff-Com:  0.576D-06-0.317D-05 0.739D-07-0.889D-04-0.239D-03 0.182D-02
 Coeff-Com: -0.775D-02 0.116D-01 0.391D-01-0.194D+00 0.108D+00 0.147D+01
 Coeff-Com: -0.561D+01 0.518D+01
 Coeff:      0.576D-06-0.317D-05 0.739D-07-0.889D-04-0.239D-03 0.182D-02
 Coeff:     -0.775D-02 0.116D-01 0.391D-01-0.194D+00 0.108D+00 0.147D+01
 Coeff:     -0.561D+01 0.518D+01
 Gap=     0.236 Goal=   None    Shift=    0.000
 RMSDP=5.31D-07 MaxDP=1.45D-05 DE=-1.71D-10 OVMax= 8.45D-05

 Cycle  15  Pass 1  IDiag  1:
 E= -114.308062847941     Delta-E=       -0.000000000400 Rises=F Damp=F
 DIIS: error= 1.36D-07 at cycle  15 NSaved=  15.
 NSaved=15 IEnMin=15 EnMin= -114.308062847941     IErMin=15 ErrMin= 1.36D-07
 ErrMax= 1.36D-07  0.00D+00 EMaxC= 1.00D-01 BMatC= 6.64D-13 BMatP= 3.29D-12
 IDIUse=1 WtCom= 1.00D+00 WtEn= 0.00D+00
 Coeff-Com: -0.383D-06 0.165D-05 0.265D-06 0.696D-04-0.212D-04-0.859D-03
 Coeff-Com:  0.542D-02-0.238D-01 0.517D-01 0.122D+00-0.700D+00 0.140D+01
 Coeff-Com:  0.145D+00-0.195D+01 0.195D+01
 Coeff:     -0.383D-06 0.165D-05 0.265D-06 0.696D-04-0.212D-04-0.859D-03
 Coeff:      0.542D-02-0.238D-01 0.517D-01 0.122D+00-0.700D+00 0.140D+01
 Coeff:      0.145D+00-0.195D+01 0.195D+01
 Gap=     0.236 Goal=   None    Shift=    0.000
 RMSDP=3.26D-07 MaxDP=8.82D-06 DE=-4.00D-10 OVMax= 5.14D-05

 Cycle  16  Pass 1  IDiag  1:
 E= -114.308062848018     Delta-E=       -0.000000000077 Rises=F Damp=F
 DIIS: error= 1.68D-08 at cycle  16 NSaved=  16.
 NSaved=16 IEnMin=16 EnMin= -114.308062848018     IErMin=16 ErrMin= 1.68D-08
 ErrMax= 1.68D-08  0.00D+00 EMaxC= 1.00D-01 BMatC= 2.44D-14 BMatP= 6.64D-13
 IDIUse=1 WtCom= 1.00D+00 WtEn= 0.00D+00
 Coeff-Com:  0.559D-07-0.570D-07 0.533D-06-0.182D-04 0.223D-04 0.170D-03
 Coeff-Com: -0.117D-02 0.683D-02-0.197D-01-0.259D-01 0.233D+00-0.632D+00
 Coeff-Com:  0.603D+00 0.833D-02-0.568D+00 0.139D+01
 Coeff:      0.559D-07-0.570D-07 0.533D-06-0.182D-04 0.223D-04 0.170D-03
 Coeff:     -0.117D-02 0.683D-02-0.197D-01-0.259D-01 0.233D+00-0.632D+00
 Coeff:      0.603D+00 0.833D-02-0.568D+00 0.139D+01
 Gap=     0.236 Goal=   None    Shift=    0.000
 RMSDP=3.56D-08 MaxDP=8.84D-07 DE=-7.69D-11 OVMax= 5.17D-06

 Cycle  17  Pass 1  IDiag  1:
 E= -114.308062848020     Delta-E=       -0.000000000002 Rises=F Damp=F
 DIIS: error= 2.89D-09 at cycle  17 NSaved=  17.
 NSaved=17 IEnMin=17 EnMin= -114.308062848020     IErMin=17 ErrMin= 2.89D-09
 ErrMax= 2.89D-09  0.00D+00 EMaxC= 1.00D-01 BMatC= 8.31D-16 BMatP= 2.44D-14
 IDIUse=1 WtCom= 1.00D+00 WtEn= 0.00D+00
 Large coefficients: NSaved= 17 BigCof=    0.00 CofMax=   10.00 Det=-1.72D-15
 Inversion failed.  Reducing to 16 matrices.
 Large coefficients: NSaved= 16 BigCof=    0.00 CofMax=   10.00 Det=-1.78D-15
 Inversion failed.  Reducing to 15 matrices.
 Coeff-Com: -0.578D-07 0.110D-05-0.413D-05-0.128D-04 0.781D-04-0.686D-03
 Coeff-Com:  0.261D-02-0.247D-03-0.229D-01 0.827D-01-0.122D+00 0.496D-01
 Coeff-Com:  0.693D-01-0.344D+00 0.129D+01
 Coeff:     -0.578D-07 0.110D-05-0.413D-05-0.128D-04 0.781D-04-0.686D-03
 Coeff:      0.261D-02-0.247D-03-0.229D-01 0.827D-01-0.122D+00 0.496D-01
 Coeff:      0.693D-01-0.344D+00 0.129D+01
 Gap=     0.236 Goal=   None    Shift=    0.000
 RMSDP=2.35D-09 MaxDP=3.89D-08 DE=-1.59D-12 OVMax= 2.40D-07

 SCF Done:  E(RHF) =  -114.308062848     A.U. after   17 cycles
            NFock= 17  Conv=0.24D-08     -V/T= 2.0009
 KE= 1.142097407609D+02 PE=-3.243554896582D+02 EE= 7.075308053953D+01
 Leave Link  502 at Fri Mar  8 16:49:24 2019, MaxMem=    33554432 cpu:         8.6
 (Enter /home/proyectos/fulerenos/M3C-v2.0/M3C-deps_CCC/g09-AM64L-G09RevC.01/l801.exe)
 Windowed orbitals will be sorted by symmetry type.
 ExpMin= 3.60D-02 ExpMax= 8.59D+03 ExpMxC= 1.30D+03 IAcc=3 IRadAn=         5 AccDes= 0.00D+00
 HarFok:  IExCor=  205 AccDes= 0.00D+00 IRadAn=         5 IDoV=-2 UseB2=F ITyADJ=14
 ICtDFT= 12500011 ScaDFX=  1.000000  1.000000  1.000000  1.000000
 Largest valence mixing into a core orbital is  1.79D-04
 Largest core mixing into a valence orbital is  4.42D-05
 Range of M.O.s used for correlation:     3   108
 NBasis=   108 NAE=     9 NBE=     9 NFC=     2 NFV=     0
 NROrb=    106 NOA=     7 NOB=     7 NVA=    99 NVB=    99

 **** Warning!!: The largest alpha MO coefficient is  0.10610303D+02

 Leave Link  801 at Fri Mar  8 16:49:24 2019, MaxMem=    33554432 cpu:         1.6
 (Enter /home/proyectos/fulerenos/M3C-v2.0/M3C-deps_CCC/g09-AM64L-G09RevC.01/l804.exe)
 Closed-shell transformation, MDV=    33554432 ITran=4 ISComp=1.
 Semi-Direct transformation.
 ModeAB=           2 MOrb=             7 LenV=      33115267
 LASXX=      3958647 LTotXX=     3958647 LenRXX=     3958647
 LTotAB=     4069387 MaxLAS=     5386920 LenRXY=     5386920
 NonZer=     7917294 LenScr=    12612096 LnRSAI=           0
 LnScr1=           0 LExtra=           0 Total=     21957663
 MaxDsk=          -1 SrtSym=           F ITran=            4
 DoSDTr:  NPSUse=  4
 JobTyp=0 Pass  1:  I=   1 to   7.
 (rs|ai) integrals will be sorted in core.
 Complete sort for first half transformation.
 First half transformation complete.
 Complete sort for second half transformation.
 Second half transformation complete.
 SymMOI:  orbitals are not symmetric.
 Spin components of T(2) and E(2):
     alpha-alpha T2 =       0.1534749700D-01 E2=     -0.4805821681D-01
     alpha-beta  T2 =       0.1018663159D+00 E2=     -0.3240748587D+00
     beta-beta   T2 =       0.1534749700D-01 E2=     -0.4805821681D-01
 ANorm=    0.1064218638D+01
 E2 =    -0.4201912923D+00 EUMP2 =    -0.11472825414031D+03
 Leave Link  804 at Fri Mar  8 16:49:28 2019, MaxMem=    33554432 cpu:        14.7
 (Enter /home/proyectos/fulerenos/M3C-v2.0/M3C-deps_CCC/g09-AM64L-G09RevC.01/l913.exe)
 CIDS:  MDV=    33554432.
 Frozen-core window:  NFC=   2 NFV=   0.
 IFCWin=0 IBDFC=1 NFBD=     0     0 NFCmp=     0     0 NFFFC=     0     0
 Using DD3R+UMP44R for 1st iteration, S=T.
 Using DD4RQ for 2nd and later iterations.
 Would need an additional         3038203 words for in-memory AO integral storage.
 CCSD(T)
 =======
 Iterations= 200 Convergence= 0.100D-06
 Iteration Nr.   1
 **********************
 DD1Dir will call FoFJK   1 times, MxPair=        56
 NAB=    28 NAA=     0 NBB=     0 NumPrc=  4.
 FoFJK:  IHMeth= 1 ICntrl=     200 DoSepK=F KAlg= 0 I1Cent=   0 FoldK=F
 IRaf= 990000000 NMat=  56 IRICut=      70 DoRegI=T DoRafI=T ISym2E= 2.
 FoFCou: FMM=F IPFlag=           0 FMFlag=      100000 FMFlg1=           0
         NFxFlg=           0 DoJE=F BraDBF=F KetDBF=F FulRan=T
         wScrn=  0.000000 ICntrl=     200 IOpCl=  0 I1Cent=           0 NGrid=           0
         NMat0=   56 NMatS0=      0 NMatT0=   28 NMatD0=   56 NMtDS0=    0 NMtDT0=    0
 Integrals replicated using symmetry in FoFCou.
 MP4(R+Q)=  0.88578825D-02
 Maximum subspace dimension=  5
 Norm of the A-vectors is  4.5826504D-01 conv= 1.00D-05.
 RLE energy=       -0.4292133266
 E3=       -0.17762540D-01        EUMP3=      -0.11474601668D+03
 E4(DQ)=   -0.21245241D-02        UMP4(DQ)=   -0.11474814120D+03
 E4(SDQ)=  -0.58291548D-02        UMP4(SDQ)=  -0.11475184584D+03
 VARIATIONAL ENERGIES WITH THE FIRST-ORDER WAVEFUNCTION:
 DE(Corr)= -0.42902370     E(Corr)=     -114.73708654    
 NORM(A)=   0.10713004D+01
 Iteration Nr.   2
 **********************
 DD1Dir will call FoFJK   1 times, MxPair=        56
 NAB=    28 NAA=     0 NBB=     0 NumPrc=  4.
 Norm of the A-vectors is  1.9295079D-01 conv= 1.00D-05.
 RLE energy=       -0.4426381130
 DE(Corr)= -0.44084700     E(CORR)=     -114.74890985     Delta=-1.18D-02
 NORM(A)=   0.10793070D+01
 Iteration Nr.   3
 **********************
 DD1Dir will call FoFJK   1 times, MxPair=        56
 NAB=    28 NAA=     0 NBB=     0 NumPrc=  4.
 Norm of the A-vectors is  7.1450413D-02 conv= 1.00D-05.
 RLE energy=       -0.4439730392
 DE(Corr)= -0.44242179     E(CORR)=     -114.75048463     Delta=-1.57D-03
 NORM(A)=   0.10829013D+01
 Iteration Nr.   4
 **********************
 DD1Dir will call FoFJK   1 times, MxPair=        56
 NAB=    28 NAA=     0 NBB=     0 NumPrc=  4.
 Norm of the A-vectors is  4.1658324D-02 conv= 1.00D-05.
 RLE energy=       -0.4443513626
 DE(Corr)= -0.44404390     E(CORR)=     -114.75210674     Delta=-1.62D-03
 NORM(A)=   0.10848709D+01
 Iteration Nr.   5
 **********************
 DD1Dir will call FoFJK   1 times, MxPair=        56
 NAB=    28 NAA=     0 NBB=     0 NumPrc=  4.
 Norm of the A-vectors is  2.2763179D-02 conv= 1.00D-05.
 RLE energy=       -0.4446229452
 DE(Corr)= -0.44440004     E(CORR)=     -114.75246289     Delta=-3.56D-04
 NORM(A)=   0.10866213D+01
 Iteration Nr.   6
 **********************
 DD1Dir will call FoFJK   1 times, MxPair=        56
 NAB=    28 NAA=     0 NBB=     0 NumPrc=  4.
 Norm of the A-vectors is  1.8051417D-02 conv= 1.00D-05.
 RLE energy=       -0.4445388955
 DE(Corr)= -0.44456460     E(CORR)=     -114.75262745     Delta=-1.65D-04
 NORM(A)=   0.10876127D+01
 Iteration Nr.   7
 **********************
 DD1Dir will call FoFJK   1 times, MxPair=        56
 NAB=    28 NAA=     0 NBB=     0 NumPrc=  4.
 Norm of the A-vectors is  1.1944954D-02 conv= 1.00D-05.
 RLE energy=       -0.4445762936
 DE(Corr)= -0.44463214     E(CORR)=     -114.75269499     Delta=-6.75D-05
 NORM(A)=   0.10880792D+01
 Iteration Nr.   8
 **********************
 DD1Dir will call FoFJK   1 times, MxPair=        56
 NAB=    28 NAA=     0 NBB=     0 NumPrc=  4.
 Norm of the A-vectors is  7.3708249D-03 conv= 1.00D-05.
 RLE energy=       -0.4446222884
 DE(Corr)= -0.44463241     E(CORR)=     -114.75269525     Delta=-2.63D-07
 NORM(A)=   0.10882510D+01
 Iteration Nr.   9
 **********************
 DD1Dir will call FoFJK   1 times, MxPair=        56
 NAB=    28 NAA=     0 NBB=     0 NumPrc=  4.
 Norm of the A-vectors is  3.8272266D-03 conv= 1.00D-05.
 RLE energy=       -0.4446428240
 DE(Corr)= -0.44464710     E(CORR)=     -114.75270994     Delta=-1.47D-05
 NORM(A)=   0.10882900D+01
 Iteration Nr.  10
 **********************
 DD1Dir will call FoFJK   1 times, MxPair=        56
 NAB=    28 NAA=     0 NBB=     0 NumPrc=  4.
 Norm of the A-vectors is  2.3697826D-03 conv= 1.00D-05.
 RLE energy=       -0.4446575790
 DE(Corr)= -0.44465443     E(CORR)=     -114.75271727     Delta=-7.33D-06
 NORM(A)=   0.10883118D+01
 Iteration Nr.  11
 **********************
 DD1Dir will call FoFJK   1 times, MxPair=        56
 NAB=    28 NAA=     0 NBB=     0 NumPrc=  4.
 Norm of the A-vectors is  1.0517447D-03 conv= 1.00D-05.
 RLE energy=       -0.4446653636
 DE(Corr)= -0.44466205     E(CORR)=     -114.75272489     Delta=-7.62D-06
 NORM(A)=   0.10883258D+01
 Iteration Nr.  12
 **********************
 DD1Dir will call FoFJK   1 times, MxPair=        56
 NAB=    28 NAA=     0 NBB=     0 NumPrc=  4.
 Norm of the A-vectors is  5.6965743D-04 conv= 1.00D-05.
 RLE energy=       -0.4446685992
 DE(Corr)= -0.44466670     E(CORR)=     -114.75272955     Delta=-4.65D-06
 NORM(A)=   0.10883372D+01
 Iteration Nr.  13
 **********************
 DD1Dir will call FoFJK   1 times, MxPair=        56
 NAB=    28 NAA=     0 NBB=     0 NumPrc=  4.
 Norm of the A-vectors is  3.1743541D-04 conv= 1.00D-05.
 RLE energy=       -0.4446702053
 DE(Corr)= -0.44466906     E(CORR)=     -114.75273191     Delta=-2.36D-06
 NORM(A)=   0.10883462D+01
 Iteration Nr.  14
 **********************
 DD1Dir will call FoFJK   1 times, MxPair=        56
 NAB=    28 NAA=     0 NBB=     0 NumPrc=  4.
 Norm of the A-vectors is  1.9645385D-04 conv= 1.00D-05.
 RLE energy=       -0.4446711004
 DE(Corr)= -0.44467037     E(CORR)=     -114.75273322     Delta=-1.31D-06
 NORM(A)=   0.10883541D+01
 Iteration Nr.  15
 **********************
 DD1Dir will call FoFJK   1 times, MxPair=        56
 NAB=    28 NAA=     0 NBB=     0 NumPrc=  4.
 Norm of the A-vectors is  1.2767310D-04 conv= 1.00D-05.
 RLE energy=       -0.4446717333
 DE(Corr)= -0.44467122     E(CORR)=     -114.75273407     Delta=-8.47D-07
 NORM(A)=   0.10883620D+01
 Iteration Nr.  16
 **********************
 DD1Dir will call FoFJK   1 times, MxPair=        56
 NAB=    28 NAA=     0 NBB=     0 NumPrc=  4.
 Norm of the A-vectors is  1.1440371D-04 conv= 1.00D-05.
 RLE energy=       -0.4446721180
 DE(Corr)= -0.44467180     E(CORR)=     -114.75273465     Delta=-5.80D-07
 NORM(A)=   0.10883687D+01
 Iteration Nr.  17
 **********************
 DD1Dir will call FoFJK   1 times, MxPair=        56
 NAB=    28 NAA=     0 NBB=     0 NumPrc=  4.
 Norm of the A-vectors is  9.2801414D-05 conv= 1.00D-05.
 RLE energy=       -0.4446723849
 DE(Corr)= -0.44467222     E(CORR)=     -114.75273506     Delta=-4.17D-07
 NORM(A)=   0.10883734D+01
 Iteration Nr.  18
 **********************
 DD1Dir will call FoFJK   1 times, MxPair=        56
 NAB=    28 NAA=     0 NBB=     0 NumPrc=  4.
 Norm of the A-vectors is  6.2906179D-05 conv= 1.00D-05.
 RLE energy=       -0.4446726372
 DE(Corr)= -0.44467252     E(CORR)=     -114.75273537     Delta=-3.04D-07
 NORM(A)=   0.10883761D+01
 Iteration Nr.  19
 **********************
 DD1Dir will call FoFJK   1 times, MxPair=        56
 NAB=    28 NAA=     0 NBB=     0 NumPrc=  4.
 Norm of the A-vectors is  4.3048955D-05 conv= 1.00D-05.
 RLE energy=       -0.4446727523
 DE(Corr)= -0.44467269     E(CORR)=     -114.75273554     Delta=-1.72D-07
 NORM(A)=   0.10883771D+01
 Iteration Nr.  20
 **********************
 DD1Dir will call FoFJK   1 times, MxPair=        56
 NAB=    28 NAA=     0 NBB=     0 NumPrc=  4.
 Norm of the A-vectors is  2.6419284D-05 conv= 1.00D-05.
 RLE energy=       -0.4446728364
 DE(Corr)= -0.44467281     E(CORR)=     -114.75273566     Delta=-1.15D-07
 NORM(A)=   0.10883774D+01
 Iteration Nr.  21
 **********************
 DD1Dir will call FoFJK   1 times, MxPair=        56
 NAB=    28 NAA=     0 NBB=     0 NumPrc=  4.
 Norm of the A-vectors is  1.5966976D-05 conv= 1.00D-05.
 RLE energy=       -0.4446728893
 DE(Corr)= -0.44467286     E(CORR)=     -114.75273571     Delta=-5.37D-08
 NORM(A)=   0.10883775D+01
 Iteration Nr.  22
 **********************
 DD1Dir will call FoFJK   1 times, MxPair=        56
 NAB=    28 NAA=     0 NBB=     0 NumPrc=  4.
 Norm of the A-vectors is  1.1677352D-05 conv= 1.00D-05.
 RLE energy=       -0.4446729067
 DE(Corr)= -0.44467289     E(CORR)=     -114.75273574     Delta=-2.91D-08
 NORM(A)=   0.10883775D+01
 Iteration Nr.  23
 **********************
 DD1Dir will call FoFJK   1 times, MxPair=        56
 NAB=    28 NAA=     0 NBB=     0 NumPrc=  4.
 Norm of the A-vectors is  1.0325543D-05 conv= 1.00D-05.
 RLE energy=       -0.4446729209
 DE(Corr)= -0.44467291     E(CORR)=     -114.75273576     Delta=-1.76D-08
 NORM(A)=   0.10883775D+01
 Iteration Nr.  24
 **********************
 DD1Dir will call FoFJK   1 times, MxPair=        56
 NAB=    28 NAA=     0 NBB=     0 NumPrc=  4.
 Norm of the A-vectors is  1.0085526D-05 conv= 1.00D-05.
 RLE energy=       -0.4446729113
 DE(Corr)= -0.44467291     E(CORR)=     -114.75273576     Delta=-3.63D-09
 NORM(A)=   0.10883774D+01
 Iteration Nr.  25
 **********************
 DD1Dir will call FoFJK   1 times, MxPair=        56
 NAB=    28 NAA=     0 NBB=     0 NumPrc=  4.
 Norm of the A-vectors is  1.1461371D-05 conv= 1.00D-05.
 RLE energy=       -0.4446728745
 DE(Corr)= -0.44467290     E(CORR)=     -114.75273575     Delta= 8.07D-09
 NORM(A)=   0.10883773D+01
 Iteration Nr.  26
 **********************
 DD1Dir will call FoFJK   1 times, MxPair=        56
 NAB=    28 NAA=     0 NBB=     0 NumPrc=  4.
 Norm of the A-vectors is  1.5778257D-05 conv= 1.00D-05.
 RLE energy=       -0.4446728295
 DE(Corr)= -0.44467289     E(CORR)=     -114.75273573     Delta= 1.67D-08
 NORM(A)=   0.10883772D+01
 Iteration Nr.  27
 **********************
 DD1Dir will call FoFJK   1 times, MxPair=        56
 NAB=    28 NAA=     0 NBB=     0 NumPrc=  4.
 Norm of the A-vectors is  2.5050121D-05 conv= 1.00D-05.
 RLE energy=       -0.4446727482
 DE(Corr)= -0.44467284     E(CORR)=     -114.75273569     Delta= 4.47D-08
 NORM(A)=   0.10883772D+01
 Iteration Nr.  28
 **********************
 DD1Dir will call FoFJK   1 times, MxPair=        56
 NAB=    28 NAA=     0 NBB=     0 NumPrc=  4.
 Norm of the A-vectors is  3.6675350D-05 conv= 1.00D-05.
 RLE energy=       -0.4446727559
 DE(Corr)= -0.44467281     E(CORR)=     -114.75273566     Delta= 3.22D-08
 NORM(A)=   0.10883777D+01
 Iteration Nr.  29
 **********************
 DD1Dir will call FoFJK   1 times, MxPair=        56
 NAB=    28 NAA=     0 NBB=     0 NumPrc=  4.
 Norm of the A-vectors is  4.3001904D-05 conv= 1.00D-05.
 RLE energy=       -0.4446728408
 DE(Corr)= -0.44467281     E(CORR)=     -114.75273566     Delta=-3.89D-09
 NORM(A)=   0.10883783D+01
 Iteration Nr.  30
 **********************
 DD1Dir will call FoFJK   1 times, MxPair=        56
 NAB=    28 NAA=     0 NBB=     0 NumPrc=  4.
 Norm of the A-vectors is  3.7839122D-05 conv= 1.00D-05.
 RLE energy=       -0.4446729099
 DE(Corr)= -0.44467286     E(CORR)=     -114.75273571     Delta=-4.43D-08
 NORM(A)=   0.10883788D+01
 Iteration Nr.  31
 **********************
 DD1Dir will call FoFJK   1 times, MxPair=        56
 NAB=    28 NAA=     0 NBB=     0 NumPrc=  4.
 Norm of the A-vectors is  2.7602834D-05 conv= 1.00D-05.
 RLE energy=       -0.4446729884
 DE(Corr)= -0.44467293     E(CORR)=     -114.75273578     Delta=-7.43D-08
 NORM(A)=   0.10883790D+01
 Iteration Nr.  32
 **********************
 DD1Dir will call FoFJK   1 times, MxPair=        56
 NAB=    28 NAA=     0 NBB=     0 NumPrc=  4.
 Norm of the A-vectors is  2.2454308D-05 conv= 1.00D-05.
 RLE energy=       -0.4446729897
 DE(Corr)= -0.44467296     E(CORR)=     -114.75273581     Delta=-2.68D-08
 NORM(A)=   0.10883791D+01
 Iteration Nr.  33
 **********************
 DD1Dir will call FoFJK   1 times, MxPair=        56
 NAB=    28 NAA=     0 NBB=     0 NumPrc=  4.
 Norm of the A-vectors is  1.4850674D-05 conv= 1.00D-05.
 RLE energy=       -0.4446729764
 DE(Corr)= -0.44467297     E(CORR)=     -114.75273582     Delta=-1.58D-08
 NORM(A)=   0.10883791D+01
 Iteration Nr.  34
 **********************
 DD1Dir will call FoFJK   1 times, MxPair=        56
 NAB=    28 NAA=     0 NBB=     0 NumPrc=  4.
 Norm of the A-vectors is  1.0563445D-05 conv= 1.00D-05.
 RLE energy=       -0.4446729594
 DE(Corr)= -0.44467296     E(CORR)=     -114.75273581     Delta= 1.01D-08
 NORM(A)=   0.10883790D+01
 Iteration Nr.  35
 **********************
 DD1Dir will call FoFJK   1 times, MxPair=        56
 NAB=    28 NAA=     0 NBB=     0 NumPrc=  4.
 Norm of the A-vectors is  6.5583477D-06 conv= 1.00D-05.
 RLE energy=       -0.4446729414
 DE(Corr)= -0.44467295     E(CORR)=     -114.75273580     Delta= 1.50D-08
 NORM(A)=   0.10883790D+01
 CI/CC converged in   35 iterations to DelEn= 1.50D-08 Conv= 1.00D-07 ErrA1= 6.56D-06 Conv= 1.00D-05
 Largest amplitude= 6.51D-02
 T4(AAA)= -0.34769978D-03
 T4(AAB)= -0.86446615D-02
 T5(AAA)=  0.20489725D-04
 T5(AAB)=  0.30797227D-03
 Time for triples=       79.30 seconds.
 T4(CCSD)= -0.17984723D-01
 T5(CCSD)=  0.65692399D-03
 CCSD(T)= -0.11477006360D+03
 Discarding MO integrals.
 Leave Link  913 at Fri Mar  8 16:53:07 2019, MaxMem=    33554432 cpu:       849.3
 (Enter /home/proyectos/fulerenos/M3C-v2.0/M3C-deps_CCC/g09-AM64L-G09RevC.01/l601.exe)
 Copying SCF densities to generalized density rwf, IOpCl= 0 IROHF=0.

 **********************************************************************

            Population analysis using the SCF density.

 **********************************************************************

 Orbital symmetries:
       Occupied  (A) (A) (A) (A) (A) (A) (A) (A) (A)
       Virtual   (A) (A) (A) (A) (A) (A) (A) (A) (A) (A) (A) (A)
                 (A) (A) (A) (A) (A) (A) (A) (A) (A) (A) (A) (A)
                 (A) (A) (A) (A) (A) (A) (A) (A) (A) (A) (A) (A)
                 (A) (A) (A) (A) (A) (A) (A) (A) (A) (A) (A) (A)
                 (A) (A) (A) (A) (A) (A) (A) (A) (A) (A) (A) (A)
                 (A) (A) (A) (A) (A) (A) (A) (A) (A) (A) (A) (A)
                 (A) (A) (A) (A) (A) (A) (A) (A) (A) (A) (A) (A)
                 (A) (A) (A) (A) (A) (A) (A) (A) (A) (A) (A) (A)
                 (A) (A) (A)
 The electronic state is 1-A.
 Alpha  occ. eigenvalues --  -20.32583 -11.01304  -1.09675  -0.56526  -0.45357
 Alpha  occ. eigenvalues --   -0.35645  -0.27139  -0.18248  -0.05503
 Alpha virt. eigenvalues --    0.18130   0.18988   0.23299   0.24140   0.29741
 Alpha virt. eigenvalues --    0.31316   0.34888   0.37535   0.42743   0.43746
 Alpha virt. eigenvalues --    0.44342   0.46905   0.47679   0.55397   0.66682
 Alpha virt. eigenvalues --    0.67603   0.69574   0.69903   0.72171   0.77773
 Alpha virt. eigenvalues --    0.89561   0.94248   0.97461   0.97961   1.03210
 Alpha virt. eigenvalues --    1.04682   1.07474   1.11939   1.18506   1.28723
 Alpha virt. eigenvalues --    1.31783   1.31898   1.42480   1.44227   1.45132
 Alpha virt. eigenvalues --    1.51457   1.53610   1.53871   1.64936   1.66664
 Alpha virt. eigenvalues --    1.73259   1.79298   1.96818   2.05376   2.14691
 Alpha virt. eigenvalues --    2.17388   2.23368   2.39757   2.44060   2.59342
 Alpha virt. eigenvalues --    3.11583   3.19509   3.32041   3.33317   3.39311
 Alpha virt. eigenvalues --    3.43363   3.47694   3.55246   3.56878   3.60453
 Alpha virt. eigenvalues --    3.68869   3.70469   3.75179   3.85258   3.88375
 Alpha virt. eigenvalues --    3.99027   4.12492   4.14628   4.42622   4.57372
 Alpha virt. eigenvalues --    4.64488   4.72055   4.77298   4.87394   5.23922
 Alpha virt. eigenvalues --    5.50478   5.67812   5.79382   5.85469   5.87282
 Alpha virt. eigenvalues --    5.99747   6.02144   6.07565   6.23806   6.34190
 Alpha virt. eigenvalues --    7.38142   7.68408   7.70509   7.72576   7.74154
 Alpha virt. eigenvalues --    7.87539   8.20825  15.25141  15.27050  15.32390
 Alpha virt. eigenvalues --   15.50673  15.91617  25.05634  51.92673
          Condensed to atoms (all electrons):
               1          2          3          4          5
     1  C    6.902784   0.041074   0.107136   0.176511  -0.201920
     2  H    0.041074   0.658680  -0.041552  -0.002103   0.166577
     3  H    0.107136  -0.041552   0.204399  -0.033345   0.172249
     4  H    0.176511  -0.002103  -0.033345   0.793017   0.026492
     5  O   -0.201920   0.166577   0.172249   0.026492   8.618881
 Mulliken charges:
               1
     1  C   -1.025585
     2  H    0.177324
     3  H    0.591113
     4  H    0.039427
     5  O   -0.782278
 Sum of Mulliken charges =  -1.00000
 Mulliken charges with hydrogens summed into heavy atoms:
               1
     1  C   -0.986158
     5  O   -0.013842
 Electronic spatial extent (au):  <R**2>=            177.0799
 Charge=             -1.0000 electrons
 Dipole moment (field-independent basis, Debye):
    X=             -3.9229    Y=              0.3842    Z=              0.0027  Tot=              3.9416
 Quadrupole moment (field-independent basis, Debye-Ang):
   XX=            -36.2611   YY=            -19.0362   ZZ=            -16.7975
   XY=              7.5286   XZ=             -0.0043   YZ=             -0.0048
 Traceless Quadrupole moment (field-independent basis, Debye-Ang):
   XX=            -12.2295   YY=              4.9954   ZZ=              7.2341
   XY=              7.5286   XZ=             -0.0043   YZ=             -0.0048
 Octapole moment (field-independent basis, Debye-Ang**2):
  XXX=            -58.2823  YYY=              4.0667  ZZZ=              0.0025  XYY=            -14.4276
  XXY=              7.8268  XXZ=              0.0007  XZZ=             -4.6681  YZZ=              1.1349
  YYZ=              0.0026  XYZ=              0.0006
 Hexadecapole moment (field-independent basis, Debye-Ang**3):
 XXXX=           -386.6100 YYYY=            -43.7028 ZZZZ=            -22.5939 XXXY=             42.6912
 XXXZ=             -0.0316 YYYX=             16.3268 YYYZ=             -0.0064 ZZZX=             -0.0056
 ZZZY=             -0.0049 XXYY=            -61.4499 XXZZ=            -48.8913 YYZZ=            -11.2340
 XXYZ=             -0.0116 YYXZ=             -0.0025 ZZXY=              4.1974
 N-N= 2.508460550974D+01 E-N=-3.243554896759D+02  KE= 1.142097407609D+02
 Leave Link  601 at Fri Mar  8 16:53:08 2019, MaxMem=    33554432 cpu:         0.2
 (Enter /home/proyectos/fulerenos/M3C-v2.0/M3C-deps_CCC/g09-AM64L-G09RevC.01/l9999.exe)
 1\1\GINC-DARMSTADIO\SP\RCCSD(T)-FC\6-311++G(3df,2p)\C1H3O1(1-)\ROOT\08
 -Mar-2019\0\\#p ccsd(t,maxcyc=200)/6-311++G(3df,2p)\\ccsd(t) iener\\-1
 ,1\C,0,-0.94082,0.311986,0.625935\H,0,1.151282,-0.672415,-1.462044\H,0
 ,0.573048,0.099892,-0.20548\H,0,-0.707816,1.006429,1.480213\O,0,1.4585
 61,-0.080473,-0.769011\\Version=EM64L-G09RevE.01\State=1-A\HF=-114.308
 0628\MP2=-114.7282541\MP3=-114.7460167\MP4D=-114.7569991\MP4DQ=-114.74
 81412\MP4SDQ=-114.7518458\CCSD=-114.7527358\CCSD(T)=-114.7700636\RMSD=
 2.354e-09\PG=C01 [X(C1H3O1)]\\@


 IT IS A PROFOUNDLY ERRONEOUS TRUISM ... THAT WE SHOULD CULTIVATE
 THE HABIT OF THINKING OF WHAT WE ARE DOING.
 THE PRECISE OPPOSITE IS THE CASE.
 CIVILIZATION ADVANCES BY EXTENDING THE NUMBER OF IMPORTANT OPERATIONS
 WHICH WE CAN PERFORM WITHOUT THINKING ABOUT THEM.

                                    -- ALFRED NORTH WHITEHEAD
 Job cpu time:       0 days  0 hours 14 minutes 42.8 seconds.
 File lengths (MBytes):  RWF=    373 Int=      0 D2E=      0 Chk=      2 Scr=      1
 Normal termination of Gaussian 09 at Fri Mar  8 16:53:08 2019.
