 Entering Gaussian System, Link 0=/home/proyectos/fulerenos/M3C-v2.0/M3C-deps_CCC/g09-AM64L-G09RevC.01/g09
 Initial command:
 /home/proyectos/fulerenos/M3C-v2.0/M3C-deps_CCC/g09-AM64L-G09RevC.01/l1.exe "/scratch/naguirre/gaussian/Gau-66851.inp" -scrdir="/scratch/naguirre/gaussian/"
 Entering Link 1 = /home/proyectos/fulerenos/M3C-v2.0/M3C-deps_CCC/g09-AM64L-G09RevC.01/l1.exe PID=     66862.
  
 Copyright (c) 1988,1990,1992,1993,1995,1998,2003,2009,2015,
            Gaussian, Inc.  All Rights Reserved.
  
 This is part of the Gaussian(R) 09 program.  It is based on
 the Gaussian(R) 03 system (copyright 2003, Gaussian, Inc.),
 the Gaussian(R) 98 system (copyright 1998, Gaussian, Inc.),
 the Gaussian(R) 94 system (copyright 1995, Gaussian, Inc.),
 the Gaussian 92(TM) system (copyright 1992, Gaussian, Inc.),
 the Gaussian 90(TM) system (copyright 1990, Gaussian, Inc.),
 the Gaussian 88(TM) system (copyright 1988, Gaussian, Inc.),
 the Gaussian 86(TM) system (copyright 1986, Carnegie Mellon
 University), and the Gaussian 82(TM) system (copyright 1983,
 Carnegie Mellon University). Gaussian is a federally registered
 trademark of Gaussian, Inc.
  
 This software contains proprietary and confidential information,
 including trade secrets, belonging to Gaussian, Inc.
  
 This software is provided under written license and may be
 used, copied, transmitted, or stored only in accord with that
 written license.
  
 The following legend is applicable only to US Government
 contracts under FAR:
  
                    RESTRICTED RIGHTS LEGEND
  
 Use, reproduction and disclosure by the US Government is
 subject to restrictions as set forth in subparagraphs (a)
 and (c) of the Commercial Computer Software - Restricted
 Rights clause in FAR 52.227-19.
  
 Gaussian, Inc.
 340 Quinnipiac St., Bldg. 40, Wallingford CT 06492
  
  
 ---------------------------------------------------------------
 Warning -- This program may not be used in any manner that
 competes with the business of Gaussian, Inc. or will provide
 assistance to any competitor of Gaussian, Inc.  The licensee
 of this program is prohibited from giving any competitor of
 Gaussian, Inc. access to this program.  By using this program,
 the user acknowledges that Gaussian, Inc. is engaged in the
 business of creating and licensing software in the field of
 computational chemistry and represents and warrants to the
 licensee that it is not a competitor of Gaussian, Inc. and that
 it will not use this program in any manner prohibited above.
 ---------------------------------------------------------------
  

 Cite this work as:
 Gaussian 09, Revision E.01,
 M. J. Frisch, G. W. Trucks, H. B. Schlegel, G. E. Scuseria, 
 M. A. Robb, J. R. Cheeseman, G. Scalmani, V. Barone, B. Mennucci, 
 G. A. Petersson, H. Nakatsuji, M. Caricato, X. Li, H. P. Hratchian, 
 A. F. Izmaylov, J. Bloino, G. Zheng, J. L. Sonnenberg, M. Hada, 
 M. Ehara, K. Toyota, R. Fukuda, J. Hasegawa, M. Ishida, T. Nakajima, 
 Y. Honda, O. Kitao, H. Nakai, T. Vreven, J. A. Montgomery, Jr., 
 J. E. Peralta, F. Ogliaro, M. Bearpark, J. J. Heyd, E. Brothers, 
 K. N. Kudin, V. N. Staroverov, T. Keith, R. Kobayashi, J. Normand, 
 K. Raghavachari, A. Rendell, J. C. Burant, S. S. Iyengar, J. Tomasi, 
 M. Cossi, N. Rega, J. M. Millam, M. Klene, J. E. Knox, J. B. Cross, 
 V. Bakken, C. Adamo, J. Jaramillo, R. Gomperts, R. E. Stratmann, 
 O. Yazyev, A. J. Austin, R. Cammi, C. Pomelli, J. W. Ochterski, 
 R. L. Martin, K. Morokuma, V. G. Zakrzewski, G. A. Voth, 
 P. Salvador, J. J. Dannenberg, S. Dapprich, A. D. Daniels, 
 O. Farkas, J. B. Foresman, J. V. Ortiz, J. Cioslowski, 
 and D. J. Fox, Gaussian, Inc., Wallingford CT, 2013.
 
 ******************************************
 Gaussian 09:  EM64L-G09RevE.01 30-Nov-2015
                 9-Mar-2019 
 ******************************************
 %NProcShared=4
 Will use up to    4 processors via shared memory.
 --------------------------------------
 #p ccsd(t,maxcyc=200)/6-311++G(3df,2p)
 --------------------------------------
 1/38=1/1;
 2/12=2,17=6,18=5,40=1/2;
 3/5=4,6=6,7=1216,11=9,16=1,25=1,30=1/1,2,3;
 4//1;
 5/5=2,38=5/2;
 8/6=4,9=120000,10=2/1,4;
 9/5=7,6=200,14=2/13;
 6/7=2,8=2,9=2,10=2/1;
 99/5=1,9=1/99;
 Leave Link    1 at Sat Mar  9 14:56:48 2019, MaxMem=           0 cpu:         1.2
 (Enter /home/proyectos/fulerenos/M3C-v2.0/M3C-deps_CCC/g09-AM64L-G09RevC.01/l101.exe)
 -------------
 ccsd(t) iener
 -------------
 Symbolic Z-matrix:
 Charge = -1 Multiplicity = 2
 O                     0.06042  -0.47756   0.0005 
 C                     1.08543   0.46703  -0.00013 
 C                     2.34885   0.08669  -0.00003 
 C                    -1.17291  -0.05624   0.00035 
 C                    -2.32937   0.25977   0.00026 
 H                     0.74186   1.49174  -0.00069 
 H                     3.12732   0.83962  -0.00053 
 H                     2.64021  -0.95317   0.00054 
 H                    -3.35262   0.54342   0.00018 
 
 NAtoms=      9 NQM=        9 NQMF=       0 NMMI=      0 NMMIF=      0
                NMic=       0 NMicF=      0.
                    Isotopes and Nuclear Properties:
 (Nuclear quadrupole moments (NQMom) in fm**2, nuclear magnetic moments (NMagM)
  in nuclear magnetons)

  Atom         1           2           3           4           5           6           7           8           9
 IAtWgt=          16          12          12          12          12           1           1           1           1
 AtmWgt=  15.9949146  12.0000000  12.0000000  12.0000000  12.0000000   1.0078250   1.0078250   1.0078250   1.0078250
 NucSpn=           0           0           0           0           0           1           1           1           1
 AtZEff=   0.0000000   0.0000000   0.0000000   0.0000000   0.0000000   0.0000000   0.0000000   0.0000000   0.0000000
 NQMom=    0.0000000   0.0000000   0.0000000   0.0000000   0.0000000   0.0000000   0.0000000   0.0000000   0.0000000
 NMagM=    0.0000000   0.0000000   0.0000000   0.0000000   0.0000000   2.7928460   2.7928460   2.7928460   2.7928460
 AtZNuc=   8.0000000   6.0000000   6.0000000   6.0000000   6.0000000   1.0000000   1.0000000   1.0000000   1.0000000
 Leave Link  101 at Sat Mar  9 14:56:49 2019, MaxMem=    33554432 cpu:         1.7
 (Enter /home/proyectos/fulerenos/M3C-v2.0/M3C-deps_CCC/g09-AM64L-G09RevC.01/l202.exe)
                          Input orientation:                          
 ---------------------------------------------------------------------
 Center     Atomic      Atomic             Coordinates (Angstroms)
 Number     Number       Type             X           Y           Z
 ---------------------------------------------------------------------
      1          8           0        0.060423   -0.477556    0.000498
      2          6           0        1.085429    0.467029   -0.000134
      3          6           0        2.348854    0.086690   -0.000030
      4          6           0       -1.172913   -0.056242    0.000353
      5          6           0       -2.329368    0.259771    0.000261
      6          1           0        0.741855    1.491736   -0.000688
      7          1           0        3.127324    0.839623   -0.000529
      8          1           0        2.640214   -0.953168    0.000537
      9          1           0       -3.352615    0.543418    0.000175
 ---------------------------------------------------------------------
                    Distance matrix (angstroms):
                    1          2          3          4          5
     1  O    0.000000
     2  C    1.393872   0.000000
     3  C    2.356966   1.319432   0.000000
     4  C    1.303312   2.318172   3.524666   0.000000
     5  C    2.500950   3.421081   4.681423   1.198855   0.000000
     6  H    2.083857   1.080772   2.134620   2.462229   3.309101
     7  H    3.337790   2.075611   1.083016   4.392563   5.487414
     8  H    2.623267   2.105782   1.079905   3.917195   5.115463
     9  H    3.562473   4.438701   5.719733   2.260684   1.061833
                    6          7          8          9
     6  H    0.000000
     7  H    2.472997   0.000000
     8  H    3.095371   1.857788   0.000000
     9  H    4.202855   6.486705   6.176874   0.000000
 Stoichiometry    C4H4O(1-,2)
 Framework group  C1[X(C4H4O)]
 Deg. of freedom    21
 Full point group                 C1      NOp   1
 Largest Abelian subgroup         C1      NOp   1
 Largest concise Abelian subgroup C1      NOp   1
                         Standard orientation:                         
 ---------------------------------------------------------------------
 Center     Atomic      Atomic             Coordinates (Angstroms)
 Number     Number       Type             X           Y           Z
 ---------------------------------------------------------------------
      1          8           0        0.029111   -0.551032   -0.000006
      2          6           0       -0.995469    0.394015   -0.000004
      3          6           0       -2.259065    0.014245    0.000006
      4          6           0        1.262637   -0.130273   -0.000001
      5          6           0        2.419234    0.185219    0.000005
      6          1           0       -0.651434    1.418567   -0.000013
      7          1           0       -3.037196    0.767529    0.000006
      8          1           0       -2.550894   -1.025482    0.000014
      9          1           0        3.442609    0.468405    0.000012
 ---------------------------------------------------------------------
 Rotational constants (GHZ):     45.1338522      2.6511415      2.5040545
 Leave Link  202 at Sat Mar  9 14:56:50 2019, MaxMem=    33554432 cpu:         0.8
 (Enter /home/proyectos/fulerenos/M3C-v2.0/M3C-deps_CCC/g09-AM64L-G09RevC.01/l301.exe)
 Standard basis: 6-311++G(3df,2p) (5D, 7F)
 Ernie: Thresh=  0.10000D-02 Tol=  0.10000D-05 Strict=F.
 There are   265 symmetry adapted cartesian basis functions of A   symmetry.
 There are   235 symmetry adapted basis functions of A   symmetry.
   235 basis functions,   338 primitive gaussians,   265 cartesian basis functions
    19 alpha electrons       18 beta electrons
       nuclear repulsion energy       143.2808512687 Hartrees.
 IExCor=    0 DFT=F Ex=HF Corr=None ExCW=0 ScaHFX=  1.000000
 ScaDFX=  1.000000  1.000000  1.000000  1.000000 ScalE2=  1.000000  1.000000
 IRadAn=      0 IRanWt=     -1 IRanGd=            0 ICorTp=0 IEmpDi=  4
 NAtoms=    9 NActive=    9 NUniq=    9 SFac= 1.00D+00 NAtFMM=   60 NAOKFM=F Big=F
 Integral buffers will be    131072 words long.
 Raffenetti 2 integral format.
 Two-electron integral symmetry is turned on.
 Leave Link  301 at Sat Mar  9 14:56:52 2019, MaxMem=    33554432 cpu:         2.2
 (Enter /home/proyectos/fulerenos/M3C-v2.0/M3C-deps_CCC/g09-AM64L-G09RevC.01/l302.exe)
 NPDir=0 NMtPBC=     1 NCelOv=     1 NCel=       1 NClECP=     1 NCelD=      1
         NCelK=      1 NCelE2=     1 NClLst=     1 CellRange=     0.0.
 One-electron integrals computed using PRISM.
 NBasis=   235 RedAO= T EigKep=  4.94D-06  NBF=   235
 NBsUse=   235 1.00D-06 EigRej= -1.00D+00 NBFU=   235
 Leave Link  302 at Sat Mar  9 14:56:55 2019, MaxMem=    33554432 cpu:         3.8
 (Enter /home/proyectos/fulerenos/M3C-v2.0/M3C-deps_CCC/g09-AM64L-G09RevC.01/l303.exe)
 DipDrv:  MaxL=1.
 Leave Link  303 at Sat Mar  9 14:56:57 2019, MaxMem=    33554432 cpu:         1.5
 (Enter /home/proyectos/fulerenos/M3C-v2.0/M3C-deps_CCC/g09-AM64L-G09RevC.01/l401.exe)
 ExpMin= 3.60D-02 ExpMax= 8.59D+03 ExpMxC= 1.30D+03 IAcc=3 IRadAn=         5 AccDes= 0.00D+00
 Harris functional with IExCor=  205 and IRadAn=       5 diagonalized for initial guess.
 HarFok:  IExCor=  205 AccDes= 0.00D+00 IRadAn=         5 IDoV= 1 UseB2=F ITyADJ=14
 ICtDFT=  3500011 ScaDFX=  1.000000  1.000000  1.000000  1.000000
 FoFCou: FMM=F IPFlag=           0 FMFlag=      100000 FMFlg1=           0
         NFxFlg=           0 DoJE=T BraDBF=F KetDBF=T FulRan=T
         wScrn=  0.000000 ICntrl=     500 IOpCl=  0 I1Cent=   200000004 NGrid=           0
         NMat0=    1 NMatS0=      1 NMatT0=    0 NMatD0=    1 NMtDS0=    0 NMtDT0=    0
 Petite list used in FoFCou.
 Harris En= -229.058737614286    
 JPrj=0 DoOrth=F DoCkMO=F.
 Initial guess <Sx>= 0.0000 <Sy>= 0.0000 <Sz>= 0.5000 <S**2>= 0.7500 S= 0.5000
 Leave Link  401 at Sat Mar  9 14:57:02 2019, MaxMem=    33554432 cpu:        10.9
 (Enter /home/proyectos/fulerenos/M3C-v2.0/M3C-deps_CCC/g09-AM64L-G09RevC.01/l502.exe)
 UHF open shell SCF:
 Using DIIS extrapolation, IDIIS=  1040.
 Integral symmetry usage will be decided dynamically.
 IVT=      232727 IEndB=      232727 NGot=    33554432 MDV=    33408836
 LenX=    33408836 LenY=    33338170
 Requested convergence on RMS density matrix=1.00D-08 within 128 cycles.
 Requested convergence on MAX density matrix=1.00D-06.
 Requested convergence on             energy=1.00D-06.
 No special actions if energy rises.
 Fock matrices will be formed incrementally for  20 cycles.

 Cycle   1  Pass 0  IDiag  1:
 FoFJK:  IHMeth= 1 ICntrl=       0 DoSepK=F KAlg= 0 I1Cent=   0 FoldK=F
 IRaf= 960000000 NMat=   1 IRICut=       1 DoRegI=T DoRafI=F ISym2E= 0.
 FoFCou: FMM=F IPFlag=           0 FMFlag=      100000 FMFlg1=           0
         NFxFlg=           0 DoJE=F BraDBF=F KetDBF=F FulRan=T
         wScrn=  0.000000 ICntrl=       0 IOpCl=  1 I1Cent=           0 NGrid=           0
         NMat0=    1 NMatS0=      1 NMatT0=    0 NMatD0=    1 NMtDS0=    0 NMtDT0=    0
 Symmetry not used in FoFCou.
 E= -228.082946484235    
 DIIS: error= 3.79D-02 at cycle   1 NSaved=   1.
 NSaved= 1 IEnMin= 1 EnMin= -228.082946484235     IErMin= 1 ErrMin= 3.79D-02
 ErrMax= 3.79D-02  0.00D+00 EMaxC= 1.00D-01 BMatC= 2.56D+00 BMatP= 2.56D+00
 IDIUse=3 WtCom= 6.21D-01 WtEn= 3.79D-01
 Coeff-Com:  0.100D+01
 Coeff-En:   0.100D+01
 Coeff:      0.100D+01
 Gap=     0.262 Goal=   None    Shift=    0.000
 Gap=     0.603 Goal=   None    Shift=    0.000
 GapD=    0.262 DampG=1.000 DampE=0.500 DampFc=0.5000 IDamp=-1.
 Damping current iteration by 5.00D-01
 RMSDP=9.67D+00 MaxDP=1.77D+03              OVMax= 1.00D+00

 Problem detected with inexpensive integrals.
 Switching to full accuracy and repeating last cycle.
 Cycle   2  Pass 1  IDiag  1:
 E= -228.082946484235     Delta-E=        0.000000000000 Rises=F Damp=F
 DIIS: error= 3.79D-02 at cycle   1 NSaved=   1.
 NSaved= 1 IEnMin= 1 EnMin= -228.082946484235     IErMin= 1 ErrMin= 3.79D-02
 ErrMax= 3.79D-02  0.00D+00 EMaxC= 1.00D-01 BMatC= 2.56D+00 BMatP= 2.56D+00
 IDIUse=3 WtCom= 6.21D-01 WtEn= 3.79D-01
 Coeff-Com:  0.100D+01
 Coeff-En:   0.100D+01
 Coeff:      0.100D+01
 Gap=     0.262 Goal=   None    Shift=    0.000
 Gap=     0.603 Goal=   None    Shift=    0.000
 GapD=    0.262 DampG=1.000 DampE=0.500 DampFc=0.5000 IDamp=-1.
 Damping current iteration by 5.00D-01
 RMSDP=9.67D+00 MaxDP=1.77D+03 DE= 0.00D+00 OVMax= 1.00D+00

 Cycle   3  Pass 1  IDiag  1:
 RMSU=  4.82D+00    CP:  3.00D+00
 E= -228.321145129083     Delta-E=       -0.238198644848 Rises=F Damp=T
 DIIS: error= 2.15D-02 at cycle   2 NSaved=   2.
 NSaved= 2 IEnMin= 2 EnMin= -228.321145129083     IErMin= 2 ErrMin= 2.15D-02
 ErrMax= 2.15D-02  0.00D+00 EMaxC= 1.00D-01 BMatC= 4.27D-01 BMatP= 2.56D+00
 IDIUse=3 WtCom= 7.85D-01 WtEn= 2.15D-01
 Coeff-Com: -0.379D+00 0.138D+01
 Coeff-En:   0.000D+00 0.100D+01
 Coeff:     -0.297D+00 0.130D+01
 Gap=     0.049 Goal=   None    Shift=    0.000
 Gap=     0.423 Goal=   None    Shift=    0.000
 GapD=    0.049 DampG=0.250 DampE=0.500 DampFc=0.2500 IDamp=-1.
 Damping current iteration by 2.50D-01
 RMSDP=4.36D+00 MaxDP=7.99D+02 DE=-2.38D-01 OVMax= 1.53D-01

 Cycle   4  Pass 1  IDiag  1:
 RMSU=  6.21D-02    CP:  3.00D+00  1.23D+00
 E= -228.376134548491     Delta-E=       -0.054989419408 Rises=F Damp=T
 DIIS: error= 1.63D-02 at cycle   3 NSaved=   3.
 NSaved= 3 IEnMin= 3 EnMin= -228.376134548491     IErMin= 3 ErrMin= 1.63D-02
 ErrMax= 1.63D-02  0.00D+00 EMaxC= 1.00D-01 BMatC= 2.46D-01 BMatP= 4.27D-01
 IDIUse=3 WtCom= 8.37D-01 WtEn= 1.63D-01
 Coeff-Com:  0.375D-01-0.321D+01 0.417D+01
 Coeff-En:   0.000D+00 0.000D+00 0.100D+01
 Coeff:      0.314D-01-0.269D+01 0.365D+01
 Gap=     0.139 Goal=   None    Shift=    0.000
 Gap=     0.354 Goal=   None    Shift=    0.000
 RMSDP=2.14D+00 MaxDP=3.96D+02 DE=-5.50D-02 OVMax= 7.22D-02

 Cycle   5  Pass 1  IDiag  1:
 RMSU=  1.78D-01    CP:  3.00D+00  1.66D+00  3.00D+00
 E= -228.576847207070     Delta-E=       -0.200712658579 Rises=F Damp=F
 DIIS: error= 2.76D-03 at cycle   4 NSaved=   4.
 NSaved= 4 IEnMin= 4 EnMin= -228.576847207070     IErMin= 4 ErrMin= 2.76D-03
 ErrMax= 2.76D-03  0.00D+00 EMaxC= 1.00D-01 BMatC= 2.83D-03 BMatP= 2.46D-01
 IDIUse=3 WtCom= 9.72D-01 WtEn= 2.76D-02
 Coeff-Com:  0.353D-01 0.116D+00-0.265D+00 0.111D+01
 Coeff-En:   0.000D+00 0.000D+00 0.000D+00 0.100D+01
 Coeff:      0.344D-01 0.113D+00-0.258D+00 0.111D+01
 Gap=     0.068 Goal=   None    Shift=    0.000
 Gap=     0.354 Goal=   None    Shift=    0.000
 RMSDP=1.13D+00 MaxDP=2.00D+02 DE=-2.01D-01 OVMax= 5.92D-02

 Cycle   6  Pass 1  IDiag  1:
 RMSU=  6.56D-02    CP:  3.00D+00  1.43D+00  3.00D+00  1.39D+00
 E= -228.578813885437     Delta-E=       -0.001966678367 Rises=F Damp=F
 DIIS: error= 9.38D-04 at cycle   5 NSaved=   5.
 NSaved= 5 IEnMin= 5 EnMin= -228.578813885437     IErMin= 5 ErrMin= 9.38D-04
 ErrMax= 9.38D-04  0.00D+00 EMaxC= 1.00D-01 BMatC= 4.63D-04 BMatP= 2.83D-03
 IDIUse=3 WtCom= 9.91D-01 WtEn= 9.38D-03
 Coeff-Com: -0.302D-03 0.350D+00-0.464D+00 0.222D+00 0.893D+00
 Coeff-En:   0.000D+00 0.000D+00 0.000D+00 0.000D+00 0.100D+01
 Coeff:     -0.299D-03 0.347D+00-0.460D+00 0.220D+00 0.894D+00
 Gap=     0.071 Goal=   None    Shift=    0.000
 Gap=     0.357 Goal=   None    Shift=    0.000
 RMSDP=6.24D-01 MaxDP=1.09D+02 DE=-1.97D-03 OVMax= 3.58D-02

 Cycle   7  Pass 1  IDiag  1:
 RMSU=  9.52D-03    CP:  3.00D+00  1.30D+00  3.00D+00  1.58D+00  1.77D+00
 E= -228.579248613409     Delta-E=       -0.000434727972 Rises=F Damp=F
 DIIS: error= 5.75D-04 at cycle   6 NSaved=   6.
 NSaved= 6 IEnMin= 6 EnMin= -228.579248613409     IErMin= 6 ErrMin= 5.75D-04
 ErrMax= 5.75D-04  0.00D+00 EMaxC= 1.00D-01 BMatC= 1.08D-04 BMatP= 4.63D-04
 IDIUse=3 WtCom= 9.94D-01 WtEn= 5.75D-03
 Coeff-Com: -0.421D-02 0.312D-01-0.254D-01-0.147D+00 0.148D+00 0.997D+00
 Coeff-En:   0.000D+00 0.000D+00 0.000D+00 0.000D+00 0.000D+00 0.100D+01
 Coeff:     -0.419D-02 0.310D-01-0.253D-01-0.146D+00 0.147D+00 0.998D+00
 Gap=     0.073 Goal=   None    Shift=    0.000
 Gap=     0.358 Goal=   None    Shift=    0.000
 RMSDP=5.07D-01 MaxDP=8.84D+01 DE=-4.35D-04 OVMax= 3.19D-02

 Cycle   8  Pass 1  IDiag  1:
 RMSU=  2.78D-03    CP:  3.00D+00  1.20D+00  3.00D+00  1.75D+00  2.57D+00
                    CP:  2.82D+00
 E= -228.579457178833     Delta-E=       -0.000208565425 Rises=F Damp=F
 DIIS: error= 2.28D-04 at cycle   7 NSaved=   7.
 NSaved= 7 IEnMin= 7 EnMin= -228.579457178833     IErMin= 7 ErrMin= 2.28D-04
 ErrMax= 2.28D-04  0.00D+00 EMaxC= 1.00D-01 BMatC= 2.53D-05 BMatP= 1.08D-04
 IDIUse=3 WtCom= 9.98D-01 WtEn= 2.28D-03
 Coeff-Com:  0.103D-02-0.934D-01 0.121D+00-0.395D-01-0.186D+00 0.350D-01
 Coeff-Com:  0.116D+01
 Coeff-En:   0.000D+00 0.000D+00 0.000D+00 0.000D+00 0.000D+00 0.000D+00
 Coeff-En:   0.100D+01
 Coeff:      0.103D-02-0.931D-01 0.120D+00-0.394D-01-0.185D+00 0.350D-01
 Coeff:      0.116D+01
 Gap=     0.074 Goal=   None    Shift=    0.000
 Gap=     0.358 Goal=   None    Shift=    0.000
 RMSDP=3.66D-01 MaxDP=6.28D+01 DE=-2.09D-04 OVMax= 2.99D-02

 Cycle   9  Pass 1  IDiag  1:
 RMSU=  3.05D-02    CP:  3.00D+00  1.12D+00  3.00D+00  1.91D+00  3.00D+00
                    CP:  3.00D+00  2.76D+00
 E= -228.579579232727     Delta-E=       -0.000122053894 Rises=F Damp=F
 DIIS: error= 1.64D-04 at cycle   8 NSaved=   8.
 NSaved= 8 IEnMin= 8 EnMin= -228.579579232727     IErMin= 8 ErrMin= 1.64D-04
 ErrMax= 1.64D-04  0.00D+00 EMaxC= 1.00D-01 BMatC= 1.13D-05 BMatP= 2.53D-05
 IDIUse=3 WtCom= 9.98D-01 WtEn= 1.64D-03
 Coeff-Com: -0.316D-03 0.621D-02-0.794D-02 0.396D-01 0.153D-01-0.233D+00
 Coeff-Com: -0.247D+00 0.143D+01
 Coeff-En:   0.000D+00 0.000D+00 0.000D+00 0.000D+00 0.000D+00 0.000D+00
 Coeff-En:   0.000D+00 0.100D+01
 Coeff:     -0.315D-03 0.620D-02-0.792D-02 0.395D-01 0.153D-01-0.232D+00
 Coeff:     -0.246D+00 0.143D+01
 Gap=     0.075 Goal=   None    Shift=    0.000
 Gap=     0.359 Goal=   None    Shift=    0.000
 RMSDP=2.82D-01 MaxDP=4.73D+01 DE=-1.22D-04 OVMax= 2.95D-02

 Cycle  10  Pass 1  IDiag  1:
 RMSU=  1.69D-02    CP:  3.00D+00  1.07D+00  3.00D+00  2.07D+00  3.00D+00
                    CP:  3.00D+00  3.00D+00  2.78D+00
 E= -228.579669616188     Delta-E=       -0.000090383461 Rises=F Damp=F
 DIIS: error= 1.18D-04 at cycle   9 NSaved=   9.
 NSaved= 9 IEnMin= 9 EnMin= -228.579669616188     IErMin= 9 ErrMin= 1.18D-04
 ErrMax= 1.18D-04  0.00D+00 EMaxC= 1.00D-01 BMatC= 7.14D-06 BMatP= 1.13D-05
 IDIUse=3 WtCom= 9.99D-01 WtEn= 1.18D-03
 Coeff-Com: -0.630D-03 0.828D-02-0.934D-02 0.579D-02 0.463D-01 0.283D-01
 Coeff-Com: -0.253D+00-0.344D+00 0.152D+01
 Coeff-En:   0.000D+00 0.000D+00 0.000D+00 0.000D+00 0.000D+00 0.000D+00
 Coeff-En:   0.000D+00 0.000D+00 0.100D+01
 Coeff:     -0.629D-03 0.827D-02-0.933D-02 0.578D-02 0.463D-01 0.283D-01
 Coeff:     -0.252D+00-0.343D+00 0.152D+01
 Gap=     0.075 Goal=   None    Shift=    0.000
 Gap=     0.360 Goal=   None    Shift=    0.000
 RMSDP=2.17D-01 MaxDP=3.57D+01 DE=-9.04D-05 OVMax= 2.79D-02

 Cycle  11  Pass 1  IDiag  1:
 RMSU=  4.54D-02    CP:  3.00D+00  1.02D+00  3.00D+00  2.21D+00  3.00D+00
                    CP:  3.00D+00  3.00D+00  3.00D+00  1.77D+00
 E= -228.579736469888     Delta-E=       -0.000066853700 Rises=F Damp=F
 DIIS: error= 1.09D-04 at cycle  10 NSaved=  10.
 NSaved=10 IEnMin=10 EnMin= -228.579736469888     IErMin=10 ErrMin= 1.09D-04
 ErrMax= 1.09D-04  0.00D+00 EMaxC= 1.00D-01 BMatC= 4.74D-06 BMatP= 7.14D-06
 IDIUse=3 WtCom= 9.99D-01 WtEn= 1.09D-03
 Coeff-Com:  0.193D-03-0.300D-01 0.397D-01-0.424D-01-0.290D-01 0.224D+00
 Coeff-Com:  0.341D+00-0.150D+01-0.108D+00 0.211D+01
 Coeff-En:   0.000D+00 0.000D+00 0.000D+00 0.000D+00 0.000D+00 0.000D+00
 Coeff-En:   0.000D+00 0.000D+00 0.000D+00 0.100D+01
 Coeff:      0.192D-03-0.300D-01 0.397D-01-0.424D-01-0.290D-01 0.224D+00
 Coeff:      0.341D+00-0.150D+01-0.108D+00 0.210D+01
 Gap=     0.076 Goal=   None    Shift=    0.000
 Gap=     0.361 Goal=   None    Shift=    0.000
 RMSDP=3.68D-01 MaxDP=6.11D+01 DE=-6.69D-05 OVMax= 4.91D-02

 Cycle  12  Pass 1  IDiag  1:
 RMSU=  3.15D-03    CP:  3.00D+00  9.49D-01  3.00D+00  2.44D+00  3.00D+00
                    CP:  3.00D+00  3.00D+00  3.00D+00  2.95D+00  2.93D+00
 E= -228.579816392653     Delta-E=       -0.000079922765 Rises=F Damp=F
 DIIS: error= 8.48D-05 at cycle  11 NSaved=  11.
 NSaved=11 IEnMin=11 EnMin= -228.579816392653     IErMin=11 ErrMin= 8.48D-05
 ErrMax= 8.48D-05  0.00D+00 EMaxC= 1.00D-01 BMatC= 2.37D-06 BMatP= 4.74D-06
 IDIUse=1 WtCom= 1.00D+00 WtEn= 0.00D+00
 Coeff-Com:  0.258D-03-0.467D-02 0.531D-02 0.163D-01-0.140D-01-0.145D+00
 Coeff-Com:  0.719D-01 0.845D+00-0.821D+00-0.110D+01 0.215D+01
 Coeff:      0.258D-03-0.467D-02 0.531D-02 0.163D-01-0.140D-01-0.145D+00
 Coeff:      0.719D-01 0.845D+00-0.821D+00-0.110D+01 0.215D+01
 Gap=     0.076 Goal=   None    Shift=    0.000
 Gap=     0.362 Goal=   None    Shift=    0.000
 RMSDP=3.14D-01 MaxDP=5.32D+01 DE=-7.99D-05 OVMax= 4.21D-02

 Cycle  13  Pass 1  IDiag  1:
 RMSU=  6.83D-02    CP:  3.00D+00  8.86D-01  3.00D+00  2.59D+00  3.00D+00
                    CP:  3.00D+00  3.00D+00  3.00D+00  3.00D+00  3.00D+00
                    CP:  3.00D+00
 E= -228.579851363761     Delta-E=       -0.000034971108 Rises=F Damp=F
 DIIS: error= 7.17D-05 at cycle  12 NSaved=  12.
 NSaved=12 IEnMin=12 EnMin= -228.579851363761     IErMin=12 ErrMin= 7.17D-05
 ErrMax= 7.17D-05  0.00D+00 EMaxC= 1.00D-01 BMatC= 1.14D-06 BMatP= 2.37D-06
 IDIUse=1 WtCom= 1.00D+00 WtEn= 0.00D+00
 Coeff-Com: -0.346D-03 0.625D-02-0.742D-02 0.365D-02 0.133D-01 0.710D-02
 Coeff-Com: -0.871D-01-0.390D-01 0.421D+00 0.425D-01-0.139D+01 0.203D+01
 Coeff:     -0.346D-03 0.625D-02-0.742D-02 0.365D-02 0.133D-01 0.710D-02
 Coeff:     -0.871D-01-0.390D-01 0.421D+00 0.425D-01-0.139D+01 0.203D+01
 Gap=     0.076 Goal=   None    Shift=    0.000
 Gap=     0.363 Goal=   None    Shift=    0.000
 RMSDP=1.61D-01 MaxDP=2.79D+01 DE=-3.50D-05 OVMax= 2.13D-02

 Cycle  14  Pass 1  IDiag  1:
 RMSU=  6.32D-03    CP:  3.00D+00  8.53D-01  3.00D+00  2.64D+00  3.00D+00
                    CP:  3.00D+00  3.00D+00  3.00D+00  3.00D+00  3.00D+00
                    CP:  3.00D+00  1.51D+00
 E= -228.579860122030     Delta-E=       -0.000008758269 Rises=F Damp=F
 DIIS: error= 6.52D-05 at cycle  13 NSaved=  13.
 NSaved=13 IEnMin=13 EnMin= -228.579860122030     IErMin=13 ErrMin= 6.52D-05
 ErrMax= 6.52D-05  0.00D+00 EMaxC= 1.00D-01 BMatC= 7.18D-07 BMatP= 1.14D-06
 IDIUse=1 WtCom= 1.00D+00 WtEn= 0.00D+00
 Coeff-Com: -0.116D-03 0.187D-02-0.213D-02-0.394D-02 0.192D-02 0.337D-01
 Coeff-Com: -0.220D-01-0.161D+00 0.115D+00 0.250D+00-0.315D+00-0.223D+00
 Coeff-Com:  0.132D+01
 Coeff:     -0.116D-03 0.187D-02-0.213D-02-0.394D-02 0.192D-02 0.337D-01
 Coeff:     -0.220D-01-0.161D+00 0.115D+00 0.250D+00-0.315D+00-0.223D+00
 Coeff:      0.132D+01
 Gap=     0.076 Goal=   None    Shift=    0.000
 Gap=     0.363 Goal=   None    Shift=    0.000
 RMSDP=4.24D-02 MaxDP=7.54D+00 DE=-8.76D-06 OVMax= 5.18D-03

 Cycle  15  Pass 1  IDiag  1:
 RMSU=  7.68D-04    CP:  3.00D+00  8.45D-01  3.00D+00  2.64D+00  3.00D+00
                    CP:  3.00D+00  3.00D+00  3.00D+00  3.00D+00  3.00D+00
                    CP:  3.00D+00  1.62D+00  1.41D+00
 E= -228.579862401890     Delta-E=       -0.000002279860 Rises=F Damp=F
 DIIS: error= 5.99D-05 at cycle  14 NSaved=  14.
 NSaved=14 IEnMin=14 EnMin= -228.579862401890     IErMin=14 ErrMin= 5.99D-05
 ErrMax= 5.99D-05  0.00D+00 EMaxC= 1.00D-01 BMatC= 6.10D-07 BMatP= 7.18D-07
 IDIUse=1 WtCom= 1.00D+00 WtEn= 0.00D+00
 Coeff-Com:  0.782D-04 0.786D-03-0.120D-02 0.211D-02 0.303D-05-0.221D-01
 Coeff-Com:  0.680D-02 0.155D+00-0.170D+00-0.249D+00 0.633D+00-0.676D+00
 Coeff-Com: -0.704D+00 0.202D+01
 Coeff:      0.782D-04 0.786D-03-0.120D-02 0.211D-02 0.303D-05-0.221D-01
 Coeff:      0.680D-02 0.155D+00-0.170D+00-0.249D+00 0.633D+00-0.676D+00
 Coeff:     -0.704D+00 0.202D+01
 Gap=     0.076 Goal=   None    Shift=    0.000
 Gap=     0.363 Goal=   None    Shift=    0.000
 RMSDP=5.61D-02 MaxDP=9.87D+00 DE=-2.28D-06 OVMax= 7.29D-03

 Cycle  16  Pass 1  IDiag  1:
 RMSU=  3.90D-04    CP:  3.00D+00  8.33D-01  3.00D+00  2.65D+00  3.00D+00
                    CP:  3.00D+00  3.00D+00  3.00D+00  3.00D+00  3.00D+00
                    CP:  3.00D+00  1.79D+00  1.93D+00  2.12D+00
 E= -228.579865172943     Delta-E=       -0.000002771052 Rises=F Damp=F
 DIIS: error= 5.72D-05 at cycle  15 NSaved=  15.
 NSaved=15 IEnMin=15 EnMin= -228.579865172943     IErMin=15 ErrMin= 5.72D-05
 ErrMax= 5.72D-05  0.00D+00 EMaxC= 1.00D-01 BMatC= 5.09D-07 BMatP= 6.10D-07
 IDIUse=1 WtCom= 1.00D+00 WtEn= 0.00D+00
 Coeff-Com: -0.405D-04 0.229D-02-0.303D-02 0.721D-02 0.563D-02-0.484D-01
 Coeff-Com: -0.328D-01 0.247D+00 0.404D-01-0.400D+00 0.359D-02 0.873D+00
 Coeff-Com: -0.181D+01-0.549D+00 0.266D+01
 Coeff:     -0.405D-04 0.229D-02-0.303D-02 0.721D-02 0.563D-02-0.484D-01
 Coeff:     -0.328D-01 0.247D+00 0.404D-01-0.400D+00 0.359D-02 0.873D+00
 Coeff:     -0.181D+01-0.549D+00 0.266D+01
 Gap=     0.076 Goal=   None    Shift=    0.000
 Gap=     0.363 Goal=   None    Shift=    0.000
 RMSDP=6.68D-02 MaxDP=1.17D+01 DE=-2.77D-06 OVMax= 9.00D-03

 Cycle  17  Pass 1  IDiag  1:
 RMSU=  8.13D-04    CP:  3.00D+00  8.20D-01  3.00D+00  2.66D+00  3.00D+00
                    CP:  3.00D+00  3.00D+00  3.00D+00  3.00D+00  3.00D+00
                    CP:  3.00D+00  2.00D+00  2.63D+00  3.00D+00  3.00D+00
 E= -228.579869002384     Delta-E=       -0.000003829441 Rises=F Damp=F
 DIIS: error= 4.32D-05 at cycle  16 NSaved=  16.
 NSaved=16 IEnMin=16 EnMin= -228.579869002384     IErMin=16 ErrMin= 4.32D-05
 ErrMax= 4.32D-05  0.00D+00 EMaxC= 1.00D-01 BMatC= 3.63D-07 BMatP= 5.09D-07
 IDIUse=1 WtCom= 1.00D+00 WtEn= 0.00D+00
 Coeff-Com: -0.295D-03 0.432D-02-0.495D-02-0.111D-02 0.708D-02 0.190D-01
 Coeff-Com: -0.708D-01-0.155D-01 0.161D+00 0.171D+00-0.506D+00 0.570D+00
 Coeff-Com:  0.146D+01-0.237D+01-0.126D+01 0.283D+01
 Coeff:     -0.295D-03 0.432D-02-0.495D-02-0.111D-02 0.708D-02 0.190D-01
 Coeff:     -0.708D-01-0.155D-01 0.161D+00 0.171D+00-0.506D+00 0.570D+00
 Coeff:      0.146D+01-0.237D+01-0.126D+01 0.283D+01
 Gap=     0.075 Goal=   None    Shift=    0.000
 Gap=     0.363 Goal=   None    Shift=    0.000
 RMSDP=1.55D-02 MaxDP=2.65D+00 DE=-3.83D-06 OVMax= 5.50D-03

 Cycle  18  Pass 1  IDiag  1:
 RMSU=  1.21D-03    CP:  3.00D+00  8.23D-01  3.00D+00  2.65D+00  3.00D+00
                    CP:  3.00D+00  3.00D+00  3.00D+00  3.00D+00  3.00D+00
                    CP:  3.00D+00  1.99D+00  2.90D+00  3.00D+00  3.00D+00
                    CP:  3.00D+00
 E= -228.579874695080     Delta-E=       -0.000005692696 Rises=F Damp=F
 DIIS: error= 3.20D-05 at cycle  17 NSaved=  17.
 NSaved=17 IEnMin=17 EnMin= -228.579874695080     IErMin=17 ErrMin= 3.20D-05
 ErrMax= 3.20D-05  0.00D+00 EMaxC= 1.00D-01 BMatC= 2.36D-07 BMatP= 3.63D-07
 IDIUse=1 WtCom= 1.00D+00 WtEn= 0.00D+00
 Coeff-Com: -0.989D-04 0.418D-02-0.531D-02 0.226D-02 0.702D-02-0.214D-01
 Coeff-Com: -0.523D-01 0.147D+00 0.569D-01-0.205D+00 0.978D-02 0.397D+00
 Coeff-Com: -0.463D+00 0.222D-01 0.442D+00-0.109D+01 0.175D+01
 Coeff:     -0.989D-04 0.418D-02-0.531D-02 0.226D-02 0.702D-02-0.214D-01
 Coeff:     -0.523D-01 0.147D+00 0.569D-01-0.205D+00 0.978D-02 0.397D+00
 Coeff:     -0.463D+00 0.222D-01 0.442D+00-0.109D+01 0.175D+01
 Gap=     0.076 Goal=   None    Shift=    0.000
 Gap=     0.363 Goal=   None    Shift=    0.000
 RMSDP=7.00D-02 MaxDP=1.23D+01 DE=-5.69D-06 OVMax= 8.94D-03

 Cycle  19  Pass 1  IDiag  1:
 RMSU=  3.83D-04    CP:  3.00D+00  8.37D-01  3.00D+00  2.64D+00  3.00D+00
                    CP:  3.00D+00  3.00D+00  3.00D+00  3.00D+00  3.00D+00
                    CP:  3.00D+00  1.79D+00  2.47D+00  3.00D+00  3.00D+00
                    CP:  3.00D+00  1.53D+00
 E= -228.579878316359     Delta-E=       -0.000003621279 Rises=F Damp=F
 DIIS: error= 2.19D-05 at cycle  18 NSaved=  18.
 NSaved=18 IEnMin=18 EnMin= -228.579878316359     IErMin=18 ErrMin= 2.19D-05
 ErrMax= 2.19D-05  0.00D+00 EMaxC= 1.00D-01 BMatC= 1.27D-07 BMatP= 2.36D-07
 IDIUse=1 WtCom= 1.00D+00 WtEn= 0.00D+00
 Coeff-Com: -0.102D-03-0.202D-04 0.309D-03-0.141D-02 0.121D-02 0.317D-01
 Coeff-Com: -0.585D-02-0.215D+00 0.273D+00 0.188D+00-0.754D+00 0.478D+00
 Coeff-Com:  0.484D+00-0.920D+00-0.154D-01 0.116D+01-0.273D+01 0.303D+01
 Coeff:     -0.102D-03-0.202D-04 0.309D-03-0.141D-02 0.121D-02 0.317D-01
 Coeff:     -0.585D-02-0.215D+00 0.273D+00 0.188D+00-0.754D+00 0.478D+00
 Coeff:      0.484D+00-0.920D+00-0.154D-01 0.116D+01-0.273D+01 0.303D+01
 Gap=     0.076 Goal=   None    Shift=    0.000
 Gap=     0.363 Goal=   None    Shift=    0.000
 RMSDP=3.52D-02 MaxDP=6.23D+00 DE=-3.62D-06 OVMax= 4.87D-03

 Cycle  20  Pass 1  IDiag  1:
 RMSU=  8.89D-04    CP:  3.00D+00  8.44D-01  3.00D+00  2.64D+00  3.00D+00
                    CP:  3.00D+00  3.00D+00  3.00D+00  3.00D+00  3.00D+00
                    CP:  3.00D+00  1.67D+00  1.98D+00  3.00D+00  3.00D+00
                    CP:  3.00D+00  7.63D-01  7.82D-01
 E= -228.579880927361     Delta-E=       -0.000002611002 Rises=F Damp=F
 DIIS: error= 9.65D-06 at cycle  19 NSaved=  19.
 NSaved=19 IEnMin=19 EnMin= -228.579880927361     IErMin=19 ErrMin= 9.65D-06
 ErrMax= 9.65D-06  0.00D+00 EMaxC= 1.00D-01 BMatC= 2.93D-08 BMatP= 1.27D-07
 IDIUse=1 WtCom= 1.00D+00 WtEn= 0.00D+00
 Coeff-Com:  0.326D-04-0.166D-02 0.212D-02-0.128D-02-0.297D-02 0.956D-03
 Coeff-Com:  0.157D-01 0.168D-01-0.115D+00 0.415D-01 0.280D+00-0.322D+00
 Coeff-Com: -0.138D-01 0.334D+00-0.246D+00-0.128D+00 0.824D+00-0.160D+01
 Coeff-Com:  0.192D+01
 Coeff:      0.326D-04-0.166D-02 0.212D-02-0.128D-02-0.297D-02 0.956D-03
 Coeff:      0.157D-01 0.168D-01-0.115D+00 0.415D-01 0.280D+00-0.322D+00
 Coeff:     -0.138D-01 0.334D+00-0.246D+00-0.128D+00 0.824D+00-0.160D+01
 Coeff:      0.192D+01
 Gap=     0.076 Goal=   None    Shift=    0.000
 Gap=     0.362 Goal=   None    Shift=    0.000
 RMSDP=2.99D-02 MaxDP=5.17D+00 DE=-2.61D-06 OVMax= 4.38D-03

 Cycle  21  Pass 1  IDiag  1:
 RMSU=  2.65D-04    CP:  3.00D+00  8.50D-01  3.00D+00  2.63D+00  3.00D+00
                    CP:  3.00D+00  3.00D+00  3.00D+00  3.00D+00  3.00D+00
                    CP:  3.00D+00  1.57D+00  1.65D+00  3.00D+00  3.00D+00
                    CP:  2.41D+00  1.48D-01  1.18D+00  9.34D-01
 E= -228.579881582766     Delta-E=       -0.000000655405 Rises=F Damp=F
 DIIS: error= 6.38D-06 at cycle  20 NSaved=  20.
 NSaved=20 IEnMin=20 EnMin= -228.579881582766     IErMin=20 ErrMin= 6.38D-06
 ErrMax= 6.38D-06  0.00D+00 EMaxC= 1.00D-01 BMatC= 6.10D-09 BMatP= 2.93D-08
 IDIUse=1 WtCom= 1.00D+00 WtEn= 0.00D+00
 Coeff-Com: -0.248D-04 0.137D-02-0.176D-02 0.113D-02 0.177D-02-0.654D-02
 Coeff-Com: -0.141D-01 0.420D-01 0.132D-01-0.618D-01-0.191D-01 0.168D+00
 Coeff-Com: -0.185D+00-0.406D-01 0.170D+00-0.102D-01-0.159D-01 0.808D-01
 Coeff-Com: -0.745D+00 0.162D+01
 Coeff:     -0.248D-04 0.137D-02-0.176D-02 0.113D-02 0.177D-02-0.654D-02
 Coeff:     -0.141D-01 0.420D-01 0.132D-01-0.618D-01-0.191D-01 0.168D+00
 Coeff:     -0.185D+00-0.406D-01 0.170D+00-0.102D-01-0.159D-01 0.808D-01
 Coeff:     -0.745D+00 0.162D+01
 Gap=     0.076 Goal=   None    Shift=    0.000
 Gap=     0.362 Goal=   None    Shift=    0.000
 RMSDP=1.18D-02 MaxDP=1.98D+00 DE=-6.55D-07 OVMax= 2.15D-03

 Cycle  22  Pass 1  IDiag  1:
 Restarting incremental Fock formation.
 E= -228.579881653398     Delta-E=       -0.000000070631 Rises=F Damp=F
 DIIS: error= 2.08D-06 at cycle  21 NSaved=  20.
 NSaved=20 IEnMin=20 EnMin= -228.579881653398     IErMin=20 ErrMin= 2.08D-06
 ErrMax= 2.08D-06  0.00D+00 EMaxC= 1.00D-01 BMatC= 1.18D-09 BMatP= 6.10D-09
 IDIUse=1 WtCom= 1.00D+00 WtEn= 0.00D+00
 Coeff-Com: -0.138D-04 0.257D-04-0.376D-03-0.109D-03 0.323D-02 0.164D-02
 Coeff-Com: -0.176D-01 0.124D-01 0.174D-01-0.216D-01-0.224D-01 0.629D-01
 Coeff-Com:  0.308D-01-0.123D+00 0.104D-01 0.722D-01 0.522D-02 0.927D-01
 Coeff-Com: -0.641D+00 0.152D+01
 Coeff:     -0.138D-04 0.257D-04-0.376D-03-0.109D-03 0.323D-02 0.164D-02
 Coeff:     -0.176D-01 0.124D-01 0.174D-01-0.216D-01-0.224D-01 0.629D-01
 Coeff:      0.308D-01-0.123D+00 0.104D-01 0.722D-01 0.522D-02 0.927D-01
 Coeff:     -0.641D+00 0.152D+01
 Gap=     0.076 Goal=   None    Shift=    0.000
 Gap=     0.362 Goal=   None    Shift=    0.000
 RMSDP=5.48D-04 MaxDP=4.75D-02 DE=-7.06D-08 OVMax= 2.55D-04

 Cycle  23  Pass 1  IDiag  1:
 RMSU=  4.96D-04    CP:  1.00D+00
 E= -228.579881658956     Delta-E=       -0.000000005559 Rises=F Damp=F
 DIIS: error= 1.63D-06 at cycle  22 NSaved=  20.
 NSaved=20 IEnMin=20 EnMin= -228.579881658956     IErMin=20 ErrMin= 1.63D-06
 ErrMax= 1.63D-06  0.00D+00 EMaxC= 1.00D-01 BMatC= 4.38D-10 BMatP= 1.18D-09
 IDIUse=1 WtCom= 1.00D+00 WtEn= 0.00D+00
 Coeff-Com: -0.502D-06 0.979D-04 0.311D-03-0.894D-03-0.104D-02 0.292D-02
 Coeff-Com: -0.525D-03-0.467D-02 0.113D-02 0.735D-02-0.323D-01-0.131D-01
 Coeff-Com:  0.107D+00-0.647D-01-0.529D-01 0.480D-01-0.626D-03 0.344D-01
 Coeff-Com: -0.696D+00 0.167D+01
 Coeff:     -0.502D-06 0.979D-04 0.311D-03-0.894D-03-0.104D-02 0.292D-02
 Coeff:     -0.525D-03-0.467D-02 0.113D-02 0.735D-02-0.323D-01-0.131D-01
 Coeff:      0.107D+00-0.647D-01-0.529D-01 0.480D-01-0.626D-03 0.344D-01
 Coeff:     -0.696D+00 0.167D+01
 Gap=     0.076 Goal=   None    Shift=    0.000
 Gap=     0.362 Goal=   None    Shift=    0.000
 RMSDP=2.92D-03 MaxDP=4.91D-01 DE=-5.56D-09 OVMax= 4.53D-04

 Cycle  24  Pass 1  IDiag  1:
 RMSU=  1.03D-03    CP:  1.00D+00  1.77D+00
 E= -228.579881659391     Delta-E=       -0.000000000435 Rises=F Damp=F
 DIIS: error= 1.36D-06 at cycle  23 NSaved=  20.
 NSaved=20 IEnMin=20 EnMin= -228.579881659391     IErMin=20 ErrMin= 1.36D-06
 ErrMax= 1.36D-06  0.00D+00 EMaxC= 1.00D-01 BMatC= 2.54D-10 BMatP= 4.38D-10
 IDIUse=1 WtCom= 1.00D+00 WtEn= 0.00D+00
 Coeff-Com:  0.158D-05-0.403D-04-0.232D-03 0.307D-03 0.260D-03-0.138D-02
 Coeff-Com: -0.880D-03 0.171D-02-0.162D-02-0.986D-04 0.875D-02-0.155D-02
 Coeff-Com: -0.150D-01 0.393D-01-0.216D-01-0.586D-01 0.226D+00-0.273D+00
 Coeff-Com: -0.560D+00 0.166D+01
 Coeff:      0.158D-05-0.403D-04-0.232D-03 0.307D-03 0.260D-03-0.138D-02
 Coeff:     -0.880D-03 0.171D-02-0.162D-02-0.986D-04 0.875D-02-0.155D-02
 Coeff:     -0.150D-01 0.393D-01-0.216D-01-0.586D-01 0.226D+00-0.273D+00
 Coeff:     -0.560D+00 0.166D+01
 Gap=     0.076 Goal=   None    Shift=    0.000
 Gap=     0.362 Goal=   None    Shift=    0.000
 RMSDP=1.79D-03 MaxDP=3.13D-01 DE=-4.35D-10 OVMax= 2.57D-04

 Cycle  25  Pass 1  IDiag  1:
 RMSU=  4.05D-05    CP:  1.00D+00  1.96D+00  2.64D-01
 E= -228.579881661262     Delta-E=       -0.000000001871 Rises=F Damp=F
 DIIS: error= 8.88D-07 at cycle  24 NSaved=  20.
 NSaved=20 IEnMin=20 EnMin= -228.579881661262     IErMin=20 ErrMin= 8.88D-07
 ErrMax= 8.88D-07  0.00D+00 EMaxC= 1.00D-01 BMatC= 1.34D-10 BMatP= 2.54D-10
 IDIUse=1 WtCom= 1.00D+00 WtEn= 0.00D+00
 Coeff-Com:  0.413D-04 0.728D-04-0.200D-03-0.365D-04 0.915D-03-0.232D-03
 Coeff-Com: -0.325D-02 0.594D-02-0.135D-01 0.542D-02 0.202D-01-0.112D-01
 Coeff-Com: -0.457D-01 0.568D-01-0.188D-01-0.111D+00 0.247D+00 0.367D+00
 Coeff-Com: -0.215D+01 0.265D+01
 Coeff:      0.413D-04 0.728D-04-0.200D-03-0.365D-04 0.915D-03-0.232D-03
 Coeff:     -0.325D-02 0.594D-02-0.135D-01 0.542D-02 0.202D-01-0.112D-01
 Coeff:     -0.457D-01 0.568D-01-0.188D-01-0.111D+00 0.247D+00 0.367D+00
 Coeff:     -0.215D+01 0.265D+01
 Gap=     0.076 Goal=   None    Shift=    0.000
 Gap=     0.362 Goal=   None    Shift=    0.000
 RMSDP=4.80D-04 MaxDP=8.35D-02 DE=-1.87D-09 OVMax= 6.30D-05

 Cycle  26  Pass 1  IDiag  1:
 RMSU=  1.24D-05    CP:  1.00D+00  2.03D+00  7.18D-02  1.42D+00
 E= -228.579881661820     Delta-E=       -0.000000000558 Rises=F Damp=F
 DIIS: error= 5.37D-07 at cycle  25 NSaved=  20.
 NSaved=20 IEnMin=20 EnMin= -228.579881661820     IErMin=20 ErrMin= 5.37D-07
 ErrMax= 5.37D-07  0.00D+00 EMaxC= 1.00D-01 BMatC= 7.66D-11 BMatP= 1.34D-10
 IDIUse=1 WtCom= 1.00D+00 WtEn= 0.00D+00
 Coeff-Com: -0.267D-04 0.133D-03-0.365D-03-0.573D-03-0.108D-03 0.380D-02
 Coeff-Com: -0.562D-02 0.387D-02-0.927D-03-0.207D-02 0.201D-02 0.209D-01
 Coeff-Com: -0.318D-01 0.684D-02 0.119D+00-0.421D+00 0.311D+00 0.150D+01
 Coeff-Com: -0.360D+01 0.309D+01
 Coeff:     -0.267D-04 0.133D-03-0.365D-03-0.573D-03-0.108D-03 0.380D-02
 Coeff:     -0.562D-02 0.387D-02-0.927D-03-0.207D-02 0.201D-02 0.209D-01
 Coeff:     -0.318D-01 0.684D-02 0.119D+00-0.421D+00 0.311D+00 0.150D+01
 Coeff:     -0.360D+01 0.309D+01
 Gap=     0.076 Goal=   None    Shift=    0.000
 Gap=     0.362 Goal=   None    Shift=    0.000
 RMSDP=8.16D-04 MaxDP=1.40D-01 DE=-5.58D-10 OVMax= 1.08D-04

 Cycle  27  Pass 1  IDiag  1:
 RMSU=  7.08D-06    CP:  1.00D+00  1.88D+00 -2.03D-01  1.40D+00  1.71D+00
 E= -228.579881662520     Delta-E=       -0.000000000699 Rises=F Damp=F
 DIIS: error= 3.94D-07 at cycle  26 NSaved=  20.
 NSaved=20 IEnMin=20 EnMin= -228.579881662520     IErMin=20 ErrMin= 3.94D-07
 ErrMax= 3.94D-07  0.00D+00 EMaxC= 1.00D-01 BMatC= 2.86D-11 BMatP= 7.66D-11
 IDIUse=1 WtCom= 1.00D+00 WtEn= 0.00D+00
 Coeff-Com: -0.587D-04-0.194D-03 0.657D-03 0.229D-03-0.172D-02 0.112D-02
 Coeff-Com:  0.378D-02 0.145D-02-0.856D-02 0.443D-03 0.898D-02-0.690D-02
 Coeff-Com:  0.242D-02-0.218D-01 0.133D+00-0.328D+00-0.866D-01 0.140D+01
 Coeff-Com: -0.243D+01 0.233D+01
 Coeff:     -0.587D-04-0.194D-03 0.657D-03 0.229D-03-0.172D-02 0.112D-02
 Coeff:      0.378D-02 0.145D-02-0.856D-02 0.443D-03 0.898D-02-0.690D-02
 Coeff:      0.242D-02-0.218D-01 0.133D+00-0.328D+00-0.866D-01 0.140D+01
 Coeff:     -0.243D+01 0.233D+01
 Gap=     0.076 Goal=   None    Shift=    0.000
 Gap=     0.362 Goal=   None    Shift=    0.000
 RMSDP=5.14D-04 MaxDP=8.66D-02 DE=-6.99D-10 OVMax= 7.79D-05

 Cycle  28  Pass 1  IDiag  1:
 RMSU=  2.65D-06    CP:  1.00D+00  1.74D+00 -3.73D-01  1.42D+00  2.00D+00
                    CP: -2.77D-01
 E= -228.579881662772     Delta-E=       -0.000000000252 Rises=F Damp=F
 DIIS: error= 2.45D-07 at cycle  27 NSaved=  20.
 NSaved=20 IEnMin=20 EnMin= -228.579881662772     IErMin=20 ErrMin= 2.45D-07
 ErrMax= 2.45D-07  0.00D+00 EMaxC= 1.00D-01 BMatC= 9.38D-12 BMatP= 2.86D-11
 IDIUse=1 WtCom= 1.00D+00 WtEn= 0.00D+00
 Coeff-Com:  0.255D-03-0.357D-03-0.267D-03 0.480D-03-0.339D-03-0.395D-02
 Coeff-Com:  0.370D-02 0.468D-02-0.378D-02-0.119D-01 0.164D-01-0.573D-02
 Coeff-Com: -0.279D-01 0.695D-01 0.917D-01-0.473D+00 0.375D+00 0.501D+00
 Coeff-Com: -0.157D+01 0.203D+01
 Coeff:      0.255D-03-0.357D-03-0.267D-03 0.480D-03-0.339D-03-0.395D-02
 Coeff:      0.370D-02 0.468D-02-0.378D-02-0.119D-01 0.164D-01-0.573D-02
 Coeff:     -0.279D-01 0.695D-01 0.917D-01-0.473D+00 0.375D+00 0.501D+00
 Coeff:     -0.157D+01 0.203D+01
 Gap=     0.076 Goal=   None    Shift=    0.000
 Gap=     0.362 Goal=   None    Shift=    0.000
 RMSDP=1.13D-04 MaxDP=1.79D-02 DE=-2.52D-10 OVMax= 2.55D-05

 Cycle  29  Pass 1  IDiag  1:
 RMSU=  9.89D-07    CP:  1.00D+00  1.69D+00 -4.15D-01  1.53D+00  1.83D+00
                    CP: -2.01D+00  1.91D+00
 E= -228.579881662740     Delta-E=        0.000000000032 Rises=F Damp=F
 DIIS: error= 1.36D-07 at cycle  28 NSaved=  20.
 NSaved=20 IEnMin=19 EnMin= -228.579881662772     IErMin=20 ErrMin= 1.36D-07
 ErrMax= 1.36D-07  0.00D+00 EMaxC= 1.00D-01 BMatC= 3.49D-12 BMatP= 9.38D-12
 IDIUse=1 WtCom= 1.00D+00 WtEn= 0.00D+00
 Coeff-Com: -0.239D-03 0.158D-03 0.512D-03-0.148D-04-0.502D-03-0.272D-02
 Coeff-Com:  0.494D-02-0.330D-02 0.695D-02-0.861D-02 0.691D-03 0.335D-01
 Coeff-Com: -0.128D+00 0.140D+00 0.284D+00-0.802D+00 0.686D+00-0.221D-01
 Coeff-Com: -0.114D+01 0.195D+01
 Coeff:     -0.239D-03 0.158D-03 0.512D-03-0.148D-04-0.502D-03-0.272D-02
 Coeff:      0.494D-02-0.330D-02 0.695D-02-0.861D-02 0.691D-03 0.335D-01
 Coeff:     -0.128D+00 0.140D+00 0.284D+00-0.802D+00 0.686D+00-0.221D-01
 Coeff:     -0.114D+01 0.195D+01
 Gap=     0.076 Goal=   None    Shift=    0.000
 Gap=     0.362 Goal=   None    Shift=    0.000
 RMSDP=9.29D-05 MaxDP=1.59D-02 DE= 3.19D-11 OVMax= 1.82D-05

 Cycle  30  Pass 1  IDiag  1:
 RMSU=  1.95D-07    CP:  1.00D+00  1.69D+00 -4.56D-01  1.59D+00  1.52D+00
                    CP: -2.43D+00  2.01D+00  1.84D+00
 E= -228.579881662823     Delta-E=       -0.000000000083 Rises=F Damp=F
 DIIS: error= 5.88D-08 at cycle  29 NSaved=  20.
 NSaved=20 IEnMin=20 EnMin= -228.579881662823     IErMin=20 ErrMin= 5.88D-08
 ErrMax= 5.88D-08  0.00D+00 EMaxC= 1.00D-01 BMatC= 9.46D-13 BMatP= 3.49D-12
 IDIUse=1 WtCom= 1.00D+00 WtEn= 0.00D+00
 Coeff-Com:  0.977D-04-0.599D-04-0.591D-03 0.207D-02 0.176D-03-0.351D-02
 Coeff-Com:  0.195D-02 0.852D-03-0.267D-02 0.621D-02-0.179D-01 0.536D-01
 Coeff-Com: -0.983D-01-0.252D-01 0.318D+00-0.496D+00 0.490D+00-0.492D-01
 Coeff-Com: -0.113D+01 0.195D+01
 Coeff:      0.977D-04-0.599D-04-0.591D-03 0.207D-02 0.176D-03-0.351D-02
 Coeff:      0.195D-02 0.852D-03-0.267D-02 0.621D-02-0.179D-01 0.536D-01
 Coeff:     -0.983D-01-0.252D-01 0.318D+00-0.496D+00 0.490D+00-0.492D-01
 Coeff:     -0.113D+01 0.195D+01
 Gap=     0.076 Goal=   None    Shift=    0.000
 Gap=     0.362 Goal=   None    Shift=    0.000
 RMSDP=5.49D-05 MaxDP=9.83D-03 DE=-8.32D-11 OVMax= 9.43D-06

 Cycle  31  Pass 1  IDiag  1:
 RMSU=  6.57D-07    CP:  1.00D+00  1.70D+00 -4.76D-01  1.66D+00  1.78D+00
                    CP: -3.00D+00  2.15D+00  2.04D+00  2.01D+00
 E= -228.579881662798     Delta-E=        0.000000000025 Rises=F Damp=F
 DIIS: error= 2.78D-08 at cycle  30 NSaved=  20.
 NSaved=20 IEnMin=19 EnMin= -228.579881662823     IErMin=20 ErrMin= 2.78D-08
 ErrMax= 2.78D-08  0.00D+00 EMaxC= 1.00D-01 BMatC= 1.61D-13 BMatP= 9.46D-13
 IDIUse=1 WtCom= 1.00D+00 WtEn= 0.00D+00
 Coeff-Com: -0.300D-04 0.181D-03-0.104D-02 0.833D-03 0.688D-03-0.635D-03
 Coeff-Com: -0.164D-02 0.230D-02-0.390D-03-0.649D-02 0.171D-01-0.439D-02
 Coeff-Com: -0.559D-01 0.108D+00-0.571D-01-0.827D-01 0.253D+00-0.221D+00
 Coeff-Com: -0.338D+00 0.139D+01
 Coeff:     -0.300D-04 0.181D-03-0.104D-02 0.833D-03 0.688D-03-0.635D-03
 Coeff:     -0.164D-02 0.230D-02-0.390D-03-0.649D-02 0.171D-01-0.439D-02
 Coeff:     -0.559D-01 0.108D+00-0.571D-01-0.827D-01 0.253D+00-0.221D+00
 Coeff:     -0.338D+00 0.139D+01
 Gap=     0.076 Goal=   None    Shift=    0.000
 Gap=     0.362 Goal=   None    Shift=    0.000
 RMSDP=3.47D-05 MaxDP=5.58D-03 DE= 2.53D-11 OVMax= 8.08D-06

 Cycle  32  Pass 1  IDiag  1:
 RMSU=  2.11D-07    CP:  1.00D+00  1.71D+00 -4.60D-01  1.65D+00  1.94D+00
                    CP: -3.00D+00  2.14D+00  1.99D+00  1.82D+00  5.90D-01
 E= -228.579881662888     Delta-E=       -0.000000000090 Rises=F Damp=F
 DIIS: error= 8.45D-09 at cycle  31 NSaved=  20.
 NSaved=20 IEnMin=20 EnMin= -228.579881662888     IErMin=20 ErrMin= 8.45D-09
 ErrMax= 8.45D-09  0.00D+00 EMaxC= 1.00D-01 BMatC= 3.52D-14 BMatP= 1.61D-13
 IDIUse=1 WtCom= 1.00D+00 WtEn= 0.00D+00
 Coeff-Com:  0.337D-04-0.615D-04-0.122D-04-0.121D-06-0.420D-04 0.277D-03
 Coeff-Com: -0.279D-05-0.733D-03 0.281D-02-0.807D-02 0.183D-01-0.148D-02
 Coeff-Com: -0.582D-01 0.956D-01-0.898D-01-0.122D-02 0.235D+00-0.400D+00
 Coeff-Com:  0.592D-01 0.115D+01
 Coeff:      0.337D-04-0.615D-04-0.122D-04-0.121D-06-0.420D-04 0.277D-03
 Coeff:     -0.279D-05-0.733D-03 0.281D-02-0.807D-02 0.183D-01-0.148D-02
 Coeff:     -0.582D-01 0.956D-01-0.898D-01-0.122D-02 0.235D+00-0.400D+00
 Coeff:      0.592D-01 0.115D+01
 Gap=     0.076 Goal=   None    Shift=    0.000
 Gap=     0.362 Goal=   None    Shift=    0.000
 RMSDP=4.56D-05 MaxDP=7.93D-03 DE=-9.01D-11 OVMax= 5.20D-06

 Cycle  33  Pass 1  IDiag  1:
 RMSU=  2.02D-08    CP:  1.00D+00  1.71D+00 -4.77D-01  1.67D+00  2.03D+00
                    CP: -3.00D+00  2.16D+00  1.81D+00  1.66D+00  5.59D-01
                    CP:  1.05D+00
 E= -228.579881662848     Delta-E=        0.000000000040 Rises=F Damp=F
 DIIS: error= 2.49D-09 at cycle  32 NSaved=  20.
 NSaved=20 IEnMin=19 EnMin= -228.579881662888     IErMin=20 ErrMin= 2.49D-09
 ErrMax= 2.49D-09  0.00D+00 EMaxC= 1.00D-01 BMatC= 4.19D-15 BMatP= 3.52D-14
 IDIUse=1 WtCom= 1.00D+00 WtEn= 0.00D+00
 Large coefficients: NSaved= 20 BigCof=    0.00 CofMax=   10.00 Det=-6.22D-15
 Inversion failed.  Reducing to 19 matrices.
 Large coefficients: NSaved= 19 BigCof=    0.00 CofMax=   10.00 Det=-6.23D-15
 Inversion failed.  Reducing to 18 matrices.
 Large coefficients: NSaved= 18 BigCof=    0.00 CofMax=   10.00 Det=-6.24D-15
 Inversion failed.  Reducing to 17 matrices.
 Large coefficients: NSaved= 17 BigCof=    0.00 CofMax=   10.00 Det=-6.47D-15
 Inversion failed.  Reducing to 16 matrices.
 Large coefficients: NSaved= 16 BigCof=    0.00 CofMax=   10.00 Det=-6.57D-15
 Inversion failed.  Reducing to 15 matrices.
 Coeff-Com: -0.804D-04 0.218D-03-0.500D-03 0.672D-03 0.753D-04-0.466D-02
 Coeff-Com:  0.899D-02-0.962D-02 0.130D-01-0.161D-01-0.525D-02 0.730D-01
 Coeff-Com: -0.183D+00-0.101D+00 0.122D+01
 Coeff:     -0.804D-04 0.218D-03-0.500D-03 0.672D-03 0.753D-04-0.466D-02
 Coeff:      0.899D-02-0.962D-02 0.130D-01-0.161D-01-0.525D-02 0.730D-01
 Coeff:     -0.183D+00-0.101D+00 0.122D+01
 Gap=     0.076 Goal=   None    Shift=    0.000
 Gap=     0.362 Goal=   None    Shift=    0.000
 RMSDP=8.85D-06 MaxDP=1.54D-03 DE= 4.01D-11 OVMax= 8.43D-07

 Cycle  34  Pass 1  IDiag  1:
 RMSU=  1.38D-08    CP:  1.00D+00  1.71D+00 -4.80D-01  1.67D+00  2.07D+00
                    CP: -3.00D+00  2.16D+00  1.71D+00  1.56D+00  3.60D-01
                    CP:  1.28D+00  2.12D+00
 E= -228.579881662840     Delta-E=        0.000000000008 Rises=F Damp=F
 DIIS: error= 1.09D-09 at cycle  33 NSaved=  16.
 NSaved=16 IEnMin=14 EnMin= -228.579881662888     IErMin=16 ErrMin= 1.09D-09
 ErrMax= 1.09D-09  0.00D+00 EMaxC= 1.00D-01 BMatC= 9.68D-16 BMatP= 4.19D-15
 IDIUse=1 WtCom= 1.00D+00 WtEn= 0.00D+00
 Large coefficients: NSaved= 16 BigCof=    0.00 CofMax=   10.00 Det=-1.21D-15
 Inversion failed.  Reducing to 15 matrices.
 Coeff-Com:  0.560D-04-0.367D-03 0.775D-03-0.172D-02 0.182D-02 0.325D-02
 Coeff-Com: -0.967D-02 0.125D-01-0.245D-02-0.309D-01 0.571D-01 0.303D-02
 Coeff-Com: -0.213D+00-0.336D-01 0.121D+01
 Coeff:      0.560D-04-0.367D-03 0.775D-03-0.172D-02 0.182D-02 0.325D-02
 Coeff:     -0.967D-02 0.125D-01-0.245D-02-0.309D-01 0.571D-01 0.303D-02
 Coeff:     -0.213D+00-0.336D-01 0.121D+01
 Gap=     0.076 Goal=   None    Shift=    0.000
 Gap=     0.362 Goal=   None    Shift=    0.000
 RMSDP=4.32D-06 MaxDP=7.38D-04 DE= 8.36D-12 OVMax= 4.82D-07

 Cycle  35  Pass 1  IDiag  1:
 RMSU=  1.03D-09    CP:  1.00D+00  1.71D+00 -4.81D-01  1.67D+00  2.08D+00
                    CP: -3.00D+00  2.17D+00  1.66D+00  1.53D+00  2.37D-01
                    CP:  1.41D+00  2.89D+00  1.74D+00
 E= -228.579881662823     Delta-E=        0.000000000017 Rises=F Damp=F
 DIIS: error= 4.28D-10 at cycle  34 NSaved=  16.
 NSaved=16 IEnMin=13 EnMin= -228.579881662888     IErMin=16 ErrMin= 4.28D-10
 ErrMax= 4.28D-10  0.00D+00 EMaxC= 1.00D-01 BMatC= 1.86D-16 BMatP= 9.68D-16
 IDIUse=1 WtCom= 1.00D+00 WtEn= 0.00D+00
 Large coefficients: NSaved= 16 BigCof=    0.00 CofMax=   10.00 Det=-2.34D-16
 Inversion failed.  Reducing to 15 matrices.
 Coeff-Com:  0.174D-04 0.107D-03-0.140D-03 0.779D-04-0.767D-03 0.271D-02
 Coeff-Com: -0.578D-02 0.761D-02 0.260D-03-0.216D-01 0.464D-01 0.226D-01
 Coeff-Com: -0.243D+00-0.408D-01 0.123D+01
 Coeff:      0.174D-04 0.107D-03-0.140D-03 0.779D-04-0.767D-03 0.271D-02
 Coeff:     -0.578D-02 0.761D-02 0.260D-03-0.216D-01 0.464D-01 0.226D-01
 Coeff:     -0.243D+00-0.408D-01 0.123D+01
 Gap=     0.076 Goal=   None    Shift=    0.000
 Gap=     0.362 Goal=   None    Shift=    0.000
 RMSDP=1.91D-06 MaxDP=3.21D-04 DE= 1.72D-11 OVMax= 2.55D-07

 Cycle  36  Pass 1  IDiag  1:
 RMSU=  3.31D-09    CP:  1.00D+00  1.71D+00 -4.82D-01  1.68D+00  2.09D+00
                    CP: -3.00D+00  2.17D+00  1.63D+00  1.53D+00  2.81D-01
                    CP:  1.33D+00  3.00D+00  1.77D+00  2.00D+00
 E= -228.579881662834     Delta-E=       -0.000000000012 Rises=F Damp=F
 DIIS: error= 2.45D-10 at cycle  35 NSaved=  16.
 NSaved=16 IEnMin=12 EnMin= -228.579881662888     IErMin=16 ErrMin= 2.45D-10
 ErrMax= 2.45D-10  0.00D+00 EMaxC= 1.00D-01 BMatC= 3.83D-17 BMatP= 1.86D-16
 IDIUse=1 WtCom= 1.00D+00 WtEn= 0.00D+00
 Large coefficients: NSaved= 16 BigCof=    0.00 CofMax=   10.00 Det=-2.96D-17
 Inversion failed.  Reducing to 15 matrices.
 Coeff-Com:  0.103D-04-0.103D-04 0.850D-05-0.198D-03 0.130D-03 0.337D-03
 Coeff-Com: -0.988D-03 0.205D-02-0.171D-02-0.946D-02 0.268D-01 0.477D-01
 Coeff-Com: -0.161D+00-0.247D+00 0.134D+01
 Coeff:      0.103D-04-0.103D-04 0.850D-05-0.198D-03 0.130D-03 0.337D-03
 Coeff:     -0.988D-03 0.205D-02-0.171D-02-0.946D-02 0.268D-01 0.477D-01
 Coeff:     -0.161D+00-0.247D+00 0.134D+01
 Gap=     0.076 Goal=   None    Shift=    0.000
 Gap=     0.362 Goal=   None    Shift=    0.000
 RMSDP=7.81D-07 MaxDP=1.36D-04 DE=-1.19D-11 OVMax= 1.12D-07

 Cycle  37  Pass 1  IDiag  1:
 RMSU=  4.02D-10    CP:  1.00D+00  1.71D+00 -4.82D-01  1.68D+00  2.09D+00
                    CP: -3.00D+00  2.17D+00  1.63D+00  1.54D+00  2.99D-01
                    CP:  1.30D+00  3.00D+00  1.74D+00  2.44D+00  1.34D+00
 E= -228.579881662813     Delta-E=        0.000000000021 Rises=F Damp=F
 DIIS: error= 2.26D-10 at cycle  36 NSaved=  16.
 NSaved=16 IEnMin=11 EnMin= -228.579881662888     IErMin=16 ErrMin= 2.26D-10
 ErrMax= 2.26D-10  0.00D+00 EMaxC= 1.00D-01 BMatC= 1.05D-17 BMatP= 3.83D-17
 IDIUse=1 WtCom= 1.00D+00 WtEn= 0.00D+00
 Large coefficients: NSaved= 16 BigCof=    0.00 CofMax=   10.00 Det=-5.03D-18
 Inversion failed.  Reducing to 15 matrices.
 Coeff-Com: -0.890D-04 0.835D-04 0.367D-03-0.797D-03 0.101D-02-0.113D-02
 Coeff-Com: -0.188D-03 0.394D-02-0.745D-02-0.626D-02 0.413D-01 0.120D-01
 Coeff-Com: -0.166D+00-0.103D+00 0.123D+01
 Coeff:     -0.890D-04 0.835D-04 0.367D-03-0.797D-03 0.101D-02-0.113D-02
 Coeff:     -0.188D-03 0.394D-02-0.745D-02-0.626D-02 0.413D-01 0.120D-01
 Coeff:     -0.166D+00-0.103D+00 0.123D+01
 Gap=     0.076 Goal=   None    Shift=    0.000
 Gap=     0.362 Goal=   None    Shift=    0.000
 RMSDP=5.32D-07 MaxDP=9.16D-05 DE= 2.11D-11 OVMax= 6.51D-08

 Cycle  38  Pass 1  IDiag  1:
 RMSU=  2.04D-10    CP:  1.00D+00  1.71D+00 -4.82D-01  1.68D+00  2.09D+00
                    CP: -3.00D+00  2.17D+00  1.63D+00  1.54D+00  2.96D-01
                    CP:  1.31D+00  3.00D+00  1.73D+00  2.60D+00  1.33D+00
                    CP:  1.23D+00
 E= -228.579881662847     Delta-E=       -0.000000000034 Rises=F Damp=F
 DIIS: error= 1.89D-10 at cycle  37 NSaved=  16.
 NSaved=16 IEnMin=10 EnMin= -228.579881662888     IErMin=16 ErrMin= 1.89D-10
 ErrMax= 1.89D-10  0.00D+00 EMaxC= 1.00D-01 BMatC= 6.27D-18 BMatP= 1.05D-17
 IDIUse=1 WtCom= 1.00D+00 WtEn= 0.00D+00
 Large coefficients: NSaved= 16 BigCof=    0.00 CofMax=   10.00 Det=-1.08D-18
 Inversion failed.  Reducing to 15 matrices.
 Coeff-Com: -0.786D-05 0.695D-05 0.149D-05-0.421D-04 0.127D-03-0.578D-04
 Coeff-Com: -0.183D-03 0.223D-03-0.407D-03-0.290D-02 0.417D-02 0.776D-01
 Coeff-Com: -0.210D+00-0.306D+00 0.144D+01
 Coeff:     -0.786D-05 0.695D-05 0.149D-05-0.421D-04 0.127D-03-0.578D-04
 Coeff:     -0.183D-03 0.223D-03-0.407D-03-0.290D-02 0.417D-02 0.776D-01
 Coeff:     -0.210D+00-0.306D+00 0.144D+01
 Gap=     0.076 Goal=   None    Shift=    0.000
 Gap=     0.362 Goal=   None    Shift=    0.000
 RMSDP=4.25D-07 MaxDP=7.25D-05 DE=-3.42D-11 OVMax= 5.44D-08

 Cycle  39  Pass 1  IDiag  1:
 RMSU=  2.43D-10    CP:  1.00D+00  1.71D+00 -4.82D-01  1.68D+00  2.09D+00
                    CP: -3.00D+00  2.17D+00  1.63D+00  1.54D+00  2.89D-01
                    CP:  1.32D+00  3.00D+00  1.74D+00  2.58D+00  1.25D+00
                    CP:  1.17D+00  1.68D+00
 E= -228.579881662906     Delta-E=       -0.000000000058 Rises=F Damp=F
 DIIS: error= 1.73D-10 at cycle  38 NSaved=  16.
 NSaved=16 IEnMin=16 EnMin= -228.579881662906     IErMin=16 ErrMin= 1.73D-10
 ErrMax= 1.73D-10  0.00D+00 EMaxC= 1.00D-01 BMatC= 4.63D-18 BMatP= 6.27D-18
 IDIUse=1 WtCom= 1.00D+00 WtEn= 0.00D+00
 Large coefficients: NSaved= 16 BigCof=    0.00 CofMax=   10.00 Det=-2.06D-19
 Inversion failed.  Reducing to 15 matrices.
 Coeff-Com:  0.168D-04-0.611D-04 0.711D-04-0.141D-04-0.582D-04-0.559D-04
 Coeff-Com: -0.838D-04 0.144D-02 0.177D-02-0.231D-01 0.355D-02 0.194D+00
 Coeff-Com: -0.300D+00-0.588D+00 0.171D+01
 Coeff:      0.168D-04-0.611D-04 0.711D-04-0.141D-04-0.582D-04-0.559D-04
 Coeff:     -0.838D-04 0.144D-02 0.177D-02-0.231D-01 0.355D-02 0.194D+00
 Coeff:     -0.300D+00-0.588D+00 0.171D+01
 Gap=     0.076 Goal=   None    Shift=    0.000
 Gap=     0.362 Goal=   None    Shift=    0.000
 RMSDP=1.73D-07 MaxDP=2.94D-05 DE=-5.83D-11 OVMax= 2.15D-08

 Cycle  40  Pass 1  IDiag  1:
 RMSU=  2.06D-10    CP:  1.00D+00  1.71D+00 -4.82D-01  1.68D+00  2.09D+00
                    CP: -3.00D+00  2.16D+00  1.63D+00  1.54D+00  2.76D-01
                    CP:  1.34D+00  3.00D+00  1.78D+00  2.56D+00  1.23D+00
                    CP:  5.64D-01  2.22D+00  1.72D+00
 E= -228.579881662879     Delta-E=        0.000000000026 Rises=F Damp=F
 DIIS: error= 1.51D-10 at cycle  39 NSaved=  16.
 NSaved=16 IEnMin=15 EnMin= -228.579881662906     IErMin=16 ErrMin= 1.51D-10
 ErrMax= 1.51D-10  0.00D+00 EMaxC= 1.00D-01 BMatC= 3.86D-18 BMatP= 4.63D-18
 IDIUse=1 WtCom= 1.00D+00 WtEn= 0.00D+00
 Large coefficients: NSaved= 16 BigCof=    0.00 CofMax=   10.00 Det=-8.61D-20
 Inversion failed.  Reducing to 15 matrices.
 Coeff-Com:  0.250D-04-0.157D-04-0.908D-04 0.719D-04 0.654D-03-0.174D-02
 Coeff-Com: -0.310D-02 0.189D-01 0.335D-03-0.854D-01 0.637D-01 0.419D+00
 Coeff-Com: -0.712D+00-0.101D+01 0.231D+01
 Coeff:      0.250D-04-0.157D-04-0.908D-04 0.719D-04 0.654D-03-0.174D-02
 Coeff:     -0.310D-02 0.189D-01 0.335D-03-0.854D-01 0.637D-01 0.419D+00
 Coeff:     -0.712D+00-0.101D+01 0.231D+01
 Gap=     0.076 Goal=   None    Shift=    0.000
 Gap=     0.362 Goal=   None    Shift=    0.000
 RMSDP=6.30D-08 MaxDP=1.05D-05 DE= 2.64D-11 OVMax= 1.01D-08

 Cycle  41  Pass 1  IDiag  1:
 RMSU=  1.08D-10    CP:  1.00D+00  1.71D+00 -4.81D-01  1.68D+00  2.09D+00
                    CP: -3.00D+00  2.16D+00  1.63D+00  1.54D+00  2.63D-01
                    CP:  1.36D+00  3.00D+00  1.82D+00  2.43D+00  1.24D+00
                    CP:  2.17D-01  1.67D+00  2.37D+00  2.71D+00
 E= -228.579881662831     Delta-E=        0.000000000048 Rises=F Damp=F
 DIIS: error= 1.34D-10 at cycle  40 NSaved=  16.
 NSaved=16 IEnMin=14 EnMin= -228.579881662906     IErMin=16 ErrMin= 1.34D-10
 ErrMax= 1.34D-10  0.00D+00 EMaxC= 1.00D-01 BMatC= 3.00D-18 BMatP= 3.86D-18
 IDIUse=1 WtCom= 1.00D+00 WtEn= 0.00D+00
 Large coefficients: NSaved= 16 BigCof=    0.00 CofMax=   10.00 Det=-4.64D-20
 Inversion failed.  Reducing to 15 matrices.
 Coeff-Com:  0.103D-04 0.870D-06-0.671D-05 0.452D-04-0.148D-03-0.159D-02
 Coeff-Com:  0.480D-02 0.892D-02-0.520D-02-0.160D+00 0.152D+00 0.692D+00
 Coeff-Com: -0.779D+00-0.161D+01 0.269D+01
 Coeff:      0.103D-04 0.870D-06-0.671D-05 0.452D-04-0.148D-03-0.159D-02
 Coeff:      0.480D-02 0.892D-02-0.520D-02-0.160D+00 0.152D+00 0.692D+00
 Coeff:     -0.779D+00-0.161D+01 0.269D+01
 Gap=     0.076 Goal=   None    Shift=    0.000
 Gap=     0.362 Goal=   None    Shift=    0.000
 RMSDP=2.04D-08 MaxDP=2.79D-06 DE= 4.80D-11 OVMax= 1.17D-08

 Cycle  42  Pass 1  IDiag  1:
 Restarting incremental Fock formation.
 E= -228.579881662922     Delta-E=       -0.000000000091 Rises=F Damp=F
 DIIS: error= 3.76D-10 at cycle  41 NSaved=  16.
 NSaved=16 IEnMin=16 EnMin= -228.579881662922     IErMin=15 ErrMin= 1.34D-10
 ErrMax= 3.76D-10  0.00D+00 EMaxC= 1.00D-01 BMatC= 3.25D-17 BMatP= 3.00D-18
 IDIUse=1 WtCom= 1.00D+00 WtEn= 0.00D+00
 Large coefficients: NSaved= 16 BigCof=    0.00 CofMax=   10.00 Det=-8.21D-20
 Inversion failed.  Reducing to 15 matrices.
 Coeff-Com:  0.258D-04-0.102D-04-0.211D-04-0.302D-04-0.146D-02 0.408D-02
 Coeff-Com:  0.858D-02-0.181D-02-0.161D+00 0.138D+00 0.709D+00-0.735D+00
 Coeff-Com: -0.170D+01 0.274D+01-0.782D-02
 Coeff:      0.258D-04-0.102D-04-0.211D-04-0.302D-04-0.146D-02 0.408D-02
 Coeff:      0.858D-02-0.181D-02-0.161D+00 0.138D+00 0.709D+00-0.735D+00
 Coeff:     -0.170D+01 0.274D+01-0.782D-02
 Gap=     0.076 Goal=   None    Shift=    0.000
 Gap=     0.362 Goal=   None    Shift=    0.000
 RMSDP=8.13D-09 MaxDP=1.39D-06 DE=-9.07D-11 OVMax= 3.15D-10

 Cycle  43  Pass 1  IDiag  1:
 RMSU=  1.88D-09    CP:  1.00D+00
 E= -228.579881662957     Delta-E=       -0.000000000035 Rises=F Damp=F
 DIIS: error= 3.78D-10 at cycle  42 NSaved=  16.
 NSaved=16 IEnMin=16 EnMin= -228.579881662957     IErMin=14 ErrMin= 1.34D-10
 ErrMax= 3.78D-10  0.00D+00 EMaxC= 1.00D-01 BMatC= 3.28D-17 BMatP= 3.00D-18
 IDIUse=1 WtCom= 1.00D+00 WtEn= 0.00D+00
 Large coefficients: NSaved= 16 BigCof=    0.00 CofMax=   10.00 Det=-7.71D-21
 Inversion failed.  Reducing to 15 matrices.
 Coeff-Com:  0.236D-04-0.414D-04-0.126D-04-0.141D-02 0.397D-02 0.832D-02
 Coeff-Com: -0.128D-02-0.160D+00 0.135D+00 0.712D+00-0.723D+00-0.172D+01
 Coeff-Com:  0.275D+01-0.245D+00 0.235D+00
 Coeff:      0.236D-04-0.414D-04-0.126D-04-0.141D-02 0.397D-02 0.832D-02
 Coeff:     -0.128D-02-0.160D+00 0.135D+00 0.712D+00-0.723D+00-0.172D+01
 Coeff:      0.275D+01-0.245D+00 0.235D+00
 Gap=     0.076 Goal=   None    Shift=    0.000
 Gap=     0.362 Goal=   None    Shift=    0.000
 RMSDP=2.37D-09 MaxDP=4.07D-07 DE=-3.51D-11 OVMax= 1.23D-10

 SCF Done:  E(UHF) =  -228.579881663     A.U. after   43 cycles
            NFock= 43  Conv=0.24D-08     -V/T= 2.0011
 <Sx>= 0.0000 <Sy>= 0.0000 <Sz>= 0.5000 <S**2>= 0.7505 S= 0.5002
 <L.S>= 0.000000000000E+00
 KE= 2.283343480061D+02 PE=-8.254503090778D+02 EE= 2.252552281401D+02
 Annihilation of the first spin contaminant:
 S**2 before annihilation     0.7505,   after     0.7500
 Leave Link  502 at Sat Mar  9 15:04:46 2019, MaxMem=    33554432 cpu:      1816.0
 (Enter /home/proyectos/fulerenos/M3C-v2.0/M3C-deps_CCC/g09-AM64L-G09RevC.01/l801.exe)
 Windowed orbitals will be sorted by symmetry type.
 ExpMin= 3.60D-02 ExpMax= 8.59D+03 ExpMxC= 1.30D+03 IAcc=3 IRadAn=         5 AccDes= 0.00D+00
 HarFok:  IExCor=  205 AccDes= 0.00D+00 IRadAn=         5 IDoV=-2 UseB2=F ITyADJ=14
 ICtDFT= 12500011 ScaDFX=  1.000000  1.000000  1.000000  1.000000
 Largest valence mixing into a core orbital is  1.39D-04
 Largest core mixing into a valence orbital is  4.96D-05
 Largest valence mixing into a core orbital is  1.39D-04
 Largest core mixing into a valence orbital is  4.93D-05
 Range of M.O.s used for correlation:     6   235
 NBasis=   235 NAE=    19 NBE=    18 NFC=     5 NFV=     0
 NROrb=    230 NOA=    14 NOB=    13 NVA=   216 NVB=   217

 **** Warning!!: The largest alpha MO coefficient is  0.10205559D+03


 **** Warning!!: The smallest alpha delta epsilon is  0.75755607D-01


 **** Warning!!: The largest beta MO coefficient is  0.10996481D+03

 Leave Link  801 at Sat Mar  9 15:04:47 2019, MaxMem=    33554432 cpu:         1.2
 (Enter /home/proyectos/fulerenos/M3C-v2.0/M3C-deps_CCC/g09-AM64L-G09RevC.01/l804.exe)
 Open-shell transformation, MDV=    33554432 ITran=4 ISComp=1.
 Semi-Direct transformation.
 ModeAB=           4 MOrb=            14 LenV=      31938580
 LASXX=     81754246 LTotXX=    81754246 LenRXX=   164876131
 LTotAB=    83121885 MaxLAS=   111151180 LenRXY=           0
 NonZer=   246630377 LenScr=   374639616 LnRSAI=   111151180
 LnScr1=   169767936 LExtra=           0 Total=    820434863
 MaxDsk=          -1 SrtSym=           T ITran=            4
 DoSDTr:  NPSUse=  4
 JobTyp=1 Pass  1:  I=   1 to  14.
 Complete sort for first half transformation.
 First half transformation complete.
 Begin second half transformation for I=  10.
 Complete sort for second half transformation.
 Second half transformation complete.
 ModeAB=           4 MOrb=            13 LenV=      31938580
 LASXX=     76122124 LTotXX=    76122124 LenRXX=   144367756
 LTotAB=    68245632 MaxLAS=   103211810 LenRXY=           0
 NonZer=   220489880 LenScr=   334620672 LnRSAI=   103211810
 LnScr1=   157928448 LExtra=           0 Total=    740128686
 MaxDsk=          -1 SrtSym=           T ITran=            4
 DoSDTr:  NPSUse=  4
 JobTyp=2 Pass  1:  I=   1 to  13.
 Complete sort for first half transformation.
 First half transformation complete.
 Begin second half transformation for I=  10.
 Complete sort for second half transformation.
 Second half transformation complete.
 SymMOI:  orbitals are not symmetric.
 Spin components of T(2) and E(2):
     alpha-alpha T2 =       0.3743899627D-01 E2=     -0.1080671510D+00
     alpha-beta  T2 =       0.2048225554D+00 E2=     -0.6439501869D+00
     beta-beta   T2 =       0.3476098809D-01 E2=     -0.1051534750D+00
 ANorm=    0.1130054220D+01
 E2 =    -0.8571708128D+00 EUMP2 =    -0.22943705247578D+03
 (S**2,0)=  0.75047D+00           (S**2,1)=  0.75019D+00
 E(PUHF)=      -0.22857992141D+03        E(PMP2)=      -0.22943708052D+03
 Leave Link  804 at Sat Mar  9 15:09:52 2019, MaxMem=    33554432 cpu:      1220.9
 (Enter /home/proyectos/fulerenos/M3C-v2.0/M3C-deps_CCC/g09-AM64L-G09RevC.01/l913.exe)
 CIDS:  MDV=    33554432.
 Frozen-core window:  NFC=   5 NFV=   0.
 IFCWin=0 IBDFC=1 NFBD=     0     0 NFCmp=     0     0 NFFFC=     0     0
 Using original routines for 1st iteration, S=T.
 Using DD4UQ or CC4UQ for 2nd and later iterations.
 Would need an additional       744838907 words for in-memory AO integral storage.
 CCSD(T)
 =======
 Iterations= 200 Convergence= 0.100D-06
 Iteration Nr.   1
 **********************
 DD1Dir will call FoFJK  10 times, MxPair=        54
 NAB=   182 NAA=    91 NBB=    78 NumPrc=  4.
 DD1Dir:  Pass   1 NRAB=    27 NRAA=     0 NRBB=     0 NR=    54.
 FoFJK:  IHMeth= 1 ICntrl=     200 DoSepK=F KAlg= 0 I1Cent=   0 FoldK=F
 IRaf= 990000000 NMat=  54 IRICut=      67 DoRegI=T DoRafI=T ISym2E= 2.
 FoFCou: FMM=F IPFlag=           0 FMFlag=      100000 FMFlg1=           0
         NFxFlg=           0 DoJE=F BraDBF=F KetDBF=F FulRan=T
         wScrn=  0.000000 ICntrl=     200 IOpCl=  0 I1Cent=           0 NGrid=           0
         NMat0=   54 NMatS0=      0 NMatT0=   27 NMatD0=   54 NMtDS0=    0 NMtDT0=    0
 Integrals replicated using symmetry in FoFCou.
 DD1Dir:  Pass   2 NRAB=    27 NRAA=     0 NRBB=     0 NR=    54.
 DD1Dir:  Pass   3 NRAB=    27 NRAA=     0 NRBB=     0 NR=    54.
 DD1Dir:  Pass   4 NRAB=    27 NRAA=     0 NRBB=     0 NR=    54.
 DD1Dir:  Pass   5 NRAB=    27 NRAA=     0 NRBB=     0 NR=    54.
 DD1Dir:  Pass   6 NRAB=    27 NRAA=     0 NRBB=     0 NR=    54.
 DD1Dir:  Pass   7 NRAB=    20 NRAA=    14 NRBB=     0 NR=    54.
 DD1Dir:  Pass   8 NRAB=     0 NRAA=    54 NRBB=     0 NR=    54.
 DD1Dir:  Pass   9 NRAB=     0 NRAA=    23 NRBB=    31 NR=    54.
 DD1Dir:  Pass  10 NRAB=     0 NRAA=     0 NRBB=    47 NR=    47.
 E(PMP3)=      -0.22945383901D+03
 MP4(R+Q)=  0.23926109D-01
 Maximum subspace dimension=  5
 Norm of the A-vectors is  1.3510848D+00 conv= 1.00D-05.
 RLE energy=       -0.8496470322
 E3=       -0.16769319D-01        EUMP3=      -0.22945382179D+03
 E4(DQ)=    0.34049583D-02        UMP4(DQ)=   -0.22945041684D+03
 E4(SDQ)=  -0.70729200D-02        UMP4(SDQ)=  -0.22946089471D+03
 VARIATIONAL ENERGIES WITH THE FIRST-ORDER WAVEFUNCTION:
 DE(Corr)= -0.84958063     E(Corr)=     -229.42946229    
 NORM(A)=   0.11325677D+01
 Iteration Nr.   2
 **********************
 DD1Dir will call FoFJK  10 times, MxPair=        54
 NAB=   182 NAA=    91 NBB=    78 NumPrc=  4.
 DD1Dir:  Pass   1 NRAB=    27 NRAA=     0 NRBB=     0 NR=    54.
 DD1Dir:  Pass   2 NRAB=    27 NRAA=     0 NRBB=     0 NR=    54.
 DD1Dir:  Pass   3 NRAB=    27 NRAA=     0 NRBB=     0 NR=    54.
 DD1Dir:  Pass   4 NRAB=    27 NRAA=     0 NRBB=     0 NR=    54.
 DD1Dir:  Pass   5 NRAB=    27 NRAA=     0 NRBB=     0 NR=    54.
 DD1Dir:  Pass   6 NRAB=    27 NRAA=     0 NRBB=     0 NR=    54.
 DD1Dir:  Pass   7 NRAB=    20 NRAA=    14 NRBB=     0 NR=    54.
 DD1Dir:  Pass   8 NRAB=     0 NRAA=    54 NRBB=     0 NR=    54.
 DD1Dir:  Pass   9 NRAB=     0 NRAA=    23 NRBB=    31 NR=    54.
 DD1Dir:  Pass  10 NRAB=     0 NRAA=     0 NRBB=    47 NR=    47.
 Norm of the A-vectors is  5.1631425D-01 conv= 1.00D-05.
 RLE energy=       -0.8777941901
 DE(Corr)= -0.87621702     E(CORR)=     -229.45609868     Delta=-2.66D-02
 NORM(A)=   0.11464758D+01
 Iteration Nr.   3
 **********************
 DD1Dir will call FoFJK  10 times, MxPair=        54
 NAB=   182 NAA=    91 NBB=    78 NumPrc=  4.
 DD1Dir:  Pass   1 NRAB=    27 NRAA=     0 NRBB=     0 NR=    54.
 DD1Dir:  Pass   2 NRAB=    27 NRAA=     0 NRBB=     0 NR=    54.
 DD1Dir:  Pass   3 NRAB=    27 NRAA=     0 NRBB=     0 NR=    54.
 DD1Dir:  Pass   4 NRAB=    27 NRAA=     0 NRBB=     0 NR=    54.
 DD1Dir:  Pass   5 NRAB=    27 NRAA=     0 NRBB=     0 NR=    54.
 DD1Dir:  Pass   6 NRAB=    27 NRAA=     0 NRBB=     0 NR=    54.
 DD1Dir:  Pass   7 NRAB=    20 NRAA=    14 NRBB=     0 NR=    54.
 DD1Dir:  Pass   8 NRAB=     0 NRAA=    54 NRBB=     0 NR=    54.
 DD1Dir:  Pass   9 NRAB=     0 NRAA=    23 NRBB=    31 NR=    54.
 DD1Dir:  Pass  10 NRAB=     0 NRAA=     0 NRBB=    47 NR=    47.
 Norm of the A-vectors is  1.6603374D-01 conv= 1.00D-05.
 RLE energy=       -0.8794756150
 DE(Corr)= -0.87686544     E(CORR)=     -229.45674711     Delta=-6.48D-04
 NORM(A)=   0.11536545D+01
 Iteration Nr.   4
 **********************
 DD1Dir will call FoFJK  10 times, MxPair=        54
 NAB=   182 NAA=    91 NBB=    78 NumPrc=  4.
 DD1Dir:  Pass   1 NRAB=    27 NRAA=     0 NRBB=     0 NR=    54.
 DD1Dir:  Pass   2 NRAB=    27 NRAA=     0 NRBB=     0 NR=    54.
 DD1Dir:  Pass   3 NRAB=    27 NRAA=     0 NRBB=     0 NR=    54.
 DD1Dir:  Pass   4 NRAB=    27 NRAA=     0 NRBB=     0 NR=    54.
 DD1Dir:  Pass   5 NRAB=    27 NRAA=     0 NRBB=     0 NR=    54.
 DD1Dir:  Pass   6 NRAB=    27 NRAA=     0 NRBB=     0 NR=    54.
 DD1Dir:  Pass   7 NRAB=    20 NRAA=    14 NRBB=     0 NR=    54.
 DD1Dir:  Pass   8 NRAB=     0 NRAA=    54 NRBB=     0 NR=    54.
 DD1Dir:  Pass   9 NRAB=     0 NRAA=    23 NRBB=    31 NR=    54.
 DD1Dir:  Pass  10 NRAB=     0 NRAA=     0 NRBB=    47 NR=    47.
 Norm of the A-vectors is  8.5878584D-02 conv= 1.00D-05.
 RLE energy=       -0.8800166854
 DE(Corr)= -0.87961398     E(CORR)=     -229.45949565     Delta=-2.75D-03
 NORM(A)=   0.11604523D+01
 Iteration Nr.   5
 **********************
 DD1Dir will call FoFJK  10 times, MxPair=        54
 NAB=   182 NAA=    91 NBB=    78 NumPrc=  4.
 DD1Dir:  Pass   1 NRAB=    27 NRAA=     0 NRBB=     0 NR=    54.
 DD1Dir:  Pass   2 NRAB=    27 NRAA=     0 NRBB=     0 NR=    54.
 DD1Dir:  Pass   3 NRAB=    27 NRAA=     0 NRBB=     0 NR=    54.
 DD1Dir:  Pass   4 NRAB=    27 NRAA=     0 NRBB=     0 NR=    54.
 DD1Dir:  Pass   5 NRAB=    27 NRAA=     0 NRBB=     0 NR=    54.
 DD1Dir:  Pass   6 NRAB=    27 NRAA=     0 NRBB=     0 NR=    54.
 DD1Dir:  Pass   7 NRAB=    20 NRAA=    14 NRBB=     0 NR=    54.
 DD1Dir:  Pass   8 NRAB=     0 NRAA=    54 NRBB=     0 NR=    54.
 DD1Dir:  Pass   9 NRAB=     0 NRAA=    23 NRBB=    31 NR=    54.
 DD1Dir:  Pass  10 NRAB=     0 NRAA=     0 NRBB=    47 NR=    47.
 Norm of the A-vectors is  3.9605379D-02 conv= 1.00D-05.
 RLE energy=       -0.8807029669
 DE(Corr)= -0.88018059     E(CORR)=     -229.46006225     Delta=-5.67D-04
 NORM(A)=   0.11737748D+01
 Iteration Nr.   6
 **********************
 DD1Dir will call FoFJK  10 times, MxPair=        54
 NAB=   182 NAA=    91 NBB=    78 NumPrc=  4.
 DD1Dir:  Pass   1 NRAB=    27 NRAA=     0 NRBB=     0 NR=    54.
 DD1Dir:  Pass   2 NRAB=    27 NRAA=     0 NRBB=     0 NR=    54.
 DD1Dir:  Pass   3 NRAB=    27 NRAA=     0 NRBB=     0 NR=    54.
 DD1Dir:  Pass   4 NRAB=    27 NRAA=     0 NRBB=     0 NR=    54.
 DD1Dir:  Pass   5 NRAB=    27 NRAA=     0 NRBB=     0 NR=    54.
 DD1Dir:  Pass   6 NRAB=    27 NRAA=     0 NRBB=     0 NR=    54.
 DD1Dir:  Pass   7 NRAB=    20 NRAA=    14 NRBB=     0 NR=    54.
 DD1Dir:  Pass   8 NRAB=     0 NRAA=    54 NRBB=     0 NR=    54.
 DD1Dir:  Pass   9 NRAB=     0 NRAA=    23 NRBB=    31 NR=    54.
 DD1Dir:  Pass  10 NRAB=     0 NRAA=     0 NRBB=    47 NR=    47.
 Norm of the A-vectors is  3.8779794D-02 conv= 1.00D-05.
 RLE energy=       -0.8802999029
 DE(Corr)= -0.88049064     E(CORR)=     -229.46037231     Delta=-3.10D-04
 NORM(A)=   0.11940087D+01
 Iteration Nr.   7
 **********************
 DD1Dir will call FoFJK  10 times, MxPair=        54
 NAB=   182 NAA=    91 NBB=    78 NumPrc=  4.
 DD1Dir:  Pass   1 NRAB=    27 NRAA=     0 NRBB=     0 NR=    54.
 DD1Dir:  Pass   2 NRAB=    27 NRAA=     0 NRBB=     0 NR=    54.
 DD1Dir:  Pass   3 NRAB=    27 NRAA=     0 NRBB=     0 NR=    54.
 DD1Dir:  Pass   4 NRAB=    27 NRAA=     0 NRBB=     0 NR=    54.
 DD1Dir:  Pass   5 NRAB=    27 NRAA=     0 NRBB=     0 NR=    54.
 DD1Dir:  Pass   6 NRAB=    27 NRAA=     0 NRBB=     0 NR=    54.
 DD1Dir:  Pass   7 NRAB=    20 NRAA=    14 NRBB=     0 NR=    54.
 DD1Dir:  Pass   8 NRAB=     0 NRAA=    54 NRBB=     0 NR=    54.
 DD1Dir:  Pass   9 NRAB=     0 NRAA=    23 NRBB=    31 NR=    54.
 DD1Dir:  Pass  10 NRAB=     0 NRAA=     0 NRBB=    47 NR=    47.
 Norm of the A-vectors is  3.4521610D-02 conv= 1.00D-05.
 RLE energy=       -0.8806969385
 DE(Corr)= -0.88073843     E(CORR)=     -229.46062009     Delta=-2.48D-04
 NORM(A)=   0.12093464D+01
 Iteration Nr.   8
 **********************
 DD1Dir will call FoFJK  10 times, MxPair=        54
 NAB=   182 NAA=    91 NBB=    78 NumPrc=  4.
 DD1Dir:  Pass   1 NRAB=    27 NRAA=     0 NRBB=     0 NR=    54.
 DD1Dir:  Pass   2 NRAB=    27 NRAA=     0 NRBB=     0 NR=    54.
 DD1Dir:  Pass   3 NRAB=    27 NRAA=     0 NRBB=     0 NR=    54.
 DD1Dir:  Pass   4 NRAB=    27 NRAA=     0 NRBB=     0 NR=    54.
 DD1Dir:  Pass   5 NRAB=    27 NRAA=     0 NRBB=     0 NR=    54.
 DD1Dir:  Pass   6 NRAB=    27 NRAA=     0 NRBB=     0 NR=    54.
 DD1Dir:  Pass   7 NRAB=    20 NRAA=    14 NRBB=     0 NR=    54.
 DD1Dir:  Pass   8 NRAB=     0 NRAA=    54 NRBB=     0 NR=    54.
 DD1Dir:  Pass   9 NRAB=     0 NRAA=    23 NRBB=    31 NR=    54.
 DD1Dir:  Pass  10 NRAB=     0 NRAA=     0 NRBB=    47 NR=    47.
 Norm of the A-vectors is  1.9123358D-02 conv= 1.00D-05.
 RLE energy=       -0.8806930530
 DE(Corr)= -0.88072348     E(CORR)=     -229.46060514     Delta= 1.49D-05
 NORM(A)=   0.12153894D+01
 Iteration Nr.   9
 **********************
 DD1Dir will call FoFJK  10 times, MxPair=        54
 NAB=   182 NAA=    91 NBB=    78 NumPrc=  4.
 DD1Dir:  Pass   1 NRAB=    27 NRAA=     0 NRBB=     0 NR=    54.
 DD1Dir:  Pass   2 NRAB=    27 NRAA=     0 NRBB=     0 NR=    54.
 DD1Dir:  Pass   3 NRAB=    27 NRAA=     0 NRBB=     0 NR=    54.
 DD1Dir:  Pass   4 NRAB=    27 NRAA=     0 NRBB=     0 NR=    54.
 DD1Dir:  Pass   5 NRAB=    27 NRAA=     0 NRBB=     0 NR=    54.
 DD1Dir:  Pass   6 NRAB=    27 NRAA=     0 NRBB=     0 NR=    54.
 DD1Dir:  Pass   7 NRAB=    20 NRAA=    14 NRBB=     0 NR=    54.
 DD1Dir:  Pass   8 NRAB=     0 NRAA=    54 NRBB=     0 NR=    54.
 DD1Dir:  Pass   9 NRAB=     0 NRAA=    23 NRBB=    31 NR=    54.
 DD1Dir:  Pass  10 NRAB=     0 NRAA=     0 NRBB=    47 NR=    47.
 Norm of the A-vectors is  1.4213137D-02 conv= 1.00D-05.
 RLE energy=       -0.8808260264
 DE(Corr)= -0.88081297     E(CORR)=     -229.46069463     Delta=-8.95D-05
 NORM(A)=   0.12189945D+01
 Iteration Nr.  10
 **********************
 DD1Dir will call FoFJK  10 times, MxPair=        54
 NAB=   182 NAA=    91 NBB=    78 NumPrc=  4.
 DD1Dir:  Pass   1 NRAB=    27 NRAA=     0 NRBB=     0 NR=    54.
 DD1Dir:  Pass   2 NRAB=    27 NRAA=     0 NRBB=     0 NR=    54.
 DD1Dir:  Pass   3 NRAB=    27 NRAA=     0 NRBB=     0 NR=    54.
 DD1Dir:  Pass   4 NRAB=    27 NRAA=     0 NRBB=     0 NR=    54.
 DD1Dir:  Pass   5 NRAB=    27 NRAA=     0 NRBB=     0 NR=    54.
 DD1Dir:  Pass   6 NRAB=    27 NRAA=     0 NRBB=     0 NR=    54.
 DD1Dir:  Pass   7 NRAB=    20 NRAA=    14 NRBB=     0 NR=    54.
 DD1Dir:  Pass   8 NRAB=     0 NRAA=    54 NRBB=     0 NR=    54.
 DD1Dir:  Pass   9 NRAB=     0 NRAA=    23 NRBB=    31 NR=    54.
 DD1Dir:  Pass  10 NRAB=     0 NRAA=     0 NRBB=    47 NR=    47.
 Norm of the A-vectors is  9.5444018D-03 conv= 1.00D-05.
 RLE energy=       -0.8808350900
 DE(Corr)= -0.88081446     E(CORR)=     -229.46069612     Delta=-1.49D-06
 NORM(A)=   0.12205875D+01
 Iteration Nr.  11
 **********************
 DD1Dir will call FoFJK  10 times, MxPair=        54
 NAB=   182 NAA=    91 NBB=    78 NumPrc=  4.
 DD1Dir:  Pass   1 NRAB=    27 NRAA=     0 NRBB=     0 NR=    54.
 DD1Dir:  Pass   2 NRAB=    27 NRAA=     0 NRBB=     0 NR=    54.
 DD1Dir:  Pass   3 NRAB=    27 NRAA=     0 NRBB=     0 NR=    54.
 DD1Dir:  Pass   4 NRAB=    27 NRAA=     0 NRBB=     0 NR=    54.
 DD1Dir:  Pass   5 NRAB=    27 NRAA=     0 NRBB=     0 NR=    54.
 DD1Dir:  Pass   6 NRAB=    27 NRAA=     0 NRBB=     0 NR=    54.
 DD1Dir:  Pass   7 NRAB=    20 NRAA=    14 NRBB=     0 NR=    54.
 DD1Dir:  Pass   8 NRAB=     0 NRAA=    54 NRBB=     0 NR=    54.
 DD1Dir:  Pass   9 NRAB=     0 NRAA=    23 NRBB=    31 NR=    54.
 DD1Dir:  Pass  10 NRAB=     0 NRAA=     0 NRBB=    47 NR=    47.
 Norm of the A-vectors is  6.3649598D-03 conv= 1.00D-05.
 RLE energy=       -0.8808675637
 DE(Corr)= -0.88085955     E(CORR)=     -229.46074121     Delta=-4.51D-05
 NORM(A)=   0.12214034D+01
 Iteration Nr.  12
 **********************
 DD1Dir will call FoFJK  10 times, MxPair=        54
 NAB=   182 NAA=    91 NBB=    78 NumPrc=  4.
 DD1Dir:  Pass   1 NRAB=    27 NRAA=     0 NRBB=     0 NR=    54.
 DD1Dir:  Pass   2 NRAB=    27 NRAA=     0 NRBB=     0 NR=    54.
 DD1Dir:  Pass   3 NRAB=    27 NRAA=     0 NRBB=     0 NR=    54.
 DD1Dir:  Pass   4 NRAB=    27 NRAA=     0 NRBB=     0 NR=    54.
 DD1Dir:  Pass   5 NRAB=    27 NRAA=     0 NRBB=     0 NR=    54.
 DD1Dir:  Pass   6 NRAB=    27 NRAA=     0 NRBB=     0 NR=    54.
 DD1Dir:  Pass   7 NRAB=    20 NRAA=    14 NRBB=     0 NR=    54.
 DD1Dir:  Pass   8 NRAB=     0 NRAA=    54 NRBB=     0 NR=    54.
 DD1Dir:  Pass   9 NRAB=     0 NRAA=    23 NRBB=    31 NR=    54.
 DD1Dir:  Pass  10 NRAB=     0 NRAA=     0 NRBB=    47 NR=    47.
 Norm of the A-vectors is  2.6295632D-03 conv= 1.00D-05.
 RLE energy=       -0.8808670846
 DE(Corr)= -0.88086395     E(CORR)=     -229.46074561     Delta=-4.40D-06
 NORM(A)=   0.12215747D+01
 Iteration Nr.  13
 **********************
 DD1Dir will call FoFJK  10 times, MxPair=        54
 NAB=   182 NAA=    91 NBB=    78 NumPrc=  4.
 DD1Dir:  Pass   1 NRAB=    27 NRAA=     0 NRBB=     0 NR=    54.
 DD1Dir:  Pass   2 NRAB=    27 NRAA=     0 NRBB=     0 NR=    54.
 DD1Dir:  Pass   3 NRAB=    27 NRAA=     0 NRBB=     0 NR=    54.
 DD1Dir:  Pass   4 NRAB=    27 NRAA=     0 NRBB=     0 NR=    54.
 DD1Dir:  Pass   5 NRAB=    27 NRAA=     0 NRBB=     0 NR=    54.
 DD1Dir:  Pass   6 NRAB=    27 NRAA=     0 NRBB=     0 NR=    54.
 DD1Dir:  Pass   7 NRAB=    20 NRAA=    14 NRBB=     0 NR=    54.
 DD1Dir:  Pass   8 NRAB=     0 NRAA=    54 NRBB=     0 NR=    54.
 DD1Dir:  Pass   9 NRAB=     0 NRAA=    23 NRBB=    31 NR=    54.
 DD1Dir:  Pass  10 NRAB=     0 NRAA=     0 NRBB=    47 NR=    47.
 Norm of the A-vectors is  1.4664464D-03 conv= 1.00D-05.
 RLE energy=       -0.8808725997
 DE(Corr)= -0.88087150     E(CORR)=     -229.46075316     Delta=-7.55D-06
 NORM(A)=   0.12217464D+01
 Iteration Nr.  14
 **********************
 DD1Dir will call FoFJK  10 times, MxPair=        54
 NAB=   182 NAA=    91 NBB=    78 NumPrc=  4.
 DD1Dir:  Pass   1 NRAB=    27 NRAA=     0 NRBB=     0 NR=    54.
 DD1Dir:  Pass   2 NRAB=    27 NRAA=     0 NRBB=     0 NR=    54.
 DD1Dir:  Pass   3 NRAB=    27 NRAA=     0 NRBB=     0 NR=    54.
 DD1Dir:  Pass   4 NRAB=    27 NRAA=     0 NRBB=     0 NR=    54.
 DD1Dir:  Pass   5 NRAB=    27 NRAA=     0 NRBB=     0 NR=    54.
 DD1Dir:  Pass   6 NRAB=    27 NRAA=     0 NRBB=     0 NR=    54.
 DD1Dir:  Pass   7 NRAB=    20 NRAA=    14 NRBB=     0 NR=    54.
 DD1Dir:  Pass   8 NRAB=     0 NRAA=    54 NRBB=     0 NR=    54.
 DD1Dir:  Pass   9 NRAB=     0 NRAA=    23 NRBB=    31 NR=    54.
 DD1Dir:  Pass  10 NRAB=     0 NRAA=     0 NRBB=    47 NR=    47.
 Norm of the A-vectors is  7.0383491D-04 conv= 1.00D-05.
 RLE energy=       -0.8808760457
 DE(Corr)= -0.88087403     E(CORR)=     -229.46075570     Delta=-2.53D-06
 NORM(A)=   0.12218879D+01
 Iteration Nr.  15
 **********************
 DD1Dir will call FoFJK  10 times, MxPair=        54
 NAB=   182 NAA=    91 NBB=    78 NumPrc=  4.
 DD1Dir:  Pass   1 NRAB=    27 NRAA=     0 NRBB=     0 NR=    54.
 DD1Dir:  Pass   2 NRAB=    27 NRAA=     0 NRBB=     0 NR=    54.
 DD1Dir:  Pass   3 NRAB=    27 NRAA=     0 NRBB=     0 NR=    54.
 DD1Dir:  Pass   4 NRAB=    27 NRAA=     0 NRBB=     0 NR=    54.
 DD1Dir:  Pass   5 NRAB=    27 NRAA=     0 NRBB=     0 NR=    54.
 DD1Dir:  Pass   6 NRAB=    27 NRAA=     0 NRBB=     0 NR=    54.
 DD1Dir:  Pass   7 NRAB=    20 NRAA=    14 NRBB=     0 NR=    54.
 DD1Dir:  Pass   8 NRAB=     0 NRAA=    54 NRBB=     0 NR=    54.
 DD1Dir:  Pass   9 NRAB=     0 NRAA=    23 NRBB=    31 NR=    54.
 DD1Dir:  Pass  10 NRAB=     0 NRAA=     0 NRBB=    47 NR=    47.
 Norm of the A-vectors is  6.0878844D-04 conv= 1.00D-05.
 RLE energy=       -0.8808774330
 DE(Corr)= -0.88087665     E(CORR)=     -229.46075831     Delta=-2.62D-06
 NORM(A)=   0.12220375D+01
 Iteration Nr.  16
 **********************
 DD1Dir will call FoFJK  10 times, MxPair=        54
 NAB=   182 NAA=    91 NBB=    78 NumPrc=  4.
 DD1Dir:  Pass   1 NRAB=    27 NRAA=     0 NRBB=     0 NR=    54.
 DD1Dir:  Pass   2 NRAB=    27 NRAA=     0 NRBB=     0 NR=    54.
 DD1Dir:  Pass   3 NRAB=    27 NRAA=     0 NRBB=     0 NR=    54.
 DD1Dir:  Pass   4 NRAB=    27 NRAA=     0 NRBB=     0 NR=    54.
 DD1Dir:  Pass   5 NRAB=    27 NRAA=     0 NRBB=     0 NR=    54.
 DD1Dir:  Pass   6 NRAB=    27 NRAA=     0 NRBB=     0 NR=    54.
 DD1Dir:  Pass   7 NRAB=    20 NRAA=    14 NRBB=     0 NR=    54.
 DD1Dir:  Pass   8 NRAB=     0 NRAA=    54 NRBB=     0 NR=    54.
 DD1Dir:  Pass   9 NRAB=     0 NRAA=    23 NRBB=    31 NR=    54.
 DD1Dir:  Pass  10 NRAB=     0 NRAA=     0 NRBB=    47 NR=    47.
 Norm of the A-vectors is  4.3225757D-04 conv= 1.00D-05.
 RLE energy=       -0.8808809481
 DE(Corr)= -0.88087934     E(CORR)=     -229.46076100     Delta=-2.69D-06
 NORM(A)=   0.12221786D+01
 Iteration Nr.  17
 **********************
[...]
 DD1Dir:  Pass   9 NRAB=     0 NRAA=    23 NRBB=    31 NR=    54.
 DD1Dir:  Pass  10 NRAB=     0 NRAA=     0 NRBB=    47 NR=    47.
 Norm of the A-vectors is  1.6808766D-05 conv= 1.00D-05.
 RLE energy=       -0.8808839042
 DE(Corr)= -0.88088392     E(CORR)=     -229.46076559     Delta=-5.58D-08
 NORM(A)=   0.12226689D+01
 Iteration Nr.  26
 **********************
 DD1Dir will call FoFJK  10 times, MxPair=        54
 NAB=   182 NAA=    91 NBB=    78 NumPrc=  4.
 DD1Dir:  Pass   1 NRAB=    27 NRAA=     0 NRBB=     0 NR=    54.
 DD1Dir:  Pass   2 NRAB=    27 NRAA=     0 NRBB=     0 NR=    54.
 DD1Dir:  Pass   3 NRAB=    27 NRAA=     0 NRBB=     0 NR=    54.
 DD1Dir:  Pass   4 NRAB=    27 NRAA=     0 NRBB=     0 NR=    54.
 DD1Dir:  Pass   5 NRAB=    27 NRAA=     0 NRBB=     0 NR=    54.
 DD1Dir:  Pass   6 NRAB=    27 NRAA=     0 NRBB=     0 NR=    54.
 DD1Dir:  Pass   7 NRAB=    20 NRAA=    14 NRBB=     0 NR=    54.
 DD1Dir:  Pass   8 NRAB=     0 NRAA=    54 NRBB=     0 NR=    54.
 DD1Dir:  Pass   9 NRAB=     0 NRAA=    23 NRBB=    31 NR=    54.
 DD1Dir:  Pass  10 NRAB=     0 NRAA=     0 NRBB=    47 NR=    47.
 Norm of the A-vectors is  1.0298668D-05 conv= 1.00D-05.
 RLE energy=       -0.8808839105
 DE(Corr)= -0.88088391     E(CORR)=     -229.46076557     Delta= 1.33D-08
 NORM(A)=   0.12226708D+01
 Iteration Nr.  27
 **********************
 DD1Dir will call FoFJK  10 times, MxPair=        54
 NAB=   182 NAA=    91 NBB=    78 NumPrc=  4.
 DD1Dir:  Pass   1 NRAB=    27 NRAA=     0 NRBB=     0 NR=    54.
 DD1Dir:  Pass   2 NRAB=    27 NRAA=     0 NRBB=     0 NR=    54.
 DD1Dir:  Pass   3 NRAB=    27 NRAA=     0 NRBB=     0 NR=    54.
 DD1Dir:  Pass   4 NRAB=    27 NRAA=     0 NRBB=     0 NR=    54.
 DD1Dir:  Pass   5 NRAB=    27 NRAA=     0 NRBB=     0 NR=    54.
 DD1Dir:  Pass   6 NRAB=    27 NRAA=     0 NRBB=     0 NR=    54.
 DD1Dir:  Pass   7 NRAB=    20 NRAA=    14 NRBB=     0 NR=    54.
 DD1Dir:  Pass   8 NRAB=     0 NRAA=    54 NRBB=     0 NR=    54.
 DD1Dir:  Pass   9 NRAB=     0 NRAA=    23 NRBB=    31 NR=    54.
 DD1Dir:  Pass  10 NRAB=     0 NRAA=     0 NRBB=    47 NR=    47.
 Norm of the A-vectors is  6.2172688D-06 conv= 1.00D-05.
 RLE energy=       -0.8808839303
 DE(Corr)= -0.88088392     E(CORR)=     -229.46076559     Delta=-1.62D-08
 NORM(A)=   0.12226738D+01
 CI/CC converged in   27 iterations to DelEn=-1.62D-08 Conv= 1.00D-07 ErrA1= 6.22D-06 Conv= 1.00D-05
 Dominant configurations:
 ***********************
 Spin Case        I    J    A    B          Value
    AA           19        20           -0.380087D+00
    AA           19        22           -0.110439D+00
 Largest amplitude= 3.80D-01
 Time for triples=    11406.96 seconds.
 T4(CCSD)= -0.45946804D-01
 T5(CCSD)=  0.20297565D-02
 CCSD(T)= -0.22950468264D+03

 S**2, projected HF & approx projected MPn energies after annihilation of
 unwanted spin states (see manual for definitions):

 spins       (S**2,0) (S**2,1)    PUHF        PMP2        PMP3        PMP4
 annihilated
 s+1         0.75000  0.75000 -228.579921 -229.437081 -229.453839
 s+1,s+2     0.75000  0.75000 -228.579921 -229.437081 -229.453839
 s+1 to s+3  0.75000  0.75000 -228.579921 -229.437081 -229.453839
 s+1 to s+4  0.75000  0.75000 -228.579921 -229.437081 -229.453839
 s+1 to s+5  0.75000  0.75000 -228.579921
 s+1 to s+6  0.75000  0.75000 -228.579921

 Discarding MO integrals.
 Leave Link  913 at Sat Mar  9 20:06:04 2019, MaxMem=    33554432 cpu:     70959.8
 (Enter /home/proyectos/fulerenos/M3C-v2.0/M3C-deps_CCC/g09-AM64L-G09RevC.01/l601.exe)
 Copying SCF densities to generalized density rwf, IOpCl= 1 IROHF=0.

 **********************************************************************

            Population analysis using the SCF density.

 **********************************************************************

 Orbital symmetries:
 Alpha Orbitals:
       Occupied  (A) (A) (A) (A) (A) (A) (A) (A) (A) (A) (A) (A)
                 (A) (A) (A) (A) (A) (A) (A)
       Virtual   (A) (A) (A) (A) (A) (A) (A) (A) (A) (A) (A) (A)
                 (A) (A) (A) (A) (A) (A) (A) (A) (A) (A) (A) (A)
                 (A) (A) (A) (A) (A) (A) (A) (A) (A) (A) (A) (A)
                 (A) (A) (A) (A) (A) (A) (A) (A) (A) (A) (A) (A)
                 (A) (A) (A) (A) (A) (A) (A) (A) (A) (A) (A) (A)
                 (A) (A) (A) (A) (A) (A) (A) (A) (A) (A) (A) (A)
                 (A) (A) (A) (A) (A) (A) (A) (A) (A) (A) (A) (A)
                 (A) (A) (A) (A) (A) (A) (A) (A) (A) (A) (A) (A)
                 (A) (A) (A) (A) (A) (A) (A) (A) (A) (A) (A) (A)
                 (A) (A) (A) (A) (A) (A) (A) (A) (A) (A) (A) (A)
                 (A) (A) (A) (A) (A) (A) (A) (A) (A) (A) (A) (A)
                 (A) (A) (A) (A) (A) (A) (A) (A) (A) (A) (A) (A)
                 (A) (A) (A) (A) (A) (A) (A) (A) (A) (A) (A) (A)
                 (A) (A) (A) (A) (A) (A) (A) (A) (A) (A) (A) (A)
                 (A) (A) (A) (A) (A) (A) (A) (A) (A) (A) (A) (A)
                 (A) (A) (A) (A) (A) (A) (A) (A) (A) (A) (A) (A)
                 (A) (A) (A) (A) (A) (A) (A) (A) (A) (A) (A) (A)
                 (A) (A) (A) (A) (A) (A) (A) (A) (A) (A) (A) (A)
 Beta  Orbitals:
       Occupied  (A) (A) (A) (A) (A) (A) (A) (A) (A) (A) (A) (A)
                 (A) (A) (A) (A) (A) (A)
       Virtual   (A) (A) (A) (A) (A) (A) (A) (A) (A) (A) (A) (A)
                 (A) (A) (A) (A) (A) (A) (A) (A) (A) (A) (A) (A)
                 (A) (A) (A) (A) (A) (A) (A) (A) (A) (A) (A) (A)
                 (A) (A) (A) (A) (A) (A) (A) (A) (A) (A) (A) (A)
                 (A) (A) (A) (A) (A) (A) (A) (A) (A) (A) (A) (A)
                 (A) (A) (A) (A) (A) (A) (A) (A) (A) (A) (A) (A)
                 (A) (A) (A) (A) (A) (A) (A) (A) (A) (A) (A) (A)
                 (A) (A) (A) (A) (A) (A) (A) (A) (A) (A) (A) (A)
                 (A) (A) (A) (A) (A) (A) (A) (A) (A) (A) (A) (A)
                 (A) (A) (A) (A) (A) (A) (A) (A) (A) (A) (A) (A)
                 (A) (A) (A) (A) (A) (A) (A) (A) (A) (A) (A) (A)
                 (A) (A) (A) (A) (A) (A) (A) (A) (A) (A) (A) (A)
                 (A) (A) (A) (A) (A) (A) (A) (A) (A) (A) (A) (A)
                 (A) (A) (A) (A) (A) (A) (A) (A) (A) (A) (A) (A)
                 (A) (A) (A) (A) (A) (A) (A) (A) (A) (A) (A) (A)
                 (A) (A) (A) (A) (A) (A) (A) (A) (A) (A) (A) (A)
                 (A) (A) (A) (A) (A) (A) (A) (A) (A) (A) (A) (A)
                 (A) (A) (A) (A) (A) (A) (A) (A) (A) (A) (A) (A)
                 (A)
 The electronic state is 2-A.
 Alpha  occ. eigenvalues --  -20.53510 -11.22052 -11.17409 -11.13976 -11.10423
 Alpha  occ. eigenvalues --   -1.36223  -0.97340  -0.89696  -0.75058  -0.67942
 Alpha  occ. eigenvalues --   -0.57828  -0.56887  -0.54662  -0.50748  -0.45846
 Alpha  occ. eigenvalues --   -0.30905  -0.27652  -0.24301   0.03745
 Alpha virt. eigenvalues --    0.11320   0.12888   0.15085   0.18651   0.18847
 Alpha virt. eigenvalues --    0.20786   0.21786   0.23729   0.23827   0.24532
 Alpha virt. eigenvalues --    0.27243   0.27446   0.28361   0.28652   0.29283
 Alpha virt. eigenvalues --    0.29913   0.30727   0.31970   0.32481   0.36318
 Alpha virt. eigenvalues --    0.37655   0.38007   0.39051   0.40041   0.42837
 Alpha virt. eigenvalues --    0.43193   0.45711   0.47994   0.50678   0.52608
 Alpha virt. eigenvalues --    0.54103   0.54489   0.57514   0.58596   0.60218
 Alpha virt. eigenvalues --    0.62372   0.63909   0.63925   0.65067   0.67239
 Alpha virt. eigenvalues --    0.70699   0.72377   0.72789   0.73857   0.77204
 Alpha virt. eigenvalues --    0.77468   0.79840   0.81747   0.83269   0.83450
 Alpha virt. eigenvalues --    0.86831   0.87989   0.91309   0.93572   0.93834
 Alpha virt. eigenvalues --    0.94046   0.95746   0.98435   0.99598   1.05737
 Alpha virt. eigenvalues --    1.07480   1.07899   1.08078   1.12206   1.14527
 Alpha virt. eigenvalues --    1.16664   1.22396   1.22625   1.23451   1.25144
 Alpha virt. eigenvalues --    1.30813   1.33855   1.35599   1.37745   1.40294
 Alpha virt. eigenvalues --    1.41220   1.45917   1.47183   1.49354   1.52500
 Alpha virt. eigenvalues --    1.53265   1.54688   1.59773   1.62936   1.66150
 Alpha virt. eigenvalues --    1.71202   1.75518   1.77968   1.78329   1.79605
 Alpha virt. eigenvalues --    1.86882   1.86970   1.88876   1.90508   1.92134
 Alpha virt. eigenvalues --    1.94998   1.97372   2.07976   2.11837   2.15490
 Alpha virt. eigenvalues --    2.18586   2.21493   2.31503   2.33484   2.40091
 Alpha virt. eigenvalues --    2.47354   2.49027   2.56333   2.71262   2.76466
 Alpha virt. eigenvalues --    2.83156   2.83684   2.93821   2.99192   3.02807
 Alpha virt. eigenvalues --    3.07361   3.08913   3.13803   3.15294   3.18334
 Alpha virt. eigenvalues --    3.19664   3.22738   3.25355   3.27219   3.27764
 Alpha virt. eigenvalues --    3.32262   3.33258   3.37371   3.42086   3.43275
 Alpha virt. eigenvalues --    3.44633   3.48045   3.48292   3.51511   3.53290
 Alpha virt. eigenvalues --    3.53910   3.55198   3.65936   3.68713   3.71192
 Alpha virt. eigenvalues --    3.72859   3.78306   3.83103   3.92254   4.00041
 Alpha virt. eigenvalues --    4.06310   4.09189   4.11719   4.19643   4.25093
 Alpha virt. eigenvalues --    4.26078   4.42454   4.43132   4.47414   4.57348
 Alpha virt. eigenvalues --    4.61684   4.62488   4.63845   4.69364   4.69559
 Alpha virt. eigenvalues --    4.80665   4.85985   4.88450   4.88617   4.93250
 Alpha virt. eigenvalues --    4.96589   5.10960   5.14005   5.56895   5.70647
 Alpha virt. eigenvalues --    5.72029   5.79490   5.89157   5.92957   5.97839
 Alpha virt. eigenvalues --    6.06728   6.13358   6.30896   6.37078   6.45870
 Alpha virt. eigenvalues --    6.63120   6.94305   7.23110   7.23412   7.40416
 Alpha virt. eigenvalues --    7.54566   7.56941   7.61498   7.66917   7.67992
 Alpha virt. eigenvalues --    7.69148   7.74702   7.77277   7.82778   7.88017
 Alpha virt. eigenvalues --    7.93976   7.95944   8.07179   8.14053   8.17906
 Alpha virt. eigenvalues --    8.38709   8.56990   8.79634   8.88652   9.11015
 Alpha virt. eigenvalues --    9.27070  15.17609  15.26970  15.44963  15.83603
 Alpha virt. eigenvalues --   16.03165  25.35948  25.41414  27.10129  28.35314
 Alpha virt. eigenvalues --   52.09161
  Beta  occ. eigenvalues --  -20.53499 -11.22011 -11.17469 -11.13995 -11.10285
  Beta  occ. eigenvalues --   -1.36210  -0.97328  -0.89650  -0.75026  -0.67847
  Beta  occ. eigenvalues --   -0.57538  -0.56881  -0.54664  -0.50743  -0.45822
  Beta  occ. eigenvalues --   -0.30937  -0.27647  -0.24285
  Beta virt. eigenvalues --    0.11938   0.13370   0.16179   0.17698   0.18845
  Beta virt. eigenvalues --    0.19852   0.21734   0.22589   0.24424   0.25464
  Beta virt. eigenvalues --    0.26192   0.27533   0.27694   0.28802   0.29709
  Beta virt. eigenvalues --    0.30088   0.30911   0.31047   0.32524   0.32936
  Beta virt. eigenvalues --    0.36825   0.38118   0.38247   0.39249   0.40351
  Beta virt. eigenvalues --    0.43084   0.43450   0.45851   0.48440   0.50895
  Beta virt. eigenvalues --    0.52705   0.54196   0.54632   0.57619   0.58708
  Beta virt. eigenvalues --    0.60337   0.62675   0.64001   0.64027   0.65237
  Beta virt. eigenvalues --    0.67334   0.70834   0.72441   0.72888   0.74042
  Beta virt. eigenvalues --    0.77371   0.77598   0.79937   0.81842   0.83330
  Beta virt. eigenvalues --    0.83735   0.86896   0.88128   0.91413   0.93701
  Beta virt. eigenvalues --    0.93993   0.94166   0.95825   0.98491   0.99660
  Beta virt. eigenvalues --    1.05810   1.07552   1.07938   1.08118   1.12299
  Beta virt. eigenvalues --    1.14576   1.16715   1.22420   1.22676   1.23455
  Beta virt. eigenvalues --    1.25230   1.30937   1.33904   1.35605   1.37797
  Beta virt. eigenvalues --    1.40323   1.41259   1.45950   1.47227   1.49374
  Beta virt. eigenvalues --    1.52594   1.53351   1.54716   1.59807   1.62974
  Beta virt. eigenvalues --    1.66168   1.71225   1.75540   1.78031   1.78355
  Beta virt. eigenvalues --    1.79675   1.86903   1.86992   1.88896   1.90543
  Beta virt. eigenvalues --    1.92176   1.94994   1.97509   2.08008   2.11888
  Beta virt. eigenvalues --    2.15529   2.18613   2.21520   2.31524   2.33507
  Beta virt. eigenvalues --    2.40107   2.47367   2.49033   2.56339   2.71275
  Beta virt. eigenvalues --    2.76499   2.83201   2.83713   2.93902   2.99201
  Beta virt. eigenvalues --    3.02832   3.07349   3.08907   3.13803   3.15308
  Beta virt. eigenvalues --    3.18337   3.19676   3.22765   3.25345   3.27238
  Beta virt. eigenvalues --    3.27773   3.32252   3.33297   3.37399   3.42106
  Beta virt. eigenvalues --    3.43290   3.44668   3.48054   3.48307   3.51515
  Beta virt. eigenvalues --    3.53295   3.53930   3.55197   3.65921   3.68713
  Beta virt. eigenvalues --    3.71205   3.72875   3.78323   3.83109   3.92267
  Beta virt. eigenvalues --    4.00059   4.06320   4.09200   4.11724   4.19652
  Beta virt. eigenvalues --    4.25102   4.26090   4.42475   4.43145   4.47424
  Beta virt. eigenvalues --    4.57367   4.61682   4.62505   4.63851   4.69363
  Beta virt. eigenvalues --    4.69570   4.80667   4.86016   4.88482   4.88613
  Beta virt. eigenvalues --    4.93249   4.96589   5.10967   5.14012   5.56902
  Beta virt. eigenvalues --    5.70657   5.72037   5.79498   5.89157   5.92961
  Beta virt. eigenvalues --    5.97838   6.06732   6.13359   6.30901   6.37088
  Beta virt. eigenvalues --    6.45873   6.63129   6.94326   7.23118   7.23412
  Beta virt. eigenvalues --    7.40423   7.54548   7.56939   7.61480   7.66940
  Beta virt. eigenvalues --    7.68004   7.69163   7.74722   7.77299   7.82789
  Beta virt. eigenvalues --    7.88043   7.94004   7.95963   8.07195   8.14062
  Beta virt. eigenvalues --    8.17886   8.38716   8.57004   8.79648   8.88672
  Beta virt. eigenvalues --    9.11000   9.27107  15.17610  15.26971  15.44970
  Beta virt. eigenvalues --   15.83611  16.03172  25.35966  25.41440  27.10136
  Beta virt. eigenvalues --   28.35355  52.09172
          Condensed to atoms (all electrons):
               1          2          3          4          5          6
     1  O    9.668306   0.488633  -1.101915 -19.175392  15.134964   0.841007
     2  C    0.488633  12.363149 -10.007060 -18.085236  15.962790   2.854468
     3  C   -1.101915 -10.007060  21.827584  39.529991 -33.748540  -5.745626
     4  C  -19.175392 -18.085236  39.529991 784.802869-572.199212 -30.897415
     5  C   15.134964  15.962790 -33.748540-572.199212 445.386732  24.846716
     6  H    0.841007   2.854468  -5.745626 -30.897415  24.846716   4.180474
     7  H    0.016310  -0.222282   0.676327  -0.182896   0.141099  -0.036306
     8  H    0.029054   1.452897  -1.888357  -4.106457   3.564616   0.657493
     9  H    3.004574   1.127635  -3.941344-184.319383 112.847530   4.864730
               7          8          9
     1  O    0.016310   0.029054   3.004574
     2  C   -0.222282   1.452897   1.127635
     3  C    0.676327  -1.888357  -3.941344
     4  C   -0.182896  -4.106457-184.319383
     5  C    0.141099   3.564616 112.847530
     6  H   -0.036306   0.657493   4.864730
     7  H    0.488495  -0.035077   0.028558
     8  H   -0.035077   0.915291   0.388015
     9  H    0.028558   0.388015  71.837282
          Atomic-Atomic Spin Densities.
               1          2          3          4          5          6
     1  O    0.764252   0.285179  -0.912308 -19.304098  15.344281   0.863831
     2  C    0.285179   6.844499  -9.786932 -18.021681  15.982558   2.348764
     3  C   -0.912308  -9.786932  16.029940  39.491609 -33.730146  -5.624360
     4  C  -19.304098 -18.021681  39.491609 778.339617-572.021510 -30.892112
     5  C   15.344281  15.982558 -33.730146-572.021510 439.719985  24.844695
     6  H    0.863831   2.348764  -5.624360 -30.892112  24.844695   3.713540
     7  H    0.009976  -0.113441   0.166011  -0.183950   0.144508  -0.037717
     8  H    0.043923   1.508207  -2.362068  -4.109502   3.564742   0.656305
     9  H    3.008773   1.126733  -3.941545-184.241426 112.432550   4.865858
               7          8          9
     1  O    0.009976   0.043923   3.008773
     2  C   -0.113441   1.508207   1.126733
     3  C    0.166011  -2.362068  -3.941545
     4  C   -0.183950  -4.109502-184.241426
     5  C    0.144508   3.564742 112.432550
     6  H   -0.037717   0.656305   4.865858
     7  H    0.020517  -0.024449   0.028579
     8  H   -0.024449   0.446901   0.388000
     9  H    0.028579   0.388000  71.525076
 Mulliken charges and spin densities:
               1          2
     1  O   -0.905541   0.103810
     2  C    0.065007   0.173885
     3  C    0.398940  -0.669799
     4  C   10.633131 -10.943054
     5  C   -5.936696   6.281665
     6  H   -0.565540   0.738804
     7  H    0.125771   0.010034
     8  H    0.022524   0.112058
     9  H   -4.837597   5.192597
 Sum of Mulliken charges =  -1.00000   1.00000
 Mulliken charges and spin densities with hydrogens summed into heavy atoms:
               1          2
     1  O   -0.905541   0.103810
     2  C   -0.500533   0.912688
     3  C    0.547235  -0.547706
     4  C   10.633131 -10.943054
     5  C  -10.774293  11.474262
 Electronic spatial extent (au):  <R**2>=            589.0403
 Charge=             -1.0000 electrons
 Dipole moment (field-independent basis, Debye):
    X=            -16.1281    Y=             -4.3167    Z=             -0.0001  Tot=             16.6958
 Quadrupole moment (field-independent basis, Debye-Ang):
   XX=           -119.2382   YY=            -58.8105   ZZ=            -53.1977
   XY=            -12.4227   XZ=             -0.0004   YZ=             -0.0001
 Traceless Quadrupole moment (field-independent basis, Debye-Ang):
   XX=            -42.1560   YY=             18.2716   ZZ=             23.8844
   XY=            -12.4227   XZ=             -0.0004   YZ=             -0.0001
 Octapole moment (field-independent basis, Debye-Ang**2):
  XXX=           -484.4352  YYY=            -75.2418  ZZZ=             -0.0009  XYY=            -79.3980
  XXY=            -75.5453  XXZ=             -0.0017  XZZ=            -64.1920  YZZ=            -20.9581
  YYZ=             -0.0003  XYZ=             -0.0002
 Hexadecapole moment (field-independent basis, Debye-Ang**3):
 XXXX=          -3718.2970 YYYY=           -464.9916 ZZZZ=           -254.3372 XXXY=           -353.7953
 XXXZ=             -0.0104 YYYX=           -147.5053 YYYZ=             -0.0003 ZZZX=             -0.0036
 ZZZY=             -0.0004 XXYY=           -527.4956 XXZZ=           -462.9078 YYZZ=           -116.2362
 XXYZ=             -0.0013 YYXZ=             -0.0014 ZZXY=            -45.6601
 N-N= 1.432808512687D+02 E-N=-8.254503090779D+02  KE= 2.283343480061D+02
 Leave Link  601 at Sat Mar  9 20:06:04 2019, MaxMem=    33554432 cpu:         0.3
 (Enter /home/proyectos/fulerenos/M3C-v2.0/M3C-deps_CCC/g09-AM64L-G09RevC.01/l9999.exe)
 1\1\GINC-DARMSTADIO\SP\UCCSD(T)-FC\6-311++G(3df,2p)\C4H4O1(1-,2)\ROOT\
 09-Mar-2019\0\\#p ccsd(t,maxcyc=200)/6-311++G(3df,2p)\\ccsd(t) iener\\
 -1,2\O,0,0.060423,-0.477556,0.000498\C,0,1.085429,0.467029,-0.000134\C
 ,0,2.348854,0.08669,-0.00003\C,0,-1.172913,-0.056242,0.000353\C,0,-2.3
 29368,0.259771,0.000261\H,0,0.741855,1.491736,-0.000688\H,0,3.127324,0
 .839623,-0.000529\H,0,2.640214,-0.953168,0.000537\H,0,-3.352615,0.5434
 18,0.000175\\Version=EM64L-G09RevE.01\State=2-A\HF=-228.5798817\MP2=-2
 29.4370525\MP3=-229.4538218\MP4D=-229.4743429\MP4DQ=-229.4504168\PUHF=
 -228.5799214\PMP2-0=-229.4370805\PMP3-0=-229.453839\MP4SDQ=-229.460894
 7\CCSD=-229.4607656\CCSD(T)=-229.5046826\S2=0.750465\S2-1=0.750191\S2A
 =0.75\RMSD=2.371e-09\PG=C01 [X(C4H4O1)]\\@


 It is also a good rule not to put too much confidence in
 experimental results until they have been confirmed by
 Theory.
                             -- Sir Arthur Eddington
 Job cpu time:       0 days 20 hours 33 minutes 41.4 seconds.
 File lengths (MBytes):  RWF=   8202 Int=      0 D2E=      0 Chk=      5 Scr=      1
 Normal termination of Gaussian 09 at Sat Mar  9 20:06:08 2019.
