 Entering Gaussian System, Link 0=/home/proyectos/fulerenos/M3C-v2.0/M3C-deps_CCC/g09-AM64L-G09RevC.01/g09
 Initial command:
 /home/proyectos/fulerenos/M3C-v2.0/M3C-deps_CCC/g09-AM64L-G09RevC.01/l1.exe "/scratch/naguirre/gaussian/Gau-65337.inp" -scrdir="/scratch/naguirre/gaussian/"
 Entering Link 1 = /home/proyectos/fulerenos/M3C-v2.0/M3C-deps_CCC/g09-AM64L-G09RevC.01/l1.exe PID=     65345.
  
 Copyright (c) 1988,1990,1992,1993,1995,1998,2003,2009,2015,
            Gaussian, Inc.  All Rights Reserved.
  
 This is part of the Gaussian(R) 09 program.  It is based on
 the Gaussian(R) 03 system (copyright 2003, Gaussian, Inc.),
 the Gaussian(R) 98 system (copyright 1998, Gaussian, Inc.),
 the Gaussian(R) 94 system (copyright 1995, Gaussian, Inc.),
 the Gaussian 92(TM) system (copyright 1992, Gaussian, Inc.),
 the Gaussian 90(TM) system (copyright 1990, Gaussian, Inc.),
 the Gaussian 88(TM) system (copyright 1988, Gaussian, Inc.),
 the Gaussian 86(TM) system (copyright 1986, Carnegie Mellon
 University), and the Gaussian 82(TM) system (copyright 1983,
 Carnegie Mellon University). Gaussian is a federally registered
 trademark of Gaussian, Inc.
  
 This software contains proprietary and confidential information,
 including trade secrets, belonging to Gaussian, Inc.
  
 This software is provided under written license and may be
 used, copied, transmitted, or stored only in accord with that
 written license.
  
 The following legend is applicable only to US Government
 contracts under FAR:
  
                    RESTRICTED RIGHTS LEGEND
  
 Use, reproduction and disclosure by the US Government is
 subject to restrictions as set forth in subparagraphs (a)
 and (c) of the Commercial Computer Software - Restricted
 Rights clause in FAR 52.227-19.
  
 Gaussian, Inc.
 340 Quinnipiac St., Bldg. 40, Wallingford CT 06492
  
  
 ---------------------------------------------------------------
 Warning -- This program may not be used in any manner that
 competes with the business of Gaussian, Inc. or will provide
 assistance to any competitor of Gaussian, Inc.  The licensee
 of this program is prohibited from giving any competitor of
 Gaussian, Inc. access to this program.  By using this program,
 the user acknowledges that Gaussian, Inc. is engaged in the
 business of creating and licensing software in the field of
 computational chemistry and represents and warrants to the
 licensee that it is not a competitor of Gaussian, Inc. and that
 it will not use this program in any manner prohibited above.
 ---------------------------------------------------------------
  

 Cite this work as:
 Gaussian 09, Revision E.01,
 M. J. Frisch, G. W. Trucks, H. B. Schlegel, G. E. Scuseria, 
 M. A. Robb, J. R. Cheeseman, G. Scalmani, V. Barone, B. Mennucci, 
 G. A. Petersson, H. Nakatsuji, M. Caricato, X. Li, H. P. Hratchian, 
 A. F. Izmaylov, J. Bloino, G. Zheng, J. L. Sonnenberg, M. Hada, 
 M. Ehara, K. Toyota, R. Fukuda, J. Hasegawa, M. Ishida, T. Nakajima, 
 Y. Honda, O. Kitao, H. Nakai, T. Vreven, J. A. Montgomery, Jr., 
 J. E. Peralta, F. Ogliaro, M. Bearpark, J. J. Heyd, E. Brothers, 
 K. N. Kudin, V. N. Staroverov, T. Keith, R. Kobayashi, J. Normand, 
 K. Raghavachari, A. Rendell, J. C. Burant, S. S. Iyengar, J. Tomasi, 
 M. Cossi, N. Rega, J. M. Millam, M. Klene, J. E. Knox, J. B. Cross, 
 V. Bakken, C. Adamo, J. Jaramillo, R. Gomperts, R. E. Stratmann, 
 O. Yazyev, A. J. Austin, R. Cammi, C. Pomelli, J. W. Ochterski, 
 R. L. Martin, K. Morokuma, V. G. Zakrzewski, G. A. Voth, 
 P. Salvador, J. J. Dannenberg, S. Dapprich, A. D. Daniels, 
 O. Farkas, J. B. Foresman, J. V. Ortiz, J. Cioslowski, 
 and D. J. Fox, Gaussian, Inc., Wallingford CT, 2013.
 
 ******************************************
 Gaussian 09:  EM64L-G09RevE.01 30-Nov-2015
                 9-Mar-2019 
 ******************************************
 %NProcShared=4
 Will use up to    4 processors via shared memory.
 --------------------------------------
 #p ccsd(t,maxcyc=200)/6-311++G(3df,2p)
 --------------------------------------
 1/38=1/1;
 2/12=2,17=6,18=5,40=1/2;
 3/5=4,6=6,7=1216,11=9,16=1,25=1,30=1/1,2,3;
 4//1;
 5/5=2,38=5/2;
 8/6=4,9=120000,10=2/1,4;
 9/5=7,6=200,14=2/13;
 6/7=2,8=2,9=2,10=2/1;
 99/5=1,9=1/99;
 Leave Link    1 at Sat Mar  9 01:14:01 2019, MaxMem=           0 cpu:         0.2
 (Enter /home/proyectos/fulerenos/M3C-v2.0/M3C-deps_CCC/g09-AM64L-G09RevC.01/l101.exe)
 -------------
 ccsd(t) iener
 -------------
 Symbolic Z-matrix:
 Charge = -1 Multiplicity = 1
 C                    -0.63822  -0.3144    0. 
 H                    -0.38133  -1.6789    0. 
 O                     0.31512   0.43062   0. 
 
 NAtoms=      3 NQM=        3 NQMF=       0 NMMI=      0 NMMIF=      0
                NMic=       0 NMicF=      0.
                    Isotopes and Nuclear Properties:
 (Nuclear quadrupole moments (NQMom) in fm**2, nuclear magnetic moments (NMagM)
  in nuclear magnetons)

  Atom         1           2           3
 IAtWgt=          12           1          16
 AtmWgt=  12.0000000   1.0078250  15.9949146
 NucSpn=           0           1           0
 AtZEff=   0.0000000   0.0000000   0.0000000
 NQMom=    0.0000000   0.0000000   0.0000000
 NMagM=    0.0000000   2.7928460   0.0000000
 AtZNuc=   6.0000000   1.0000000   8.0000000
 Leave Link  101 at Sat Mar  9 01:14:01 2019, MaxMem=    33554432 cpu:         0.4
 (Enter /home/proyectos/fulerenos/M3C-v2.0/M3C-deps_CCC/g09-AM64L-G09RevC.01/l202.exe)
                          Input orientation:                          
 ---------------------------------------------------------------------
 Center     Atomic      Atomic             Coordinates (Angstroms)
 Number     Number       Type             X           Y           Z
 ---------------------------------------------------------------------
      1          6           0       -0.638215   -0.314397    0.000000
      2          1           0       -0.381331   -1.678899    0.000000
      3          8           0        0.315116    0.430620    0.000000
 ---------------------------------------------------------------------
                    Distance matrix (angstroms):
                    1          2          3
     1  C    0.000000
     2  H    1.388472   0.000000
     3  O    1.209913   2.221510   0.000000
 Stoichiometry    CHO(1-)
 Framework group  CS[SG(CHO)]
 Deg. of freedom     3
 Full point group                 CS      NOp   2
 Largest Abelian subgroup         CS      NOp   2
 Largest concise Abelian subgroup C1      NOp   1
                         Standard orientation:                         
 ---------------------------------------------------------------------
 Center     Atomic      Atomic             Coordinates (Angstroms)
 Number     Number       Type             X           Y           Z
 ---------------------------------------------------------------------
      1          6           0        0.082221    0.602767    0.000000
      2          1           0       -1.151095    1.240566    0.000000
      3          8           0        0.082221   -0.607146    0.000000
 ---------------------------------------------------------------------
 Rotational constants (GHZ):    408.2451867     42.1256916     38.1854415
 Leave Link  202 at Sat Mar  9 01:14:01 2019, MaxMem=    33554432 cpu:         0.0
 (Enter /home/proyectos/fulerenos/M3C-v2.0/M3C-deps_CCC/g09-AM64L-G09RevC.01/l301.exe)
 Standard basis: 6-311++G(3df,2p) (5D, 7F)
 Ernie: Thresh=  0.10000D-02 Tol=  0.10000D-05 Strict=F.
 There are    70 symmetry adapted cartesian basis functions of A'  symmetry.
 There are    30 symmetry adapted cartesian basis functions of A"  symmetry.
 There are    60 symmetry adapted basis functions of A'  symmetry.
 There are    28 symmetry adapted basis functions of A"  symmetry.
    88 basis functions,   128 primitive gaussians,   100 cartesian basis functions
     8 alpha electrons        8 beta electrons
       nuclear repulsion energy        25.1860369010 Hartrees.
 IExCor=    0 DFT=F Ex=HF Corr=None ExCW=0 ScaHFX=  1.000000
 ScaDFX=  1.000000  1.000000  1.000000  1.000000 ScalE2=  1.000000  1.000000
 IRadAn=      0 IRanWt=     -1 IRanGd=            0 ICorTp=0 IEmpDi=  4
 NAtoms=    3 NActive=    3 NUniq=    3 SFac= 1.00D+00 NAtFMM=   60 NAOKFM=F Big=F
 Integral buffers will be    131072 words long.
 Raffenetti 1 integral format.
 Two-electron integral symmetry is turned on.
 Leave Link  301 at Sat Mar  9 01:14:01 2019, MaxMem=    33554432 cpu:         0.3
 (Enter /home/proyectos/fulerenos/M3C-v2.0/M3C-deps_CCC/g09-AM64L-G09RevC.01/l302.exe)
 NPDir=0 NMtPBC=     1 NCelOv=     1 NCel=       1 NClECP=     1 NCelD=      1
         NCelK=      1 NCelE2=     1 NClLst=     1 CellRange=     0.0.
 One-electron integrals computed using PRISM.
 NBasis=    88 RedAO= T EigKep=  1.05D-03  NBF=    60    28
 NBsUse=    88 1.00D-06 EigRej= -1.00D+00 NBFU=    60    28
 Leave Link  302 at Sat Mar  9 01:14:01 2019, MaxMem=    33554432 cpu:         1.1
 (Enter /home/proyectos/fulerenos/M3C-v2.0/M3C-deps_CCC/g09-AM64L-G09RevC.01/l303.exe)
 DipDrv:  MaxL=1.
 Leave Link  303 at Sat Mar  9 01:14:01 2019, MaxMem=    33554432 cpu:         0.3
 (Enter /home/proyectos/fulerenos/M3C-v2.0/M3C-deps_CCC/g09-AM64L-G09RevC.01/l401.exe)
 ExpMin= 3.60D-02 ExpMax= 8.59D+03 ExpMxC= 1.30D+03 IAcc=3 IRadAn=         5 AccDes= 0.00D+00
 Harris functional with IExCor=  205 and IRadAn=       5 diagonalized for initial guess.
 HarFok:  IExCor=  205 AccDes= 0.00D+00 IRadAn=         5 IDoV= 1 UseB2=F ITyADJ=14
 ICtDFT=  3500011 ScaDFX=  1.000000  1.000000  1.000000  1.000000
 FoFCou: FMM=F IPFlag=           0 FMFlag=      100000 FMFlg1=           0
         NFxFlg=           0 DoJE=T BraDBF=F KetDBF=T FulRan=T
         wScrn=  0.000000 ICntrl=     500 IOpCl=  0 I1Cent=   200000004 NGrid=           0
         NMat0=    1 NMatS0=      1 NMatT0=    0 NMatD0=    1 NMtDS0=    0 NMtDT0=    0
 Petite list used in FoFCou.
 Harris En= -113.500025584325    
 JPrj=0 DoOrth=F DoCkMO=F.
 Initial guess orbital symmetries:
       Occupied  (A') (A') (A') (A') (A') (A") (A') (A')
       Virtual   (A") (A') (A') (A') (A") (A') (A') (A') (A") (A')
                 (A') (A") (A') (A') (A') (A") (A') (A') (A") (A')
                 (A') (A") (A') (A') (A') (A") (A") (A') (A') (A')
                 (A") (A') (A') (A") (A') (A") (A') (A') (A') (A')
                 (A") (A') (A") (A') (A") (A") (A') (A') (A') (A")
                 (A') (A') (A') (A") (A") (A') (A') (A') (A") (A')
                 (A") (A') (A") (A') (A') (A') (A") (A') (A") (A')
                 (A") (A') (A') (A") (A') (A") (A') (A') (A') (A')
 The electronic state of the initial guess is 1-A'.
 Leave Link  401 at Sat Mar  9 01:14:02 2019, MaxMem=    33554432 cpu:         1.5
 (Enter /home/proyectos/fulerenos/M3C-v2.0/M3C-deps_CCC/g09-AM64L-G09RevC.01/l502.exe)
 Closed shell SCF:
 Using DIIS extrapolation, IDIIS=  1040.
 Integral symmetry usage will be decided dynamically.
 Keep R1 ints in memory in symmetry-blocked form, NReq=11641452.
 IVT=       49896 IEndB=       49896 NGot=    33554432 MDV=    29582555
 LenX=    29582555 LenY=    29572114
 Requested convergence on RMS density matrix=1.00D-08 within 128 cycles.
 Requested convergence on MAX density matrix=1.00D-06.
 Requested convergence on             energy=1.00D-06.
 No special actions if energy rises.
 FoFCou: FMM=F IPFlag=           0 FMFlag=           0 FMFlg1=           0
         NFxFlg=           0 DoJE=F BraDBF=F KetDBF=F FulRan=T
         wScrn=  0.000000 ICntrl=     600 IOpCl=  0 I1Cent=           0 NGrid=           0
         NMat0=    1 NMatS0=   3916 NMatT0=    0 NMatD0=    1 NMtDS0=    0 NMtDT0=    0
 Petite list used in FoFCou.

 Cycle   1  Pass 1  IDiag  1:
 E= -113.119247423739    
 DIIS: error= 5.10D-02 at cycle   1 NSaved=   1.
 NSaved= 1 IEnMin= 1 EnMin= -113.119247423739     IErMin= 1 ErrMin= 5.10D-02
 ErrMax= 5.10D-02  0.00D+00 EMaxC= 1.00D-01 BMatC= 2.46D-01 BMatP= 2.46D-01
 IDIUse=3 WtCom= 4.90D-01 WtEn= 5.10D-01
 Coeff-Com:  0.100D+01
 Coeff-En:   0.100D+01
 Coeff:      0.100D+01
 Gap=     0.291 Goal=   None    Shift=    0.000
 GapD=    0.291 DampG=1.000 DampE=0.500 DampFc=0.5000 IDamp=-1.
 Damping current iteration by 5.00D-01
 RMSDP=1.46D-02 MaxDP=4.82D-01              OVMax= 2.34D-01

 Cycle   2  Pass 1  IDiag  1:
 E= -113.188740889071     Delta-E=       -0.069493465332 Rises=F Damp=T
 DIIS: error= 2.61D-02 at cycle   2 NSaved=   2.
 NSaved= 2 IEnMin= 2 EnMin= -113.188740889071     IErMin= 2 ErrMin= 2.61D-02
 ErrMax= 2.61D-02  0.00D+00 EMaxC= 1.00D-01 BMatC= 4.32D-02 BMatP= 2.46D-01
 IDIUse=3 WtCom= 7.39D-01 WtEn= 2.61D-01
 Coeff-Com: -0.446D+00 0.145D+01
 Coeff-En:   0.000D+00 0.100D+01
 Coeff:     -0.329D+00 0.133D+01
 Gap=     0.243 Goal=   None    Shift=    0.000
 RMSDP=2.68D-03 MaxDP=4.71D-02 DE=-6.95D-02 OVMax= 6.71D-02

 Cycle   3  Pass 1  IDiag  1:
 E= -113.251909529575     Delta-E=       -0.063168640504 Rises=F Damp=F
 DIIS: error= 6.33D-03 at cycle   3 NSaved=   3.
 NSaved= 3 IEnMin= 3 EnMin= -113.251909529575     IErMin= 3 ErrMin= 6.33D-03
 ErrMax= 6.33D-03  0.00D+00 EMaxC= 1.00D-01 BMatC= 2.67D-03 BMatP= 4.32D-02
 IDIUse=3 WtCom= 9.37D-01 WtEn= 6.33D-02
 Coeff-Com: -0.147D+00 0.282D+00 0.865D+00
 Coeff-En:   0.000D+00 0.000D+00 0.100D+01
 Coeff:     -0.138D+00 0.264D+00 0.873D+00
 Gap=     0.245 Goal=   None    Shift=    0.000
 RMSDP=5.88D-04 MaxDP=1.55D-02 DE=-6.32D-02 OVMax= 1.71D-02

 Cycle   4  Pass 1  IDiag  1:
 E= -113.253850574012     Delta-E=       -0.001941044438 Rises=F Damp=F
 DIIS: error= 1.52D-03 at cycle   4 NSaved=   4.
 NSaved= 4 IEnMin= 4 EnMin= -113.253850574012     IErMin= 4 ErrMin= 1.52D-03
 ErrMax= 1.52D-03  0.00D+00 EMaxC= 1.00D-01 BMatC= 2.80D-04 BMatP= 2.67D-03
 IDIUse=3 WtCom= 9.85D-01 WtEn= 1.52D-02
 Coeff-Com: -0.168D-01 0.154D-01 0.260D+00 0.741D+00
 Coeff-En:   0.000D+00 0.000D+00 0.000D+00 0.100D+01
 Coeff:     -0.166D-01 0.152D-01 0.257D+00 0.745D+00
 Gap=     0.241 Goal=   None    Shift=    0.000
 RMSDP=3.64D-04 MaxDP=1.16D-02 DE=-1.94D-03 OVMax= 1.00D-02

 Cycle   5  Pass 1  IDiag  1:
 E= -113.254207170694     Delta-E=       -0.000356596682 Rises=F Damp=F
 DIIS: error= 4.96D-04 at cycle   5 NSaved=   5.
 NSaved= 5 IEnMin= 5 EnMin= -113.254207170694     IErMin= 5 ErrMin= 4.96D-04
 ErrMax= 4.96D-04  0.00D+00 EMaxC= 1.00D-01 BMatC= 2.33D-05 BMatP= 2.80D-04
 IDIUse=3 WtCom= 9.95D-01 WtEn= 4.96D-03
 Coeff-Com:  0.221D-01-0.366D-01-0.167D+00-0.131D+00 0.131D+01
 Coeff-En:   0.000D+00 0.000D+00 0.000D+00 0.000D+00 0.100D+01
 Coeff:      0.220D-01-0.364D-01-0.167D+00-0.130D+00 0.131D+01
 Gap=     0.242 Goal=   None    Shift=    0.000
 RMSDP=2.14D-04 MaxDP=6.35D-03 DE=-3.57D-04 OVMax= 8.68D-03

 Cycle   6  Pass 1  IDiag  1:
 E= -113.254295402103     Delta-E=       -0.000088231409 Rises=F Damp=F
 DIIS: error= 1.72D-04 at cycle   6 NSaved=   6.
 NSaved= 6 IEnMin= 6 EnMin= -113.254295402103     IErMin= 6 ErrMin= 1.72D-04
 ErrMax= 1.72D-04  0.00D+00 EMaxC= 1.00D-01 BMatC= 1.83D-06 BMatP= 2.33D-05
 IDIUse=3 WtCom= 9.98D-01 WtEn= 1.72D-03
 Coeff-Com: -0.340D-02 0.623D-02 0.274D-01 0.457D-03-0.437D+00 0.141D+01
 Coeff-En:   0.000D+00 0.000D+00 0.000D+00 0.000D+00 0.000D+00 0.100D+01
 Coeff:     -0.340D-02 0.622D-02 0.274D-01 0.456D-03-0.436D+00 0.141D+01
 Gap=     0.243 Goal=   None    Shift=    0.000
 RMSDP=1.15D-04 MaxDP=4.36D-03 DE=-8.82D-05 OVMax= 4.56D-03

 Cycle   7  Pass 1  IDiag  1:
 E= -113.254309687013     Delta-E=       -0.000014284910 Rises=F Damp=F
 DIIS: error= 6.51D-05 at cycle   7 NSaved=   7.
 NSaved= 7 IEnMin= 7 EnMin= -113.254309687013     IErMin= 7 ErrMin= 6.51D-05
 ErrMax= 6.51D-05  0.00D+00 EMaxC= 1.00D-01 BMatC= 2.24D-07 BMatP= 1.83D-06
 IDIUse=1 WtCom= 1.00D+00 WtEn= 0.00D+00
 Coeff-Com: -0.833D-03 0.108D-02 0.865D-02 0.127D-01 0.399D-01-0.629D+00
 Coeff-Com:  0.157D+01
 Coeff:     -0.833D-03 0.108D-02 0.865D-02 0.127D-01 0.399D-01-0.629D+00
 Coeff:      0.157D+01
 Gap=     0.243 Goal=   None    Shift=    0.000
 RMSDP=6.94D-05 MaxDP=2.76D-03 DE=-1.43D-05 OVMax= 2.32D-03

 Cycle   8  Pass 1  IDiag  1:
 E= -113.254311976364     Delta-E=       -0.000002289351 Rises=F Damp=F
 DIIS: error= 1.26D-05 at cycle   8 NSaved=   8.
 NSaved= 8 IEnMin= 8 EnMin= -113.254311976364     IErMin= 8 ErrMin= 1.26D-05
 ErrMax= 1.26D-05  0.00D+00 EMaxC= 1.00D-01 BMatC= 1.58D-08 BMatP= 2.24D-07
 IDIUse=1 WtCom= 1.00D+00 WtEn= 0.00D+00
 Coeff-Com:  0.811D-03-0.133D-02-0.579D-02-0.560D-02 0.195D-01 0.137D+00
 Coeff-Com: -0.642D+00 0.150D+01
 Coeff:      0.811D-03-0.133D-02-0.579D-02-0.560D-02 0.195D-01 0.137D+00
 Coeff:     -0.642D+00 0.150D+01
 Gap=     0.243 Goal=   None    Shift=    0.000
 RMSDP=2.67D-05 MaxDP=1.01D-03 DE=-2.29D-06 OVMax= 6.96D-04

 Cycle   9  Pass 1  IDiag  1:
 E= -113.254312149012     Delta-E=       -0.000000172648 Rises=F Damp=F
 DIIS: error= 4.03D-06 at cycle   9 NSaved=   9.
 NSaved= 9 IEnMin= 9 EnMin= -113.254312149012     IErMin= 9 ErrMin= 4.03D-06
 ErrMax= 4.03D-06  0.00D+00 EMaxC= 1.00D-01 BMatC= 1.24D-09 BMatP= 1.58D-08
 IDIUse=1 WtCom= 1.00D+00 WtEn= 0.00D+00
 Coeff-Com: -0.320D-03 0.542D-03 0.218D-02 0.187D-02-0.126D-01-0.141D-01
 Coeff-Com:  0.171D+00-0.673D+00 0.152D+01
 Coeff:     -0.320D-03 0.542D-03 0.218D-02 0.187D-02-0.126D-01-0.141D-01
 Coeff:      0.171D+00-0.673D+00 0.152D+01
 Gap=     0.243 Goal=   None    Shift=    0.000
 RMSDP=7.87D-06 MaxDP=2.80D-04 DE=-1.73D-07 OVMax= 1.68D-04

 Cycle  10  Pass 1  IDiag  1:
 E= -113.254312160771     Delta-E=       -0.000000011759 Rises=F Damp=F
 DIIS: error= 1.40D-06 at cycle  10 NSaved=  10.
 NSaved=10 IEnMin=10 EnMin= -113.254312160771     IErMin=10 ErrMin= 1.40D-06
 ErrMax= 1.40D-06  0.00D+00 EMaxC= 1.00D-01 BMatC= 1.40D-10 BMatP= 1.24D-09
 IDIUse=1 WtCom= 1.00D+00 WtEn= 0.00D+00
 Coeff-Com:  0.700D-04-0.120D-03-0.564D-03-0.382D-03 0.331D-02-0.155D-02
 Coeff-Com: -0.366D-01 0.234D+00-0.852D+00 0.165D+01
 Coeff:      0.700D-04-0.120D-03-0.564D-03-0.382D-03 0.331D-02-0.155D-02
 Coeff:     -0.366D-01 0.234D+00-0.852D+00 0.165D+01
 Gap=     0.243 Goal=   None    Shift=    0.000
 RMSDP=1.84D-06 MaxDP=6.05D-05 DE=-1.18D-08 OVMax= 4.16D-05

 Cycle  11  Pass 1  IDiag  1:
 E= -113.254312161625     Delta-E=       -0.000000000854 Rises=F Damp=F
 DIIS: error= 3.20D-07 at cycle  11 NSaved=  11.
 NSaved=11 IEnMin=11 EnMin= -113.254312161625     IErMin=11 ErrMin= 3.20D-07
 ErrMax= 3.20D-07  0.00D+00 EMaxC= 1.00D-01 BMatC= 5.61D-12 BMatP= 1.40D-10
 IDIUse=1 WtCom= 1.00D+00 WtEn= 0.00D+00
 Coeff-Com: -0.145D-05 0.286D-05 0.341D-04 0.490D-04-0.202D-03 0.101D-02
 Coeff-Com:  0.363D-03-0.270D-01 0.158D+00-0.467D+00 0.133D+01
 Coeff:     -0.145D-05 0.286D-05 0.341D-04 0.490D-04-0.202D-03 0.101D-02
 Coeff:      0.363D-03-0.270D-01 0.158D+00-0.467D+00 0.133D+01
 Gap=     0.243 Goal=   None    Shift=    0.000
 RMSDP=2.29D-07 MaxDP=9.74D-06 DE=-8.54D-10 OVMax= 3.11D-06

 Cycle  12  Pass 1  IDiag  1:
 E= -113.254312161645     Delta-E=       -0.000000000020 Rises=F Damp=F
 DIIS: error= 9.94D-08 at cycle  12 NSaved=  12.
 NSaved=12 IEnMin=12 EnMin= -113.254312161645     IErMin=12 ErrMin= 9.94D-08
 ErrMax= 9.94D-08  0.00D+00 EMaxC= 1.00D-01 BMatC= 6.47D-13 BMatP= 5.61D-12
 IDIUse=1 WtCom= 1.00D+00 WtEn= 0.00D+00
 Coeff-Com: -0.359D-05 0.637D-05 0.194D-04 0.270D-04-0.121D-03-0.538D-04
 Coeff-Com:  0.228D-02-0.114D-01 0.407D-01-0.716D-01-0.139D+00 0.118D+01
 Coeff:     -0.359D-05 0.637D-05 0.194D-04 0.270D-04-0.121D-03-0.538D-04
 Coeff:      0.228D-02-0.114D-01 0.407D-01-0.716D-01-0.139D+00 0.118D+01
 Gap=     0.243 Goal=   None    Shift=    0.000
 RMSDP=1.29D-07 MaxDP=4.29D-06 DE=-1.98D-11 OVMax= 1.37D-06

 Cycle  13  Pass 1  IDiag  1:
 E= -113.254312161647     Delta-E=       -0.000000000002 Rises=F Damp=F
 DIIS: error= 2.22D-08 at cycle  13 NSaved=  13.
 NSaved=13 IEnMin=13 EnMin= -113.254312161647     IErMin=13 ErrMin= 2.22D-08
 ErrMax= 2.22D-08  0.00D+00 EMaxC= 1.00D-01 BMatC= 5.25D-14 BMatP= 6.47D-13
 IDIUse=1 WtCom= 1.00D+00 WtEn= 0.00D+00
 Coeff-Com:  0.167D-05-0.285D-05-0.139D-04-0.106D-04 0.735D-04-0.727D-04
 Coeff-Com: -0.875D-03 0.582D-02-0.236D-01 0.565D-01-0.772D-01-0.317D+00
 Coeff-Com:  0.136D+01
 Coeff:      0.167D-05-0.285D-05-0.139D-04-0.106D-04 0.735D-04-0.727D-04
 Coeff:     -0.875D-03 0.582D-02-0.236D-01 0.565D-01-0.772D-01-0.317D+00
 Coeff:      0.136D+01
 Gap=     0.243 Goal=   None    Shift=    0.000
 RMSDP=3.93D-08 MaxDP=1.19D-06 DE=-2.25D-12 OVMax= 4.13D-07

 Cycle  14  Pass 1  IDiag  1:
 E= -113.254312161647     Delta-E=       -0.000000000000 Rises=F Damp=F
 DIIS: error= 6.82D-09 at cycle  14 NSaved=  14.
 NSaved=14 IEnMin=14 EnMin= -113.254312161647     IErMin=14 ErrMin= 6.82D-09
 ErrMax= 6.82D-09  0.00D+00 EMaxC= 1.00D-01 BMatC= 2.72D-15 BMatP= 5.25D-14
 IDIUse=1 WtCom= 1.00D+00 WtEn= 0.00D+00
 Coeff-Com: -0.775D-07 0.112D-06 0.203D-05 0.209D-05-0.782D-05 0.160D-04
 Coeff-Com:  0.853D-04-0.765D-03 0.346D-02-0.100D-01 0.272D-01 0.317D-01
 Coeff-Com: -0.438D+00 0.139D+01
 Coeff:     -0.775D-07 0.112D-06 0.203D-05 0.209D-05-0.782D-05 0.160D-04
 Coeff:      0.853D-04-0.765D-03 0.346D-02-0.100D-01 0.272D-01 0.317D-01
 Coeff:     -0.438D+00 0.139D+01
 Gap=     0.243 Goal=   None    Shift=    0.000
 RMSDP=4.59D-09 MaxDP=9.92D-08 DE=-4.55D-13 OVMax= 1.08D-07

 SCF Done:  E(RHF) =  -113.254312162     A.U. after   14 cycles
            NFock= 14  Conv=0.46D-08     -V/T= 2.0015
 KE= 1.130869423432D+02 PE=-3.218133156588D+02 EE= 7.028602425298D+01
 Leave Link  502 at Sat Mar  9 01:14:04 2019, MaxMem=    33554432 cpu:         6.1
 (Enter /home/proyectos/fulerenos/M3C-v2.0/M3C-deps_CCC/g09-AM64L-G09RevC.01/l801.exe)
 Windowed orbitals will be sorted by symmetry type.
 ExpMin= 3.60D-02 ExpMax= 8.59D+03 ExpMxC= 1.30D+03 IAcc=3 IRadAn=         5 AccDes= 0.00D+00
 HarFok:  IExCor=  205 AccDes= 0.00D+00 IRadAn=         5 IDoV=-2 UseB2=F ITyADJ=14
 ICtDFT= 12500011 ScaDFX=  1.000000  1.000000  1.000000  1.000000
 Largest valence mixing into a core orbital is  1.80D-04
 Largest core mixing into a valence orbital is  4.76D-05
 Range of M.O.s used for correlation:     3    88
 NBasis=    88 NAE=     8 NBE=     8 NFC=     2 NFV=     0
 NROrb=     86 NOA=     6 NOB=     6 NVA=    80 NVB=    80
 Leave Link  801 at Sat Mar  9 01:14:04 2019, MaxMem=    33554432 cpu:         0.7
 (Enter /home/proyectos/fulerenos/M3C-v2.0/M3C-deps_CCC/g09-AM64L-G09RevC.01/l804.exe)
 Closed-shell transformation, MDV=    33554432 ITran=4 ISComp=2.
 Semi-Direct transformation.
 ModeAB=           2 MOrb=             6 LenV=      33208423
 LASXX=       922879 LTotXX=      922879 LenRXX=      922879
 LTotAB=      959856 MaxLAS=     2605800 LenRXY=     2605800
 NonZer=     2726544 LenScr=     4770304 LnRSAI=           0
 LnScr1=           0 LExtra=           0 Total=      8298983
 MaxDsk=          -1 SrtSym=           F ITran=            4
 DoSDTr:  NPSUse=  4
 JobTyp=0 Pass  1:  I=   1 to   6.
 (rs|ai) integrals will be sorted in core.
 Complete sort for first half transformation.
 First half transformation complete.
 Complete sort for second half transformation.
 Second half transformation complete.
 Spin components of T(2) and E(2):
     alpha-alpha T2 =       0.1600195710D-01 E2=     -0.5021257231D-01
     alpha-beta  T2 =       0.9692147890D-01 E2=     -0.3024510060D+00
     beta-beta   T2 =       0.1600195710D-01 E2=     -0.5021257231D-01
 ANorm=    0.1062509008D+01
 E2 =    -0.4028761506D+00 EUMP2 =    -0.11365718831223D+03
 Leave Link  804 at Sat Mar  9 01:14:06 2019, MaxMem=    33554432 cpu:         7.7
 (Enter /home/proyectos/fulerenos/M3C-v2.0/M3C-deps_CCC/g09-AM64L-G09RevC.01/l913.exe)
 CIDS:  MDV=    33554432.
 Frozen-core window:  NFC=   2 NFV=   0.
 IFCWin=0 IBDFC=1 NFBD=     0     0 NFCmp=     0     0 NFFFC=     0     0
 Using DD3R+UMP44R for 1st iteration, S=T.
 Using DD4RQ for 2nd and later iterations.
 Keep R2 and R3 ints in memory in symmetry-blocked form, NReq=11749484.
 FoFCou: FMM=F IPFlag=           0 FMFlag=           0 FMFlg1=           0
         NFxFlg=           0 DoJE=F BraDBF=F KetDBF=F FulRan=T
         wScrn=  0.000000 ICntrl=     600 IOpCl=  0 I1Cent=           0 NGrid=           0
         NMat0=    1 NMatS0=   3916 NMatT0=    0 NMatD0=    1 NMtDS0=    0 NMtDT0=    0
 Petite list used in FoFCou.
 CCSD(T)
 =======
 Iterations= 200 Convergence= 0.100D-06
 Iteration Nr.   1
 **********************
 DD1Dir will call FoFMem   1 times, MxPair=        42
 NAB=    21 NAA=     0 NBB=     0.
 MP4(R+Q)=  0.97309576D-02
 Maximum subspace dimension=  5
 Norm of the A-vectors is  4.8776765D-01 conv= 1.00D-05.
 RLE energy=       -0.3937987770
 E3=       -0.92611184D-03        EUMP3=      -0.11365811442D+03
 E4(DQ)=   -0.21998639D-02        UMP4(DQ)=   -0.11366031429D+03
 E4(SDQ)=  -0.91833661D-02        UMP4(SDQ)=  -0.11366729779D+03
 VARIATIONAL ENERGIES WITH THE FIRST-ORDER WAVEFUNCTION:
 DE(Corr)= -0.39359010     E(Corr)=     -113.64790226    
 NORM(A)=   0.10641887D+01
 Iteration Nr.   2
 **********************
 DD1Dir will call FoFMem   1 times, MxPair=        42
 NAB=    21 NAA=     0 NBB=     0.
 Norm of the A-vectors is  2.0991717D-01 conv= 1.00D-05.
 RLE energy=       -0.4091968707
 DE(Corr)= -0.40928380     E(CORR)=     -113.66359596     Delta=-1.57D-02
 NORM(A)=   0.10716615D+01
 Iteration Nr.   3
 **********************
 DD1Dir will call FoFMem   1 times, MxPair=        42
 NAB=    21 NAA=     0 NBB=     0.
 Norm of the A-vectors is  6.7051257D-02 conv= 1.00D-05.
 RLE energy=       -0.4103199874
 DE(Corr)= -0.40865136     E(CORR)=     -113.66296353     Delta= 6.32D-04
 NORM(A)=   0.10744074D+01
 Iteration Nr.   4
 **********************
 DD1Dir will call FoFMem   1 times, MxPair=        42
 NAB=    21 NAA=     0 NBB=     0.
 Norm of the A-vectors is  3.2898522D-02 conv= 1.00D-05.
 RLE energy=       -0.4104186700
 DE(Corr)= -0.41026072     E(CORR)=     -113.66457288     Delta=-1.61D-03
 NORM(A)=   0.10753532D+01
 Iteration Nr.   5
 **********************
 DD1Dir will call FoFMem   1 times, MxPair=        42
 NAB=    21 NAA=     0 NBB=     0.
 Norm of the A-vectors is  1.1062728D-02 conv= 1.00D-05.
 RLE energy=       -0.4105184022
 DE(Corr)= -0.41048895     E(CORR)=     -113.66480111     Delta=-2.28D-04
 NORM(A)=   0.10757013D+01
 Iteration Nr.   6
 **********************
 DD1Dir will call FoFMem   1 times, MxPair=        42
 NAB=    21 NAA=     0 NBB=     0.
 Norm of the A-vectors is  6.6825666D-03 conv= 1.00D-05.
 RLE energy=       -0.4105503827
 DE(Corr)= -0.41051132     E(CORR)=     -113.66482348     Delta=-2.24D-05
 NORM(A)=   0.10758186D+01
 Iteration Nr.   7
 **********************
 DD1Dir will call FoFMem   1 times, MxPair=        42
 NAB=    21 NAA=     0 NBB=     0.
 Norm of the A-vectors is  2.2096669D-03 conv= 1.00D-05.
 RLE energy=       -0.4104928973
 DE(Corr)= -0.41051512     E(CORR)=     -113.66482729     Delta=-3.81D-06
 NORM(A)=   0.10758357D+01
 Iteration Nr.   8
 **********************
 DD1Dir will call FoFMem   1 times, MxPair=        42
 NAB=    21 NAA=     0 NBB=     0.
 Norm of the A-vectors is  1.1060347D-03 conv= 1.00D-05.
 RLE energy=       -0.4105177605
 DE(Corr)= -0.41051883     E(CORR)=     -113.66483099     Delta=-3.71D-06
 NORM(A)=   0.10758607D+01
 Iteration Nr.   9
 **********************
 DD1Dir will call FoFMem   1 times, MxPair=        42
 NAB=    21 NAA=     0 NBB=     0.
 Norm of the A-vectors is  6.2695281D-04 conv= 1.00D-05.
 RLE energy=       -0.4105110686
 DE(Corr)= -0.41051264     E(CORR)=     -113.66482480     Delta= 6.20D-06
 NORM(A)=   0.10758658D+01
 Iteration Nr.  10
 **********************
 DD1Dir will call FoFMem   1 times, MxPair=        42
 NAB=    21 NAA=     0 NBB=     0.
 Norm of the A-vectors is  3.0407603D-04 conv= 1.00D-05.
 RLE energy=       -0.4105147193
 DE(Corr)= -0.41051564     E(CORR)=     -113.66482780     Delta=-3.01D-06
 NORM(A)=   0.10758701D+01
 Iteration Nr.  11
 **********************
 DD1Dir will call FoFMem   1 times, MxPair=        42
 NAB=    21 NAA=     0 NBB=     0.
 Norm of the A-vectors is  1.5600102D-04 conv= 1.00D-05.
 RLE energy=       -0.4105155115
 DE(Corr)= -0.41051495     E(CORR)=     -113.66482711     Delta= 6.92D-07
 NORM(A)=   0.10758732D+01
 Iteration Nr.  12
 **********************
 DD1Dir will call FoFMem   1 times, MxPair=        42
 NAB=    21 NAA=     0 NBB=     0.
 Norm of the A-vectors is  8.7718596D-05 conv= 1.00D-05.
 RLE energy=       -0.4105162400
 DE(Corr)= -0.41051606     E(CORR)=     -113.66482822     Delta=-1.11D-06
 NORM(A)=   0.10758747D+01
 Iteration Nr.  13
 **********************
 DD1Dir will call FoFMem   1 times, MxPair=        42
 NAB=    21 NAA=     0 NBB=     0.
 Norm of the A-vectors is  4.0213215D-05 conv= 1.00D-05.
 RLE energy=       -0.4105161990
 DE(Corr)= -0.41051602     E(CORR)=     -113.66482818     Delta= 4.19D-08
 NORM(A)=   0.10758757D+01
 Iteration Nr.  14
 **********************
 DD1Dir will call FoFMem   1 times, MxPair=        42
 NAB=    21 NAA=     0 NBB=     0.
 Norm of the A-vectors is  3.2254832D-05 conv= 1.00D-05.
 RLE energy=       -0.4105163936
 DE(Corr)= -0.41051635     E(CORR)=     -113.66482851     Delta=-3.30D-07
 NORM(A)=   0.10758762D+01
 Iteration Nr.  15
 **********************
 DD1Dir will call FoFMem   1 times, MxPair=        42
 NAB=    21 NAA=     0 NBB=     0.
 Norm of the A-vectors is  1.4615051D-05 conv= 1.00D-05.
 RLE energy=       -0.4105163261
 DE(Corr)= -0.41051629     E(CORR)=     -113.66482845     Delta= 5.71D-08
 NORM(A)=   0.10758764D+01
 Iteration Nr.  16
 **********************
 DD1Dir will call FoFMem   1 times, MxPair=        42
 NAB=    21 NAA=     0 NBB=     0.
 Norm of the A-vectors is  1.0704127D-05 conv= 1.00D-05.
 RLE energy=       -0.4105162891
 DE(Corr)= -0.41051631     E(CORR)=     -113.66482847     Delta=-1.82D-08
 NORM(A)=   0.10758765D+01
 Iteration Nr.  17
 **********************
 DD1Dir will call FoFMem   1 times, MxPair=        42
 NAB=    21 NAA=     0 NBB=     0.
 Norm of the A-vectors is  4.4896461D-06 conv= 1.00D-05.
 RLE energy=       -0.4105162968
 DE(Corr)= -0.41051630     E(CORR)=     -113.66482846     Delta= 1.12D-08
 NORM(A)=   0.10758765D+01
 CI/CC converged in   17 iterations to DelEn= 1.12D-08 Conv= 1.00D-07 ErrA1= 4.49D-06 Conv= 1.00D-05
 Largest amplitude= 6.02D-02
 IPart=  3 IA=    6   12.18% done.
 IPart=  3 IA=   10   21.36% done.
 IPart=  3 IA=   14   30.03% done.
 IPart=  2 IA=   19   40.16% done.
 IPart=  2 IA=   25   51.27% done.
 IPart=  1 IA=   31   61.23% done.
 IPart=  1 IA=   37   70.06% done.
 IPart=  4 IA=   45   80.06% done.
 IPart=  2 IA=   56   90.51% done.
 Time for triples=       28.68 seconds.
 T4(CCSD)= -0.21735082D-01
 T5(CCSD)=  0.15553137D-02
 CCSD(T)= -0.11368500823D+03
 Discarding MO integrals.
 Leave Link  913 at Sat Mar  9 01:14:27 2019, MaxMem=    33554432 cpu:        85.2
 (Enter /home/proyectos/fulerenos/M3C-v2.0/M3C-deps_CCC/g09-AM64L-G09RevC.01/l601.exe)
 Copying SCF densities to generalized density rwf, IOpCl= 0 IROHF=0.

 **********************************************************************

            Population analysis using the SCF density.

 **********************************************************************

 Orbital symmetries:
       Occupied  (A') (A') (A') (A') (A') (A') (A") (A')
       Virtual   (A') (A') (A") (A') (A') (A") (A') (A') (A") (A')
                 (A') (A") (A') (A') (A') (A") (A') (A') (A") (A')
                 (A') (A') (A") (A') (A") (A') (A") (A') (A') (A')
                 (A") (A') (A') (A") (A') (A") (A') (A') (A') (A')
                 (A") (A') (A") (A") (A') (A') (A") (A') (A') (A")
                 (A') (A') (A') (A") (A") (A') (A') (A') (A") (A')
                 (A") (A') (A") (A') (A') (A') (A") (A') (A") (A')
                 (A") (A') (A') (A") (A') (A") (A') (A') (A') (A')
 The electronic state is 1-A'.
 Alpha  occ. eigenvalues --  -20.32842 -11.06944  -1.15435  -0.51280  -0.36675
 Alpha  occ. eigenvalues --   -0.30768  -0.29781  -0.03993
 Alpha virt. eigenvalues --    0.20276   0.24568   0.26013   0.28418   0.33272
 Alpha virt. eigenvalues --    0.40358   0.44139   0.46759   0.48886   0.48922
 Alpha virt. eigenvalues --    0.53679   0.67368   0.71030   0.74782   0.78581
 Alpha virt. eigenvalues --    0.82965   0.89346   0.94349   0.95638   1.03490
 Alpha virt. eigenvalues --    1.15883   1.19923   1.21838   1.35544   1.38603
 Alpha virt. eigenvalues --    1.39825   1.43579   1.43840   1.54744   1.62158
 Alpha virt. eigenvalues --    1.71822   1.77218   1.87671   2.10367   2.21558
 Alpha virt. eigenvalues --    2.34447   2.44038   2.52168   2.64564   3.26078
 Alpha virt. eigenvalues --    3.35116   3.41466   3.41521   3.45354   3.50025
 Alpha virt. eigenvalues --    3.53020   3.54882   3.68427   3.80777   4.10633
 Alpha virt. eigenvalues --    4.13250   4.17868   4.51895   4.52474   4.72236
 Alpha virt. eigenvalues --    4.82881   4.96376   5.20561   5.72947   5.73862
 Alpha virt. eigenvalues --    5.90333   5.96046   6.09174   6.13054   6.18248
 Alpha virt. eigenvalues --    6.70706   6.97177   7.00713   7.64694   7.74278
 Alpha virt. eigenvalues --    7.89261   8.13909   8.53816  15.24369  15.25769
 Alpha virt. eigenvalues --   15.58798  15.61829  15.82172  26.10656  52.28892
          Condensed to atoms (all electrons):
               1          2          3
     1  C    7.198108  -0.940120  -0.291756
     2  H   -0.940120   2.319244   0.044422
     3  O   -0.291756   0.044422   8.857556
 Mulliken charges:
               1
     1  C    0.033768
     2  H   -0.423546
     3  O   -0.610222
 Sum of Mulliken charges =  -1.00000
 Mulliken charges with hydrogens summed into heavy atoms:
               1
     1  C   -0.389778
     3  O   -0.610222
 Electronic spatial extent (au):  <R**2>=             72.6151
 Charge=             -1.0000 electrons
 Dipole moment (field-independent basis, Debye):
    X=              0.8026    Y=             -2.1833    Z=              0.0000  Tot=              2.3261
 Quadrupole moment (field-independent basis, Debye-Ang):
   XX=            -21.7633   YY=            -22.1510   ZZ=            -14.9089
   XY=              1.7540   XZ=              0.0000   YZ=              0.0000
 Traceless Quadrupole moment (field-independent basis, Debye-Ang):
   XX=             -2.1556   YY=             -2.5432   ZZ=              4.6988
   XY=              1.7540   XZ=              0.0000   YZ=              0.0000
 Octapole moment (field-independent basis, Debye-Ang**2):
  XXX=             11.9568  YYY=            -19.0899  ZZZ=              0.0000  XYY=              4.3142
  XXY=            -12.8059  XXZ=              0.0000  XZZ=              1.4896  YZZ=             -4.1986
  YYZ=              0.0000  XYZ=              0.0000
 Hexadecapole moment (field-independent basis, Debye-Ang**3):
 XXXX=            -79.8188 YYYY=            -91.2706 ZZZZ=            -21.3636 XXXY=             20.9263
 XXXZ=              0.0000 YYYX=             16.1209 YYYZ=              0.0000 ZZZX=              0.0000
 ZZZY=              0.0000 XXYY=            -36.3994 XXZZ=            -15.3822 YYZZ=            -17.3353
 XXYZ=              0.0000 YYXZ=              0.0000 ZZXY=              3.7436
 N-N= 2.518603690100D+01 E-N=-3.218133157518D+02  KE= 1.130869423432D+02
 Symmetry A'   KE= 1.094630333467D+02
 Symmetry A"   KE= 3.623908996498D+00
 Leave Link  601 at Sat Mar  9 01:14:28 2019, MaxMem=    33554432 cpu:         0.4
 (Enter /home/proyectos/fulerenos/M3C-v2.0/M3C-deps_CCC/g09-AM64L-G09RevC.01/l9999.exe)
 1\1\GINC-FOSFORO\SP\RCCSD(T)-FC\6-311++G(3df,2p)\C1H1O1(1-)\NAGUIRRE\0
 9-Mar-2019\0\\#p ccsd(t,maxcyc=200)/6-311++G(3df,2p)\\ccsd(t) iener\\-
 1,1\C,0,-0.638215,-0.314397,0.\H,0,-0.381331,-1.678899,0.\O,0,0.315116
 ,0.43062,0.\\Version=EM64L-G09RevE.01\State=1-A'\HF=-113.2543122\MP2=-
 113.6571883\MP3=-113.6581144\MP4D=-113.6700452\MP4DQ=-113.6603143\MP4S
 DQ=-113.6672978\CCSD=-113.6648285\CCSD(T)=-113.6850082\RMSD=4.586e-09\
 PG=CS [SG(C1H1O1)]\\@


 In the beginning the Universe was created.
 This has made a lot of people very angry
 and been widely regarded as a bad move.
                               -D.Adams
 Job cpu time:       0 days  0 hours  1 minutes 45.2 seconds.
 File lengths (MBytes):  RWF=    101 Int=      0 D2E=      0 Chk=      2 Scr=      1
 Normal termination of Gaussian 09 at Sat Mar  9 01:14:28 2019.
