4
Energy =   -168.823299421     
C -0.534241000 -0.498727000  0.183282000
C -0.433545000 -0.050802000 -1.193691000
C  0.513574079  0.472590494 -0.226153215
N  0.379774503  0.020802577  1.062564184

FREQUENCIES 6
404.7250
421.8149
514.8199
995.8120
1227.9979
1369.8632

SYMMETRY CS
ELECTRONIC_STATE 2-A"
