4
Energy =   -168.756974631     
C -0.720717652 -0.511138640  0.223515468
C -0.313877879 -0.116960860 -1.064524479
C  0.537551348  0.661079360 -0.258507532
N  0.422527584 -0.089096022  0.925546179

FREQUENCIES 6
496.1957
715.6846
771.0846
997.2787
1096.5320
1281.7817

SYMMETRY CS
ELECTRONIC_STATE 4-A"
