5
Energy =   -206.956420121     
C -1.932131371  0.983126419 -0.018025883
C  1.653199793 -0.086387860  0.319465999
C  0.316297818 -0.111680142  0.003676170
C  1.125614589 -1.182010612 -0.291398150
N -0.871305282  0.466588310 -0.007786688

FREQUENCIES 9
185.4391
185.7661
499.8626
526.0361
728.1720
771.9509
1295.9931
1687.1615
2119.8603

SYMMETRY C2V
ELECTRONIC_STATE 2-B2
