 Entering Gaussian System, Link 0=/home/proyectos/fulerenos/M3C-v2.0/M3C-deps_CCC/g09-AM64L-G09RevC.01/g09
 Initial command:
 /home/proyectos/fulerenos/M3C-v2.0/M3C-deps_CCC/g09-AM64L-G09RevC.01/l1.exe "/scratch/naguirre/gaussian/Gau-47642.inp" -scrdir="/scratch/naguirre/gaussian/"
 Entering Link 1 = /home/proyectos/fulerenos/M3C-v2.0/M3C-deps_CCC/g09-AM64L-G09RevC.01/l1.exe PID=     47647.
  
 Copyright (c) 1988,1990,1992,1993,1995,1998,2003,2009,2015,
            Gaussian, Inc.  All Rights Reserved.
  
 This is part of the Gaussian(R) 09 program.  It is based on
 the Gaussian(R) 03 system (copyright 2003, Gaussian, Inc.),
 the Gaussian(R) 98 system (copyright 1998, Gaussian, Inc.),
 the Gaussian(R) 94 system (copyright 1995, Gaussian, Inc.),
 the Gaussian 92(TM) system (copyright 1992, Gaussian, Inc.),
 the Gaussian 90(TM) system (copyright 1990, Gaussian, Inc.),
 the Gaussian 88(TM) system (copyright 1988, Gaussian, Inc.),
 the Gaussian 86(TM) system (copyright 1986, Carnegie Mellon
 University), and the Gaussian 82(TM) system (copyright 1983,
 Carnegie Mellon University). Gaussian is a federally registered
 trademark of Gaussian, Inc.
  
 This software contains proprietary and confidential information,
 including trade secrets, belonging to Gaussian, Inc.
  
 This software is provided under written license and may be
 used, copied, transmitted, or stored only in accord with that
 written license.
  
 The following legend is applicable only to US Government
 contracts under FAR:
  
                    RESTRICTED RIGHTS LEGEND
  
 Use, reproduction and disclosure by the US Government is
 subject to restrictions as set forth in subparagraphs (a)
 and (c) of the Commercial Computer Software - Restricted
 Rights clause in FAR 52.227-19.
  
 Gaussian, Inc.
 340 Quinnipiac St., Bldg. 40, Wallingford CT 06492
  
  
 ---------------------------------------------------------------
 Warning -- This program may not be used in any manner that
 competes with the business of Gaussian, Inc. or will provide
 assistance to any competitor of Gaussian, Inc.  The licensee
 of this program is prohibited from giving any competitor of
 Gaussian, Inc. access to this program.  By using this program,
 the user acknowledges that Gaussian, Inc. is engaged in the
 business of creating and licensing software in the field of
 computational chemistry and represents and warrants to the
 licensee that it is not a competitor of Gaussian, Inc. and that
 it will not use this program in any manner prohibited above.
 ---------------------------------------------------------------
  

 Cite this work as:
 Gaussian 09, Revision E.01,
 M. J. Frisch, G. W. Trucks, H. B. Schlegel, G. E. Scuseria, 
 M. A. Robb, J. R. Cheeseman, G. Scalmani, V. Barone, B. Mennucci, 
 G. A. Petersson, H. Nakatsuji, M. Caricato, X. Li, H. P. Hratchian, 
 A. F. Izmaylov, J. Bloino, G. Zheng, J. L. Sonnenberg, M. Hada, 
 M. Ehara, K. Toyota, R. Fukuda, J. Hasegawa, M. Ishida, T. Nakajima, 
 Y. Honda, O. Kitao, H. Nakai, T. Vreven, J. A. Montgomery, Jr., 
 J. E. Peralta, F. Ogliaro, M. Bearpark, J. J. Heyd, E. Brothers, 
 K. N. Kudin, V. N. Staroverov, T. Keith, R. Kobayashi, J. Normand, 
 K. Raghavachari, A. Rendell, J. C. Burant, S. S. Iyengar, J. Tomasi, 
 M. Cossi, N. Rega, J. M. Millam, M. Klene, J. E. Knox, J. B. Cross, 
 V. Bakken, C. Adamo, J. Jaramillo, R. Gomperts, R. E. Stratmann, 
 O. Yazyev, A. J. Austin, R. Cammi, C. Pomelli, J. W. Ochterski, 
 R. L. Martin, K. Morokuma, V. G. Zakrzewski, G. A. Voth, 
 P. Salvador, J. J. Dannenberg, S. Dapprich, A. D. Daniels, 
 O. Farkas, J. B. Foresman, J. V. Ortiz, J. Cioslowski, 
 and D. J. Fox, Gaussian, Inc., Wallingford CT, 2013.
 
 ******************************************
 Gaussian 09:  EM64L-G09RevE.01 30-Nov-2015
                 8-Mar-2019 
 ******************************************
 %NProcShared=4
 Will use up to    4 processors via shared memory.
 --------------------------------------
 #p ccsd(t,maxcyc=200)/6-311++G(3df,2p)
 --------------------------------------
 1/38=1/1;
 2/12=2,17=6,18=5,40=1/2;
 3/5=4,6=6,7=1216,11=9,16=1,25=1,30=1/1,2,3;
 4//1;
 5/5=2,38=5/2;
 8/6=4,9=120000,10=2/1,4;
 9/5=7,6=200,14=2/13;
 6/7=2,8=2,9=2,10=2/1;
 99/5=1,9=1/99;
 Leave Link    1 at Fri Mar  8 05:37:46 2019, MaxMem=           0 cpu:         1.0
 (Enter /home/proyectos/fulerenos/M3C-v2.0/M3C-deps_CCC/g09-AM64L-G09RevC.01/l101.exe)
 -------------
 ccsd(t) iener
 -------------
 Symbolic Z-matrix:
 Charge = -1 Multiplicity = 4
 C                     1.41042   0.59785   0. 
 C                    -0.04883   0.13509   0. 
 O                    -0.86385  -0.77018   0. 
 
 NAtoms=      3 NQM=        3 NQMF=       0 NMMI=      0 NMMIF=      0
                NMic=       0 NMicF=      0.
                    Isotopes and Nuclear Properties:
 (Nuclear quadrupole moments (NQMom) in fm**2, nuclear magnetic moments (NMagM)
  in nuclear magnetons)

  Atom         1           2           3
 IAtWgt=          12          12          16
 AtmWgt=  12.0000000  12.0000000  15.9949146
 NucSpn=           0           0           0
 AtZEff=   0.0000000   0.0000000   0.0000000
 NQMom=    0.0000000   0.0000000   0.0000000
 NMagM=    0.0000000   0.0000000   0.0000000
 AtZNuc=   6.0000000   6.0000000   8.0000000
 Leave Link  101 at Fri Mar  8 05:37:46 2019, MaxMem=    33554432 cpu:         0.6
 (Enter /home/proyectos/fulerenos/M3C-v2.0/M3C-deps_CCC/g09-AM64L-G09RevC.01/l202.exe)
                          Input orientation:                          
 ---------------------------------------------------------------------
 Center     Atomic      Atomic             Coordinates (Angstroms)
 Number     Number       Type             X           Y           Z
 ---------------------------------------------------------------------
      1          6           0        1.410421    0.597849    0.000000
      2          6           0       -0.048832    0.135093    0.000000
      3          8           0       -0.863847   -0.770175    0.000000
 ---------------------------------------------------------------------
                    Distance matrix (angstroms):
                    1          2          3
     1  C    0.000000
     2  C    1.530870   0.000000
     3  O    2.654013   1.218097   0.000000
 Stoichiometry    C2O(1-,4)
 Framework group  CS[SG(C2O)]
 Deg. of freedom     3
 Full point group                 CS      NOp   2
 Largest Abelian subgroup         CS      NOp   2
 Largest concise Abelian subgroup C1      NOp   1
                         Standard orientation:                         
 ---------------------------------------------------------------------
 Center     Atomic      Atomic             Coordinates (Angstroms)
 Number     Number       Type             X           Y           Z
 ---------------------------------------------------------------------
      1          6           0        1.512035    0.010294    0.000000
      2          6           0        0.000000    0.249693    0.000000
      3          8           0       -1.134026   -0.194991    0.000000
 ---------------------------------------------------------------------
 Rotational constants (GHZ):    475.7826342     10.4633124     10.2381570
 Leave Link  202 at Fri Mar  8 05:37:46 2019, MaxMem=    33554432 cpu:         0.3
 (Enter /home/proyectos/fulerenos/M3C-v2.0/M3C-deps_CCC/g09-AM64L-G09RevC.01/l301.exe)
 Standard basis: 6-311++G(3df,2p) (5D, 7F)
 Ernie: Thresh=  0.10000D-02 Tol=  0.10000D-05 Strict=F.
 There are    93 symmetry adapted cartesian basis functions of A'  symmetry.
 There are    42 symmetry adapted cartesian basis functions of A"  symmetry.
 There are    78 symmetry adapted basis functions of A'  symmetry.
 There are    39 symmetry adapted basis functions of A"  symmetry.
   117 basis functions,   174 primitive gaussians,   135 cartesian basis functions
    12 alpha electrons        9 beta electrons
       nuclear repulsion energy        42.8673759474 Hartrees.
 IExCor=    0 DFT=F Ex=HF Corr=None ExCW=0 ScaHFX=  1.000000
 ScaDFX=  1.000000  1.000000  1.000000  1.000000 ScalE2=  1.000000  1.000000
 IRadAn=      0 IRanWt=     -1 IRanGd=            0 ICorTp=0 IEmpDi=  4
 NAtoms=    3 NActive=    3 NUniq=    3 SFac= 1.00D+00 NAtFMM=   60 NAOKFM=F Big=F
 Integral buffers will be    131072 words long.
 Raffenetti 2 integral format.
 Two-electron integral symmetry is turned on.
 Leave Link  301 at Fri Mar  8 05:37:48 2019, MaxMem=    33554432 cpu:         2.4
 (Enter /home/proyectos/fulerenos/M3C-v2.0/M3C-deps_CCC/g09-AM64L-G09RevC.01/l302.exe)
 NPDir=0 NMtPBC=     1 NCelOv=     1 NCel=       1 NClECP=     1 NCelD=      1
         NCelK=      1 NCelE2=     1 NClLst=     1 CellRange=     0.0.
 One-electron integrals computed using PRISM.
 NBasis=   117 RedAO= T EigKep=  1.99D-04  NBF=    78    39
 NBsUse=   117 1.00D-06 EigRej= -1.00D+00 NBFU=    78    39
 Leave Link  302 at Fri Mar  8 05:37:50 2019, MaxMem=    33554432 cpu:         2.9
 (Enter /home/proyectos/fulerenos/M3C-v2.0/M3C-deps_CCC/g09-AM64L-G09RevC.01/l303.exe)
 DipDrv:  MaxL=1.
 Leave Link  303 at Fri Mar  8 05:37:51 2019, MaxMem=    33554432 cpu:         0.4
 (Enter /home/proyectos/fulerenos/M3C-v2.0/M3C-deps_CCC/g09-AM64L-G09RevC.01/l401.exe)
 ExpMin= 4.38D-02 ExpMax= 8.59D+03 ExpMxC= 1.30D+03 IAcc=2 IRadAn=         4 AccDes= 0.00D+00
 Harris functional with IExCor=  205 and IRadAn=       4 diagonalized for initial guess.
 HarFok:  IExCor=  205 AccDes= 0.00D+00 IRadAn=         4 IDoV= 1 UseB2=F ITyADJ=14
 ICtDFT=  3500011 ScaDFX=  1.000000  1.000000  1.000000  1.000000
 FoFCou: FMM=F IPFlag=           0 FMFlag=      100000 FMFlg1=           0
         NFxFlg=           0 DoJE=T BraDBF=F KetDBF=T FulRan=T
         wScrn=  0.000000 ICntrl=     500 IOpCl=  0 I1Cent=   200000004 NGrid=           0
         NMat0=    1 NMatS0=      1 NMatT0=    0 NMatD0=    1 NMtDS0=    0 NMtDT0=    0
 Petite list used in FoFCou.
 Harris En= -150.554892816514    
 JPrj=0 DoOrth=F DoCkMO=F.
 Initial guess orbital symmetries:
 Alpha Orbitals:
       Occupied  (A') (A') (A') (A') (A') (A') (A") (A') (A') (A")
                 (A') (A')
       Virtual   (A") (A') (A') (A') (A") (A') (A') (A") (A') (A')
                 (A') (A") (A') (A') (A") (A') (A') (A') (A") (A')
                 (A") (A') (A") (A') (A') (A") (A') (A') (A') (A")
                 (A') (A') (A") (A') (A") (A') (A') (A') (A") (A')
                 (A") (A') (A') (A") (A') (A") (A') (A') (A') (A")
                 (A') (A') (A") (A') (A") (A') (A") (A') (A") (A')
                 (A") (A') (A") (A') (A') (A') (A") (A') (A') (A")
                 (A') (A") (A') (A') (A") (A') (A') (A") (A') (A")
                 (A') (A') (A") (A') (A') (A") (A') (A") (A') (A")
                 (A') (A") (A') (A") (A') (A') (A') (A") (A') (A")
                 (A') (A') (A') (A') (A')
 Beta  Orbitals:
       Occupied  (A') (A') (A') (A') (A') (A') (A") (A') (A')
       Virtual   (A") (A') (A') (A") (A') (A') (A') (A") (A') (A')
                 (A") (A') (A') (A') (A") (A') (A') (A") (A') (A')
                 (A') (A") (A') (A") (A') (A") (A') (A') (A") (A')
                 (A') (A') (A") (A') (A') (A") (A') (A") (A') (A')
                 (A') (A") (A') (A") (A') (A') (A") (A') (A") (A')
                 (A') (A') (A") (A') (A') (A") (A') (A") (A') (A")
                 (A') (A") (A') (A") (A') (A") (A') (A') (A') (A")
                 (A') (A') (A") (A') (A") (A') (A') (A") (A') (A')
                 (A") (A') (A") (A') (A') (A") (A') (A') (A") (A')
                 (A") (A') (A") (A') (A") (A') (A") (A') (A') (A')
                 (A") (A') (A") (A') (A') (A') (A') (A')
 The electronic state of the initial guess is 4-A".
 Initial guess <Sx>= 0.0000 <Sy>= 0.0000 <Sz>= 1.5000 <S**2>= 3.7500 S= 1.5000
 Leave Link  401 at Fri Mar  8 05:37:52 2019, MaxMem=    33554432 cpu:         3.3
 (Enter /home/proyectos/fulerenos/M3C-v2.0/M3C-deps_CCC/g09-AM64L-G09RevC.01/l502.exe)
 UHF open shell SCF:
 Using DIIS extrapolation, IDIIS=  1040.
 Integral symmetry usage will be decided dynamically.
 IVT=       75026 IEndB=       75026 NGot=    33554432 MDV=    33514407
 LenX=    33514407 LenY=    33495741
 Requested convergence on RMS density matrix=1.00D-08 within 128 cycles.
 Requested convergence on MAX density matrix=1.00D-06.
 Requested convergence on             energy=1.00D-06.
 No special actions if energy rises.
 Fock matrices will be formed incrementally for  20 cycles.

 Cycle   1  Pass 0  IDiag  1:
 FoFJK:  IHMeth= 1 ICntrl=       0 DoSepK=F KAlg= 0 I1Cent=   0 FoldK=F
 IRaf= 990000000 NMat=   1 IRICut=       1 DoRegI=T DoRafI=F ISym2E= 1.
 FoFCou: FMM=F IPFlag=           0 FMFlag=      100000 FMFlg1=           0
         NFxFlg=           0 DoJE=F BraDBF=F KetDBF=F FulRan=T
         wScrn=  0.000000 ICntrl=       0 IOpCl=  1 I1Cent=           0 NGrid=           0
         NMat0=    1 NMatS0=      1 NMatT0=    0 NMatD0=    1 NMtDS0=    0 NMtDT0=    0
 Petite list used in FoFCou.
 E= -150.356297975507    
 DIIS: error= 6.25D-02 at cycle   1 NSaved=   1.
 NSaved= 1 IEnMin= 1 EnMin= -150.356297975507     IErMin= 1 ErrMin= 6.25D-02
 ErrMax= 6.25D-02  0.00D+00 EMaxC= 1.00D-01 BMatC= 1.01D+00 BMatP= 1.01D+00
 IDIUse=3 WtCom= 3.75D-01 WtEn= 6.25D-01
 Coeff-Com:  0.100D+01
 Coeff-En:   0.100D+01
 Coeff:      0.100D+01
 Gap=     0.266 Goal=   None    Shift=    0.000
 Gap=     0.500 Goal=   None    Shift=    0.000
 GapD=    0.266 DampG=1.000 DampE=0.500 DampFc=0.5000 IDamp=-1.
 Damping current iteration by 5.00D-01
 RMSDP=1.46D-02 MaxDP=1.26D+00              OVMax= 1.47D-01

 Cycle   2  Pass 0  IDiag  1:
 RMSU=  7.26D-03    CP:  1.04D+00
 E= -150.412869717556     Delta-E=       -0.056571742049 Rises=F Damp=T
 DIIS: error= 3.51D-02 at cycle   2 NSaved=   2.
 NSaved= 2 IEnMin= 2 EnMin= -150.412869717556     IErMin= 2 ErrMin= 3.51D-02
 ErrMax= 3.51D-02  0.00D+00 EMaxC= 1.00D-01 BMatC= 2.37D-01 BMatP= 1.01D+00
 IDIUse=3 WtCom= 6.49D-01 WtEn= 3.51D-01
 Coeff-Com: -0.744D+00 0.174D+01
 Coeff-En:   0.000D+00 0.100D+01
 Coeff:     -0.483D+00 0.148D+01
 Gap=     0.258 Goal=   None    Shift=    0.000
 Gap=     0.391 Goal=   None    Shift=    0.000
 RMSDP=4.03D-03 MaxDP=2.38D-01 DE=-5.66D-02 OVMax= 4.87D-02

 Cycle   3  Pass 0  IDiag  1:
 RMSU=  1.91D-03    CP:  1.01D+00  1.48D+00
 E= -150.470446884646     Delta-E=       -0.057577167090 Rises=F Damp=F
 DIIS: error= 7.14D-03 at cycle   3 NSaved=   3.
 NSaved= 3 IEnMin= 3 EnMin= -150.470446884646     IErMin= 3 ErrMin= 7.14D-03
 ErrMax= 7.14D-03  0.00D+00 EMaxC= 1.00D-01 BMatC= 9.84D-03 BMatP= 2.37D-01
 IDIUse=3 WtCom= 9.29D-01 WtEn= 7.14D-02
 Coeff-Com: -0.195D+00 0.350D+00 0.845D+00
 Coeff-En:   0.000D+00 0.000D+00 0.100D+01
 Coeff:     -0.181D+00 0.325D+00 0.856D+00
 Gap=     0.270 Goal=   None    Shift=    0.000
 Gap=     0.411 Goal=   None    Shift=    0.000
 RMSDP=7.46D-04 MaxDP=4.51D-02 DE=-5.76D-02 OVMax= 2.80D-02

 Cycle   4  Pass 0  IDiag  1:
 RMSU=  4.96D-04    CP:  9.96D-01  1.42D+00  1.14D+00
 E= -150.473191430635     Delta-E=       -0.002744545989 Rises=F Damp=F
 DIIS: error= 3.03D-03 at cycle   4 NSaved=   4.
 NSaved= 4 IEnMin= 4 EnMin= -150.473191430635     IErMin= 4 ErrMin= 3.03D-03
 ErrMax= 3.03D-03  0.00D+00 EMaxC= 1.00D-01 BMatC= 1.56D-03 BMatP= 9.84D-03
 IDIUse=3 WtCom= 9.70D-01 WtEn= 3.03D-02
 Coeff-Com:  0.204D-01-0.580D-01 0.177D+00 0.860D+00
 Coeff-En:   0.000D+00 0.000D+00 0.000D+00 0.100D+01
 Coeff:      0.198D-01-0.563D-01 0.172D+00 0.865D+00
 Gap=     0.264 Goal=   None    Shift=    0.000
 Gap=     0.400 Goal=   None    Shift=    0.000
 RMSDP=4.54D-04 MaxDP=3.08D-02 DE=-2.74D-03 OVMax= 1.26D-02

 Cycle   5  Pass 0  IDiag  1:
 RMSU=  2.64D-04    CP:  9.91D-01  1.38D+00  1.23D+00  1.09D+00
 E= -150.473986868843     Delta-E=       -0.000795438207 Rises=F Damp=F
 DIIS: error= 1.46D-03 at cycle   5 NSaved=   5.
 NSaved= 5 IEnMin= 5 EnMin= -150.473986868843     IErMin= 5 ErrMin= 1.46D-03
 ErrMax= 1.46D-03  0.00D+00 EMaxC= 1.00D-01 BMatC= 3.82D-04 BMatP= 1.56D-03
 IDIUse=3 WtCom= 9.85D-01 WtEn= 1.46D-02
 Coeff-Com:  0.292D-01-0.471D-01-0.258D+00-0.203D+00 0.148D+01
 Coeff-En:   0.000D+00 0.000D+00 0.000D+00 0.000D+00 0.100D+01
 Coeff:      0.288D-01-0.464D-01-0.254D+00-0.200D+00 0.147D+01
 Gap=     0.266 Goal=   None    Shift=    0.000
 Gap=     0.400 Goal=   None    Shift=    0.000
 RMSDP=8.97D-04 MaxDP=7.80D-02 DE=-7.95D-04 OVMax= 1.88D-02

 Cycle   6  Pass 0  IDiag  1:
 RMSU=  1.09D-04    CP:  9.81D-01  1.27D+00  1.33D+00  1.47D+00  1.86D+00
 E= -150.474427709858     Delta-E=       -0.000440841015 Rises=F Damp=F
 DIIS: error= 6.31D-04 at cycle   6 NSaved=   6.
 NSaved= 6 IEnMin= 6 EnMin= -150.474427709858     IErMin= 6 ErrMin= 6.31D-04
 ErrMax= 6.31D-04  0.00D+00 EMaxC= 1.00D-01 BMatC= 5.97D-05 BMatP= 3.82D-04
 IDIUse=3 WtCom= 9.94D-01 WtEn= 6.31D-03
 Coeff-Com: -0.944D-02 0.188D-01 0.319D-01-0.804D-01-0.225D+00 0.126D+01
 Coeff-En:   0.000D+00 0.000D+00 0.000D+00 0.000D+00 0.000D+00 0.100D+01
 Coeff:     -0.938D-02 0.187D-01 0.317D-01-0.799D-01-0.224D+00 0.126D+01
 Gap=     0.266 Goal=   None    Shift=    0.000
 Gap=     0.400 Goal=   None    Shift=    0.000
 RMSDP=3.27D-04 MaxDP=2.94D-02 DE=-4.41D-04 OVMax= 9.25D-03

 Cycle   7  Pass 0  IDiag  1:
 RMSU=  4.08D-05    CP:  9.77D-01  1.23D+00  1.36D+00  1.57D+00  2.11D+00
                    CP:  1.65D+00
 E= -150.474513500309     Delta-E=       -0.000085790451 Rises=F Damp=F
 DIIS: error= 3.27D-04 at cycle   7 NSaved=   7.
 NSaved= 7 IEnMin= 7 EnMin= -150.474513500309     IErMin= 7 ErrMin= 3.27D-04
 ErrMax= 3.27D-04  0.00D+00 EMaxC= 1.00D-01 BMatC= 2.22D-05 BMatP= 5.97D-05
 IDIUse=3 WtCom= 9.97D-01 WtEn= 3.27D-03
 Coeff-Com: -0.956D-02 0.154D-01 0.870D-01 0.406D-01-0.463D+00-0.514D-01
 Coeff-Com:  0.138D+01
 Coeff-En:   0.000D+00 0.000D+00 0.000D+00 0.000D+00 0.000D+00 0.000D+00
 Coeff-En:   0.100D+01
 Coeff:     -0.953D-02 0.154D-01 0.867D-01 0.405D-01-0.461D+00-0.512D-01
 Coeff:      0.138D+01
 Gap=     0.266 Goal=   None    Shift=    0.000
 Gap=     0.398 Goal=   None    Shift=    0.000
 RMSDP=2.27D-04 MaxDP=2.07D-02 DE=-8.58D-05 OVMax= 6.86D-03

 Cycle   8  Pass 0  IDiag  1:
 RMSU=  3.50D-05    CP:  9.75D-01  1.21D+00  1.37D+00  1.62D+00  2.29D+00
                    CP:  2.26D+00  1.59D+00
 E= -150.474551205788     Delta-E=       -0.000037705479 Rises=F Damp=F
 DIIS: error= 1.64D-04 at cycle   8 NSaved=   8.
 NSaved= 8 IEnMin= 8 EnMin= -150.474551205788     IErMin= 8 ErrMin= 1.64D-04
 ErrMax= 1.64D-04  0.00D+00 EMaxC= 1.00D-01 BMatC= 4.43D-06 BMatP= 2.22D-05
 IDIUse=3 WtCom= 9.98D-01 WtEn= 1.64D-03
 Coeff-Com:  0.573D-02-0.100D-01-0.416D-01-0.625D-02 0.266D+00-0.243D+00
 Coeff-Com: -0.675D+00 0.170D+01
 Coeff-En:   0.000D+00 0.000D+00 0.000D+00 0.000D+00 0.000D+00 0.000D+00
 Coeff-En:   0.000D+00 0.100D+01
 Coeff:      0.572D-02-0.100D-01-0.416D-01-0.624D-02 0.266D+00-0.243D+00
 Coeff:     -0.674D+00 0.170D+01
 Gap=     0.266 Goal=   None    Shift=    0.000
 Gap=     0.397 Goal=   None    Shift=    0.000
 RMSDP=5.65D-05 MaxDP=3.77D-03 DE=-3.77D-05 OVMax= 3.13D-03

 Cycle   9  Pass 0  IDiag  1:
 RMSU=  1.38D-05    CP:  9.74D-01  1.20D+00  1.38D+00  1.62D+00  2.27D+00
                    CP:  2.46D+00  2.04D+00  2.10D+00
 E= -150.474559997225     Delta-E=       -0.000008791437 Rises=F Damp=F
 DIIS: error= 8.85D-05 at cycle   9 NSaved=   9.
 NSaved= 9 IEnMin= 9 EnMin= -150.474559997225     IErMin= 9 ErrMin= 8.85D-05
 ErrMax= 8.85D-05  0.00D+00 EMaxC= 1.00D-01 BMatC= 8.55D-07 BMatP= 4.43D-06
 IDIUse=1 WtCom= 1.00D+00 WtEn= 0.00D+00
 Coeff-Com: -0.883D-03 0.178D-02 0.257D-02-0.399D-02-0.380D-01 0.119D+00
 Coeff-Com:  0.566D-01-0.834D+00 0.170D+01
 Coeff:     -0.883D-03 0.178D-02 0.257D-02-0.399D-02-0.380D-01 0.119D+00
 Coeff:      0.566D-01-0.834D+00 0.170D+01
 Gap=     0.266 Goal=   None    Shift=    0.000
 Gap=     0.397 Goal=   None    Shift=    0.000
 RMSDP=3.07D-05 MaxDP=1.94D-03 DE=-8.79D-06 OVMax= 1.17D-03

 Cycle  10  Pass 0  IDiag  1:
 RMSU=  5.55D-06    CP:  9.74D-01  1.20D+00  1.38D+00  1.62D+00  2.25D+00
                    CP:  2.53D+00  2.19D+00  2.67D+00  2.12D+00
 E= -150.474561778846     Delta-E=       -0.000001781621 Rises=F Damp=F
 DIIS: error= 3.45D-05 at cycle  10 NSaved=  10.
 NSaved=10 IEnMin=10 EnMin= -150.474561778846     IErMin=10 ErrMin= 3.45D-05
 ErrMax= 3.45D-05  0.00D+00 EMaxC= 1.00D-01 BMatC= 1.77D-07 BMatP= 8.55D-07
 IDIUse=1 WtCom= 1.00D+00 WtEn= 0.00D+00
 Coeff-Com: -0.842D-03 0.140D-02 0.658D-02 0.298D-02-0.319D-01-0.159D-01
 Coeff-Com:  0.118D+00 0.655D-01-0.817D+00 0.167D+01
 Coeff:     -0.842D-03 0.140D-02 0.658D-02 0.298D-02-0.319D-01-0.159D-01
 Coeff:      0.118D+00 0.655D-01-0.817D+00 0.167D+01
 Gap=     0.266 Goal=   None    Shift=    0.000
 Gap=     0.397 Goal=   None    Shift=    0.000
 RMSDP=2.55D-05 MaxDP=2.45D-03 DE=-1.78D-06 OVMax= 5.40D-04

 Cycle  11  Pass 0  IDiag  1:
 RMSU=  2.48D-06    CP:  9.74D-01  1.20D+00  1.38D+00  1.62D+00  2.24D+00
                    CP:  2.57D+00  2.26D+00  2.73D+00  2.78D+00  2.24D+00
 E= -150.474562128498     Delta-E=       -0.000000349653 Rises=F Damp=F
 DIIS: error= 2.29D-05 at cycle  11 NSaved=  11.
 NSaved=11 IEnMin=11 EnMin= -150.474562128498     IErMin=11 ErrMin= 2.29D-05
 ErrMax= 2.29D-05  0.00D+00 EMaxC= 1.00D-01 BMatC= 4.59D-08 BMatP= 1.77D-07
 IDIUse=1 WtCom= 1.00D+00 WtEn= 0.00D+00
 Coeff-Com:  0.577D-03-0.101D-02-0.459D-02-0.137D-02 0.277D-01-0.220D-01
 Coeff-Com: -0.737D-01 0.160D+00 0.405D-01-0.916D+00 0.179D+01
 Coeff:      0.577D-03-0.101D-02-0.459D-02-0.137D-02 0.277D-01-0.220D-01
 Coeff:     -0.737D-01 0.160D+00 0.405D-01-0.916D+00 0.179D+01
 Gap=     0.266 Goal=   None    Shift=    0.000
 Gap=     0.397 Goal=   None    Shift=    0.000
 RMSDP=2.17D-05 MaxDP=2.09D-03 DE=-3.50D-07 OVMax= 2.83D-04

 Cycle  12  Pass 0  IDiag  1:
 RMSU=  1.80D-06    CP:  9.74D-01  1.20D+00  1.38D+00  1.63D+00  2.23D+00
                    CP:  2.61D+00  2.31D+00  2.71D+00  3.00D+00  3.00D+00
                    CP:  2.29D+00
 E= -150.474562233518     Delta-E=       -0.000000105020 Rises=F Damp=F
 DIIS: error= 1.17D-05 at cycle  12 NSaved=  12.
 NSaved=12 IEnMin=12 EnMin= -150.474562233518     IErMin=12 ErrMin= 1.17D-05
 ErrMax= 1.17D-05  0.00D+00 EMaxC= 1.00D-01 BMatC= 1.15D-08 BMatP= 4.59D-08
 IDIUse=1 WtCom= 1.00D+00 WtEn= 0.00D+00
 Coeff-Com: -0.143D-03 0.270D-03 0.964D-03-0.439D-03-0.788D-02 0.165D-01
 Coeff-Com:  0.217D-01-0.133D+00 0.215D+00 0.101D+00-0.107D+01 0.186D+01
 Coeff:     -0.143D-03 0.270D-03 0.964D-03-0.439D-03-0.788D-02 0.165D-01
 Coeff:      0.217D-01-0.133D+00 0.215D+00 0.101D+00-0.107D+01 0.186D+01
 Gap=     0.266 Goal=   None    Shift=    0.000
 Gap=     0.397 Goal=   None    Shift=    0.000
 RMSDP=7.56D-06 MaxDP=6.78D-04 DE=-1.05D-07 OVMax= 1.70D-04

 Initial convergence to 1.0D-05 achieved.  Increase integral accuracy.
 Cycle  13  Pass 1  IDiag  1:
 E= -150.474562261331     Delta-E=       -0.000000027813 Rises=F Damp=F
 DIIS: error= 5.10D-06 at cycle   1 NSaved=   1.
 NSaved= 1 IEnMin= 1 EnMin= -150.474562261331     IErMin= 1 ErrMin= 5.10D-06
 ErrMax= 5.10D-06  0.00D+00 EMaxC= 1.00D-01 BMatC= 2.68D-09 BMatP= 2.68D-09
 IDIUse=1 WtCom= 1.00D+00 WtEn= 0.00D+00
 Coeff-Com:  0.100D+01
 Coeff:      0.100D+01
 Gap=     0.266 Goal=   None    Shift=    0.000
 Gap=     0.397 Goal=   None    Shift=    0.000
 RMSDP=7.56D-06 MaxDP=6.78D-04 DE=-2.78D-08 OVMax= 2.74D-05

 Cycle  14  Pass 1  IDiag  1:
 RMSU=  1.02D-06    CP:  1.00D+00
 E= -150.474562263826     Delta-E=       -0.000000002495 Rises=F Damp=F
 DIIS: error= 3.65D-06 at cycle   2 NSaved=   2.
 NSaved= 2 IEnMin= 2 EnMin= -150.474562263826     IErMin= 2 ErrMin= 3.65D-06
 ErrMax= 3.65D-06  0.00D+00 EMaxC= 1.00D-01 BMatC= 1.54D-09 BMatP= 2.68D-09
 IDIUse=1 WtCom= 1.00D+00 WtEn= 0.00D+00
 Coeff-Com: -0.931D+00 0.193D+01
 Coeff:     -0.931D+00 0.193D+01
 Gap=     0.266 Goal=   None    Shift=    0.000
 Gap=     0.397 Goal=   None    Shift=    0.000
 RMSDP=8.41D-07 MaxDP=4.59D-05 DE=-2.49D-09 OVMax= 4.19D-05

 Cycle  15  Pass 1  IDiag  1:
 RMSU=  3.43D-07    CP:  1.00D+00  1.70D+00
 E= -150.474562266468     Delta-E=       -0.000000002642 Rises=F Damp=F
 DIIS: error= 3.62D-06 at cycle   3 NSaved=   3.
 NSaved= 3 IEnMin= 3 EnMin= -150.474562266468     IErMin= 3 ErrMin= 3.62D-06
 ErrMax= 3.62D-06  0.00D+00 EMaxC= 1.00D-01 BMatC= 9.22D-10 BMatP= 1.54D-09
 IDIUse=1 WtCom= 1.00D+00 WtEn= 0.00D+00
 Coeff-Com: -0.125D+01 0.113D+01 0.112D+01
 Coeff:     -0.125D+01 0.113D+01 0.112D+01
 Gap=     0.266 Goal=   None    Shift=    0.000
 Gap=     0.397 Goal=   None    Shift=    0.000
 RMSDP=5.82D-07 MaxDP=1.15D-05 DE=-2.64D-09 OVMax= 4.49D-05

 Cycle  16  Pass 1  IDiag  1:
 RMSU=  1.65D-07    CP:  1.00D+00  2.03D+00  2.31D+00
 E= -150.474562268014     Delta-E=       -0.000000001546 Rises=F Damp=F
 DIIS: error= 1.13D-06 at cycle   4 NSaved=   4.
 NSaved= 4 IEnMin= 4 EnMin= -150.474562268014     IErMin= 4 ErrMin= 1.13D-06
 ErrMax= 1.13D-06  0.00D+00 EMaxC= 1.00D-01 BMatC= 1.54D-10 BMatP= 9.22D-10
 IDIUse=1 WtCom= 1.00D+00 WtEn= 0.00D+00
 Coeff-Com:  0.102D+01-0.122D+01-0.709D+00 0.190D+01
 Coeff:      0.102D+01-0.122D+01-0.709D+00 0.190D+01
 Gap=     0.266 Goal=   None    Shift=    0.000
 Gap=     0.397 Goal=   None    Shift=    0.000
 RMSDP=1.16D-06 MaxDP=1.05D-04 DE=-1.55D-09 OVMax= 2.25D-05

 Cycle  17  Pass 1  IDiag  1:
 RMSU=  2.81D-07    CP:  1.00D+00  1.24D+00  3.00D+00  2.24D+00
 E= -150.474562268370     Delta-E=       -0.000000000356 Rises=F Damp=F
 DIIS: error= 4.93D-07 at cycle   5 NSaved=   5.
 NSaved= 5 IEnMin= 5 EnMin= -150.474562268370     IErMin= 5 ErrMin= 4.93D-07
 ErrMax= 4.93D-07  0.00D+00 EMaxC= 1.00D-01 BMatC= 3.25D-11 BMatP= 1.54D-10
 IDIUse=1 WtCom= 1.00D+00 WtEn= 0.00D+00
 Coeff-Com:  0.215D+00-0.167D+00-0.210D+00-0.181D+00 0.134D+01
 Coeff:      0.215D+00-0.167D+00-0.210D+00-0.181D+00 0.134D+01
 Gap=     0.266 Goal=   None    Shift=    0.000
 Gap=     0.397 Goal=   None    Shift=    0.000
 RMSDP=5.47D-07 MaxDP=4.93D-05 DE=-3.56D-10 OVMax= 7.91D-06

 Cycle  18  Pass 1  IDiag  1:
 RMSU=  3.41D-08    CP:  1.00D+00  8.45D-01  3.00D+00  2.87D+00  1.71D+00
 E= -150.474562268430     Delta-E=       -0.000000000060 Rises=F Damp=F
 DIIS: error= 2.78D-07 at cycle   6 NSaved=   6.
 NSaved= 6 IEnMin= 6 EnMin= -150.474562268430     IErMin= 6 ErrMin= 2.78D-07
 ErrMax= 2.78D-07  0.00D+00 EMaxC= 1.00D-01 BMatC= 8.34D-12 BMatP= 3.25D-11
 IDIUse=1 WtCom= 1.00D+00 WtEn= 0.00D+00
 Coeff-Com: -0.283D+00 0.323D+00 0.186D+00-0.347D+00-0.394D+00 0.151D+01
 Coeff:     -0.283D+00 0.323D+00 0.186D+00-0.347D+00-0.394D+00 0.151D+01
 Gap=     0.266 Goal=   None    Shift=    0.000
 Gap=     0.397 Goal=   None    Shift=    0.000
 RMSDP=1.07D-07 MaxDP=8.26D-06 DE=-6.02D-11 OVMax= 3.98D-06

 Cycle  19  Pass 1  IDiag  1:
 RMSU=  3.36D-08    CP:  1.00D+00  7.72D-01  3.00D+00  3.00D+00  1.84D+00
                    CP:  2.07D+00
 E= -150.474562268444     Delta-E=       -0.000000000014 Rises=F Damp=F
 DIIS: error= 1.35D-07 at cycle   7 NSaved=   7.
 NSaved= 7 IEnMin= 7 EnMin= -150.474562268444     IErMin= 7 ErrMin= 1.35D-07
 ErrMax= 1.35D-07  0.00D+00 EMaxC= 1.00D-01 BMatC= 2.14D-12 BMatP= 8.34D-12
 IDIUse=1 WtCom= 1.00D+00 WtEn= 0.00D+00
 Coeff-Com: -0.422D-01 0.376D-01 0.292D-01 0.782D-01-0.342D+00-0.808D-01
 Coeff-Com:  0.132D+01
 Coeff:     -0.422D-01 0.376D-01 0.292D-01 0.782D-01-0.342D+00-0.808D-01
 Coeff:      0.132D+01
 Gap=     0.266 Goal=   None    Shift=    0.000
 Gap=     0.397 Goal=   None    Shift=    0.000
 RMSDP=2.73D-08 MaxDP=7.66D-07 DE=-1.40D-11 OVMax= 1.91D-06

 Cycle  20  Pass 1  IDiag  1:
 RMSU=  9.52D-09    CP:  1.00D+00  7.66D-01  3.00D+00  3.00D+00  1.82D+00
                    CP:  2.64D+00  1.46D+00
 E= -150.474562268448     Delta-E=       -0.000000000004 Rises=F Damp=F
 DIIS: error= 7.09D-08 at cycle   8 NSaved=   8.
 NSaved= 8 IEnMin= 8 EnMin= -150.474562268448     IErMin= 8 ErrMin= 7.09D-08
 ErrMax= 7.09D-08  0.00D+00 EMaxC= 1.00D-01 BMatC= 5.08D-13 BMatP= 2.14D-12
 IDIUse=1 WtCom= 1.00D+00 WtEn= 0.00D+00
 Coeff-Com:  0.819D-01-0.847D-01-0.647D-01 0.557D-01 0.215D+00-0.304D+00
 Coeff-Com: -0.560D+00 0.166D+01
 Coeff:      0.819D-01-0.847D-01-0.647D-01 0.557D-01 0.215D+00-0.304D+00
 Coeff:     -0.560D+00 0.166D+01
 Gap=     0.266 Goal=   None    Shift=    0.000
 Gap=     0.397 Goal=   None    Shift=    0.000
 RMSDP=1.37D-08 MaxDP=3.82D-07 DE=-3.84D-12 OVMax= 1.23D-06

 Cycle  21  Pass 1  IDiag  1:
 RMSU=  4.41D-09    CP:  1.00D+00  7.63D-01  3.00D+00  3.00D+00  1.81D+00
                    CP:  2.71D+00  1.58D+00  2.15D+00
 E= -150.474562268449     Delta-E=       -0.000000000001 Rises=F Damp=F
 DIIS: error= 2.99D-08 at cycle   9 NSaved=   9.
 NSaved= 9 IEnMin= 9 EnMin= -150.474562268449     IErMin= 9 ErrMin= 2.99D-08
 ErrMax= 2.99D-08  0.00D+00 EMaxC= 1.00D-01 BMatC= 1.25D-13 BMatP= 5.08D-13
 IDIUse=1 WtCom= 1.00D+00 WtEn= 0.00D+00
 Coeff-Com: -0.471D-01 0.519D-01 0.348D-01-0.583D-01-0.608D-01 0.239D+00
 Coeff-Com:  0.152D-02-0.959D+00 0.180D+01
 Coeff:     -0.471D-01 0.519D-01 0.348D-01-0.583D-01-0.608D-01 0.239D+00
 Coeff:      0.152D-02-0.959D+00 0.180D+01
 Gap=     0.266 Goal=   None    Shift=    0.000
 Gap=     0.397 Goal=   None    Shift=    0.000
 RMSDP=7.92D-09 MaxDP=2.77D-07 DE=-1.25D-12 OVMax= 5.27D-07

 SCF Done:  E(UHF) =  -150.474562268     A.U. after   21 cycles
            NFock= 21  Conv=0.79D-08     -V/T= 2.0016
 <Sx>= 0.0000 <Sy>= 0.0000 <Sz>= 1.5000 <S**2>= 3.7850 S= 1.5087
 <L.S>= 0.000000000000E+00
 KE= 1.502408452773D+02 PE=-4.448432206676D+02 EE= 1.012604371745D+02
 Annihilation of the first spin contaminant:
 S**2 before annihilation     3.7850,   after     3.7505
 Leave Link  502 at Fri Mar  8 05:38:21 2019, MaxMem=    33554432 cpu:       110.4
 (Enter /home/proyectos/fulerenos/M3C-v2.0/M3C-deps_CCC/g09-AM64L-G09RevC.01/l801.exe)
 Windowed orbitals will be sorted by symmetry type.
 ExpMin= 4.38D-02 ExpMax= 8.59D+03 ExpMxC= 1.30D+03 IAcc=3 IRadAn=         5 AccDes= 0.00D+00
 HarFok:  IExCor=  205 AccDes= 0.00D+00 IRadAn=         5 IDoV=-2 UseB2=F ITyADJ=14
 ICtDFT= 12500011 ScaDFX=  1.000000  1.000000  1.000000  1.000000
 Largest valence mixing into a core orbital is  1.43D-04
 Largest core mixing into a valence orbital is  3.64D-05
 Largest valence mixing into a core orbital is  2.30D-04
 Largest core mixing into a valence orbital is  6.78D-05
 Range of M.O.s used for correlation:     4   117
 NBasis=   117 NAE=    12 NBE=     9 NFC=     3 NFV=     0
 NROrb=    114 NOA=     9 NOB=     6 NVA=   105 NVB=   108

 **** Warning!!: The largest alpha MO coefficient is  0.32986774D+02


 **** Warning!!: The largest beta MO coefficient is  0.24958937D+02

 Leave Link  801 at Fri Mar  8 05:38:21 2019, MaxMem=    33554432 cpu:         0.6
 (Enter /home/proyectos/fulerenos/M3C-v2.0/M3C-deps_CCC/g09-AM64L-G09RevC.01/l804.exe)
 Open-shell transformation, MDV=    33554432 ITran=4 ISComp=2.
 Semi-Direct transformation.
 ModeAB=           2 MOrb=             9 LenV=      33028914
 LASXX=      3189525 LTotXX=     3189525 LenRXX=     3189525
 LTotAB=     3305355 MaxLAS=     9418680 LenRXY=     9418680
 NonZer=     9726480 LenScr=    15349760 LnRSAI=           0
 LnScr1=           0 LExtra=           0 Total=     27957965
 MaxDsk=          -1 SrtSym=           F ITran=            4
 DoSDTr:  NPSUse=  4
 JobTyp=1 Pass  1:  I=   1 to   9.
 Complete sort for first half transformation.
 First half transformation complete.
 Complete sort for second half transformation.
 Second half transformation complete.
 ModeAB=           2 MOrb=             6 LenV=      33028914
 LASXX=      2169258 LTotXX=     2169258 LenRXX=     6279120
 LTotAB=     1898536 MaxLAS=     6279120 LenRXY=     1898536
 NonZer=     6484320 LenScr=    10472448 LnRSAI=           0
 LnScr1=           0 LExtra=           0 Total=     18650104
 MaxDsk=          -1 SrtSym=           F ITran=            4
 DoSDTr:  NPSUse=  4
 JobTyp=2 Pass  1:  I=   1 to   6.
 (rs|ai) integrals will be sorted in core.
 Complete sort for first half transformation.
 First half transformation complete.
 Complete sort for second half transformation.
 Second half transformation complete.
 Spin components of T(2) and E(2):
     alpha-alpha T2 =       0.2840688899D-01 E2=     -0.8208561903D-01
     alpha-beta  T2 =       0.1073260302D+00 E2=     -0.3445690225D+00
     beta-beta   T2 =       0.1712546127D-01 E2=     -0.4949629332D-01
 ANorm=    0.1073712429D+01
 E2 =    -0.4761509348D+00 EUMP2 =    -0.15095071320326D+03
 (S**2,0)=  0.37850D+01           (S**2,1)=  0.37633D+01
 E(PUHF)=      -0.15047877601D+03        E(PMP2)=      -0.15095363371D+03
 Leave Link  804 at Fri Mar  8 05:38:38 2019, MaxMem=    33554432 cpu:        62.9
 (Enter /home/proyectos/fulerenos/M3C-v2.0/M3C-deps_CCC/g09-AM64L-G09RevC.01/l913.exe)
 CIDS:  MDV=    33554432.
 Frozen-core window:  NFC=   3 NFV=   0.
 IFCWin=0 IBDFC=1 NFBD=     0     0 NFCmp=     0     0 NFFFC=     0     0
 Using original routines for 1st iteration, S=T.
 Using DD4UQ or CC4UQ for 2nd and later iterations.
 Would need an additional         2714801 words for in-memory AO integral storage.
 CCSD(T)
 =======
 Iterations= 200 Convergence= 0.100D-06
 Iteration Nr.   1
 **********************
 DD1Dir will call FoFJK   1 times, MxPair=       160
 NAB=    54 NAA=    36 NBB=    15 NumPrc=  4.
 FoFJK:  IHMeth= 1 ICntrl=     200 DoSepK=F KAlg= 0 I1Cent=   0 FoldK=F
 IRaf= 990000000 NMat= 159 IRICut=     262 DoRegI=T DoRafI=T ISym2E=-1.
 FoFCou: FMM=F IPFlag=           0 FMFlag=      100000 FMFlg1=           0
         NFxFlg=           0 DoJE=F BraDBF=F KetDBF=F FulRan=T
         wScrn=  0.000000 ICntrl=     200 IOpCl=  0 I1Cent=           0 NGrid=           0
         NMat0=  159 NMatS0=      0 NMatT0=   54 NMatD0=  159 NMtDS0=    0 NMtDT0=    0
 Petite list used in FoFCou.
 E(PMP3)=      -0.15095995399D+03
 MP4(R+Q)=  0.12185213D-01
 Maximum subspace dimension=  5
 Norm of the A-vectors is  6.0089606D-01 conv= 1.00D-05.
 RLE energy=       -0.4711070940
 E3=       -0.75033801D-02        EUMP3=      -0.15095821658D+03
 E4(DQ)=   -0.83223781D-03        UMP4(DQ)=   -0.15095904882D+03
 E4(SDQ)=  -0.10238675D-01        UMP4(SDQ)=  -0.15096845526D+03
 VARIATIONAL ENERGIES WITH THE FIRST-ORDER WAVEFUNCTION:
 DE(Corr)= -0.47105345     E(Corr)=     -150.94561572    
 NORM(A)=   0.10780723D+01
 Iteration Nr.   2
 **********************
 DD1Dir will call FoFJK   1 times, MxPair=       160
 NAB=    54 NAA=    36 NBB=    15 NumPrc=  4.
 Norm of the A-vectors is  3.0180850D-01 conv= 1.00D-05.
 RLE energy=       -0.4903317950
 DE(Corr)= -0.48964558     E(CORR)=     -150.96420785     Delta=-1.86D-02
 NORM(A)=   0.10885816D+01
 Iteration Nr.   3
 **********************
 DD1Dir will call FoFJK   1 times, MxPair=       160
 NAB=    54 NAA=    36 NBB=    15 NumPrc=  4.
 Norm of the A-vectors is  9.6546886D-02 conv= 1.00D-05.
 RLE energy=       -0.4925542241
 DE(Corr)= -0.48955946     E(CORR)=     -150.96412173     Delta= 8.61D-05
 NORM(A)=   0.10959640D+01
 Iteration Nr.   4
 **********************
 DD1Dir will call FoFJK   1 times, MxPair=       160
 NAB=    54 NAA=    36 NBB=    15 NumPrc=  4.
 Norm of the A-vectors is  6.5555557D-02 conv= 1.00D-05.
 RLE energy=       -0.4932441823
 DE(Corr)= -0.49259601     E(CORR)=     -150.96715828     Delta=-3.04D-03
 NORM(A)=   0.11013154D+01
 Iteration Nr.   5
 **********************
 DD1Dir will call FoFJK   1 times, MxPair=       160
 NAB=    54 NAA=    36 NBB=    15 NumPrc=  4.
 Norm of the A-vectors is  3.1102477D-02 conv= 1.00D-05.
 RLE energy=       -0.4938645183
 DE(Corr)= -0.49341499     E(CORR)=     -150.96797726     Delta=-8.19D-04
 NORM(A)=   0.11060453D+01
 Iteration Nr.   6
 **********************
 DD1Dir will call FoFJK   1 times, MxPair=       160
 NAB=    54 NAA=    36 NBB=    15 NumPrc=  4.
 Norm of the A-vectors is  2.0819777D-02 conv= 1.00D-05.
 RLE energy=       -0.4937435956
 DE(Corr)= -0.49375548     E(CORR)=     -150.96831775     Delta=-3.40D-04
 NORM(A)=   0.11080583D+01
 Iteration Nr.   7
 **********************
 DD1Dir will call FoFJK   1 times, MxPair=       160
 NAB=    54 NAA=    36 NBB=    15 NumPrc=  4.
 Norm of the A-vectors is  1.1690258D-02 conv= 1.00D-05.
 RLE energy=       -0.4938309054
 DE(Corr)= -0.49387239     E(CORR)=     -150.96843466     Delta=-1.17D-04
 NORM(A)=   0.11089604D+01
 Iteration Nr.   8
 **********************
 DD1Dir will call FoFJK   1 times, MxPair=       160
 NAB=    54 NAA=    36 NBB=    15 NumPrc=  4.
 Norm of the A-vectors is  6.8105026D-03 conv= 1.00D-05.
 RLE energy=       -0.4938572830
 DE(Corr)= -0.49386634     E(CORR)=     -150.96842861     Delta= 6.05D-06
 NORM(A)=   0.11092643D+01
 Iteration Nr.   9
 **********************
 DD1Dir will call FoFJK   1 times, MxPair=       160
 NAB=    54 NAA=    36 NBB=    15 NumPrc=  4.
 Norm of the A-vectors is  3.4734540D-03 conv= 1.00D-05.
 RLE energy=       -0.4938966728
 DE(Corr)= -0.49389758     E(CORR)=     -150.96845985     Delta=-3.12D-05
 NORM(A)=   0.11093607D+01
 Iteration Nr.  10
 **********************
 DD1Dir will call FoFJK   1 times, MxPair=       160
 NAB=    54 NAA=    36 NBB=    15 NumPrc=  4.
 Norm of the A-vectors is  1.8221679D-03 conv= 1.00D-05.
 RLE energy=       -0.4938906608
 DE(Corr)= -0.49388881     E(CORR)=     -150.96845108     Delta= 8.76D-06
 NORM(A)=   0.11093931D+01
 Iteration Nr.  11
 **********************
 DD1Dir will call FoFJK   1 times, MxPair=       160
 NAB=    54 NAA=    36 NBB=    15 NumPrc=  4.
 Norm of the A-vectors is  1.0438362D-03 conv= 1.00D-05.
 RLE energy=       -0.4939054410
 DE(Corr)= -0.49390395     E(CORR)=     -150.96846622     Delta=-1.51D-05
 NORM(A)=   0.11094157D+01
 Iteration Nr.  12
 **********************
 DD1Dir will call FoFJK   1 times, MxPair=       160
 NAB=    54 NAA=    36 NBB=    15 NumPrc=  4.
 Norm of the A-vectors is  5.2912872D-04 conv= 1.00D-05.
 RLE energy=       -0.4939056650
 DE(Corr)= -0.49390359     E(CORR)=     -150.96846586     Delta= 3.54D-07
 NORM(A)=   0.11094364D+01
 Iteration Nr.  13
 **********************
 DD1Dir will call FoFJK   1 times, MxPair=       160
 NAB=    54 NAA=    36 NBB=    15 NumPrc=  4.
 Norm of the A-vectors is  3.7583779D-04 conv= 1.00D-05.
 RLE energy=       -0.4939088198
 DE(Corr)= -0.49390774     E(CORR)=     -150.96847001     Delta=-4.15D-06
 NORM(A)=   0.11094543D+01
 Iteration Nr.  14
 **********************
 DD1Dir will call FoFJK   1 times, MxPair=       160
 NAB=    54 NAA=    36 NBB=    15 NumPrc=  4.
 Norm of the A-vectors is  2.3496434D-04 conv= 1.00D-05.
 RLE energy=       -0.4939110310
 DE(Corr)= -0.49390942     E(CORR)=     -150.96847169     Delta=-1.68D-06
 NORM(A)=   0.11094727D+01
 Iteration Nr.  15
 **********************
 DD1Dir will call FoFJK   1 times, MxPair=       160
 NAB=    54 NAA=    36 NBB=    15 NumPrc=  4.
 Norm of the A-vectors is  1.7598755D-04 conv= 1.00D-05.
 RLE energy=       -0.4939109927
 DE(Corr)= -0.49391061     E(CORR)=     -150.96847288     Delta=-1.19D-06
 NORM(A)=   0.11094879D+01
 Iteration Nr.  16
 **********************
 DD1Dir will call FoFJK   1 times, MxPair=       160
 NAB=    54 NAA=    36 NBB=    15 NumPrc=  4.
 Norm of the A-vectors is  1.2188675D-04 conv= 1.00D-05.
 RLE energy=       -0.4939128002
 DE(Corr)= -0.49391220     E(CORR)=     -150.96847447     Delta=-1.59D-06
 NORM(A)=   0.11094981D+01
 Iteration Nr.  17
 **********************
 DD1Dir will call FoFJK   1 times, MxPair=       160
 NAB=    54 NAA=    36 NBB=    15 NumPrc=  4.
 Norm of the A-vectors is  8.6060080D-05 conv= 1.00D-05.
 RLE energy=       -0.4939124014
 DE(Corr)= -0.49391216     E(CORR)=     -150.96847443     Delta= 3.35D-08
 NORM(A)=   0.11095042D+01
 Iteration Nr.  18
 **********************
 DD1Dir will call FoFJK   1 times, MxPair=       160
 NAB=    54 NAA=    36 NBB=    15 NumPrc=  4.
 Norm of the A-vectors is  5.3286294D-05 conv= 1.00D-05.
 RLE energy=       -0.4939128048
 DE(Corr)= -0.49391278     E(CORR)=     -150.96847505     Delta=-6.19D-07
 NORM(A)=   0.11095068D+01
 Iteration Nr.  19
 **********************
 DD1Dir will call FoFJK   1 times, MxPair=       160
 NAB=    54 NAA=    36 NBB=    15 NumPrc=  4.
 Norm of the A-vectors is  3.2584607D-05 conv= 1.00D-05.
 RLE energy=       -0.4939127662
 DE(Corr)= -0.49391272     E(CORR)=     -150.96847499     Delta= 6.07D-08
 NORM(A)=   0.11095082D+01
 Iteration Nr.  20
 **********************
 DD1Dir will call FoFJK   1 times, MxPair=       160
 NAB=    54 NAA=    36 NBB=    15 NumPrc=  4.
 Norm of the A-vectors is  2.0758390D-05 conv= 1.00D-05.
 RLE energy=       -0.4939128212
 DE(Corr)= -0.49391284     E(CORR)=     -150.96847511     Delta=-1.17D-07
 NORM(A)=   0.11095086D+01
 Iteration Nr.  21
 **********************
 DD1Dir will call FoFJK   1 times, MxPair=       160
 NAB=    54 NAA=    36 NBB=    15 NumPrc=  4.
 Norm of the A-vectors is  1.2367251D-05 conv= 1.00D-05.
 RLE energy=       -0.4939128867
 DE(Corr)= -0.49391285     E(CORR)=     -150.96847512     Delta=-1.38D-08
 NORM(A)=   0.11095090D+01
 Iteration Nr.  22
 **********************
 DD1Dir will call FoFJK   1 times, MxPair=       160
 NAB=    54 NAA=    36 NBB=    15 NumPrc=  4.
 Norm of the A-vectors is  6.9619602D-06 conv= 1.00D-05.
 RLE energy=       -0.4939128656
 DE(Corr)= -0.49391286     E(CORR)=     -150.96847513     Delta=-1.12D-08
 NORM(A)=   0.11095091D+01
 CI/CC converged in   22 iterations to DelEn=-1.12D-08 Conv= 1.00D-07 ErrA1= 6.96D-06 Conv= 1.00D-05
 Dominant configurations:
 ***********************
 Spin Case        I    J    A    B          Value
    AA           12        13            0.122565D+00
 Largest amplitude= 1.23D-01
 Time for triples=      171.02 seconds.
 T4(CCSD)= -0.28603809D-01
 T5(CCSD)=  0.24846287D-02
 CCSD(T)= -0.15099459431D+03

 S**2, projected HF & approx projected MPn energies after annihilation of
 unwanted spin states (see manual for definitions):

 spins       (S**2,0) (S**2,1)    PUHF        PMP2        PMP3        PMP4
 annihilated
 s+1         3.74966  3.75009 -150.478776 -150.953634 -150.959954
 s+1,s+2     3.75000  3.75000 -150.478740 -150.953602 -150.959925
 s+1 to s+3  3.75000  3.75000 -150.478740 -150.953602 -150.959925
 s+1 to s+4  3.75000  3.75000 -150.478740 -150.953602 -150.959925
 s+1 to s+5  3.75000  3.75000 -150.478740
 s+1 to s+6  3.75000  3.75000 -150.478740

 Discarding MO integrals.
 Leave Link  913 at Fri Mar  8 05:42:10 2019, MaxMem=    33554432 cpu:       848.5
 (Enter /home/proyectos/fulerenos/M3C-v2.0/M3C-deps_CCC/g09-AM64L-G09RevC.01/l601.exe)
 Copying SCF densities to generalized density rwf, IOpCl= 1 IROHF=0.

 **********************************************************************

            Population analysis using the SCF density.

 **********************************************************************

 Orbital symmetries:
 Alpha Orbitals:
       Occupied  (A') (A') (A') (A') (A') (A') (A') (A") (A') (A')
                 (A") (A')
       Virtual   (A') (A') (A') (A") (A") (A') (A') (A') (A") (A')
                 (A") (A') (A') (A') (A") (A') (A') (A') (A") (A')
                 (A') (A") (A') (A") (A') (A") (A') (A") (A') (A')
                 (A') (A') (A") (A') (A") (A') (A') (A') (A') (A")
                 (A') (A") (A') (A") (A') (A") (A') (A') (A') (A")
                 (A') (A') (A") (A') (A") (A') (A") (A') (A") (A')
                 (A') (A") (A") (A') (A') (A') (A") (A') (A") (A')
                 (A') (A") (A') (A') (A") (A') (A') (A") (A') (A")
                 (A') (A') (A") (A') (A') (A") (A') (A") (A') (A")
                 (A') (A") (A') (A") (A') (A') (A') (A") (A') (A")
                 (A') (A') (A') (A') (A')
 Beta  Orbitals:
       Occupied  (A') (A') (A') (A') (A') (A') (A") (A') (A')
       Virtual   (A') (A") (A') (A') (A") (A') (A') (A") (A') (A')
                 (A') (A") (A') (A') (A") (A') (A') (A") (A') (A')
                 (A") (A') (A') (A") (A') (A") (A') (A') (A") (A')
                 (A') (A") (A') (A') (A') (A") (A") (A') (A') (A')
                 (A') (A") (A') (A') (A") (A') (A") (A') (A") (A')
                 (A') (A') (A") (A') (A') (A") (A') (A") (A') (A")
                 (A") (A') (A') (A') (A") (A") (A') (A') (A') (A")
                 (A') (A') (A") (A') (A") (A') (A') (A") (A') (A')
                 (A") (A') (A") (A') (A') (A") (A') (A') (A") (A')
                 (A") (A') (A") (A') (A") (A') (A") (A') (A') (A')
                 (A") (A') (A") (A') (A') (A') (A') (A')
 The electronic state is 4-A".
 Alpha  occ. eigenvalues --  -20.39294 -11.12123 -11.04116  -1.22089  -0.75929
 Alpha  occ. eigenvalues --   -0.52501  -0.43368  -0.39131  -0.29478  -0.19499
 Alpha  occ. eigenvalues --   -0.15528  -0.04494
 Alpha virt. eigenvalues --    0.22095   0.24642   0.26684   0.26694   0.28708
 Alpha virt. eigenvalues --    0.29749   0.30734   0.35484   0.38651   0.45319
 Alpha virt. eigenvalues --    0.48297   0.49288   0.51487   0.60768   0.61636
 Alpha virt. eigenvalues --    0.63561   0.72819   0.75428   0.75861   0.79388
 Alpha virt. eigenvalues --    0.82411   0.84152   0.87489   0.88452   0.90825
 Alpha virt. eigenvalues --    0.95816   0.99921   1.08162   1.08785   1.11126
 Alpha virt. eigenvalues --    1.16074   1.34101   1.37464   1.39864   1.40568
 Alpha virt. eigenvalues --    1.47606   1.55692   1.73992   1.76216   1.76850
 Alpha virt. eigenvalues --    1.89753   1.89839   1.95943   2.00610   2.06189
 Alpha virt. eigenvalues --    2.15872   2.18333   2.33721   2.46538   2.51690
 Alpha virt. eigenvalues --    2.61246   2.87616   3.12678   3.13548   3.24750
 Alpha virt. eigenvalues --    3.25201   3.31826   3.35098   3.38152   3.40317
 Alpha virt. eigenvalues --    3.43511   3.43729   3.48027   3.60291   3.65679
 Alpha virt. eigenvalues --    3.71002   3.74517   3.89009   4.03878   4.03933
 Alpha virt. eigenvalues --    4.15067   4.42308   4.52747   4.71853   4.93703
 Alpha virt. eigenvalues --    5.06400   5.61702   5.67459   5.67476   5.93381
 Alpha virt. eigenvalues --    5.97464   6.09198   6.09961   6.27566   6.91548
 Alpha virt. eigenvalues --    6.98542   7.16535   7.57587   7.58330   7.66715
 Alpha virt. eigenvalues --    7.66893   7.75358   7.82083   8.12099   8.22943
 Alpha virt. eigenvalues --    8.27436   8.76029  15.20029  15.20654  15.54654
 Alpha virt. eigenvalues --   15.56983  15.85309  25.32845  26.14926  52.26038
  Beta  occ. eigenvalues --  -20.37068 -11.10720 -11.00363  -1.16596  -0.59831
  Beta  occ. eigenvalues --   -0.46162  -0.31624  -0.30183  -0.18052
  Beta virt. eigenvalues --    0.21619   0.23920   0.24397   0.24950   0.28381
  Beta virt. eigenvalues --    0.28587   0.30513   0.33971   0.35477   0.36909
  Beta virt. eigenvalues --    0.45777   0.46692   0.46694   0.50737   0.53318
  Beta virt. eigenvalues --    0.55138   0.65430   0.66223   0.68705   0.76143
  Beta virt. eigenvalues --    0.79194   0.79598   0.82572   0.87028   0.87363
  Beta virt. eigenvalues --    0.90771   0.92836   0.96181   1.02131   1.06837
  Beta virt. eigenvalues --    1.11179   1.11890   1.13866   1.19673   1.36033
  Beta virt. eigenvalues --    1.38924   1.42308   1.42669   1.50676   1.57708
  Beta virt. eigenvalues --    1.77852   1.79345   1.80443   1.94289   1.96334
  Beta virt. eigenvalues --    2.02103   2.08452   2.14625   2.23847   2.25153
  Beta virt. eigenvalues --    2.38544   2.48259   2.55126   2.65396   2.91572
  Beta virt. eigenvalues --    3.17446   3.18876   3.29278   3.30364   3.36431
  Beta virt. eigenvalues --    3.41409   3.41831   3.46664   3.49017   3.49027
  Beta virt. eigenvalues --    3.52018   3.63772   3.70361   3.74326   3.78538
  Beta virt. eigenvalues --    3.92213   4.06803   4.08385   4.19020   4.45070
  Beta virt. eigenvalues --    4.55586   4.74840   4.96102   5.09023   5.64105
  Beta virt. eigenvalues --    5.69824   5.69844   5.96235   6.00957   6.11047
  Beta virt. eigenvalues --    6.11806   6.29112   6.93094   7.00012   7.18411
  Beta virt. eigenvalues --    7.61530   7.62554   7.73578   7.73692   7.77901
  Beta virt. eigenvalues --    7.86527   8.14289   8.25794   8.31208   8.77447
  Beta virt. eigenvalues --   15.23644  15.24297  15.56623  15.59522  15.87208
  Beta virt. eigenvalues --   25.35341  26.15841  52.27353
          Condensed to atoms (all electrons):
               1          2          3
     1  C    7.938979  -1.621579   0.188928
     2  C   -1.621579   8.074736  -0.570387
     3  O    0.188928  -0.570387   8.992360
          Atomic-Atomic Spin Densities.
               1          2          3
     1  C    2.584468  -0.981903   0.180764
     2  C   -0.981903   2.931524  -0.933800
     3  O    0.180764  -0.933800   0.953887
 Mulliken charges and spin densities:
               1          2
     1  C   -0.506328   1.783329
     2  C    0.117229   1.015821
     3  O   -0.610902   0.200851
 Sum of Mulliken charges =  -1.00000   3.00000
 Mulliken charges and spin densities with hydrogens summed into heavy atoms:
               1          2
     1  C   -0.506328   1.783329
     2  C    0.117229   1.015821
     3  O   -0.610902   0.200851
 Electronic spatial extent (au):  <R**2>=            147.1897
 Charge=             -1.0000 electrons
 Dipole moment (field-independent basis, Debye):
    X=             -3.0476    Y=              0.3594    Z=              0.0000  Tot=              3.0687
 Quadrupole moment (field-independent basis, Debye-Ang):
   XX=            -35.6925   YY=            -23.0591   ZZ=            -20.6587
   XY=              0.8620   XZ=              0.0000   YZ=              0.0000
 Traceless Quadrupole moment (field-independent basis, Debye-Ang):
   XX=             -9.2224   YY=              3.4110   ZZ=              5.8114
   XY=              0.8620   XZ=              0.0000   YZ=              0.0000
 Octapole moment (field-independent basis, Debye-Ang**2):
  XXX=            -38.4444  YYY=             -2.0245  ZZZ=              0.0000  XYY=             -7.3692
  XXY=              3.1726  XXZ=              0.0000  XZZ=             -7.0315  YZZ=             -0.3305
  YYZ=              0.0000  XYZ=              0.0000
 Hexadecapole moment (field-independent basis, Debye-Ang**3):
 XXXX=           -253.7236 YYYY=            -45.5353 ZZZZ=            -32.3485 XXXY=              3.7811
 XXXZ=              0.0000 YYYX=              0.9898 YYYZ=              0.0000 ZZZX=              0.0000
 ZZZY=              0.0000 XXYY=            -44.9997 XXZZ=            -40.8319 YYZZ=            -12.7882
 XXYZ=              0.0000 YYXZ=              0.0000 ZZXY=              0.1836
 N-N= 4.286737594736D+01 E-N=-4.448432204447D+02  KE= 1.502408452773D+02
 Symmetry A'   KE= 1.454121604602D+02
 Symmetry A"   KE= 4.828684817087D+00
 Leave Link  601 at Fri Mar  8 05:42:10 2019, MaxMem=    33554432 cpu:         0.2
 (Enter /home/proyectos/fulerenos/M3C-v2.0/M3C-deps_CCC/g09-AM64L-G09RevC.01/l9999.exe)
 1\1\GINC-DUBNIO\SP\UCCSD(T)-FC\6-311++G(3df,2p)\C2O1(1-,4)\ROOT\08-Mar
 -2019\0\\#p ccsd(t,maxcyc=200)/6-311++G(3df,2p)\\ccsd(t) iener\\-1,4\C
 ,0,1.410421,0.597849,0.\C,0,-0.048832,0.135093,0.\O,0,-0.863847,-0.770
 175,0.\\Version=EM64L-G09RevE.01\State=4-A"\HF=-150.4745623\MP2=-150.9
 507132\MP3=-150.9582166\MP4D=-150.971234\MP4DQ=-150.9590488\PUHF=-150.
 478776\PMP2-0=-150.9536337\PMP3-0=-150.959954\MP4SDQ=-150.9684553\CCSD
 =-150.9684751\CCSD(T)=-150.9945943\S2=3.785019\S2-1=3.763311\S2A=3.750
 489\RMSD=7.920e-09\PG=CS [SG(C2O1)]\\@


 THE MOST INCOMPREHENSIBLE THING ABOUT THE WORLD
 IS THAT IT IS COMPREHENSIBLE. -- A. EINSTEIN
 Job cpu time:       0 days  0 hours 17 minutes 14.6 seconds.
 File lengths (MBytes):  RWF=    336 Int=      0 D2E=      0 Chk=      2 Scr=      1
 Normal termination of Gaussian 09 at Fri Mar  8 05:42:10 2019.
