 Entering Gaussian System, Link 0=/home/proyectos/fulerenos/M3C-v2.0/M3C-deps_CCC/g09-AM64L-G09RevC.01/g09
 Initial command:
 /home/proyectos/fulerenos/M3C-v2.0/M3C-deps_CCC/g09-AM64L-G09RevC.01/l1.exe "/scratch/naguirre/gaussian/Gau-52594.inp" -scrdir="/scratch/naguirre/gaussian/"
 Entering Link 1 = /home/proyectos/fulerenos/M3C-v2.0/M3C-deps_CCC/g09-AM64L-G09RevC.01/l1.exe PID=     52602.
  
 Copyright (c) 1988,1990,1992,1993,1995,1998,2003,2009,2015,
            Gaussian, Inc.  All Rights Reserved.
  
 This is part of the Gaussian(R) 09 program.  It is based on
 the Gaussian(R) 03 system (copyright 2003, Gaussian, Inc.),
 the Gaussian(R) 98 system (copyright 1998, Gaussian, Inc.),
 the Gaussian(R) 94 system (copyright 1995, Gaussian, Inc.),
 the Gaussian 92(TM) system (copyright 1992, Gaussian, Inc.),
 the Gaussian 90(TM) system (copyright 1990, Gaussian, Inc.),
 the Gaussian 88(TM) system (copyright 1988, Gaussian, Inc.),
 the Gaussian 86(TM) system (copyright 1986, Carnegie Mellon
 University), and the Gaussian 82(TM) system (copyright 1983,
 Carnegie Mellon University). Gaussian is a federally registered
 trademark of Gaussian, Inc.
  
 This software contains proprietary and confidential information,
 including trade secrets, belonging to Gaussian, Inc.
  
 This software is provided under written license and may be
 used, copied, transmitted, or stored only in accord with that
 written license.
  
 The following legend is applicable only to US Government
 contracts under FAR:
  
                    RESTRICTED RIGHTS LEGEND
  
 Use, reproduction and disclosure by the US Government is
 subject to restrictions as set forth in subparagraphs (a)
 and (c) of the Commercial Computer Software - Restricted
 Rights clause in FAR 52.227-19.
  
 Gaussian, Inc.
 340 Quinnipiac St., Bldg. 40, Wallingford CT 06492
  
  
 ---------------------------------------------------------------
 Warning -- This program may not be used in any manner that
 competes with the business of Gaussian, Inc. or will provide
 assistance to any competitor of Gaussian, Inc.  The licensee
 of this program is prohibited from giving any competitor of
 Gaussian, Inc. access to this program.  By using this program,
 the user acknowledges that Gaussian, Inc. is engaged in the
 business of creating and licensing software in the field of
 computational chemistry and represents and warrants to the
 licensee that it is not a competitor of Gaussian, Inc. and that
 it will not use this program in any manner prohibited above.
 ---------------------------------------------------------------
  

 Cite this work as:
 Gaussian 09, Revision E.01,
 M. J. Frisch, G. W. Trucks, H. B. Schlegel, G. E. Scuseria, 
 M. A. Robb, J. R. Cheeseman, G. Scalmani, V. Barone, B. Mennucci, 
 G. A. Petersson, H. Nakatsuji, M. Caricato, X. Li, H. P. Hratchian, 
 A. F. Izmaylov, J. Bloino, G. Zheng, J. L. Sonnenberg, M. Hada, 
 M. Ehara, K. Toyota, R. Fukuda, J. Hasegawa, M. Ishida, T. Nakajima, 
 Y. Honda, O. Kitao, H. Nakai, T. Vreven, J. A. Montgomery, Jr., 
 J. E. Peralta, F. Ogliaro, M. Bearpark, J. J. Heyd, E. Brothers, 
 K. N. Kudin, V. N. Staroverov, T. Keith, R. Kobayashi, J. Normand, 
 K. Raghavachari, A. Rendell, J. C. Burant, S. S. Iyengar, J. Tomasi, 
 M. Cossi, N. Rega, J. M. Millam, M. Klene, J. E. Knox, J. B. Cross, 
 V. Bakken, C. Adamo, J. Jaramillo, R. Gomperts, R. E. Stratmann, 
 O. Yazyev, A. J. Austin, R. Cammi, C. Pomelli, J. W. Ochterski, 
 R. L. Martin, K. Morokuma, V. G. Zakrzewski, G. A. Voth, 
 P. Salvador, J. J. Dannenberg, S. Dapprich, A. D. Daniels, 
 O. Farkas, J. B. Foresman, J. V. Ortiz, J. Cioslowski, 
 and D. J. Fox, Gaussian, Inc., Wallingford CT, 2013.
 
 ******************************************
 Gaussian 09:  EM64L-G09RevE.01 30-Nov-2015
                 8-Mar-2019 
 ******************************************
 %NProcShared=4
 Will use up to    4 processors via shared memory.
 --------------------------------------
 #p ccsd(t,maxcyc=200)/6-311++G(3df,2p)
 --------------------------------------
 1/38=1/1;
 2/12=2,17=6,18=5,40=1/2;
 3/5=4,6=6,7=1216,11=9,16=1,25=1,30=1/1,2,3;
 4//1;
 5/5=2,38=5/2;
 8/6=4,9=120000,10=2/1,4;
 9/5=7,6=200,14=2/13;
 6/7=2,8=2,9=2,10=2/1;
 99/5=1,9=1/99;
 Leave Link    1 at Fri Mar  8 09:51:34 2019, MaxMem=           0 cpu:         1.1
 (Enter /home/proyectos/fulerenos/M3C-v2.0/M3C-deps_CCC/g09-AM64L-G09RevC.01/l101.exe)
 -------------
 ccsd(t) iener
 -------------
 Symbolic Z-matrix:
 Charge = -1 Multiplicity = 2
 C                     1.41951   0.47353  -0.73172 
 C                     0.5517   -0.06463   0.1002 
 H                     0.81515  -0.42773   1.10855 
 H                    -1.21492  -0.68303   0.65099 
 O                    -0.85957  -0.27208  -0.14611 
 
 NAtoms=      5 NQM=        5 NQMF=       0 NMMI=      0 NMMIF=      0
                NMic=       0 NMicF=      0.
                    Isotopes and Nuclear Properties:
 (Nuclear quadrupole moments (NQMom) in fm**2, nuclear magnetic moments (NMagM)
  in nuclear magnetons)

  Atom         1           2           3           4           5
 IAtWgt=          12          12           1           1          16
 AtmWgt=  12.0000000  12.0000000   1.0078250   1.0078250  15.9949146
 NucSpn=           0           0           1           1           0
 AtZEff=   0.0000000   0.0000000   0.0000000   0.0000000   0.0000000
 NQMom=    0.0000000   0.0000000   0.0000000   0.0000000   0.0000000
 NMagM=    0.0000000   0.0000000   2.7928460   2.7928460   0.0000000
 AtZNuc=   6.0000000   6.0000000   1.0000000   1.0000000   8.0000000
 Leave Link  101 at Fri Mar  8 09:51:35 2019, MaxMem=    33554432 cpu:         1.1
 (Enter /home/proyectos/fulerenos/M3C-v2.0/M3C-deps_CCC/g09-AM64L-G09RevC.01/l202.exe)
                          Input orientation:                          
 ---------------------------------------------------------------------
 Center     Atomic      Atomic             Coordinates (Angstroms)
 Number     Number       Type             X           Y           Z
 ---------------------------------------------------------------------
      1          6           0        1.419511    0.473532   -0.731716
      2          6           0        0.551699   -0.064629    0.100197
      3          1           0        0.815151   -0.427733    1.108546
      4          1           0       -1.214923   -0.683030    0.650994
      5          8           0       -0.859567   -0.272076   -0.146107
 ---------------------------------------------------------------------
                    Distance matrix (angstroms):
                    1          2          3          4          5
     1  C    0.000000
     2  C    1.317116   0.000000
     3  H    2.136374   1.103639   0.000000
     4  H    3.192141   1.951090   2.096600   0.000000
     5  O    2.468414   1.447540   2.098348   0.964640   0.000000
 Stoichiometry    C2H2O(1-,2)
 Framework group  CS[SG(C2H2O)]
 Deg. of freedom     7
 Full point group                 CS      NOp   2
 Largest Abelian subgroup         CS      NOp   2
 Largest concise Abelian subgroup C1      NOp   1
                         Standard orientation:                         
 ---------------------------------------------------------------------
 Center     Atomic      Atomic             Coordinates (Angstroms)
 Number     Number       Type             X           Y           Z
 ---------------------------------------------------------------------
      1          6           0        1.303348    0.614134    0.000000
      2          6           0       -0.000000    0.424189   -0.000000
      3          1           0       -0.737754    1.245005   -0.000000
      4          1           0       -1.626037   -0.654122   -0.000000
      5          8           0       -0.682037   -0.852603    0.000000
 ---------------------------------------------------------------------
 Rotational constants (GHZ):     87.2286126     11.1290271      9.8697935
 Leave Link  202 at Fri Mar  8 09:51:35 2019, MaxMem=    33554432 cpu:         0.3
 (Enter /home/proyectos/fulerenos/M3C-v2.0/M3C-deps_CCC/g09-AM64L-G09RevC.01/l301.exe)
 Standard basis: 6-311++G(3df,2p) (5D, 7F)
 Ernie: Thresh=  0.10000D-02 Tol=  0.10000D-05 Strict=F.
 There are   109 symmetry adapted cartesian basis functions of A'  symmetry.
 There are    46 symmetry adapted cartesian basis functions of A"  symmetry.
 There are    94 symmetry adapted basis functions of A'  symmetry.
 There are    43 symmetry adapted basis functions of A"  symmetry.
   137 basis functions,   198 primitive gaussians,   155 cartesian basis functions
    12 alpha electrons       11 beta electrons
       nuclear repulsion energy        55.9448513123 Hartrees.
 IExCor=    0 DFT=F Ex=HF Corr=None ExCW=0 ScaHFX=  1.000000
 ScaDFX=  1.000000  1.000000  1.000000  1.000000 ScalE2=  1.000000  1.000000
 IRadAn=      0 IRanWt=     -1 IRanGd=            0 ICorTp=0 IEmpDi=  4
 NAtoms=    5 NActive=    5 NUniq=    5 SFac= 1.00D+00 NAtFMM=   60 NAOKFM=F Big=F
 Integral buffers will be    131072 words long.
 Raffenetti 2 integral format.
 Two-electron integral symmetry is turned on.
 Leave Link  301 at Fri Mar  8 09:51:36 2019, MaxMem=    33554432 cpu:         1.9
 (Enter /home/proyectos/fulerenos/M3C-v2.0/M3C-deps_CCC/g09-AM64L-G09RevC.01/l302.exe)
 NPDir=0 NMtPBC=     1 NCelOv=     1 NCel=       1 NClECP=     1 NCelD=      1
         NCelK=      1 NCelE2=     1 NClLst=     1 CellRange=     0.0.
 One-electron integrals computed using PRISM.
 NBasis=   137 RedAO= T EigKep=  6.62D-05  NBF=    94    43
 NBsUse=   137 1.00D-06 EigRej= -1.00D+00 NBFU=    94    43
 Leave Link  302 at Fri Mar  8 09:51:37 2019, MaxMem=    33554432 cpu:         1.2
 (Enter /home/proyectos/fulerenos/M3C-v2.0/M3C-deps_CCC/g09-AM64L-G09RevC.01/l303.exe)
 DipDrv:  MaxL=1.
 Leave Link  303 at Fri Mar  8 09:51:37 2019, MaxMem=    33554432 cpu:         0.3
 (Enter /home/proyectos/fulerenos/M3C-v2.0/M3C-deps_CCC/g09-AM64L-G09RevC.01/l401.exe)
 ExpMin= 3.60D-02 ExpMax= 8.59D+03 ExpMxC= 1.30D+03 IAcc=3 IRadAn=         5 AccDes= 0.00D+00
 Harris functional with IExCor=  205 and IRadAn=       5 diagonalized for initial guess.
 HarFok:  IExCor=  205 AccDes= 0.00D+00 IRadAn=         5 IDoV= 1 UseB2=F ITyADJ=14
 ICtDFT=  3500011 ScaDFX=  1.000000  1.000000  1.000000  1.000000
 FoFCou: FMM=F IPFlag=           0 FMFlag=      100000 FMFlg1=           0
         NFxFlg=           0 DoJE=T BraDBF=F KetDBF=T FulRan=T
         wScrn=  0.000000 ICntrl=     500 IOpCl=  0 I1Cent=   200000004 NGrid=           0
         NMat0=    1 NMatS0=      1 NMatT0=    0 NMatD0=    1 NMtDS0=    0 NMtDT0=    0
 Petite list used in FoFCou.
 Harris En= -151.990189169530    
 JPrj=0 DoOrth=F DoCkMO=F.
 Initial guess orbital symmetries:
 Alpha Orbitals:
       Occupied  (A') (A') (A') (A') (A') (A') (A') (A') (A") (A')
                 (A") (A')
       Virtual   (A") (A') (A') (A') (A") (A') (A') (A') (A") (A')
                 (A') (A') (A') (A') (A") (A') (A') (A") (A') (A')
                 (A') (A') (A") (A') (A') (A") (A") (A') (A') (A")
                 (A') (A') (A") (A') (A') (A') (A') (A") (A') (A")
                 (A') (A') (A") (A") (A') (A') (A") (A') (A') (A')
                 (A') (A") (A') (A") (A') (A') (A') (A") (A') (A')
                 (A") (A') (A') (A') (A') (A") (A') (A") (A") (A')
                 (A") (A') (A') (A') (A") (A') (A") (A') (A') (A")
                 (A") (A') (A') (A') (A') (A") (A') (A") (A') (A')
                 (A') (A') (A") (A") (A') (A') (A") (A") (A') (A')
                 (A") (A') (A') (A") (A') (A') (A") (A') (A') (A")
                 (A') (A") (A') (A") (A') (A') (A') (A") (A") (A')
                 (A') (A') (A') (A') (A')
 Beta  Orbitals:
       Occupied  (A') (A') (A') (A') (A') (A') (A') (A') (A") (A')
                 (A")
       Virtual   (A') (A") (A') (A') (A') (A") (A') (A') (A') (A")
                 (A') (A') (A') (A') (A') (A") (A') (A') (A") (A')
                 (A') (A') (A') (A") (A') (A') (A") (A") (A') (A')
                 (A") (A') (A') (A") (A') (A') (A') (A') (A") (A')
                 (A") (A') (A') (A") (A") (A') (A') (A") (A') (A')
                 (A') (A') (A") (A') (A") (A') (A') (A') (A") (A')
                 (A') (A") (A') (A') (A') (A') (A") (A') (A") (A")
                 (A') (A") (A') (A') (A') (A") (A') (A") (A') (A')
                 (A") (A") (A') (A') (A') (A') (A") (A') (A") (A')
                 (A') (A') (A') (A") (A") (A') (A') (A") (A") (A')
                 (A') (A") (A') (A') (A") (A') (A') (A") (A') (A')
                 (A") (A') (A") (A') (A") (A') (A') (A') (A") (A")
                 (A') (A') (A') (A') (A') (A')
 The electronic state of the initial guess is 2-A'.
 Initial guess <Sx>= 0.0000 <Sy>= 0.0000 <Sz>= 0.5000 <S**2>= 0.7500 S= 0.5000
 Leave Link  401 at Fri Mar  8 09:51:41 2019, MaxMem=    33554432 cpu:         5.6
 (Enter /home/proyectos/fulerenos/M3C-v2.0/M3C-deps_CCC/g09-AM64L-G09RevC.01/l502.exe)
 UHF open shell SCF:
 Using DIIS extrapolation, IDIIS=  1040.
 Integral symmetry usage will be decided dynamically.
 IVT=       92714 IEndB=       92714 NGot=    33554432 MDV=    33502539
 LenX=    33502539 LenY=    33478073
 Requested convergence on RMS density matrix=1.00D-08 within 128 cycles.
 Requested convergence on MAX density matrix=1.00D-06.
 Requested convergence on             energy=1.00D-06.
 No special actions if energy rises.
 Fock matrices will be formed incrementally for  20 cycles.

 Cycle   1  Pass 0  IDiag  1:
 FoFJK:  IHMeth= 1 ICntrl=       0 DoSepK=F KAlg= 0 I1Cent=   0 FoldK=F
 IRaf= 990000000 NMat=   1 IRICut=       1 DoRegI=T DoRafI=F ISym2E= 1.
 FoFCou: FMM=F IPFlag=           0 FMFlag=      100000 FMFlg1=           0
         NFxFlg=           0 DoJE=F BraDBF=F KetDBF=F FulRan=T
         wScrn=  0.000000 ICntrl=       0 IOpCl=  1 I1Cent=           0 NGrid=           0
         NMat0=    1 NMatS0=      1 NMatT0=    0 NMatD0=    1 NMtDS0=    0 NMtDT0=    0
 Petite list used in FoFCou.
 E= -151.434078475714    
 DIIS: error= 3.85D-02 at cycle   1 NSaved=   1.
 NSaved= 1 IEnMin= 1 EnMin= -151.434078475714     IErMin= 1 ErrMin= 3.85D-02
 ErrMax= 3.85D-02  0.00D+00 EMaxC= 1.00D-01 BMatC= 1.43D+00 BMatP= 1.43D+00
 IDIUse=3 WtCom= 6.15D-01 WtEn= 3.85D-01
 Coeff-Com:  0.100D+01
 Coeff-En:   0.100D+01
 Coeff:      0.100D+01
 Gap=     0.150 Goal=   None    Shift=    0.000
 Gap=     0.522 Goal=   None    Shift=    0.000
 GapD=    0.150 DampG=1.000 DampE=0.500 DampFc=0.5000 IDamp=-1.
 Damping current iteration by 5.00D-01
 RMSDP=1.26D-02 MaxDP=6.34D-01              OVMax= 3.39D-01

 Cycle   2  Pass 0  IDiag  1:
 RMSU=  4.96D-03    CP:  8.40D-01
 E= -151.555633945619     Delta-E=       -0.121555469905 Rises=F Damp=T
 DIIS: error= 2.09D-02 at cycle   2 NSaved=   2.
 NSaved= 2 IEnMin= 2 EnMin= -151.555633945619     IErMin= 2 ErrMin= 2.09D-02
 ErrMax= 2.09D-02  0.00D+00 EMaxC= 1.00D-01 BMatC= 2.59D-01 BMatP= 1.43D+00
 IDIUse=3 WtCom= 7.91D-01 WtEn= 2.09D-01
 Coeff-Com: -0.522D+00 0.152D+01
 Coeff-En:   0.000D+00 0.100D+01
 Coeff:     -0.413D+00 0.141D+01
 Gap=     0.222 Goal=   None    Shift=    0.000
 Gap=     0.280 Goal=   None    Shift=    0.000
 RMSDP=6.14D-03 MaxDP=4.16D-01 DE=-1.22D-01 OVMax= 1.65D-01

 Cycle   3  Pass 0  IDiag  1:
 RMSU=  3.69D-03    CP:  6.39D-01  1.14D+00
 E= -151.667994430070     Delta-E=       -0.112360484451 Rises=F Damp=F
 DIIS: error= 5.02D-03 at cycle   3 NSaved=   3.
 NSaved= 3 IEnMin= 3 EnMin= -151.667994430070     IErMin= 3 ErrMin= 5.02D-03
 ErrMax= 5.02D-03  0.00D+00 EMaxC= 1.00D-01 BMatC= 7.69D-03 BMatP= 2.59D-01
 IDIUse=3 WtCom= 9.50D-01 WtEn= 5.02D-02
 Coeff-Com: -0.119D+00 0.191D+00 0.928D+00
 Coeff-En:   0.000D+00 0.000D+00 0.100D+01
 Coeff:     -0.113D+00 0.182D+00 0.931D+00
 Gap=     0.230 Goal=   None    Shift=    0.000
 Gap=     0.267 Goal=   None    Shift=    0.000
 RMSDP=8.82D-04 MaxDP=5.24D-02 DE=-1.12D-01 OVMax= 2.43D-02

 Cycle   4  Pass 0  IDiag  1:
 RMSU=  5.24D-04    CP:  6.17D-01  1.14D+00  1.13D+00
 E= -151.670761502730     Delta-E=       -0.002767072660 Rises=F Damp=F
 DIIS: error= 1.92D-03 at cycle   4 NSaved=   4.
 NSaved= 4 IEnMin= 4 EnMin= -151.670761502730     IErMin= 4 ErrMin= 1.92D-03
 ErrMax= 1.92D-03  0.00D+00 EMaxC= 1.00D-01 BMatC= 7.76D-04 BMatP= 7.69D-03
 IDIUse=3 WtCom= 9.81D-01 WtEn= 1.92D-02
 Coeff-Com: -0.707D-02 0.277D-02 0.669D-01 0.937D+00
 Coeff-En:   0.000D+00 0.000D+00 0.000D+00 0.100D+01
 Coeff:     -0.693D-02 0.272D-02 0.656D-01 0.939D+00
 Gap=     0.234 Goal=   None    Shift=    0.000
 Gap=     0.263 Goal=   None    Shift=    0.000
 RMSDP=4.25D-04 MaxDP=1.57D-02 DE=-2.77D-03 OVMax= 2.13D-02

 Cycle   5  Pass 0  IDiag  1:
 RMSU=  1.52D-04    CP:  6.14D-01  1.11D+00  1.18D+00  1.58D+00
 E= -151.671431106811     Delta-E=       -0.000669604081 Rises=F Damp=F
 DIIS: error= 1.28D-03 at cycle   5 NSaved=   5.
 NSaved= 5 IEnMin= 5 EnMin= -151.671431106811     IErMin= 5 ErrMin= 1.28D-03
 ErrMax= 1.28D-03  0.00D+00 EMaxC= 1.00D-01 BMatC= 3.22D-04 BMatP= 7.76D-04
 IDIUse=3 WtCom= 9.87D-01 WtEn= 1.28D-02
 Coeff-Com:  0.188D-01-0.291D-01-0.213D+00 0.565D-01 0.117D+01
 Coeff-En:   0.000D+00 0.000D+00 0.000D+00 0.000D+00 0.100D+01
 Coeff:      0.186D-01-0.288D-01-0.210D+00 0.558D-01 0.116D+01
 Gap=     0.241 Goal=   None    Shift=    0.000
 Gap=     0.263 Goal=   None    Shift=    0.000
 RMSDP=3.97D-04 MaxDP=1.56D-02 DE=-6.70D-04 OVMax= 2.27D-02

 Cycle   6  Pass 0  IDiag  1:
 RMSU=  9.94D-05    CP:  6.13D-01  1.07D+00  1.22D+00  2.12D+00  1.88D+00
 E= -151.671887211735     Delta-E=       -0.000456104925 Rises=F Damp=F
 DIIS: error= 1.02D-03 at cycle   6 NSaved=   6.
 NSaved= 6 IEnMin= 6 EnMin= -151.671887211735     IErMin= 6 ErrMin= 1.02D-03
 ErrMax= 1.02D-03  0.00D+00 EMaxC= 1.00D-01 BMatC= 1.23D-04 BMatP= 3.22D-04
 IDIUse=3 WtCom= 9.90D-01 WtEn= 1.02D-02
 Coeff-Com: -0.760D-02 0.147D-01 0.570D-01-0.240D+00-0.259D+00 0.144D+01
 Coeff-En:   0.000D+00 0.000D+00 0.000D+00 0.000D+00 0.000D+00 0.100D+01
 Coeff:     -0.752D-02 0.145D-01 0.564D-01-0.238D+00-0.256D+00 0.143D+01
 Gap=     0.244 Goal=   None    Shift=    0.000
 Gap=     0.263 Goal=   None    Shift=    0.000
 RMSDP=2.46D-04 MaxDP=7.56D-03 DE=-4.56D-04 OVMax= 1.46D-02

 Cycle   7  Pass 0  IDiag  1:
 RMSU=  5.60D-05    CP:  6.13D-01  1.05D+00  1.23D+00  2.38D+00  2.65D+00
                    CP:  2.16D+00
 E= -151.672142938082     Delta-E=       -0.000255726347 Rises=F Damp=F
 DIIS: error= 8.03D-04 at cycle   7 NSaved=   7.
 NSaved= 7 IEnMin= 7 EnMin= -151.672142938082     IErMin= 7 ErrMin= 8.03D-04
 ErrMax= 8.03D-04  0.00D+00 EMaxC= 1.00D-01 BMatC= 7.06D-05 BMatP= 1.23D-04
 IDIUse=3 WtCom= 9.92D-01 WtEn= 8.03D-03
 Coeff-Com: -0.688D-02 0.102D-01 0.628D-01 0.718D-01-0.259D+00-0.710D+00
 Coeff-Com:  0.183D+01
 Coeff-En:   0.000D+00 0.000D+00 0.000D+00 0.000D+00 0.000D+00 0.000D+00
 Coeff-En:   0.100D+01
 Coeff:     -0.682D-02 0.102D-01 0.623D-01 0.712D-01-0.257D+00-0.704D+00
 Coeff:      0.182D+01
 Gap=     0.246 Goal=   None    Shift=    0.000
 Gap=     0.263 Goal=   None    Shift=    0.000
 RMSDP=2.04D-04 MaxDP=6.89D-03 DE=-2.56D-04 OVMax= 1.56D-02

 Cycle   8  Pass 0  IDiag  1:
 RMSU=  6.51D-05    CP:  6.13D-01  1.04D+00  1.24D+00  2.45D+00  3.00D+00
                    CP:  3.00D+00  2.73D+00
 E= -151.672350842737     Delta-E=       -0.000207904655 Rises=F Damp=F
 DIIS: error= 6.50D-04 at cycle   8 NSaved=   8.
 NSaved= 8 IEnMin= 8 EnMin= -151.672350842737     IErMin= 8 ErrMin= 6.50D-04
 ErrMax= 6.50D-04  0.00D+00 EMaxC= 1.00D-01 BMatC= 4.58D-05 BMatP= 7.06D-05
 IDIUse=3 WtCom= 9.94D-01 WtEn= 6.50D-03
 Coeff-Com:  0.387D-02-0.690D-02-0.317D-01 0.849D-01 0.128D+00-0.496D+00
 Coeff-Com: -0.113D+00 0.143D+01
 Coeff-En:   0.000D+00 0.000D+00 0.000D+00 0.000D+00 0.000D+00 0.000D+00
 Coeff-En:   0.000D+00 0.100D+01
 Coeff:      0.385D-02-0.686D-02-0.315D-01 0.843D-01 0.127D+00-0.493D+00
 Coeff:     -0.112D+00 0.143D+01
 Gap=     0.247 Goal=   None    Shift=    0.000
 Gap=     0.264 Goal=   None    Shift=    0.000
 RMSDP=1.35D-04 MaxDP=5.49D-03 DE=-2.08D-04 OVMax= 1.27D-02

 Cycle   9  Pass 0  IDiag  1:
 RMSU=  7.32D-05    CP:  6.12D-01  1.03D+00  1.24D+00  2.48D+00  3.00D+00
                    CP:  3.00D+00  3.00D+00  2.46D+00
 E= -151.672487785355     Delta-E=       -0.000136942618 Rises=F Damp=F
 DIIS: error= 6.13D-04 at cycle   9 NSaved=   9.
 NSaved= 9 IEnMin= 9 EnMin= -151.672487785355     IErMin= 9 ErrMin= 6.13D-04
 ErrMax= 6.13D-04  0.00D+00 EMaxC= 1.00D-01 BMatC= 3.19D-05 BMatP= 4.58D-05
 IDIUse=3 WtCom= 9.94D-01 WtEn= 6.13D-03
 Coeff-Com:  0.763D-02-0.114D-01-0.670D-01-0.604D-01 0.256D+00 0.798D+00
 Coeff-Com: -0.193D+01-0.434D+00 0.244D+01
 Coeff-En:   0.000D+00 0.000D+00 0.000D+00 0.000D+00 0.000D+00 0.000D+00
 Coeff-En:   0.000D+00 0.000D+00 0.100D+01
 Coeff:      0.758D-02-0.113D-01-0.666D-01-0.600D-01 0.254D+00 0.793D+00
 Coeff:     -0.192D+01-0.431D+00 0.243D+01
 Gap=     0.248 Goal=   None    Shift=    0.000
 Gap=     0.265 Goal=   None    Shift=    0.000
 RMSDP=2.43D-04 MaxDP=9.70D-03 DE=-1.37D-04 OVMax= 2.43D-02

 Cycle  10  Pass 0  IDiag  1:
 RMSU=  1.39D-04    CP:  6.10D-01  1.03D+00  1.25D+00  2.49D+00  3.00D+00
                    CP:  3.00D+00  3.00D+00  3.00D+00  3.00D+00
 E= -151.672681057060     Delta-E=       -0.000193271704 Rises=F Damp=F
 DIIS: error= 3.00D-04 at cycle  10 NSaved=  10.
 NSaved=10 IEnMin=10 EnMin= -151.672681057060     IErMin=10 ErrMin= 3.00D-04
 ErrMax= 3.00D-04  0.00D+00 EMaxC= 1.00D-01 BMatC= 1.23D-05 BMatP= 3.19D-05
 IDIUse=3 WtCom= 9.97D-01 WtEn= 3.00D-03
 Coeff-Com: -0.747D-02 0.122D-01 0.665D-01-0.229D-01-0.249D+00-0.108D+00
 Coeff-Com:  0.137D+01-0.114D+01-0.121D+01 0.229D+01
 Coeff-En:   0.000D+00 0.000D+00 0.000D+00 0.000D+00 0.000D+00 0.000D+00
 Coeff-En:   0.000D+00 0.000D+00 0.000D+00 0.100D+01
 Coeff:     -0.744D-02 0.121D-01 0.663D-01-0.229D-01-0.249D+00-0.107D+00
 Coeff:      0.137D+01-0.114D+01-0.121D+01 0.228D+01
 Gap=     0.247 Goal=   None    Shift=    0.000
 Gap=     0.268 Goal=   None    Shift=    0.000
 RMSDP=2.11D-04 MaxDP=7.52D-03 DE=-1.93D-04 OVMax= 2.29D-02

 Cycle  11  Pass 0  IDiag  1:
 RMSU=  1.43D-04    CP:  6.11D-01  1.03D+00  1.25D+00  2.53D+00  3.00D+00
                    CP:  3.00D+00  3.00D+00  3.00D+00  3.00D+00  2.08D+00
 E= -151.672760649485     Delta-E=       -0.000079592426 Rises=F Damp=F
 DIIS: error= 6.58D-05 at cycle  11 NSaved=  11.
 NSaved=11 IEnMin=11 EnMin= -151.672760649485     IErMin=11 ErrMin= 6.58D-05
 ErrMax= 6.58D-05  0.00D+00 EMaxC= 1.00D-01 BMatC= 1.44D-06 BMatP= 1.23D-05
 IDIUse=1 WtCom= 1.00D+00 WtEn= 0.00D+00
 Coeff-Com:  0.527D-03-0.839D-03-0.122D-01 0.126D-01 0.482D-01-0.141D+00
 Coeff-Com: -0.122D+00 0.510D+00 0.872D-01-0.973D+00 0.159D+01
 Coeff:      0.527D-03-0.839D-03-0.122D-01 0.126D-01 0.482D-01-0.141D+00
 Coeff:     -0.122D+00 0.510D+00 0.872D-01-0.973D+00 0.159D+01
 Gap=     0.247 Goal=   None    Shift=    0.000
 Gap=     0.268 Goal=   None    Shift=    0.000
 RMSDP=5.41D-05 MaxDP=2.90D-03 DE=-7.96D-05 OVMax= 4.09D-03

 Cycle  12  Pass 0  IDiag  1:
 RMSU=  2.85D-05    CP:  6.11D-01  1.04D+00  1.24D+00  2.58D+00  3.00D+00
                    CP:  3.00D+00  3.00D+00  3.00D+00  3.00D+00  2.16D+00
                    CP:  1.21D+00
 E= -151.672764758912     Delta-E=       -0.000004109427 Rises=F Damp=F
 DIIS: error= 2.73D-05 at cycle  12 NSaved=  12.
 NSaved=12 IEnMin=12 EnMin= -151.672764758912     IErMin=12 ErrMin= 2.73D-05
 ErrMax= 2.73D-05  0.00D+00 EMaxC= 1.00D-01 BMatC= 2.40D-07 BMatP= 1.44D-06
 IDIUse=1 WtCom= 1.00D+00 WtEn= 0.00D+00
 Coeff-Com:  0.852D-03-0.144D-02-0.255D-02-0.554D-02 0.848D-02 0.105D+00
 Coeff-Com: -0.155D+00-0.942D-01 0.137D+00 0.132D+00-0.725D+00 0.160D+01
 Coeff:      0.852D-03-0.144D-02-0.255D-02-0.554D-02 0.848D-02 0.105D+00
 Coeff:     -0.155D+00-0.942D-01 0.137D+00 0.132D+00-0.725D+00 0.160D+01
 Gap=     0.247 Goal=   None    Shift=    0.000
 Gap=     0.269 Goal=   None    Shift=    0.000
 RMSDP=1.68D-05 MaxDP=7.24D-04 DE=-4.11D-06 OVMax= 1.25D-03

 Cycle  13  Pass 0  IDiag  1:
 RMSU=  9.96D-06    CP:  6.11D-01  1.04D+00  1.24D+00  2.58D+00  3.00D+00
                    CP:  3.00D+00  3.00D+00  3.00D+00  3.00D+00  2.15D+00
                    CP:  1.24D+00  1.37D+00
 E= -151.672765302988     Delta-E=       -0.000000544076 Rises=F Damp=F
 DIIS: error= 1.39D-05 at cycle  13 NSaved=  13.
 NSaved=13 IEnMin=13 EnMin= -151.672765302988     IErMin=13 ErrMin= 1.39D-05
 ErrMax= 1.39D-05  0.00D+00 EMaxC= 1.00D-01 BMatC= 4.91D-08 BMatP= 2.40D-07
 IDIUse=1 WtCom= 1.00D+00 WtEn= 0.00D+00
 Coeff-Com: -0.592D-03 0.993D-03 0.366D-02 0.848D-03-0.124D-01-0.307D-01
 Coeff-Com:  0.100D+00-0.250D-01-0.897D-01 0.822D-01 0.114D+00-0.914D+00
 Coeff-Com:  0.177D+01
 Coeff:     -0.592D-03 0.993D-03 0.366D-02 0.848D-03-0.124D-01-0.307D-01
 Coeff:      0.100D+00-0.250D-01-0.897D-01 0.822D-01 0.114D+00-0.914D+00
 Coeff:      0.177D+01
 Gap=     0.247 Goal=   None    Shift=    0.000
 Gap=     0.269 Goal=   None    Shift=    0.000
 RMSDP=1.25D-05 MaxDP=6.98D-04 DE=-5.44D-07 OVMax= 4.60D-04

 Cycle  14  Pass 0  IDiag  1:
 RMSU=  2.69D-06    CP:  6.11D-01  1.04D+00  1.24D+00  2.58D+00  3.00D+00
                    CP:  3.00D+00  3.00D+00  3.00D+00  3.00D+00  2.11D+00
                    CP:  1.22D+00  1.52D+00  1.89D+00
 E= -151.672765403910     Delta-E=       -0.000000100921 Rises=F Damp=F
 DIIS: error= 6.10D-06 at cycle  14 NSaved=  14.
 NSaved=14 IEnMin=14 EnMin= -151.672765403910     IErMin=14 ErrMin= 6.10D-06
 ErrMax= 6.10D-06  0.00D+00 EMaxC= 1.00D-01 BMatC= 7.31D-09 BMatP= 4.91D-08
 IDIUse=1 WtCom= 1.00D+00 WtEn= 0.00D+00
 Coeff-Com:  0.126D-03-0.204D-03-0.141D-02-0.366D-03 0.452D-02-0.672D-03
 Coeff-Com: -0.242D-01 0.263D-01 0.160D-01-0.501D-01 0.499D-01 0.198D+00
 Coeff-Com: -0.864D+00 0.165D+01
 Coeff:      0.126D-03-0.204D-03-0.141D-02-0.366D-03 0.452D-02-0.672D-03
 Coeff:     -0.242D-01 0.263D-01 0.160D-01-0.501D-01 0.499D-01 0.198D+00
 Coeff:     -0.864D+00 0.165D+01
 Gap=     0.247 Goal=   None    Shift=    0.000
 Gap=     0.269 Goal=   None    Shift=    0.000
 RMSDP=3.51D-06 MaxDP=1.66D-04 DE=-1.01D-07 OVMax= 1.62D-04

 Initial convergence to 1.0D-05 achieved.  Increase integral accuracy.
 Cycle  15  Pass 1  IDiag  1:
 E= -151.672765418293     Delta-E=       -0.000000014383 Rises=F Damp=F
 DIIS: error= 3.40D-06 at cycle   1 NSaved=   1.
 NSaved= 1 IEnMin= 1 EnMin= -151.672765418293     IErMin= 1 ErrMin= 3.40D-06
 ErrMax= 3.40D-06  0.00D+00 EMaxC= 1.00D-01 BMatC= 1.44D-09 BMatP= 1.44D-09
 IDIUse=1 WtCom= 1.00D+00 WtEn= 0.00D+00
 Coeff-Com:  0.100D+01
 Coeff:      0.100D+01
 Gap=     0.247 Goal=   None    Shift=    0.000
 Gap=     0.269 Goal=   None    Shift=    0.000
 RMSDP=3.51D-06 MaxDP=1.66D-04 DE=-1.44D-08 OVMax= 3.41D-05

 Cycle  16  Pass 1  IDiag  1:
 RMSU=  4.69D-07    CP:  1.00D+00
 E= -151.672765419902     Delta-E=       -0.000000001610 Rises=F Damp=F
 DIIS: error= 2.73D-06 at cycle   2 NSaved=   2.
 NSaved= 2 IEnMin= 2 EnMin= -151.672765419902     IErMin= 2 ErrMin= 2.73D-06
 ErrMax= 2.73D-06  0.00D+00 EMaxC= 1.00D-01 BMatC= 8.51D-10 BMatP= 1.44D-09
 IDIUse=1 WtCom= 1.00D+00 WtEn= 0.00D+00
 Coeff-Com: -0.147D+01 0.247D+01
 Coeff:     -0.147D+01 0.247D+01
 Gap=     0.247 Goal=   None    Shift=    0.000
 Gap=     0.269 Goal=   None    Shift=    0.000
 RMSDP=7.59D-07 MaxDP=2.58D-05 DE=-1.61D-09 OVMax= 6.91D-05

 Cycle  17  Pass 1  IDiag  1:
 RMSU=  2.93D-07    CP:  1.00D+00  2.49D+00
 E= -151.672765422037     Delta-E=       -0.000000002134 Rises=F Damp=F
 DIIS: error= 1.44D-06 at cycle   3 NSaved=   3.
 NSaved= 3 IEnMin= 3 EnMin= -151.672765422037     IErMin= 3 ErrMin= 1.44D-06
 ErrMax= 1.44D-06  0.00D+00 EMaxC= 1.00D-01 BMatC= 2.74D-10 BMatP= 8.51D-10
 IDIUse=1 WtCom= 1.00D+00 WtEn= 0.00D+00
 Coeff-Com: -0.486D+00 0.151D+00 0.133D+01
 Coeff:     -0.486D+00 0.151D+00 0.133D+01
 Gap=     0.247 Goal=   None    Shift=    0.000
 Gap=     0.269 Goal=   None    Shift=    0.000
 RMSDP=4.50D-07 MaxDP=1.51D-05 DE=-2.13D-09 OVMax= 4.84D-05

 Cycle  18  Pass 1  IDiag  1:
 RMSU=  1.22D-07    CP:  1.00D+00  3.00D+00  2.01D+00
 E= -151.672765422801     Delta-E=       -0.000000000764 Rises=F Damp=F
 DIIS: error= 5.83D-07 at cycle   4 NSaved=   4.
 NSaved= 4 IEnMin= 4 EnMin= -151.672765422801     IErMin= 4 ErrMin= 5.83D-07
 ErrMax= 5.83D-07  0.00D+00 EMaxC= 1.00D-01 BMatC= 7.34D-11 BMatP= 2.74D-10
 IDIUse=1 WtCom= 1.00D+00 WtEn= 0.00D+00
 Coeff-Com:  0.595D+00-0.912D+00-0.217D+00 0.153D+01
 Coeff:      0.595D+00-0.912D+00-0.217D+00 0.153D+01
 Gap=     0.247 Goal=   None    Shift=    0.000
 Gap=     0.269 Goal=   None    Shift=    0.000
 RMSDP=2.57D-07 MaxDP=9.48D-06 DE=-7.64D-10 OVMax= 3.00D-05

 Cycle  19  Pass 1  IDiag  1:
 RMSU=  5.98D-08    CP:  1.00D+00  3.00D+00  2.74D+00  2.05D+00
 E= -151.672765423005     Delta-E=       -0.000000000204 Rises=F Damp=F
 DIIS: error= 2.28D-07 at cycle   5 NSaved=   5.
 NSaved= 5 IEnMin= 5 EnMin= -151.672765423005     IErMin= 5 ErrMin= 2.28D-07
 ErrMax= 2.28D-07  0.00D+00 EMaxC= 1.00D-01 BMatC= 1.34D-11 BMatP= 7.34D-11
 IDIUse=1 WtCom= 1.00D+00 WtEn= 0.00D+00
 Coeff-Com:  0.192D+00-0.154D+00-0.325D+00 0.176D+00 0.111D+01
 Coeff:      0.192D+00-0.154D+00-0.325D+00 0.176D+00 0.111D+01
 Gap=     0.247 Goal=   None    Shift=    0.000
 Gap=     0.269 Goal=   None    Shift=    0.000
 RMSDP=7.08D-08 MaxDP=2.67D-06 DE=-2.04D-10 OVMax= 8.64D-06

 Cycle  20  Pass 1  IDiag  1:
 RMSU=  2.53D-08    CP:  1.00D+00  3.00D+00  2.84D+00  2.37D+00  1.74D+00
 E= -151.672765423028     Delta-E=       -0.000000000023 Rises=F Damp=F
 DIIS: error= 1.28D-07 at cycle   6 NSaved=   6.
 NSaved= 6 IEnMin= 6 EnMin= -151.672765423028     IErMin= 6 ErrMin= 1.28D-07
 ErrMax= 1.28D-07  0.00D+00 EMaxC= 1.00D-01 BMatC= 3.17D-12 BMatP= 1.34D-11
 IDIUse=1 WtCom= 1.00D+00 WtEn= 0.00D+00
 Coeff-Com: -0.779D-01 0.129D+00 0.190D-01-0.250D+00 0.713D-01 0.111D+01
 Coeff:     -0.779D-01 0.129D+00 0.190D-01-0.250D+00 0.713D-01 0.111D+01
 Gap=     0.247 Goal=   None    Shift=    0.000
 Gap=     0.269 Goal=   None    Shift=    0.000
 RMSDP=3.34D-08 MaxDP=1.51D-06 DE=-2.29D-11 OVMax= 2.16D-06

 Cycle  21  Pass 1  IDiag  1:
 RMSU=  1.17D-08    CP:  1.00D+00  3.00D+00  2.79D+00  2.51D+00  2.06D+00
                    CP:  1.31D+00
 E= -151.672765423033     Delta-E=       -0.000000000005 Rises=F Damp=F
 DIIS: error= 1.06D-07 at cycle   7 NSaved=   7.
 NSaved= 7 IEnMin= 7 EnMin= -151.672765423033     IErMin= 7 ErrMin= 1.06D-07
 ErrMax= 1.06D-07  0.00D+00 EMaxC= 1.00D-01 BMatC= 1.44D-12 BMatP= 3.17D-12
 IDIUse=1 WtCom= 1.00D+00 WtEn= 0.00D+00
 Coeff-Com: -0.373D-01 0.231D-01 0.782D-01-0.258D-01-0.267D+00-0.644D-01
 Coeff-Com:  0.129D+01
 Coeff:     -0.373D-01 0.231D-01 0.782D-01-0.258D-01-0.267D+00-0.644D-01
 Coeff:      0.129D+01
 Gap=     0.247 Goal=   None    Shift=    0.000
 Gap=     0.269 Goal=   None    Shift=    0.000
 RMSDP=2.14D-08 MaxDP=8.01D-07 DE=-4.95D-12 OVMax= 1.48D-06

 Cycle  22  Pass 1  IDiag  1:
 RMSU=  5.48D-09    CP:  1.00D+00  3.00D+00  2.75D+00  2.57D+00  2.13D+00
                    CP:  1.40D+00  2.26D+00
 E= -151.672765423035     Delta-E=       -0.000000000002 Rises=F Damp=F
 DIIS: error= 9.17D-08 at cycle   8 NSaved=   8.
 NSaved= 8 IEnMin= 8 EnMin= -151.672765423035     IErMin= 8 ErrMin= 9.17D-08
 ErrMax= 9.17D-08  0.00D+00 EMaxC= 1.00D-01 BMatC= 9.10D-13 BMatP= 1.44D-12
 IDIUse=1 WtCom= 1.00D+00 WtEn= 0.00D+00
 Coeff-Com:  0.710D-01-0.762D-01-0.871D-01 0.122D+00 0.244D+00-0.423D+00
 Coeff-Com: -0.108D+01 0.223D+01
 Coeff:      0.710D-01-0.762D-01-0.871D-01 0.122D+00 0.244D+00-0.423D+00
 Coeff:     -0.108D+01 0.223D+01
 Gap=     0.247 Goal=   None    Shift=    0.000
 Gap=     0.269 Goal=   None    Shift=    0.000
 RMSDP=1.74D-08 MaxDP=6.56D-07 DE=-2.27D-12 OVMax= 2.19D-06

 Cycle  23  Pass 1  IDiag  1:
 RMSU=  1.10D-08    CP:  1.00D+00  3.00D+00  2.77D+00  2.58D+00  2.08D+00
                    CP:  1.43D+00  3.00D+00  2.08D+00
 E= -151.672765423038     Delta-E=       -0.000000000003 Rises=F Damp=F
 DIIS: error= 6.92D-08 at cycle   9 NSaved=   9.
 NSaved= 9 IEnMin= 9 EnMin= -151.672765423038     IErMin= 9 ErrMin= 6.92D-08
 ErrMax= 6.92D-08  0.00D+00 EMaxC= 1.00D-01 BMatC= 5.12D-13 BMatP= 9.10D-13
 IDIUse=1 WtCom= 1.00D+00 WtEn= 0.00D+00
 Coeff-Com:  0.345D-01-0.237D-01-0.682D-01 0.267D-01 0.240D+00-0.685D-02
 Coeff-Com: -0.105D+01 0.133D+00 0.172D+01
 Coeff:      0.345D-01-0.237D-01-0.682D-01 0.267D-01 0.240D+00-0.685D-02
 Coeff:     -0.105D+01 0.133D+00 0.172D+01
 Gap=     0.247 Goal=   None    Shift=    0.000
 Gap=     0.269 Goal=   None    Shift=    0.000
 RMSDP=2.24D-08 MaxDP=7.65D-07 DE=-2.84D-12 OVMax= 2.52D-06

 Cycle  24  Pass 1  IDiag  1:
 RMSU=  3.21D-09    CP:  1.00D+00  3.00D+00  2.80D+00  2.57D+00  2.06D+00
                    CP:  1.45D+00  3.00D+00  3.00D+00  2.72D+00
 E= -151.672765423041     Delta-E=       -0.000000000003 Rises=F Damp=F
 DIIS: error= 3.84D-08 at cycle  10 NSaved=  10.
 NSaved=10 IEnMin=10 EnMin= -151.672765423041     IErMin=10 ErrMin= 3.84D-08
 ErrMax= 3.84D-08  0.00D+00 EMaxC= 1.00D-01 BMatC= 2.02D-13 BMatP= 5.12D-13
 IDIUse=1 WtCom= 1.00D+00 WtEn= 0.00D+00
 Coeff-Com: -0.422D-01 0.427D-01 0.572D-01-0.664D-01-0.175D+00 0.228D+00
 Coeff-Com:  0.810D+00-0.127D+01-0.352D+00 0.176D+01
 Coeff:     -0.422D-01 0.427D-01 0.572D-01-0.664D-01-0.175D+00 0.228D+00
 Coeff:      0.810D+00-0.127D+01-0.352D+00 0.176D+01
 Gap=     0.247 Goal=   None    Shift=    0.000
 Gap=     0.269 Goal=   None    Shift=    0.000
 RMSDP=1.89D-08 MaxDP=6.14D-07 DE=-3.41D-12 OVMax= 1.90D-06

 Cycle  25  Pass 1  IDiag  1:
 RMSU=  1.35D-08    CP:  1.00D+00  3.00D+00  2.82D+00  2.56D+00  2.07D+00
                    CP:  1.51D+00  3.00D+00  3.00D+00  3.00D+00  2.28D+00
 E= -151.672765423042     Delta-E=       -0.000000000000 Rises=F Damp=F
 DIIS: error= 1.49D-08 at cycle  11 NSaved=  11.
 NSaved=11 IEnMin=11 EnMin= -151.672765423042     IErMin=11 ErrMin= 1.49D-08
 ErrMax= 1.49D-08  0.00D+00 EMaxC= 1.00D-01 BMatC= 5.59D-14 BMatP= 2.02D-13
 IDIUse=1 WtCom= 1.00D+00 WtEn= 0.00D+00
 Coeff-Com:  0.372D-02-0.754D-02 0.110D-02 0.203D-01-0.212D-01-0.101D+00
 Coeff-Com:  0.784D-01 0.563D+00-0.601D+00-0.946D+00 0.201D+01
 Coeff:      0.372D-02-0.754D-02 0.110D-02 0.203D-01-0.212D-01-0.101D+00
 Coeff:      0.784D-01 0.563D+00-0.601D+00-0.946D+00 0.201D+01
 Gap=     0.247 Goal=   None    Shift=    0.000
 Gap=     0.269 Goal=   None    Shift=    0.000
 RMSDP=1.19D-08 MaxDP=5.51D-07 DE=-4.55D-13 OVMax= 1.07D-06

 Cycle  26  Pass 1  IDiag  1:
 RMSU=  5.01D-09    CP:  1.00D+00  3.00D+00  2.83D+00  2.54D+00  2.05D+00
                    CP:  1.54D+00  3.00D+00  3.00D+00  3.00D+00  3.00D+00
                    CP:  1.65D+00
 E= -151.672765423041     Delta-E=        0.000000000000 Rises=F Damp=F
 DIIS: error= 3.18D-09 at cycle  12 NSaved=  12.
 NSaved=12 IEnMin=11 EnMin= -151.672765423042     IErMin=12 ErrMin= 3.18D-09
 ErrMax= 3.18D-09  0.00D+00 EMaxC= 1.00D-01 BMatC= 4.81D-15 BMatP= 5.59D-14
 IDIUse=1 WtCom= 1.00D+00 WtEn= 0.00D+00
 Coeff-Com:  0.444D-02-0.285D-02-0.897D-02 0.925D-03 0.333D-01 0.154D-01
 Coeff-Com: -0.166D+00-0.721D-01 0.364D+00 0.139D+00-0.889D+00 0.158D+01
 Coeff:      0.444D-02-0.285D-02-0.897D-02 0.925D-03 0.333D-01 0.154D-01
 Coeff:     -0.166D+00-0.721D-01 0.364D+00 0.139D+00-0.889D+00 0.158D+01
 Gap=     0.247 Goal=   None    Shift=    0.000
 Gap=     0.269 Goal=   None    Shift=    0.000
 RMSDP=4.90D-09 MaxDP=2.28D-07 DE= 3.98D-13 OVMax= 1.54D-07

 SCF Done:  E(UHF) =  -151.672765423     A.U. after   26 cycles
            NFock= 26  Conv=0.49D-08     -V/T= 2.0008
 <Sx>= 0.0000 <Sy>= 0.0000 <Sz>= 0.5000 <S**2>= 0.8252 S= 0.5369
 <L.S>= 0.000000000000E+00
 KE= 1.515485228301D+02 PE=-4.742172925407D+02 EE= 1.150511529752D+02
 Annihilation of the first spin contaminant:
 S**2 before annihilation     0.8252,   after     0.7523
 Leave Link  502 at Fri Mar  8 09:52:31 2019, MaxMem=    33554432 cpu:       186.9
 (Enter /home/proyectos/fulerenos/M3C-v2.0/M3C-deps_CCC/g09-AM64L-G09RevC.01/l801.exe)
 Windowed orbitals will be sorted by symmetry type.
 ExpMin= 3.60D-02 ExpMax= 8.59D+03 ExpMxC= 1.30D+03 IAcc=3 IRadAn=         5 AccDes= 0.00D+00
 HarFok:  IExCor=  205 AccDes= 0.00D+00 IRadAn=         5 IDoV=-2 UseB2=F ITyADJ=14
 ICtDFT= 12500011 ScaDFX=  1.000000  1.000000  1.000000  1.000000
 Largest valence mixing into a core orbital is  1.53D-04
 Largest core mixing into a valence orbital is  4.44D-05
 Largest valence mixing into a core orbital is  1.92D-04
 Largest core mixing into a valence orbital is  4.91D-05
 Range of M.O.s used for correlation:     4   137
 NBasis=   137 NAE=    12 NBE=    11 NFC=     3 NFV=     0
 NROrb=    134 NOA=     9 NOB=     8 NVA=   125 NVB=   126

 **** Warning!!: The largest alpha MO coefficient is  0.45698477D+02


 **** Warning!!: The largest beta MO coefficient is  0.44854981D+02

 Leave Link  801 at Fri Mar  8 09:52:32 2019, MaxMem=    33554432 cpu:         0.8
 (Enter /home/proyectos/fulerenos/M3C-v2.0/M3C-deps_CCC/g09-AM64L-G09RevC.01/l804.exe)
 Open-shell transformation, MDV=    33554432 ITran=4 ISComp=2.
 Semi-Direct transformation.
 ModeAB=           2 MOrb=             9 LenV=      32886253
 LASXX=      5272381 LTotXX=     5272381 LenRXX=     5272381
 LTotAB=     5432729 MaxLAS=    14580540 LenRXY=    14580540
 NonZer=    15007464 LenScr=    23285760 LnRSAI=           0
 LnScr1=           0 LExtra=           0 Total=     43138681
 MaxDsk=          -1 SrtSym=           F ITran=            4
 DoSDTr:  NPSUse=  4
 JobTyp=1 Pass  1:  I=   1 to   9.
 Complete sort for first half transformation.
 First half transformation complete.
 Complete sort for second half transformation.
 Second half transformation complete.
 ModeAB=           2 MOrb=             8 LenV=      32886253
 LASXX=      4698898 LTotXX=     4698898 LenRXX=    12960480
 LTotAB=     4203528 MaxLAS=    12960480 LenRXY=     4203528
 NonZer=    13339968 LenScr=    20777472 LnRSAI=           0
 LnScr1=           0 LExtra=           0 Total=     37941480
 MaxDsk=          -1 SrtSym=           F ITran=            4
 DoSDTr:  NPSUse=  4
 JobTyp=2 Pass  1:  I=   1 to   8.
 Complete sort for first half transformation.
 First half transformation complete.
 Complete sort for second half transformation.
 Second half transformation complete.
 Spin components of T(2) and E(2):
     alpha-alpha T2 =       0.2630768816D-01 E2=     -0.7668262901D-01
     alpha-beta  T2 =       0.1255332688D+00 E2=     -0.4030003632D+00
     beta-beta   T2 =       0.1893625523D-01 E2=     -0.6045293388D-01
 ANorm=    0.1082024589D+01
 E2 =    -0.5401359261D+00 EUMP2 =    -0.15221290134917D+03
 (S**2,0)=  0.82515D+00           (S**2,1)=  0.80147D+00
 E(PUHF)=      -0.15167893812D+03        E(PMP2)=      -0.15221811917D+03
 Leave Link  804 at Fri Mar  8 09:53:10 2019, MaxMem=    33554432 cpu:       141.6
 (Enter /home/proyectos/fulerenos/M3C-v2.0/M3C-deps_CCC/g09-AM64L-G09RevC.01/l913.exe)
 CIDS:  MDV=    33554432.
 Frozen-core window:  NFC=   3 NFV=   0.
 IFCWin=0 IBDFC=1 NFBD=     0     0 NFCmp=     0     0 NFFFC=     0     0
 Using original routines for 1st iteration, S=T.
 Using DD4UQ or CC4UQ for 2nd and later iterations.
 Would need an additional        34907510 words for in-memory AO integral storage.
 CCSD(T)
 =======
 Iterations= 200 Convergence= 0.100D-06
 Iteration Nr.   1
 **********************
 DD1Dir will call FoFJK   2 times, MxPair=       104
 NAB=    72 NAA=    36 NBB=    28 NumPrc=  4.
 DD1Dir:  Pass   1 NRAB=    52 NRAA=     0 NRBB=     0 NR=   104.
 FoFJK:  IHMeth= 1 ICntrl=     200 DoSepK=F KAlg= 0 I1Cent=   0 FoldK=F
 IRaf= 990000000 NMat= 104 IRICut=     130 DoRegI=T DoRafI=T ISym2E=-1.
 FoFCou: FMM=F IPFlag=           0 FMFlag=      100000 FMFlg1=           0
         NFxFlg=           0 DoJE=F BraDBF=F KetDBF=F FulRan=T
         wScrn=  0.000000 ICntrl=     200 IOpCl=  0 I1Cent=           0 NGrid=           0
         NMat0=  104 NMatS0=      0 NMatT0=   52 NMatD0=  104 NMtDS0=    0 NMtDT0=    0
 Petite list used in FoFCou.
 DD1Dir:  Pass   2 NRAB=    20 NRAA=    36 NRBB=    28 NR=   104.
 E(PMP3)=      -0.15223020400D+03
 MP4(R+Q)=  0.13456174D-01
 Maximum subspace dimension=  5
 Norm of the A-vectors is  6.4993000D-01 conv= 1.00D-05.
 RLE energy=       -0.5400466500
 E3=       -0.13431256D-01        EUMP3=      -0.15222633261D+03
 E4(DQ)=    0.11172190D-02        UMP4(DQ)=   -0.15222521539D+03
 E4(SDQ)=  -0.59366523D-02        UMP4(SDQ)=  -0.15223226926D+03
 VARIATIONAL ENERGIES WITH THE FIRST-ORDER WAVEFUNCTION:
 DE(Corr)= -0.54004664     E(Corr)=     -152.21281207    
 NORM(A)=   0.10861773D+01
 Iteration Nr.   2
 **********************
 DD1Dir will call FoFJK   2 times, MxPair=       104
 NAB=    72 NAA=    36 NBB=    28 NumPrc=  4.
 DD1Dir:  Pass   1 NRAB=    52 NRAA=     0 NRBB=     0 NR=   104.
 DD1Dir:  Pass   2 NRAB=    20 NRAA=    36 NRBB=    28 NR=   104.
 Norm of the A-vectors is  2.7447779D-01 conv= 1.00D-05.
 RLE energy=       -0.5580001826
 DE(Corr)= -0.55607256     E(CORR)=     -152.22883799     Delta=-1.60D-02
 NORM(A)=   0.10962285D+01
 Iteration Nr.   3
 **********************
 DD1Dir will call FoFJK   2 times, MxPair=       104
 NAB=    72 NAA=    36 NBB=    28 NumPrc=  4.
 DD1Dir:  Pass   1 NRAB=    52 NRAA=     0 NRBB=     0 NR=   104.
 DD1Dir:  Pass   2 NRAB=    20 NRAA=    36 NRBB=    28 NR=   104.
 Norm of the A-vectors is  8.9661963D-02 conv= 1.00D-05.
 RLE energy=       -0.5598832946
 DE(Corr)= -0.55753043     E(CORR)=     -152.23029585     Delta=-1.46D-03
 NORM(A)=   0.11020680D+01
 Iteration Nr.   4
 **********************
 DD1Dir will call FoFJK   2 times, MxPair=       104
 NAB=    72 NAA=    36 NBB=    28 NumPrc=  4.
 DD1Dir:  Pass   1 NRAB=    52 NRAA=     0 NRBB=     0 NR=   104.
 DD1Dir:  Pass   2 NRAB=    20 NRAA=    36 NRBB=    28 NR=   104.
 Norm of the A-vectors is  6.2018986D-02 conv= 1.00D-05.
 RLE energy=       -0.5606191511
 DE(Corr)= -0.55999244     E(CORR)=     -152.23275787     Delta=-2.46D-03
 NORM(A)=   0.11061730D+01
 Iteration Nr.   5
 **********************
 DD1Dir will call FoFJK   2 times, MxPair=       104
 NAB=    72 NAA=    36 NBB=    28 NumPrc=  4.
 DD1Dir:  Pass   1 NRAB=    52 NRAA=     0 NRBB=     0 NR=   104.
 DD1Dir:  Pass   2 NRAB=    20 NRAA=    36 NRBB=    28 NR=   104.
 Norm of the A-vectors is  2.8740441D-02 conv= 1.00D-05.
 RLE energy=       -0.5610465487
 DE(Corr)= -0.56072125     E(CORR)=     -152.23348667     Delta=-7.29D-04
 NORM(A)=   0.11087179D+01
 Iteration Nr.   6
 **********************
 DD1Dir will call FoFJK   2 times, MxPair=       104
 NAB=    72 NAA=    36 NBB=    28 NumPrc=  4.
 DD1Dir:  Pass   1 NRAB=    52 NRAA=     0 NRBB=     0 NR=   104.
 DD1Dir:  Pass   2 NRAB=    20 NRAA=    36 NRBB=    28 NR=   104.
 Norm of the A-vectors is  1.4953281D-02 conv= 1.00D-05.
 RLE energy=       -0.5609286911
 DE(Corr)= -0.56096928     E(CORR)=     -152.23373470     Delta=-2.48D-04
 NORM(A)=   0.11092743D+01
 Iteration Nr.   7
 **********************
 DD1Dir will call FoFJK   2 times, MxPair=       104
 NAB=    72 NAA=    36 NBB=    28 NumPrc=  4.
 DD1Dir:  Pass   1 NRAB=    52 NRAA=     0 NRBB=     0 NR=   104.
 DD1Dir:  Pass   2 NRAB=    20 NRAA=    36 NRBB=    28 NR=   104.
 Norm of the A-vectors is  7.1045596D-03 conv= 1.00D-05.
 RLE energy=       -0.5609925028
 DE(Corr)= -0.56101361     E(CORR)=     -152.23377904     Delta=-4.43D-05
 NORM(A)=   0.11094668D+01
 Iteration Nr.   8
 **********************
 DD1Dir will call FoFJK   2 times, MxPair=       104
 NAB=    72 NAA=    36 NBB=    28 NumPrc=  4.
 DD1Dir:  Pass   1 NRAB=    52 NRAA=     0 NRBB=     0 NR=   104.
 DD1Dir:  Pass   2 NRAB=    20 NRAA=    36 NRBB=    28 NR=   104.
 Norm of the A-vectors is  4.1613001D-03 conv= 1.00D-05.
 RLE energy=       -0.5609906640
 DE(Corr)= -0.56100145     E(CORR)=     -152.23376687     Delta= 1.22D-05
 NORM(A)=   0.11095523D+01
 Iteration Nr.   9
 **********************
 DD1Dir will call FoFJK   2 times, MxPair=       104
 NAB=    72 NAA=    36 NBB=    28 NumPrc=  4.
 DD1Dir:  Pass   1 NRAB=    52 NRAA=     0 NRBB=     0 NR=   104.
 DD1Dir:  Pass   2 NRAB=    20 NRAA=    36 NRBB=    28 NR=   104.
 Norm of the A-vectors is  2.7844640D-03 conv= 1.00D-05.
 RLE energy=       -0.5610054856
 DE(Corr)= -0.56101055     E(CORR)=     -152.23377597     Delta=-9.10D-06
 NORM(A)=   0.11095892D+01
 Iteration Nr.  10
 **********************
 DD1Dir will call FoFJK   2 times, MxPair=       104
 NAB=    72 NAA=    36 NBB=    28 NumPrc=  4.
 DD1Dir:  Pass   1 NRAB=    52 NRAA=     0 NRBB=     0 NR=   104.
 DD1Dir:  Pass   2 NRAB=    20 NRAA=    36 NRBB=    28 NR=   104.
 Norm of the A-vectors is  1.5827592D-03 conv= 1.00D-05.
 RLE energy=       -0.5610093890
 DE(Corr)= -0.56100787     E(CORR)=     -152.23377330     Delta= 2.67D-06
 NORM(A)=   0.11096197D+01
 Iteration Nr.  11
 **********************
 DD1Dir will call FoFJK   2 times, MxPair=       104
 NAB=    72 NAA=    36 NBB=    28 NumPrc=  4.
 DD1Dir:  Pass   1 NRAB=    52 NRAA=     0 NRBB=     0 NR=   104.
 DD1Dir:  Pass   2 NRAB=    20 NRAA=    36 NRBB=    28 NR=   104.
 Norm of the A-vectors is  8.9395836D-04 conv= 1.00D-05.
 RLE energy=       -0.5610128872
 DE(Corr)= -0.56101196     E(CORR)=     -152.23377739     Delta=-4.09D-06
 NORM(A)=   0.11096422D+01
 Iteration Nr.  12
 **********************
 DD1Dir will call FoFJK   2 times, MxPair=       104
 NAB=    72 NAA=    36 NBB=    28 NumPrc=  4.
 DD1Dir:  Pass   1 NRAB=    52 NRAA=     0 NRBB=     0 NR=   104.
 DD1Dir:  Pass   2 NRAB=    20 NRAA=    36 NRBB=    28 NR=   104.
 Norm of the A-vectors is  4.6574327D-04 conv= 1.00D-05.
 RLE energy=       -0.5610158814
 DE(Corr)= -0.56101415     E(CORR)=     -152.23377957     Delta=-2.19D-06
 NORM(A)=   0.11096622D+01
 Iteration Nr.  13
 **********************
 DD1Dir will call FoFJK   2 times, MxPair=       104
 NAB=    72 NAA=    36 NBB=    28 NumPrc=  4.
 DD1Dir:  Pass   1 NRAB=    52 NRAA=     0 NRBB=     0 NR=   104.
 DD1Dir:  Pass   2 NRAB=    20 NRAA=    36 NRBB=    28 NR=   104.
 Norm of the A-vectors is  3.0279363D-04 conv= 1.00D-05.
 RLE energy=       -0.5610174171
 DE(Corr)= -0.56101623     E(CORR)=     -152.23378166     Delta=-2.08D-06
 NORM(A)=   0.11096775D+01
 Iteration Nr.  14
 **********************
 DD1Dir will call FoFJK   2 times, MxPair=       104
 NAB=    72 NAA=    36 NBB=    28 NumPrc=  4.
 DD1Dir:  Pass   1 NRAB=    52 NRAA=     0 NRBB=     0 NR=   104.
 DD1Dir:  Pass   2 NRAB=    20 NRAA=    36 NRBB=    28 NR=   104.
 Norm of the A-vectors is  1.9285126D-04 conv= 1.00D-05.
 RLE energy=       -0.5610189630
 DE(Corr)= -0.56101814     E(CORR)=     -152.23378356     Delta=-1.91D-06
 NORM(A)=   0.11096872D+01
 Iteration Nr.  15
 **********************
 DD1Dir will call FoFJK   2 times, MxPair=       104
 NAB=    72 NAA=    36 NBB=    28 NumPrc=  4.
 DD1Dir:  Pass   1 NRAB=    52 NRAA=     0 NRBB=     0 NR=   104.
 DD1Dir:  Pass   2 NRAB=    20 NRAA=    36 NRBB=    28 NR=   104.
 Norm of the A-vectors is  1.2104506D-04 conv= 1.00D-05.
 RLE energy=       -0.5610197303
 DE(Corr)= -0.56101912     E(CORR)=     -152.23378454     Delta=-9.78D-07
 NORM(A)=   0.11096939D+01
 Iteration Nr.  16
 **********************
 DD1Dir will call FoFJK   2 times, MxPair=       104
 NAB=    72 NAA=    36 NBB=    28 NumPrc=  4.
 DD1Dir:  Pass   1 NRAB=    52 NRAA=     0 NRBB=     0 NR=   104.
 DD1Dir:  Pass   2 NRAB=    20 NRAA=    36 NRBB=    28 NR=   104.
 Norm of the A-vectors is  8.3147046D-05 conv= 1.00D-05.
 RLE energy=       -0.5610202031
 DE(Corr)= -0.56101991     E(CORR)=     -152.23378533     Delta=-7.91D-07
 NORM(A)=   0.11096974D+01
 Iteration Nr.  17
 **********************
 DD1Dir will call FoFJK   2 times, MxPair=       104
 NAB=    72 NAA=    36 NBB=    28 NumPrc=  4.
 DD1Dir:  Pass   1 NRAB=    52 NRAA=     0 NRBB=     0 NR=   104.
 DD1Dir:  Pass   2 NRAB=    20 NRAA=    36 NRBB=    28 NR=   104.
 Norm of the A-vectors is  5.2486798D-05 conv= 1.00D-05.
 RLE energy=       -0.5610203747
 DE(Corr)= -0.56102024     E(CORR)=     -152.23378566     Delta=-3.30D-07
 NORM(A)=   0.11096990D+01
 Iteration Nr.  18
 **********************
 DD1Dir will call FoFJK   2 times, MxPair=       104
 NAB=    72 NAA=    36 NBB=    28 NumPrc=  4.
 DD1Dir:  Pass   1 NRAB=    52 NRAA=     0 NRBB=     0 NR=   104.
 DD1Dir:  Pass   2 NRAB=    20 NRAA=    36 NRBB=    28 NR=   104.
 Norm of the A-vectors is  3.1142444D-05 conv= 1.00D-05.
 RLE energy=       -0.5610203937
 DE(Corr)= -0.56102038     E(CORR)=     -152.23378580     Delta=-1.41D-07
 NORM(A)=   0.11096996D+01
 Iteration Nr.  19
 **********************
 DD1Dir will call FoFJK   2 times, MxPair=       104
 NAB=    72 NAA=    36 NBB=    28 NumPrc=  4.
 DD1Dir:  Pass   1 NRAB=    52 NRAA=     0 NRBB=     0 NR=   104.
 DD1Dir:  Pass   2 NRAB=    20 NRAA=    36 NRBB=    28 NR=   104.
 Norm of the A-vectors is  2.0489259D-05 conv= 1.00D-05.
 RLE energy=       -0.5610203821
 DE(Corr)= -0.56102040     E(CORR)=     -152.23378582     Delta=-2.06D-08
 NORM(A)=   0.11096999D+01
 Iteration Nr.  20
 **********************
 DD1Dir will call FoFJK   2 times, MxPair=       104
 NAB=    72 NAA=    36 NBB=    28 NumPrc=  4.
 DD1Dir:  Pass   1 NRAB=    52 NRAA=     0 NRBB=     0 NR=   104.
 DD1Dir:  Pass   2 NRAB=    20 NRAA=    36 NRBB=    28 NR=   104.
 Norm of the A-vectors is  1.3740728D-05 conv= 1.00D-05.
 RLE energy=       -0.5610203518
 DE(Corr)= -0.56102038     E(CORR)=     -152.23378581     Delta= 1.74D-08
 NORM(A)=   0.11097000D+01
 Iteration Nr.  21
 **********************
 DD1Dir will call FoFJK   2 times, MxPair=       104
 NAB=    72 NAA=    36 NBB=    28 NumPrc=  4.
 DD1Dir:  Pass   1 NRAB=    52 NRAA=     0 NRBB=     0 NR=   104.
 DD1Dir:  Pass   2 NRAB=    20 NRAA=    36 NRBB=    28 NR=   104.
 Norm of the A-vectors is  1.0011217D-05 conv= 1.00D-05.
 RLE energy=       -0.5610203543
 DE(Corr)= -0.56102037     E(CORR)=     -152.23378579     Delta= 1.34D-08
 NORM(A)=   0.11097002D+01
 Iteration Nr.  22
 **********************
 DD1Dir will call FoFJK   2 times, MxPair=       104
 NAB=    72 NAA=    36 NBB=    28 NumPrc=  4.
 DD1Dir:  Pass   1 NRAB=    52 NRAA=     0 NRBB=     0 NR=   104.
 DD1Dir:  Pass   2 NRAB=    20 NRAA=    36 NRBB=    28 NR=   104.
 Norm of the A-vectors is  6.2702115D-06 conv= 1.00D-05.
 RLE energy=       -0.5610203659
 DE(Corr)= -0.56102037     E(CORR)=     -152.23378579     Delta= 3.50D-09
 NORM(A)=   0.11097004D+01
 CI/CC converged in   22 iterations to DelEn= 3.50D-09 Conv= 1.00D-07 ErrA1= 6.27D-06 Conv= 1.00D-05
 Largest amplitude= 7.74D-02
 Time for triples=      598.92 seconds.
 T4(CCSD)= -0.28023926D-01
 T5(CCSD)=  0.14109332D-02
 CCSD(T)= -0.15226039878D+03

 S**2, projected HF & approx projected MPn energies after annihilation of
 unwanted spin states (see manual for definitions):

 spins       (S**2,0) (S**2,1)    PUHF        PMP2        PMP3        PMP4
 annihilated
 s+1         0.74863  0.74980 -151.678938 -152.218119 -152.230204
 s+1,s+2     0.75001  0.75000 -151.678806 -152.218001 -152.230101
 s+1 to s+3  0.75000  0.75000 -151.678806 -152.218001 -152.230101
 s+1 to s+4  0.75000  0.75000 -151.678806 -152.218001 -152.230101
 s+1 to s+5  0.75000  0.75000 -151.678806
 s+1 to s+6  0.75000  0.75000 -151.678806

 Discarding MO integrals.
 Leave Link  913 at Fri Mar  8 10:06:08 2019, MaxMem=    33554432 cpu:      2729.2
 (Enter /home/proyectos/fulerenos/M3C-v2.0/M3C-deps_CCC/g09-AM64L-G09RevC.01/l601.exe)
 Copying SCF densities to generalized density rwf, IOpCl= 1 IROHF=0.

 **********************************************************************

            Population analysis using the SCF density.

 **********************************************************************

 Orbital symmetries:
 Alpha Orbitals:
       Occupied  (A') (A') (A') (A') (A') (A') (A') (A") (A') (A')
                 (A") (A')
       Virtual   (A') (A') (A') (A") (A') (A') (A") (A') (A') (A')
                 (A') (A") (A') (A") (A') (A') (A') (A') (A") (A')
                 (A') (A") (A') (A') (A') (A') (A") (A") (A') (A')
                 (A") (A') (A") (A') (A') (A') (A") (A') (A') (A")
                 (A') (A") (A') (A") (A') (A') (A') (A") (A') (A')
                 (A') (A') (A") (A") (A') (A') (A') (A") (A') (A')
                 (A") (A') (A') (A') (A') (A') (A") (A") (A") (A')
                 (A') (A') (A") (A") (A') (A') (A") (A') (A") (A')
                 (A") (A') (A') (A') (A') (A") (A") (A') (A') (A')
                 (A') (A") (A') (A") (A') (A') (A") (A") (A') (A')
                 (A") (A') (A') (A") (A') (A') (A") (A') (A') (A")
                 (A') (A") (A') (A') (A") (A') (A') (A") (A") (A')
                 (A') (A') (A') (A') (A')
 Beta  Orbitals:
       Occupied  (A') (A') (A') (A') (A') (A') (A') (A") (A') (A')
                 (A")
       Virtual   (A') (A') (A') (A') (A") (A") (A') (A') (A') (A')
                 (A') (A') (A') (A") (A') (A") (A') (A') (A') (A")
                 (A') (A') (A") (A') (A') (A') (A') (A") (A") (A')
                 (A") (A') (A') (A") (A') (A') (A') (A") (A') (A')
                 (A") (A') (A") (A') (A") (A') (A') (A') (A") (A')
                 (A') (A') (A') (A") (A') (A") (A') (A') (A") (A')
                 (A') (A") (A') (A') (A') (A') (A") (A') (A") (A")
                 (A') (A') (A') (A") (A") (A') (A') (A") (A") (A')
                 (A') (A") (A') (A') (A') (A') (A") (A") (A') (A')
                 (A') (A') (A") (A') (A") (A') (A') (A") (A") (A')
                 (A') (A") (A') (A') (A") (A') (A') (A") (A') (A')
                 (A") (A') (A") (A') (A') (A") (A') (A') (A") (A")
                 (A') (A') (A') (A') (A') (A')
 The electronic state is 2-A'.
 Alpha  occ. eigenvalues --  -20.37836 -11.03473 -10.96870  -1.16540  -0.77309
 Alpha  occ. eigenvalues --   -0.51150  -0.49985  -0.34571  -0.34088  -0.19280
 Alpha  occ. eigenvalues --   -0.11403  -0.08991
 Alpha virt. eigenvalues --    0.15738   0.18480   0.25337   0.27399   0.28756
 Alpha virt. eigenvalues --    0.29508   0.29906   0.30849   0.35302   0.36163
 Alpha virt. eigenvalues --    0.41439   0.44138   0.44205   0.47688   0.48165
 Alpha virt. eigenvalues --    0.53616   0.56758   0.65215   0.67064   0.70086
 Alpha virt. eigenvalues --    0.74005   0.75988   0.76497   0.79610   0.83021
 Alpha virt. eigenvalues --    0.88507   0.88999   0.92479   0.94237   0.94506
 Alpha virt. eigenvalues --    0.96132   1.00666   1.09065   1.10788   1.14490
 Alpha virt. eigenvalues --    1.19096   1.20191   1.26416   1.30467   1.36280
 Alpha virt. eigenvalues --    1.43921   1.44875   1.48351   1.54569   1.55767
 Alpha virt. eigenvalues --    1.58450   1.61363   1.65501   1.71252   1.75391
 Alpha virt. eigenvalues --    1.87018   1.88303   1.98812   2.03596   2.04816
 Alpha virt. eigenvalues --    2.08928   2.17845   2.32897   2.43997   2.53369
 Alpha virt. eigenvalues --    2.63929   2.69356   2.81675   2.96589   3.13819
 Alpha virt. eigenvalues --    3.30398   3.30993   3.33581   3.35018   3.37378
 Alpha virt. eigenvalues --    3.42597   3.45325   3.49631   3.57491   3.58926
 Alpha virt. eigenvalues --    3.68037   3.71835   3.79153   3.79844   3.83935
 Alpha virt. eigenvalues --    3.95078   4.00243   4.07629   4.19576   4.34434
 Alpha virt. eigenvalues --    4.39053   4.55951   4.58901   4.66108   4.76066
 Alpha virt. eigenvalues --    4.82002   4.86804   4.98484   5.13243   5.30847
 Alpha virt. eigenvalues --    5.53792   5.82758   5.85369   5.92482   6.03973
 Alpha virt. eigenvalues --    6.16732   6.21855   6.27846   6.39680   6.69236
 Alpha virt. eigenvalues --    7.14498   7.71194   7.72325   7.78224   7.83405
 Alpha virt. eigenvalues --    7.85673   7.95000   8.06666   8.24472   8.24925
 Alpha virt. eigenvalues --    8.85452   8.89677  15.26397  15.32545  15.36951
 Alpha virt. eigenvalues --   15.62456  15.92539  25.20601  27.23807  52.01257
  Beta  occ. eigenvalues --  -20.37560 -11.04378 -10.94539  -1.15803  -0.73788
  Beta  occ. eigenvalues --   -0.49041  -0.47169  -0.35617  -0.32392  -0.13673
  Beta  occ. eigenvalues --   -0.11190
  Beta virt. eigenvalues --    0.15669   0.18493   0.25624   0.26784   0.27707
  Beta virt. eigenvalues --    0.29330   0.29537   0.30223   0.35020   0.36749
  Beta virt. eigenvalues --    0.39735   0.43942   0.44794   0.45040   0.48625
  Beta virt. eigenvalues --    0.48962   0.53991   0.57948   0.67333   0.68455
  Beta virt. eigenvalues --    0.70589   0.75502   0.77319   0.79269   0.80960
  Beta virt. eigenvalues --    0.84489   0.88924   0.89292   0.93026   0.94720
  Beta virt. eigenvalues --    0.95397   0.97279   1.06354   1.11071   1.13554
  Beta virt. eigenvalues --    1.14998   1.19842   1.20260   1.27634   1.30771
  Beta virt. eigenvalues --    1.36436   1.44572   1.44818   1.49060   1.54501
  Beta virt. eigenvalues --    1.56126   1.59017   1.61886   1.65111   1.71498
  Beta virt. eigenvalues --    1.77392   1.87131   1.89861   1.99635   2.05103
  Beta virt. eigenvalues --    2.07633   2.13779   2.22596   2.35168   2.45069
  Beta virt. eigenvalues --    2.54619   2.64275   2.70022   2.83819   2.96951
  Beta virt. eigenvalues --    3.14184   3.31618   3.31642   3.35095   3.37082
  Beta virt. eigenvalues --    3.40915   3.45255   3.49238   3.50831   3.58649
  Beta virt. eigenvalues --    3.60593   3.69695   3.72236   3.79809   3.79899
  Beta virt. eigenvalues --    3.85069   3.96457   4.00512   4.08023   4.19794
  Beta virt. eigenvalues --    4.35267   4.39378   4.55996   4.59616   4.67245
  Beta virt. eigenvalues --    4.77201   4.82268   4.87167   4.98998   5.13590
  Beta virt. eigenvalues --    5.31238   5.54552   5.82742   5.85324   5.92586
  Beta virt. eigenvalues --    6.04247   6.16697   6.22100   6.28128   6.39717
  Beta virt. eigenvalues --    6.69492   7.14986   7.74687   7.75204   7.80249
  Beta virt. eigenvalues --    7.83759   7.85884   7.95114   8.10223   8.24305
  Beta virt. eigenvalues --    8.24995   8.85514   8.89990  15.26388  15.32822
  Beta virt. eigenvalues --   15.37189  15.62710  15.92904  25.21046  27.24237
  Beta virt. eigenvalues --   52.01482
          Condensed to atoms (all electrons):
               1          2          3          4          5
     1  C    8.230019  -1.024001  -0.074551   0.008868  -0.165969
     2  C   -1.024001   6.145417   0.454112  -0.048010   0.005238
     3  H   -0.074551   0.454112   0.728920  -0.012650  -0.095378
     4  H    0.008868  -0.048010  -0.012650   0.638422   0.217241
     5  O   -0.165969   0.005238  -0.095378   0.217241   8.727419
          Atomic-Atomic Spin Densities.
               1          2          3          4          5
     1  C    1.767014  -0.262490  -0.008053   0.005031  -0.066581
     2  C   -0.262490  -0.305055  -0.033856   0.012704   0.021534
     3  H   -0.008053  -0.033856   0.181415   0.017184  -0.054903
     4  H    0.005031   0.012704   0.017184   0.020403  -0.029694
     5  O   -0.066581   0.021534  -0.054903  -0.029694   0.134473
 Mulliken charges and spin densities:
               1          2
     1  C   -0.974367   1.434920
     2  C    0.467243  -0.567165
     3  H   -0.000453   0.101786
     4  H    0.196128   0.025628
     5  O   -0.688552   0.004830
 Sum of Mulliken charges =  -1.00000   1.00000
 Mulliken charges and spin densities with hydrogens summed into heavy atoms:
               1          2
     1  C   -0.974367   1.434920
     2  C    0.466790  -0.465378
     5  O   -0.492424   0.030458
 Electronic spatial extent (au):  <R**2>=            160.8908
 Charge=             -1.0000 electrons
 Dipole moment (field-independent basis, Debye):
    X=             -6.5665    Y=             -1.2213    Z=             -0.0000  Tot=              6.6791
 Quadrupole moment (field-independent basis, Debye-Ang):
   XX=            -29.9649   YY=            -26.7825   ZZ=            -24.0238
   XY=             -4.8552   XZ=             -0.0000   YZ=              0.0000
 Traceless Quadrupole moment (field-independent basis, Debye-Ang):
   XX=             -3.0412   YY=              0.1412   ZZ=              2.8999
   XY=             -4.8552   XZ=             -0.0000   YZ=              0.0000
 Octapole moment (field-independent basis, Debye-Ang**2):
  XXX=            -45.0719  YYY=            -10.8365  ZZZ=             -0.0000  XYY=             -9.7091
  XXY=            -12.7075  XXZ=             -0.0000  XZZ=             -6.9381  YZZ=             -4.7382
  YYZ=             -0.0000  XYZ=             -0.0000
 Hexadecapole moment (field-independent basis, Debye-Ang**3):
 XXXX=           -187.5384 YYYY=           -103.2290 ZZZZ=            -38.1918 XXXY=            -41.5527
 XXXZ=             -0.0000 YYYX=            -38.9814 YYYZ=              0.0000 ZZZX=             -0.0000
 ZZZY=              0.0000 XXYY=            -50.4992 XXZZ=            -34.8778 YYZZ=            -24.2413
 XXYZ=              0.0000 YYXZ=             -0.0000 ZZXY=            -11.8859
 N-N= 5.594485131234D+01 E-N=-4.742172925376D+02  KE= 1.515485228301D+02
 Symmetry A'   KE= 1.451028997783D+02
 Symmetry A"   KE= 6.445623051809D+00
 Leave Link  601 at Fri Mar  8 10:06:08 2019, MaxMem=    33554432 cpu:         0.4
 (Enter /home/proyectos/fulerenos/M3C-v2.0/M3C-deps_CCC/g09-AM64L-G09RevC.01/l9999.exe)
 1\1\GINC-DUBNIO\SP\UCCSD(T)-FC\6-311++G(3df,2p)\C2H2O1(1-,2)\ROOT\08-M
 ar-2019\0\\#p ccsd(t,maxcyc=200)/6-311++G(3df,2p)\\ccsd(t) iener\\-1,2
 \C,0,1.419511,0.473532,-0.731716\C,0,0.551699,-0.064629,0.100197\H,0,0
 .815151022,-0.427732928,1.108545922\H,0,-1.214923319,-0.683029931,0.65
 0993659\O,0,-0.859567419,-0.272076384,-0.146106599\\Version=EM64L-G09R
 evE.01\State=2-A'\HF=-151.6727654\MP2=-152.2129013\MP3=-152.2263326\MP
 4D=-152.2386716\MP4DQ=-152.2252154\PUHF=-151.6789381\PMP2-0=-152.21811
 92\PMP3-0=-152.230204\MP4SDQ=-152.2322693\CCSD=-152.2337858\CCSD(T)=-1
 52.2603988\S2=0.825151\S2-1=0.801474\S2A=0.752309\RMSD=4.898e-09\PG=CS
  [SG(C2H2O1)]\\@


  THE LARGE PRINT GIVETH,
  AND THE SMALL PRINT TAKETH AWAY.

                     -- TOM WAITS
 Job cpu time:       0 days  0 hours 51 minutes 11.6 seconds.
 File lengths (MBytes):  RWF=    566 Int=      0 D2E=      0 Chk=      3 Scr=      1
 Normal termination of Gaussian 09 at Fri Mar  8 10:06:08 2019.
