 Entering Gaussian System, Link 0=/home/proyectos/fulerenos/M3C-v2.0/M3C-deps_CCC/g09-AM64L-G09RevC.01/g09
 Initial command:
 /home/proyectos/fulerenos/M3C-v2.0/M3C-deps_CCC/g09-AM64L-G09RevC.01/l1.exe "/scratch/naguirre/gaussian/Gau-52599.inp" -scrdir="/scratch/naguirre/gaussian/"
 Entering Link 1 = /home/proyectos/fulerenos/M3C-v2.0/M3C-deps_CCC/g09-AM64L-G09RevC.01/l1.exe PID=     52603.
  
 Copyright (c) 1988,1990,1992,1993,1995,1998,2003,2009,2015,
            Gaussian, Inc.  All Rights Reserved.
  
 This is part of the Gaussian(R) 09 program.  It is based on
 the Gaussian(R) 03 system (copyright 2003, Gaussian, Inc.),
 the Gaussian(R) 98 system (copyright 1998, Gaussian, Inc.),
 the Gaussian(R) 94 system (copyright 1995, Gaussian, Inc.),
 the Gaussian 92(TM) system (copyright 1992, Gaussian, Inc.),
 the Gaussian 90(TM) system (copyright 1990, Gaussian, Inc.),
 the Gaussian 88(TM) system (copyright 1988, Gaussian, Inc.),
 the Gaussian 86(TM) system (copyright 1986, Carnegie Mellon
 University), and the Gaussian 82(TM) system (copyright 1983,
 Carnegie Mellon University). Gaussian is a federally registered
 trademark of Gaussian, Inc.
  
 This software contains proprietary and confidential information,
 including trade secrets, belonging to Gaussian, Inc.
  
 This software is provided under written license and may be
 used, copied, transmitted, or stored only in accord with that
 written license.
  
 The following legend is applicable only to US Government
 contracts under FAR:
  
                    RESTRICTED RIGHTS LEGEND
  
 Use, reproduction and disclosure by the US Government is
 subject to restrictions as set forth in subparagraphs (a)
 and (c) of the Commercial Computer Software - Restricted
 Rights clause in FAR 52.227-19.
  
 Gaussian, Inc.
 340 Quinnipiac St., Bldg. 40, Wallingford CT 06492
  
  
 ---------------------------------------------------------------
 Warning -- This program may not be used in any manner that
 competes with the business of Gaussian, Inc. or will provide
 assistance to any competitor of Gaussian, Inc.  The licensee
 of this program is prohibited from giving any competitor of
 Gaussian, Inc. access to this program.  By using this program,
 the user acknowledges that Gaussian, Inc. is engaged in the
 business of creating and licensing software in the field of
 computational chemistry and represents and warrants to the
 licensee that it is not a competitor of Gaussian, Inc. and that
 it will not use this program in any manner prohibited above.
 ---------------------------------------------------------------
  

 Cite this work as:
 Gaussian 09, Revision E.01,
 M. J. Frisch, G. W. Trucks, H. B. Schlegel, G. E. Scuseria, 
 M. A. Robb, J. R. Cheeseman, G. Scalmani, V. Barone, B. Mennucci, 
 G. A. Petersson, H. Nakatsuji, M. Caricato, X. Li, H. P. Hratchian, 
 A. F. Izmaylov, J. Bloino, G. Zheng, J. L. Sonnenberg, M. Hada, 
 M. Ehara, K. Toyota, R. Fukuda, J. Hasegawa, M. Ishida, T. Nakajima, 
 Y. Honda, O. Kitao, H. Nakai, T. Vreven, J. A. Montgomery, Jr., 
 J. E. Peralta, F. Ogliaro, M. Bearpark, J. J. Heyd, E. Brothers, 
 K. N. Kudin, V. N. Staroverov, T. Keith, R. Kobayashi, J. Normand, 
 K. Raghavachari, A. Rendell, J. C. Burant, S. S. Iyengar, J. Tomasi, 
 M. Cossi, N. Rega, J. M. Millam, M. Klene, J. E. Knox, J. B. Cross, 
 V. Bakken, C. Adamo, J. Jaramillo, R. Gomperts, R. E. Stratmann, 
 O. Yazyev, A. J. Austin, R. Cammi, C. Pomelli, J. W. Ochterski, 
 R. L. Martin, K. Morokuma, V. G. Zakrzewski, G. A. Voth, 
 P. Salvador, J. J. Dannenberg, S. Dapprich, A. D. Daniels, 
 O. Farkas, J. B. Foresman, J. V. Ortiz, J. Cioslowski, 
 and D. J. Fox, Gaussian, Inc., Wallingford CT, 2013.
 
 ******************************************
 Gaussian 09:  EM64L-G09RevE.01 30-Nov-2015
                 8-Mar-2019 
 ******************************************
 %NProcShared=4
 Will use up to    4 processors via shared memory.
 --------------------------------------
 #p ccsd(t,maxcyc=200)/6-311++G(3df,2p)
 --------------------------------------
 1/38=1/1;
 2/12=2,17=6,18=5,40=1/2;
 3/5=4,6=6,7=1216,11=9,16=1,25=1,30=1/1,2,3;
 4//1;
 5/5=2,38=5/2;
 8/6=4,9=120000,10=2/1,4;
 9/5=7,6=200,14=2/13;
 6/7=2,8=2,9=2,10=2/1;
 99/5=1,9=1/99;
 Leave Link    1 at Fri Mar  8 09:51:34 2019, MaxMem=           0 cpu:         1.1
 (Enter /home/proyectos/fulerenos/M3C-v2.0/M3C-deps_CCC/g09-AM64L-G09RevC.01/l101.exe)
 -------------
 ccsd(t) iener
 -------------
 Symbolic Z-matrix:
 Charge = -1 Multiplicity = 2
 C                     1.26838  -0.12348  -0.27906 
 C                     0.08586  -0.0129   -0.08854 
 H                     2.30937  -0.23655  -0.44045 
 H                    -1.55546   0.96494  -0.16623 
 O                    -1.19164   0.08302   0.12719 
 
 NAtoms=      5 NQM=        5 NQMF=       0 NMMI=      0 NMMIF=      0
                NMic=       0 NMicF=      0.
                    Isotopes and Nuclear Properties:
 (Nuclear quadrupole moments (NQMom) in fm**2, nuclear magnetic moments (NMagM)
  in nuclear magnetons)

  Atom         1           2           3           4           5
 IAtWgt=          12          12           1           1          16
 AtmWgt=  12.0000000  12.0000000   1.0078250   1.0078250  15.9949146
 NucSpn=           0           0           1           1           0
 AtZEff=   0.0000000   0.0000000   0.0000000   0.0000000   0.0000000
 NQMom=    0.0000000   0.0000000   0.0000000   0.0000000   0.0000000
 NMagM=    0.0000000   0.0000000   2.7928460   2.7928460   0.0000000
 AtZNuc=   6.0000000   6.0000000   1.0000000   1.0000000   8.0000000
 Leave Link  101 at Fri Mar  8 09:51:35 2019, MaxMem=    33554432 cpu:         1.3
 (Enter /home/proyectos/fulerenos/M3C-v2.0/M3C-deps_CCC/g09-AM64L-G09RevC.01/l202.exe)
                          Input orientation:                          
 ---------------------------------------------------------------------
 Center     Atomic      Atomic             Coordinates (Angstroms)
 Number     Number       Type             X           Y           Z
 ---------------------------------------------------------------------
      1          6           0        1.268379   -0.123481   -0.279064
      2          6           0        0.085859   -0.012899   -0.088541
      3          1           0        2.309368   -0.236551   -0.440452
      4          1           0       -1.555463    0.964943   -0.166231
      5          8           0       -1.191644    0.083021    0.127194
 ---------------------------------------------------------------------
                    Distance matrix (angstroms):
                    1          2          3          4          5
     1  C    0.000000
     2  C    1.202864   0.000000
     3  H    1.059476   2.262267   0.000000
     4  H    3.028445   1.912106   4.056563   0.000000
     5  O    2.501880   1.299137   3.561100   0.998123   0.000000
 Stoichiometry    C2H2O(1-,2)
 Framework group  C1[X(C2H2O)]
 Deg. of freedom     9
 Full point group                 C1      NOp   1
 Largest Abelian subgroup         C1      NOp   1
 Largest concise Abelian subgroup C1      NOp   1
                         Standard orientation:                         
 ---------------------------------------------------------------------
 Center     Atomic      Atomic             Coordinates (Angstroms)
 Number     Number       Type             X           Y           Z
 ---------------------------------------------------------------------
      1          6           0       -1.321308    0.024045   -0.000037
      2          6           0       -0.119469   -0.025593    0.000035
      3          1           0       -2.380446    0.050831    0.000078
      4          1           0        1.607064    0.796132   -0.000000
      5          8           0        1.177256   -0.104709   -0.000008
 ---------------------------------------------------------------------
 Rotational constants (GHZ):    640.1457240      9.7913913      9.6438827
 Leave Link  202 at Fri Mar  8 09:51:35 2019, MaxMem=    33554432 cpu:         0.3
 (Enter /home/proyectos/fulerenos/M3C-v2.0/M3C-deps_CCC/g09-AM64L-G09RevC.01/l301.exe)
 Standard basis: 6-311++G(3df,2p) (5D, 7F)
 Ernie: Thresh=  0.10000D-02 Tol=  0.10000D-05 Strict=F.
 There are   155 symmetry adapted cartesian basis functions of A   symmetry.
 There are   137 symmetry adapted basis functions of A   symmetry.
   137 basis functions,   198 primitive gaussians,   155 cartesian basis functions
    12 alpha electrons       11 beta electrons
       nuclear repulsion energy        58.2117819878 Hartrees.
 IExCor=    0 DFT=F Ex=HF Corr=None ExCW=0 ScaHFX=  1.000000
 ScaDFX=  1.000000  1.000000  1.000000  1.000000 ScalE2=  1.000000  1.000000
 IRadAn=      0 IRanWt=     -1 IRanGd=            0 ICorTp=0 IEmpDi=  4
 NAtoms=    5 NActive=    5 NUniq=    5 SFac= 1.00D+00 NAtFMM=   60 NAOKFM=F Big=F
 Integral buffers will be    131072 words long.
 Raffenetti 2 integral format.
 Two-electron integral symmetry is turned on.
 Leave Link  301 at Fri Mar  8 09:51:36 2019, MaxMem=    33554432 cpu:         1.9
 (Enter /home/proyectos/fulerenos/M3C-v2.0/M3C-deps_CCC/g09-AM64L-G09RevC.01/l302.exe)
 NPDir=0 NMtPBC=     1 NCelOv=     1 NCel=       1 NClECP=     1 NCelD=      1
         NCelK=      1 NCelE2=     1 NClLst=     1 CellRange=     0.0.
 One-electron integrals computed using PRISM.
 NBasis=   137 RedAO= T EigKep=  1.17D-05  NBF=   137
 NBsUse=   137 1.00D-06 EigRej= -1.00D+00 NBFU=   137
 Leave Link  302 at Fri Mar  8 09:51:37 2019, MaxMem=    33554432 cpu:         1.1
 (Enter /home/proyectos/fulerenos/M3C-v2.0/M3C-deps_CCC/g09-AM64L-G09RevC.01/l303.exe)
 DipDrv:  MaxL=1.
 Leave Link  303 at Fri Mar  8 09:51:37 2019, MaxMem=    33554432 cpu:         0.3
 (Enter /home/proyectos/fulerenos/M3C-v2.0/M3C-deps_CCC/g09-AM64L-G09RevC.01/l401.exe)
 ExpMin= 3.60D-02 ExpMax= 8.59D+03 ExpMxC= 1.30D+03 IAcc=3 IRadAn=         5 AccDes= 0.00D+00
 Harris functional with IExCor=  205 and IRadAn=       5 diagonalized for initial guess.
 HarFok:  IExCor=  205 AccDes= 0.00D+00 IRadAn=         5 IDoV= 1 UseB2=F ITyADJ=14
 ICtDFT=  3500011 ScaDFX=  1.000000  1.000000  1.000000  1.000000
 FoFCou: FMM=F IPFlag=           0 FMFlag=      100000 FMFlg1=           0
         NFxFlg=           0 DoJE=T BraDBF=F KetDBF=T FulRan=T
         wScrn=  0.000000 ICntrl=     500 IOpCl=  0 I1Cent=   200000004 NGrid=           0
         NMat0=    1 NMatS0=      1 NMatT0=    0 NMatD0=    1 NMtDS0=    0 NMtDT0=    0
 Petite list used in FoFCou.
 Harris En= -151.989570242519    
 JPrj=0 DoOrth=F DoCkMO=F.
 Initial guess <Sx>= 0.0000 <Sy>= 0.0000 <Sz>= 0.5000 <S**2>= 0.7500 S= 0.5000
 Leave Link  401 at Fri Mar  8 09:51:41 2019, MaxMem=    33554432 cpu:         6.6
 (Enter /home/proyectos/fulerenos/M3C-v2.0/M3C-deps_CCC/g09-AM64L-G09RevC.01/l502.exe)
 UHF open shell SCF:
 Using DIIS extrapolation, IDIIS=  1040.
 Integral symmetry usage will be decided dynamically.
 IVT=       92671 IEndB=       92671 NGot=    33554432 MDV=    33502582
 LenX=    33502582 LenY=    33478116
 Requested convergence on RMS density matrix=1.00D-08 within 128 cycles.
 Requested convergence on MAX density matrix=1.00D-06.
 Requested convergence on             energy=1.00D-06.
 No special actions if energy rises.
 Fock matrices will be formed incrementally for  20 cycles.

 Cycle   1  Pass 0  IDiag  1:
 FoFJK:  IHMeth= 1 ICntrl=       0 DoSepK=F KAlg= 0 I1Cent=   0 FoldK=F
 IRaf= 990000000 NMat=   1 IRICut=       1 DoRegI=T DoRafI=F ISym2E= 0.
 FoFCou: FMM=F IPFlag=           0 FMFlag=      100000 FMFlg1=           0
         NFxFlg=           0 DoJE=F BraDBF=F KetDBF=F FulRan=T
         wScrn=  0.000000 ICntrl=       0 IOpCl=  1 I1Cent=           0 NGrid=           0
         NMat0=    1 NMatS0=      1 NMatT0=    0 NMatD0=    1 NMtDS0=    0 NMtDT0=    0
 Symmetry not used in FoFCou.
 E= -151.238192796594    
 DIIS: error= 5.85D-02 at cycle   1 NSaved=   1.
 NSaved= 1 IEnMin= 1 EnMin= -151.238192796594     IErMin= 1 ErrMin= 5.85D-02
 ErrMax= 5.85D-02  0.00D+00 EMaxC= 1.00D-01 BMatC= 1.84D+00 BMatP= 1.84D+00
 IDIUse=3 WtCom= 4.15D-01 WtEn= 5.85D-01
 Coeff-Com:  0.100D+01
 Coeff-En:   0.100D+01
 Coeff:      0.100D+01
 Gap=     0.407 Goal=   None    Shift=    0.000
 Gap=     0.595 Goal=   None    Shift=    0.000
 GapD=    0.407 DampG=2.000 DampE=0.500 DampFc=1.0000 IDamp=-1.
 RMSDP=2.63D-01 MaxDP=2.24D+01              OVMax= 8.92D-01

 Cycle   2  Pass 0  IDiag  1:
 RMSU=  2.49D-01    CP:  3.00D+00
 E= -151.486043470361     Delta-E=       -0.247850673766 Rises=F Damp=F
 DIIS: error= 4.38D-02 at cycle   2 NSaved=   2.
 NSaved= 2 IEnMin= 2 EnMin= -151.486043470361     IErMin= 2 ErrMin= 4.38D-02
 ErrMax= 4.38D-02  0.00D+00 EMaxC= 1.00D-01 BMatC= 6.54D-01 BMatP= 1.84D+00
 IDIUse=3 WtCom= 5.62D-01 WtEn= 4.38D-01
 Coeff-Com:  0.343D+00 0.657D+00
 Coeff-En:   0.139D+00 0.861D+00
 Coeff:      0.254D+00 0.746D+00
 Gap=     0.076 Goal=   None    Shift=    0.000
 Gap=     0.471 Goal=   None    Shift=    0.000
 RMSDP=7.59D-02 MaxDP=7.38D+00 DE=-2.48D-01 OVMax= 1.92D-01

 Cycle   3  Pass 0  IDiag  1:
 RMSU=  2.67D-02    CP:  2.40D+00  7.44D-01
 E= -151.677433059144     Delta-E=       -0.191389588784 Rises=F Damp=F
 DIIS: error= 6.45D-03 at cycle   3 NSaved=   3.
 NSaved= 3 IEnMin= 3 EnMin= -151.677433059144     IErMin= 3 ErrMin= 6.45D-03
 ErrMax= 6.45D-03  0.00D+00 EMaxC= 1.00D-01 BMatC= 2.35D-02 BMatP= 6.54D-01
 IDIUse=3 WtCom= 9.36D-01 WtEn= 6.45D-02
 Coeff-Com: -0.208D-01 0.992D-01 0.922D+00
 Coeff-En:   0.000D+00 0.000D+00 0.100D+01
 Coeff:     -0.194D-01 0.928D-01 0.927D+00
 Gap=     0.093 Goal=   None    Shift=    0.000
 Gap=     0.368 Goal=   None    Shift=    0.000
 RMSDP=4.33D-02 MaxDP=4.08D+00 DE=-1.91D-01 OVMax= 1.31D-01

 Cycle   4  Pass 0  IDiag  1:
 RMSU=  1.26D-02    CP:  1.79D+00  6.09D-01  1.30D+00
 E= -151.689785226562     Delta-E=       -0.012352167417 Rises=F Damp=F
 DIIS: error= 2.11D-03 at cycle   4 NSaved=   4.
 NSaved= 4 IEnMin= 4 EnMin= -151.689785226562     IErMin= 4 ErrMin= 2.11D-03
 ErrMax= 2.11D-03  0.00D+00 EMaxC= 1.00D-01 BMatC= 2.54D-03 BMatP= 2.35D-02
 IDIUse=3 WtCom= 9.79D-01 WtEn= 2.11D-02
 Coeff-Com: -0.638D-02-0.826D-02 0.244D-01 0.990D+00
 Coeff-En:   0.000D+00 0.000D+00 0.000D+00 0.100D+01
 Coeff:     -0.624D-02-0.808D-02 0.239D-01 0.990D+00
 Gap=     0.098 Goal=   None    Shift=    0.000
 Gap=     0.364 Goal=   None    Shift=    0.000
 RMSDP=3.51D-02 MaxDP=3.44D+00 DE=-1.24D-02 OVMax= 6.27D-02

 Cycle   5  Pass 0  IDiag  1:
 RMSU=  5.84D-03    CP:  1.32D+00  5.00D-01  1.65D+00  1.69D+00
 E= -151.692122808815     Delta-E=       -0.002337582253 Rises=F Damp=F
 DIIS: error= 1.54D-03 at cycle   5 NSaved=   5.
 NSaved= 5 IEnMin= 5 EnMin= -151.692122808815     IErMin= 5 ErrMin= 1.54D-03
 ErrMax= 1.54D-03  0.00D+00 EMaxC= 1.00D-01 BMatC= 8.10D-04 BMatP= 2.54D-03
 IDIUse=3 WtCom= 9.85D-01 WtEn= 1.54D-02
 Coeff-Com:  0.537D-02-0.179D-01-0.175D+00 0.277D+00 0.910D+00
 Coeff-En:   0.000D+00 0.000D+00 0.000D+00 0.000D+00 0.100D+01
 Coeff:      0.529D-02-0.176D-01-0.172D+00 0.273D+00 0.912D+00
 Gap=     0.101 Goal=   None    Shift=    0.000
 Gap=     0.363 Goal=   None    Shift=    0.000
 RMSDP=2.44D-02 MaxDP=2.30D+00 DE=-2.34D-03 OVMax= 4.10D-02

 Cycle   6  Pass 0  IDiag  1:
 RMSU=  1.44D-03    CP:  1.03D+00  4.19D-01  1.82D+00  2.12D+00  1.80D+00
 E= -151.692869129737     Delta-E=       -0.000746320922 Rises=F Damp=F
 DIIS: error= 6.98D-04 at cycle   6 NSaved=   6.
 NSaved= 6 IEnMin= 6 EnMin= -151.692869129737     IErMin= 6 ErrMin= 6.98D-04
 ErrMax= 6.98D-04  0.00D+00 EMaxC= 1.00D-01 BMatC= 1.05D-04 BMatP= 8.10D-04
 IDIUse=3 WtCom= 9.93D-01 WtEn= 6.98D-03
 Coeff-Com:  0.685D-03 0.403D-02 0.376D-01-0.194D+00-0.144D+00 0.130D+01
 Coeff-En:   0.000D+00 0.000D+00 0.000D+00 0.000D+00 0.000D+00 0.100D+01
 Coeff:      0.680D-03 0.400D-02 0.373D-01-0.193D+00-0.143D+00 0.129D+01
 Gap=     0.101 Goal=   None    Shift=    0.000
 Gap=     0.363 Goal=   None    Shift=    0.000
 RMSDP=1.47D-02 MaxDP=1.35D+00 DE=-7.46D-04 OVMax= 2.29D-02

 Cycle   7  Pass 0  IDiag  1:
 RMSU=  5.40D-04    CP:  8.71D-01  3.71D-01  1.93D+00  2.37D+00  2.46D+00
                    CP:  2.08D+00
 E= -151.693033490645     Delta-E=       -0.000164360907 Rises=F Damp=F
 DIIS: error= 2.80D-04 at cycle   7 NSaved=   7.
 NSaved= 7 IEnMin= 7 EnMin= -151.693033490645     IErMin= 7 ErrMin= 2.80D-04
 ErrMax= 2.80D-04  0.00D+00 EMaxC= 1.00D-01 BMatC= 2.59D-05 BMatP= 1.05D-04
 IDIUse=3 WtCom= 9.97D-01 WtEn= 2.80D-03
 Coeff-Com: -0.658D-03 0.273D-02 0.269D-01-0.644D-01-0.142D+00 0.169D+00
 Coeff-Com:  0.101D+01
 Coeff-En:   0.000D+00 0.000D+00 0.000D+00 0.000D+00 0.000D+00 0.000D+00
 Coeff-En:   0.100D+01
 Coeff:     -0.656D-03 0.272D-02 0.268D-01-0.642D-01-0.142D+00 0.168D+00
 Coeff:      0.101D+01
 Gap=     0.102 Goal=   None    Shift=    0.000
 Gap=     0.363 Goal=   None    Shift=    0.000
 RMSDP=4.34D-03 MaxDP=3.80D-01 DE=-1.64D-04 OVMax= 7.80D-03

 Cycle   8  Pass 0  IDiag  1:
 RMSU=  2.62D-04    CP:  8.31D-01  3.55D-01  1.95D+00  2.41D+00  2.61D+00
                    CP:  2.46D+00  1.61D+00
 E= -151.693062100807     Delta-E=       -0.000028610163 Rises=F Damp=F
 DIIS: error= 2.28D-04 at cycle   8 NSaved=   8.
 NSaved= 8 IEnMin= 8 EnMin= -151.693062100807     IErMin= 8 ErrMin= 2.28D-04
 ErrMax= 2.28D-04  0.00D+00 EMaxC= 1.00D-01 BMatC= 9.63D-06 BMatP= 2.59D-05
 IDIUse=3 WtCom= 9.98D-01 WtEn= 2.28D-03
 Coeff-Com: -0.133D-03-0.759D-03-0.117D-01 0.697D-01 0.500D-01-0.458D+00
 Coeff-Com:  0.521D-01 0.130D+01
 Coeff-En:   0.000D+00 0.000D+00 0.000D+00 0.000D+00 0.000D+00 0.000D+00
 Coeff-En:   0.000D+00 0.100D+01
 Coeff:     -0.132D-03-0.758D-03-0.117D-01 0.695D-01 0.499D-01-0.457D+00
 Coeff:      0.520D-01 0.130D+01
 Gap=     0.102 Goal=   None    Shift=    0.000
 Gap=     0.363 Goal=   None    Shift=    0.000
 RMSDP=1.71D-03 MaxDP=1.31D-01 DE=-2.86D-05 OVMax= 3.96D-03

 Cycle   9  Pass 0  IDiag  1:
 RMSU=  4.59D-05    CP:  8.20D-01  3.49D-01  1.94D+00  2.40D+00  2.62D+00
                    CP:  2.58D+00  2.07D+00  2.33D+00
 E= -151.693075648921     Delta-E=       -0.000013548114 Rises=F Damp=F
 DIIS: error= 1.32D-04 at cycle   9 NSaved=   9.
 NSaved= 9 IEnMin= 9 EnMin= -151.693075648921     IErMin= 9 ErrMin= 1.32D-04
 ErrMax= 1.32D-04  0.00D+00 EMaxC= 1.00D-01 BMatC= 3.37D-06 BMatP= 9.63D-06
 IDIUse=3 WtCom= 9.99D-01 WtEn= 1.32D-03
 Coeff-Com:  0.124D-03-0.276D-04 0.460D-02-0.436D-01-0.104D-01 0.344D+00
 Coeff-Com: -0.311D+00-0.104D+01 0.206D+01
 Coeff-En:   0.000D+00 0.000D+00 0.000D+00 0.000D+00 0.000D+00 0.000D+00
 Coeff-En:   0.000D+00 0.000D+00 0.100D+01
 Coeff:      0.123D-03-0.276D-04 0.460D-02-0.436D-01-0.104D-01 0.343D+00
 Coeff:     -0.311D+00-0.104D+01 0.206D+01
 Gap=     0.102 Goal=   None    Shift=    0.000
 Gap=     0.363 Goal=   None    Shift=    0.000
 RMSDP=1.13D-03 MaxDP=7.04D-02 DE=-1.35D-05 OVMax= 3.13D-03

 Cycle  10  Pass 0  IDiag  1:
 RMSU=  1.55D-04    CP:  8.29D-01  3.49D-01  1.92D+00  2.36D+00  2.50D+00
                    CP:  2.50D+00  2.11D+00  3.00D+00  2.43D+00
 E= -151.693083838053     Delta-E=       -0.000008189132 Rises=F Damp=F
 DIIS: error= 8.99D-05 at cycle  10 NSaved=  10.
 NSaved=10 IEnMin=10 EnMin= -151.693083838053     IErMin=10 ErrMin= 8.99D-05
 ErrMax= 8.99D-05  0.00D+00 EMaxC= 1.00D-01 BMatC= 1.44D-06 BMatP= 3.37D-06
 IDIUse=1 WtCom= 1.00D+00 WtEn= 0.00D+00
 Coeff-Com: -0.830D-04 0.245D-03 0.817D-03 0.990D-02-0.991D-02-0.108D+00
 Coeff-Com:  0.206D+00 0.360D+00-0.147D+01 0.201D+01
 Coeff:     -0.830D-04 0.245D-03 0.817D-03 0.990D-02-0.991D-02-0.108D+00
 Coeff:      0.206D+00 0.360D+00-0.147D+01 0.201D+01
 Gap=     0.102 Goal=   None    Shift=    0.000
 Gap=     0.362 Goal=   None    Shift=    0.000
 RMSDP=4.44D-04 MaxDP=2.80D-02 DE=-8.19D-06 OVMax= 2.40D-03

 Cycle  11  Pass 0  IDiag  1:
 RMSU=  3.84D-05    CP:  8.32D-01  3.50D-01  1.91D+00  2.35D+00  2.46D+00
                    CP:  2.46D+00  1.93D+00  3.00D+00  3.00D+00  1.35D+00
 E= -151.693088248160     Delta-E=       -0.000004410106 Rises=F Damp=F
 DIIS: error= 5.94D-05 at cycle  11 NSaved=  11.
 NSaved=11 IEnMin=11 EnMin= -151.693088248160     IErMin=11 ErrMin= 5.94D-05
 ErrMax= 5.94D-05  0.00D+00 EMaxC= 1.00D-01 BMatC= 7.54D-07 BMatP= 1.44D-06
 IDIUse=1 WtCom= 1.00D+00 WtEn= 0.00D+00
 Coeff-Com: -0.249D-04-0.196D-03-0.318D-02 0.160D-01 0.133D-01-0.974D-01
 Coeff-Com:  0.809D-02 0.251D+00 0.668D-01-0.149D+01 0.223D+01
 Coeff:     -0.249D-04-0.196D-03-0.318D-02 0.160D-01 0.133D-01-0.974D-01
 Coeff:      0.809D-02 0.251D+00 0.668D-01-0.149D+01 0.223D+01
 Gap=     0.102 Goal=   None    Shift=    0.000
 Gap=     0.362 Goal=   None    Shift=    0.000
 RMSDP=2.91D-04 MaxDP=2.40D-02 DE=-4.41D-06 OVMax= 2.29D-03

 Cycle  12  Pass 0  IDiag  1:
 RMSU=  3.79D-05    CP:  8.34D-01  3.51D-01  1.91D+00  2.35D+00  2.45D+00
                    CP:  2.44D+00  1.83D+00  3.00D+00  2.97D+00  1.18D+00
                    CP:  1.83D+00
 E= -151.693091189235     Delta-E=       -0.000002941076 Rises=F Damp=F
 DIIS: error= 3.91D-05 at cycle  12 NSaved=  12.
 NSaved=12 IEnMin=12 EnMin= -151.693091189235     IErMin=12 ErrMin= 3.91D-05
 ErrMax= 3.91D-05  0.00D+00 EMaxC= 1.00D-01 BMatC= 3.60D-07 BMatP= 7.54D-07
 IDIUse=1 WtCom= 1.00D+00 WtEn= 0.00D+00
 Coeff-Com:  0.369D-04-0.203D-04 0.119D-02-0.124D-01-0.227D-02 0.966D-01
 Coeff-Com: -0.101D+00-0.306D+00 0.663D+00-0.129D+00-0.129D+01 0.208D+01
 Coeff:      0.369D-04-0.203D-04 0.119D-02-0.124D-01-0.227D-02 0.966D-01
 Coeff:     -0.101D+00-0.306D+00 0.663D+00-0.129D+00-0.129D+01 0.208D+01
 Gap=     0.102 Goal=   None    Shift=    0.000
 Gap=     0.362 Goal=   None    Shift=    0.000
 RMSDP=2.79D-04 MaxDP=2.45D-02 DE=-2.94D-06 OVMax= 1.76D-03

 Cycle  13  Pass 0  IDiag  1:
 RMSU=  2.87D-05    CP:  8.37D-01  3.52D-01  1.91D+00  2.35D+00  2.44D+00
                    CP:  2.42D+00  1.89D+00  3.00D+00  2.32D+00  1.21D+00
                    CP:  1.64D+00  2.27D+00
 E= -151.693092764516     Delta-E=       -0.000001575281 Rises=F Damp=F
 DIIS: error= 3.55D-05 at cycle  13 NSaved=  13.
 NSaved=13 IEnMin=13 EnMin= -151.693092764516     IErMin=13 ErrMin= 3.55D-05
 ErrMax= 3.55D-05  0.00D+00 EMaxC= 1.00D-01 BMatC= 1.78D-07 BMatP= 3.60D-07
 IDIUse=1 WtCom= 1.00D+00 WtEn= 0.00D+00
 Coeff-Com: -0.408D-04 0.141D-03 0.160D-03 0.837D-02-0.315D-02-0.781D-01
 Coeff-Com:  0.123D+00 0.284D+00-0.906D+00 0.933D+00 0.466D+00-0.253D+01
 Coeff-Com:  0.270D+01
 Coeff:     -0.408D-04 0.141D-03 0.160D-03 0.837D-02-0.315D-02-0.781D-01
 Coeff:      0.123D+00 0.284D+00-0.906D+00 0.933D+00 0.466D+00-0.253D+01
 Coeff:      0.270D+01
 Gap=     0.102 Goal=   None    Shift=    0.000
 Gap=     0.362 Goal=   None    Shift=    0.000
 RMSDP=1.77D-04 MaxDP=1.39D-02 DE=-1.58D-06 OVMax= 1.14D-03

 Cycle  14  Pass 0  IDiag  1:
 RMSU=  1.39D-05    CP:  8.39D-01  3.52D-01  1.91D+00  2.34D+00  2.44D+00
                    CP:  2.40D+00  1.99D+00  3.00D+00  2.16D+00  1.39D+00
                    CP:  1.17D+00  2.70D+00  1.66D+00
 E= -151.693093633556     Delta-E=       -0.000000869039 Rises=F Damp=F
 DIIS: error= 2.53D-05 at cycle  14 NSaved=  14.
 NSaved=14 IEnMin=14 EnMin= -151.693093633556     IErMin=14 ErrMin= 2.53D-05
 ErrMax= 2.53D-05  0.00D+00 EMaxC= 1.00D-01 BMatC= 7.20D-08 BMatP= 1.78D-07
 IDIUse=1 WtCom= 1.00D+00 WtEn= 0.00D+00
 Coeff-Com:  0.270D-04-0.161D-03-0.913D-03-0.350D-02 0.478D-02 0.435D-01
 Coeff-Com: -0.996D-01-0.182D+00 0.783D+00-0.118D+01 0.283D+00 0.188D+01
 Coeff-Com: -0.346D+01 0.293D+01
 Coeff:      0.270D-04-0.161D-03-0.913D-03-0.350D-02 0.478D-02 0.435D-01
 Coeff:     -0.996D-01-0.182D+00 0.783D+00-0.118D+01 0.283D+00 0.188D+01
 Coeff:     -0.346D+01 0.293D+01
 Gap=     0.102 Goal=   None    Shift=    0.000
 Gap=     0.362 Goal=   None    Shift=    0.000
 RMSDP=4.75D-04 MaxDP=4.20D-02 DE=-8.69D-07 OVMax= 1.13D-03

 Cycle  15  Pass 0  IDiag  1:
 RMSU=  1.17D-05    CP:  8.34D-01  3.51D-01  1.92D+00  2.35D+00  2.47D+00
                    CP:  2.45D+00  1.97D+00  3.00D+00  2.83D+00  1.05D+00
                    CP:  1.83D+00  1.68D+00  9.27D-01  3.00D+00
 E= -151.693094051547     Delta-E=       -0.000000417991 Rises=F Damp=F
 DIIS: error= 9.26D-06 at cycle  15 NSaved=  15.
 NSaved=15 IEnMin=15 EnMin= -151.693094051547     IErMin=15 ErrMin= 9.26D-06
 ErrMax= 9.26D-06  0.00D+00 EMaxC= 1.00D-01 BMatC= 1.13D-08 BMatP= 7.20D-08
 IDIUse=1 WtCom= 1.00D+00 WtEn= 0.00D+00
 Coeff-Com: -0.788D-05 0.781D-04 0.640D-03 0.121D-03-0.244D-02-0.686D-02
 Coeff-Com:  0.347D-01 0.390D-01-0.268D+00 0.514D+00-0.300D+00-0.537D+00
 Coeff-Com:  0.149D+01-0.188D+01 0.192D+01
 Coeff:     -0.788D-05 0.781D-04 0.640D-03 0.121D-03-0.244D-02-0.686D-02
 Coeff:      0.347D-01 0.390D-01-0.268D+00 0.514D+00-0.300D+00-0.537D+00
 Coeff:      0.149D+01-0.188D+01 0.192D+01
 Gap=     0.102 Goal=   None    Shift=    0.000
 Gap=     0.362 Goal=   None    Shift=    0.000
 RMSDP=2.51D-04 MaxDP=2.07D-02 DE=-4.18D-07 OVMax= 4.23D-04

 Cycle  16  Pass 0  IDiag  1:
 RMSU=  8.21D-06    CP:  8.31D-01  3.50D-01  1.92D+00  2.36D+00  2.49D+00
                    CP:  2.47D+00  1.93D+00  3.00D+00  3.00D+00  7.50D-01
                    CP:  2.38D+00  1.14D+00  6.20D-01  3.00D+00  1.74D+00
 E= -151.693094094822     Delta-E=       -0.000000043275 Rises=F Damp=F
 DIIS: error= 2.16D-06 at cycle  16 NSaved=  16.
 NSaved=16 IEnMin=16 EnMin= -151.693094094822     IErMin=16 ErrMin= 2.16D-06
 ErrMax= 2.16D-06  0.00D+00 EMaxC= 1.00D-01 BMatC= 1.19D-09 BMatP= 1.13D-08
 IDIUse=1 WtCom= 1.00D+00 WtEn= 0.00D+00
 Coeff-Com:  0.198D-05-0.339D-04-0.290D-03 0.437D-03 0.998D-03-0.302D-02
 Coeff-Com: -0.598D-02 0.523D-02 0.398D-01-0.124D+00 0.129D+00 0.413D-01
 Coeff-Com: -0.342D+00 0.614D+00-0.103D+01 0.167D+01
 Coeff:      0.198D-05-0.339D-04-0.290D-03 0.437D-03 0.998D-03-0.302D-02
 Coeff:     -0.598D-02 0.523D-02 0.398D-01-0.124D+00 0.129D+00 0.413D-01
 Coeff:     -0.342D+00 0.614D+00-0.103D+01 0.167D+01
 Gap=     0.102 Goal=   None    Shift=    0.000
 Gap=     0.362 Goal=   None    Shift=    0.000
 RMSDP=4.40D-05 MaxDP=4.05D-03 DE=-4.33D-08 OVMax= 7.20D-05

 Cycle  17  Pass 0  IDiag  1:
 RMSU=  1.53D-06    CP:  8.32D-01  3.51D-01  1.92D+00  2.36D+00  2.49D+00
                    CP:  2.47D+00  1.94D+00  3.00D+00  3.00D+00  7.62D-01
                    CP:  2.30D+00  1.33D+00  6.13D-01  3.00D+00  1.68D+00
                    CP:  9.85D-01
 E= -151.693094097060     Delta-E=       -0.000000002239 Rises=F Damp=F
 DIIS: error= 4.85D-07 at cycle  17 NSaved=  17.
 NSaved=17 IEnMin=17 EnMin= -151.693094097060     IErMin=17 ErrMin= 4.85D-07
 ErrMax= 4.85D-07  0.00D+00 EMaxC= 1.00D-01 BMatC= 1.08D-10 BMatP= 1.19D-09
 IDIUse=1 WtCom= 1.00D+00 WtEn= 0.00D+00
 Coeff-Com:  0.720D-08 0.876D-05 0.509D-04-0.637D-04-0.211D-03 0.102D-02
 Coeff-Com:  0.293D-03-0.254D-02-0.767D-03 0.137D-01-0.237D-01 0.176D-01
 Coeff-Com:  0.552D-02-0.486D-01 0.176D+00-0.583D+00 0.145D+01
 Coeff:      0.720D-08 0.876D-05 0.509D-04-0.637D-04-0.211D-03 0.102D-02
 Coeff:      0.293D-03-0.254D-02-0.767D-03 0.137D-01-0.237D-01 0.176D-01
 Coeff:      0.552D-02-0.486D-01 0.176D+00-0.583D+00 0.145D+01
 Gap=     0.102 Goal=   None    Shift=    0.000
 Gap=     0.362 Goal=   None    Shift=    0.000
 RMSDP=6.16D-05 MaxDP=5.42D-03 DE=-2.24D-09 OVMax= 2.74D-05

 Cycle  18  Pass 0  IDiag  1:
 RMSU=  4.31D-07    CP:  8.32D-01  3.51D-01  1.92D+00  2.36D+00  2.49D+00
                    CP:  2.46D+00  1.94D+00  3.00D+00  2.96D+00  8.10D-01
                    CP:  2.21D+00  1.48D+00  6.78D-01  3.00D+00  1.55D+00
                    CP:  8.37D-01  1.21D+00
 E= -151.693094097254     Delta-E=       -0.000000000194 Rises=F Damp=F
 DIIS: error= 1.73D-07 at cycle  18 NSaved=  18.
 NSaved=18 IEnMin=18 EnMin= -151.693094097254     IErMin=18 ErrMin= 1.73D-07
 ErrMax= 1.73D-07  0.00D+00 EMaxC= 1.00D-01 BMatC= 1.18D-11 BMatP= 1.08D-10
 IDIUse=1 WtCom= 1.00D+00 WtEn= 0.00D+00
 Coeff-Com: -0.636D-07 0.798D-06 0.191D-04-0.724D-04-0.468D-04 0.437D-03
 Coeff-Com:  0.138D-04-0.116D-02 0.157D-03 0.454D-02-0.799D-02 0.201D-02
 Coeff-Com:  0.193D-01-0.435D-01 0.731D-01-0.884D-01-0.209D+00 0.125D+01
 Coeff:     -0.636D-07 0.798D-06 0.191D-04-0.724D-04-0.468D-04 0.437D-03
 Coeff:      0.138D-04-0.116D-02 0.157D-03 0.454D-02-0.799D-02 0.201D-02
 Coeff:      0.193D-01-0.435D-01 0.731D-01-0.884D-01-0.209D+00 0.125D+01
 Gap=     0.102 Goal=   None    Shift=    0.000
 Gap=     0.362 Goal=   None    Shift=    0.000
 RMSDP=2.32D-05 MaxDP=1.96D-03 DE=-1.94D-10 OVMax= 1.16D-05

 Cycle  19  Pass 0  IDiag  1:
 RMSU=  1.69D-07    CP:  8.33D-01  3.51D-01  1.92D+00  2.36D+00  2.48D+00
                    CP:  2.46D+00  1.94D+00  3.00D+00  2.94D+00  8.33D-01
                    CP:  2.19D+00  1.53D+00  7.16D-01  3.00D+00  1.49D+00
                    CP:  7.47D-01  1.16D+00  1.72D+00
 E= -151.693094097280     Delta-E=       -0.000000000027 Rises=F Damp=F
 DIIS: error= 6.63D-08 at cycle  19 NSaved=  19.
 NSaved=19 IEnMin=19 EnMin= -151.693094097280     IErMin=19 ErrMin= 6.63D-08
 ErrMax= 6.63D-08  0.00D+00 EMaxC= 1.00D-01 BMatC= 1.83D-12 BMatP= 1.18D-11
 IDIUse=1 WtCom= 1.00D+00 WtEn= 0.00D+00
 Coeff-Com:  0.567D-07-0.748D-06-0.937D-05 0.442D-04 0.241D-04-0.352D-03
 Coeff-Com:  0.208D-03 0.118D-02-0.230D-02 0.664D-03 0.455D-02-0.883D-02
 Coeff-Com:  0.421D-02 0.890D-02-0.338D-01 0.797D-01-0.454D-01-0.579D+00
 Coeff-Com:  0.157D+01
 Coeff:      0.567D-07-0.748D-06-0.937D-05 0.442D-04 0.241D-04-0.352D-03
 Coeff:      0.208D-03 0.118D-02-0.230D-02 0.664D-03 0.455D-02-0.883D-02
 Coeff:      0.421D-02 0.890D-02-0.338D-01 0.797D-01-0.454D-01-0.579D+00
 Coeff:      0.157D+01
 Gap=     0.102 Goal=   None    Shift=    0.000
 Gap=     0.362 Goal=   None    Shift=    0.000
 RMSDP=1.31D-05 MaxDP=1.05D-03 DE=-2.66D-11 OVMax= 8.27D-06

 Cycle  20  Pass 0  IDiag  1:
 RMSU=  1.18D-07    CP:  8.33D-01  3.51D-01  1.92D+00  2.36D+00  2.48D+00
                    CP:  2.46D+00  1.94D+00  3.00D+00  2.93D+00  8.47D-01
                    CP:  2.18D+00  1.56D+00  7.37D-01  3.00D+00  1.46D+00
                    CP:  6.83D-01  1.16D+00  2.11D+00  1.85D+00
 E= -151.693094097287     Delta-E=       -0.000000000006 Rises=F Damp=F
 DIIS: error= 2.93D-08 at cycle  20 NSaved=  20.
 NSaved=20 IEnMin=20 EnMin= -151.693094097287     IErMin=20 ErrMin= 2.93D-08
 ErrMax= 2.93D-08  0.00D+00 EMaxC= 1.00D-01 BMatC= 3.04D-13 BMatP= 1.83D-12
 IDIUse=1 WtCom= 1.00D+00 WtEn= 0.00D+00
 Coeff-Com: -0.180D-07 0.466D-06 0.529D-05-0.219D-04-0.161D-04 0.188D-03
 Coeff-Com: -0.950D-04-0.593D-03 0.106D-02-0.166D-03-0.218D-02 0.382D-02
 Coeff-Com: -0.153D-02-0.470D-02 0.181D-01-0.493D-01 0.666D-01 0.207D+00
 Coeff-Com: -0.919D+00 0.168D+01
 Coeff:     -0.180D-07 0.466D-06 0.529D-05-0.219D-04-0.161D-04 0.188D-03
 Coeff:     -0.950D-04-0.593D-03 0.106D-02-0.166D-03-0.218D-02 0.382D-02
 Coeff:     -0.153D-02-0.470D-02 0.181D-01-0.493D-01 0.666D-01 0.207D+00
 Coeff:     -0.919D+00 0.168D+01
 Gap=     0.102 Goal=   None    Shift=    0.000
 Gap=     0.362 Goal=   None    Shift=    0.000
 RMSDP=7.41D-06 MaxDP=5.74D-04 DE=-6.31D-12 OVMax= 5.06D-06

 Initial convergence to 1.0D-05 achieved.  Increase integral accuracy.
 Cycle  21  Pass 1  IDiag  1:
 E= -151.693094097285     Delta-E=        0.000000000002 Rises=F Damp=F
 DIIS: error= 1.77D-08 at cycle   1 NSaved=   1.
 NSaved= 1 IEnMin= 1 EnMin= -151.693094097285     IErMin= 1 ErrMin= 1.77D-08
 ErrMax= 1.77D-08  0.00D+00 EMaxC= 1.00D-01 BMatC= 9.77D-14 BMatP= 9.77D-14
 IDIUse=1 WtCom= 1.00D+00 WtEn= 0.00D+00
 Coeff-Com:  0.100D+01
 Coeff:      0.100D+01
 Gap=     0.102 Goal=   None    Shift=    0.000
 Gap=     0.362 Goal=   None    Shift=    0.000
 RMSDP=7.41D-06 MaxDP=5.74D-04 DE= 1.59D-12 OVMax= 1.48D-06

 Cycle  22  Pass 1  IDiag  1:
 RMSU=  2.20D-06    CP:  1.00D+00
 E= -151.693094097285     Delta-E=        0.000000000000 Rises=F Damp=F
 DIIS: error= 1.38D-08 at cycle   2 NSaved=   2.
 NSaved= 2 IEnMin= 1 EnMin= -151.693094097285     IErMin= 2 ErrMin= 1.38D-08
 ErrMax= 1.38D-08  0.00D+00 EMaxC= 1.00D-01 BMatC= 5.65D-14 BMatP= 9.77D-14
 IDIUse=1 WtCom= 1.00D+00 WtEn= 0.00D+00
 Coeff-Com: -0.173D+01 0.273D+01
 Coeff:     -0.173D+01 0.273D+01
 Gap=     0.102 Goal=   None    Shift=    0.000
 Gap=     0.362 Goal=   None    Shift=    0.000
 RMSDP=4.66D-06 MaxDP=3.57D-04 DE= 4.55D-13 OVMax= 3.17D-06

 Cycle  23  Pass 1  IDiag  1:
 RMSU=  2.43D-07    CP:  1.00D+00  3.00D+00
 E= -151.693094097287     Delta-E=       -0.000000000002 Rises=F Damp=F
 DIIS: error= 5.47D-09 at cycle   3 NSaved=   3.
 NSaved= 3 IEnMin= 3 EnMin= -151.693094097287     IErMin= 3 ErrMin= 5.47D-09
 ErrMax= 5.47D-09  0.00D+00 EMaxC= 1.00D-01 BMatC= 1.68D-14 BMatP= 5.65D-14
 IDIUse=1 WtCom= 1.00D+00 WtEn= 0.00D+00
 Coeff-Com: -0.119D+01 0.119D+01 0.997D+00
 Coeff:     -0.119D+01 0.119D+01 0.997D+00
 Gap=     0.102 Goal=   None    Shift=    0.000
 Gap=     0.362 Goal=   None    Shift=    0.000
 RMSDP=2.71D-06 MaxDP=2.07D-04 DE=-1.99D-12 OVMax= 1.85D-06

 Cycle  24  Pass 1  IDiag  1:
 RMSU=  2.20D-06    CP:  1.00D+00  3.00D+00  3.00D+00
 E= -151.693094097286     Delta-E=        0.000000000001 Rises=F Damp=F
 DIIS: error= 1.79D-09 at cycle   4 NSaved=   4.
 NSaved= 4 IEnMin= 3 EnMin= -151.693094097287     IErMin= 4 ErrMin= 1.79D-09
 ErrMax= 1.79D-09  0.00D+00 EMaxC= 1.00D-01 BMatC= 9.69D-16 BMatP= 1.68D-14
 IDIUse=1 WtCom= 1.00D+00 WtEn= 0.00D+00
 Coeff-Com:  0.241D+00-0.334D+00-0.107D+00 0.120D+01
 Coeff:      0.241D+00-0.334D+00-0.107D+00 0.120D+01
 Gap=     0.102 Goal=   None    Shift=    0.000
 Gap=     0.362 Goal=   None    Shift=    0.000
 RMSDP=4.47D-07 MaxDP=3.37D-05 DE= 9.66D-13 OVMax= 3.24D-07

 Cycle  25  Pass 1  IDiag  1:
 RMSU=  1.02D-08    CP:  1.00D+00  3.00D+00  3.00D+00  1.20D+00
 E= -151.693094097286     Delta-E=       -0.000000000001 Rises=F Damp=F
 DIIS: error= 9.08D-10 at cycle   5 NSaved=   5.
 NSaved= 5 IEnMin= 3 EnMin= -151.693094097287     IErMin= 5 ErrMin= 9.08D-10
 ErrMax= 9.08D-10  0.00D+00 EMaxC= 1.00D-01 BMatC= 2.10D-16 BMatP= 9.69D-16
 IDIUse=1 WtCom= 1.00D+00 WtEn= 0.00D+00
 Coeff-Com:  0.244D+00-0.239D+00-0.206D+00 0.713D-01 0.113D+01
 Coeff:      0.244D+00-0.239D+00-0.206D+00 0.713D-01 0.113D+01
 Gap=     0.102 Goal=   None    Shift=    0.000
 Gap=     0.362 Goal=   None    Shift=    0.000
 RMSDP=4.94D-08 MaxDP=3.54D-06 DE=-7.11D-13 OVMax= 4.36D-08

 Cycle  26  Pass 1  IDiag  1:
 RMSU=  8.38D-10    CP:  1.00D+00  3.00D+00  3.00D+00  1.22D+00  1.27D+00
 E= -151.693094097287     Delta-E=       -0.000000000000 Rises=F Damp=F
 DIIS: error= 4.29D-10 at cycle   6 NSaved=   6.
 NSaved= 6 IEnMin= 3 EnMin= -151.693094097287     IErMin= 6 ErrMin= 4.29D-10
 ErrMax= 4.29D-10  0.00D+00 EMaxC= 1.00D-01 BMatC= 4.39D-17 BMatP= 2.10D-16
 IDIUse=1 WtCom= 1.00D+00 WtEn= 0.00D+00
 Coeff-Com: -0.545D-01 0.688D-01 0.276D-01-0.187D+00-0.449D-01 0.119D+01
 Coeff:     -0.545D-01 0.688D-01 0.276D-01-0.187D+00-0.449D-01 0.119D+01
 Gap=     0.102 Goal=   None    Shift=    0.000
 Gap=     0.362 Goal=   None    Shift=    0.000
 RMSDP=2.11D-08 MaxDP=1.57D-06 DE=-1.42D-13 OVMax= 1.59D-08

 Cycle  27  Pass 1  IDiag  1:
 RMSU=  1.54D-10    CP:  1.00D+00  3.00D+00  3.00D+00  1.23D+00  1.31D+00
                    CP:  1.65D+00
 E= -151.693094097286     Delta-E=        0.000000000001 Rises=F Damp=F
 DIIS: error= 3.04D-10 at cycle   7 NSaved=   7.
 NSaved= 7 IEnMin= 3 EnMin= -151.693094097287     IErMin= 7 ErrMin= 3.04D-10
 ErrMax= 3.04D-10  0.00D+00 EMaxC= 1.00D-01 BMatC= 1.41D-17 BMatP= 4.39D-17
 IDIUse=1 WtCom= 1.00D+00 WtEn= 0.00D+00
 Coeff-Com: -0.896D-01 0.921D-01 0.688D-01-0.662D-01-0.365D+00 0.336D+00
 Coeff-Com:  0.102D+01
 Coeff:     -0.896D-01 0.921D-01 0.688D-01-0.662D-01-0.365D+00 0.336D+00
 Coeff:      0.102D+01
 Gap=     0.102 Goal=   None    Shift=    0.000
 Gap=     0.362 Goal=   None    Shift=    0.000
 RMSDP=1.07D-08 MaxDP=8.11D-07 DE= 8.53D-13 OVMax= 7.27D-09

 Cycle  28  Pass 1  IDiag  1:
 RMSU=  6.37D-11    CP:  1.00D+00  3.00D+00  3.00D+00  1.24D+00  1.31D+00
                    CP:  1.94D+00  1.97D+00
 E= -151.693094097287     Delta-E=       -0.000000000001 Rises=F Damp=F
 DIIS: error= 1.17D-10 at cycle   8 NSaved=   8.
 NSaved= 8 IEnMin= 3 EnMin= -151.693094097287     IErMin= 8 ErrMin= 1.17D-10
 ErrMax= 1.17D-10  0.00D+00 EMaxC= 1.00D-01 BMatC= 2.76D-18 BMatP= 1.41D-17
 IDIUse=1 WtCom= 1.00D+00 WtEn= 0.00D+00
 Coeff-Com:  0.139D-01-0.162D-01-0.955D-02 0.357D-01 0.294D-01-0.212D+00
 Coeff-Com: -0.106D+00 0.126D+01
 Coeff:      0.139D-01-0.162D-01-0.955D-02 0.357D-01 0.294D-01-0.212D+00
 Coeff:     -0.106D+00 0.126D+01
 Gap=     0.102 Goal=   None    Shift=    0.000
 Gap=     0.362 Goal=   None    Shift=    0.000
 RMSDP=4.43D-09 MaxDP=3.30D-07 DE=-7.96D-13 OVMax= 3.14D-09

 SCF Done:  E(UHF) =  -151.693094097     A.U. after   28 cycles
            NFock= 28  Conv=0.44D-08     -V/T= 2.0013
 <Sx>= 0.0000 <Sy>= 0.0000 <Sz>= 0.5000 <S**2>= 0.7505 S= 0.5002
 <L.S>= 0.000000000000E+00
 KE= 1.515014787504D+02 PE=-4.762172094270D+02 EE= 1.148108545916D+02
 Annihilation of the first spin contaminant:
 S**2 before annihilation     0.7505,   after     0.7500
 Leave Link  502 at Fri Mar  8 09:52:30 2019, MaxMem=    33554432 cpu:       194.0
 (Enter /home/proyectos/fulerenos/M3C-v2.0/M3C-deps_CCC/g09-AM64L-G09RevC.01/l801.exe)
 Windowed orbitals will be sorted by symmetry type.
 ExpMin= 3.60D-02 ExpMax= 8.59D+03 ExpMxC= 1.30D+03 IAcc=3 IRadAn=         5 AccDes= 0.00D+00
 HarFok:  IExCor=  205 AccDes= 0.00D+00 IRadAn=         5 IDoV=-2 UseB2=F ITyADJ=14
 ICtDFT= 12500011 ScaDFX=  1.000000  1.000000  1.000000  1.000000
 Largest valence mixing into a core orbital is  1.40D-04
 Largest core mixing into a valence orbital is  5.02D-05
 Largest valence mixing into a core orbital is  1.41D-04
 Largest core mixing into a valence orbital is  5.01D-05
 Range of M.O.s used for correlation:     4   137
 NBasis=   137 NAE=    12 NBE=    11 NFC=     3 NFV=     0
 NROrb=    134 NOA=     9 NOB=     8 NVA=   125 NVB=   126

 **** Warning!!: The largest alpha MO coefficient is  0.92865359D+02


 **** Warning!!: The largest beta MO coefficient is  0.88120331D+02

 Leave Link  801 at Fri Mar  8 09:52:30 2019, MaxMem=    33554432 cpu:         1.1
 (Enter /home/proyectos/fulerenos/M3C-v2.0/M3C-deps_CCC/g09-AM64L-G09RevC.01/l804.exe)
 Open-shell transformation, MDV=    33554432 ITran=4 ISComp=1.
 Semi-Direct transformation.
 ModeAB=           2 MOrb=             9 LenV=      32888253
 LASXX=     10304541 LTotXX=    10304541 LenRXX=    10304541
 LTotAB=    10582650 MaxLAS=    14580540 LenRXY=    14580540
 NonZer=    20609082 LenScr=    31676928 LnRSAI=           0
 LnScr1=           0 LExtra=           0 Total=     56562009
 MaxDsk=          -1 SrtSym=           F ITran=            4
 DoSDTr:  NPSUse=  4
 JobTyp=1 Pass  1:  I=   1 to   9.
 Complete sort for first half transformation.
 First half transformation complete.
 Complete sort for second half transformation.
 Second half transformation complete.
 ModeAB=           2 MOrb=             8 LenV=      32888253
 LASXX=      9203194 LTotXX=     9203194 LenRXX=    12960480
 LTotAB=     8221500 MaxLAS=    12960480 LenRXY=     8221500
 NonZer=    18406388 LenScr=    28359168 LnRSAI=           0
 LnScr1=           0 LExtra=           0 Total=     49541148
 MaxDsk=          -1 SrtSym=           F ITran=            4
 DoSDTr:  NPSUse=  4
 JobTyp=2 Pass  1:  I=   1 to   8.
 Complete sort for first half transformation.
 First half transformation complete.
 Complete sort for second half transformation.
 Second half transformation complete.
 SymMOI:  orbitals are not symmetric.
 Spin components of T(2) and E(2):
     alpha-alpha T2 =       0.2484956225D-01 E2=     -0.7278015024D-01
     alpha-beta  T2 =       0.1263590599D+00 E2=     -0.4096569526D+00
     beta-beta   T2 =       0.2217171505D-01 E2=     -0.6878719538D-01
 ANorm=    0.1083226817D+01
 E2 =    -0.5512242983D+00 EUMP2 =    -0.15224431839556D+03
 (S**2,0)=  0.75046D+00           (S**2,1)=  0.75011D+00
 E(PUHF)=      -0.15169316940D+03        E(PMP2)=      -0.15224436551D+03
 Leave Link  804 at Fri Mar  8 09:53:07 2019, MaxMem=    33554432 cpu:       135.0
 (Enter /home/proyectos/fulerenos/M3C-v2.0/M3C-deps_CCC/g09-AM64L-G09RevC.01/l913.exe)
 CIDS:  MDV=    33554432.
 Frozen-core window:  NFC=   3 NFV=   0.
 IFCWin=0 IBDFC=1 NFBD=     0     0 NFCmp=     0     0 NFFFC=     0     0
 Using original routines for 1st iteration, S=T.
 Using DD4UQ or CC4UQ for 2nd and later iterations.
 Would need an additional        57756102 words for in-memory AO integral storage.
 CCSD(T)
 =======
 Iterations= 200 Convergence= 0.100D-06
 Iteration Nr.   1
 **********************
 DD1Dir will call FoFJK   2 times, MxPair=       104
 NAB=    72 NAA=    36 NBB=    28 NumPrc=  4.
 DD1Dir:  Pass   1 NRAB=    52 NRAA=     0 NRBB=     0 NR=   104.
 FoFJK:  IHMeth= 1 ICntrl=     200 DoSepK=F KAlg= 0 I1Cent=   0 FoldK=F
 IRaf= 990000000 NMat= 104 IRICut=     130 DoRegI=T DoRafI=T ISym2E= 2.
 FoFCou: FMM=F IPFlag=           0 FMFlag=      100000 FMFlg1=           0
         NFxFlg=           0 DoJE=F BraDBF=F KetDBF=F FulRan=T
         wScrn=  0.000000 ICntrl=     200 IOpCl=  0 I1Cent=           0 NGrid=           0
         NMat0=  104 NMatS0=      0 NMatT0=   52 NMatD0=  104 NMtDS0=    0 NMtDT0=    0
 Integrals replicated using symmetry in FoFCou.
 DD1Dir:  Pass   2 NRAB=    20 NRAA=    36 NRBB=    28 NR=   104.
 E(PMP3)=      -0.15224737774D+03
 MP4(R+Q)=  0.14438576D-01
 Maximum subspace dimension=  5
 Norm of the A-vectors is  6.7155007D-01 conv= 1.00D-05.
 RLE energy=       -0.5397462825
 E3=       -0.30303624D-02        EUMP3=      -0.15224734876D+03
 E4(DQ)=    0.19888685D-02        UMP4(DQ)=   -0.15224535989D+03
 E4(SDQ)=  -0.52493246D-02        UMP4(SDQ)=  -0.15225259808D+03
 VARIATIONAL ENERGIES WITH THE FIRST-ORDER WAVEFUNCTION:
 DE(Corr)= -0.53950237     E(Corr)=     -152.23259647    
 NORM(A)=   0.10821289D+01
 Iteration Nr.   2
 **********************
 DD1Dir will call FoFJK   2 times, MxPair=       104
 NAB=    72 NAA=    36 NBB=    28 NumPrc=  4.
 DD1Dir:  Pass   1 NRAB=    52 NRAA=     0 NRBB=     0 NR=   104.
 DD1Dir:  Pass   2 NRAB=    20 NRAA=    36 NRBB=    28 NR=   104.
 Norm of the A-vectors is  2.6004791D-01 conv= 1.00D-05.
 RLE energy=       -0.5573509546
 DE(Corr)= -0.55661236     E(CORR)=     -152.24970645     Delta=-1.71D-02
 NORM(A)=   0.10907678D+01
 Iteration Nr.   3
 **********************
 DD1Dir will call FoFJK   2 times, MxPair=       104
 NAB=    72 NAA=    36 NBB=    28 NumPrc=  4.
 DD1Dir:  Pass   1 NRAB=    52 NRAA=     0 NRBB=     0 NR=   104.
 DD1Dir:  Pass   2 NRAB=    20 NRAA=    36 NRBB=    28 NR=   104.
 Norm of the A-vectors is  8.2345887D-02 conv= 1.00D-05.
 RLE energy=       -0.5584917995
 DE(Corr)= -0.55676500     E(CORR)=     -152.24985909     Delta=-1.53D-04
 NORM(A)=   0.10948107D+01
 Iteration Nr.   4
 **********************
 DD1Dir will call FoFJK   2 times, MxPair=       104
 NAB=    72 NAA=    36 NBB=    28 NumPrc=  4.
 DD1Dir:  Pass   1 NRAB=    52 NRAA=     0 NRBB=     0 NR=   104.
 DD1Dir:  Pass   2 NRAB=    20 NRAA=    36 NRBB=    28 NR=   104.
 Norm of the A-vectors is  4.1896859D-02 conv= 1.00D-05.
 RLE energy=       -0.5588118924
 DE(Corr)= -0.55857931     E(CORR)=     -152.25167341     Delta=-1.81D-03
 NORM(A)=   0.10974211D+01
 Iteration Nr.   5
 **********************
 DD1Dir will call FoFJK   2 times, MxPair=       104
 NAB=    72 NAA=    36 NBB=    28 NumPrc=  4.
 DD1Dir:  Pass   1 NRAB=    52 NRAA=     0 NRBB=     0 NR=   104.
 DD1Dir:  Pass   2 NRAB=    20 NRAA=    36 NRBB=    28 NR=   104.
 Norm of the A-vectors is  1.6130478D-02 conv= 1.00D-05.
 RLE energy=       -0.5590453511
 DE(Corr)= -0.55890153     E(CORR)=     -152.25199563     Delta=-3.22D-04
 NORM(A)=   0.10995621D+01
 Iteration Nr.   6
 **********************
 DD1Dir will call FoFJK   2 times, MxPair=       104
 NAB=    72 NAA=    36 NBB=    28 NumPrc=  4.
 DD1Dir:  Pass   1 NRAB=    52 NRAA=     0 NRBB=     0 NR=   104.
 DD1Dir:  Pass   2 NRAB=    20 NRAA=    36 NRBB=    28 NR=   104.
 Norm of the A-vectors is  9.4722077D-03 conv= 1.00D-05.
 RLE energy=       -0.5589376689
 DE(Corr)= -0.55898963     E(CORR)=     -152.25208373     Delta=-8.81D-05
 NORM(A)=   0.11007791D+01
 Iteration Nr.   7
 **********************
 DD1Dir will call FoFJK   2 times, MxPair=       104
 NAB=    72 NAA=    36 NBB=    28 NumPrc=  4.
 DD1Dir:  Pass   1 NRAB=    52 NRAA=     0 NRBB=     0 NR=   104.
 DD1Dir:  Pass   2 NRAB=    20 NRAA=    36 NRBB=    28 NR=   104.
 Norm of the A-vectors is  5.8719369D-03 conv= 1.00D-05.
 RLE energy=       -0.5589984464
 DE(Corr)= -0.55901887     E(CORR)=     -152.25211296     Delta=-2.92D-05
 NORM(A)=   0.11015727D+01
 Iteration Nr.   8
 **********************
 DD1Dir will call FoFJK   2 times, MxPair=       104
 NAB=    72 NAA=    36 NBB=    28 NumPrc=  4.
 DD1Dir:  Pass   1 NRAB=    52 NRAA=     0 NRBB=     0 NR=   104.
 DD1Dir:  Pass   2 NRAB=    20 NRAA=    36 NRBB=    28 NR=   104.
 Norm of the A-vectors is  3.3406957D-03 conv= 1.00D-05.
 RLE energy=       -0.5589882586
 DE(Corr)= -0.55900128     E(CORR)=     -152.25209538     Delta= 1.76D-05
 NORM(A)=   0.11019641D+01
 Iteration Nr.   9
 **********************
 DD1Dir will call FoFJK   2 times, MxPair=       104
 NAB=    72 NAA=    36 NBB=    28 NumPrc=  4.
 DD1Dir:  Pass   1 NRAB=    52 NRAA=     0 NRBB=     0 NR=   104.
 DD1Dir:  Pass   2 NRAB=    20 NRAA=    36 NRBB=    28 NR=   104.
 Norm of the A-vectors is  2.2187145D-03 conv= 1.00D-05.
 RLE energy=       -0.5590192510
 DE(Corr)= -0.55901800     E(CORR)=     -152.25211210     Delta=-1.67D-05
 NORM(A)=   0.11021232D+01
 Iteration Nr.  10
 **********************
 DD1Dir will call FoFJK   2 times, MxPair=       104
 NAB=    72 NAA=    36 NBB=    28 NumPrc=  4.
 DD1Dir:  Pass   1 NRAB=    52 NRAA=     0 NRBB=     0 NR=   104.
 DD1Dir:  Pass   2 NRAB=    20 NRAA=    36 NRBB=    28 NR=   104.
 Norm of the A-vectors is  1.4781587D-03 conv= 1.00D-05.
 RLE energy=       -0.5590146804
 DE(Corr)= -0.55901222     E(CORR)=     -152.25210632     Delta= 5.78D-06
 NORM(A)=   0.11021895D+01
 Iteration Nr.  11
 **********************
 DD1Dir will call FoFJK   2 times, MxPair=       104
 NAB=    72 NAA=    36 NBB=    28 NumPrc=  4.
 DD1Dir:  Pass   1 NRAB=    52 NRAA=     0 NRBB=     0 NR=   104.
 DD1Dir:  Pass   2 NRAB=    20 NRAA=    36 NRBB=    28 NR=   104.
 Norm of the A-vectors is  8.8670618D-04 conv= 1.00D-05.
 RLE energy=       -0.5590211730
 DE(Corr)= -0.55902120     E(CORR)=     -152.25211529     Delta=-8.98D-06
 NORM(A)=   0.11022149D+01
 Iteration Nr.  12
 **********************
 DD1Dir will call FoFJK   2 times, MxPair=       104
 NAB=    72 NAA=    36 NBB=    28 NumPrc=  4.
 DD1Dir:  Pass   1 NRAB=    52 NRAA=     0 NRBB=     0 NR=   104.
 DD1Dir:  Pass   2 NRAB=    20 NRAA=    36 NRBB=    28 NR=   104.
 Norm of the A-vectors is  3.5531544D-04 conv= 1.00D-05.
 RLE energy=       -0.5590222603
 DE(Corr)= -0.55902115     E(CORR)=     -152.25211525     Delta= 4.88D-08
 NORM(A)=   0.11022296D+01
 Iteration Nr.  13
 **********************
 DD1Dir will call FoFJK   2 times, MxPair=       104
 NAB=    72 NAA=    36 NBB=    28 NumPrc=  4.
 DD1Dir:  Pass   1 NRAB=    52 NRAA=     0 NRBB=     0 NR=   104.
 DD1Dir:  Pass   2 NRAB=    20 NRAA=    36 NRBB=    28 NR=   104.
 Norm of the A-vectors is  1.5927626D-04 conv= 1.00D-05.
 RLE energy=       -0.5590227514
 DE(Corr)= -0.55902255     E(CORR)=     -152.25211664     Delta=-1.40D-06
 NORM(A)=   0.11022398D+01
 Iteration Nr.  14
 **********************
 DD1Dir will call FoFJK   2 times, MxPair=       104
 NAB=    72 NAA=    36 NBB=    28 NumPrc=  4.
 DD1Dir:  Pass   1 NRAB=    52 NRAA=     0 NRBB=     0 NR=   104.
 DD1Dir:  Pass   2 NRAB=    20 NRAA=    36 NRBB=    28 NR=   104.
 Norm of the A-vectors is  8.1113858D-05 conv= 1.00D-05.
 RLE energy=       -0.5590240228
 DE(Corr)= -0.55902346     E(CORR)=     -152.25211756     Delta=-9.16D-07
 NORM(A)=   0.11022497D+01
 Iteration Nr.  15
 **********************
 DD1Dir will call FoFJK   2 times, MxPair=       104
 NAB=    72 NAA=    36 NBB=    28 NumPrc=  4.
 DD1Dir:  Pass   1 NRAB=    52 NRAA=     0 NRBB=     0 NR=   104.
 DD1Dir:  Pass   2 NRAB=    20 NRAA=    36 NRBB=    28 NR=   104.
 Norm of the A-vectors is  6.1135276D-05 conv= 1.00D-05.
 RLE energy=       -0.5590240462
 DE(Corr)= -0.55902381     E(CORR)=     -152.25211791     Delta=-3.50D-07
 NORM(A)=   0.11022582D+01
 Iteration Nr.  16
 **********************
 DD1Dir will call FoFJK   2 times, MxPair=       104
 NAB=    72 NAA=    36 NBB=    28 NumPrc=  4.
 DD1Dir:  Pass   1 NRAB=    52 NRAA=     0 NRBB=     0 NR=   104.
 DD1Dir:  Pass   2 NRAB=    20 NRAA=    36 NRBB=    28 NR=   104.
 Norm of the A-vectors is  4.6476589D-05 conv= 1.00D-05.
 RLE energy=       -0.5590245370
 DE(Corr)= -0.55902438     E(CORR)=     -152.25211847     Delta=-5.63D-07
 NORM(A)=   0.11022635D+01
 Iteration Nr.  17
 **********************
 DD1Dir will call FoFJK   2 times, MxPair=       104
 NAB=    72 NAA=    36 NBB=    28 NumPrc=  4.
 DD1Dir:  Pass   1 NRAB=    52 NRAA=     0 NRBB=     0 NR=   104.
 DD1Dir:  Pass   2 NRAB=    20 NRAA=    36 NRBB=    28 NR=   104.
 Norm of the A-vectors is  3.0312658D-05 conv= 1.00D-05.
 RLE energy=       -0.5590243989
 DE(Corr)= -0.55902435     E(CORR)=     -152.25211845     Delta= 2.54D-08
 NORM(A)=   0.11022668D+01
 Iteration Nr.  18
 **********************
 DD1Dir will call FoFJK   2 times, MxPair=       104
 NAB=    72 NAA=    36 NBB=    28 NumPrc=  4.
 DD1Dir:  Pass   1 NRAB=    52 NRAA=     0 NRBB=     0 NR=   104.
 DD1Dir:  Pass   2 NRAB=    20 NRAA=    36 NRBB=    28 NR=   104.
 Norm of the A-vectors is  2.0042249D-05 conv= 1.00D-05.
 RLE energy=       -0.5590243628
 DE(Corr)= -0.55902444     E(CORR)=     -152.25211854     Delta=-8.94D-08
 NORM(A)=   0.11022690D+01
 Iteration Nr.  19
 **********************
 DD1Dir will call FoFJK   2 times, MxPair=       104
 NAB=    72 NAA=    36 NBB=    28 NumPrc=  4.
 DD1Dir:  Pass   1 NRAB=    52 NRAA=     0 NRBB=     0 NR=   104.
 DD1Dir:  Pass   2 NRAB=    20 NRAA=    36 NRBB=    28 NR=   104.
 Norm of the A-vectors is  1.6015233D-05 conv= 1.00D-05.
 RLE energy=       -0.5590243576
 DE(Corr)= -0.55902439     E(CORR)=     -152.25211849     Delta= 4.51D-08
 NORM(A)=   0.11022702D+01
 Iteration Nr.  20
 **********************
 DD1Dir will call FoFJK   2 times, MxPair=       104
 NAB=    72 NAA=    36 NBB=    28 NumPrc=  4.
 DD1Dir:  Pass   1 NRAB=    52 NRAA=     0 NRBB=     0 NR=   104.
 DD1Dir:  Pass   2 NRAB=    20 NRAA=    36 NRBB=    28 NR=   104.
 Norm of the A-vectors is  1.1146398D-05 conv= 1.00D-05.
 RLE energy=       -0.5590243647
 DE(Corr)= -0.55902438     E(CORR)=     -152.25211848     Delta= 1.33D-08
 NORM(A)=   0.11022707D+01
 Iteration Nr.  21
 **********************
 DD1Dir will call FoFJK   2 times, MxPair=       104
 NAB=    72 NAA=    36 NBB=    28 NumPrc=  4.
 DD1Dir:  Pass   1 NRAB=    52 NRAA=     0 NRBB=     0 NR=   104.
 DD1Dir:  Pass   2 NRAB=    20 NRAA=    36 NRBB=    28 NR=   104.
 Norm of the A-vectors is  5.9117195D-06 conv= 1.00D-05.
 RLE energy=       -0.5590244124
 DE(Corr)= -0.55902441     E(CORR)=     -152.25211850     Delta=-2.44D-08
 NORM(A)=   0.11022710D+01
 CI/CC converged in   21 iterations to DelEn=-2.44D-08 Conv= 1.00D-07 ErrA1= 5.91D-06 Conv= 1.00D-05
 Dominant configurations:
 ***********************
 Spin Case        I    J    A    B          Value
    AA           12        13           -0.100214D+00
 Largest amplitude= 1.00D-01
 Time for triples=      631.94 seconds.
 T4(CCSD)= -0.28614259D-01
 T5(CCSD)=  0.12948278D-02
 CCSD(T)= -0.15227943793D+03

 S**2, projected HF & approx projected MPn energies after annihilation of
 unwanted spin states (see manual for definitions):

 spins       (S**2,0) (S**2,1)    PUHF        PMP2        PMP3        PMP4
 annihilated
 s+1         0.75000  0.75000 -151.693169 -152.244366 -152.247378
 s+1,s+2     0.75000  0.75000 -151.693169 -152.244366 -152.247378
 s+1 to s+3  0.75000  0.75000 -151.693169 -152.244366 -152.247378
 s+1 to s+4  0.75000  0.75000 -151.693169 -152.244366 -152.247378
 s+1 to s+5  0.75000  0.75000 -151.693169
 s+1 to s+6  0.75000  0.75000 -151.693169

 Discarding MO integrals.
 Leave Link  913 at Fri Mar  8 10:10:20 2019, MaxMem=    33554432 cpu:      3848.3
 (Enter /home/proyectos/fulerenos/M3C-v2.0/M3C-deps_CCC/g09-AM64L-G09RevC.01/l601.exe)
 Copying SCF densities to generalized density rwf, IOpCl= 1 IROHF=0.

 **********************************************************************

            Population analysis using the SCF density.

 **********************************************************************

 Orbital symmetries:
 Alpha Orbitals:
       Occupied  (A) (A) (A) (A) (A) (A) (A) (A) (A) (A) (A) (A)
       Virtual   (A) (A) (A) (A) (A) (A) (A) (A) (A) (A) (A) (A)
                 (A) (A) (A) (A) (A) (A) (A) (A) (A) (A) (A) (A)
                 (A) (A) (A) (A) (A) (A) (A) (A) (A) (A) (A) (A)
                 (A) (A) (A) (A) (A) (A) (A) (A) (A) (A) (A) (A)
                 (A) (A) (A) (A) (A) (A) (A) (A) (A) (A) (A) (A)
                 (A) (A) (A) (A) (A) (A) (A) (A) (A) (A) (A) (A)
                 (A) (A) (A) (A) (A) (A) (A) (A) (A) (A) (A) (A)
                 (A) (A) (A) (A) (A) (A) (A) (A) (A) (A) (A) (A)
                 (A) (A) (A) (A) (A) (A) (A) (A) (A) (A) (A) (A)
                 (A) (A) (A) (A) (A) (A) (A) (A) (A) (A) (A) (A)
                 (A) (A) (A) (A) (A)
 Beta  Orbitals:
       Occupied  (A) (A) (A) (A) (A) (A) (A) (A) (A) (A) (A)
       Virtual   (A) (A) (A) (A) (A) (A) (A) (A) (A) (A) (A) (A)
                 (A) (A) (A) (A) (A) (A) (A) (A) (A) (A) (A) (A)
                 (A) (A) (A) (A) (A) (A) (A) (A) (A) (A) (A) (A)
                 (A) (A) (A) (A) (A) (A) (A) (A) (A) (A) (A) (A)
                 (A) (A) (A) (A) (A) (A) (A) (A) (A) (A) (A) (A)
                 (A) (A) (A) (A) (A) (A) (A) (A) (A) (A) (A) (A)
                 (A) (A) (A) (A) (A) (A) (A) (A) (A) (A) (A) (A)
                 (A) (A) (A) (A) (A) (A) (A) (A) (A) (A) (A) (A)
                 (A) (A) (A) (A) (A) (A) (A) (A) (A) (A) (A) (A)
                 (A) (A) (A) (A) (A) (A) (A) (A) (A) (A) (A) (A)
                 (A) (A) (A) (A) (A) (A)
 The electronic state is 2-A.
 Alpha  occ. eigenvalues --  -20.47291 -11.16319 -11.07813  -1.28880  -0.88171
 Alpha  occ. eigenvalues --   -0.66225  -0.57008  -0.50489  -0.46413  -0.25125
 Alpha  occ. eigenvalues --   -0.23288   0.02569
 Alpha virt. eigenvalues --    0.12740   0.21107   0.23142   0.23341   0.25174
 Alpha virt. eigenvalues --    0.25449   0.26793   0.29643   0.31917   0.35931
 Alpha virt. eigenvalues --    0.39878   0.41986   0.45255   0.45741   0.46907
 Alpha virt. eigenvalues --    0.47696   0.51027   0.56633   0.59479   0.60512
 Alpha virt. eigenvalues --    0.64922   0.71814   0.72740   0.73218   0.74638
 Alpha virt. eigenvalues --    0.79468   0.81292   0.83067   0.87306   0.92690
 Alpha virt. eigenvalues --    0.96916   0.98478   1.06673   1.09201   1.10234
 Alpha virt. eigenvalues --    1.12032   1.17221   1.24708   1.31239   1.34131
 Alpha virt. eigenvalues --    1.43951   1.47819   1.49685   1.50314   1.50615
 Alpha virt. eigenvalues --    1.52651   1.61639   1.72778   1.76646   1.84185
 Alpha virt. eigenvalues --    1.85963   1.86275   1.87474   1.93834   2.05748
 Alpha virt. eigenvalues --    2.06314   2.15759   2.19606   2.23669   2.52928
 Alpha virt. eigenvalues --    2.83860   2.84359   2.92633   3.05336   3.09014
 Alpha virt. eigenvalues --    3.13840   3.19272   3.20334   3.24953   3.26977
 Alpha virt. eigenvalues --    3.29302   3.41941   3.44384   3.50542   3.50943
 Alpha virt. eigenvalues --    3.57499   3.65939   3.70870   3.73847   3.74682
 Alpha virt. eigenvalues --    3.85948   4.10905   4.13656   4.20801   4.29482
 Alpha virt. eigenvalues --    4.30088   4.51891   4.56804   4.58920   4.85897
 Alpha virt. eigenvalues --    4.89247   4.95118   5.22059   5.60402   5.72667
 Alpha virt. eigenvalues --    5.79582   5.85736   5.88913   6.06494   6.07216
 Alpha virt. eigenvalues --    6.14012   6.19210   6.93934   7.27875   7.31354
 Alpha virt. eigenvalues --    7.49200   7.54052   7.56095   7.68102   7.69002
 Alpha virt. eigenvalues --    7.77900   7.86686   7.91843   8.11458   8.15311
 Alpha virt. eigenvalues --    9.06087   9.16071  15.15977  15.29149  15.47194
 Alpha virt. eigenvalues --   15.72376  16.03844  25.39519  28.31766  52.10103
  Beta  occ. eigenvalues --  -20.47053 -11.16269 -11.07833  -1.28260  -0.88032
  Beta  occ. eigenvalues --   -0.65733  -0.56964  -0.50242  -0.46168  -0.25110
  Beta  occ. eigenvalues --   -0.23286
  Beta virt. eigenvalues --    0.12945   0.20881   0.22196   0.23416   0.24776
  Beta virt. eigenvalues --    0.26455   0.26958   0.27217   0.31528   0.32556
  Beta virt. eigenvalues --    0.37787   0.40130   0.43474   0.45951   0.46290
  Beta virt. eigenvalues --    0.47916   0.48813   0.51908   0.56884   0.59758
  Beta virt. eigenvalues --    0.60723   0.65341   0.71960   0.72985   0.73270
  Beta virt. eigenvalues --    0.75450   0.80032   0.81553   0.83685   0.87742
  Beta virt. eigenvalues --    0.92846   0.97182   0.98586   1.06873   1.09601
  Beta virt. eigenvalues --    1.10462   1.12234   1.17302   1.25030   1.31272
  Beta virt. eigenvalues --    1.34305   1.44109   1.48080   1.50151   1.50456
  Beta virt. eigenvalues --    1.50788   1.53014   1.62054   1.73140   1.76712
  Beta virt. eigenvalues --    1.84348   1.86008   1.86691   1.87526   1.94152
  Beta virt. eigenvalues --    2.05828   2.06328   2.15832   2.19623   2.23717
  Beta virt. eigenvalues --    2.53075   2.83869   2.84428   2.92674   3.05404
  Beta virt. eigenvalues --    3.09029   3.13894   3.19284   3.20434   3.24970
  Beta virt. eigenvalues --    3.26997   3.29303   3.41949   3.44437   3.50597
  Beta virt. eigenvalues --    3.50944   3.57564   3.66090   3.70923   3.73983
  Beta virt. eigenvalues --    3.74818   3.86174   4.10945   4.13775   4.20902
  Beta virt. eigenvalues --    4.29570   4.30162   4.52038   4.56868   4.58987
  Beta virt. eigenvalues --    4.85924   4.89290   4.95213   5.22265   5.60477
  Beta virt. eigenvalues --    5.72725   5.79677   5.85826   5.88992   6.06593
  Beta virt. eigenvalues --    6.07293   6.14114   6.19362   6.93958   7.27924
  Beta virt. eigenvalues --    7.31456   7.49340   7.54098   7.56129   7.68062
  Beta virt. eigenvalues --    7.68980   7.77996   7.86694   7.91841   8.11467
  Beta virt. eigenvalues --    8.15348   9.06142   9.16085  15.16158  15.29314
  Beta virt. eigenvalues --   15.47300  15.72535  16.03981  25.39538  28.31780
  Beta virt. eigenvalues --   52.10318
          Condensed to atoms (all electrons):
               1          2          3          4          5
     1  C   18.671513  -4.690360  -4.451543  -2.945062  -1.104037
     2  C   -4.690360  11.934247   1.078766  -3.471418   0.087678
     3  H   -4.451543   1.078766   2.816571   1.324208   0.327069
     4  H   -2.945062  -3.471418   1.324208   7.128422   0.717889
     5  O   -1.104037   0.087678   0.327069   0.717889   8.702865
          Atomic-Atomic Spin Densities.
               1          2          3          4          5
     1  C   11.752138  -3.404510  -4.873392  -2.957558  -1.067881
     2  C   -3.404510   4.580900   1.154951  -3.399655   0.071828
     3  H   -4.873392   1.154951   2.455265   1.323542   0.330642
     4  H   -2.957558  -3.399655   1.323542   6.743935   0.405557
     5  O   -1.067881   0.071828   0.330642   0.405557   0.300713
 Mulliken charges and spin densities:
               1          2
     1  C    0.519489  -0.551202
     2  C    1.061086  -0.996487
     3  H   -0.095071   0.391008
     4  H   -1.754040   2.115821
     5  O   -0.731465   0.040859
 Sum of Mulliken charges =  -1.00000   1.00000
 Mulliken charges and spin densities with hydrogens summed into heavy atoms:
               1          2
     1  C    0.424418  -0.160194
     2  C    1.061086  -0.996487
     5  O   -2.485505   2.156680
 Electronic spatial extent (au):  <R**2>=            202.1080
 Charge=             -1.0000 electrons
 Dipole moment (field-independent basis, Debye):
    X=             -8.3636    Y=             -5.5921    Z=              0.0001  Tot=             10.0609
 Quadrupole moment (field-independent basis, Debye-Ang):
   XX=            -52.3009   YY=            -40.5764   ZZ=            -31.8478
   XY=            -12.4963   XZ=             -0.0004   YZ=              0.0000
 Traceless Quadrupole moment (field-independent basis, Debye-Ang):
   XX=            -10.7259   YY=              0.9986   ZZ=              9.7272
   XY=            -12.4963   XZ=             -0.0004   YZ=              0.0000
 Octapole moment (field-independent basis, Debye-Ang**2):
  XXX=           -114.6618  YYY=            -62.8662  ZZZ=             -0.0008  XYY=            -35.7360
  XXY=            -46.5191  XXZ=              0.0002  XZZ=            -18.4228  YZZ=            -17.4053
  YYZ=             -0.0002  XYZ=             -0.0001
 Hexadecapole moment (field-independent basis, Debye-Ang**3):
 XXXX=           -724.5221 YYYY=           -261.4397 ZZZZ=           -115.9741 XXXY=           -157.4631
 XXXZ=             -0.0014 YYYX=           -118.2717 YYYZ=              0.0002 ZZZX=             -0.0008
 ZZZY=              0.0001 XXYY=           -182.3252 XXZZ=           -126.2031 YYZZ=            -61.1886
 XXYZ=              0.0000 YYXZ=             -0.0003 ZZXY=            -33.2022
 N-N= 5.821178198776D+01 E-N=-4.762172094268D+02  KE= 1.515014787504D+02
 Leave Link  601 at Fri Mar  8 10:10:20 2019, MaxMem=    33554432 cpu:         0.1
 (Enter /home/proyectos/fulerenos/M3C-v2.0/M3C-deps_CCC/g09-AM64L-G09RevC.01/l9999.exe)
 1\1\GINC-DUBNIO\SP\UCCSD(T)-FC\6-311++G(3df,2p)\C2H2O1(1-,2)\ROOT\08-M
 ar-2019\0\\#p ccsd(t,maxcyc=200)/6-311++G(3df,2p)\\ccsd(t) iener\\-1,2
 \C,0,1.268379,-0.123481,-0.279064\C,0,0.085859,-0.012899,-0.088541\H,0
 ,2.309368,-0.236551,-0.440452\H,0,-1.555463,0.964943,-0.166231\O,0,-1.
 191644,0.083021,0.127194\\Version=EM64L-G09RevE.01\State=2-A\HF=-151.6
 930941\MP2=-152.2443184\MP3=-152.2473488\MP4D=-152.2597985\MP4DQ=-152.
 2453599\PUHF=-151.6931694\PMP2-0=-152.2443655\PMP3-0=-152.2473777\MP4S
 DQ=-152.2525981\CCSD=-152.2521185\CCSD(T)=-152.2794379\S2=0.750457\S2-
 1=0.750115\S2A=0.75\RMSD=4.427e-09\PG=C01 [X(C2H2O1)]\\@


 IT WAS A GAME, A VERY INTERESTING GAME ONE COULD
 PLAY.  WHENEVER ONE SOLVED ONE OF THE LITTLE PROBLEMS,
 ONE COULD WRITE A PAPER ABOUT IT.  IT WAS VERY EASY IN
 THOSE DAYS FOR ANY SECOND-RATE PHYSICIST TO DO
 FIRST-RATE WORK.  THERE HAS NOT BEEN SUCH A GLORIOUS
 TIME SINCE.  IT IS VERY DIFFICULT NOW FOR A FIRST-RATE
 PHYSICIST TO DO SECOND-RATE WORK.
     P.A.M. DIRAC, ON THE EARLY DAYS OF QUANTUM MECHANICS
                   DIRECTIONS IN PHYSICS, 1978, P. 7
 Job cpu time:       0 days  1 hours  9 minutes 52.1 seconds.
 File lengths (MBytes):  RWF=    980 Int=      0 D2E=      0 Chk=      3 Scr=      1
 Normal termination of Gaussian 09 at Fri Mar  8 10:10:20 2019.
