 Entering Gaussian System, Link 0=/home/proyectos/fulerenos/M3C-v2.0/M3C-deps_CCC/g09-AM64L-G09RevC.01/g09
 Initial command:
 /home/proyectos/fulerenos/M3C-v2.0/M3C-deps_CCC/g09-AM64L-G09RevC.01/l1.exe "/scratch/naguirre/gaussian/Gau-7160.inp" -scrdir="/scratch/naguirre/gaussian/"
 Entering Link 1 = /home/proyectos/fulerenos/M3C-v2.0/M3C-deps_CCC/g09-AM64L-G09RevC.01/l1.exe PID=      7162.
  
 Copyright (c) 1988,1990,1992,1993,1995,1998,2003,2009,2015,
            Gaussian, Inc.  All Rights Reserved.
  
 This is part of the Gaussian(R) 09 program.  It is based on
 the Gaussian(R) 03 system (copyright 2003, Gaussian, Inc.),
 the Gaussian(R) 98 system (copyright 1998, Gaussian, Inc.),
 the Gaussian(R) 94 system (copyright 1995, Gaussian, Inc.),
 the Gaussian 92(TM) system (copyright 1992, Gaussian, Inc.),
 the Gaussian 90(TM) system (copyright 1990, Gaussian, Inc.),
 the Gaussian 88(TM) system (copyright 1988, Gaussian, Inc.),
 the Gaussian 86(TM) system (copyright 1986, Carnegie Mellon
 University), and the Gaussian 82(TM) system (copyright 1983,
 Carnegie Mellon University). Gaussian is a federally registered
 trademark of Gaussian, Inc.
  
 This software contains proprietary and confidential information,
 including trade secrets, belonging to Gaussian, Inc.
  
 This software is provided under written license and may be
 used, copied, transmitted, or stored only in accord with that
 written license.
  
 The following legend is applicable only to US Government
 contracts under FAR:
  
                    RESTRICTED RIGHTS LEGEND
  
 Use, reproduction and disclosure by the US Government is
 subject to restrictions as set forth in subparagraphs (a)
 and (c) of the Commercial Computer Software - Restricted
 Rights clause in FAR 52.227-19.
  
 Gaussian, Inc.
 340 Quinnipiac St., Bldg. 40, Wallingford CT 06492
  
  
 ---------------------------------------------------------------
 Warning -- This program may not be used in any manner that
 competes with the business of Gaussian, Inc. or will provide
 assistance to any competitor of Gaussian, Inc.  The licensee
 of this program is prohibited from giving any competitor of
 Gaussian, Inc. access to this program.  By using this program,
 the user acknowledges that Gaussian, Inc. is engaged in the
 business of creating and licensing software in the field of
 computational chemistry and represents and warrants to the
 licensee that it is not a competitor of Gaussian, Inc. and that
 it will not use this program in any manner prohibited above.
 ---------------------------------------------------------------
  

 Cite this work as:
 Gaussian 09, Revision E.01,
 M. J. Frisch, G. W. Trucks, H. B. Schlegel, G. E. Scuseria, 
 M. A. Robb, J. R. Cheeseman, G. Scalmani, V. Barone, B. Mennucci, 
 G. A. Petersson, H. Nakatsuji, M. Caricato, X. Li, H. P. Hratchian, 
 A. F. Izmaylov, J. Bloino, G. Zheng, J. L. Sonnenberg, M. Hada, 
 M. Ehara, K. Toyota, R. Fukuda, J. Hasegawa, M. Ishida, T. Nakajima, 
 Y. Honda, O. Kitao, H. Nakai, T. Vreven, J. A. Montgomery, Jr., 
 J. E. Peralta, F. Ogliaro, M. Bearpark, J. J. Heyd, E. Brothers, 
 K. N. Kudin, V. N. Staroverov, T. Keith, R. Kobayashi, J. Normand, 
 K. Raghavachari, A. Rendell, J. C. Burant, S. S. Iyengar, J. Tomasi, 
 M. Cossi, N. Rega, J. M. Millam, M. Klene, J. E. Knox, J. B. Cross, 
 V. Bakken, C. Adamo, J. Jaramillo, R. Gomperts, R. E. Stratmann, 
 O. Yazyev, A. J. Austin, R. Cammi, C. Pomelli, J. W. Ochterski, 
 R. L. Martin, K. Morokuma, V. G. Zakrzewski, G. A. Voth, 
 P. Salvador, J. J. Dannenberg, S. Dapprich, A. D. Daniels, 
 O. Farkas, J. B. Foresman, J. V. Ortiz, J. Cioslowski, 
 and D. J. Fox, Gaussian, Inc., Wallingford CT, 2013.
 
 ******************************************
 Gaussian 09:  EM64L-G09RevE.01 30-Nov-2015
                11-Mar-2019 
 ******************************************
 %NProcShared=4
 Will use up to    4 processors via shared memory.
 --------------------------------------
 #p ccsd(t,maxcyc=200)/6-311++G(3df,2p)
 --------------------------------------
 1/38=1/1;
 2/12=2,17=6,18=5,40=1/2;
 3/5=4,6=6,7=1216,11=9,16=1,25=1,30=1/1,2,3;
 4//1;
 5/5=2,38=5/2;
 8/6=4,9=120000,10=2/1,4;
 9/5=7,6=200,14=2/13;
 6/7=2,8=2,9=2,10=2/1;
 99/5=1,9=1/99;
 Leave Link    1 at Mon Mar 11 23:24:37 2019, MaxMem=           0 cpu:         0.1
 (Enter /home/proyectos/fulerenos/M3C-v2.0/M3C-deps_CCC/g09-AM64L-G09RevC.01/l101.exe)
 -------------
 ccsd(t) iener
 -------------
 Symbolic Z-matrix:
 Charge = -1 Multiplicity = 3
 C                     0.        0.        0. 
 H                     0.        1.08367   0. 
 H                     0.93848  -0.54183   0. 
 H                    -0.93848  -0.54183   0. 
 
 NAtoms=      4 NQM=        4 NQMF=       0 NMMI=      0 NMMIF=      0
                NMic=       0 NMicF=      0.
                    Isotopes and Nuclear Properties:
 (Nuclear quadrupole moments (NQMom) in fm**2, nuclear magnetic moments (NMagM)
  in nuclear magnetons)

  Atom         1           2           3           4
 IAtWgt=          12           1           1           1
 AtmWgt=  12.0000000   1.0078250   1.0078250   1.0078250
 NucSpn=           0           1           1           1
 AtZEff=   0.0000000   0.0000000   0.0000000   0.0000000
 NQMom=    0.0000000   0.0000000   0.0000000   0.0000000
 NMagM=    0.0000000   2.7928460   2.7928460   2.7928460
 AtZNuc=   6.0000000   1.0000000   1.0000000   1.0000000
 Leave Link  101 at Mon Mar 11 23:24:37 2019, MaxMem=    33554432 cpu:         0.2
 (Enter /home/proyectos/fulerenos/M3C-v2.0/M3C-deps_CCC/g09-AM64L-G09RevC.01/l202.exe)
                          Input orientation:                          
 ---------------------------------------------------------------------
 Center     Atomic      Atomic             Coordinates (Angstroms)
 Number     Number       Type             X           Y           Z
 ---------------------------------------------------------------------
      1          6           0        0.000000    0.000000    0.000000
      2          1           0        0.000000    1.083666    0.000000
      3          1           0        0.938482   -0.541833    0.000000
      4          1           0       -0.938482   -0.541833    0.000000
 ---------------------------------------------------------------------
                    Distance matrix (angstroms):
                    1          2          3          4
     1  C    0.000000
     2  H    1.083666   0.000000
     3  H    1.083666   1.876964   0.000000
     4  H    1.083666   1.876964   1.876964   0.000000
 Stoichiometry    CH3(1-,3)
 Framework group  D3H[O(C),3C2(H)]
 Deg. of freedom     1
 Full point group                 D3H     NOp  12
 Largest Abelian subgroup         C2V     NOp   4
 Largest concise Abelian subgroup C2      NOp   2
                         Standard orientation:                         
 ---------------------------------------------------------------------
 Center     Atomic      Atomic             Coordinates (Angstroms)
 Number     Number       Type             X           Y           Z
 ---------------------------------------------------------------------
      1          6           0        0.000000    0.000000    0.000000
      2          1           0        0.000000    1.083666    0.000000
      3          1           0       -0.938482   -0.541833    0.000000
      4          1           0        0.938482   -0.541833    0.000000
 ---------------------------------------------------------------------
 Rotational constants (GHZ):    284.6753732    284.6753732    142.3376866
 Leave Link  202 at Mon Mar 11 23:24:37 2019, MaxMem=    33554432 cpu:         0.0
 (Enter /home/proyectos/fulerenos/M3C-v2.0/M3C-deps_CCC/g09-AM64L-G09RevC.01/l301.exe)
 Standard basis: 6-311++G(3df,2p) (5D, 7F)
 Ernie: Thresh=  0.10000D-02 Tol=  0.10000D-05 Strict=F.
 There are    35 symmetry adapted cartesian basis functions of A1  symmetry.
 There are     6 symmetry adapted cartesian basis functions of A2  symmetry.
 There are    20 symmetry adapted cartesian basis functions of B1  symmetry.
 There are    14 symmetry adapted cartesian basis functions of B2  symmetry.
 There are    31 symmetry adapted basis functions of A1  symmetry.
 There are     6 symmetry adapted basis functions of A2  symmetry.
 There are    19 symmetry adapted basis functions of B1  symmetry.
 There are    13 symmetry adapted basis functions of B2  symmetry.
    69 basis functions,    94 primitive gaussians,    75 cartesian basis functions
     6 alpha electrons        4 beta electrons
       nuclear repulsion energy         9.6355810426 Hartrees.
 IExCor=    0 DFT=F Ex=HF Corr=None ExCW=0 ScaHFX=  1.000000
 ScaDFX=  1.000000  1.000000  1.000000  1.000000 ScalE2=  1.000000  1.000000
 IRadAn=      0 IRanWt=     -1 IRanGd=            0 ICorTp=0 IEmpDi=  4
 NAtoms=    4 NActive=    4 NUniq=    2 SFac= 4.00D+00 NAtFMM=   60 NAOKFM=F Big=F
 Integral buffers will be    131072 words long.
 Raffenetti 2 integral format.
 Two-electron integral symmetry is turned on.
 Leave Link  301 at Mon Mar 11 23:24:37 2019, MaxMem=    33554432 cpu:         0.2
 (Enter /home/proyectos/fulerenos/M3C-v2.0/M3C-deps_CCC/g09-AM64L-G09RevC.01/l302.exe)
 NPDir=0 NMtPBC=     1 NCelOv=     1 NCel=       1 NClECP=     1 NCelD=      1
         NCelK=      1 NCelE2=     1 NClLst=     1 CellRange=     0.0.
 One-electron integrals computed using PRISM.
 One-electron integral symmetry used in STVInt
 NBasis=    69 RedAO= T EigKep=  4.39D-03  NBF=    31     6    19    13
 NBsUse=    69 1.00D-06 EigRej= -1.00D+00 NBFU=    31     6    19    13
 Leave Link  302 at Mon Mar 11 23:24:38 2019, MaxMem=    33554432 cpu:         0.8
 (Enter /home/proyectos/fulerenos/M3C-v2.0/M3C-deps_CCC/g09-AM64L-G09RevC.01/l303.exe)
 DipDrv:  MaxL=1.
 Leave Link  303 at Mon Mar 11 23:24:38 2019, MaxMem=    33554432 cpu:         0.1
 (Enter /home/proyectos/fulerenos/M3C-v2.0/M3C-deps_CCC/g09-AM64L-G09RevC.01/l401.exe)
 ExpMin= 3.60D-02 ExpMax= 4.56D+03 ExpMxC= 6.82D+02 IAcc=3 IRadAn=         5 AccDes= 0.00D+00
 Harris functional with IExCor=  205 and IRadAn=       5 diagonalized for initial guess.
 HarFok:  IExCor=  205 AccDes= 0.00D+00 IRadAn=         5 IDoV= 1 UseB2=F ITyADJ=14
 ICtDFT=  3500011 ScaDFX=  1.000000  1.000000  1.000000  1.000000
 FoFCou: FMM=F IPFlag=           0 FMFlag=      100000 FMFlg1=           0
         NFxFlg=           0 DoJE=T BraDBF=F KetDBF=T FulRan=T
         wScrn=  0.000000 ICntrl=     500 IOpCl=  0 I1Cent=   200000004 NGrid=           0
         NMat0=    1 NMatS0=      1 NMatT0=    0 NMatD0=    1 NMtDS0=    0 NMtDT0=    0
 Petite list used in FoFCou.
 Harris En= -39.6956156873080    
 JPrj=0 DoOrth=F DoCkMO=F.
 Initial guess orbital symmetries:
 Alpha Orbitals:
       Occupied  (A1') (A1') (E') (E') (A2") (A1')
       Virtual   (E') (E') (A2") (E') (E') (A1') (A1') (E') (E')
                 (E") (E") (E') (E') (A1') (A2") (A1') (E') (E')
                 (A1') (E') (E') (A2') (E") (E") (A2") (E') (E')
                 (A1') (E') (E') (E") (E") (A1') (E') (E') (A1')
                 (A2") (E') (E') (A2') (E") (E") (A2") (E') (E')
                 (E') (E') (A1') (E') (E') (A2") (E") (E") (A2')
                 (A1') (E') (E') (E") (E") (A1') (E') (E') (A1')
 Beta  Orbitals:
       Occupied  (A1') (A1') (E') (E')
       Virtual   (A2") (A1') (E') (E') (A2") (E') (E') (A1') (A1')
                 (E') (E') (E") (E") (E') (E') (A1') (A2") (A1')
                 (E') (E') (A1') (E') (E') (A2') (E") (E") (A2")
                 (E') (E') (A1') (E') (E') (E") (E") (A1') (E')
                 (E') (A1') (A2") (E') (E') (A2') (E") (E") (A2")
                 (E') (E') (E') (E') (A1') (E') (E') (A2") (E")
                 (E") (A2') (A1') (E') (E') (E") (E") (A1') (E')
                 (E') (A1')
 The electronic state of the initial guess is 3-A2".
 Initial guess <Sx>= 0.0000 <Sy>= 0.0000 <Sz>= 1.0000 <S**2>= 2.0000 S= 1.0000
 Leave Link  401 at Mon Mar 11 23:24:38 2019, MaxMem=    33554432 cpu:         0.8
 (Enter /home/proyectos/fulerenos/M3C-v2.0/M3C-deps_CCC/g09-AM64L-G09RevC.01/l502.exe)
 UHF open shell SCF:
 Using DIIS extrapolation, IDIIS=  1040.
 Integral symmetry usage will be decided dynamically.
 Keep R1 and R2 ints in memory in symmetry-blocked form, NReq=4924553.
 IVT=       36807 IEndB=       36807 NGot=    33554432 MDV=    31971815
 LenX=    31971815 LenY=    31965749
 Requested convergence on RMS density matrix=1.00D-08 within 128 cycles.
 Requested convergence on MAX density matrix=1.00D-06.
 Requested convergence on             energy=1.00D-06.
 No special actions if energy rises.
 FoFCou: FMM=F IPFlag=           0 FMFlag=           0 FMFlg1=           0
         NFxFlg=           0 DoJE=F BraDBF=F KetDBF=F FulRan=T
         wScrn=  0.000000 ICntrl=     600 IOpCl=  0 I1Cent=           0 NGrid=           0
         NMat0=    1 NMatS0=   2415 NMatT0=    0 NMatD0=    1 NMtDS0=    0 NMtDT0=    0
 Petite list used in FoFCou.

 Cycle   1  Pass 1  IDiag  1:
 E= -39.3959922965976    
 DIIS: error= 4.69D-02 at cycle   1 NSaved=   1.
 NSaved= 1 IEnMin= 1 EnMin= -39.3959922965976     IErMin= 1 ErrMin= 4.69D-02
 ErrMax= 4.69D-02  0.00D+00 EMaxC= 1.00D-01 BMatC= 5.14D-01 BMatP= 5.14D-01
 IDIUse=3 WtCom= 5.31D-01 WtEn= 4.69D-01
 Coeff-Com:  0.100D+01
 Coeff-En:   0.100D+01
 Coeff:      0.100D+01
 Gap=     0.164 Goal=   None    Shift=    0.000
 Gap=     0.524 Goal=   None    Shift=    0.000
 GapD=    0.164 DampG=1.000 DampE=0.500 DampFc=0.5000 IDamp=-1.
 Damping current iteration by 5.00D-01
 RMSDP=1.10D-01 MaxDP=7.12D+00              OVMax= 3.21D-01

 Cycle   2  Pass 1  IDiag  1:
 E= -39.4632626301388     Delta-E=       -0.067270333541 Rises=F Damp=T
 DIIS: error= 2.15D-02 at cycle   2 NSaved=   2.
 NSaved= 2 IEnMin= 2 EnMin= -39.4632626301388     IErMin= 2 ErrMin= 2.15D-02
 ErrMax= 2.15D-02  0.00D+00 EMaxC= 1.00D-01 BMatC= 9.33D-02 BMatP= 5.14D-01
 IDIUse=3 WtCom= 7.85D-01 WtEn= 2.15D-01
 Coeff-Com: -0.569D+00 0.157D+01
 Coeff-En:   0.000D+00 0.100D+01
 Coeff:     -0.447D+00 0.145D+01
 Gap=     0.129 Goal=   None    Shift=    0.000
 Gap=     0.568 Goal=   None    Shift=    0.000
 RMSDP=7.44D-02 MaxDP=4.70D+00 DE=-6.73D-02 OVMax= 5.87D-02

 Cycle   3  Pass 1  IDiag  1:
 E= -39.5290401050461     Delta-E=       -0.065777474907 Rises=F Damp=F
 DIIS: error= 2.92D-03 at cycle   3 NSaved=   3.
 NSaved= 3 IEnMin= 3 EnMin= -39.5290401050461     IErMin= 3 ErrMin= 2.92D-03
 ErrMax= 2.92D-03  0.00D+00 EMaxC= 1.00D-01 BMatC= 1.54D-03 BMatP= 9.33D-02
 IDIUse=3 WtCom= 9.71D-01 WtEn= 2.92D-02
 Coeff-Com:  0.369D-01-0.135D+00 0.110D+01
 Coeff-En:   0.000D+00 0.000D+00 0.100D+01
 Coeff:      0.358D-01-0.131D+00 0.110D+01
 Gap=     0.128 Goal=   None    Shift=    0.000
 Gap=     0.585 Goal=   None    Shift=    0.000
 RMSDP=2.98D-02 MaxDP=1.85D+00 DE=-6.58D-02 OVMax= 5.99D-02

 Cycle   4  Pass 1  IDiag  1:
 E= -39.5310707607759     Delta-E=       -0.002030655730 Rises=F Damp=F
 DIIS: error= 1.22D-03 at cycle   4 NSaved=   4.
 NSaved= 4 IEnMin= 4 EnMin= -39.5310707607759     IErMin= 4 ErrMin= 1.22D-03
 ErrMax= 1.22D-03  0.00D+00 EMaxC= 1.00D-01 BMatC= 2.83D-04 BMatP= 1.54D-03
 IDIUse=3 WtCom= 9.88D-01 WtEn= 1.22D-02
 Coeff-Com: -0.268D-01 0.751D-01-0.675D+00 0.163D+01
 Coeff-En:   0.000D+00 0.000D+00 0.000D+00 0.100D+01
 Coeff:     -0.265D-01 0.742D-01-0.667D+00 0.162D+01
 Gap=     0.125 Goal=   None    Shift=    0.000
 Gap=     0.588 Goal=   None    Shift=    0.000
 RMSDP=2.16D-02 MaxDP=1.38D+00 DE=-2.03D-03 OVMax= 3.63D-02

 Cycle   5  Pass 1  IDiag  1:
 E= -39.5315410659708     Delta-E=       -0.000470305195 Rises=F Damp=F
 DIIS: error= 5.41D-04 at cycle   5 NSaved=   5.
 NSaved= 5 IEnMin= 5 EnMin= -39.5315410659708     IErMin= 5 ErrMin= 5.41D-04
 ErrMax= 5.41D-04  0.00D+00 EMaxC= 1.00D-01 BMatC= 3.34D-05 BMatP= 2.83D-04
 IDIUse=3 WtCom= 9.95D-01 WtEn= 5.41D-03
 Coeff-Com:  0.135D-01-0.367D-01 0.371D+00-0.110D+01 0.175D+01
 Coeff-En:   0.000D+00 0.000D+00 0.000D+00 0.000D+00 0.100D+01
 Coeff:      0.135D-01-0.365D-01 0.369D+00-0.110D+01 0.175D+01
 Gap=     0.125 Goal=   None    Shift=    0.000
 Gap=     0.588 Goal=   None    Shift=    0.000
 RMSDP=6.13D-03 MaxDP=4.27D-01 DE=-4.70D-04 OVMax= 7.05D-03

 Cycle   6  Pass 1  IDiag  1:
 E= -39.5315831401383     Delta-E=       -0.000042074167 Rises=F Damp=F
 DIIS: error= 2.24D-04 at cycle   6 NSaved=   6.
 NSaved= 6 IEnMin= 6 EnMin= -39.5315831401383     IErMin= 6 ErrMin= 2.24D-04
 ErrMax= 2.24D-04  0.00D+00 EMaxC= 1.00D-01 BMatC= 4.81D-06 BMatP= 3.34D-05
 IDIUse=3 WtCom= 9.98D-01 WtEn= 2.24D-03
 Coeff-Com: -0.791D-02 0.198D-01-0.185D+00 0.604D+00-0.135D+01 0.192D+01
 Coeff-En:   0.000D+00 0.000D+00 0.000D+00 0.000D+00 0.000D+00 0.100D+01
 Coeff:     -0.789D-02 0.198D-01-0.184D+00 0.603D+00-0.135D+01 0.192D+01
 Gap=     0.125 Goal=   None    Shift=    0.000
 Gap=     0.588 Goal=   None    Shift=    0.000
 RMSDP=5.79D-04 MaxDP=2.82D-02 DE=-4.21D-05 OVMax= 1.62D-03

 Cycle   7  Pass 1  IDiag  1:
 E= -39.5315889134620     Delta-E=       -0.000005773324 Rises=F Damp=F
 DIIS: error= 2.74D-05 at cycle   7 NSaved=   7.
 NSaved= 7 IEnMin= 7 EnMin= -39.5315889134620     IErMin= 7 ErrMin= 2.74D-05
 ErrMax= 2.74D-05  0.00D+00 EMaxC= 1.00D-01 BMatC= 1.76D-07 BMatP= 4.81D-06
 IDIUse=1 WtCom= 1.00D+00 WtEn= 0.00D+00
 Coeff-Com:  0.262D-02-0.636D-02 0.493D-01-0.174D+00 0.450D+00-0.806D+00
 Coeff-Com:  0.148D+01
 Coeff:      0.262D-02-0.636D-02 0.493D-01-0.174D+00 0.450D+00-0.806D+00
 Coeff:      0.148D+01
 Gap=     0.125 Goal=   None    Shift=    0.000
 Gap=     0.587 Goal=   None    Shift=    0.000
 RMSDP=5.88D-04 MaxDP=4.22D-02 DE=-5.77D-06 OVMax= 6.00D-04

 Cycle   8  Pass 1  IDiag  1:
 E= -39.5315891133783     Delta-E=       -0.000000199916 Rises=F Damp=F
 DIIS: error= 9.68D-06 at cycle   8 NSaved=   8.
 NSaved= 8 IEnMin= 8 EnMin= -39.5315891133783     IErMin= 8 ErrMin= 9.68D-06
 ErrMax= 9.68D-06  0.00D+00 EMaxC= 1.00D-01 BMatC= 7.23D-09 BMatP= 1.76D-07
 IDIUse=1 WtCom= 1.00D+00 WtEn= 0.00D+00
 Coeff-Com: -0.590D-03 0.146D-02-0.107D-01 0.412D-01-0.114D+00 0.230D+00
 Coeff-Com: -0.556D+00 0.141D+01
 Coeff:     -0.590D-03 0.146D-02-0.107D-01 0.412D-01-0.114D+00 0.230D+00
 Coeff:     -0.556D+00 0.141D+01
 Gap=     0.125 Goal=   None    Shift=    0.000
 Gap=     0.587 Goal=   None    Shift=    0.000
 RMSDP=2.38D-04 MaxDP=1.74D-02 DE=-2.00D-07 OVMax= 2.13D-04

 Cycle   9  Pass 1  IDiag  1:
 E= -39.5315891264766     Delta-E=       -0.000000013098 Rises=F Damp=F
 DIIS: error= 3.52D-06 at cycle   9 NSaved=   9.
 NSaved= 9 IEnMin= 9 EnMin= -39.5315891264766     IErMin= 9 ErrMin= 3.52D-06
 ErrMax= 3.52D-06  0.00D+00 EMaxC= 1.00D-01 BMatC= 5.76D-10 BMatP= 7.23D-09
 IDIUse=1 WtCom= 1.00D+00 WtEn= 0.00D+00
 Coeff-Com:  0.204D-03-0.511D-03 0.348D-02-0.137D-01 0.371D-01-0.762D-01
 Coeff-Com:  0.199D+00-0.676D+00 0.153D+01
 Coeff:      0.204D-03-0.511D-03 0.348D-02-0.137D-01 0.371D-01-0.762D-01
 Coeff:      0.199D+00-0.676D+00 0.153D+01
 Gap=     0.125 Goal=   None    Shift=    0.000
 Gap=     0.587 Goal=   None    Shift=    0.000
 RMSDP=4.95D-05 MaxDP=3.64D-03 DE=-1.31D-08 OVMax= 4.43D-05

 Cycle  10  Pass 1  IDiag  1:
 E= -39.5315891273183     Delta-E=       -0.000000000842 Rises=F Damp=F
 DIIS: error= 1.14D-06 at cycle  10 NSaved=  10.
 NSaved=10 IEnMin=10 EnMin= -39.5315891273183     IErMin=10 ErrMin= 1.14D-06
 ErrMax= 1.14D-06  0.00D+00 EMaxC= 1.00D-01 BMatC= 3.79D-11 BMatP= 5.76D-10
 IDIUse=1 WtCom= 1.00D+00 WtEn= 0.00D+00
 Coeff-Com: -0.204D-04 0.559D-04-0.292D-03 0.143D-02-0.364D-02 0.751D-02
 Coeff-Com: -0.235D-01 0.112D+00-0.515D+00 0.142D+01
 Coeff:     -0.204D-04 0.559D-04-0.292D-03 0.143D-02-0.364D-02 0.751D-02
 Coeff:     -0.235D-01 0.112D+00-0.515D+00 0.142D+01
 Gap=     0.125 Goal=   None    Shift=    0.000
 Gap=     0.587 Goal=   None    Shift=    0.000
 RMSDP=9.96D-06 MaxDP=7.25D-04 DE=-8.42D-10 OVMax= 9.49D-06

 Cycle  11  Pass 1  IDiag  1:
 E= -39.5315891273638     Delta-E=       -0.000000000045 Rises=F Damp=F
 DIIS: error= 1.55D-07 at cycle  11 NSaved=  11.
 NSaved=11 IEnMin=11 EnMin= -39.5315891273638     IErMin=11 ErrMin= 1.55D-07
 ErrMax= 1.55D-07  0.00D+00 EMaxC= 1.00D-01 BMatC= 1.58D-12 BMatP= 3.79D-11
 IDIUse=1 WtCom= 1.00D+00 WtEn= 0.00D+00
 Coeff-Com:  0.484D-05-0.124D-04 0.248D-04-0.212D-03 0.473D-03-0.894D-03
 Coeff-Com:  0.345D-02-0.174D-01 0.138D+00-0.561D+00 0.144D+01
 Coeff:      0.484D-05-0.124D-04 0.248D-04-0.212D-03 0.473D-03-0.894D-03
 Coeff:      0.345D-02-0.174D-01 0.138D+00-0.561D+00 0.144D+01
 Gap=     0.125 Goal=   None    Shift=    0.000
 Gap=     0.587 Goal=   None    Shift=    0.000
 RMSDP=2.79D-06 MaxDP=2.03D-04 DE=-4.55D-11 OVMax= 2.38D-06

 Cycle  12  Pass 1  IDiag  1:
 E= -39.5315891273658     Delta-E=       -0.000000000002 Rises=F Damp=F
 DIIS: error= 3.93D-08 at cycle  12 NSaved=  12.
 NSaved=12 IEnMin=12 EnMin= -39.5315891273658     IErMin=12 ErrMin= 3.93D-08
 ErrMax= 3.93D-08  0.00D+00 EMaxC= 1.00D-01 BMatC= 6.08D-14 BMatP= 1.58D-12
 IDIUse=1 WtCom= 1.00D+00 WtEn= 0.00D+00
 Coeff-Com: -0.528D-06 0.101D-05 0.105D-04-0.120D-04 0.570D-04-0.143D-03
 Coeff-Com:  0.271D-03-0.144D-02-0.152D-01 0.111D+00-0.494D+00 0.140D+01
 Coeff:     -0.528D-06 0.101D-05 0.105D-04-0.120D-04 0.570D-04-0.143D-03
 Coeff:      0.271D-03-0.144D-02-0.152D-01 0.111D+00-0.494D+00 0.140D+01
 Gap=     0.125 Goal=   None    Shift=    0.000
 Gap=     0.587 Goal=   None    Shift=    0.000
 RMSDP=5.17D-07 MaxDP=3.80D-05 DE=-2.00D-12 OVMax= 4.50D-07

 Cycle  13  Pass 1  IDiag  1:
 E= -39.5315891273657     Delta-E=        0.000000000000 Rises=F Damp=F
 DIIS: error= 2.57D-09 at cycle  13 NSaved=  13.
 NSaved=13 IEnMin=12 EnMin= -39.5315891273658     IErMin=13 ErrMin= 2.57D-09
 ErrMax= 2.57D-09  0.00D+00 EMaxC= 1.00D-01 BMatC= 7.05D-16 BMatP= 6.08D-14
 IDIUse=1 WtCom= 1.00D+00 WtEn= 0.00D+00
 Coeff-Com: -0.394D-08 0.124D-06-0.433D-05 0.115D-04-0.342D-04 0.752D-04
 Coeff-Com: -0.183D-03 0.964D-03 0.281D-03-0.146D-01 0.894D-01-0.325D+00
 Coeff-Com:  0.125D+01
 Coeff:     -0.394D-08 0.124D-06-0.433D-05 0.115D-04-0.342D-04 0.752D-04
 Coeff:     -0.183D-03 0.964D-03 0.281D-03-0.146D-01 0.894D-01-0.325D+00
 Coeff:      0.125D+01
 Gap=     0.125 Goal=   None    Shift=    0.000
 Gap=     0.587 Goal=   None    Shift=    0.000
 RMSDP=6.04D-08 MaxDP=4.42D-06 DE= 1.49D-13 OVMax= 5.63D-08

 Cycle  14  Pass 1  IDiag  1:
 E= -39.5315891273658     Delta-E=       -0.000000000000 Rises=F Damp=F
 DIIS: error= 2.43D-10 at cycle  14 NSaved=  14.
 NSaved=14 IEnMin=12 EnMin= -39.5315891273658     IErMin=14 ErrMin= 2.43D-10
 ErrMax= 2.43D-10  0.00D+00 EMaxC= 1.00D-01 BMatC= 7.88D-18 BMatP= 7.05D-16
 IDIUse=1 WtCom= 1.00D+00 WtEn= 0.00D+00
 Coeff-Com: -0.101D-09-0.176D-07 0.538D-06-0.146D-05 0.404D-05-0.855D-05
 Coeff-Com:  0.194D-04-0.122D-03 0.982D-04 0.108D-02-0.809D-02 0.320D-01
 Coeff-Com: -0.192D+00 0.117D+01
 Coeff:     -0.101D-09-0.176D-07 0.538D-06-0.146D-05 0.404D-05-0.855D-05
 Coeff:      0.194D-04-0.122D-03 0.982D-04 0.108D-02-0.809D-02 0.320D-01
 Coeff:     -0.192D+00 0.117D+01
 Gap=     0.125 Goal=   None    Shift=    0.000
 Gap=     0.587 Goal=   None    Shift=    0.000
 RMSDP=1.68D-09 MaxDP=8.78D-08 DE=-1.49D-13 OVMax= 3.68D-09

 SCF Done:  E(UHF) =  -39.5315891274     A.U. after   14 cycles
            NFock= 14  Conv=0.17D-08     -V/T= 1.9986
 <Sx>= 0.0000 <Sy>= 0.0000 <Sz>= 1.0000 <S**2>= 2.0114 S= 1.0038
 <L.S>= 0.000000000000E+00
 KE= 3.958866786782D+01 PE=-1.124702999655D+02 EE= 2.371446192772D+01
 Annihilation of the first spin contaminant:
 S**2 before annihilation     2.0114,   after     2.0000
 Leave Link  502 at Mon Mar 11 23:24:40 2019, MaxMem=    33554432 cpu:         6.2
 (Enter /home/proyectos/fulerenos/M3C-v2.0/M3C-deps_CCC/g09-AM64L-G09RevC.01/l801.exe)
 Windowed orbitals will be sorted by symmetry type.
 ExpMin= 3.60D-02 ExpMax= 4.56D+03 ExpMxC= 6.82D+02 IAcc=3 IRadAn=         5 AccDes= 0.00D+00
 HarFok:  IExCor=  205 AccDes= 0.00D+00 IRadAn=         5 IDoV=-2 UseB2=F ITyADJ=14
 ICtDFT= 12500011 ScaDFX=  1.000000  1.000000  1.000000  1.000000
 Largest valence mixing into a core orbital is  1.37D-04
 Largest core mixing into a valence orbital is  3.81D-05
 Largest valence mixing into a core orbital is  1.91D-04
 Largest core mixing into a valence orbital is  5.59D-05
 Range of M.O.s used for correlation:     2    69
 NBasis=    69 NAE=     6 NBE=     4 NFC=     1 NFV=     0
 NROrb=     68 NOA=     5 NOB=     3 NVA=    63 NVB=    65

 **** Warning!!: The largest alpha MO coefficient is  0.11524916D+02


 **** Warning!!: The largest beta MO coefficient is  0.11506765D+02

 Leave Link  801 at Mon Mar 11 23:24:40 2019, MaxMem=    33554432 cpu:         0.4
 (Enter /home/proyectos/fulerenos/M3C-v2.0/M3C-deps_CCC/g09-AM64L-G09RevC.01/l804.exe)
 Open-shell transformation, MDV=    33554432 ITran=4 ISComp=2.
 Semi-Direct transformation.
 ModeAB=           4 MOrb=             5 LenV=      33244353
 LASXX=       194359 LTotXX=      194359 LenRXX=      401163
 LTotAB=      206804 MaxLAS=      792880 LenRXY=           0
 NonZer=      595522 LenScr=     1571840 LnRSAI=      792880
 LnScr1=     1783296 LExtra=           0 Total=      4549179
 MaxDsk=          -1 SrtSym=           T ITran=            4
 DoSDTr:  NPSUse=  4
 JobTyp=1 Pass  1:  I=   1 to   5.
 (rs|ai) integrals will be sorted in core.
 Complete sort for first half transformation.
 First half transformation complete.
 Complete sort for second half transformation.
 Second half transformation complete.
 ModeAB=           4 MOrb=             3 LenV=      33244353
 LASXX=       121793 LTotXX=      121793 LenRXX=      232439
 LTotAB=      110646 MaxLAS=      475728 LenRXY=           0
 NonZer=      354232 LenScr=     1061888 LnRSAI=      475728
 LnScr1=     1426432 LExtra=           0 Total=      3196487
 MaxDsk=          -1 SrtSym=           T ITran=            4
 DoSDTr:  NPSUse=  4
 JobTyp=2 Pass  1:  I=   1 to   3.
 (rs|ai) integrals will be sorted in core.
 Complete sort for first half transformation.
 First half transformation complete.
 Complete sort for second half transformation.
 Second half transformation complete.
 Spin components of T(2) and E(2):
     alpha-alpha T2 =       0.1062572965D-01 E2=     -0.2588090920D-01
     alpha-beta  T2 =       0.4045455306D-01 E2=     -0.1275713182D+00
     beta-beta   T2 =       0.2503543660D-02 E2=     -0.7491796192D-02
 ANorm=    0.1026442315D+01
 E2 =    -0.1609440236D+00 EUMP2 =    -0.39692533150994D+02
 (S**2,0)=  0.20114D+01           (S**2,1)=  0.20027D+01
 E(PUHF)=      -0.39533956389D+02        E(PMP2)=      -0.39693999261D+02
 Leave Link  804 at Mon Mar 11 23:24:41 2019, MaxMem=    33554432 cpu:         3.3
 (Enter /home/proyectos/fulerenos/M3C-v2.0/M3C-deps_CCC/g09-AM64L-G09RevC.01/l913.exe)
 CIDS:  MDV=    33554432.
 Frozen-core window:  NFC=   1 NFV=   0.
 IFCWin=0 IBDFC=1 NFBD=     0     0 NFCmp=     0     0 NFFFC=     0     0
 Using original routines for 1st iteration, S=T.
 Using DD4UQ or CC4UQ for 2nd and later iterations.
 Keep R2 and R3 ints in memory in symmetry-blocked form, NReq=4865885.
 FoFCou: FMM=F IPFlag=           0 FMFlag=           0 FMFlg1=           0
         NFxFlg=           0 DoJE=F BraDBF=F KetDBF=F FulRan=T
         wScrn=  0.000000 ICntrl=     600 IOpCl=  0 I1Cent=           0 NGrid=           0
         NMat0=    1 NMatS0=   2415 NMatT0=    0 NMatD0=    1 NMtDS0=    0 NMtDT0=    0
 Petite list used in FoFCou.
 CCSD(T)
 =======
 Iterations= 200 Convergence= 0.100D-06
 Iteration Nr.   1
 **********************
 DD1Dir will call FoFMem   1 times, MxPair=        44
 NAB=    15 NAA=    10 NBB=     3.
 E(PMP3)=      -0.39712330937D+02
 MP4(R+Q)=  0.32899615D-02
 Maximum subspace dimension=  5
 Norm of the A-vectors is  1.7277321D-01 conv= 1.00D-05.
 RLE energy=       -0.1783039385
 E3=       -0.18984350D-01        EUMP3=      -0.39711517501D+02
 E4(DQ)=   -0.12667615D-02        UMP4(DQ)=   -0.39712784263D+02
 E4(SDQ)=  -0.22899810D-02        UMP4(SDQ)=  -0.39713807482D+02
 VARIATIONAL ENERGIES WITH THE FIRST-ORDER WAVEFUNCTION:
 DE(Corr)= -0.17661376     E(Corr)=     -39.708202885    
 NORM(A)=   0.10343297D+01
 Iteration Nr.   2
 **********************
 DD1Dir will call FoFMem   1 times, MxPair=        44
 NAB=    15 NAA=    10 NBB=     3.
 Norm of the A-vectors is  5.3120886D-02 conv= 1.00D-05.
 RLE energy=       -0.1823518496
 DE(Corr)= -0.18124549     E(CORR)=     -39.712834621     Delta=-4.63D-03
 NORM(A)=   0.10372017D+01
 Iteration Nr.   3
 **********************
 DD1Dir will call FoFMem   1 times, MxPair=        44
 NAB=    15 NAA=    10 NBB=     3.
 Norm of the A-vectors is  1.6492527D-02 conv= 1.00D-05.
 RLE energy=       -0.1827157181
 DE(Corr)= -0.18235188     E(CORR)=     -39.713941009     Delta=-1.11D-03
 NORM(A)=   0.10382481D+01
 Iteration Nr.   4
 **********************
 DD1Dir will call FoFMem   1 times, MxPair=        44
 NAB=    15 NAA=    10 NBB=     3.
 Norm of the A-vectors is  5.7891312D-03 conv= 1.00D-05.
 RLE energy=       -0.1828237164
 DE(Corr)= -0.18275351     E(CORR)=     -39.714342640     Delta=-4.02D-04
 NORM(A)=   0.10385733D+01
 Iteration Nr.   5
 **********************
 DD1Dir will call FoFMem   1 times, MxPair=        44
 NAB=    15 NAA=    10 NBB=     3.
 Norm of the A-vectors is  1.6826854D-03 conv= 1.00D-05.
 RLE energy=       -0.1828080001
 DE(Corr)= -0.18280812     E(CORR)=     -39.714397244     Delta=-5.46D-05
 NORM(A)=   0.10386073D+01
 Iteration Nr.   6
 **********************
 DD1Dir will call FoFMem   1 times, MxPair=        44
 NAB=    15 NAA=    10 NBB=     3.
 Norm of the A-vectors is  4.7012719D-04 conv= 1.00D-05.
 RLE energy=       -0.1828086927
 DE(Corr)= -0.18280967     E(CORR)=     -39.714398793     Delta=-1.55D-06
 NORM(A)=   0.10386088D+01
 Iteration Nr.   7
 **********************
 DD1Dir will call FoFMem   1 times, MxPair=        44
 NAB=    15 NAA=    10 NBB=     3.
 Norm of the A-vectors is  1.6020127D-04 conv= 1.00D-05.
 RLE energy=       -0.1828108560
 DE(Corr)= -0.18280993     E(CORR)=     -39.714399056     Delta=-2.63D-07
 NORM(A)=   0.10386088D+01
 Iteration Nr.   8
 **********************
 DD1Dir will call FoFMem   1 times, MxPair=        44
 NAB=    15 NAA=    10 NBB=     3.
 Norm of the A-vectors is  5.5860758D-05 conv= 1.00D-05.
 RLE energy=       -0.1828101167
 DE(Corr)= -0.18281016     E(CORR)=     -39.714399284     Delta=-2.28D-07
 NORM(A)=   0.10386077D+01
 Iteration Nr.   9
 **********************
 DD1Dir will call FoFMem   1 times, MxPair=        44
 NAB=    15 NAA=    10 NBB=     3.
 Norm of the A-vectors is  2.0550941D-05 conv= 1.00D-05.
 RLE energy=       -0.1828102524
 DE(Corr)= -0.18281020     E(CORR)=     -39.714399331     Delta=-4.68D-08
 NORM(A)=   0.10386073D+01
 Iteration Nr.  10
 **********************
 DD1Dir will call FoFMem   1 times, MxPair=        44
 NAB=    15 NAA=    10 NBB=     3.
 Norm of the A-vectors is  7.2556863D-06 conv= 1.00D-05.
 RLE energy=       -0.1828101510
 DE(Corr)= -0.18281017     E(CORR)=     -39.714399297     Delta= 3.39D-08
 NORM(A)=   0.10386071D+01
 CI/CC converged in   10 iterations to DelEn= 3.39D-08 Conv= 1.00D-07 ErrA1= 7.26D-06 Conv= 1.00D-05
 Largest amplitude= 3.51D-02
 Time for triples=       12.10 seconds.
 T4(CCSD)= -0.55493024D-02
 T5(CCSD)=  0.13732254D-03
 CCSD(T)= -0.39719811277D+02

 S**2, projected HF & approx projected MPn energies after annihilation of
 unwanted spin states (see manual for definitions):

 spins       (S**2,0) (S**2,1)    PUHF        PMP2        PMP3        PMP4
 annihilated
 s+1         1.99997  2.00001  -39.533956  -39.693999  -39.712331
 s+1,s+2     2.00000  2.00000  -39.533952  -39.693995  -39.712327
 s+1 to s+3  2.00000  2.00000  -39.533952  -39.693995  -39.712327

 Discarding MO integrals.
 Leave Link  913 at Mon Mar 11 23:24:57 2019, MaxMem=    33554432 cpu:        52.4
 (Enter /home/proyectos/fulerenos/M3C-v2.0/M3C-deps_CCC/g09-AM64L-G09RevC.01/l601.exe)
 Copying SCF densities to generalized density rwf, IOpCl= 1 IROHF=0.

 **********************************************************************

            Population analysis using the SCF density.

 **********************************************************************

 Orbital symmetries:
 Alpha Orbitals:
       Occupied  (A1') (A1') (E') (E') (A2") (A1')
       Virtual   (E') (E') (A2") (E') (E') (A1') (A1') (E') (E')
                 (E") (E") (E') (E') (A1') (A2") (A1') (E') (E')
                 (A1') (E') (E') (A2') (E") (E") (A2") (E') (E')
                 (A1') (E') (E') (E") (E") (A1') (E') (E') (A1')
                 (E') (E') (A2") (A2') (E") (E") (A2") (E') (E')
                 (E') (E') (A1') (E') (E') (A2") (E") (E") (A2')
                 (A1') (E') (E') (E") (E") (A1') (E') (E') (A1')
 Beta  Orbitals:
       Occupied  (A1') (A1') (E') (E')
       Virtual   (A1') (E') (E') (A2") (E') (E') (A1') (A2") (A1')
                 (E') (E') (E") (E") (E') (E') (A1') (A1') (A2")
                 (E') (E') (E') (E') (A1') (A2') (E") (E") (A2")
                 (E') (E') (A1') (E') (E') (E") (E") (A1') (E')
                 (E') (A1') (E') (E') (A2") (A2') (E") (E") (A2")
                 (E') (E') (E') (E') (A1') (E') (E') (A2") (E")
                 (E") (A2') (A1') (E') (E') (E") (E") (A1') (E')
                 (E') (A1')
 The electronic state is 3-A2".
 Alpha  occ. eigenvalues --  -11.07662  -0.79044  -0.42085  -0.42085  -0.22543
 Alpha  occ. eigenvalues --    0.04439
 Alpha virt. eigenvalues --    0.16956   0.16956   0.24403   0.27505   0.27505
 Alpha virt. eigenvalues --    0.30825   0.39481   0.43717   0.43717   0.57935
 Alpha virt. eigenvalues --    0.57935   0.61013   0.61013   0.65373   0.84732
 Alpha virt. eigenvalues --    0.89235   0.94443   0.94443   1.03738   1.03753
 Alpha virt. eigenvalues --    1.03753   1.17276   1.25643   1.25643   1.31363
 Alpha virt. eigenvalues --    1.42864   1.42864   1.72006   1.77695   1.77695
 Alpha virt. eigenvalues --    2.06331   2.06331   2.38640   2.45950   2.45950
 Alpha virt. eigenvalues --    2.89110   3.10460   3.10460   3.23290   3.39900
 Alpha virt. eigenvalues --    3.45852   3.45852   3.46922   3.58127   3.58127
 Alpha virt. eigenvalues --    4.13358   4.13358   4.37257   4.65762   4.65762
 Alpha virt. eigenvalues --    4.66895   4.71811   4.71811   5.32890   5.76715
 Alpha virt. eigenvalues --    6.13680   6.13680   7.66054   7.66054   7.79069
 Alpha virt. eigenvalues --    8.25230   8.25230  25.54215
  Beta  occ. eigenvalues --  -11.05202  -0.69732  -0.40678  -0.40678
  Beta virt. eigenvalues --    0.18070   0.20430   0.20430   0.21608   0.29487
  Beta virt. eigenvalues --    0.29487   0.32933   0.36282   0.42501   0.45326
  Beta virt. eigenvalues --    0.45326   0.61441   0.61441   0.61509   0.61509
  Beta virt. eigenvalues --    0.70269   0.90294   0.96042   0.96179   0.96179
  Beta virt. eigenvalues --    1.04825   1.04825   1.06108   1.17167   1.27170
  Beta virt. eigenvalues --    1.27170   1.33242   1.43050   1.43050   1.76739
  Beta virt. eigenvalues --    1.78456   1.78456   2.13253   2.13253   2.43784
  Beta virt. eigenvalues --    2.47143   2.47143   2.89339   3.11939   3.11939
  Beta virt. eigenvalues --    3.31833   3.40139   3.48708   3.48708   3.50849
  Beta virt. eigenvalues --    3.61267   3.61267   4.14068   4.14068   4.37634
  Beta virt. eigenvalues --    4.65330   4.65330   4.67431   4.72304   4.72304
  Beta virt. eigenvalues --    5.32901   5.77454   6.14045   6.14045   7.70703
  Beta virt. eigenvalues --    7.70703   7.85063   8.26451   8.26451  25.55835
          Condensed to atoms (all electrons):
               1          2          3          4
     1  C   18.683911  -4.854157  -4.854157  -4.854157
     2  H   -4.854157   2.957673   1.928002   1.928002
     3  H   -4.854157   1.928002   2.957673   1.928002
     4  H   -4.854157   1.928002   1.928002   2.957673
          Atomic-Atomic Spin Densities.
               1          2          3          4
     1  C   14.760441  -5.270477  -5.270477  -5.270477
     2  H   -5.270477   2.374628   1.956423   1.956423
     3  H   -5.270477   1.956423   2.374628   1.956423
     4  H   -5.270477   1.956423   1.956423   2.374628
 Mulliken charges and spin densities:
               1          2
     1  C    1.878560  -1.050991
     2  H   -0.959520   1.016997
     3  H   -0.959520   1.016997
     4  H   -0.959520   1.016997
 Sum of Mulliken charges =  -1.00000   2.00000
 Mulliken charges and spin densities with hydrogens summed into heavy atoms:
               1          2
     1  C   -1.000000   2.000000
 Electronic spatial extent (au):  <R**2>=             79.7686
 Charge=             -1.0000 electrons
 Dipole moment (field-independent basis, Debye):
    X=              0.0000    Y=              0.0000    Z=             -0.0000  Tot=              0.0000
 Quadrupole moment (field-independent basis, Debye-Ang):
   XX=            -33.0427   YY=            -33.0427   ZZ=            -24.2843
   XY=              0.0000   XZ=              0.0000   YZ=             -0.0000
 Traceless Quadrupole moment (field-independent basis, Debye-Ang):
   XX=             -2.9195   YY=             -2.9195   ZZ=              5.8389
   XY=              0.0000   XZ=              0.0000   YZ=             -0.0000
 Octapole moment (field-independent basis, Debye-Ang**2):
  XXX=              0.0000  YYY=             -3.7345  ZZZ=             -0.0000  XYY=              0.0000
  XXY=              3.7345  XXZ=             -0.0000  XZZ=              0.0000  YZZ=              0.0000
  YYZ=             -0.0000  XYZ=              0.0000
 Hexadecapole moment (field-independent basis, Debye-Ang**3):
 XXXX=           -306.6847 YYYY=           -306.6847 ZZZZ=           -141.5092 XXXY=              0.0000
 XXXZ=              0.0000 YYYX=              0.0000 YYYZ=             -0.0000 ZZZX=              0.0000
 ZZZY=             -0.0000 XXYY=           -102.2282 XXZZ=            -72.2532 YYZZ=            -72.2532
 XXYZ=              0.0000 YYXZ=              0.0000 ZZXY=              0.0000
 N-N= 9.635581042596D+00 E-N=-1.124702999648D+02  KE= 3.958866786782D+01
 Symmetry A1   KE= 3.659298492415D+01
 Symmetry A2   KE=-4.517983150047D-20
 Symmetry B1   KE= 1.925846128778D+00
 Symmetry B2   KE= 1.069836814897D+00
 Leave Link  601 at Mon Mar 11 23:24:57 2019, MaxMem=    33554432 cpu:         0.1
 (Enter /home/proyectos/fulerenos/M3C-v2.0/M3C-deps_CCC/g09-AM64L-G09RevC.01/l9999.exe)
 1\1\GINC-BELVIS28\SP\UCCSD(T)-FC\6-311++G(3df,2p)\C1H3(1-,3)\ROOT\11-M
 ar-2019\0\\#p ccsd(t,maxcyc=200)/6-311++G(3df,2p)\\ccsd(t) iener\\-1,3
 \C,0,0.,0.,0.\H,0,0.,1.083666,0.\H,0,0.938482,-0.541833,0.\H,0,-0.9384
 82,-0.541833,0.\\Version=EM64L-G09RevE.01\State=3-A2"\HF=-39.5315891\M
 P2=-39.6925332\MP3=-39.7115175\MP4D=-39.7160742\MP4DQ=-39.7127843\PUHF
 =-39.5339564\PMP2-0=-39.6939993\PMP3-0=-39.7123309\MP4SDQ=-39.7138075\
 CCSD=-39.7143993\CCSD(T)=-39.7198113\S2=2.011437\S2-1=2.002707\S2A=2.0
 00044\RMSD=1.680e-09\PG=D03H [O(C1),3C2(H1)]\\@


 Luck is a matter of preparation meeting opportunity.
                                    -- Oprah Winfrey
 Job cpu time:       0 days  0 hours  1 minutes  5.5 seconds.
 File lengths (MBytes):  RWF=     44 Int=      0 D2E=      0 Chk=      1 Scr=      1
 Normal termination of Gaussian 09 at Mon Mar 11 23:24:57 2019.
