 Entering Gaussian System, Link 0=/home/proyectos/fulerenos/M3C-v2.0/M3C-deps_CCC/g09-AM64L-G09RevC.01/g09
 Initial command:
 /home/proyectos/fulerenos/M3C-v2.0/M3C-deps_CCC/g09-AM64L-G09RevC.01/l1.exe "/scratch/naguirre/gaussian/Gau-42518.inp" -scrdir="/scratch/naguirre/gaussian/"
 Entering Link 1 = /home/proyectos/fulerenos/M3C-v2.0/M3C-deps_CCC/g09-AM64L-G09RevC.01/l1.exe PID=     42531.
  
 Copyright (c) 1988,1990,1992,1993,1995,1998,2003,2009,2015,
            Gaussian, Inc.  All Rights Reserved.
  
 This is part of the Gaussian(R) 09 program.  It is based on
 the Gaussian(R) 03 system (copyright 2003, Gaussian, Inc.),
 the Gaussian(R) 98 system (copyright 1998, Gaussian, Inc.),
 the Gaussian(R) 94 system (copyright 1995, Gaussian, Inc.),
 the Gaussian 92(TM) system (copyright 1992, Gaussian, Inc.),
 the Gaussian 90(TM) system (copyright 1990, Gaussian, Inc.),
 the Gaussian 88(TM) system (copyright 1988, Gaussian, Inc.),
 the Gaussian 86(TM) system (copyright 1986, Carnegie Mellon
 University), and the Gaussian 82(TM) system (copyright 1983,
 Carnegie Mellon University). Gaussian is a federally registered
 trademark of Gaussian, Inc.
  
 This software contains proprietary and confidential information,
 including trade secrets, belonging to Gaussian, Inc.
  
 This software is provided under written license and may be
 used, copied, transmitted, or stored only in accord with that
 written license.
  
 The following legend is applicable only to US Government
 contracts under FAR:
  
                    RESTRICTED RIGHTS LEGEND
  
 Use, reproduction and disclosure by the US Government is
 subject to restrictions as set forth in subparagraphs (a)
 and (c) of the Commercial Computer Software - Restricted
 Rights clause in FAR 52.227-19.
  
 Gaussian, Inc.
 340 Quinnipiac St., Bldg. 40, Wallingford CT 06492
  
  
 ---------------------------------------------------------------
 Warning -- This program may not be used in any manner that
 competes with the business of Gaussian, Inc. or will provide
 assistance to any competitor of Gaussian, Inc.  The licensee
 of this program is prohibited from giving any competitor of
 Gaussian, Inc. access to this program.  By using this program,
 the user acknowledges that Gaussian, Inc. is engaged in the
 business of creating and licensing software in the field of
 computational chemistry and represents and warrants to the
 licensee that it is not a competitor of Gaussian, Inc. and that
 it will not use this program in any manner prohibited above.
 ---------------------------------------------------------------
  

 Cite this work as:
 Gaussian 09, Revision E.01,
 M. J. Frisch, G. W. Trucks, H. B. Schlegel, G. E. Scuseria, 
 M. A. Robb, J. R. Cheeseman, G. Scalmani, V. Barone, B. Mennucci, 
 G. A. Petersson, H. Nakatsuji, M. Caricato, X. Li, H. P. Hratchian, 
 A. F. Izmaylov, J. Bloino, G. Zheng, J. L. Sonnenberg, M. Hada, 
 M. Ehara, K. Toyota, R. Fukuda, J. Hasegawa, M. Ishida, T. Nakajima, 
 Y. Honda, O. Kitao, H. Nakai, T. Vreven, J. A. Montgomery, Jr., 
 J. E. Peralta, F. Ogliaro, M. Bearpark, J. J. Heyd, E. Brothers, 
 K. N. Kudin, V. N. Staroverov, T. Keith, R. Kobayashi, J. Normand, 
 K. Raghavachari, A. Rendell, J. C. Burant, S. S. Iyengar, J. Tomasi, 
 M. Cossi, N. Rega, J. M. Millam, M. Klene, J. E. Knox, J. B. Cross, 
 V. Bakken, C. Adamo, J. Jaramillo, R. Gomperts, R. E. Stratmann, 
 O. Yazyev, A. J. Austin, R. Cammi, C. Pomelli, J. W. Ochterski, 
 R. L. Martin, K. Morokuma, V. G. Zakrzewski, G. A. Voth, 
 P. Salvador, J. J. Dannenberg, S. Dapprich, A. D. Daniels, 
 O. Farkas, J. B. Foresman, J. V. Ortiz, J. Cioslowski, 
 and D. J. Fox, Gaussian, Inc., Wallingford CT, 2013.
 
 ******************************************
 Gaussian 09:  EM64L-G09RevE.01 30-Nov-2015
                 8-Mar-2019 
 ******************************************
 %NProcShared=4
 Will use up to    4 processors via shared memory.
 --------------------------------------
 #p ccsd(t,maxcyc=200)/6-311++G(3df,2p)
 --------------------------------------
 1/38=1/1;
 2/12=2,17=6,18=5,40=1/2;
 3/5=4,6=6,7=1216,11=9,16=1,25=1,30=1/1,2,3;
 4//1;
 5/5=2,38=5/2;
 8/6=4,9=120000,10=2/1,4;
 9/5=7,6=200,14=2/13;
 6/7=2,8=2,9=2,10=2/1;
 99/5=1,9=1/99;
 Leave Link    1 at Fri Mar  8 22:01:17 2019, MaxMem=           0 cpu:         0.3
 (Enter /home/proyectos/fulerenos/M3C-v2.0/M3C-deps_CCC/g09-AM64L-G09RevC.01/l101.exe)
 -------------
 ccsd(t) iener
 -------------
 Symbolic Z-matrix:
 Charge = -1 Multiplicity = 4
 C                    -0.84552   0.46971  -0.0894 
 C                     0.6071    0.45513  -0.02643 
 C                    -1.69167  -0.17481  -0.9103 
 H                     2.08502  -0.12632   1.11237 
 H                     0.98299   0.05634  -0.9923 
 H                     1.00045   1.49226   0.02577 
 H                    -1.48734  -0.99989  -1.59767 
 O                     1.12181  -0.29801   1.06188 
 
 NAtoms=      8 NQM=        8 NQMF=       0 NMMI=      0 NMMIF=      0
                NMic=       0 NMicF=      0.
                    Isotopes and Nuclear Properties:
 (Nuclear quadrupole moments (NQMom) in fm**2, nuclear magnetic moments (NMagM)
  in nuclear magnetons)

  Atom         1           2           3           4           5           6           7           8
 IAtWgt=          12          12          12           1           1           1           1          16
 AtmWgt=  12.0000000  12.0000000  12.0000000   1.0078250   1.0078250   1.0078250   1.0078250  15.9949146
 NucSpn=           0           0           0           1           1           1           1           0
 AtZEff=   0.0000000   0.0000000   0.0000000   0.0000000   0.0000000   0.0000000   0.0000000   0.0000000
 NQMom=    0.0000000   0.0000000   0.0000000   0.0000000   0.0000000   0.0000000   0.0000000   0.0000000
 NMagM=    0.0000000   0.0000000   0.0000000   2.7928460   2.7928460   2.7928460   2.7928460   0.0000000
 AtZNuc=   6.0000000   6.0000000   6.0000000   1.0000000   1.0000000   1.0000000   1.0000000   8.0000000
 Leave Link  101 at Fri Mar  8 22:01:18 2019, MaxMem=    33554432 cpu:         0.5
 (Enter /home/proyectos/fulerenos/M3C-v2.0/M3C-deps_CCC/g09-AM64L-G09RevC.01/l202.exe)
                          Input orientation:                          
 ---------------------------------------------------------------------
 Center     Atomic      Atomic             Coordinates (Angstroms)
 Number     Number       Type             X           Y           Z
 ---------------------------------------------------------------------
      1          6           0       -0.845516    0.469709   -0.089403
      2          6           0        0.607097    0.455133   -0.026434
      3          6           0       -1.691671   -0.174812   -0.910301
      4          1           0        2.085022   -0.126321    1.112371
      5          1           0        0.982986    0.056342   -0.992298
      6          1           0        1.000446    1.492257    0.025774
      7          1           0       -1.487335   -0.999890   -1.597672
      8          8           0        1.121810   -0.298011    1.061877
 ---------------------------------------------------------------------
                    Distance matrix (angstroms):
                    1          2          3          4          5
     1  C    0.000000
     2  C    1.454050   0.000000
     3  C    1.343599   2.542122   0.000000
     4  H    3.222975   1.954284   4.284503   0.000000
     5  H    2.080748   1.110504   2.685879   2.382746   0.000000
     6  H    2.113397   1.110439   3.301946   2.230873   1.760292
     7  H    2.201483   2.995418   1.093154   4.568281   2.754013
     8  O    2.405247   1.420062   3.438072   0.979696   2.089132
                    6          7          8
     6  H    0.000000
     7  H    3.877554   0.000000
     8  O    2.072028   3.791236   0.000000
 Stoichiometry    C3H4O(1-,4)
 Framework group  C1[X(C3H4O)]
 Deg. of freedom    18
 Full point group                 C1      NOp   1
 Largest Abelian subgroup         C1      NOp   1
 Largest concise Abelian subgroup C1      NOp   1
                         Standard orientation:                         
 ---------------------------------------------------------------------
 Center     Atomic      Atomic             Coordinates (Angstroms)
 Number     Number       Type             X           Y           Z
 ---------------------------------------------------------------------
      1          6           0        0.777435    0.208210   -0.477683
      2          6           0       -0.494888    0.486361    0.168915
      3          6           0        1.936347   -0.243264    0.030600
      4          1           0       -2.341332   -0.148320    0.252898
      5          1           0       -0.306855    0.576063    1.259703
      6          1           0       -0.872404    1.484556   -0.137946
      7          1           0        2.131703   -0.679894    1.013543
      8          8           0       -1.490559   -0.492531   -0.089899
 ---------------------------------------------------------------------
 Rotational constants (GHZ):     30.2330200      4.6985893      4.4865557
 Leave Link  202 at Fri Mar  8 22:01:18 2019, MaxMem=    33554432 cpu:         0.1
 (Enter /home/proyectos/fulerenos/M3C-v2.0/M3C-deps_CCC/g09-AM64L-G09RevC.01/l301.exe)
 Standard basis: 6-311++G(3df,2p) (5D, 7F)
 Ernie: Thresh=  0.10000D-02 Tol=  0.10000D-05 Strict=F.
 There are   220 symmetry adapted cartesian basis functions of A   symmetry.
 There are   196 symmetry adapted basis functions of A   symmetry.
   196 basis functions,   280 primitive gaussians,   220 cartesian basis functions
    17 alpha electrons       14 beta electrons
       nuclear repulsion energy       100.9691036852 Hartrees.
 IExCor=    0 DFT=F Ex=HF Corr=None ExCW=0 ScaHFX=  1.000000
 ScaDFX=  1.000000  1.000000  1.000000  1.000000 ScalE2=  1.000000  1.000000
 IRadAn=      0 IRanWt=     -1 IRanGd=            0 ICorTp=0 IEmpDi=  4
 NAtoms=    8 NActive=    8 NUniq=    8 SFac= 1.00D+00 NAtFMM=   60 NAOKFM=F Big=F
 Integral buffers will be    131072 words long.
 Raffenetti 2 integral format.
 Two-electron integral symmetry is turned on.
 Leave Link  301 at Fri Mar  8 22:01:18 2019, MaxMem=    33554432 cpu:         0.6
 (Enter /home/proyectos/fulerenos/M3C-v2.0/M3C-deps_CCC/g09-AM64L-G09RevC.01/l302.exe)
 NPDir=0 NMtPBC=     1 NCelOv=     1 NCel=       1 NClECP=     1 NCelD=      1
         NCelK=      1 NCelE2=     1 NClLst=     1 CellRange=     0.0.
 One-electron integrals computed using PRISM.
 NBasis=   196 RedAO= T EigKep=  3.76D-05  NBF=   196
 NBsUse=   196 1.00D-06 EigRej= -1.00D+00 NBFU=   196
 Leave Link  302 at Fri Mar  8 22:01:19 2019, MaxMem=    33554432 cpu:         2.0
 (Enter /home/proyectos/fulerenos/M3C-v2.0/M3C-deps_CCC/g09-AM64L-G09RevC.01/l303.exe)
 DipDrv:  MaxL=1.
 Leave Link  303 at Fri Mar  8 22:01:20 2019, MaxMem=    33554432 cpu:         0.5
 (Enter /home/proyectos/fulerenos/M3C-v2.0/M3C-deps_CCC/g09-AM64L-G09RevC.01/l401.exe)
 ExpMin= 3.60D-02 ExpMax= 8.59D+03 ExpMxC= 1.30D+03 IAcc=3 IRadAn=         5 AccDes= 0.00D+00
 Harris functional with IExCor=  205 and IRadAn=       5 diagonalized for initial guess.
 HarFok:  IExCor=  205 AccDes= 0.00D+00 IRadAn=         5 IDoV= 1 UseB2=F ITyADJ=14
 ICtDFT=  3500011 ScaDFX=  1.000000  1.000000  1.000000  1.000000
 FoFCou: FMM=F IPFlag=           0 FMFlag=      100000 FMFlg1=           0
         NFxFlg=           0 DoJE=T BraDBF=F KetDBF=T FulRan=T
         wScrn=  0.000000 ICntrl=     500 IOpCl=  0 I1Cent=   200000004 NGrid=           0
         NMat0=    1 NMatS0=      1 NMatT0=    0 NMatD0=    1 NMtDS0=    0 NMtDT0=    0
 Petite list used in FoFCou.
 Harris En= -190.950858818359    
 JPrj=0 DoOrth=F DoCkMO=F.
 Initial guess <Sx>= 0.0000 <Sy>= 0.0000 <Sz>= 1.5000 <S**2>= 3.7500 S= 1.5000
 Leave Link  401 at Fri Mar  8 22:01:22 2019, MaxMem=    33554432 cpu:         6.6
 (Enter /home/proyectos/fulerenos/M3C-v2.0/M3C-deps_CCC/g09-AM64L-G09RevC.01/l502.exe)
 UHF open shell SCF:
 Using DIIS extrapolation, IDIIS=  1040.
 Integral symmetry usage will be decided dynamically.
 IVT=      166662 IEndB=      166662 NGot=    33554432 MDV=    33453031
 LenX=    33453031 LenY=    33404190
 Requested convergence on RMS density matrix=1.00D-08 within 128 cycles.
 Requested convergence on MAX density matrix=1.00D-06.
 Requested convergence on             energy=1.00D-06.
 No special actions if energy rises.
 Fock matrices will be formed incrementally for  20 cycles.

 Cycle   1  Pass 0  IDiag  1:
 FoFJK:  IHMeth= 1 ICntrl=       0 DoSepK=F KAlg= 0 I1Cent=   0 FoldK=F
 IRaf= 990000000 NMat=   1 IRICut=       1 DoRegI=T DoRafI=F ISym2E= 0.
 FoFCou: FMM=F IPFlag=           0 FMFlag=      100000 FMFlg1=           0
         NFxFlg=           0 DoJE=F BraDBF=F KetDBF=F FulRan=T
         wScrn=  0.000000 ICntrl=       0 IOpCl=  1 I1Cent=           0 NGrid=           0
         NMat0=    1 NMatS0=      1 NMatT0=    0 NMatD0=    1 NMtDS0=    0 NMtDT0=    0
 Symmetry not used in FoFCou.
 E= -190.223177357980    
 DIIS: error= 3.03D-02 at cycle   1 NSaved=   1.
 NSaved= 1 IEnMin= 1 EnMin= -190.223177357980     IErMin= 1 ErrMin= 3.03D-02
 ErrMax= 3.03D-02  0.00D+00 EMaxC= 1.00D-01 BMatC= 1.96D+00 BMatP= 1.96D+00
 IDIUse=3 WtCom= 6.97D-01 WtEn= 3.03D-01
 Coeff-Com:  0.100D+01
 Coeff-En:   0.100D+01
 Coeff:      0.100D+01
 Gap=     0.023 Goal=   None    Shift=    0.000
 Gap=     0.296 Goal=   None    Shift=    0.000
 GapD=    0.023 DampG=0.250 DampE=0.500 DampFc=0.2500 IDamp=-1.
 Damping current iteration by 2.50D-01
 RMSDP=5.10D-01 MaxDP=1.09D+02              OVMax= 9.12D-01

 Cycle   2  Pass 0  IDiag  1:
 RMSU=  1.27D-01    CP:  1.40D+00
 E= -190.337478378251     Delta-E=       -0.114301020271 Rises=F Damp=T
 DIIS: error= 2.37D-02 at cycle   2 NSaved=   2.
 NSaved= 2 IEnMin= 2 EnMin= -190.337478378251     IErMin= 2 ErrMin= 2.37D-02
 ErrMax= 2.37D-02  0.00D+00 EMaxC= 1.00D-01 BMatC= 8.84D-01 BMatP= 1.96D+00
 IDIUse=3 WtCom= 7.63D-01 WtEn= 2.37D-01
 Coeff-Com: -0.160D+01 0.260D+01
 Coeff-En:   0.000D+00 0.100D+01
 Coeff:     -0.122D+01 0.222D+01
 Gap=     0.098 Goal=   None    Shift=    0.000
 Gap=     0.294 Goal=   None    Shift=    0.000
 RMSDP=1.36D-01 MaxDP=2.87D+01 DE=-1.14D-01 OVMax= 4.13D-01

 Cycle   3  Pass 0  IDiag  1:
 RMSU=  3.09D-02    CP:  1.68D+00  2.04D+00
 E= -190.615631475731     Delta-E=       -0.278153097480 Rises=F Damp=F
 DIIS: error= 4.52D-03 at cycle   3 NSaved=   3.
 NSaved= 3 IEnMin= 3 EnMin= -190.615631475731     IErMin= 3 ErrMin= 4.52D-03
 ErrMax= 4.52D-03  0.00D+00 EMaxC= 1.00D-01 BMatC= 1.24D-02 BMatP= 8.84D-01
 IDIUse=3 WtCom= 9.55D-01 WtEn= 4.52D-02
 Coeff-Com: -0.127D-01-0.138D-01 0.103D+01
 Coeff-En:   0.000D+00 0.000D+00 0.100D+01
 Coeff:     -0.121D-01-0.131D-01 0.103D+01
 Gap=     0.137 Goal=   None    Shift=    0.000
 Gap=     0.340 Goal=   None    Shift=    0.000
 RMSDP=4.53D-02 MaxDP=9.35D+00 DE=-2.78D-01 OVMax= 1.49D-01

 Cycle   4  Pass 0  IDiag  1:
 RMSU=  1.35D-02    CP:  1.80D+00  2.37D+00  1.27D+00
 E= -190.630020033324     Delta-E=       -0.014388557593 Rises=F Damp=F
 DIIS: error= 2.44D-03 at cycle   4 NSaved=   4.
 NSaved= 4 IEnMin= 4 EnMin= -190.630020033324     IErMin= 4 ErrMin= 2.44D-03
 ErrMax= 2.44D-03  0.00D+00 EMaxC= 1.00D-01 BMatC= 5.36D-03 BMatP= 1.24D-02
 IDIUse=3 WtCom= 9.76D-01 WtEn= 2.44D-02
 Coeff-Com:  0.118D+00-0.169D+00 0.822D-01 0.968D+00
 Coeff-En:   0.000D+00 0.000D+00 0.000D+00 0.100D+01
 Coeff:      0.115D+00-0.164D+00 0.802D-01 0.969D+00
 Gap=     0.110 Goal=   None    Shift=    0.000
 Gap=     0.352 Goal=   None    Shift=    0.000
 RMSDP=4.47D-02 MaxDP=9.05D+00 DE=-1.44D-02 OVMax= 1.10D-01

 Cycle   5  Pass 0  IDiag  1:
 RMSU=  4.72D-03    CP:  1.94D+00  2.69D+00  1.52D+00  2.08D+00
 E= -190.636771444291     Delta-E=       -0.006751410967 Rises=F Damp=F
 DIIS: error= 1.70D-03 at cycle   5 NSaved=   5.
 NSaved= 5 IEnMin= 5 EnMin= -190.636771444291     IErMin= 5 ErrMin= 1.70D-03
 ErrMax= 1.70D-03  0.00D+00 EMaxC= 1.00D-01 BMatC= 2.37D-03 BMatP= 5.36D-03
 IDIUse=3 WtCom= 9.83D-01 WtEn= 1.70D-02
 Coeff-Com:  0.972D-01-0.116D+00-0.214D+00-0.889D-01 0.132D+01
 Coeff-En:   0.000D+00 0.000D+00 0.000D+00 0.000D+00 0.100D+01
 Coeff:      0.956D-01-0.114D+00-0.210D+00-0.874D-01 0.132D+01
 Gap=     0.106 Goal=   None    Shift=    0.000
 Gap=     0.369 Goal=   None    Shift=    0.000
 RMSDP=6.30D-02 MaxDP=1.25D+01 DE=-6.75D-03 OVMax= 1.39D-01

 Cycle   6  Pass 0  IDiag  1:
 RMSU=  2.04D-02    CP:  2.13D+00  3.00D+00  1.84D+00  3.00D+00  3.00D+00
 E= -190.642151595106     Delta-E=       -0.005380150815 Rises=F Damp=F
 DIIS: error= 1.01D-03 at cycle   6 NSaved=   6.
 NSaved= 6 IEnMin= 6 EnMin= -190.642151595106     IErMin= 6 ErrMin= 1.01D-03
 ErrMax= 1.01D-03  0.00D+00 EMaxC= 1.00D-01 BMatC= 6.79D-04 BMatP= 2.37D-03
 IDIUse=3 WtCom= 9.90D-01 WtEn= 1.01D-02
 Coeff-Com: -0.631D-02 0.504D-02 0.147D+00-0.227D+00-0.404D+00 0.148D+01
 Coeff-En:   0.000D+00 0.000D+00 0.000D+00 0.000D+00 0.000D+00 0.100D+01
 Coeff:     -0.625D-02 0.499D-02 0.146D+00-0.224D+00-0.400D+00 0.148D+01
 Gap=     0.106 Goal=   None    Shift=    0.000
 Gap=     0.376 Goal=   None    Shift=    0.000
 RMSDP=6.21D-02 MaxDP=1.21D+01 DE=-5.38D-03 OVMax= 1.01D-01

 Cycle   7  Pass 0  IDiag  1:
 RMSU=  2.38D-02    CP:  2.33D+00  3.00D+00  2.12D+00  3.00D+00  3.00D+00
                    CP:  3.00D+00
 E= -190.644167708342     Delta-E=       -0.002016113236 Rises=F Damp=F
 DIIS: error= 4.63D-04 at cycle   7 NSaved=   7.
 NSaved= 7 IEnMin= 7 EnMin= -190.644167708342     IErMin= 7 ErrMin= 4.63D-04
 ErrMax= 4.63D-04  0.00D+00 EMaxC= 1.00D-01 BMatC= 1.43D-04 BMatP= 6.79D-04
 IDIUse=3 WtCom= 9.95D-01 WtEn= 4.63D-03
 Coeff-Com: -0.916D-02 0.871D-02 0.727D-01 0.452D-01-0.346D+00 0.649D-02
 Coeff-Com:  0.122D+01
 Coeff-En:   0.000D+00 0.000D+00 0.000D+00 0.000D+00 0.000D+00 0.000D+00
 Coeff-En:   0.100D+01
 Coeff:     -0.911D-02 0.867D-02 0.724D-01 0.450D-01-0.344D+00 0.646D-02
 Coeff:      0.122D+01
 Gap=     0.107 Goal=   None    Shift=    0.000
 Gap=     0.377 Goal=   None    Shift=    0.000
 RMSDP=4.33D-02 MaxDP=8.37D+00 DE=-2.02D-03 OVMax= 5.29D-02

 Cycle   8  Pass 0  IDiag  1:
 RMSU=  1.64D-02    CP:  2.46D+00  3.00D+00  2.31D+00  3.00D+00  3.00D+00
                    CP:  3.00D+00  2.66D+00
 E= -190.644642832107     Delta-E=       -0.000475123764 Rises=F Damp=F
 DIIS: error= 1.93D-04 at cycle   8 NSaved=   8.
 NSaved= 8 IEnMin= 8 EnMin= -190.644642832107     IErMin= 8 ErrMin= 1.93D-04
 ErrMax= 1.93D-04  0.00D+00 EMaxC= 1.00D-01 BMatC= 3.42D-05 BMatP= 1.43D-04
 IDIUse=3 WtCom= 9.98D-01 WtEn= 1.93D-03
 Coeff-Com:  0.557D-02-0.634D-02-0.372D-01 0.403D-01 0.118D+00-0.302D+00
 Coeff-Com: -0.450D-01 0.123D+01
 Coeff-En:   0.000D+00 0.000D+00 0.000D+00 0.000D+00 0.000D+00 0.000D+00
 Coeff-En:   0.000D+00 0.100D+01
 Coeff:      0.556D-02-0.633D-02-0.372D-01 0.402D-01 0.117D+00-0.301D+00
 Coeff:     -0.449D-01 0.123D+01
 Gap=     0.107 Goal=   None    Shift=    0.000
 Gap=     0.379 Goal=   None    Shift=    0.000
 RMSDP=2.69D-02 MaxDP=5.10D+00 DE=-4.75D-04 OVMax= 2.46D-02

 Cycle   9  Pass 0  IDiag  1:
 RMSU=  1.65D-02    CP:  2.55D+00  3.00D+00  2.47D+00  3.00D+00  3.00D+00
                    CP:  3.00D+00  3.00D+00  1.61D+00
 E= -190.644750841928     Delta-E=       -0.000108009821 Rises=F Damp=F
 DIIS: error= 1.28D-04 at cycle   9 NSaved=   9.
 NSaved= 9 IEnMin= 9 EnMin= -190.644750841928     IErMin= 9 ErrMin= 1.28D-04
 ErrMax= 1.28D-04  0.00D+00 EMaxC= 1.00D-01 BMatC= 1.29D-05 BMatP= 3.42D-05
 IDIUse=3 WtCom= 9.99D-01 WtEn= 1.28D-03
 Coeff-Com:  0.152D-02-0.121D-02-0.137D-01-0.846D-02 0.653D-01 0.603D-01
 Coeff-Com: -0.297D+00-0.289D+00 0.148D+01
 Coeff-En:   0.000D+00 0.000D+00 0.000D+00 0.000D+00 0.000D+00 0.000D+00
 Coeff-En:   0.000D+00 0.000D+00 0.100D+01
 Coeff:      0.152D-02-0.121D-02-0.137D-01-0.845D-02 0.653D-01 0.603D-01
 Coeff:     -0.297D+00-0.289D+00 0.148D+01
 Gap=     0.106 Goal=   None    Shift=    0.000
 Gap=     0.379 Goal=   None    Shift=    0.000
 RMSDP=1.93D-02 MaxDP=3.55D+00 DE=-1.08D-04 OVMax= 1.41D-02

 Cycle  10  Pass 0  IDiag  1:
 RMSU=  8.23D-04    CP:  2.60D+00  3.00D+00  2.60D+00  3.00D+00  3.00D+00
                    CP:  3.00D+00  3.00D+00  2.04D+00  2.05D+00
 E= -190.644794822303     Delta-E=       -0.000043980375 Rises=F Damp=F
 DIIS: error= 1.12D-04 at cycle  10 NSaved=  10.
 NSaved=10 IEnMin=10 EnMin= -190.644794822303     IErMin=10 ErrMin= 1.12D-04
 ErrMax= 1.12D-04  0.00D+00 EMaxC= 1.00D-01 BMatC= 6.20D-06 BMatP= 1.29D-05
 IDIUse=3 WtCom= 9.99D-01 WtEn= 1.12D-03
 Coeff-Com: -0.208D-02 0.226D-02 0.131D-01-0.681D-02-0.514D-01 0.575D-01
 Coeff-Com:  0.772D-01-0.190D+00-0.511D+00 0.161D+01
 Coeff-En:   0.000D+00 0.000D+00 0.000D+00 0.000D+00 0.000D+00 0.000D+00
 Coeff-En:   0.000D+00 0.000D+00 0.000D+00 0.100D+01
 Coeff:     -0.208D-02 0.225D-02 0.131D-01-0.680D-02-0.514D-01 0.574D-01
 Coeff:      0.771D-01-0.190D+00-0.511D+00 0.161D+01
 Gap=     0.106 Goal=   None    Shift=    0.000
 Gap=     0.379 Goal=   None    Shift=    0.000
 RMSDP=1.28D-02 MaxDP=2.18D+00 DE=-4.40D-05 OVMax= 1.13D-02

 Cycle  11  Pass 0  IDiag  1:
 RMSU=  7.42D-04    CP:  2.64D+00  3.00D+00  2.73D+00  3.00D+00  3.00D+00
                    CP:  3.00D+00  3.00D+00  2.33D+00  2.72D+00  3.00D+00
 E= -190.644820662399     Delta-E=       -0.000025840096 Rises=F Damp=F
 DIIS: error= 1.03D-04 at cycle  11 NSaved=  11.
 NSaved=11 IEnMin=11 EnMin= -190.644820662399     IErMin=11 ErrMin= 1.03D-04
 ErrMax= 1.03D-04  0.00D+00 EMaxC= 1.00D-01 BMatC= 3.84D-06 BMatP= 6.20D-06
 IDIUse=3 WtCom= 9.99D-01 WtEn= 1.03D-03
 Coeff-Com: -0.146D-02 0.162D-02 0.674D-02 0.136D-02-0.294D-01-0.142D-01
 Coeff-Com:  0.127D+00 0.164D+00-0.795D+00 0.586D-01 0.148D+01
 Coeff-En:   0.000D+00 0.000D+00 0.000D+00 0.000D+00 0.000D+00 0.000D+00
 Coeff-En:   0.000D+00 0.000D+00 0.000D+00 0.000D+00 0.100D+01
 Coeff:     -0.146D-02 0.162D-02 0.673D-02 0.136D-02-0.294D-01-0.141D-01
 Coeff:      0.127D+00 0.164D+00-0.794D+00 0.585D-01 0.148D+01
 Gap=     0.106 Goal=   None    Shift=    0.000
 Gap=     0.379 Goal=   None    Shift=    0.000
 RMSDP=8.10D-03 MaxDP=1.18D+00 DE=-2.58D-05 OVMax= 8.81D-03

 Cycle  12  Pass 0  IDiag  1:
 RMSU=  2.61D-03    CP:  2.66D+00  3.00D+00  2.83D+00  3.00D+00  3.00D+00
                    CP:  3.00D+00  3.00D+00  2.51D+00  3.00D+00  3.00D+00
                    CP:  3.00D+00
 E= -190.644837772405     Delta-E=       -0.000017110006 Rises=F Damp=F
 DIIS: error= 8.19D-05 at cycle  12 NSaved=  12.
 NSaved=12 IEnMin=12 EnMin= -190.644837772405     IErMin=12 ErrMin= 8.19D-05
 ErrMax= 8.19D-05  0.00D+00 EMaxC= 1.00D-01 BMatC= 2.17D-06 BMatP= 3.84D-06
 IDIUse=1 WtCom= 1.00D+00 WtEn= 0.00D+00
 Coeff-Com:  0.797D-03-0.668D-03-0.940D-02-0.466D-03 0.402D-01-0.189D-01
 Coeff-Com: -0.909D-01 0.738D-01 0.489D+00-0.929D+00-0.603D+00 0.205D+01
 Coeff:      0.797D-03-0.668D-03-0.940D-02-0.466D-03 0.402D-01-0.189D-01
 Coeff:     -0.909D-01 0.738D-01 0.489D+00-0.929D+00-0.603D+00 0.205D+01
 Gap=     0.106 Goal=   None    Shift=    0.000
 Gap=     0.379 Goal=   None    Shift=    0.000
 RMSDP=6.56D-03 MaxDP=7.20D-01 DE=-1.71D-05 OVMax= 8.44D-03

 Cycle  13  Pass 0  IDiag  1:
 RMSU=  2.63D-03    CP:  2.67D+00  3.00D+00  2.92D+00  3.00D+00  3.00D+00
                    CP:  3.00D+00  3.00D+00  2.65D+00  3.00D+00  3.00D+00
                    CP:  3.00D+00  2.80D+00
 E= -190.644850536583     Delta-E=       -0.000012764178 Rises=F Damp=F
 DIIS: error= 5.58D-05 at cycle  13 NSaved=  13.
 NSaved=13 IEnMin=13 EnMin= -190.644850536583     IErMin=13 ErrMin= 5.58D-05
 ErrMax= 5.58D-05  0.00D+00 EMaxC= 1.00D-01 BMatC= 1.19D-06 BMatP= 2.17D-06
 IDIUse=1 WtCom= 1.00D+00 WtEn= 0.00D+00
 Coeff-Com:  0.287D-03-0.536D-03 0.446D-02-0.846D-03-0.151D-01 0.122D-01
 Coeff-Com:  0.797D-02-0.107D+00 0.232D-01 0.507D+00-0.271D+00-0.104D+01
 Coeff-Com:  0.188D+01
 Coeff:      0.287D-03-0.536D-03 0.446D-02-0.846D-03-0.151D-01 0.122D-01
 Coeff:      0.797D-02-0.107D+00 0.232D-01 0.507D+00-0.271D+00-0.104D+01
 Coeff:      0.188D+01
 Gap=     0.106 Goal=   None    Shift=    0.000
 Gap=     0.379 Goal=   None    Shift=    0.000
 RMSDP=2.42D-03 MaxDP=2.71D-01 DE=-1.28D-05 OVMax= 4.61D-03

 Cycle  14  Pass 0  IDiag  1:
 RMSU=  1.10D-03    CP:  2.67D+00  3.00D+00  2.95D+00  3.00D+00  3.00D+00
                    CP:  3.00D+00  3.00D+00  2.70D+00  3.00D+00  3.00D+00
                    CP:  3.00D+00  3.00D+00  1.47D+00
 E= -190.644856263836     Delta-E=       -0.000005727253 Rises=F Damp=F
 DIIS: error= 3.61D-05 at cycle  14 NSaved=  14.
 NSaved=14 IEnMin=14 EnMin= -190.644856263836     IErMin=14 ErrMin= 3.61D-05
 ErrMax= 3.61D-05  0.00D+00 EMaxC= 1.00D-01 BMatC= 8.14D-07 BMatP= 1.19D-06
 IDIUse=1 WtCom= 1.00D+00 WtEn= 0.00D+00
 Coeff-Com: -0.122D-03 0.118D-03-0.170D-03-0.134D-02 0.351D-02-0.987D-02
 Coeff-Com:  0.303D-01 0.655D-01-0.215D+00-0.545D-01 0.467D+00-0.771D-02
 Coeff-Com: -0.179D+01 0.251D+01
 Coeff:     -0.122D-03 0.118D-03-0.170D-03-0.134D-02 0.351D-02-0.987D-02
 Coeff:      0.303D-01 0.655D-01-0.215D+00-0.545D-01 0.467D+00-0.771D-02
 Coeff:     -0.179D+01 0.251D+01
 Gap=     0.106 Goal=   None    Shift=    0.000
 Gap=     0.379 Goal=   None    Shift=    0.000
 RMSDP=7.77D-04 MaxDP=8.05D-02 DE=-5.73D-06 OVMax= 5.02D-03

 Cycle  15  Pass 0  IDiag  1:
 RMSU=  3.80D-04    CP:  2.67D+00  3.00D+00  2.96D+00  3.00D+00  3.00D+00
                    CP:  3.00D+00  3.00D+00  2.72D+00  3.00D+00  3.00D+00
                    CP:  3.00D+00  3.00D+00  1.66D+00  1.33D+00
 E= -190.644861802994     Delta-E=       -0.000005539158 Rises=F Damp=F
 DIIS: error= 2.63D-05 at cycle  15 NSaved=  15.
 NSaved=15 IEnMin=15 EnMin= -190.644861802994     IErMin=15 ErrMin= 2.63D-05
 ErrMax= 2.63D-05  0.00D+00 EMaxC= 1.00D-01 BMatC= 5.45D-07 BMatP= 8.14D-07
 IDIUse=1 WtCom= 1.00D+00 WtEn= 0.00D+00
 Coeff-Com:  0.695D-04-0.182D-04-0.153D-02 0.294D-03 0.533D-02 0.639D-02
 Coeff-Com: -0.326D-01-0.224D-01 0.223D+00-0.221D+00-0.365D+00 0.686D+00
 Coeff-Com:  0.328D+00-0.192D+01 0.231D+01
 Coeff:      0.695D-04-0.182D-04-0.153D-02 0.294D-03 0.533D-02 0.639D-02
 Coeff:     -0.326D-01-0.224D-01 0.223D+00-0.221D+00-0.365D+00 0.686D+00
 Coeff:      0.328D+00-0.192D+01 0.231D+01
 Gap=     0.106 Goal=   None    Shift=    0.000
 Gap=     0.379 Goal=   None    Shift=    0.000
 RMSDP=1.55D-03 MaxDP=1.79D-01 DE=-5.54D-06 OVMax= 3.87D-03

 Cycle  16  Pass 0  IDiag  1:
 RMSU=  3.16D-04    CP:  2.67D+00  3.00D+00  2.93D+00  3.00D+00  3.00D+00
                    CP:  3.00D+00  3.00D+00  2.69D+00  3.00D+00  3.00D+00
                    CP:  3.00D+00  3.00D+00  1.46D+00  4.13D-01  2.38D+00
 E= -190.644865946464     Delta-E=       -0.000004143471 Rises=F Damp=F
 DIIS: error= 2.29D-05 at cycle  16 NSaved=  16.
 NSaved=16 IEnMin=16 EnMin= -190.644865946464     IErMin=16 ErrMin= 2.29D-05
 ErrMax= 2.29D-05  0.00D+00 EMaxC= 1.00D-01 BMatC= 4.16D-07 BMatP= 5.45D-07
 IDIUse=1 WtCom= 1.00D+00 WtEn= 0.00D+00
 Coeff-Com:  0.207D-03-0.389D-03 0.308D-02-0.622D-03-0.111D-01 0.403D-03
 Coeff-Com:  0.209D-01-0.385D-01-0.673D-01 0.243D+00 0.985D-01-0.700D+00
 Coeff-Com:  0.784D+00 0.414D+00-0.233D+01 0.258D+01
 Coeff:      0.207D-03-0.389D-03 0.308D-02-0.622D-03-0.111D-01 0.403D-03
 Coeff:      0.209D-01-0.385D-01-0.673D-01 0.243D+00 0.985D-01-0.700D+00
 Coeff:      0.784D+00 0.414D+00-0.233D+01 0.258D+01
 Gap=     0.106 Goal=   None    Shift=    0.000
 Gap=     0.379 Goal=   None    Shift=    0.000
 RMSDP=2.53D-03 MaxDP=3.34D-01 DE=-4.14D-06 OVMax= 3.04D-03

 Cycle  17  Pass 0  IDiag  1:
 RMSU=  6.12D-05    CP:  2.67D+00  3.00D+00  2.90D+00  3.00D+00  3.00D+00
                    CP:  3.00D+00  3.00D+00  2.63D+00  3.00D+00  3.00D+00
                    CP:  3.00D+00  2.40D+00  1.06D+00  2.57D-01  2.48D+00
                    CP:  2.30D+00
 E= -190.644869110777     Delta-E=       -0.000003164313 Rises=F Damp=F
 DIIS: error= 2.07D-05 at cycle  17 NSaved=  17.
 NSaved=17 IEnMin=17 EnMin= -190.644869110777     IErMin=17 ErrMin= 2.07D-05
 ErrMax= 2.07D-05  0.00D+00 EMaxC= 1.00D-01 BMatC= 3.29D-07 BMatP= 4.16D-07
 IDIUse=1 WtCom= 1.00D+00 WtEn= 0.00D+00
 Coeff-Com: -0.306D-03 0.438D-03-0.995D-03-0.315D-03 0.525D-02 0.153D-03
 Coeff-Com: -0.283D-03 0.192D-01-0.521D-01 0.319D-01 0.385D-01-0.328D-01
 Coeff-Com: -0.370D+00 0.530D+00 0.361D+00-0.192D+01 0.238D+01
 Coeff:     -0.306D-03 0.438D-03-0.995D-03-0.315D-03 0.525D-02 0.153D-03
 Coeff:     -0.283D-03 0.192D-01-0.521D-01 0.319D-01 0.385D-01-0.328D-01
 Coeff:     -0.370D+00 0.530D+00 0.361D+00-0.192D+01 0.238D+01
 Gap=     0.106 Goal=   None    Shift=    0.000
 Gap=     0.379 Goal=   None    Shift=    0.000
 RMSDP=2.71D-03 MaxDP=4.20D-01 DE=-3.16D-06 OVMax= 2.78D-03

 Cycle  18  Pass 0  IDiag  1:
 RMSU=  5.10D-04    CP:  2.66D+00  3.00D+00  2.87D+00  3.00D+00  3.00D+00
                    CP:  3.00D+00  3.00D+00  2.57D+00  3.00D+00  3.00D+00
                    CP:  3.00D+00  1.69D+00  6.08D-01  2.84D-01  1.79D+00
                    CP:  3.00D+00  1.06D+00
 E= -190.644871794322     Delta-E=       -0.000002683545 Rises=F Damp=F
 DIIS: error= 1.88D-05 at cycle  18 NSaved=  18.
 NSaved=18 IEnMin=18 EnMin= -190.644871794322     IErMin=18 ErrMin= 1.88D-05
 ErrMax= 1.88D-05  0.00D+00 EMaxC= 1.00D-01 BMatC= 2.68D-07 BMatP= 3.29D-07
 IDIUse=1 WtCom= 1.00D+00 WtEn= 0.00D+00
 Coeff-Com:  0.348D-03-0.521D-03 0.187D-02-0.919D-03-0.987D-02-0.203D-03
 Coeff-Com:  0.633D-03-0.922D-02 0.340D-01-0.682D-01-0.112D-01 0.212D+00
 Coeff-Com:  0.266D+00-0.875D+00 0.149D+00 0.210D+01-0.433D+01 0.353D+01
 Coeff:      0.348D-03-0.521D-03 0.187D-02-0.919D-03-0.987D-02-0.203D-03
 Coeff:      0.633D-03-0.922D-02 0.340D-01-0.682D-01-0.112D-01 0.212D+00
 Coeff:      0.266D+00-0.875D+00 0.149D+00 0.210D+01-0.433D+01 0.353D+01
 Gap=     0.106 Goal=   None    Shift=    0.000
 Gap=     0.380 Goal=   None    Shift=    0.000
 RMSDP=1.84D-03 MaxDP=2.46D-01 DE=-2.68D-06 OVMax= 3.72D-03

 Cycle  19  Pass 0  IDiag  1:
 RMSU=  8.30D-05    CP:  2.66D+00  3.00D+00  2.85D+00  3.00D+00  3.00D+00
                    CP:  3.00D+00  3.00D+00  2.53D+00  3.00D+00  3.00D+00
                    CP:  3.00D+00  1.19D+00  3.15D-01  2.54D-01  1.09D+00
                    CP:  3.00D+00  5.94D-01  1.37D+00
 E= -190.644874845108     Delta-E=       -0.000003050786 Rises=F Damp=F
 DIIS: error= 2.18D-05 at cycle  19 NSaved=  19.
 NSaved=19 IEnMin=19 EnMin= -190.644874845108     IErMin=18 ErrMin= 1.88D-05
 ErrMax= 2.18D-05  0.00D+00 EMaxC= 1.00D-01 BMatC= 2.40D-07 BMatP= 2.68D-07
 IDIUse=1 WtCom= 1.00D+00 WtEn= 0.00D+00
 Coeff-Com: -0.228D-03 0.248D-03 0.163D-02 0.106D-02-0.608D-02 0.810D-02
 Coeff-Com:  0.218D-02-0.511D-01 0.821D-03 0.226D+00-0.638D-01-0.572D+00
 Coeff-Com:  0.979D+00-0.107D+00-0.176D+01 0.280D+01-0.144D+01-0.138D+01
 Coeff-Com:  0.236D+01
 Coeff:     -0.228D-03 0.248D-03 0.163D-02 0.106D-02-0.608D-02 0.810D-02
 Coeff:      0.218D-02-0.511D-01 0.821D-03 0.226D+00-0.638D-01-0.572D+00
 Coeff:      0.979D+00-0.107D+00-0.176D+01 0.280D+01-0.144D+01-0.138D+01
 Coeff:      0.236D+01
 Gap=     0.106 Goal=   None    Shift=    0.000
 Gap=     0.379 Goal=   None    Shift=    0.000
 RMSDP=6.86D-04 MaxDP=9.22D-02 DE=-3.05D-06 OVMax= 3.66D-03

 Cycle  20  Pass 0  IDiag  1:
 RMSU=  8.31D-05    CP:  2.66D+00  3.00D+00  2.84D+00  3.00D+00  3.00D+00
                    CP:  3.00D+00  3.00D+00  2.51D+00  3.00D+00  3.00D+00
                    CP:  3.00D+00  1.02D+00  1.79D-01  2.12D-01  4.79D-01
                    CP:  3.00D+00 -4.32D-01  1.42D+00  2.46D+00
 E= -190.644877440327     Delta-E=       -0.000002595218 Rises=F Damp=F
 DIIS: error= 1.28D-05 at cycle  20 NSaved=  20.
 NSaved=20 IEnMin=20 EnMin= -190.644877440327     IErMin=20 ErrMin= 1.28D-05
 ErrMax= 1.28D-05  0.00D+00 EMaxC= 1.00D-01 BMatC= 1.39D-07 BMatP= 2.40D-07
 IDIUse=1 WtCom= 1.00D+00 WtEn= 0.00D+00
 Coeff-Com:  0.171D-03-0.246D-03 0.535D-03-0.154D-02-0.939D-03-0.716D-02
 Coeff-Com:  0.242D-01 0.234D-01-0.128D+00 0.818D-01 0.245D+00-0.354D+00
 Coeff-Com: -0.331D+00 0.958D+00-0.330D+00-0.199D+01 0.383D+01-0.225D+01
 Coeff-Com: -0.184D+01 0.307D+01
 Coeff:      0.171D-03-0.246D-03 0.535D-03-0.154D-02-0.939D-03-0.716D-02
 Coeff:      0.242D-01 0.234D-01-0.128D+00 0.818D-01 0.245D+00-0.354D+00
 Coeff:     -0.331D+00 0.958D+00-0.330D+00-0.199D+01 0.383D+01-0.225D+01
 Coeff:     -0.184D+01 0.307D+01
 Gap=     0.106 Goal=   None    Shift=    0.000
 Gap=     0.380 Goal=   None    Shift=    0.000
 RMSDP=4.74D-04 MaxDP=5.36D-02 DE=-2.60D-06 OVMax= 6.75D-03

 Cycle  21  Pass 0  IDiag  1:
 Restarting incremental Fock formation.
 E= -190.644880461291     Delta-E=       -0.000003020964 Rises=F Damp=F
 DIIS: error= 1.02D-05 at cycle  21 NSaved=  20.
 NSaved=20 IEnMin=20 EnMin= -190.644880461291     IErMin=20 ErrMin= 1.02D-05
 ErrMax= 1.02D-05  0.00D+00 EMaxC= 1.00D-01 BMatC= 5.86D-08 BMatP= 1.39D-07
 IDIUse=1 WtCom= 1.00D+00 WtEn= 0.00D+00
 Coeff-Com: -0.177D-04 0.205D-03 0.113D-02-0.379D-02 0.137D-02-0.579D-02
 Coeff-Com:  0.108D-02 0.358D-01-0.897D-01-0.253D-01 0.284D+00-0.838D-01
 Coeff-Com: -0.492D+00 0.511D+00 0.878D+00-0.289D+01 0.326D+01-0.794D+00
 Coeff-Com: -0.173D+01 0.214D+01
 Coeff:     -0.177D-04 0.205D-03 0.113D-02-0.379D-02 0.137D-02-0.579D-02
 Coeff:      0.108D-02 0.358D-01-0.897D-01-0.253D-01 0.284D+00-0.838D-01
 Coeff:     -0.492D+00 0.511D+00 0.878D+00-0.289D+01 0.326D+01-0.794D+00
 Coeff:     -0.173D+01 0.214D+01
 Gap=     0.106 Goal=   None    Shift=    0.000
 Gap=     0.380 Goal=   None    Shift=    0.000
 RMSDP=9.10D-04 MaxDP=1.18D-01 DE=-3.02D-06 OVMax= 3.28D-03

 Cycle  22  Pass 0  IDiag  1:
 RMSU=  5.77D-04    CP:  1.00D+00
 E= -190.644881146271     Delta-E=       -0.000000684980 Rises=F Damp=F
 DIIS: error= 4.93D-06 at cycle  22 NSaved=  20.
 NSaved=20 IEnMin=20 EnMin= -190.644881146271     IErMin=20 ErrMin= 4.93D-06
 ErrMax= 4.93D-06  0.00D+00 EMaxC= 1.00D-01 BMatC= 1.14D-08 BMatP= 5.86D-08
 IDIUse=1 WtCom= 1.00D+00 WtEn= 0.00D+00
 Coeff-Com:  0.821D-04 0.239D-04-0.827D-04-0.735D-04 0.955D-03-0.713D-02
 Coeff-Com: -0.602D-02 0.545D-01-0.223D-01-0.131D+00 0.226D+00-0.550D-01
 Coeff-Com: -0.278D+00 0.373D+00-0.163D-03-0.571D+00 0.572D+00 0.103D+00
 Coeff-Com: -0.101D+01 0.175D+01
 Coeff:      0.821D-04 0.239D-04-0.827D-04-0.735D-04 0.955D-03-0.713D-02
 Coeff:     -0.602D-02 0.545D-01-0.223D-01-0.131D+00 0.226D+00-0.550D-01
 Coeff:     -0.278D+00 0.373D+00-0.163D-03-0.571D+00 0.572D+00 0.103D+00
 Coeff:     -0.101D+01 0.175D+01
 Gap=     0.106 Goal=   None    Shift=    0.000
 Gap=     0.380 Goal=   None    Shift=    0.000
 RMSDP=6.91D-04 MaxDP=8.32D-02 DE=-6.85D-07 OVMax= 1.21D-03

 Cycle  23  Pass 0  IDiag  1:
 RMSU=  1.47D-04    CP:  1.00D+00  1.78D+00
 E= -190.644881253698     Delta-E=       -0.000000107428 Rises=F Damp=F
 DIIS: error= 1.89D-06 at cycle  23 NSaved=  20.
 NSaved=20 IEnMin=20 EnMin= -190.644881253698     IErMin=20 ErrMin= 1.89D-06
 ErrMax= 1.89D-06  0.00D+00 EMaxC= 1.00D-01 BMatC= 2.49D-09 BMatP= 1.14D-08
 IDIUse=1 WtCom= 1.00D+00 WtEn= 0.00D+00
 Coeff-Com: -0.495D-04 0.311D-03-0.426D-03 0.143D-02 0.252D-02-0.921D-02
 Coeff-Com:  0.324D-02 0.196D-01-0.182D-01-0.427D-01 0.907D-01-0.115D-01
 Coeff-Com: -0.219D+00 0.381D+00-0.260D+00-0.309D-01 0.137D+00 0.180D+00
 Coeff-Com: -0.102D+01 0.180D+01
 Coeff:     -0.495D-04 0.311D-03-0.426D-03 0.143D-02 0.252D-02-0.921D-02
 Coeff:      0.324D-02 0.196D-01-0.182D-01-0.427D-01 0.907D-01-0.115D-01
 Coeff:     -0.219D+00 0.381D+00-0.260D+00-0.309D-01 0.137D+00 0.180D+00
 Coeff:     -0.102D+01 0.180D+01
 Gap=     0.106 Goal=   None    Shift=    0.000
 Gap=     0.380 Goal=   None    Shift=    0.000
 RMSDP=3.17D-04 MaxDP=3.64D-02 DE=-1.07D-07 OVMax= 4.00D-04

 Cycle  24  Pass 0  IDiag  1:
 RMSU=  2.31D-05    CP:  1.00D+00  2.09D+00  1.99D+00
 E= -190.644881273579     Delta-E=       -0.000000019881 Rises=F Damp=F
 DIIS: error= 9.54D-07 at cycle  24 NSaved=  20.
 NSaved=20 IEnMin=20 EnMin= -190.644881273579     IErMin=20 ErrMin= 9.54D-07
 ErrMax= 9.54D-07  0.00D+00 EMaxC= 1.00D-01 BMatC= 7.04D-10 BMatP= 2.49D-09
 IDIUse=1 WtCom= 1.00D+00 WtEn= 0.00D+00
 Coeff-Com: -0.128D-03 0.322D-03-0.725D-03 0.178D-03 0.294D-02-0.685D-02
 Coeff-Com: -0.676D-02 0.327D-01-0.263D-01-0.296D-01 0.696D-01 0.511D-02
 Coeff-Com: -0.147D+00 0.237D+00-0.969D-01-0.137D+00 0.230D+00-0.118D+00
 Coeff-Com: -0.635D+00 0.163D+01
 Coeff:     -0.128D-03 0.322D-03-0.725D-03 0.178D-03 0.294D-02-0.685D-02
 Coeff:     -0.676D-02 0.327D-01-0.263D-01-0.296D-01 0.696D-01 0.511D-02
 Coeff:     -0.147D+00 0.237D+00-0.969D-01-0.137D+00 0.230D+00-0.118D+00
 Coeff:     -0.635D+00 0.163D+01
 Gap=     0.106 Goal=   None    Shift=    0.000
 Gap=     0.380 Goal=   None    Shift=    0.000
 RMSDP=2.57D-04 MaxDP=3.25D-02 DE=-1.99D-08 OVMax= 2.95D-04

 Cycle  25  Pass 0  IDiag  1:
 RMSU=  9.72D-06    CP:  1.00D+00  2.33D+00  2.66D+00  2.39D+00
 E= -190.644881279608     Delta-E=       -0.000000006029 Rises=F Damp=F
 DIIS: error= 4.83D-07 at cycle  25 NSaved=  20.
 NSaved=20 IEnMin=20 EnMin= -190.644881279608     IErMin=20 ErrMin= 4.83D-07
 ErrMax= 4.83D-07  0.00D+00 EMaxC= 1.00D-01 BMatC= 1.87D-10 BMatP= 7.04D-10
 IDIUse=1 WtCom= 1.00D+00 WtEn= 0.00D+00
 Coeff-Com: -0.107D-03-0.128D-03-0.628D-03 0.134D-02 0.254D-02-0.599D-02
 Coeff-Com: -0.170D-02 0.234D-01-0.295D-01-0.169D-02 0.539D-01-0.912D-01
 Coeff-Com:  0.502D-01 0.119D-01-0.190D-01-0.525D-01 0.205D+00-0.967D-01
 Coeff-Com: -0.761D+00 0.171D+01
 Coeff:     -0.107D-03-0.128D-03-0.628D-03 0.134D-02 0.254D-02-0.599D-02
 Coeff:     -0.170D-02 0.234D-01-0.295D-01-0.169D-02 0.539D-01-0.912D-01
 Coeff:      0.502D-01 0.119D-01-0.190D-01-0.525D-01 0.205D+00-0.967D-01
 Coeff:     -0.761D+00 0.171D+01
 Gap=     0.106 Goal=   None    Shift=    0.000
 Gap=     0.380 Goal=   None    Shift=    0.000
 RMSDP=1.16D-04 MaxDP=1.31D-02 DE=-6.03D-09 OVMax= 1.51D-04

 Cycle  26  Pass 0  IDiag  1:
 RMSU=  8.39D-06    CP:  1.00D+00  2.43D+00  3.00D+00  3.00D+00  1.67D+00
 E= -190.644881281345     Delta-E=       -0.000000001737 Rises=F Damp=F
 DIIS: error= 2.30D-07 at cycle  26 NSaved=  20.
 NSaved=20 IEnMin=20 EnMin= -190.644881281345     IErMin=20 ErrMin= 2.30D-07
 ErrMax= 2.30D-07  0.00D+00 EMaxC= 1.00D-01 BMatC= 5.05D-11 BMatP= 1.87D-10
 IDIUse=1 WtCom= 1.00D+00 WtEn= 0.00D+00
 Coeff-Com:  0.200D-03 0.150D-03-0.136D-02 0.563D-03 0.421D-02-0.580D-02
 Coeff-Com: -0.195D-02 0.111D-01-0.679D-02-0.193D-01 0.494D-01-0.482D-01
 Coeff-Com:  0.910D-02 0.355D-01-0.270D-01-0.770D-01 0.227D+00-0.124D+00
 Coeff-Com: -0.736D+00 0.171D+01
 Coeff:      0.200D-03 0.150D-03-0.136D-02 0.563D-03 0.421D-02-0.580D-02
 Coeff:     -0.195D-02 0.111D-01-0.679D-02-0.193D-01 0.494D-01-0.482D-01
 Coeff:      0.910D-02 0.355D-01-0.270D-01-0.770D-01 0.227D+00-0.124D+00
 Coeff:     -0.736D+00 0.171D+01
 Gap=     0.106 Goal=   None    Shift=    0.000
 Gap=     0.380 Goal=   None    Shift=    0.000
 RMSDP=8.28D-05 MaxDP=9.40D-03 DE=-1.74D-09 OVMax= 9.61D-05

 Cycle  27  Pass 0  IDiag  1:
 RMSU=  3.00D-05    CP:  1.00D+00  2.51D+00  3.00D+00  3.00D+00  2.13D+00
                    CP:  3.00D+00
 E= -190.644881281792     Delta-E=       -0.000000000447 Rises=F Damp=F
 DIIS: error= 1.16D-07 at cycle  27 NSaved=  20.
 NSaved=20 IEnMin=20 EnMin= -190.644881281792     IErMin=20 ErrMin= 1.16D-07
 ErrMax= 1.16D-07  0.00D+00 EMaxC= 1.00D-01 BMatC= 9.99D-12 BMatP= 5.05D-11
 IDIUse=1 WtCom= 1.00D+00 WtEn= 0.00D+00
 Coeff-Com:  0.204D-03-0.142D-03-0.721D-03-0.195D-03 0.303D-02-0.539D-02
 Coeff-Com:  0.248D-02 0.409D-02-0.671D-02 0.165D-02 0.937D-02-0.745D-02
 Coeff-Com: -0.143D-01 0.327D-01-0.326D-01-0.332D-01 0.166D+00-0.591D-02
 Coeff-Com: -0.826D+00 0.171D+01
 Coeff:      0.204D-03-0.142D-03-0.721D-03-0.195D-03 0.303D-02-0.539D-02
 Coeff:      0.248D-02 0.409D-02-0.671D-02 0.165D-02 0.937D-02-0.745D-02
 Coeff:     -0.143D-01 0.327D-01-0.326D-01-0.332D-01 0.166D+00-0.591D-02
 Coeff:     -0.826D+00 0.171D+01
 Gap=     0.106 Goal=   None    Shift=    0.000
 Gap=     0.380 Goal=   None    Shift=    0.000
 RMSDP=3.16D-05 MaxDP=3.69D-03 DE=-4.47D-10 OVMax= 3.60D-05

 Cycle  28  Pass 0  IDiag  1:
 RMSU=  5.85D-06    CP:  1.00D+00  2.54D+00  3.00D+00  3.00D+00  2.25D+00
                    CP:  3.00D+00  1.43D+00
 E= -190.644881281812     Delta-E=       -0.000000000020 Rises=F Damp=F
 DIIS: error= 4.63D-08 at cycle  28 NSaved=  20.
 NSaved=20 IEnMin=20 EnMin= -190.644881281812     IErMin=20 ErrMin= 4.63D-08
 ErrMax= 4.63D-08  0.00D+00 EMaxC= 1.00D-01 BMatC= 1.64D-12 BMatP= 9.99D-12
 IDIUse=1 WtCom= 1.00D+00 WtEn= 0.00D+00
 Coeff-Com: -0.256D-04 0.503D-04 0.970D-04-0.220D-03 0.498D-03-0.457D-03
 Coeff-Com: -0.106D-03 0.171D-02-0.440D-02 0.369D-02 0.502D-04 0.259D-03
 Coeff-Com: -0.627D-02 0.198D-01-0.201D-01-0.392D-01 0.128D+00-0.290D-01
 Coeff-Com: -0.600D+00 0.155D+01
 Coeff:     -0.256D-04 0.503D-04 0.970D-04-0.220D-03 0.498D-03-0.457D-03
 Coeff:     -0.106D-03 0.171D-02-0.440D-02 0.369D-02 0.502D-04 0.259D-03
 Coeff:     -0.627D-02 0.198D-01-0.201D-01-0.392D-01 0.128D+00-0.290D-01
 Coeff:     -0.600D+00 0.155D+01
 Gap=     0.106 Goal=   None    Shift=    0.000
 Gap=     0.380 Goal=   None    Shift=    0.000
 RMSDP=8.10D-06 MaxDP=7.85D-04 DE=-1.98D-11 OVMax= 1.20D-05

 Initial convergence to 1.0D-05 achieved.  Increase integral accuracy.
 Cycle  29  Pass 1  IDiag  1:
 E= -190.644881281828     Delta-E=       -0.000000000015 Rises=F Damp=F
 DIIS: error= 1.95D-08 at cycle   1 NSaved=   1.
 NSaved= 1 IEnMin= 1 EnMin= -190.644881281828     IErMin= 1 ErrMin= 1.95D-08
 ErrMax= 1.95D-08  0.00D+00 EMaxC= 1.00D-01 BMatC= 2.32D-13 BMatP= 2.32D-13
 IDIUse=1 WtCom= 1.00D+00 WtEn= 0.00D+00
 Coeff-Com:  0.100D+01
 Coeff:      0.100D+01
 Gap=     0.106 Goal=   None    Shift=    0.000
 Gap=     0.380 Goal=   None    Shift=    0.000
 RMSDP=8.10D-06 MaxDP=7.85D-04 DE=-1.53D-11 OVMax= 4.64D-07

 Cycle  30  Pass 1  IDiag  1:
 RMSU=  1.89D-07    CP:  1.00D+00
 E= -190.644881281846     Delta-E=       -0.000000000018 Rises=F Damp=F
 DIIS: error= 1.37D-08 at cycle   2 NSaved=   2.
 NSaved= 2 IEnMin= 2 EnMin= -190.644881281846     IErMin= 2 ErrMin= 1.37D-08
 ErrMax= 1.37D-08  0.00D+00 EMaxC= 1.00D-01 BMatC= 1.01D-13 BMatP= 2.32D-13
 IDIUse=1 WtCom= 1.00D+00 WtEn= 0.00D+00
 Coeff-Com: -0.690D+00 0.169D+01
 Coeff:     -0.690D+00 0.169D+01
 Gap=     0.106 Goal=   None    Shift=    0.000
 Gap=     0.380 Goal=   None    Shift=    0.000
 RMSDP=2.94D-07 MaxDP=3.65D-05 DE=-1.84D-11 OVMax= 6.12D-07

 Cycle  31  Pass 1  IDiag  1:
 RMSU=  1.55D-07    CP:  1.00D+00  2.06D+00
 E= -190.644881281843     Delta-E=        0.000000000003 Rises=F Damp=F
 DIIS: error= 8.09D-09 at cycle   3 NSaved=   3.
 NSaved= 3 IEnMin= 2 EnMin= -190.644881281846     IErMin= 3 ErrMin= 8.09D-09
 ErrMax= 8.09D-09  0.00D+00 EMaxC= 1.00D-01 BMatC= 3.35D-14 BMatP= 1.01D-13
 IDIUse=1 WtCom= 1.00D+00 WtEn= 0.00D+00
 Coeff-Com: -0.580D+00 0.478D+00 0.110D+01
 Coeff:     -0.580D+00 0.478D+00 0.110D+01
 Gap=     0.106 Goal=   None    Shift=    0.000
 Gap=     0.380 Goal=   None    Shift=    0.000
 RMSDP=3.45D-07 MaxDP=4.41D-05 DE= 2.79D-12 OVMax= 5.06D-07

 Cycle  32  Pass 1  IDiag  1:
 RMSU=  8.33D-09    CP:  1.00D+00  2.75D+00  2.36D+00
 E= -190.644881281858     Delta-E=       -0.000000000015 Rises=F Damp=F
 DIIS: error= 3.16D-09 at cycle   4 NSaved=   4.
 NSaved= 4 IEnMin= 4 EnMin= -190.644881281858     IErMin= 4 ErrMin= 3.16D-09
 ErrMax= 3.16D-09  0.00D+00 EMaxC= 1.00D-01 BMatC= 5.63D-15 BMatP= 3.35D-14
 IDIUse=1 WtCom= 1.00D+00 WtEn= 0.00D+00
 Coeff-Com:  0.196D+00-0.322D+00-0.206D+00 0.133D+01
 Coeff:      0.196D+00-0.322D+00-0.206D+00 0.133D+01
 Gap=     0.106 Goal=   None    Shift=    0.000
 Gap=     0.380 Goal=   None    Shift=    0.000
 RMSDP=3.43D-07 MaxDP=4.48D-05 DE=-1.46D-11 OVMax= 3.06D-07

 Cycle  33  Pass 1  IDiag  1:
 RMSU=  1.17D-07    CP:  1.00D+00  2.91D+00  3.00D+00  2.96D+00
 E= -190.644881281843     Delta-E=        0.000000000015 Rises=F Damp=F
 DIIS: error= 1.77D-09 at cycle   5 NSaved=   5.
 NSaved= 5 IEnMin= 4 EnMin= -190.644881281858     IErMin= 5 ErrMin= 1.77D-09
 ErrMax= 1.77D-09  0.00D+00 EMaxC= 1.00D-01 BMatC= 2.00D-15 BMatP= 5.63D-15
 IDIUse=1 WtCom= 1.00D+00 WtEn= 0.00D+00
 Coeff-Com:  0.225D+00-0.204D+00-0.408D+00 0.160D+00 0.123D+01
 Coeff:      0.225D+00-0.204D+00-0.408D+00 0.160D+00 0.123D+01
 Gap=     0.106 Goal=   None    Shift=    0.000
 Gap=     0.380 Goal=   None    Shift=    0.000
 RMSDP=3.00D-07 MaxDP=3.82D-05 DE= 1.48D-11 OVMax= 2.60D-07

 Cycle  34  Pass 1  IDiag  1:
 RMSU=  2.01D-08    CP:  1.00D+00  2.98D+00  3.00D+00  3.00D+00  2.63D+00
 E= -190.644881281844     Delta-E=       -0.000000000001 Rises=F Damp=F
 DIIS: error= 8.54D-10 at cycle   6 NSaved=   6.
 NSaved= 6 IEnMin= 4 EnMin= -190.644881281858     IErMin= 6 ErrMin= 8.54D-10
 ErrMax= 8.54D-10  0.00D+00 EMaxC= 1.00D-01 BMatC= 6.64D-16 BMatP= 2.00D-15
 IDIUse=1 WtCom= 1.00D+00 WtEn= 0.00D+00
 Coeff-Com: -0.117D+00 0.130D+00 0.188D+00-0.299D+00-0.444D+00 0.154D+01
 Coeff:     -0.117D+00 0.130D+00 0.188D+00-0.299D+00-0.444D+00 0.154D+01
 Gap=     0.106 Goal=   None    Shift=    0.000
 Gap=     0.380 Goal=   None    Shift=    0.000
 RMSDP=1.83D-07 MaxDP=2.28D-05 DE=-1.31D-12 OVMax= 1.76D-07

 Cycle  35  Pass 1  IDiag  1:
 RMSU=  7.44D-08    CP:  1.00D+00  3.00D+00  3.00D+00  3.00D+00  3.00D+00
                    CP:  1.97D+00
 E= -190.644881281847     Delta-E=       -0.000000000003 Rises=F Damp=F
 DIIS: error= 6.54D-10 at cycle   7 NSaved=   7.
 NSaved= 7 IEnMin= 4 EnMin= -190.644881281858     IErMin= 7 ErrMin= 6.54D-10
 ErrMax= 6.54D-10  0.00D+00 EMaxC= 1.00D-01 BMatC= 3.76D-16 BMatP= 6.64D-16
 IDIUse=1 WtCom= 1.00D+00 WtEn= 0.00D+00
 Coeff-Com: -0.468D-01 0.311D-01 0.889D-01 0.750D-01-0.352D+00-0.617D+00
 Coeff-Com:  0.182D+01
 Coeff:     -0.468D-01 0.311D-01 0.889D-01 0.750D-01-0.352D+00-0.617D+00
 Coeff:      0.182D+01
 Gap=     0.106 Goal=   None    Shift=    0.000
 Gap=     0.380 Goal=   None    Shift=    0.000
 RMSDP=1.72D-07 MaxDP=2.16D-05 DE=-3.01D-12 OVMax= 1.74D-07

 Cycle  36  Pass 1  IDiag  1:
 RMSU=  6.34D-09    CP:  1.00D+00  3.00D+00  3.00D+00  3.00D+00  3.00D+00
                    CP:  2.98D+00  2.48D+00
 E= -190.644881281852     Delta-E=       -0.000000000004 Rises=F Damp=F
 DIIS: error= 5.58D-10 at cycle   8 NSaved=   8.
 NSaved= 8 IEnMin= 4 EnMin= -190.644881281858     IErMin= 8 ErrMin= 5.58D-10
 ErrMax= 5.58D-10  0.00D+00 EMaxC= 1.00D-01 BMatC= 2.16D-16 BMatP= 3.76D-16
 IDIUse=1 WtCom= 1.00D+00 WtEn= 0.00D+00
 Coeff-Com:  0.794D-01-0.782D-01-0.139D+00 0.116D+00 0.392D+00-0.368D+00
 Coeff-Com: -0.109D+01 0.209D+01
 Coeff:      0.794D-01-0.782D-01-0.139D+00 0.116D+00 0.392D+00-0.368D+00
 Coeff:     -0.109D+01 0.209D+01
 Gap=     0.106 Goal=   None    Shift=    0.000
 Gap=     0.380 Goal=   None    Shift=    0.000
 RMSDP=1.40D-07 MaxDP=1.82D-05 DE=-4.32D-12 OVMax= 1.40D-07

 Cycle  37  Pass 1  IDiag  1:
 RMSU=  5.14D-08    CP:  1.00D+00  3.00D+00  3.00D+00  3.00D+00  3.00D+00
                    CP:  3.00D+00  3.00D+00  2.30D+00
 E= -190.644881281863     Delta-E=       -0.000000000012 Rises=F Damp=F
 DIIS: error= 4.12D-10 at cycle   9 NSaved=   9.
 NSaved= 9 IEnMin= 9 EnMin= -190.644881281863     IErMin= 9 ErrMin= 4.12D-10
 ErrMax= 4.12D-10  0.00D+00 EMaxC= 1.00D-01 BMatC= 1.32D-16 BMatP= 2.16D-16
 IDIUse=1 WtCom= 1.00D+00 WtEn= 0.00D+00
 Coeff-Com:  0.113D-01-0.624D-02-0.224D-01-0.261D-01 0.916D-01 0.233D+00
 Coeff-Com: -0.565D+00-0.129D+00 0.141D+01
 Coeff:      0.113D-01-0.624D-02-0.224D-01-0.261D-01 0.916D-01 0.233D+00
 Coeff:     -0.565D+00-0.129D+00 0.141D+01
 Gap=     0.106 Goal=   None    Shift=    0.000
 Gap=     0.380 Goal=   None    Shift=    0.000
 RMSDP=5.69D-08 MaxDP=7.63D-06 DE=-1.17D-11 OVMax= 5.57D-08

 Cycle  38  Pass 1  IDiag  1:
 RMSU=  4.84D-09    CP:  1.00D+00  3.00D+00  3.00D+00  3.00D+00  3.00D+00
                    CP:  3.00D+00  3.00D+00  3.00D+00  1.68D+00
 E= -190.644881281843     Delta-E=        0.000000000020 Rises=F Damp=F
 DIIS: error= 3.74D-10 at cycle  10 NSaved=  10.
 NSaved=10 IEnMin= 9 EnMin= -190.644881281863     IErMin=10 ErrMin= 3.74D-10
 ErrMax= 3.74D-10  0.00D+00 EMaxC= 1.00D-01 BMatC= 1.07D-16 BMatP= 1.32D-16
 IDIUse=1 WtCom= 1.00D+00 WtEn= 0.00D+00
 Coeff-Com: -0.405D-01 0.355D-01 0.726D-01-0.299D-01-0.218D+00 0.326D-01
 Coeff-Com:  0.765D+00-0.882D+00-0.720D+00 0.198D+01
 Coeff:     -0.405D-01 0.355D-01 0.726D-01-0.299D-01-0.218D+00 0.326D-01
 Coeff:      0.765D+00-0.882D+00-0.720D+00 0.198D+01
 Gap=     0.106 Goal=   None    Shift=    0.000
 Gap=     0.380 Goal=   None    Shift=    0.000
 RMSDP=2.37D-08 MaxDP=3.44D-06 DE= 2.03D-11 OVMax= 2.89D-08

 Cycle  39  Pass 1  IDiag  1:
 RMSU=  3.00D-09    CP:  1.00D+00  3.00D+00  3.00D+00  3.00D+00  3.00D+00
                    CP:  3.00D+00  3.00D+00  3.00D+00  1.93D+00  1.46D+00
 E= -190.644881281844     Delta-E=       -0.000000000001 Rises=F Damp=F
 DIIS: error= 3.29D-10 at cycle  11 NSaved=  11.
 NSaved=11 IEnMin= 9 EnMin= -190.644881281863     IErMin=11 ErrMin= 3.29D-10
 ErrMax= 3.29D-10  0.00D+00 EMaxC= 1.00D-01 BMatC= 8.83D-17 BMatP= 1.07D-16
 IDIUse=1 WtCom= 1.00D+00 WtEn= 0.00D+00
 Coeff-Com:  0.646D-02-0.110D-01-0.687D-02 0.502D-01-0.145D-02-0.322D+00
 Coeff-Com:  0.322D+00 0.518D+00-0.129D+01-0.427D+00 0.217D+01
 Coeff:      0.646D-02-0.110D-01-0.687D-02 0.502D-01-0.145D-02-0.322D+00
 Coeff:      0.322D+00 0.518D+00-0.129D+01-0.427D+00 0.217D+01
 Gap=     0.106 Goal=   None    Shift=    0.000
 Gap=     0.380 Goal=   None    Shift=    0.000
 RMSDP=8.03D-09 MaxDP=1.29D-06 DE=-1.48D-12 OVMax= 4.10D-08

 Cycle  40  Pass 1  IDiag  1:
 RMSU=  1.88D-09    CP:  1.00D+00  3.00D+00  3.00D+00  3.00D+00  3.00D+00
                    CP:  3.00D+00  3.00D+00  3.00D+00  1.99D+00  1.63D+00
                    CP:  1.59D+00
 E= -190.644881281852     Delta-E=       -0.000000000008 Rises=F Damp=F
 DIIS: error= 3.22D-10 at cycle  12 NSaved=  12.
 NSaved=12 IEnMin= 9 EnMin= -190.644881281863     IErMin=12 ErrMin= 3.22D-10
 ErrMax= 3.22D-10  0.00D+00 EMaxC= 1.00D-01 BMatC= 6.64D-17 BMatP= 8.83D-17
 IDIUse=1 WtCom= 1.00D+00 WtEn= 0.00D+00
 Coeff-Com:  0.587D-01-0.523D-01-0.106D+00 0.404D-01 0.329D+00 0.457D-03
 Coeff-Com: -0.111D+01 0.101D+01 0.138D+01-0.206D+01-0.153D+01 0.305D+01
 Coeff:      0.587D-01-0.523D-01-0.106D+00 0.404D-01 0.329D+00 0.457D-03
 Coeff:     -0.111D+01 0.101D+01 0.138D+01-0.206D+01-0.153D+01 0.305D+01
 Gap=     0.106 Goal=   None    Shift=    0.000
 Gap=     0.380 Goal=   None    Shift=    0.000
 RMSDP=1.93D-08 MaxDP=2.08D-06 DE=-7.90D-12 OVMax= 7.30D-08

 Cycle  41  Pass 1  IDiag  1:
 RMSU=  7.95D-10    CP:  1.00D+00  3.00D+00  3.00D+00  3.00D+00  3.00D+00
                    CP:  3.00D+00  3.00D+00  3.00D+00  1.72D+00  1.25D+00
                    CP:  1.51D+00  3.00D+00
 E= -190.644881281846     Delta-E=        0.000000000006 Rises=F Damp=F
 DIIS: error= 1.99D-10 at cycle  13 NSaved=  13.
 NSaved=13 IEnMin= 9 EnMin= -190.644881281863     IErMin=13 ErrMin= 1.99D-10
 ErrMax= 1.99D-10  0.00D+00 EMaxC= 1.00D-01 BMatC= 3.71D-17 BMatP= 6.64D-17
 IDIUse=1 WtCom= 1.00D+00 WtEn= 0.00D+00
 Coeff-Com: -0.418D-01 0.390D-01 0.735D-01-0.475D-01-0.225D+00 0.139D+00
 Coeff-Com:  0.666D+00-0.115D+01-0.155D+00 0.232D+01-0.106D+01-0.216D+01
 Coeff-Com:  0.261D+01
 Coeff:     -0.418D-01 0.390D-01 0.735D-01-0.475D-01-0.225D+00 0.139D+00
 Coeff:      0.666D+00-0.115D+01-0.155D+00 0.232D+01-0.106D+01-0.216D+01
 Coeff:      0.261D+01
 Gap=     0.106 Goal=   None    Shift=    0.000
 Gap=     0.380 Goal=   None    Shift=    0.000
 RMSDP=2.07D-08 MaxDP=2.61D-06 DE= 5.85D-12 OVMax= 7.61D-08

 Cycle  42  Pass 1  IDiag  1:
 RMSU=  5.52D-10    CP:  1.00D+00  3.00D+00  3.00D+00  3.00D+00  3.00D+00
                    CP:  3.00D+00  3.00D+00  2.65D+00  1.46D+00  8.22D-01
                    CP:  1.26D+00  3.00D+00  2.84D+00
 E= -190.644881281852     Delta-E=       -0.000000000006 Rises=F Damp=F
 DIIS: error= 2.32D-10 at cycle  14 NSaved=  14.
 NSaved=14 IEnMin= 9 EnMin= -190.644881281863     IErMin=13 ErrMin= 1.99D-10
 ErrMax= 2.32D-10  0.00D+00 EMaxC= 1.00D-01 BMatC= 1.64D-17 BMatP= 3.71D-17
 IDIUse=1 WtCom= 1.00D+00 WtEn= 0.00D+00
 Coeff-Com: -0.764D-02 0.355D-02 0.192D-01 0.109D-01-0.582D-01-0.120D+00
 Coeff-Com:  0.352D+00-0.112D-01-0.741D+00 0.159D+00 0.125D+01-0.710D+00
 Coeff-Com: -0.104D+01 0.189D+01
 Coeff:     -0.764D-02 0.355D-02 0.192D-01 0.109D-01-0.582D-01-0.120D+00
 Coeff:      0.352D+00-0.112D-01-0.741D+00 0.159D+00 0.125D+01-0.710D+00
 Coeff:     -0.104D+01 0.189D+01
 Gap=     0.106 Goal=   None    Shift=    0.000
 Gap=     0.380 Goal=   None    Shift=    0.000
 RMSDP=1.94D-08 MaxDP=2.72D-06 DE=-5.57D-12 OVMax= 3.98D-08

 Cycle  43  Pass 1  IDiag  1:
 RMSU=  9.08D-10    CP:  1.00D+00  3.00D+00  3.00D+00  3.00D+00  3.00D+00
                    CP:  3.00D+00  3.00D+00  2.50D+00  1.25D+00  4.08D-01
                    CP:  8.85D-01  2.54D+00  2.86D+00  2.87D+00
 E= -190.644881281844     Delta-E=        0.000000000008 Rises=F Damp=F
 DIIS: error= 1.91D-10 at cycle  15 NSaved=  15.
 NSaved=15 IEnMin= 9 EnMin= -190.644881281863     IErMin=15 ErrMin= 1.91D-10
 ErrMax= 1.91D-10  0.00D+00 EMaxC= 1.00D-01 BMatC= 9.12D-18 BMatP= 1.64D-17
 IDIUse=1 WtCom= 1.00D+00 WtEn= 0.00D+00
 Coeff-Com:  0.262D-01-0.227D-01-0.490D-01 0.170D-01 0.143D+00 0.260D-01
 Coeff-Com: -0.553D+00 0.433D+00 0.759D+00-0.981D+00-0.786D+00 0.132D+01
 Coeff-Com:  0.301D+00-0.213D+01 0.250D+01
 Coeff:      0.262D-01-0.227D-01-0.490D-01 0.170D-01 0.143D+00 0.260D-01
 Coeff:     -0.553D+00 0.433D+00 0.759D+00-0.981D+00-0.786D+00 0.132D+01
 Coeff:      0.301D+00-0.213D+01 0.250D+01
 Gap=     0.106 Goal=   None    Shift=    0.000
 Gap=     0.380 Goal=   None    Shift=    0.000
 RMSDP=1.01D-08 MaxDP=1.50D-06 DE= 7.84D-12 OVMax= 2.22D-08

 Cycle  44  Pass 1  IDiag  1:
 RMSU=  1.01D-09    CP:  1.00D+00  3.00D+00  3.00D+00  3.00D+00  3.00D+00
                    CP:  3.00D+00  3.00D+00  2.67D+00  1.18D+00  6.20D-02
                    CP:  3.60D-01  1.09D+00  2.60D+00  3.00D+00  1.21D+00
 E= -190.644881281863     Delta-E=       -0.000000000018 Rises=F Damp=F
 DIIS: error= 1.35D-10 at cycle  16 NSaved=  16.
 NSaved=16 IEnMin= 9 EnMin= -190.644881281863     IErMin=16 ErrMin= 1.35D-10
 ErrMax= 1.35D-10  0.00D+00 EMaxC= 1.00D-01 BMatC= 5.31D-18 BMatP= 9.12D-18
 IDIUse=1 WtCom= 1.00D+00 WtEn= 0.00D+00
 Large coefficients: NSaved= 16 BigCof=    0.00 CofMax=   10.00 Det=-1.15D-19
 Inversion failed.  Reducing to 15 matrices.
 Coeff-Com:  0.182D-03 0.153D-03-0.241D-02-0.129D-02 0.189D-01 0.163D-01
 Coeff-Com: -0.978D-01 0.459D-01 0.248D+00-0.209D+00-0.236D+00 0.300D+00
 Coeff-Com:  0.324D+00-0.169D+01 0.228D+01
 Coeff:      0.182D-03 0.153D-03-0.241D-02-0.129D-02 0.189D-01 0.163D-01
 Coeff:     -0.978D-01 0.459D-01 0.248D+00-0.209D+00-0.236D+00 0.300D+00
 Coeff:      0.324D+00-0.169D+01 0.228D+01
 Gap=     0.106 Goal=   None    Shift=    0.000
 Gap=     0.380 Goal=   None    Shift=    0.000
 RMSDP=6.44D-09 MaxDP=8.76D-07 DE=-1.85D-11 OVMax= 1.88D-08

 SCF Done:  E(UHF) =  -190.644881282     A.U. after   44 cycles
            NFock= 44  Conv=0.64D-08     -V/T= 2.0009
 <Sx>= 0.0000 <Sy>= 0.0000 <Sz>= 1.5000 <S**2>= 3.7911 S= 1.5103
 <L.S>= 0.000000000000E+00
 KE= 1.904731344665D+02 PE=-6.532023690949D+02 EE= 1.711152496613D+02
 Annihilation of the first spin contaminant:
 S**2 before annihilation     3.7911,   after     3.7503
 Leave Link  502 at Fri Mar  8 22:05:49 2019, MaxMem=    33554432 cpu:      1055.4
 (Enter /home/proyectos/fulerenos/M3C-v2.0/M3C-deps_CCC/g09-AM64L-G09RevC.01/l801.exe)
 Windowed orbitals will be sorted by symmetry type.
 ExpMin= 3.60D-02 ExpMax= 8.59D+03 ExpMxC= 1.30D+03 IAcc=3 IRadAn=         5 AccDes= 0.00D+00
 HarFok:  IExCor=  205 AccDes= 0.00D+00 IRadAn=         5 IDoV=-2 UseB2=F ITyADJ=14
 ICtDFT= 12500011 ScaDFX=  1.000000  1.000000  1.000000  1.000000
 Largest valence mixing into a core orbital is  1.34D-04
 Largest core mixing into a valence orbital is  3.92D-05
 Largest valence mixing into a core orbital is  1.75D-04
 Largest core mixing into a valence orbital is  5.06D-05
 Range of M.O.s used for correlation:     5   196
 NBasis=   196 NAE=    17 NBE=    14 NFC=     4 NFV=     0
 NROrb=    192 NOA=    13 NOB=    10 NVA=   179 NVB=   182

 **** Warning!!: The largest alpha MO coefficient is  0.65778173D+02


 **** Warning!!: The largest beta MO coefficient is  0.59375586D+02

 Leave Link  801 at Fri Mar  8 22:05:50 2019, MaxMem=    33554432 cpu:         0.9
 (Enter /home/proyectos/fulerenos/M3C-v2.0/M3C-deps_CCC/g09-AM64L-G09RevC.01/l804.exe)
 Open-shell transformation, MDV=    33554432 ITran=4 ISComp=1.
 Semi-Direct transformation.
 ModeAB=           2 MOrb=            13 LenV=      32365078
 LASXX=     43913571 LTotXX=    43913571 LenRXX=    43913571
 LTotAB=    44800704 MaxLAS=    60677760 LenRXY=    60677760
 NonZer=    87827142 LenScr=   133258240 LnRSAI=           0
 LnScr1=           0 LExtra=           0 Total=    237849571
 MaxDsk=          -1 SrtSym=           F ITran=            4
 DoSDTr:  NPSUse=  4
 JobTyp=1 Pass  1:  I=   1 to  13.
 Complete sort for first half transformation.
 First half transformation complete.
 Begin second half transformation for I=  10.
 Begin second half transformation for I=  10.
 Complete sort for second half transformation.
 Second half transformation complete.
 ModeAB=           2 MOrb=            10 LenV=      32365078
 LASXX=     34113750 LTotXX=    34113750 LenRXX=    46675200
 LTotAB=    30206250 MaxLAS=    46675200 LenRXY=    30206250
 NonZer=    68227500 LenScr=   103872512 LnRSAI=           0
 LnScr1=           0 LExtra=           0 Total=    180753962
 MaxDsk=          -1 SrtSym=           F ITran=            4
 DoSDTr:  NPSUse=  4
 JobTyp=2 Pass  1:  I=   1 to  10.
 Complete sort for first half transformation.
 First half transformation complete.
 Begin second half transformation for I=  10.
 Begin second half transformation for I=  10.
 Complete sort for second half transformation.
 Second half transformation complete.
 SymMOI:  orbitals are not symmetric.
 Spin components of T(2) and E(2):
     alpha-alpha T2 =       0.3246424257D-01 E2=     -0.9742831041D-01
     alpha-beta  T2 =       0.1516273091D+00 E2=     -0.5038304751D+00
     beta-beta   T2 =       0.2129667377D-01 E2=     -0.6921390134D-01
 ANorm=    0.1097901738D+01
 E2 =    -0.6704726869D+00 EUMP2 =    -0.19131535396875D+03
 (S**2,0)=  0.37911D+01           (S**2,1)=  0.37775D+01
 E(PUHF)=      -0.19064754585D+03        E(PMP2)=      -0.19131757975D+03
 Leave Link  804 at Fri Mar  8 22:08:13 2019, MaxMem=    33554432 cpu:       570.7
 (Enter /home/proyectos/fulerenos/M3C-v2.0/M3C-deps_CCC/g09-AM64L-G09RevC.01/l913.exe)
 CIDS:  MDV=    33554432.
 Frozen-core window:  NFC=   4 NFV=   0.
 IFCWin=0 IBDFC=1 NFBD=     0     0 NFCmp=     0     0 NFFFC=     0     0
 Using original routines for 1st iteration, S=T.
 Using DD4UQ or CC4UQ for 2nd and later iterations.
 Would need an additional       344585459 words for in-memory AO integral storage.
 CCSD(T)
 =======
 Iterations= 200 Convergence= 0.100D-06
 Iteration Nr.   1
 **********************
 DD1Dir will call FoFJK   6 times, MxPair=        64
 NAB=   130 NAA=    78 NBB=    45 NumPrc=  4.
 DD1Dir:  Pass   1 NRAB=    32 NRAA=     0 NRBB=     0 NR=    64.
 FoFJK:  IHMeth= 1 ICntrl=     200 DoSepK=F KAlg= 0 I1Cent=   0 FoldK=F
 IRaf= 990000000 NMat=  64 IRICut=      80 DoRegI=T DoRafI=T ISym2E= 2.
 FoFCou: FMM=F IPFlag=           0 FMFlag=      100000 FMFlg1=           0
         NFxFlg=           0 DoJE=F BraDBF=F KetDBF=F FulRan=T
         wScrn=  0.000000 ICntrl=     200 IOpCl=  0 I1Cent=           0 NGrid=           0
         NMat0=   64 NMatS0=      0 NMatT0=   32 NMatD0=   64 NMtDS0=    0 NMtDT0=    0
 Integrals replicated using symmetry in FoFCou.
 DD1Dir:  Pass   2 NRAB=    32 NRAA=     0 NRBB=     0 NR=    64.
 DD1Dir:  Pass   3 NRAB=    32 NRAA=     0 NRBB=     0 NR=    64.
 DD1Dir:  Pass   4 NRAB=    32 NRAA=     0 NRBB=     0 NR=    64.
 DD1Dir:  Pass   5 NRAB=     2 NRAA=    60 NRBB=     0 NR=    64.
 DD1Dir:  Pass   6 NRAB=     0 NRAA=    18 NRBB=    45 NR=    63.
 E(PMP3)=      -0.19134488886D+03
 MP4(R+Q)=  0.16333382D-01
 Maximum subspace dimension=  5
 Norm of the A-vectors is  9.6723646D-01 conv= 1.00D-05.
 RLE energy=       -0.6821137252
 E3=       -0.27901113D-01        EUMP3=      -0.19134325508D+03
 E4(DQ)=    0.69796371D-03        UMP4(DQ)=   -0.19134255712D+03
 E4(SDQ)=  -0.74760285D-02        UMP4(SDQ)=  -0.19135073111D+03
 VARIATIONAL ENERGIES WITH THE FIRST-ORDER WAVEFUNCTION:
 DE(Corr)= -0.68191508     E(Corr)=     -191.32679636    
 NORM(A)=   0.11079783D+01
 Iteration Nr.   2
 **********************
 DD1Dir will call FoFJK   6 times, MxPair=        64
 NAB=   130 NAA=    78 NBB=    45 NumPrc=  4.
 DD1Dir:  Pass   1 NRAB=    32 NRAA=     0 NRBB=     0 NR=    64.
 DD1Dir:  Pass   2 NRAB=    32 NRAA=     0 NRBB=     0 NR=    64.
 DD1Dir:  Pass   3 NRAB=    32 NRAA=     0 NRBB=     0 NR=    64.
 DD1Dir:  Pass   4 NRAB=    32 NRAA=     0 NRBB=     0 NR=    64.
 DD1Dir:  Pass   5 NRAB=     2 NRAA=    60 NRBB=     0 NR=    64.
 DD1Dir:  Pass   6 NRAB=     0 NRAA=    18 NRBB=    45 NR=    63.
 Norm of the A-vectors is  4.2198528D-01 conv= 1.00D-05.
 RLE energy=       -0.7044855651
 DE(Corr)= -0.70140844     E(CORR)=     -191.34628972     Delta=-1.95D-02
 NORM(A)=   0.11210146D+01
 Iteration Nr.   3
 **********************
 DD1Dir will call FoFJK   6 times, MxPair=        64
 NAB=   130 NAA=    78 NBB=    45 NumPrc=  4.
 DD1Dir:  Pass   1 NRAB=    32 NRAA=     0 NRBB=     0 NR=    64.
 DD1Dir:  Pass   2 NRAB=    32 NRAA=     0 NRBB=     0 NR=    64.
 DD1Dir:  Pass   3 NRAB=    32 NRAA=     0 NRBB=     0 NR=    64.
 DD1Dir:  Pass   4 NRAB=    32 NRAA=     0 NRBB=     0 NR=    64.
 DD1Dir:  Pass   5 NRAB=     2 NRAA=    60 NRBB=     0 NR=    64.
 DD1Dir:  Pass   6 NRAB=     0 NRAA=    18 NRBB=    45 NR=    63.
 Norm of the A-vectors is  1.4354937D-01 conv= 1.00D-05.
 RLE energy=       -0.7069721009
 DE(Corr)= -0.70393426     E(CORR)=     -191.34881554     Delta=-2.53D-03
 NORM(A)=   0.11303094D+01
 Iteration Nr.   4
 **********************
 DD1Dir will call FoFJK   6 times, MxPair=        64
 NAB=   130 NAA=    78 NBB=    45 NumPrc=  4.
 DD1Dir:  Pass   1 NRAB=    32 NRAA=     0 NRBB=     0 NR=    64.
 DD1Dir:  Pass   2 NRAB=    32 NRAA=     0 NRBB=     0 NR=    64.
 DD1Dir:  Pass   3 NRAB=    32 NRAA=     0 NRBB=     0 NR=    64.
 DD1Dir:  Pass   4 NRAB=    32 NRAA=     0 NRBB=     0 NR=    64.
 DD1Dir:  Pass   5 NRAB=     2 NRAA=    60 NRBB=     0 NR=    64.
 DD1Dir:  Pass   6 NRAB=     0 NRAA=    18 NRBB=    45 NR=    63.
 Norm of the A-vectors is  1.1266066D-01 conv= 1.00D-05.
 RLE energy=       -0.7080272624
 DE(Corr)= -0.70715989     E(CORR)=     -191.35204118     Delta=-3.23D-03
 NORM(A)=   0.11367513D+01
 Iteration Nr.   5
 **********************
 DD1Dir will call FoFJK   6 times, MxPair=        64
 NAB=   130 NAA=    78 NBB=    45 NumPrc=  4.
 DD1Dir:  Pass   1 NRAB=    32 NRAA=     0 NRBB=     0 NR=    64.
 DD1Dir:  Pass   2 NRAB=    32 NRAA=     0 NRBB=     0 NR=    64.
 DD1Dir:  Pass   3 NRAB=    32 NRAA=     0 NRBB=     0 NR=    64.
 DD1Dir:  Pass   4 NRAB=    32 NRAA=     0 NRBB=     0 NR=    64.
 DD1Dir:  Pass   5 NRAB=     2 NRAA=    60 NRBB=     0 NR=    64.
 DD1Dir:  Pass   6 NRAB=     0 NRAA=    18 NRBB=    45 NR=    63.
 Norm of the A-vectors is  4.8698098D-02 conv= 1.00D-05.
 RLE energy=       -0.7086568572
 DE(Corr)= -0.70814460     E(CORR)=     -191.35302588     Delta=-9.85D-04
 NORM(A)=   0.11421808D+01
 Iteration Nr.   6
 **********************
 DD1Dir will call FoFJK   6 times, MxPair=        64
 NAB=   130 NAA=    78 NBB=    45 NumPrc=  4.
 DD1Dir:  Pass   1 NRAB=    32 NRAA=     0 NRBB=     0 NR=    64.
 DD1Dir:  Pass   2 NRAB=    32 NRAA=     0 NRBB=     0 NR=    64.
 DD1Dir:  Pass   3 NRAB=    32 NRAA=     0 NRBB=     0 NR=    64.
 DD1Dir:  Pass   4 NRAB=    32 NRAA=     0 NRBB=     0 NR=    64.
 DD1Dir:  Pass   5 NRAB=     2 NRAA=    60 NRBB=     0 NR=    64.
 DD1Dir:  Pass   6 NRAB=     0 NRAA=    18 NRBB=    45 NR=    63.
 Norm of the A-vectors is  3.7636661D-02 conv= 1.00D-05.
 RLE energy=       -0.7084963701
 DE(Corr)= -0.70854643     E(CORR)=     -191.35342771     Delta=-4.02D-04
 NORM(A)=   0.11437698D+01
 Iteration Nr.   7
 **********************
 DD1Dir will call FoFJK   6 times, MxPair=        64
 NAB=   130 NAA=    78 NBB=    45 NumPrc=  4.
 DD1Dir:  Pass   1 NRAB=    32 NRAA=     0 NRBB=     0 NR=    64.
 DD1Dir:  Pass   2 NRAB=    32 NRAA=     0 NRBB=     0 NR=    64.
 DD1Dir:  Pass   3 NRAB=    32 NRAA=     0 NRBB=     0 NR=    64.
 DD1Dir:  Pass   4 NRAB=    32 NRAA=     0 NRBB=     0 NR=    64.
 DD1Dir:  Pass   5 NRAB=     2 NRAA=    60 NRBB=     0 NR=    64.
 DD1Dir:  Pass   6 NRAB=     0 NRAA=    18 NRBB=    45 NR=    63.
 Norm of the A-vectors is  1.5847832D-02 conv= 1.00D-05.
 RLE energy=       -0.7085562338
 DE(Corr)= -0.70862358     E(CORR)=     -191.35350487     Delta=-7.72D-05
 NORM(A)=   0.11447528D+01
 Iteration Nr.   8
 **********************
 DD1Dir will call FoFJK   6 times, MxPair=        64
 NAB=   130 NAA=    78 NBB=    45 NumPrc=  4.
 DD1Dir:  Pass   1 NRAB=    32 NRAA=     0 NRBB=     0 NR=    64.
 DD1Dir:  Pass   2 NRAB=    32 NRAA=     0 NRBB=     0 NR=    64.
 DD1Dir:  Pass   3 NRAB=    32 NRAA=     0 NRBB=     0 NR=    64.
 DD1Dir:  Pass   4 NRAB=    32 NRAA=     0 NRBB=     0 NR=    64.
 DD1Dir:  Pass   5 NRAB=     2 NRAA=    60 NRBB=     0 NR=    64.
 DD1Dir:  Pass   6 NRAB=     0 NRAA=    18 NRBB=    45 NR=    63.
 Norm of the A-vectors is  1.1910650D-02 conv= 1.00D-05.
 RLE energy=       -0.7085805178
 DE(Corr)= -0.70861212     E(CORR)=     -191.35349341     Delta= 1.15D-05
 NORM(A)=   0.11453506D+01
 Iteration Nr.   9
 **********************
 DD1Dir will call FoFJK   6 times, MxPair=        64
 NAB=   130 NAA=    78 NBB=    45 NumPrc=  4.
 DD1Dir:  Pass   1 NRAB=    32 NRAA=     0 NRBB=     0 NR=    64.
 DD1Dir:  Pass   2 NRAB=    32 NRAA=     0 NRBB=     0 NR=    64.
 DD1Dir:  Pass   3 NRAB=    32 NRAA=     0 NRBB=     0 NR=    64.
 DD1Dir:  Pass   4 NRAB=    32 NRAA=     0 NRBB=     0 NR=    64.
 DD1Dir:  Pass   5 NRAB=     2 NRAA=    60 NRBB=     0 NR=    64.
 DD1Dir:  Pass   6 NRAB=     0 NRAA=    18 NRBB=    45 NR=    63.
 Norm of the A-vectors is  8.9151445D-03 conv= 1.00D-05.
 RLE energy=       -0.7086239761
 DE(Corr)= -0.70863181     E(CORR)=     -191.35351309     Delta=-1.97D-05
 NORM(A)=   0.11456519D+01
 Iteration Nr.  10
 **********************
 DD1Dir will call FoFJK   6 times, MxPair=        64
 NAB=   130 NAA=    78 NBB=    45 NumPrc=  4.
 DD1Dir:  Pass   1 NRAB=    32 NRAA=     0 NRBB=     0 NR=    64.
 DD1Dir:  Pass   2 NRAB=    32 NRAA=     0 NRBB=     0 NR=    64.
 DD1Dir:  Pass   3 NRAB=    32 NRAA=     0 NRBB=     0 NR=    64.
 DD1Dir:  Pass   4 NRAB=    32 NRAA=     0 NRBB=     0 NR=    64.
 DD1Dir:  Pass   5 NRAB=     2 NRAA=    60 NRBB=     0 NR=    64.
 DD1Dir:  Pass   6 NRAB=     0 NRAA=    18 NRBB=    45 NR=    63.
 Norm of the A-vectors is  5.0274694D-03 conv= 1.00D-05.
 RLE energy=       -0.7086315042
 DE(Corr)= -0.70862768     E(CORR)=     -191.35350896     Delta= 4.13D-06
 NORM(A)=   0.11460001D+01
 Iteration Nr.  11
 **********************
 DD1Dir will call FoFJK   6 times, MxPair=        64
 NAB=   130 NAA=    78 NBB=    45 NumPrc=  4.
 DD1Dir:  Pass   1 NRAB=    32 NRAA=     0 NRBB=     0 NR=    64.
 DD1Dir:  Pass   2 NRAB=    32 NRAA=     0 NRBB=     0 NR=    64.
 DD1Dir:  Pass   3 NRAB=    32 NRAA=     0 NRBB=     0 NR=    64.
 DD1Dir:  Pass   4 NRAB=    32 NRAA=     0 NRBB=     0 NR=    64.
 DD1Dir:  Pass   5 NRAB=     2 NRAA=    60 NRBB=     0 NR=    64.
 DD1Dir:  Pass   6 NRAB=     0 NRAA=    18 NRBB=    45 NR=    63.
 Norm of the A-vectors is  4.0304443D-03 conv= 1.00D-05.
 RLE energy=       -0.7086499706
 DE(Corr)= -0.70864469     E(CORR)=     -191.35352597     Delta=-1.70D-05
 NORM(A)=   0.11461327D+01
 Iteration Nr.  12
 **********************
 DD1Dir will call FoFJK   6 times, MxPair=        64
 NAB=   130 NAA=    78 NBB=    45 NumPrc=  4.
 DD1Dir:  Pass   1 NRAB=    32 NRAA=     0 NRBB=     0 NR=    64.
 DD1Dir:  Pass   2 NRAB=    32 NRAA=     0 NRBB=     0 NR=    64.
 DD1Dir:  Pass   3 NRAB=    32 NRAA=     0 NRBB=     0 NR=    64.
 DD1Dir:  Pass   4 NRAB=    32 NRAA=     0 NRBB=     0 NR=    64.
 DD1Dir:  Pass   5 NRAB=     2 NRAA=    60 NRBB=     0 NR=    64.
 DD1Dir:  Pass   6 NRAB=     0 NRAA=    18 NRBB=    45 NR=    63.
 Norm of the A-vectors is  2.2780717D-03 conv= 1.00D-05.
 RLE energy=       -0.7086577939
 DE(Corr)= -0.70865038     E(CORR)=     -191.35353167     Delta=-5.70D-06
 NORM(A)=   0.11462990D+01
 Iteration Nr.  13
 **********************
 DD1Dir will call FoFJK   6 times, MxPair=        64
 NAB=   130 NAA=    78 NBB=    45 NumPrc=  4.
 DD1Dir:  Pass   1 NRAB=    32 NRAA=     0 NRBB=     0 NR=    64.
 DD1Dir:  Pass   2 NRAB=    32 NRAA=     0 NRBB=     0 NR=    64.
 DD1Dir:  Pass   3 NRAB=    32 NRAA=     0 NRBB=     0 NR=    64.
 DD1Dir:  Pass   4 NRAB=    32 NRAA=     0 NRBB=     0 NR=    64.
 DD1Dir:  Pass   5 NRAB=     2 NRAA=    60 NRBB=     0 NR=    64.
 DD1Dir:  Pass   6 NRAB=     0 NRAA=    18 NRBB=    45 NR=    63.
 Norm of the A-vectors is  1.7158686D-03 conv= 1.00D-05.
 RLE energy=       -0.7086646835
 DE(Corr)= -0.70865982     E(CORR)=     -191.35354110     Delta=-9.43D-06
 NORM(A)=   0.11463745D+01
 Iteration Nr.  14
 **********************
 DD1Dir will call FoFJK   6 times, MxPair=        64
 NAB=   130 NAA=    78 NBB=    45 NumPrc=  4.
 DD1Dir:  Pass   1 NRAB=    32 NRAA=     0 NRBB=     0 NR=    64.
 DD1Dir:  Pass   2 NRAB=    32 NRAA=     0 NRBB=     0 NR=    64.
 DD1Dir:  Pass   3 NRAB=    32 NRAA=     0 NRBB=     0 NR=    64.
 DD1Dir:  Pass   4 NRAB=    32 NRAA=     0 NRBB=     0 NR=    64.
 DD1Dir:  Pass   5 NRAB=     2 NRAA=    60 NRBB=     0 NR=    64.
 DD1Dir:  Pass   6 NRAB=     0 NRAA=    18 NRBB=    45 NR=    63.
 Norm of the A-vectors is  1.0239154D-03 conv= 1.00D-05.
 RLE energy=       -0.7086703698
 DE(Corr)= -0.70866587     E(CORR)=     -191.35354715     Delta=-6.05D-06
 NORM(A)=   0.11464369D+01
 Iteration Nr.  15
 **********************
 DD1Dir will call FoFJK   6 times, MxPair=        64
 NAB=   130 NAA=    78 NBB=    45 NumPrc=  4.
 DD1Dir:  Pass   1 NRAB=    32 NRAA=     0 NRBB=     0 NR=    64.
 DD1Dir:  Pass   2 NRAB=    32 NRAA=     0 NRBB=     0 NR=    64.
 DD1Dir:  Pass   3 NRAB=    32 NRAA=     0 NRBB=     0 NR=    64.
 DD1Dir:  Pass   4 NRAB=    32 NRAA=     0 NRBB=     0 NR=    64.
 DD1Dir:  Pass   5 NRAB=     2 NRAA=    60 NRBB=     0 NR=    64.
 DD1Dir:  Pass   6 NRAB=     0 NRAA=    18 NRBB=    45 NR=    63.
 Norm of the A-vectors is  7.2929877D-04 conv= 1.00D-05.
 RLE energy=       -0.7086734866
 DE(Corr)= -0.70867047     E(CORR)=     -191.35355175     Delta=-4.60D-06
 NORM(A)=   0.11464812D+01
 Iteration Nr.  16
 **********************
 DD1Dir will call FoFJK   6 times, MxPair=        64
 NAB=   130 NAA=    78 NBB=    45 NumPrc=  4.
 DD1Dir:  Pass   1 NRAB=    32 NRAA=     0 NRBB=     0 NR=    64.
 DD1Dir:  Pass   2 NRAB=    32 NRAA=     0 NRBB=     0 NR=    64.
 DD1Dir:  Pass   3 NRAB=    32 NRAA=     0 NRBB=     0 NR=    64.
 DD1Dir:  Pass   4 NRAB=    32 NRAA=     0 NRBB=     0 NR=    64.
 DD1Dir:  Pass   5 NRAB=     2 NRAA=    60 NRBB=     0 NR=    64.
 DD1Dir:  Pass   6 NRAB=     0 NRAA=    18 NRBB=    45 NR=    63.
 Norm of the A-vectors is  5.1437889D-04 conv= 1.00D-05.
 RLE energy=       -0.7086759867
 DE(Corr)= -0.70867402     E(CORR)=     -191.35355530     Delta=-3.55D-06
 NORM(A)=   0.11465029D+01
 Iteration Nr.  17
 **********************
 DD1Dir will call FoFJK   6 times, MxPair=        64
 NAB=   130 NAA=    78 NBB=    45 NumPrc=  4.
 DD1Dir:  Pass   1 NRAB=    32 NRAA=     0 NRBB=     0 NR=    64.
 DD1Dir:  Pass   2 NRAB=    32 NRAA=     0 NRBB=     0 NR=    64.
 DD1Dir:  Pass   3 NRAB=    32 NRAA=     0 NRBB=     0 NR=    64.
 DD1Dir:  Pass   4 NRAB=    32 NRAA=     0 NRBB=     0 NR=    64.
 DD1Dir:  Pass   5 NRAB=     2 NRAA=    60 NRBB=     0 NR=    64.
 DD1Dir:  Pass   6 NRAB=     0 NRAA=    18 NRBB=    45 NR=    63.
 Norm of the A-vectors is  3.3205114D-04 conv= 1.00D-05.
 RLE energy=       -0.7086768654
 DE(Corr)= -0.70867560     E(CORR)=     -191.35355689     Delta=-1.58D-06
 NORM(A)=   0.11465287D+01
 Iteration Nr.  18
 **********************
 DD1Dir will call FoFJK   6 times, MxPair=        64
 NAB=   130 NAA=    78 NBB=    45 NumPrc=  4.
 DD1Dir:  Pass   1 NRAB=    32 NRAA=     0 NRBB=     0 NR=    64.
 DD1Dir:  Pass   2 NRAB=    32 NRAA=     0 NRBB=     0 NR=    64.
 DD1Dir:  Pass   3 NRAB=    32 NRAA=     0 NRBB=     0 NR=    64.
 DD1Dir:  Pass   4 NRAB=    32 NRAA=     0 NRBB=     0 NR=    64.
 DD1Dir:  Pass   5 NRAB=     2 NRAA=    60 NRBB=     0 NR=    64.
 DD1Dir:  Pass   6 NRAB=     0 NRAA=    18 NRBB=    45 NR=    63.
 Norm of the A-vectors is  2.9601296D-04 conv= 1.00D-05.
 RLE energy=       -0.7086774556
 DE(Corr)= -0.70867720     E(CORR)=     -191.35355848     Delta=-1.59D-06
 NORM(A)=   0.11465346D+01
 Iteration Nr.  19
 **********************
 DD1Dir will call FoFJK   6 times, MxPair=        64
 NAB=   130 NAA=    78 NBB=    45 NumPrc=  4.
 DD1Dir:  Pass   1 NRAB=    32 NRAA=     0 NRBB=     0 NR=    64.
 DD1Dir:  Pass   2 NRAB=    32 NRAA=     0 NRBB=     0 NR=    64.
 DD1Dir:  Pass   3 NRAB=    32 NRAA=     0 NRBB=     0 NR=    64.
 DD1Dir:  Pass   4 NRAB=    32 NRAA=     0 NRBB=     0 NR=    64.
 DD1Dir:  Pass   5 NRAB=     2 NRAA=    60 NRBB=     0 NR=    64.
 DD1Dir:  Pass   6 NRAB=     0 NRAA=    18 NRBB=    45 NR=    63.
 Norm of the A-vectors is  2.1197207D-04 conv= 1.00D-05.
 RLE energy=       -0.7086771401
 DE(Corr)= -0.70867713     E(CORR)=     -191.35355841     Delta= 6.94D-08
 NORM(A)=   0.11465459D+01
 Iteration Nr.  20
 **********************
 DD1Dir will call FoFJK   6 times, MxPair=        64
 NAB=   130 NAA=    78 NBB=    45 NumPrc=  4.
 DD1Dir:  Pass   1 NRAB=    32 NRAA=     0 NRBB=     0 NR=    64.
 DD1Dir:  Pass   2 NRAB=    32 NRAA=     0 NRBB=     0 NR=    64.
 DD1Dir:  Pass   3 NRAB=    32 NRAA=     0 NRBB=     0 NR=    64.
 DD1Dir:  Pass   4 NRAB=    32 NRAA=     0 NRBB=     0 NR=    64.
 DD1Dir:  Pass   5 NRAB=     2 NRAA=    60 NRBB=     0 NR=    64.
 DD1Dir:  Pass   6 NRAB=     0 NRAA=    18 NRBB=    45 NR=    63.
 Norm of the A-vectors is  1.8357097D-04 conv= 1.00D-05.
 RLE energy=       -0.7086771304
 DE(Corr)= -0.70867744     E(CORR)=     -191.35355873     Delta=-3.16D-07
 NORM(A)=   0.11465498D+01
 Iteration Nr.  21
 **********************
 DD1Dir will call FoFJK   6 times, MxPair=        64
 NAB=   130 NAA=    78 NBB=    45 NumPrc=  4.
 DD1Dir:  Pass   1 NRAB=    32 NRAA=     0 NRBB=     0 NR=    64.
 DD1Dir:  Pass   2 NRAB=    32 NRAA=     0 NRBB=     0 NR=    64.
 DD1Dir:  Pass   3 NRAB=    32 NRAA=     0 NRBB=     0 NR=    64.
 DD1Dir:  Pass   4 NRAB=    32 NRAA=     0 NRBB=     0 NR=    64.
 DD1Dir:  Pass   5 NRAB=     2 NRAA=    60 NRBB=     0 NR=    64.
 DD1Dir:  Pass   6 NRAB=     0 NRAA=    18 NRBB=    45 NR=    63.
 Norm of the A-vectors is  1.6588189D-04 conv= 1.00D-05.
 RLE energy=       -0.7086770245
 DE(Corr)= -0.70867709     E(CORR)=     -191.35355837     Delta= 3.51D-07
 NORM(A)=   0.11465531D+01
 Iteration Nr.  22
 **********************
 DD1Dir will call FoFJK   6 times, MxPair=        64
 NAB=   130 NAA=    78 NBB=    45 NumPrc=  4.
 DD1Dir:  Pass   1 NRAB=    32 NRAA=     0 NRBB=     0 NR=    64.
 DD1Dir:  Pass   2 NRAB=    32 NRAA=     0 NRBB=     0 NR=    64.
 DD1Dir:  Pass   3 NRAB=    32 NRAA=     0 NRBB=     0 NR=    64.
 DD1Dir:  Pass   4 NRAB=    32 NRAA=     0 NRBB=     0 NR=    64.
 DD1Dir:  Pass   5 NRAB=     2 NRAA=    60 NRBB=     0 NR=    64.
 DD1Dir:  Pass   6 NRAB=     0 NRAA=    18 NRBB=    45 NR=    63.
 Norm of the A-vectors is  1.0058833D-04 conv= 1.00D-05.
 RLE energy=       -0.7086768980
 DE(Corr)= -0.70867703     E(CORR)=     -191.35355831     Delta= 6.00D-08
 NORM(A)=   0.11465564D+01
 Iteration Nr.  23
 **********************
 DD1Dir will call FoFJK   6 times, MxPair=        64
 NAB=   130 NAA=    78 NBB=    45 NumPrc=  4.
 DD1Dir:  Pass   1 NRAB=    32 NRAA=     0 NRBB=     0 NR=    64.
 DD1Dir:  Pass   2 NRAB=    32 NRAA=     0 NRBB=     0 NR=    64.
 DD1Dir:  Pass   3 NRAB=    32 NRAA=     0 NRBB=     0 NR=    64.
 DD1Dir:  Pass   4 NRAB=    32 NRAA=     0 NRBB=     0 NR=    64.
 DD1Dir:  Pass   5 NRAB=     2 NRAA=    60 NRBB=     0 NR=    64.
 DD1Dir:  Pass   6 NRAB=     0 NRAA=    18 NRBB=    45 NR=    63.
 Norm of the A-vectors is  8.3991184D-05 conv= 1.00D-05.
 RLE energy=       -0.7086771115
 DE(Corr)= -0.70867702     E(CORR)=     -191.35355830     Delta= 1.18D-08
 NORM(A)=   0.11465577D+01
 Iteration Nr.  24
 **********************
 DD1Dir will call FoFJK   6 times, MxPair=        64
 NAB=   130 NAA=    78 NBB=    45 NumPrc=  4.
 DD1Dir:  Pass   1 NRAB=    32 NRAA=     0 NRBB=     0 NR=    64.
 DD1Dir:  Pass   2 NRAB=    32 NRAA=     0 NRBB=     0 NR=    64.
 DD1Dir:  Pass   3 NRAB=    32 NRAA=     0 NRBB=     0 NR=    64.
 DD1Dir:  Pass   4 NRAB=    32 NRAA=     0 NRBB=     0 NR=    64.
 DD1Dir:  Pass   5 NRAB=     2 NRAA=    60 NRBB=     0 NR=    64.
 DD1Dir:  Pass   6 NRAB=     0 NRAA=    18 NRBB=    45 NR=    63.
 Norm of the A-vectors is  5.1517802D-05 conv= 1.00D-05.
 RLE energy=       -0.7086770740
 DE(Corr)= -0.70867702     E(CORR)=     -191.35355830     Delta= 2.89D-09
 NORM(A)=   0.11465595D+01
 Iteration Nr.  25
 **********************
 DD1Dir will call FoFJK   6 times, MxPair=        64
 NAB=   130 NAA=    78 NBB=    45 NumPrc=  4.
 DD1Dir:  Pass   1 NRAB=    32 NRAA=     0 NRBB=     0 NR=    64.
 DD1Dir:  Pass   2 NRAB=    32 NRAA=     0 NRBB=     0 NR=    64.
 DD1Dir:  Pass   3 NRAB=    32 NRAA=     0 NRBB=     0 NR=    64.
 DD1Dir:  Pass   4 NRAB=    32 NRAA=     0 NRBB=     0 NR=    64.
 DD1Dir:  Pass   5 NRAB=     2 NRAA=    60 NRBB=     0 NR=    64.
 DD1Dir:  Pass   6 NRAB=     0 NRAA=    18 NRBB=    45 NR=    63.
 Norm of the A-vectors is  4.6011026D-05 conv= 1.00D-05.
 RLE energy=       -0.7086772700
 DE(Corr)= -0.70867721     E(CORR)=     -191.35355849     Delta=-1.91D-07
 NORM(A)=   0.11465601D+01
 Iteration Nr.  26
 **********************
 DD1Dir will call FoFJK   6 times, MxPair=        64
 NAB=   130 NAA=    78 NBB=    45 NumPrc=  4.
 DD1Dir:  Pass   1 NRAB=    32 NRAA=     0 NRBB=     0 NR=    64.
 DD1Dir:  Pass   2 NRAB=    32 NRAA=     0 NRBB=     0 NR=    64.
 DD1Dir:  Pass   3 NRAB=    32 NRAA=     0 NRBB=     0 NR=    64.
 DD1Dir:  Pass   4 NRAB=    32 NRAA=     0 NRBB=     0 NR=    64.
 DD1Dir:  Pass   5 NRAB=     2 NRAA=    60 NRBB=     0 NR=    64.
 DD1Dir:  Pass   6 NRAB=     0 NRAA=    18 NRBB=    45 NR=    63.
 Norm of the A-vectors is  2.6073494D-05 conv= 1.00D-05.
 RLE energy=       -0.7086773442
 DE(Corr)= -0.70867725     E(CORR)=     -191.35355854     Delta=-4.46D-08
 NORM(A)=   0.11465608D+01
 Iteration Nr.  27
 **********************
 DD1Dir will call FoFJK   6 times, MxPair=        64
 NAB=   130 NAA=    78 NBB=    45 NumPrc=  4.
 DD1Dir:  Pass   1 NRAB=    32 NRAA=     0 NRBB=     0 NR=    64.
 DD1Dir:  Pass   2 NRAB=    32 NRAA=     0 NRBB=     0 NR=    64.
 DD1Dir:  Pass   3 NRAB=    32 NRAA=     0 NRBB=     0 NR=    64.
 DD1Dir:  Pass   4 NRAB=    32 NRAA=     0 NRBB=     0 NR=    64.
 DD1Dir:  Pass   5 NRAB=     2 NRAA=    60 NRBB=     0 NR=    64.
 DD1Dir:  Pass   6 NRAB=     0 NRAA=    18 NRBB=    45 NR=    63.
 Norm of the A-vectors is  2.5115010D-05 conv= 1.00D-05.
 RLE energy=       -0.7086774243
 DE(Corr)= -0.70867739     E(CORR)=     -191.35355867     Delta=-1.32D-07
 NORM(A)=   0.11465613D+01
 Iteration Nr.  28
 **********************
 DD1Dir will call FoFJK   6 times, MxPair=        64
 NAB=   130 NAA=    78 NBB=    45 NumPrc=  4.
 DD1Dir:  Pass   1 NRAB=    32 NRAA=     0 NRBB=     0 NR=    64.
 DD1Dir:  Pass   2 NRAB=    32 NRAA=     0 NRBB=     0 NR=    64.
 DD1Dir:  Pass   3 NRAB=    32 NRAA=     0 NRBB=     0 NR=    64.
 DD1Dir:  Pass   4 NRAB=    32 NRAA=     0 NRBB=     0 NR=    64.
 DD1Dir:  Pass   5 NRAB=     2 NRAA=    60 NRBB=     0 NR=    64.
 DD1Dir:  Pass   6 NRAB=     0 NRAA=    18 NRBB=    45 NR=    63.
 Norm of the A-vectors is  1.7233411D-05 conv= 1.00D-05.
 RLE energy=       -0.7086774872
 DE(Corr)= -0.70867744     E(CORR)=     -191.35355872     Delta=-5.34D-08
 NORM(A)=   0.11465614D+01
 Iteration Nr.  29
 **********************
 DD1Dir will call FoFJK   6 times, MxPair=        64
 NAB=   130 NAA=    78 NBB=    45 NumPrc=  4.
 DD1Dir:  Pass   1 NRAB=    32 NRAA=     0 NRBB=     0 NR=    64.
 DD1Dir:  Pass   2 NRAB=    32 NRAA=     0 NRBB=     0 NR=    64.
 DD1Dir:  Pass   3 NRAB=    32 NRAA=     0 NRBB=     0 NR=    64.
 DD1Dir:  Pass   4 NRAB=    32 NRAA=     0 NRBB=     0 NR=    64.
 DD1Dir:  Pass   5 NRAB=     2 NRAA=    60 NRBB=     0 NR=    64.
 DD1Dir:  Pass   6 NRAB=     0 NRAA=    18 NRBB=    45 NR=    63.
 Norm of the A-vectors is  1.2821250D-05 conv= 1.00D-05.
 RLE energy=       -0.7086774641
 DE(Corr)= -0.70867747     E(CORR)=     -191.35355875     Delta=-2.89D-08
 NORM(A)=   0.11465616D+01
 Iteration Nr.  30
 **********************
 DD1Dir will call FoFJK   6 times, MxPair=        64
 NAB=   130 NAA=    78 NBB=    45 NumPrc=  4.
 DD1Dir:  Pass   1 NRAB=    32 NRAA=     0 NRBB=     0 NR=    64.
 DD1Dir:  Pass   2 NRAB=    32 NRAA=     0 NRBB=     0 NR=    64.
 DD1Dir:  Pass   3 NRAB=    32 NRAA=     0 NRBB=     0 NR=    64.
 DD1Dir:  Pass   4 NRAB=    32 NRAA=     0 NRBB=     0 NR=    64.
 DD1Dir:  Pass   5 NRAB=     2 NRAA=    60 NRBB=     0 NR=    64.
 DD1Dir:  Pass   6 NRAB=     0 NRAA=    18 NRBB=    45 NR=    63.
 Norm of the A-vectors is  1.0508380D-05 conv= 1.00D-05.
 RLE energy=       -0.7086774756
 DE(Corr)= -0.70867748     E(CORR)=     -191.35355876     Delta=-1.29D-08
 NORM(A)=   0.11465615D+01
 Iteration Nr.  31
 **********************
 DD1Dir will call FoFJK   6 times, MxPair=        64
 NAB=   130 NAA=    78 NBB=    45 NumPrc=  4.
 DD1Dir:  Pass   1 NRAB=    32 NRAA=     0 NRBB=     0 NR=    64.
 DD1Dir:  Pass   2 NRAB=    32 NRAA=     0 NRBB=     0 NR=    64.
 DD1Dir:  Pass   3 NRAB=    32 NRAA=     0 NRBB=     0 NR=    64.
 DD1Dir:  Pass   4 NRAB=    32 NRAA=     0 NRBB=     0 NR=    64.
 DD1Dir:  Pass   5 NRAB=     2 NRAA=    60 NRBB=     0 NR=    64.
 DD1Dir:  Pass   6 NRAB=     0 NRAA=    18 NRBB=    45 NR=    63.
 Norm of the A-vectors is  1.0110376D-05 conv= 1.00D-05.
 RLE energy=       -0.7086774267
 DE(Corr)= -0.70867745     E(CORR)=     -191.35355873     Delta= 3.62D-08
 NORM(A)=   0.11465615D+01
 Iteration Nr.  32
 **********************
 DD1Dir will call FoFJK   6 times, MxPair=        64
 NAB=   130 NAA=    78 NBB=    45 NumPrc=  4.
 DD1Dir:  Pass   1 NRAB=    32 NRAA=     0 NRBB=     0 NR=    64.
 DD1Dir:  Pass   2 NRAB=    32 NRAA=     0 NRBB=     0 NR=    64.
 DD1Dir:  Pass   3 NRAB=    32 NRAA=     0 NRBB=     0 NR=    64.
 DD1Dir:  Pass   4 NRAB=    32 NRAA=     0 NRBB=     0 NR=    64.
 DD1Dir:  Pass   5 NRAB=     2 NRAA=    60 NRBB=     0 NR=    64.
 DD1Dir:  Pass   6 NRAB=     0 NRAA=    18 NRBB=    45 NR=    63.
 Norm of the A-vectors is  7.2418134D-06 conv= 1.00D-05.
 RLE energy=       -0.7086774115
 DE(Corr)= -0.70867744     E(CORR)=     -191.35355872     Delta= 6.54D-09
 NORM(A)=   0.11465615D+01
 CI/CC converged in   32 iterations to DelEn= 6.54D-09 Conv= 1.00D-07 ErrA1= 7.24D-06 Conv= 1.00D-05
 Dominant configurations:
 ***********************
 Spin Case        I    J    A    B          Value
    AA           17        21           -0.117020D+00
 Largest amplitude= 1.17D-01
 Time for triples=     5774.80 seconds.
 T4(CCSD)= -0.33820856D-01
 T5(CCSD)=  0.17632616D-02
 CCSD(T)= -0.19138561631D+03

 S**2, projected HF & approx projected MPn energies after annihilation of
 unwanted spin states (see manual for definitions):

 spins       (S**2,0) (S**2,1)    PUHF        PMP2        PMP3        PMP4
 annihilated
 s+1         3.74978  3.75004 -190.647546 -191.317580 -191.344889
 s+1,s+2     3.75000  3.75000 -190.647522 -191.317560 -191.344872
 s+1 to s+3  3.75000  3.75000 -190.647522 -191.317560 -191.344873
 s+1 to s+4  3.75000  3.75000 -190.647522 -191.317560 -191.344873
 s+1 to s+5  3.75000  3.75000 -190.647522
 s+1 to s+6  3.75000  3.75000 -190.647522

 Discarding MO integrals.
 Leave Link  913 at Sat Mar  9 00:38:19 2019, MaxMem=    33554432 cpu:     35623.7
 (Enter /home/proyectos/fulerenos/M3C-v2.0/M3C-deps_CCC/g09-AM64L-G09RevC.01/l601.exe)
 Copying SCF densities to generalized density rwf, IOpCl= 1 IROHF=0.

 **********************************************************************

            Population analysis using the SCF density.

 **********************************************************************

 Orbital symmetries:
 Alpha Orbitals:
       Occupied  (A) (A) (A) (A) (A) (A) (A) (A) (A) (A) (A) (A)
                 (A) (A) (A) (A) (A)
       Virtual   (A) (A) (A) (A) (A) (A) (A) (A) (A) (A) (A) (A)
                 (A) (A) (A) (A) (A) (A) (A) (A) (A) (A) (A) (A)
                 (A) (A) (A) (A) (A) (A) (A) (A) (A) (A) (A) (A)
                 (A) (A) (A) (A) (A) (A) (A) (A) (A) (A) (A) (A)
                 (A) (A) (A) (A) (A) (A) (A) (A) (A) (A) (A) (A)
                 (A) (A) (A) (A) (A) (A) (A) (A) (A) (A) (A) (A)
                 (A) (A) (A) (A) (A) (A) (A) (A) (A) (A) (A) (A)
                 (A) (A) (A) (A) (A) (A) (A) (A) (A) (A) (A) (A)
                 (A) (A) (A) (A) (A) (A) (A) (A) (A) (A) (A) (A)
                 (A) (A) (A) (A) (A) (A) (A) (A) (A) (A) (A) (A)
                 (A) (A) (A) (A) (A) (A) (A) (A) (A) (A) (A) (A)
                 (A) (A) (A) (A) (A) (A) (A) (A) (A) (A) (A) (A)
                 (A) (A) (A) (A) (A) (A) (A) (A) (A) (A) (A) (A)
                 (A) (A) (A) (A) (A) (A) (A) (A) (A) (A) (A) (A)
                 (A) (A) (A) (A) (A) (A) (A) (A) (A) (A) (A)
 Beta  Orbitals:
       Occupied  (A) (A) (A) (A) (A) (A) (A) (A) (A) (A) (A) (A)
                 (A) (A)
       Virtual   (A) (A) (A) (A) (A) (A) (A) (A) (A) (A) (A) (A)
                 (A) (A) (A) (A) (A) (A) (A) (A) (A) (A) (A) (A)
                 (A) (A) (A) (A) (A) (A) (A) (A) (A) (A) (A) (A)
                 (A) (A) (A) (A) (A) (A) (A) (A) (A) (A) (A) (A)
                 (A) (A) (A) (A) (A) (A) (A) (A) (A) (A) (A) (A)
                 (A) (A) (A) (A) (A) (A) (A) (A) (A) (A) (A) (A)
                 (A) (A) (A) (A) (A) (A) (A) (A) (A) (A) (A) (A)
                 (A) (A) (A) (A) (A) (A) (A) (A) (A) (A) (A) (A)
                 (A) (A) (A) (A) (A) (A) (A) (A) (A) (A) (A) (A)
                 (A) (A) (A) (A) (A) (A) (A) (A) (A) (A) (A) (A)
                 (A) (A) (A) (A) (A) (A) (A) (A) (A) (A) (A) (A)
                 (A) (A) (A) (A) (A) (A) (A) (A) (A) (A) (A) (A)
                 (A) (A) (A) (A) (A) (A) (A) (A) (A) (A) (A) (A)
                 (A) (A) (A) (A) (A) (A) (A) (A) (A) (A) (A) (A)
                 (A) (A) (A) (A) (A) (A) (A) (A) (A) (A) (A) (A)
                 (A) (A)
 The electronic state is 4-A.
 Alpha  occ. eigenvalues --  -20.42436 -11.16145 -11.15898 -11.15619  -1.22383
 Alpha  occ. eigenvalues --   -0.96819  -0.81341  -0.62598  -0.56485  -0.51884
 Alpha  occ. eigenvalues --   -0.50555  -0.40211  -0.39085  -0.31443  -0.28692
 Alpha  occ. eigenvalues --   -0.24505   0.03040
 Alpha virt. eigenvalues --    0.13682   0.16598   0.17223   0.20705   0.20971
 Alpha virt. eigenvalues --    0.21868   0.24500   0.26135   0.26929   0.27263
 Alpha virt. eigenvalues --    0.28603   0.29833   0.30726   0.31484   0.31970
 Alpha virt. eigenvalues --    0.33015   0.40800   0.41296   0.42624   0.43088
 Alpha virt. eigenvalues --    0.47831   0.49315   0.50897   0.52213   0.55480
 Alpha virt. eigenvalues --    0.57407   0.59718   0.61729   0.62827   0.63008
 Alpha virt. eigenvalues --    0.65061   0.66856   0.69480   0.70164   0.72936
 Alpha virt. eigenvalues --    0.75815   0.76134   0.81207   0.81869   0.84791
 Alpha virt. eigenvalues --    0.85442   0.86400   0.88188   0.91293   0.93789
 Alpha virt. eigenvalues --    0.96967   0.99737   1.02558   1.04438   1.06504
 Alpha virt. eigenvalues --    1.07880   1.13669   1.15764   1.17800   1.22236
 Alpha virt. eigenvalues --    1.26730   1.27435   1.34128   1.34887   1.39509
 Alpha virt. eigenvalues --    1.40777   1.43917   1.46010   1.47943   1.50617
 Alpha virt. eigenvalues --    1.51928   1.56006   1.58690   1.60099   1.62835
 Alpha virt. eigenvalues --    1.67485   1.69775   1.71398   1.71549   1.74316
 Alpha virt. eigenvalues --    1.79666   1.84677   1.87907   1.93512   1.96603
 Alpha virt. eigenvalues --    1.99281   2.07494   2.09160   2.16503   2.25148
 Alpha virt. eigenvalues --    2.32523   2.43055   2.45757   2.48766   2.54987
 Alpha virt. eigenvalues --    2.65201   2.66861   2.75960   2.89479   3.05908
 Alpha virt. eigenvalues --    3.09923   3.12344   3.13578   3.17528   3.22456
 Alpha virt. eigenvalues --    3.26771   3.29037   3.33971   3.34372   3.38233
 Alpha virt. eigenvalues --    3.41313   3.45568   3.50792   3.52030   3.59606
 Alpha virt. eigenvalues --    3.61048   3.65268   3.68081   3.76050   3.79773
 Alpha virt. eigenvalues --    3.80337   3.84148   3.96164   3.98171   4.01497
 Alpha virt. eigenvalues --    4.07820   4.12943   4.21325   4.26128   4.35785
 Alpha virt. eigenvalues --    4.42594   4.48674   4.50037   4.53508   4.67391
 Alpha virt. eigenvalues --    4.71921   4.74710   4.81056   4.85508   4.86695
 Alpha virt. eigenvalues --    4.88000   5.00883   5.06368   5.16646   5.26932
 Alpha virt. eigenvalues --    5.31762   5.57291   5.79822   5.85132   5.85998
 Alpha virt. eigenvalues --    5.93855   6.06672   6.12953   6.17026   6.21951
 Alpha virt. eigenvalues --    6.46327   6.48437   6.58224   7.07976   7.54814
 Alpha virt. eigenvalues --    7.56702   7.65482   7.68043   7.69741   7.72868
 Alpha virt. eigenvalues --    7.76019   7.96192   7.97902   8.14911   8.20711
 Alpha virt. eigenvalues --    8.54414   8.63315   8.71019   8.84508   8.89467
 Alpha virt. eigenvalues --   15.24122  15.32184  15.33045  15.60751  15.90840
 Alpha virt. eigenvalues --   25.19287  25.89664  26.90857  52.00465
  Beta  occ. eigenvalues --  -20.42445 -11.15621 -11.13573 -11.13098  -1.22289
  Beta  occ. eigenvalues --   -0.89621  -0.75973  -0.56831  -0.55112  -0.49207
  Beta  occ. eigenvalues --   -0.47743  -0.38707  -0.31724  -0.24873
  Beta virt. eigenvalues --    0.13105   0.15450   0.17436   0.20002   0.20305
  Beta virt. eigenvalues --    0.20655   0.22123   0.24178   0.26433   0.27286
  Beta virt. eigenvalues --    0.27487   0.29079   0.29319   0.30144   0.31469
  Beta virt. eigenvalues --    0.32553   0.33730   0.33977   0.35161   0.42143
  Beta virt. eigenvalues --    0.42610   0.44363   0.45522   0.48714   0.50461
  Beta virt. eigenvalues --    0.51609   0.53202   0.57614   0.59072   0.61375
  Beta virt. eigenvalues --    0.63324   0.65097   0.66211   0.67613   0.70032
  Beta virt. eigenvalues --    0.73051   0.75111   0.75778   0.77437   0.78111
  Beta virt. eigenvalues --    0.82197   0.83756   0.86817   0.87378   0.87976
  Beta virt. eigenvalues --    0.90829   0.92750   0.95451   0.98276   1.01214
  Beta virt. eigenvalues --    1.03595   1.07053   1.07431   1.09651   1.15756
  Beta virt. eigenvalues --    1.17426   1.19386   1.22907   1.27369   1.28951
  Beta virt. eigenvalues --    1.34806   1.35641   1.40499   1.41610   1.45053
  Beta virt. eigenvalues --    1.46851   1.48760   1.51301   1.53366   1.56813
  Beta virt. eigenvalues --    1.61562   1.62404   1.64869   1.69409   1.71334
  Beta virt. eigenvalues --    1.71929   1.73161   1.75183   1.80748   1.88700
  Beta virt. eigenvalues --    1.90412   1.95836   2.00347   2.00650   2.10994
  Beta virt. eigenvalues --    2.13876   2.21176   2.28513   2.34798   2.44904
  Beta virt. eigenvalues --    2.48649   2.51088   2.56581   2.65782   2.69203
  Beta virt. eigenvalues --    2.78592   2.92274   3.10355   3.13261   3.14493
  Beta virt. eigenvalues --    3.15096   3.20335   3.24455   3.27958   3.32836
  Beta virt. eigenvalues --    3.35382   3.37045   3.39844   3.42981   3.47346
  Beta virt. eigenvalues --    3.53047   3.55388   3.60721   3.63412   3.65865
  Beta virt. eigenvalues --    3.70650   3.77351   3.80414   3.81743   3.85784
  Beta virt. eigenvalues --    3.97048   3.99074   4.02130   4.08493   4.13384
  Beta virt. eigenvalues --    4.22832   4.28021   4.37029   4.43761   4.49634
  Beta virt. eigenvalues --    4.50905   4.54026   4.69564   4.73545   4.75750
  Beta virt. eigenvalues --    4.81471   4.85962   4.86960   4.89161   5.01605
  Beta virt. eigenvalues --    5.07055   5.17806   5.28150   5.31948   5.59253
  Beta virt. eigenvalues --    5.79862   5.85484   5.86421   5.94088   6.06761
  Beta virt. eigenvalues --    6.13020   6.17100   6.22139   6.46942   6.48723
  Beta virt. eigenvalues --    6.58792   7.08187   7.59214   7.60974   7.67803
  Beta virt. eigenvalues --    7.69224   7.72712   7.76311   7.77649   7.97584
  Beta virt. eigenvalues --    8.00787   8.16357   8.21695   8.56312   8.65704
  Beta virt. eigenvalues --    8.71461   8.84948   8.90755  15.24100  15.32133
  Beta virt. eigenvalues --   15.32967  15.60710  15.90795  25.20842  25.90254
  Beta virt. eigenvalues --   26.92437  52.00483
          Condensed to atoms (all electrons):
               1          2          3          4          5          6
     1  C   31.422536 -52.417573  -1.638489   4.130913   8.056912  10.600272
     2  C  -52.417573 125.946940  -0.129898 -10.495320 -18.869459 -25.516943
     3  C   -1.638489  -0.129898   8.173643  -0.024274  -0.360377   0.247547
     4  H    4.130913 -10.495320  -0.024274   2.177586   1.722064   2.385198
     5  H    8.056912 -18.869459  -0.360377   1.722064   4.529109   4.022463
     6  H   10.600272 -25.516943   0.247547   2.385198   4.022463   7.378353
     7  H    2.354454  -4.955404   0.050373   0.282930   0.983113   0.768766
     8  O    5.053107 -12.389677  -0.047131   1.488510   1.809432   2.437611
               7          8
     1  C    2.354454   5.053107
     2  C   -4.955404 -12.389677
     3  C    0.050373  -0.047131
     4  H    0.282930   1.488510
     5  H    0.983113   1.809432
     6  H    0.768766   2.437611
     7  H    1.266814   0.334096
     8  O    0.334096  10.338591
          Atomic-Atomic Spin Densities.
               1          2          3          4          5          6
     1  C   25.428364 -52.196882  -1.487299   4.139941   8.164417  10.654554
     2  C  -52.196882 120.877544   0.037538 -10.435887 -19.372710 -25.977731
     3  C   -1.487299   0.037538   3.249557  -0.026758  -0.365629   0.231989
     4  H    4.139941 -10.435887  -0.026758   1.679085   1.718746   2.389980
     5  H    8.164417 -19.372710  -0.365629   1.718746   4.037669   4.053884
     6  H   10.654554 -25.977731   0.231989   2.389980   4.053884   6.857841
     7  H    2.415936  -4.955317  -0.410801   0.283339   0.985404   0.768304
     8  O    5.222113 -12.575212  -0.028033   1.177407   1.866289   2.497853
               7          8
     1  C    2.415936   5.222113
     2  C   -4.955317 -12.575212
     3  C   -0.410801  -0.028033
     4  H    0.283339   1.177407
     5  H    0.985404   1.866289
     6  H    0.768304   2.497853
     7  H    0.853875   0.334389
     8  O    0.334389   1.796416
 Mulliken charges and spin densities:
               1          2
     1  C   -1.562132   2.341144
     2  C    4.827335  -4.598657
     3  C   -0.271393   1.200565
     4  H   -0.667606   0.925854
     5  H   -0.893257   1.088071
     6  H   -1.323266   1.476675
     7  H   -0.085142   0.275128
     8  O   -1.024538   0.291221
 Sum of Mulliken charges =  -1.00000   3.00000
 Mulliken charges and spin densities with hydrogens summed into heavy atoms:
               1          2
     1  C   -1.562132   2.341144
     2  C    2.610812  -2.033912
     3  C   -0.356536   1.475693
     8  O   -1.692144   1.217075
 Electronic spatial extent (au):  <R**2>=            363.9739
 Charge=             -1.0000 electrons
 Dipole moment (field-independent basis, Debye):
    X=              8.1202    Y=             -3.4772    Z=             -2.4083  Tot=              9.1558
 Quadrupole moment (field-independent basis, Debye-Ang):
   XX=            -66.0121   YY=            -51.6803   ZZ=            -47.4049
   XY=              4.3025   XZ=              5.4071   YZ=             -2.8547
 Traceless Quadrupole moment (field-independent basis, Debye-Ang):
   XX=            -10.9796   YY=              3.3521   ZZ=              7.6275
   XY=              4.3025   XZ=              5.4071   YZ=             -2.8547
 Octapole moment (field-independent basis, Debye-Ang**2):
  XXX=            122.2102  YYY=            -66.4755  ZZZ=            -47.4959  XYY=             35.3134
  XXY=            -28.3966  XXZ=            -19.2719  XZZ=             29.3574  YZZ=            -19.5807
  YYZ=            -12.5275  XYZ=             -0.2184
 Hexadecapole moment (field-independent basis, Debye-Ang**3):
 XXXX=          -1037.9294 YYYY=           -407.1697 ZZZZ=           -321.6871 XXXY=             76.4891
 XXXZ=             71.4673 YYYX=             83.0385 YYYZ=            -17.5914 ZZZX=             47.0814
 ZZZY=            -24.8641 XXYY=           -226.7684 XXZZ=           -203.9498 YYZZ=           -114.6150
 XXYZ=            -10.3794 YYXZ=             14.8982 ZZXY=             21.1701
 N-N= 1.009691036852D+02 E-N=-6.532023690990D+02  KE= 1.904731344665D+02
 Leave Link  601 at Sat Mar  9 00:38:19 2019, MaxMem=    33554432 cpu:         0.4
 (Enter /home/proyectos/fulerenos/M3C-v2.0/M3C-deps_CCC/g09-AM64L-G09RevC.01/l9999.exe)
 1\1\GINC-DARMSTADIO\SP\UCCSD(T)-FC\6-311++G(3df,2p)\C3H4O1(1-,4)\ROOT\
 09-Mar-2019\0\\#p ccsd(t,maxcyc=200)/6-311++G(3df,2p)\\ccsd(t) iener\\
 -1,4\C,0,-0.845516,0.469709,-0.089403\C,0,0.607097,0.455133,-0.026434\
 C,0,-1.691671,-0.174812,-0.910301\H,0,2.085022,-0.126321,1.112371\H,0,
 0.982986,0.056342,-0.992298\H,0,1.000446,1.492257,0.025774\H,0,-1.4873
 35,-0.99989,-1.597672\O,0,1.12181,-0.298011,1.061877\\Version=EM64L-G0
 9RevE.01\State=4-A\HF=-190.6448813\MP2=-191.315354\MP3=-191.3432551\MP
 4D=-191.3588905\MP4DQ=-191.3425571\PUHF=-190.6475458\PMP2-0=-191.31757
 98\PMP3-0=-191.3448889\MP4SDQ=-191.3507311\CCSD=-191.3535587\CCSD(T)=-
 191.3856163\S2=3.791142\S2-1=3.777519\S2A=3.75031\RMSD=6.439e-09\PG=C0
 1 [X(C3H4O1)]\\@


 ... IT CAN BE VERY DIFFICULT, IN THESE COMPLEX TIMES,
 TO UNDERSTAND JUST HOW SCIENTISTS DO WHAT THEY DO.

                     DON MOSER IN THE FEBRUARY 1979 SMITHSONIAN
 Job cpu time:       0 days 10 hours 21 minutes  2.4 seconds.
 File lengths (MBytes):  RWF=   4558 Int=      0 D2E=      0 Chk=      4 Scr=      1
 Normal termination of Gaussian 09 at Sat Mar  9 00:38:21 2019.
