 Entering Gaussian System, Link 0=/home/proyectos/fulerenos/M3C-v2.0/M3C-deps_CCC/g09-AM64L-G09RevC.01/g09
 Initial command:
 /home/proyectos/fulerenos/M3C-v2.0/M3C-deps_CCC/g09-AM64L-G09RevC.01/l1.exe "/scratch/naguirre/gaussian/Gau-41357.inp" -scrdir="/scratch/naguirre/gaussian/"
 Entering Link 1 = /home/proyectos/fulerenos/M3C-v2.0/M3C-deps_CCC/g09-AM64L-G09RevC.01/l1.exe PID=     41366.
  
 Copyright (c) 1988,1990,1992,1993,1995,1998,2003,2009,2015,
            Gaussian, Inc.  All Rights Reserved.
  
 This is part of the Gaussian(R) 09 program.  It is based on
 the Gaussian(R) 03 system (copyright 2003, Gaussian, Inc.),
 the Gaussian(R) 98 system (copyright 1998, Gaussian, Inc.),
 the Gaussian(R) 94 system (copyright 1995, Gaussian, Inc.),
 the Gaussian 92(TM) system (copyright 1992, Gaussian, Inc.),
 the Gaussian 90(TM) system (copyright 1990, Gaussian, Inc.),
 the Gaussian 88(TM) system (copyright 1988, Gaussian, Inc.),
 the Gaussian 86(TM) system (copyright 1986, Carnegie Mellon
 University), and the Gaussian 82(TM) system (copyright 1983,
 Carnegie Mellon University). Gaussian is a federally registered
 trademark of Gaussian, Inc.
  
 This software contains proprietary and confidential information,
 including trade secrets, belonging to Gaussian, Inc.
  
 This software is provided under written license and may be
 used, copied, transmitted, or stored only in accord with that
 written license.
  
 The following legend is applicable only to US Government
 contracts under FAR:
  
                    RESTRICTED RIGHTS LEGEND
  
 Use, reproduction and disclosure by the US Government is
 subject to restrictions as set forth in subparagraphs (a)
 and (c) of the Commercial Computer Software - Restricted
 Rights clause in FAR 52.227-19.
  
 Gaussian, Inc.
 340 Quinnipiac St., Bldg. 40, Wallingford CT 06492
  
  
 ---------------------------------------------------------------
 Warning -- This program may not be used in any manner that
 competes with the business of Gaussian, Inc. or will provide
 assistance to any competitor of Gaussian, Inc.  The licensee
 of this program is prohibited from giving any competitor of
 Gaussian, Inc. access to this program.  By using this program,
 the user acknowledges that Gaussian, Inc. is engaged in the
 business of creating and licensing software in the field of
 computational chemistry and represents and warrants to the
 licensee that it is not a competitor of Gaussian, Inc. and that
 it will not use this program in any manner prohibited above.
 ---------------------------------------------------------------
  

 Cite this work as:
 Gaussian 09, Revision E.01,
 M. J. Frisch, G. W. Trucks, H. B. Schlegel, G. E. Scuseria, 
 M. A. Robb, J. R. Cheeseman, G. Scalmani, V. Barone, B. Mennucci, 
 G. A. Petersson, H. Nakatsuji, M. Caricato, X. Li, H. P. Hratchian, 
 A. F. Izmaylov, J. Bloino, G. Zheng, J. L. Sonnenberg, M. Hada, 
 M. Ehara, K. Toyota, R. Fukuda, J. Hasegawa, M. Ishida, T. Nakajima, 
 Y. Honda, O. Kitao, H. Nakai, T. Vreven, J. A. Montgomery, Jr., 
 J. E. Peralta, F. Ogliaro, M. Bearpark, J. J. Heyd, E. Brothers, 
 K. N. Kudin, V. N. Staroverov, T. Keith, R. Kobayashi, J. Normand, 
 K. Raghavachari, A. Rendell, J. C. Burant, S. S. Iyengar, J. Tomasi, 
 M. Cossi, N. Rega, J. M. Millam, M. Klene, J. E. Knox, J. B. Cross, 
 V. Bakken, C. Adamo, J. Jaramillo, R. Gomperts, R. E. Stratmann, 
 O. Yazyev, A. J. Austin, R. Cammi, C. Pomelli, J. W. Ochterski, 
 R. L. Martin, K. Morokuma, V. G. Zakrzewski, G. A. Voth, 
 P. Salvador, J. J. Dannenberg, S. Dapprich, A. D. Daniels, 
 O. Farkas, J. B. Foresman, J. V. Ortiz, J. Cioslowski, 
 and D. J. Fox, Gaussian, Inc., Wallingford CT, 2013.
 
 ******************************************
 Gaussian 09:  EM64L-G09RevE.01 30-Nov-2015
                 8-Mar-2019 
 ******************************************
 %NProcShared=4
 Will use up to    4 processors via shared memory.
 --------------------------------------
 #p ccsd(t,maxcyc=200)/6-311++G(3df,2p)
 --------------------------------------
 1/38=1/1;
 2/12=2,17=6,18=5,40=1/2;
 3/5=4,6=6,7=1216,11=9,16=1,25=1,30=1/1,2,3;
 4//1;
 5/5=2,38=5/2;
 8/6=4,9=120000,10=2/1,4;
 9/5=7,6=200,14=2/13;
 6/7=2,8=2,9=2,10=2/1;
 99/5=1,9=1/99;
 Leave Link    1 at Fri Mar  8 19:10:51 2019, MaxMem=           0 cpu:         0.3
 (Enter /home/proyectos/fulerenos/M3C-v2.0/M3C-deps_CCC/g09-AM64L-G09RevC.01/l101.exe)
 -------------
 ccsd(t) iener
 -------------
 Symbolic Z-matrix:
 Charge = -1 Multiplicity = 2
 C                    -0.10261   1.53676  -0.50098 
 C                     0.32452   0.26885   0.12752 
 C                    -0.87103   0.22241  -0.76088 
 H                     1.96881   0.38905  -0.83403 
 H                    -0.78743  -0.23691  -1.74753 
 H                     0.19401   0.07479   1.19469 
 H                    -1.84831   0.03308  -0.30081 
 O                     1.58073  -0.31516  -0.29757 
 
 NAtoms=      8 NQM=        8 NQMF=       0 NMMI=      0 NMMIF=      0
                NMic=       0 NMicF=      0.
                    Isotopes and Nuclear Properties:
 (Nuclear quadrupole moments (NQMom) in fm**2, nuclear magnetic moments (NMagM)
  in nuclear magnetons)

  Atom         1           2           3           4           5           6           7           8
 IAtWgt=          12          12          12           1           1           1           1          16
 AtmWgt=  12.0000000  12.0000000  12.0000000   1.0078250   1.0078250   1.0078250   1.0078250  15.9949146
 NucSpn=           0           0           0           1           1           1           1           0
 AtZEff=   0.0000000   0.0000000   0.0000000   0.0000000   0.0000000   0.0000000   0.0000000   0.0000000
 NQMom=    0.0000000   0.0000000   0.0000000   0.0000000   0.0000000   0.0000000   0.0000000   0.0000000
 NMagM=    0.0000000   0.0000000   0.0000000   2.7928460   2.7928460   2.7928460   2.7928460   0.0000000
 AtZNuc=   6.0000000   6.0000000   6.0000000   1.0000000   1.0000000   1.0000000   1.0000000   8.0000000
 Leave Link  101 at Fri Mar  8 19:10:51 2019, MaxMem=    33554432 cpu:         0.6
 (Enter /home/proyectos/fulerenos/M3C-v2.0/M3C-deps_CCC/g09-AM64L-G09RevC.01/l202.exe)
                          Input orientation:                          
 ---------------------------------------------------------------------
 Center     Atomic      Atomic             Coordinates (Angstroms)
 Number     Number       Type             X           Y           Z
 ---------------------------------------------------------------------
      1          6           0       -0.102607    1.536763   -0.500978
      2          6           0        0.324524    0.268854    0.127515
      3          6           0       -0.871028    0.222407   -0.760883
      4          1           0        1.968806    0.389045   -0.834031
      5          1           0       -0.787429   -0.236908   -1.747532
      6          1           0        0.194009    0.074792    1.194688
      7          1           0       -1.848307    0.033081   -0.300805
      8          8           0        1.580727   -0.315161   -0.297574
 ---------------------------------------------------------------------
                    Distance matrix (angstroms):
                    1          2          3          4          5
     1  C    0.000000
     2  C    1.478187   0.000000
     3  C    1.544524   1.490219   0.000000
     4  H    2.391429   1.908581   2.845659   0.000000
     5  H    2.273497   2.237864   1.091529   2.970376   0.000000
     6  H    2.258456   1.092498   2.231670   2.713735   3.117216
     7  H    2.312703   2.227160   1.096627   3.870580   1.814215
     8  O    2.510898   1.449076   2.552398   0.966591   2.777889
                    6          7          8
     6  H    0.000000
     7  H    2.531658   0.000000
     8  O    2.074101   3.446673   0.000000
 Stoichiometry    C3H4O(1-,2)
 Framework group  C1[X(C3H4O)]
 Deg. of freedom    18
 Full point group                 C1      NOp   1
 Largest Abelian subgroup         C1      NOp   1
 Largest concise Abelian subgroup C1      NOp   1
                         Standard orientation:                         
 ---------------------------------------------------------------------
 Center     Atomic      Atomic             Coordinates (Angstroms)
 Number     Number       Type             X           Y           Z
 ---------------------------------------------------------------------
      1          6           0       -0.768269    0.999834   -0.168225
      2          6           0        0.143008    0.029348    0.474245
      3          6           0       -1.096896   -0.509246   -0.152898
      4          1           0        1.483629    0.500808   -0.799781
      5          1           0       -1.025663   -1.061699   -1.091597
      6          1           0        0.253934   -0.035471    1.559162
      7          1           0       -1.872913   -0.916849    0.506077
      8          8           0        1.436744   -0.200801   -0.136574
 ---------------------------------------------------------------------
 Rotational constants (GHZ):     19.5595625      7.2102784      6.3481566
 Leave Link  202 at Fri Mar  8 19:10:51 2019, MaxMem=    33554432 cpu:         0.2
 (Enter /home/proyectos/fulerenos/M3C-v2.0/M3C-deps_CCC/g09-AM64L-G09RevC.01/l301.exe)
 Standard basis: 6-311++G(3df,2p) (5D, 7F)
 Ernie: Thresh=  0.10000D-02 Tol=  0.10000D-05 Strict=F.
 There are   220 symmetry adapted cartesian basis functions of A   symmetry.
 There are   196 symmetry adapted basis functions of A   symmetry.
   196 basis functions,   280 primitive gaussians,   220 cartesian basis functions
    16 alpha electrons       15 beta electrons
       nuclear repulsion energy       107.2151058978 Hartrees.
 IExCor=    0 DFT=F Ex=HF Corr=None ExCW=0 ScaHFX=  1.000000
 ScaDFX=  1.000000  1.000000  1.000000  1.000000 ScalE2=  1.000000  1.000000
 IRadAn=      0 IRanWt=     -1 IRanGd=            0 ICorTp=0 IEmpDi=  4
 NAtoms=    8 NActive=    8 NUniq=    8 SFac= 1.00D+00 NAtFMM=   60 NAOKFM=F Big=F
 Integral buffers will be    131072 words long.
 Raffenetti 2 integral format.
 Two-electron integral symmetry is turned on.
 Leave Link  301 at Fri Mar  8 19:10:52 2019, MaxMem=    33554432 cpu:         0.4
 (Enter /home/proyectos/fulerenos/M3C-v2.0/M3C-deps_CCC/g09-AM64L-G09RevC.01/l302.exe)
 NPDir=0 NMtPBC=     1 NCelOv=     1 NCel=       1 NClECP=     1 NCelD=      1
         NCelK=      1 NCelE2=     1 NClLst=     1 CellRange=     0.0.
 One-electron integrals computed using PRISM.
 NBasis=   196 RedAO= T EigKep=  3.87D-05  NBF=   196
 NBsUse=   196 1.00D-06 EigRej= -1.00D+00 NBFU=   196
 Leave Link  302 at Fri Mar  8 19:10:52 2019, MaxMem=    33554432 cpu:         1.8
 (Enter /home/proyectos/fulerenos/M3C-v2.0/M3C-deps_CCC/g09-AM64L-G09RevC.01/l303.exe)
 DipDrv:  MaxL=1.
 Leave Link  303 at Fri Mar  8 19:10:53 2019, MaxMem=    33554432 cpu:         0.4
 (Enter /home/proyectos/fulerenos/M3C-v2.0/M3C-deps_CCC/g09-AM64L-G09RevC.01/l401.exe)
 ExpMin= 3.60D-02 ExpMax= 8.59D+03 ExpMxC= 1.30D+03 IAcc=3 IRadAn=         5 AccDes= 0.00D+00
 Harris functional with IExCor=  205 and IRadAn=       5 diagonalized for initial guess.
 HarFok:  IExCor=  205 AccDes= 0.00D+00 IRadAn=         5 IDoV= 1 UseB2=F ITyADJ=14
 ICtDFT=  3500011 ScaDFX=  1.000000  1.000000  1.000000  1.000000
 FoFCou: FMM=F IPFlag=           0 FMFlag=      100000 FMFlg1=           0
         NFxFlg=           0 DoJE=T BraDBF=F KetDBF=T FulRan=T
         wScrn=  0.000000 ICntrl=     500 IOpCl=  0 I1Cent=   200000004 NGrid=           0
         NMat0=    1 NMatS0=      1 NMatT0=    0 NMatD0=    1 NMtDS0=    0 NMtDT0=    0
 Petite list used in FoFCou.
 Harris En= -191.127963490166    
 JPrj=0 DoOrth=F DoCkMO=F.
 Initial guess <Sx>= 0.0000 <Sy>= 0.0000 <Sz>= 0.5000 <S**2>= 0.7500 S= 0.5000
 Leave Link  401 at Fri Mar  8 19:10:55 2019, MaxMem=    33554432 cpu:         7.1
 (Enter /home/proyectos/fulerenos/M3C-v2.0/M3C-deps_CCC/g09-AM64L-G09RevC.01/l502.exe)
 UHF open shell SCF:
 Using DIIS extrapolation, IDIIS=  1040.
 Integral symmetry usage will be decided dynamically.
 IVT=      166662 IEndB=      166662 NGot=    33554432 MDV=    33453031
 LenX=    33453031 LenY=    33404190
 Requested convergence on RMS density matrix=1.00D-08 within 128 cycles.
 Requested convergence on MAX density matrix=1.00D-06.
 Requested convergence on             energy=1.00D-06.
 No special actions if energy rises.
 Fock matrices will be formed incrementally for  20 cycles.

 Cycle   1  Pass 0  IDiag  1:
 FoFJK:  IHMeth= 1 ICntrl=       0 DoSepK=F KAlg= 0 I1Cent=   0 FoldK=F
 IRaf= 990000000 NMat=   1 IRICut=       1 DoRegI=T DoRafI=F ISym2E= 0.
 FoFCou: FMM=F IPFlag=           0 FMFlag=      100000 FMFlg1=           0
         NFxFlg=           0 DoJE=F BraDBF=F KetDBF=F FulRan=T
         wScrn=  0.000000 ICntrl=       0 IOpCl=  1 I1Cent=           0 NGrid=           0
         NMat0=    1 NMatS0=      1 NMatT0=    0 NMatD0=    1 NMtDS0=    0 NMtDT0=    0
 Symmetry not used in FoFCou.
 E= -190.410142482383    
 DIIS: error= 2.94D-02 at cycle   1 NSaved=   1.
 NSaved= 1 IEnMin= 1 EnMin= -190.410142482383     IErMin= 1 ErrMin= 2.94D-02
 ErrMax= 2.94D-02  0.00D+00 EMaxC= 1.00D-01 BMatC= 1.83D+00 BMatP= 1.83D+00
 IDIUse=3 WtCom= 7.06D-01 WtEn= 2.94D-01
 Coeff-Com:  0.100D+01
 Coeff-En:   0.100D+01
 Coeff:      0.100D+01
 Gap=     0.216 Goal=   None    Shift=    0.000
 Gap=     0.480 Goal=   None    Shift=    0.000
 GapD=    0.216 DampG=1.000 DampE=0.500 DampFc=0.5000 IDamp=-1.
 Damping current iteration by 5.00D-01
 RMSDP=1.10D-02 MaxDP=7.02D-01              OVMax= 2.43D-01

 Cycle   2  Pass 0  IDiag  1:
 RMSU=  5.42D-03    CP:  9.36D-01
 E= -190.559281059271     Delta-E=       -0.149138576888 Rises=F Damp=T
 DIIS: error= 1.39D-02 at cycle   2 NSaved=   2.
 NSaved= 2 IEnMin= 2 EnMin= -190.559281059271     IErMin= 2 ErrMin= 1.39D-02
 ErrMax= 1.39D-02  0.00D+00 EMaxC= 1.00D-01 BMatC= 3.33D-01 BMatP= 1.83D+00
 IDIUse=3 WtCom= 8.61D-01 WtEn= 1.39D-01
 Coeff-Com: -0.517D+00 0.152D+01
 Coeff-En:   0.000D+00 0.100D+01
 Coeff:     -0.445D+00 0.145D+01
 Gap=     0.261 Goal=   None    Shift=    0.000
 Gap=     0.273 Goal=   None    Shift=    0.000
 RMSDP=3.31D-03 MaxDP=2.44D-01 DE=-1.49D-01 OVMax= 1.09D-01

 Cycle   3  Pass 0  IDiag  1:
 RMSU=  2.70D-03    CP:  8.55D-01  7.26D-01
 E= -190.693970024410     Delta-E=       -0.134688965139 Rises=F Damp=F
 DIIS: error= 4.06D-03 at cycle   3 NSaved=   3.
 NSaved= 3 IEnMin= 3 EnMin= -190.693970024410     IErMin= 3 ErrMin= 4.06D-03
 ErrMax= 4.06D-03  0.00D+00 EMaxC= 1.00D-01 BMatC= 1.09D-02 BMatP= 3.33D-01
 IDIUse=3 WtCom= 9.59D-01 WtEn= 4.06D-02
 Coeff-Com: -0.134D+00 0.222D+00 0.912D+00
 Coeff-En:   0.000D+00 0.000D+00 0.100D+01
 Coeff:     -0.129D+00 0.213D+00 0.916D+00
 Gap=     0.249 Goal=   None    Shift=    0.000
 Gap=     0.257 Goal=   None    Shift=    0.000
 RMSDP=6.40D-04 MaxDP=3.93D-02 DE=-1.35D-01 OVMax= 1.71D-02

 Cycle   4  Pass 0  IDiag  1:
 RMSU=  5.18D-04    CP:  8.44D-01  7.16D-01  1.12D+00
 E= -190.697174848617     Delta-E=       -0.003204824207 Rises=F Damp=F
 DIIS: error= 7.78D-04 at cycle   4 NSaved=   4.
 NSaved= 4 IEnMin= 4 EnMin= -190.697174848617     IErMin= 4 ErrMin= 7.78D-04
 ErrMax= 7.78D-04  0.00D+00 EMaxC= 1.00D-01 BMatC= 4.80D-04 BMatP= 1.09D-02
 IDIUse=3 WtCom= 9.92D-01 WtEn= 7.78D-03
 Coeff-Com:  0.201D-01-0.411D-01-0.132D+00 0.115D+01
 Coeff-En:   0.000D+00 0.000D+00 0.000D+00 0.100D+01
 Coeff:      0.199D-01-0.407D-01-0.131D+00 0.115D+01
 Gap=     0.255 Goal=   None    Shift=    0.000
 Gap=     0.257 Goal=   None    Shift=    0.000
 RMSDP=5.14D-04 MaxDP=2.35D-02 DE=-3.20D-03 OVMax= 1.40D-02

 Cycle   5  Pass 0  IDiag  1:
 RMSU=  1.36D-04    CP:  8.44D-01  6.58D-01  1.18D+00  1.67D+00
 E= -190.697587426214     Delta-E=       -0.000412577598 Rises=F Damp=F
 DIIS: error= 3.37D-04 at cycle   5 NSaved=   5.
 NSaved= 5 IEnMin= 5 EnMin= -190.697587426214     IErMin= 5 ErrMin= 3.37D-04
 ErrMax= 3.37D-04  0.00D+00 EMaxC= 1.00D-01 BMatC= 1.28D-04 BMatP= 4.80D-04
 IDIUse=3 WtCom= 9.97D-01 WtEn= 3.37D-03
 Coeff-Com:  0.185D-01-0.300D-01-0.140D+00-0.714D-02 0.116D+01
 Coeff-En:   0.000D+00 0.000D+00 0.000D+00 0.000D+00 0.100D+01
 Coeff:      0.184D-01-0.299D-01-0.139D+00-0.712D-02 0.116D+01
 Gap=     0.258 Goal=   None    Shift=    0.000
 Gap=     0.256 Goal=   None    Shift=    0.000
 RMSDP=2.77D-04 MaxDP=1.41D-02 DE=-4.13D-04 OVMax= 9.78D-03

 Cycle   6  Pass 0  IDiag  1:
 RMSU=  7.64D-05    CP:  8.44D-01  6.34D-01  1.20D+00  2.07D+00  1.66D+00
 E= -190.697716963632     Delta-E=       -0.000129537418 Rises=F Damp=F
 DIIS: error= 1.61D-04 at cycle   6 NSaved=   6.
 NSaved= 6 IEnMin= 6 EnMin= -190.697716963632     IErMin= 6 ErrMin= 1.61D-04
 ErrMax= 1.61D-04  0.00D+00 EMaxC= 1.00D-01 BMatC= 2.97D-05 BMatP= 1.28D-04
 IDIUse=3 WtCom= 9.98D-01 WtEn= 1.61D-03
 Coeff-Com: -0.437D-02 0.864D-02 0.280D-01-0.200D+00-0.528D-02 0.117D+01
 Coeff-En:   0.000D+00 0.000D+00 0.000D+00 0.000D+00 0.000D+00 0.100D+01
 Coeff:     -0.436D-02 0.862D-02 0.279D-01-0.199D+00-0.527D-02 0.117D+01
 Gap=     0.259 Goal=   None    Shift=    0.000
 Gap=     0.256 Goal=   None    Shift=    0.000
 RMSDP=1.23D-04 MaxDP=6.27D-03 DE=-1.30D-04 OVMax= 5.28D-03

 Cycle   7  Pass 0  IDiag  1:
 RMSU=  3.29D-05    CP:  8.44D-01  6.28D-01  1.21D+00  2.20D+00  2.06D+00
                    CP:  1.94D+00
 E= -190.697752803213     Delta-E=       -0.000035839580 Rises=F Damp=F
 DIIS: error= 9.59D-05 at cycle   7 NSaved=   7.
 NSaved= 7 IEnMin= 7 EnMin= -190.697752803213     IErMin= 7 ErrMin= 9.59D-05
 ErrMax= 9.59D-05  0.00D+00 EMaxC= 1.00D-01 BMatC= 8.95D-06 BMatP= 2.97D-05
 IDIUse=1 WtCom= 1.00D+00 WtEn= 0.00D+00
 Coeff-Com: -0.409D-02 0.644D-02 0.292D-01 0.642D-01-0.315D+00-0.351D+00
 Coeff-Com:  0.157D+01
 Coeff:     -0.409D-02 0.644D-02 0.292D-01 0.642D-01-0.315D+00-0.351D+00
 Coeff:      0.157D+01
 Gap=     0.260 Goal=   None    Shift=    0.000
 Gap=     0.255 Goal=   None    Shift=    0.000
 RMSDP=9.01D-05 MaxDP=4.77D-03 DE=-3.58D-05 OVMax= 3.66D-03

 Cycle   8  Pass 0  IDiag  1:
 RMSU=  1.77D-05    CP:  8.44D-01  6.27D-01  1.20D+00  2.25D+00  2.28D+00
                    CP:  2.86D+00  2.11D+00
 E= -190.697767963115     Delta-E=       -0.000015159902 Rises=F Damp=F
 DIIS: error= 4.46D-05 at cycle   8 NSaved=   8.
 NSaved= 8 IEnMin= 8 EnMin= -190.697767963115     IErMin= 8 ErrMin= 4.46D-05
 ErrMax= 4.46D-05  0.00D+00 EMaxC= 1.00D-01 BMatC= 2.04D-06 BMatP= 8.95D-06
 IDIUse=1 WtCom= 1.00D+00 WtEn= 0.00D+00
 Coeff-Com:  0.158D-02-0.289D-02-0.990D-02 0.398D-01 0.278D-01-0.242D+00
 Coeff-Com: -0.132D+00 0.132D+01
 Coeff:      0.158D-02-0.289D-02-0.990D-02 0.398D-01 0.278D-01-0.242D+00
 Coeff:     -0.132D+00 0.132D+01
 Gap=     0.260 Goal=   None    Shift=    0.000
 Gap=     0.255 Goal=   None    Shift=    0.000
 RMSDP=3.91D-05 MaxDP=2.66D-03 DE=-1.52D-05 OVMax= 1.84D-03

 Cycle   9  Pass 0  IDiag  1:
 RMSU=  1.76D-05    CP:  8.44D-01  6.26D-01  1.20D+00  2.25D+00  2.33D+00
                    CP:  3.00D+00  2.71D+00  1.97D+00
 E= -190.697771478039     Delta-E=       -0.000003514924 Rises=F Damp=F
 DIIS: error= 2.86D-05 at cycle   9 NSaved=   9.
 NSaved= 9 IEnMin= 9 EnMin= -190.697771478039     IErMin= 9 ErrMin= 2.86D-05
 ErrMax= 2.86D-05  0.00D+00 EMaxC= 1.00D-01 BMatC= 5.95D-07 BMatP= 2.04D-06
 IDIUse=1 WtCom= 1.00D+00 WtEn= 0.00D+00
 Coeff-Com:  0.135D-02-0.220D-02-0.866D-02-0.167D-01 0.959D-01 0.876D-01
 Coeff-Com: -0.462D+00 0.980D-01 0.121D+01
 Coeff:      0.135D-02-0.220D-02-0.866D-02-0.167D-01 0.959D-01 0.876D-01
 Coeff:     -0.462D+00 0.980D-01 0.121D+01
 Gap=     0.261 Goal=   None    Shift=    0.000
 Gap=     0.255 Goal=   None    Shift=    0.000
 RMSDP=1.84D-05 MaxDP=1.40D-03 DE=-3.51D-06 OVMax= 9.73D-04

 Cycle  10  Pass 0  IDiag  1:
 RMSU=  4.44D-06    CP:  8.43D-01  6.26D-01  1.20D+00  2.25D+00  2.32D+00
                    CP:  3.00D+00  2.98D+00  2.61D+00  1.52D+00
 E= -190.697772364257     Delta-E=       -0.000000886219 Rises=F Damp=F
 DIIS: error= 1.57D-05 at cycle  10 NSaved=  10.
 NSaved=10 IEnMin=10 EnMin= -190.697772364257     IErMin=10 ErrMin= 1.57D-05
 ErrMax= 1.57D-05  0.00D+00 EMaxC= 1.00D-01 BMatC= 1.30D-07 BMatP= 5.95D-07
 IDIUse=1 WtCom= 1.00D+00 WtEn= 0.00D+00
 Coeff-Com: -0.134D-03 0.294D-03 0.124D-02-0.104D-01 0.181D-02 0.679D-01
 Coeff-Com: -0.472D-02-0.352D+00 0.918D-01 0.120D+01
 Coeff:     -0.134D-03 0.294D-03 0.124D-02-0.104D-01 0.181D-02 0.679D-01
 Coeff:     -0.472D-02-0.352D+00 0.918D-01 0.120D+01
 Gap=     0.261 Goal=   None    Shift=    0.000
 Gap=     0.255 Goal=   None    Shift=    0.000
 RMSDP=8.59D-06 MaxDP=5.50D-04 DE=-8.86D-07 OVMax= 5.71D-04

 Initial convergence to 1.0D-05 achieved.  Increase integral accuracy.
 Cycle  11  Pass 1  IDiag  1:
 E= -190.697772567713     Delta-E=       -0.000000203456 Rises=F Damp=F
 DIIS: error= 4.85D-06 at cycle   1 NSaved=   1.
 NSaved= 1 IEnMin= 1 EnMin= -190.697772567713     IErMin= 1 ErrMin= 4.85D-06
 ErrMax= 4.85D-06  0.00D+00 EMaxC= 1.00D-01 BMatC= 1.88D-08 BMatP= 1.88D-08
 IDIUse=1 WtCom= 1.00D+00 WtEn= 0.00D+00
 Coeff-Com:  0.100D+01
 Coeff:      0.100D+01
 Gap=     0.261 Goal=   None    Shift=    0.000
 Gap=     0.255 Goal=   None    Shift=    0.000
 RMSDP=8.59D-06 MaxDP=5.50D-04 DE=-2.03D-07 OVMax= 8.43D-05

 Cycle  12  Pass 1  IDiag  1:
 RMSU=  2.47D-06    CP:  1.00D+00
 E= -190.697772585031     Delta-E=       -0.000000017318 Rises=F Damp=F
 DIIS: error= 3.58D-06 at cycle   2 NSaved=   2.
 NSaved= 2 IEnMin= 2 EnMin= -190.697772585031     IErMin= 2 ErrMin= 3.58D-06
 ErrMax= 3.58D-06  0.00D+00 EMaxC= 1.00D-01 BMatC= 7.86D-09 BMatP= 1.88D-08
 IDIUse=1 WtCom= 1.00D+00 WtEn= 0.00D+00
 Coeff-Com: -0.490D+00 0.149D+01
 Coeff:     -0.490D+00 0.149D+01
 Gap=     0.261 Goal=   None    Shift=    0.000
 Gap=     0.255 Goal=   None    Shift=    0.000
 RMSDP=2.21D-06 MaxDP=1.20D-04 DE=-1.73D-08 OVMax= 9.63D-05

 Cycle  13  Pass 1  IDiag  1:
 RMSU=  4.54D-07    CP:  1.00D+00  1.88D+00
 E= -190.697772595678     Delta-E=       -0.000000010647 Rises=F Damp=F
 DIIS: error= 1.88D-06 at cycle   3 NSaved=   3.
 NSaved= 3 IEnMin= 3 EnMin= -190.697772595678     IErMin= 3 ErrMin= 1.88D-06
 ErrMax= 1.88D-06  0.00D+00 EMaxC= 1.00D-01 BMatC= 3.17D-09 BMatP= 7.86D-09
 IDIUse=1 WtCom= 1.00D+00 WtEn= 0.00D+00
 Coeff-Com: -0.593D+00 0.469D+00 0.112D+01
 Coeff:     -0.593D+00 0.469D+00 0.112D+01
 Gap=     0.261 Goal=   None    Shift=    0.000
 Gap=     0.255 Goal=   None    Shift=    0.000
 RMSDP=1.75D-06 MaxDP=1.02D-04 DE=-1.06D-08 OVMax= 8.55D-05

 Cycle  14  Pass 1  IDiag  1:
 RMSU=  2.68D-07    CP:  1.00D+00  2.55D+00  1.98D+00
 E= -190.697772600340     Delta-E=       -0.000000004662 Rises=F Damp=F
 DIIS: error= 8.51D-07 at cycle   4 NSaved=   4.
 NSaved= 4 IEnMin= 4 EnMin= -190.697772600340     IErMin= 4 ErrMin= 8.51D-07
 ErrMax= 8.51D-07  0.00D+00 EMaxC= 1.00D-01 BMatC= 5.20D-10 BMatP= 3.17D-09
 IDIUse=1 WtCom= 1.00D+00 WtEn= 0.00D+00
 Coeff-Com:  0.997D-01-0.239D+00-0.812D-01 0.122D+01
 Coeff:      0.997D-01-0.239D+00-0.812D-01 0.122D+01
 Gap=     0.261 Goal=   None    Shift=    0.000
 Gap=     0.255 Goal=   None    Shift=    0.000
 RMSDP=5.38D-07 MaxDP=3.08D-05 DE=-4.66D-09 OVMax= 3.67D-05

 Cycle  15  Pass 1  IDiag  1:
 RMSU=  1.20D-07    CP:  1.00D+00  2.68D+00  2.66D+00  1.97D+00
 E= -190.697772601244     Delta-E=       -0.000000000904 Rises=F Damp=F
 DIIS: error= 4.38D-07 at cycle   5 NSaved=   5.
 NSaved= 5 IEnMin= 5 EnMin= -190.697772601244     IErMin= 5 ErrMin= 4.38D-07
 ErrMax= 4.38D-07  0.00D+00 EMaxC= 1.00D-01 BMatC= 1.80D-10 BMatP= 5.20D-10
 IDIUse=1 WtCom= 1.00D+00 WtEn= 0.00D+00
 Coeff-Com:  0.219D+00-0.138D+00-0.441D+00-0.277D+00 0.164D+01
 Coeff:      0.219D+00-0.138D+00-0.441D+00-0.277D+00 0.164D+01
 Gap=     0.261 Goal=   None    Shift=    0.000
 Gap=     0.255 Goal=   None    Shift=    0.000
 RMSDP=4.90D-07 MaxDP=3.24D-05 DE=-9.04D-10 OVMax= 3.17D-05

 Cycle  16  Pass 1  IDiag  1:
 RMSU=  1.54D-07    CP:  1.00D+00  2.73D+00  3.00D+00  3.00D+00  2.44D+00
 E= -190.697772601665     Delta-E=       -0.000000000421 Rises=F Damp=F
 DIIS: error= 1.80D-07 at cycle   6 NSaved=   6.
 NSaved= 6 IEnMin= 6 EnMin= -190.697772601665     IErMin= 6 ErrMin= 1.80D-07
 ErrMax= 1.80D-07  0.00D+00 EMaxC= 1.00D-01 BMatC= 3.08D-11 BMatP= 1.80D-10
 IDIUse=1 WtCom= 1.00D+00 WtEn= 0.00D+00
 Coeff-Com: -0.109D+00 0.103D+00 0.199D+00-0.142D+00-0.602D+00 0.155D+01
 Coeff:     -0.109D+00 0.103D+00 0.199D+00-0.142D+00-0.602D+00 0.155D+01
 Gap=     0.261 Goal=   None    Shift=    0.000
 Gap=     0.255 Goal=   None    Shift=    0.000
 RMSDP=1.90D-07 MaxDP=1.26D-05 DE=-4.21D-10 OVMax= 1.06D-05

 Cycle  17  Pass 1  IDiag  1:
 RMSU=  1.14D-07    CP:  1.00D+00  2.74D+00  3.00D+00  3.00D+00  3.00D+00
                    CP:  1.74D+00
 E= -190.697772601728     Delta-E=       -0.000000000063 Rises=F Damp=F
 DIIS: error= 9.71D-08 at cycle   7 NSaved=   7.
 NSaved= 7 IEnMin= 7 EnMin= -190.697772601728     IErMin= 7 ErrMin= 9.71D-08
 ErrMax= 9.71D-08  0.00D+00 EMaxC= 1.00D-01 BMatC= 7.01D-12 BMatP= 3.08D-11
 IDIUse=1 WtCom= 1.00D+00 WtEn= 0.00D+00
 Coeff-Com: -0.707D-01 0.528D-01 0.135D+00 0.302D-01-0.463D+00 0.237D+00
 Coeff-Com:  0.108D+01
 Coeff:     -0.707D-01 0.528D-01 0.135D+00 0.302D-01-0.463D+00 0.237D+00
 Coeff:      0.108D+01
 Gap=     0.261 Goal=   None    Shift=    0.000
 Gap=     0.255 Goal=   None    Shift=    0.000
 RMSDP=7.54D-08 MaxDP=4.11D-06 DE=-6.25D-11 OVMax= 3.99D-06

 Cycle  18  Pass 1  IDiag  1:
 RMSU=  2.79D-08    CP:  1.00D+00  2.74D+00  3.00D+00  3.00D+00  3.00D+00
                    CP:  2.00D+00  1.49D+00
 E= -190.697772601740     Delta-E=       -0.000000000012 Rises=F Damp=F
 DIIS: error= 7.25D-08 at cycle   8 NSaved=   8.
 NSaved= 8 IEnMin= 8 EnMin= -190.697772601740     IErMin= 8 ErrMin= 7.25D-08
 ErrMax= 7.25D-08  0.00D+00 EMaxC= 1.00D-01 BMatC= 1.63D-12 BMatP= 7.01D-12
 IDIUse=1 WtCom= 1.00D+00 WtEn= 0.00D+00
 Coeff-Com:  0.512D-01-0.407D-01-0.990D-01 0.113D-01 0.337D+00-0.468D+00
 Coeff-Com: -0.404D+00 0.161D+01
 Coeff:      0.512D-01-0.407D-01-0.990D-01 0.113D-01 0.337D+00-0.468D+00
 Coeff:     -0.404D+00 0.161D+01
 Gap=     0.261 Goal=   None    Shift=    0.000
 Gap=     0.255 Goal=   None    Shift=    0.000
 RMSDP=3.33D-08 MaxDP=1.44D-06 DE=-1.19D-11 OVMax= 2.42D-06

 Cycle  19  Pass 1  IDiag  1:
 RMSU=  1.81D-08    CP:  1.00D+00  2.74D+00  3.00D+00  3.00D+00  3.00D+00
                    CP:  2.10D+00  1.65D+00  1.53D+00
 E= -190.697772601742     Delta-E=       -0.000000000003 Rises=F Damp=F
 DIIS: error= 4.77D-08 at cycle   9 NSaved=   9.
 NSaved= 9 IEnMin= 9 EnMin= -190.697772601742     IErMin= 9 ErrMin= 4.77D-08
 ErrMax= 4.77D-08  0.00D+00 EMaxC= 1.00D-01 BMatC= 4.51D-13 BMatP= 1.63D-12
 IDIUse=1 WtCom= 1.00D+00 WtEn= 0.00D+00
 Coeff-Com: -0.196D-01 0.174D-01 0.349D-01-0.174D-01-0.108D+00 0.231D+00
 Coeff-Com:  0.178D-01-0.874D+00 0.172D+01
 Coeff:     -0.196D-01 0.174D-01 0.349D-01-0.174D-01-0.108D+00 0.231D+00
 Coeff:      0.178D-01-0.874D+00 0.172D+01
 Gap=     0.261 Goal=   None    Shift=    0.000
 Gap=     0.255 Goal=   None    Shift=    0.000
 RMSDP=1.04D-08 MaxDP=5.08D-07 DE=-2.56D-12 OVMax= 1.54D-06

 Cycle  20  Pass 1  IDiag  1:
 RMSU=  7.60D-09    CP:  1.00D+00  2.74D+00  3.00D+00  3.00D+00  3.00D+00
                    CP:  2.11D+00  1.65D+00  1.59D+00  1.35D+00
 E= -190.697772601743     Delta-E=       -0.000000000001 Rises=F Damp=F
 DIIS: error= 3.07D-08 at cycle  10 NSaved=  10.
 NSaved=10 IEnMin=10 EnMin= -190.697772601743     IErMin=10 ErrMin= 3.07D-08
 ErrMax= 3.07D-08  0.00D+00 EMaxC= 1.00D-01 BMatC= 1.75D-13 BMatP= 4.51D-13
 IDIUse=1 WtCom= 1.00D+00 WtEn= 0.00D+00
 Coeff-Com: -0.183D-01 0.152D-01 0.347D-01-0.542D-02-0.116D+00 0.150D+00
 Coeff-Com:  0.157D+00-0.414D+00-0.640D+00 0.184D+01
 Coeff:     -0.183D-01 0.152D-01 0.347D-01-0.542D-02-0.116D+00 0.150D+00
 Coeff:      0.157D+00-0.414D+00-0.640D+00 0.184D+01
 Gap=     0.261 Goal=   None    Shift=    0.000
 Gap=     0.255 Goal=   None    Shift=    0.000
 RMSDP=1.01D-08 MaxDP=3.65D-07 DE=-1.25D-12 OVMax= 1.50D-06

 Cycle  21  Pass 1  IDiag  1:
 RMSU=  3.80D-09    CP:  1.00D+00  2.74D+00  3.00D+00  3.00D+00  3.00D+00
                    CP:  2.09D+00  1.63D+00  1.58D+00  1.44D+00  2.13D+00
 E= -190.697772601742     Delta-E=        0.000000000002 Rises=F Damp=F
 DIIS: error= 1.34D-08 at cycle  11 NSaved=  11.
 NSaved=11 IEnMin=10 EnMin= -190.697772601743     IErMin=11 ErrMin= 1.34D-08
 ErrMax= 1.34D-08  0.00D+00 EMaxC= 1.00D-01 BMatC= 4.56D-14 BMatP= 1.75D-13
 IDIUse=1 WtCom= 1.00D+00 WtEn= 0.00D+00
 Coeff-Com:  0.518D-02-0.443D-02-0.950D-02 0.369D-02 0.324D-01-0.669D-01
 Coeff-Com: -0.116D-01 0.255D+00-0.508D+00 0.946D-01 0.121D+01
 Coeff:      0.518D-02-0.443D-02-0.950D-02 0.369D-02 0.324D-01-0.669D-01
 Coeff:     -0.116D-01 0.255D+00-0.508D+00 0.946D-01 0.121D+01
 Gap=     0.261 Goal=   None    Shift=    0.000
 Gap=     0.255 Goal=   None    Shift=    0.000
 RMSDP=5.19D-09 MaxDP=2.69D-07 DE= 1.53D-12 OVMax= 6.23D-07

 SCF Done:  E(UHF) =  -190.697772602     A.U. after   21 cycles
            NFock= 21  Conv=0.52D-08     -V/T= 2.0010
 <Sx>= 0.0000 <Sy>= 0.0000 <Sz>= 0.5000 <S**2>= 0.7686 S= 0.5093
 <L.S>= 0.000000000000E+00
 KE= 1.905097269747D+02 PE=-6.687604694653D+02 EE= 1.803378639911D+02
 Annihilation of the first spin contaminant:
 S**2 before annihilation     0.7686,   after     0.7502
 Leave Link  502 at Fri Mar  8 19:13:07 2019, MaxMem=    33554432 cpu:       524.1
 (Enter /home/proyectos/fulerenos/M3C-v2.0/M3C-deps_CCC/g09-AM64L-G09RevC.01/l801.exe)
 Windowed orbitals will be sorted by symmetry type.
 ExpMin= 3.60D-02 ExpMax= 8.59D+03 ExpMxC= 1.30D+03 IAcc=3 IRadAn=         5 AccDes= 0.00D+00
 HarFok:  IExCor=  205 AccDes= 0.00D+00 IRadAn=         5 IDoV=-2 UseB2=F ITyADJ=14
 ICtDFT= 12500011 ScaDFX=  1.000000  1.000000  1.000000  1.000000
 Largest valence mixing into a core orbital is  1.41D-04
 Largest core mixing into a valence orbital is  3.45D-05
 Largest valence mixing into a core orbital is  1.85D-04
 Largest core mixing into a valence orbital is  3.81D-05
 Range of M.O.s used for correlation:     5   196
 NBasis=   196 NAE=    16 NBE=    15 NFC=     4 NFV=     0
 NROrb=    192 NOA=    12 NOB=    11 NVA=   180 NVB=   181

 **** Warning!!: The largest alpha MO coefficient is  0.60122478D+02


 **** Warning!!: The largest beta MO coefficient is  0.45387990D+02

 Leave Link  801 at Fri Mar  8 19:13:07 2019, MaxMem=    33554432 cpu:         1.0
 (Enter /home/proyectos/fulerenos/M3C-v2.0/M3C-deps_CCC/g09-AM64L-G09RevC.01/l804.exe)
 Open-shell transformation, MDV=    33554432 ITran=4 ISComp=1.
 Semi-Direct transformation.
 ModeAB=           2 MOrb=            12 LenV=      32364061
 LASXX=     40671231 LTotXX=    40671231 LenRXX=    40671231
 LTotAB=    41465664 MaxLAS=    56010240 LenRXY=    56010240
 NonZer=    81342462 LenScr=   123535360 LnRSAI=           0
 LnScr1=           0 LExtra=           0 Total=    220216831
 MaxDsk=          -1 SrtSym=           F ITran=            4
 DoSDTr:  NPSUse=  4
 JobTyp=1 Pass  1:  I=   1 to  12.
 Complete sort for first half transformation.
 First half transformation complete.
 Begin second half transformation for I=  10.
 Begin second half transformation for I=  10.
 Complete sort for second half transformation.
 Second half transformation complete.
 ModeAB=           2 MOrb=            11 LenV=      32364061
 LASXX=     37404466 LTotXX=    37404466 LenRXX=    51342720
 LTotAB=    33508530 MaxLAS=    51342720 LenRXY=    33508530
 NonZer=    74808932 LenScr=   113739776 LnRSAI=           0
 LnScr1=           0 LExtra=           0 Total=    198591026
 MaxDsk=          -1 SrtSym=           F ITran=            4
 DoSDTr:  NPSUse=  4
 JobTyp=2 Pass  1:  I=   1 to  11.
 Complete sort for first half transformation.
 First half transformation complete.
 Begin second half transformation for I=  10.
 Begin second half transformation for I=  10.
 Complete sort for second half transformation.
 Second half transformation complete.
 SymMOI:  orbitals are not symmetric.
 Spin components of T(2) and E(2):
     alpha-alpha T2 =       0.3296553471D-01 E2=     -0.9872266915D-01
     alpha-beta  T2 =       0.1661416854D+00 E2=     -0.5442183099D+00
     beta-beta   T2 =       0.2716298442D-01 E2=     -0.8376913095D-01
 ANorm=    0.1107370852D+01
 E2 =    -0.7267101100D+00 EUMP2 =    -0.19142448271174D+03
 (S**2,0)=  0.76860D+00           (S**2,1)=  0.75722D+00
 E(PUHF)=      -0.19070119274D+03        E(PMP2)=      -0.19142686369D+03
 Leave Link  804 at Fri Mar  8 19:15:25 2019, MaxMem=    33554432 cpu:       550.0
 (Enter /home/proyectos/fulerenos/M3C-v2.0/M3C-deps_CCC/g09-AM64L-G09RevC.01/l913.exe)
 CIDS:  MDV=    33554432.
 Frozen-core window:  NFC=   4 NFV=   0.
 IFCWin=0 IBDFC=1 NFBD=     0     0 NFCmp=     0     0 NFFFC=     0     0
 Using original routines for 1st iteration, S=T.
 Using DD4UQ or CC4UQ for 2nd and later iterations.
 Would need an additional       344585459 words for in-memory AO integral storage.
 CCSD(T)
 =======
 Iterations= 200 Convergence= 0.100D-06
 Iteration Nr.   1
 **********************
 DD1Dir will call FoFJK   6 times, MxPair=        66
 NAB=   132 NAA=    66 NBB=    55 NumPrc=  4.
 DD1Dir:  Pass   1 NRAB=    33 NRAA=     0 NRBB=     0 NR=    66.
 FoFJK:  IHMeth= 1 ICntrl=     200 DoSepK=F KAlg= 0 I1Cent=   0 FoldK=F
 IRaf= 990000000 NMat=  66 IRICut=      82 DoRegI=T DoRafI=T ISym2E= 2.
 FoFCou: FMM=F IPFlag=           0 FMFlag=      100000 FMFlg1=           0
         NFxFlg=           0 DoJE=F BraDBF=F KetDBF=F FulRan=T
         wScrn=  0.000000 ICntrl=     200 IOpCl=  0 I1Cent=           0 NGrid=           0
         NMat0=   66 NMatS0=      0 NMatT0=   33 NMatD0=   66 NMtDS0=    0 NMtDT0=    0
 Integrals replicated using symmetry in FoFCou.
 DD1Dir:  Pass   2 NRAB=    33 NRAA=     0 NRBB=     0 NR=    66.
 DD1Dir:  Pass   3 NRAB=    33 NRAA=     0 NRBB=     0 NR=    66.
 DD1Dir:  Pass   4 NRAB=    33 NRAA=     0 NRBB=     0 NR=    66.
 DD1Dir:  Pass   5 NRAB=     0 NRAA=    66 NRBB=     0 NR=    66.
 DD1Dir:  Pass   6 NRAB=     0 NRAA=     0 NRBB=    55 NR=    55.
 E(PMP3)=      -0.19144542314D+03
 MP4(R+Q)=  0.18117240D-01
 Maximum subspace dimension=  5
 Norm of the A-vectors is  1.0311119D+00 conv= 1.00D-05.
 RLE energy=       -0.7278221998
 E3=       -0.19378986D-01        EUMP3=      -0.19144386170D+03
 E4(DQ)=    0.20287402D-02        UMP4(DQ)=   -0.19144183296D+03
 E4(SDQ)=  -0.53434836D-02        UMP4(SDQ)=  -0.19144920518D+03
 VARIATIONAL ENERGIES WITH THE FIRST-ORDER WAVEFUNCTION:
 DE(Corr)= -0.72782053     E(Corr)=     -191.42559313    
 NORM(A)=   0.11109066D+01
 Iteration Nr.   2
 **********************
 DD1Dir will call FoFJK   6 times, MxPair=        66
 NAB=   132 NAA=    66 NBB=    55 NumPrc=  4.
 DD1Dir:  Pass   1 NRAB=    33 NRAA=     0 NRBB=     0 NR=    66.
 DD1Dir:  Pass   2 NRAB=    33 NRAA=     0 NRBB=     0 NR=    66.
 DD1Dir:  Pass   3 NRAB=    33 NRAA=     0 NRBB=     0 NR=    66.
 DD1Dir:  Pass   4 NRAB=    33 NRAA=     0 NRBB=     0 NR=    66.
 DD1Dir:  Pass   5 NRAB=     0 NRAA=    66 NRBB=     0 NR=    66.
 DD1Dir:  Pass   6 NRAB=     0 NRAA=     0 NRBB=    55 NR=    55.
 Norm of the A-vectors is  3.8242378D-01 conv= 1.00D-05.
 RLE energy=       -0.7491246736
 DE(Corr)= -0.74734241     E(CORR)=     -191.44511501     Delta=-1.95D-02
 NORM(A)=   0.11204335D+01
 Iteration Nr.   3
 **********************
 DD1Dir will call FoFJK   6 times, MxPair=        66
 NAB=   132 NAA=    66 NBB=    55 NumPrc=  4.
 DD1Dir:  Pass   1 NRAB=    33 NRAA=     0 NRBB=     0 NR=    66.
 DD1Dir:  Pass   2 NRAB=    33 NRAA=     0 NRBB=     0 NR=    66.
 DD1Dir:  Pass   3 NRAB=    33 NRAA=     0 NRBB=     0 NR=    66.
 DD1Dir:  Pass   4 NRAB=    33 NRAA=     0 NRBB=     0 NR=    66.
 DD1Dir:  Pass   5 NRAB=     0 NRAA=    66 NRBB=     0 NR=    66.
 DD1Dir:  Pass   6 NRAB=     0 NRAA=     0 NRBB=    55 NR=    55.
 Norm of the A-vectors is  1.1081733D-01 conv= 1.00D-05.
 RLE energy=       -0.7503201230
 DE(Corr)= -0.74858338     E(CORR)=     -191.44635599     Delta=-1.24D-03
 NORM(A)=   0.11232933D+01
 Iteration Nr.   4
 **********************
 DD1Dir will call FoFJK   6 times, MxPair=        66
 NAB=   132 NAA=    66 NBB=    55 NumPrc=  4.
 DD1Dir:  Pass   1 NRAB=    33 NRAA=     0 NRBB=     0 NR=    66.
 DD1Dir:  Pass   2 NRAB=    33 NRAA=     0 NRBB=     0 NR=    66.
 DD1Dir:  Pass   3 NRAB=    33 NRAA=     0 NRBB=     0 NR=    66.
 DD1Dir:  Pass   4 NRAB=    33 NRAA=     0 NRBB=     0 NR=    66.
 DD1Dir:  Pass   5 NRAB=     0 NRAA=    66 NRBB=     0 NR=    66.
 DD1Dir:  Pass   6 NRAB=     0 NRAA=     0 NRBB=    55 NR=    55.
 Norm of the A-vectors is  6.1797708D-02 conv= 1.00D-05.
 RLE energy=       -0.7505805243
 DE(Corr)= -0.75036327     E(CORR)=     -191.44813587     Delta=-1.78D-03
 NORM(A)=   0.11245773D+01
 Iteration Nr.   5
 **********************
 DD1Dir will call FoFJK   6 times, MxPair=        66
 NAB=   132 NAA=    66 NBB=    55 NumPrc=  4.
 DD1Dir:  Pass   1 NRAB=    33 NRAA=     0 NRBB=     0 NR=    66.
 DD1Dir:  Pass   2 NRAB=    33 NRAA=     0 NRBB=     0 NR=    66.
 DD1Dir:  Pass   3 NRAB=    33 NRAA=     0 NRBB=     0 NR=    66.
 DD1Dir:  Pass   4 NRAB=    33 NRAA=     0 NRBB=     0 NR=    66.
 DD1Dir:  Pass   5 NRAB=     0 NRAA=    66 NRBB=     0 NR=    66.
 DD1Dir:  Pass   6 NRAB=     0 NRAA=     0 NRBB=    55 NR=    55.
 Norm of the A-vectors is  2.3273269D-02 conv= 1.00D-05.
 RLE energy=       -0.7507804092
 DE(Corr)= -0.75066063     E(CORR)=     -191.44843323     Delta=-2.97D-04
 NORM(A)=   0.11253658D+01
 Iteration Nr.   6
 **********************
 DD1Dir will call FoFJK   6 times, MxPair=        66
 NAB=   132 NAA=    66 NBB=    55 NumPrc=  4.
 DD1Dir:  Pass   1 NRAB=    33 NRAA=     0 NRBB=     0 NR=    66.
 DD1Dir:  Pass   2 NRAB=    33 NRAA=     0 NRBB=     0 NR=    66.
 DD1Dir:  Pass   3 NRAB=    33 NRAA=     0 NRBB=     0 NR=    66.
 DD1Dir:  Pass   4 NRAB=    33 NRAA=     0 NRBB=     0 NR=    66.
 DD1Dir:  Pass   5 NRAB=     0 NRAA=    66 NRBB=     0 NR=    66.
 DD1Dir:  Pass   6 NRAB=     0 NRAA=     0 NRBB=    55 NR=    55.
 Norm of the A-vectors is  1.5304786D-02 conv= 1.00D-05.
 RLE energy=       -0.7507087059
 DE(Corr)= -0.75073091     E(CORR)=     -191.44850351     Delta=-7.03D-05
 NORM(A)=   0.11256115D+01
 Iteration Nr.   7
 **********************
 DD1Dir will call FoFJK   6 times, MxPair=        66
 NAB=   132 NAA=    66 NBB=    55 NumPrc=  4.
 DD1Dir:  Pass   1 NRAB=    33 NRAA=     0 NRBB=     0 NR=    66.
 DD1Dir:  Pass   2 NRAB=    33 NRAA=     0 NRBB=     0 NR=    66.
 DD1Dir:  Pass   3 NRAB=    33 NRAA=     0 NRBB=     0 NR=    66.
 DD1Dir:  Pass   4 NRAB=    33 NRAA=     0 NRBB=     0 NR=    66.
 DD1Dir:  Pass   5 NRAB=     0 NRAA=    66 NRBB=     0 NR=    66.
 DD1Dir:  Pass   6 NRAB=     0 NRAA=     0 NRBB=    55 NR=    55.
 Norm of the A-vectors is  7.6000896D-03 conv= 1.00D-05.
 RLE energy=       -0.7507086350
 DE(Corr)= -0.75074809     E(CORR)=     -191.44852069     Delta=-1.72D-05
 NORM(A)=   0.11257091D+01
 Iteration Nr.   8
 **********************
 DD1Dir will call FoFJK   6 times, MxPair=        66
 NAB=   132 NAA=    66 NBB=    55 NumPrc=  4.
 DD1Dir:  Pass   1 NRAB=    33 NRAA=     0 NRBB=     0 NR=    66.
 DD1Dir:  Pass   2 NRAB=    33 NRAA=     0 NRBB=     0 NR=    66.
 DD1Dir:  Pass   3 NRAB=    33 NRAA=     0 NRBB=     0 NR=    66.
 DD1Dir:  Pass   4 NRAB=    33 NRAA=     0 NRBB=     0 NR=    66.
 DD1Dir:  Pass   5 NRAB=     0 NRAA=    66 NRBB=     0 NR=    66.
 DD1Dir:  Pass   6 NRAB=     0 NRAA=     0 NRBB=    55 NR=    55.
 Norm of the A-vectors is  4.7712394D-03 conv= 1.00D-05.
 RLE energy=       -0.7507283468
 DE(Corr)= -0.75073853     E(CORR)=     -191.44851113     Delta= 9.56D-06
 NORM(A)=   0.11257683D+01
 Iteration Nr.   9
 **********************
 DD1Dir will call FoFJK   6 times, MxPair=        66
 NAB=   132 NAA=    66 NBB=    55 NumPrc=  4.
 DD1Dir:  Pass   1 NRAB=    33 NRAA=     0 NRBB=     0 NR=    66.
 DD1Dir:  Pass   2 NRAB=    33 NRAA=     0 NRBB=     0 NR=    66.
 DD1Dir:  Pass   3 NRAB=    33 NRAA=     0 NRBB=     0 NR=    66.
 DD1Dir:  Pass   4 NRAB=    33 NRAA=     0 NRBB=     0 NR=    66.
 DD1Dir:  Pass   5 NRAB=     0 NRAA=    66 NRBB=     0 NR=    66.
 DD1Dir:  Pass   6 NRAB=     0 NRAA=     0 NRBB=    55 NR=    55.
 Norm of the A-vectors is  3.4817432D-03 conv= 1.00D-05.
 RLE energy=       -0.7507365525
 DE(Corr)= -0.75074178     E(CORR)=     -191.44851438     Delta=-3.25D-06
 NORM(A)=   0.11257874D+01
 Iteration Nr.  10
 **********************
 DD1Dir will call FoFJK   6 times, MxPair=        66
 NAB=   132 NAA=    66 NBB=    55 NumPrc=  4.
 DD1Dir:  Pass   1 NRAB=    33 NRAA=     0 NRBB=     0 NR=    66.
 DD1Dir:  Pass   2 NRAB=    33 NRAA=     0 NRBB=     0 NR=    66.
 DD1Dir:  Pass   3 NRAB=    33 NRAA=     0 NRBB=     0 NR=    66.
 DD1Dir:  Pass   4 NRAB=    33 NRAA=     0 NRBB=     0 NR=    66.
 DD1Dir:  Pass   5 NRAB=     0 NRAA=    66 NRBB=     0 NR=    66.
 DD1Dir:  Pass   6 NRAB=     0 NRAA=     0 NRBB=    55 NR=    55.
 Norm of the A-vectors is  2.4945333D-03 conv= 1.00D-05.
 RLE energy=       -0.7507440859
 DE(Corr)= -0.75074268     E(CORR)=     -191.44851528     Delta=-9.00D-07
 NORM(A)=   0.11258039D+01
 Iteration Nr.  11
 **********************
 DD1Dir will call FoFJK   6 times, MxPair=        66
 NAB=   132 NAA=    66 NBB=    55 NumPrc=  4.
 DD1Dir:  Pass   1 NRAB=    33 NRAA=     0 NRBB=     0 NR=    66.
 DD1Dir:  Pass   2 NRAB=    33 NRAA=     0 NRBB=     0 NR=    66.
 DD1Dir:  Pass   3 NRAB=    33 NRAA=     0 NRBB=     0 NR=    66.
 DD1Dir:  Pass   4 NRAB=    33 NRAA=     0 NRBB=     0 NR=    66.
 DD1Dir:  Pass   5 NRAB=     0 NRAA=    66 NRBB=     0 NR=    66.
 DD1Dir:  Pass   6 NRAB=     0 NRAA=     0 NRBB=    55 NR=    55.
 Norm of the A-vectors is  1.6165583D-03 conv= 1.00D-05.
 RLE energy=       -0.7507487478
 DE(Corr)= -0.75074663     E(CORR)=     -191.44851923     Delta=-3.95D-06
 NORM(A)=   0.11258130D+01
 Iteration Nr.  12
 **********************
 DD1Dir will call FoFJK   6 times, MxPair=        66
 NAB=   132 NAA=    66 NBB=    55 NumPrc=  4.
 DD1Dir:  Pass   1 NRAB=    33 NRAA=     0 NRBB=     0 NR=    66.
 DD1Dir:  Pass   2 NRAB=    33 NRAA=     0 NRBB=     0 NR=    66.
 DD1Dir:  Pass   3 NRAB=    33 NRAA=     0 NRBB=     0 NR=    66.
 DD1Dir:  Pass   4 NRAB=    33 NRAA=     0 NRBB=     0 NR=    66.
 DD1Dir:  Pass   5 NRAB=     0 NRAA=    66 NRBB=     0 NR=    66.
 DD1Dir:  Pass   6 NRAB=     0 NRAA=     0 NRBB=    55 NR=    55.
 Norm of the A-vectors is  1.0245358D-03 conv= 1.00D-05.
 RLE energy=       -0.7507510079
 DE(Corr)= -0.75074922     E(CORR)=     -191.44852183     Delta=-2.60D-06
 NORM(A)=   0.11258213D+01
 Iteration Nr.  13
 **********************
 DD1Dir will call FoFJK   6 times, MxPair=        66
 NAB=   132 NAA=    66 NBB=    55 NumPrc=  4.
 DD1Dir:  Pass   1 NRAB=    33 NRAA=     0 NRBB=     0 NR=    66.
 DD1Dir:  Pass   2 NRAB=    33 NRAA=     0 NRBB=     0 NR=    66.
 DD1Dir:  Pass   3 NRAB=    33 NRAA=     0 NRBB=     0 NR=    66.
 DD1Dir:  Pass   4 NRAB=    33 NRAA=     0 NRBB=     0 NR=    66.
 DD1Dir:  Pass   5 NRAB=     0 NRAA=    66 NRBB=     0 NR=    66.
 DD1Dir:  Pass   6 NRAB=     0 NRAA=     0 NRBB=    55 NR=    55.
 Norm of the A-vectors is  6.9665390D-04 conv= 1.00D-05.
 RLE energy=       -0.7507515761
 DE(Corr)= -0.75075069     E(CORR)=     -191.44852329     Delta=-1.47D-06
 NORM(A)=   0.11258276D+01
 Iteration Nr.  14
 **********************
 DD1Dir will call FoFJK   6 times, MxPair=        66
 NAB=   132 NAA=    66 NBB=    55 NumPrc=  4.
 DD1Dir:  Pass   1 NRAB=    33 NRAA=     0 NRBB=     0 NR=    66.
 DD1Dir:  Pass   2 NRAB=    33 NRAA=     0 NRBB=     0 NR=    66.
 DD1Dir:  Pass   3 NRAB=    33 NRAA=     0 NRBB=     0 NR=    66.
 DD1Dir:  Pass   4 NRAB=    33 NRAA=     0 NRBB=     0 NR=    66.
 DD1Dir:  Pass   5 NRAB=     0 NRAA=    66 NRBB=     0 NR=    66.
 DD1Dir:  Pass   6 NRAB=     0 NRAA=     0 NRBB=    55 NR=    55.
 Norm of the A-vectors is  4.1272445D-04 conv= 1.00D-05.
 RLE energy=       -0.7507520890
 DE(Corr)= -0.75075174     E(CORR)=     -191.44852434     Delta=-1.05D-06
 NORM(A)=   0.11258319D+01
 Iteration Nr.  15
 **********************
 DD1Dir will call FoFJK   6 times, MxPair=        66
 NAB=   132 NAA=    66 NBB=    55 NumPrc=  4.
 DD1Dir:  Pass   1 NRAB=    33 NRAA=     0 NRBB=     0 NR=    66.
 DD1Dir:  Pass   2 NRAB=    33 NRAA=     0 NRBB=     0 NR=    66.
 DD1Dir:  Pass   3 NRAB=    33 NRAA=     0 NRBB=     0 NR=    66.
 DD1Dir:  Pass   4 NRAB=    33 NRAA=     0 NRBB=     0 NR=    66.
 DD1Dir:  Pass   5 NRAB=     0 NRAA=    66 NRBB=     0 NR=    66.
 DD1Dir:  Pass   6 NRAB=     0 NRAA=     0 NRBB=    55 NR=    55.
 Norm of the A-vectors is  2.3467339D-04 conv= 1.00D-05.
 RLE energy=       -0.7507521746
 DE(Corr)= -0.75075202     E(CORR)=     -191.44852462     Delta=-2.82D-07
 NORM(A)=   0.11258353D+01
 Iteration Nr.  16
 **********************
 DD1Dir will call FoFJK   6 times, MxPair=        66
 NAB=   132 NAA=    66 NBB=    55 NumPrc=  4.
 DD1Dir:  Pass   1 NRAB=    33 NRAA=     0 NRBB=     0 NR=    66.
 DD1Dir:  Pass   2 NRAB=    33 NRAA=     0 NRBB=     0 NR=    66.
 DD1Dir:  Pass   3 NRAB=    33 NRAA=     0 NRBB=     0 NR=    66.
 DD1Dir:  Pass   4 NRAB=    33 NRAA=     0 NRBB=     0 NR=    66.
 DD1Dir:  Pass   5 NRAB=     0 NRAA=    66 NRBB=     0 NR=    66.
 DD1Dir:  Pass   6 NRAB=     0 NRAA=     0 NRBB=    55 NR=    55.
 Norm of the A-vectors is  1.6346907D-04 conv= 1.00D-05.
 RLE energy=       -0.7507523563
 DE(Corr)= -0.75075230     E(CORR)=     -191.44852490     Delta=-2.84D-07
 NORM(A)=   0.11258374D+01
 Iteration Nr.  17
 **********************
 DD1Dir will call FoFJK   6 times, MxPair=        66
 NAB=   132 NAA=    66 NBB=    55 NumPrc=  4.
 DD1Dir:  Pass   1 NRAB=    33 NRAA=     0 NRBB=     0 NR=    66.
 DD1Dir:  Pass   2 NRAB=    33 NRAA=     0 NRBB=     0 NR=    66.
 DD1Dir:  Pass   3 NRAB=    33 NRAA=     0 NRBB=     0 NR=    66.
 DD1Dir:  Pass   4 NRAB=    33 NRAA=     0 NRBB=     0 NR=    66.
 DD1Dir:  Pass   5 NRAB=     0 NRAA=    66 NRBB=     0 NR=    66.
 DD1Dir:  Pass   6 NRAB=     0 NRAA=     0 NRBB=    55 NR=    55.
 Norm of the A-vectors is  1.0562434D-04 conv= 1.00D-05.
 RLE energy=       -0.7507525080
 DE(Corr)= -0.75075244     E(CORR)=     -191.44852504     Delta=-1.34D-07
 NORM(A)=   0.11258389D+01
 Iteration Nr.  18
 **********************
 DD1Dir will call FoFJK   6 times, MxPair=        66
 NAB=   132 NAA=    66 NBB=    55 NumPrc=  4.
 DD1Dir:  Pass   1 NRAB=    33 NRAA=     0 NRBB=     0 NR=    66.
 DD1Dir:  Pass   2 NRAB=    33 NRAA=     0 NRBB=     0 NR=    66.
 DD1Dir:  Pass   3 NRAB=    33 NRAA=     0 NRBB=     0 NR=    66.
 DD1Dir:  Pass   4 NRAB=    33 NRAA=     0 NRBB=     0 NR=    66.
 DD1Dir:  Pass   5 NRAB=     0 NRAA=    66 NRBB=     0 NR=    66.
 DD1Dir:  Pass   6 NRAB=     0 NRAA=     0 NRBB=    55 NR=    55.
 Norm of the A-vectors is  6.9807934D-05 conv= 1.00D-05.
 RLE energy=       -0.7507525971
 DE(Corr)= -0.75075255     E(CORR)=     -191.44852515     Delta=-1.13D-07
 NORM(A)=   0.11258398D+01
 Iteration Nr.  19
 **********************
 DD1Dir will call FoFJK   6 times, MxPair=        66
 NAB=   132 NAA=    66 NBB=    55 NumPrc=  4.
 DD1Dir:  Pass   1 NRAB=    33 NRAA=     0 NRBB=     0 NR=    66.
 DD1Dir:  Pass   2 NRAB=    33 NRAA=     0 NRBB=     0 NR=    66.
 DD1Dir:  Pass   3 NRAB=    33 NRAA=     0 NRBB=     0 NR=    66.
 DD1Dir:  Pass   4 NRAB=    33 NRAA=     0 NRBB=     0 NR=    66.
 DD1Dir:  Pass   5 NRAB=     0 NRAA=    66 NRBB=     0 NR=    66.
 DD1Dir:  Pass   6 NRAB=     0 NRAA=     0 NRBB=    55 NR=    55.
 Norm of the A-vectors is  5.1376855D-05 conv= 1.00D-05.
 RLE energy=       -0.7507526576
 DE(Corr)= -0.75075262     E(CORR)=     -191.44852522     Delta=-7.20D-08
 NORM(A)=   0.11258402D+01
 Iteration Nr.  20
 **********************
 DD1Dir will call FoFJK   6 times, MxPair=        66
 NAB=   132 NAA=    66 NBB=    55 NumPrc=  4.
 DD1Dir:  Pass   1 NRAB=    33 NRAA=     0 NRBB=     0 NR=    66.
 DD1Dir:  Pass   2 NRAB=    33 NRAA=     0 NRBB=     0 NR=    66.
 DD1Dir:  Pass   3 NRAB=    33 NRAA=     0 NRBB=     0 NR=    66.
 DD1Dir:  Pass   4 NRAB=    33 NRAA=     0 NRBB=     0 NR=    66.
 DD1Dir:  Pass   5 NRAB=     0 NRAA=    66 NRBB=     0 NR=    66.
 DD1Dir:  Pass   6 NRAB=     0 NRAA=     0 NRBB=    55 NR=    55.
 Norm of the A-vectors is  3.9711049D-05 conv= 1.00D-05.
 RLE energy=       -0.7507526527
 DE(Corr)= -0.75075264     E(CORR)=     -191.44852525     Delta=-2.06D-08
 NORM(A)=   0.11258405D+01
 Iteration Nr.  21
 **********************
 DD1Dir will call FoFJK   6 times, MxPair=        66
 NAB=   132 NAA=    66 NBB=    55 NumPrc=  4.
 DD1Dir:  Pass   1 NRAB=    33 NRAA=     0 NRBB=     0 NR=    66.
 DD1Dir:  Pass   2 NRAB=    33 NRAA=     0 NRBB=     0 NR=    66.
 DD1Dir:  Pass   3 NRAB=    33 NRAA=     0 NRBB=     0 NR=    66.
 DD1Dir:  Pass   4 NRAB=    33 NRAA=     0 NRBB=     0 NR=    66.
 DD1Dir:  Pass   5 NRAB=     0 NRAA=    66 NRBB=     0 NR=    66.
 DD1Dir:  Pass   6 NRAB=     0 NRAA=     0 NRBB=    55 NR=    55.
 Norm of the A-vectors is  3.2969410D-05 conv= 1.00D-05.
 RLE energy=       -0.7507526440
 DE(Corr)= -0.75075265     E(CORR)=     -191.44852525     Delta=-8.82D-09
 NORM(A)=   0.11258407D+01
 Iteration Nr.  22
 **********************
 DD1Dir will call FoFJK   6 times, MxPair=        66
 NAB=   132 NAA=    66 NBB=    55 NumPrc=  4.
 DD1Dir:  Pass   1 NRAB=    33 NRAA=     0 NRBB=     0 NR=    66.
 DD1Dir:  Pass   2 NRAB=    33 NRAA=     0 NRBB=     0 NR=    66.
 DD1Dir:  Pass   3 NRAB=    33 NRAA=     0 NRBB=     0 NR=    66.
 DD1Dir:  Pass   4 NRAB=    33 NRAA=     0 NRBB=     0 NR=    66.
 DD1Dir:  Pass   5 NRAB=     0 NRAA=    66 NRBB=     0 NR=    66.
 DD1Dir:  Pass   6 NRAB=     0 NRAA=     0 NRBB=    55 NR=    55.
 Norm of the A-vectors is  2.4142781D-05 conv= 1.00D-05.
 RLE energy=       -0.7507526363
 DE(Corr)= -0.75075264     E(CORR)=     -191.44852525     Delta= 8.00D-09
 NORM(A)=   0.11258408D+01
 Iteration Nr.  23
 **********************
 DD1Dir will call FoFJK   6 times, MxPair=        66
 NAB=   132 NAA=    66 NBB=    55 NumPrc=  4.
 DD1Dir:  Pass   1 NRAB=    33 NRAA=     0 NRBB=     0 NR=    66.
 DD1Dir:  Pass   2 NRAB=    33 NRAA=     0 NRBB=     0 NR=    66.
 DD1Dir:  Pass   3 NRAB=    33 NRAA=     0 NRBB=     0 NR=    66.
 DD1Dir:  Pass   4 NRAB=    33 NRAA=     0 NRBB=     0 NR=    66.
 DD1Dir:  Pass   5 NRAB=     0 NRAA=    66 NRBB=     0 NR=    66.
 DD1Dir:  Pass   6 NRAB=     0 NRAA=     0 NRBB=    55 NR=    55.
 Norm of the A-vectors is  1.7280505D-05 conv= 1.00D-05.
 RLE energy=       -0.7507526422
 DE(Corr)= -0.75075265     E(CORR)=     -191.44852525     Delta=-7.90D-10
 NORM(A)=   0.11258409D+01
 Iteration Nr.  24
 **********************
 DD1Dir will call FoFJK   6 times, MxPair=        66
 NAB=   132 NAA=    66 NBB=    55 NumPrc=  4.
 DD1Dir:  Pass   1 NRAB=    33 NRAA=     0 NRBB=     0 NR=    66.
 DD1Dir:  Pass   2 NRAB=    33 NRAA=     0 NRBB=     0 NR=    66.
 DD1Dir:  Pass   3 NRAB=    33 NRAA=     0 NRBB=     0 NR=    66.
 DD1Dir:  Pass   4 NRAB=    33 NRAA=     0 NRBB=     0 NR=    66.
 DD1Dir:  Pass   5 NRAB=     0 NRAA=    66 NRBB=     0 NR=    66.
 DD1Dir:  Pass   6 NRAB=     0 NRAA=     0 NRBB=    55 NR=    55.
 Norm of the A-vectors is  1.2014442D-05 conv= 1.00D-05.
 RLE energy=       -0.7507526589
 DE(Corr)= -0.75075265     E(CORR)=     -191.44852526     Delta=-8.89D-09
 NORM(A)=   0.11258410D+01
 Iteration Nr.  25
 **********************
 DD1Dir will call FoFJK   6 times, MxPair=        66
 NAB=   132 NAA=    66 NBB=    55 NumPrc=  4.
 DD1Dir:  Pass   1 NRAB=    33 NRAA=     0 NRBB=     0 NR=    66.
 DD1Dir:  Pass   2 NRAB=    33 NRAA=     0 NRBB=     0 NR=    66.
 DD1Dir:  Pass   3 NRAB=    33 NRAA=     0 NRBB=     0 NR=    66.
 DD1Dir:  Pass   4 NRAB=    33 NRAA=     0 NRBB=     0 NR=    66.
 DD1Dir:  Pass   5 NRAB=     0 NRAA=    66 NRBB=     0 NR=    66.
 DD1Dir:  Pass   6 NRAB=     0 NRAA=     0 NRBB=    55 NR=    55.
 Norm of the A-vectors is  8.3088830D-06 conv= 1.00D-05.
 RLE energy=       -0.7507526711
 DE(Corr)= -0.75075266     E(CORR)=     -191.44852527     Delta=-1.02D-08
 NORM(A)=   0.11258410D+01
 CI/CC converged in   25 iterations to DelEn=-1.02D-08 Conv= 1.00D-07 ErrA1= 8.31D-06 Conv= 1.00D-05
 Largest amplitude= 2.84D-02
 Time for triples=     4674.01 seconds.
 T4(CCSD)= -0.35584118D-01
 T5(CCSD)=  0.13130026D-02
 CCSD(T)= -0.19148279638D+03

 S**2, projected HF & approx projected MPn energies after annihilation of
 unwanted spin states (see manual for definitions):

 spins       (S**2,0) (S**2,1)    PUHF        PMP2        PMP3        PMP4
 annihilated
 s+1         0.74987  0.75002 -190.701193 -191.426864 -191.445423
 s+1,s+2     0.75000  0.75000 -190.701176 -191.426847 -191.445408
 s+1 to s+3  0.75000  0.75000 -190.701176 -191.426847 -191.445408
 s+1 to s+4  0.75000  0.75000 -190.701176 -191.426847 -191.445408
 s+1 to s+5  0.75000  0.75000 -190.701176
 s+1 to s+6  0.75000  0.75000 -190.701176

 Discarding MO integrals.
 Leave Link  913 at Fri Mar  8 20:58:28 2019, MaxMem=    33554432 cpu:     24617.0
 (Enter /home/proyectos/fulerenos/M3C-v2.0/M3C-deps_CCC/g09-AM64L-G09RevC.01/l601.exe)
 Copying SCF densities to generalized density rwf, IOpCl= 1 IROHF=0.

 **********************************************************************

            Population analysis using the SCF density.

 **********************************************************************

 Orbital symmetries:
 Alpha Orbitals:
       Occupied  (A) (A) (A) (A) (A) (A) (A) (A) (A) (A) (A) (A)
                 (A) (A) (A) (A)
       Virtual   (A) (A) (A) (A) (A) (A) (A) (A) (A) (A) (A) (A)
                 (A) (A) (A) (A) (A) (A) (A) (A) (A) (A) (A) (A)
                 (A) (A) (A) (A) (A) (A) (A) (A) (A) (A) (A) (A)
                 (A) (A) (A) (A) (A) (A) (A) (A) (A) (A) (A) (A)
                 (A) (A) (A) (A) (A) (A) (A) (A) (A) (A) (A) (A)
                 (A) (A) (A) (A) (A) (A) (A) (A) (A) (A) (A) (A)
                 (A) (A) (A) (A) (A) (A) (A) (A) (A) (A) (A) (A)
                 (A) (A) (A) (A) (A) (A) (A) (A) (A) (A) (A) (A)
                 (A) (A) (A) (A) (A) (A) (A) (A) (A) (A) (A) (A)
                 (A) (A) (A) (A) (A) (A) (A) (A) (A) (A) (A) (A)
                 (A) (A) (A) (A) (A) (A) (A) (A) (A) (A) (A) (A)
                 (A) (A) (A) (A) (A) (A) (A) (A) (A) (A) (A) (A)
                 (A) (A) (A) (A) (A) (A) (A) (A) (A) (A) (A) (A)
                 (A) (A) (A) (A) (A) (A) (A) (A) (A) (A) (A) (A)
                 (A) (A) (A) (A) (A) (A) (A) (A) (A) (A) (A) (A)
 Beta  Orbitals:
       Occupied  (A) (A) (A) (A) (A) (A) (A) (A) (A) (A) (A) (A)
                 (A) (A) (A)
       Virtual   (A) (A) (A) (A) (A) (A) (A) (A) (A) (A) (A) (A)
                 (A) (A) (A) (A) (A) (A) (A) (A) (A) (A) (A) (A)
                 (A) (A) (A) (A) (A) (A) (A) (A) (A) (A) (A) (A)
                 (A) (A) (A) (A) (A) (A) (A) (A) (A) (A) (A) (A)
                 (A) (A) (A) (A) (A) (A) (A) (A) (A) (A) (A) (A)
                 (A) (A) (A) (A) (A) (A) (A) (A) (A) (A) (A) (A)
                 (A) (A) (A) (A) (A) (A) (A) (A) (A) (A) (A) (A)
                 (A) (A) (A) (A) (A) (A) (A) (A) (A) (A) (A) (A)
                 (A) (A) (A) (A) (A) (A) (A) (A) (A) (A) (A) (A)
                 (A) (A) (A) (A) (A) (A) (A) (A) (A) (A) (A) (A)
                 (A) (A) (A) (A) (A) (A) (A) (A) (A) (A) (A) (A)
                 (A) (A) (A) (A) (A) (A) (A) (A) (A) (A) (A) (A)
                 (A) (A) (A) (A) (A) (A) (A) (A) (A) (A) (A) (A)
                 (A) (A) (A) (A) (A) (A) (A) (A) (A) (A) (A) (A)
                 (A) (A) (A) (A) (A) (A) (A) (A) (A) (A) (A) (A)
                 (A)
 The electronic state is 2-A.
 Alpha  occ. eigenvalues --  -20.37146 -11.06617 -11.01380 -10.98155  -1.16565
 Alpha  occ. eigenvalues --   -0.90114  -0.61107  -0.56869  -0.45273  -0.41666
 Alpha  occ. eigenvalues --   -0.37547  -0.33963  -0.27721  -0.19073  -0.11357
 Alpha  occ. eigenvalues --   -0.09309
 Alpha virt. eigenvalues --    0.16755   0.17346   0.18096   0.19204   0.23185
 Alpha virt. eigenvalues --    0.26729   0.27108   0.28453   0.29368   0.30154
 Alpha virt. eigenvalues --    0.31683   0.34021   0.35323   0.36037   0.36778
 Alpha virt. eigenvalues --    0.37818   0.44287   0.45857   0.46161   0.48945
 Alpha virt. eigenvalues --    0.50073   0.51799   0.54004   0.55873   0.56900
 Alpha virt. eigenvalues --    0.62458   0.66158   0.68057   0.69985   0.71734
 Alpha virt. eigenvalues --    0.74155   0.75423   0.78422   0.79046   0.82418
 Alpha virt. eigenvalues --    0.86238   0.86448   0.87332   0.88934   0.90200
 Alpha virt. eigenvalues --    0.91953   0.95852   0.97499   0.99024   0.99709
 Alpha virt. eigenvalues --    1.02489   1.05517   1.07030   1.09703   1.11493
 Alpha virt. eigenvalues --    1.12946   1.16895   1.22373   1.24850   1.28144
 Alpha virt. eigenvalues --    1.34381   1.37137   1.39033   1.40434   1.47105
 Alpha virt. eigenvalues --    1.47897   1.51125   1.53882   1.56824   1.57948
 Alpha virt. eigenvalues --    1.61030   1.62152   1.64300   1.66642   1.68929
 Alpha virt. eigenvalues --    1.71450   1.74976   1.78099   1.80637   1.81359
 Alpha virt. eigenvalues --    1.87414   1.94505   1.95078   1.97301   2.01820
 Alpha virt. eigenvalues --    2.15514   2.19210   2.24089   2.24853   2.35741
 Alpha virt. eigenvalues --    2.43542   2.51357   2.53358   2.61222   2.66665
 Alpha virt. eigenvalues --    2.68783   2.72295   2.78264   2.81563   2.85172
 Alpha virt. eigenvalues --    3.09855   3.22244   3.24607   3.33126   3.36723
 Alpha virt. eigenvalues --    3.40345   3.42937   3.43879   3.46710   3.49394
 Alpha virt. eigenvalues --    3.52691   3.55884   3.62110   3.67406   3.74198
 Alpha virt. eigenvalues --    3.76317   3.80583   3.83109   3.86636   3.91361
 Alpha virt. eigenvalues --    3.99111   3.99229   4.02596   4.07084   4.12437
 Alpha virt. eigenvalues --    4.15815   4.21203   4.27882   4.35303   4.44938
 Alpha virt. eigenvalues --    4.50826   4.54242   4.60737   4.64954   4.67207
 Alpha virt. eigenvalues --    4.74668   4.80521   4.87153   4.88253   4.95071
 Alpha virt. eigenvalues --    5.04941   5.17935   5.19240   5.19717   5.29998
 Alpha virt. eigenvalues --    5.39967   5.55392   5.85569   5.86512   5.94195
 Alpha virt. eigenvalues --    5.99087   6.02569   6.15191   6.18286   6.22141
 Alpha virt. eigenvalues --    6.26675   6.36758   6.50920   6.60066   7.09681
 Alpha virt. eigenvalues --    7.75393   7.77851   7.79783   7.84634   8.03909
 Alpha virt. eigenvalues --    8.06264   8.09613   8.11222   8.23677   8.34515
 Alpha virt. eigenvalues --    8.60935   8.62590   8.69023   8.75217   9.16649
 Alpha virt. eigenvalues --    9.57234  15.30376  15.38875  15.40710  15.61205
 Alpha virt. eigenvalues --   15.96626  25.49568  25.94103  26.09244  52.07229
  Beta  occ. eigenvalues --  -20.36894 -11.06856 -11.01610 -10.96060  -1.15751
  Beta  occ. eigenvalues --   -0.87489  -0.60928  -0.53827  -0.43781  -0.39857
  Beta  occ. eigenvalues --   -0.36083  -0.32753  -0.25691  -0.17380  -0.08676
  Beta virt. eigenvalues --    0.16782   0.17374   0.18077   0.19194   0.23098
  Beta virt. eigenvalues --    0.26676   0.27080   0.27822   0.28886   0.29720
  Beta virt. eigenvalues --    0.31596   0.32947   0.35409   0.35911   0.36420
  Beta virt. eigenvalues --    0.38610   0.40485   0.44597   0.46108   0.46706
  Beta virt. eigenvalues --    0.50043   0.50945   0.52306   0.54912   0.56640
  Beta virt. eigenvalues --    0.57348   0.63001   0.67529   0.69147   0.70157
  Beta virt. eigenvalues --    0.72360   0.75498   0.76583   0.80393   0.80877
  Beta virt. eigenvalues --    0.83512   0.86360   0.86652   0.88343   0.89540
  Beta virt. eigenvalues --    0.91679   0.93845   0.96706   0.97986   0.99518
  Beta virt. eigenvalues --    1.02020   1.03370   1.07305   1.08292   1.10725
  Beta virt. eigenvalues --    1.12006   1.13771   1.18498   1.23022   1.25378
  Beta virt. eigenvalues --    1.28453   1.34756   1.37739   1.39303   1.40701
  Beta virt. eigenvalues --    1.47410   1.48390   1.51535   1.54580   1.57156
  Beta virt. eigenvalues --    1.58508   1.61587   1.62606   1.64981   1.67163
  Beta virt. eigenvalues --    1.69734   1.72033   1.75491   1.78772   1.81061
  Beta virt. eigenvalues --    1.82845   1.87914   1.95054   1.95393   1.98596
  Beta virt. eigenvalues --    2.03686   2.15941   2.21872   2.26346   2.27501
  Beta virt. eigenvalues --    2.36723   2.45613   2.52438   2.54988   2.63339
  Beta virt. eigenvalues --    2.67151   2.69666   2.72557   2.78451   2.81929
  Beta virt. eigenvalues --    2.85893   3.10486   3.22753   3.25176   3.35674
  Beta virt. eigenvalues --    3.37590   3.41403   3.43753   3.44976   3.47562
  Beta virt. eigenvalues --    3.49957   3.54723   3.57157   3.65302   3.67708
  Beta virt. eigenvalues --    3.74539   3.78269   3.82665   3.83308   3.87558
  Beta virt. eigenvalues --    3.92311   3.99487   3.99884   4.03057   4.07316
  Beta virt. eigenvalues --    4.13372   4.16285   4.21556   4.28302   4.35672
  Beta virt. eigenvalues --    4.45510   4.51841   4.55342   4.60865   4.65449
  Beta virt. eigenvalues --    4.67733   4.74920   4.80836   4.87456   4.88576
  Beta virt. eigenvalues --    4.95421   5.05218   5.18467   5.19758   5.19810
  Beta virt. eigenvalues --    5.30549   5.40300   5.55750   5.85793   5.86856
  Beta virt. eigenvalues --    5.94494   5.99260   6.02754   6.15374   6.18354
  Beta virt. eigenvalues --    6.22417   6.26918   6.36958   6.51093   6.60286
  Beta virt. eigenvalues --    7.09947   7.75611   7.79997   7.80802   7.87466
  Beta virt. eigenvalues --    8.04566   8.08588   8.10443   8.12032   8.25055
  Beta virt. eigenvalues --    8.34906   8.61085   8.62505   8.69423   8.75401
  Beta virt. eigenvalues --    9.16682   9.57493  15.30567  15.39219  15.41081
  Beta virt. eigenvalues --   15.61369  15.96973  25.50164  25.94524  26.09291
  Beta virt. eigenvalues --   52.07390
          Condensed to atoms (all electrons):
               1          2          3          4          5          6
     1  C    8.052244  -0.793055  -0.298721   0.028236  -0.087470  -0.034632
     2  C   -0.793055   6.837096  -0.873247  -0.159621  -0.007126   0.494761
     3  C   -0.298721  -0.873247   6.720700   0.088469   0.465997  -0.132908
     4  H    0.028236  -0.159621   0.088469   0.598559  -0.008042   0.004408
     5  H   -0.087470  -0.007126   0.465997  -0.008042   0.689721  -0.003911
     6  H   -0.034632   0.494761  -0.132908   0.004408  -0.003911   0.697670
     7  H   -0.005732  -0.008829   0.323459  -0.002200  -0.080197   0.013545
     8  O   -0.093799  -0.018815  -0.067203   0.230092  -0.003021  -0.071842
               7          8
     1  C   -0.005732  -0.093799
     2  C   -0.008829  -0.018815
     3  C    0.323459  -0.067203
     4  H   -0.002200   0.230092
     5  H   -0.080197  -0.003021
     6  H    0.013545  -0.071842
     7  H    0.756042  -0.000610
     8  O   -0.000610   8.851994
          Atomic-Atomic Spin Densities.
               1          2          3          4          5          6
     1  C    1.767572  -0.156675  -0.226576   0.020060  -0.053179  -0.029217
     2  C   -0.156675   0.104626  -0.053967  -0.004178  -0.004613   0.008037
     3  C   -0.226576  -0.053967   0.004184  -0.014942   0.039731  -0.011486
     4  H    0.020060  -0.004178  -0.014942  -0.011326  -0.001648   0.002644
     5  H   -0.053179  -0.004613   0.039731  -0.001648   0.106916  -0.010750
     6  H   -0.029217   0.008037  -0.011486   0.002644  -0.010750   0.081377
     7  H   -0.019797   0.026186  -0.063574   0.001859  -0.046356   0.018975
     8  O   -0.070665  -0.039032   0.054783   0.002806   0.009657  -0.019619
               7          8
     1  C   -0.019797  -0.070665
     2  C    0.026186  -0.039032
     3  C   -0.063574   0.054783
     4  H    0.001859   0.002806
     5  H   -0.046356   0.009657
     6  H    0.018975  -0.019619
     7  H    0.156701  -0.009561
     8  O   -0.009561   0.092146
 Mulliken charges and spin densities:
               1          2
     1  C   -0.767072   1.231523
     2  C    0.528836  -0.119616
     3  C   -0.226546  -0.271848
     4  H    0.220099  -0.004724
     5  H    0.034049   0.039758
     6  H    0.032909   0.039961
     7  H    0.004522   0.064432
     8  O   -0.826796   0.020514
 Sum of Mulliken charges =  -1.00000   1.00000
 Mulliken charges and spin densities with hydrogens summed into heavy atoms:
               1          2
     1  C   -0.767072   1.231523
     2  C    0.561744  -0.079655
     3  C   -0.187975  -0.167658
     8  O   -0.606697   0.015790
 Electronic spatial extent (au):  <R**2>=            257.5393
 Charge=             -1.0000 electrons
 Dipole moment (field-independent basis, Debye):
    X=              1.7490    Y=             -3.1397    Z=              0.7463  Tot=              3.6706
 Quadrupole moment (field-independent basis, Debye-Ang):
   XX=            -36.4240   YY=            -38.4906   ZZ=            -28.1966
   XY=              6.4870   XZ=             -2.3994   YZ=              1.3498
 Traceless Quadrupole moment (field-independent basis, Debye-Ang):
   XX=             -2.0536   YY=             -4.1202   ZZ=              6.1738
   XY=              6.4870   XZ=             -2.3994   YZ=              1.3498
 Octapole moment (field-independent basis, Debye-Ang**2):
  XXX=             12.4661  YYY=            -23.1037  ZZZ=              2.2872  XYY=             13.4772
  XXY=             -4.0069  XXZ=             -0.1531  XZZ=              7.0656  YZZ=             -4.8786
  YYZ=              3.0779  XYZ=             -2.9969
 Hexadecapole moment (field-independent basis, Debye-Ang**3):
 XXXX=           -237.5366 YYYY=           -156.4797 ZZZZ=            -71.2013 XXXY=             18.8063
 XXXZ=            -10.1289 YYYX=             20.3438 YYYZ=              9.4503 ZZZX=             -5.3480
 ZZZY=              6.3333 XXYY=            -66.6004 XXZZ=            -46.5158 YYZZ=            -36.8751
 XXYZ=             -0.2647 YYXZ=             -3.0018 ZZXY=              5.5511
 N-N= 1.072151058978D+02 E-N=-6.687604688925D+02  KE= 1.905097269747D+02
 Leave Link  601 at Fri Mar  8 20:58:28 2019, MaxMem=    33554432 cpu:         0.3
 (Enter /home/proyectos/fulerenos/M3C-v2.0/M3C-deps_CCC/g09-AM64L-G09RevC.01/l9999.exe)
 1\1\GINC-DARMSTADIO\SP\UCCSD(T)-FC\6-311++G(3df,2p)\C3H4O1(1-,2)\ROOT\
 08-Mar-2019\0\\#p ccsd(t,maxcyc=200)/6-311++G(3df,2p)\\ccsd(t) iener\\
 -1,2\C,0,-0.102607,1.536763,-0.500978\C,0,0.324524,0.268854,0.127515\C
 ,0,-0.871028,0.222407,-0.760883\H,0,1.968806,0.389045,-0.834031\H,0,-0
 .787429,-0.236908,-1.747532\H,0,0.194009,0.074792,1.194688\H,0,-1.8483
 07,0.033081,-0.300805\O,0,1.580727,-0.315161,-0.297574\\Version=EM64L-
 G09RevE.01\State=2-A\HF=-190.6977726\MP2=-191.4244827\MP3=-191.4438617
 \MP4D=-191.4599502\MP4DQ=-191.441833\PUHF=-190.7011927\PMP2-0=-191.426
 8637\PMP3-0=-191.4454231\MP4SDQ=-191.4492052\CCSD=-191.4485253\CCSD(T)
 =-191.4827964\S2=0.768604\S2-1=0.757222\S2A=0.750212\RMSD=5.190e-09\PG
 =C01 [X(C3H4O1)]\\@


 THE WHOLE OF SCIENCE IS NOTHING MORE THAN A REFINEMENT OF EVERYDAY THINKING.
                                                              -- A. EINSTEIN
 Job cpu time:       0 days  7 hours  8 minutes 24.2 seconds.
 File lengths (MBytes):  RWF=   4312 Int=      0 D2E=      0 Chk=      4 Scr=      1
 Normal termination of Gaussian 09 at Fri Mar  8 20:58:30 2019.
