 Entering Gaussian System, Link 0=/home/proyectos/fulerenos/M3C-v2.0/M3C-deps_CCC/g09-AM64L-G09RevC.01/g09
 Initial command:
 /home/proyectos/fulerenos/M3C-v2.0/M3C-deps_CCC/g09-AM64L-G09RevC.01/l1.exe "/scratch/naguirre/gaussian/Gau-23993.inp" -scrdir="/scratch/naguirre/gaussian/"
 Entering Link 1 = /home/proyectos/fulerenos/M3C-v2.0/M3C-deps_CCC/g09-AM64L-G09RevC.01/l1.exe PID=     24004.
  
 Copyright (c) 1988,1990,1992,1993,1995,1998,2003,2009,2015,
            Gaussian, Inc.  All Rights Reserved.
  
 This is part of the Gaussian(R) 09 program.  It is based on
 the Gaussian(R) 03 system (copyright 2003, Gaussian, Inc.),
 the Gaussian(R) 98 system (copyright 1998, Gaussian, Inc.),
 the Gaussian(R) 94 system (copyright 1995, Gaussian, Inc.),
 the Gaussian 92(TM) system (copyright 1992, Gaussian, Inc.),
 the Gaussian 90(TM) system (copyright 1990, Gaussian, Inc.),
 the Gaussian 88(TM) system (copyright 1988, Gaussian, Inc.),
 the Gaussian 86(TM) system (copyright 1986, Carnegie Mellon
 University), and the Gaussian 82(TM) system (copyright 1983,
 Carnegie Mellon University). Gaussian is a federally registered
 trademark of Gaussian, Inc.
  
 This software contains proprietary and confidential information,
 including trade secrets, belonging to Gaussian, Inc.
  
 This software is provided under written license and may be
 used, copied, transmitted, or stored only in accord with that
 written license.
  
 The following legend is applicable only to US Government
 contracts under FAR:
  
                    RESTRICTED RIGHTS LEGEND
  
 Use, reproduction and disclosure by the US Government is
 subject to restrictions as set forth in subparagraphs (a)
 and (c) of the Commercial Computer Software - Restricted
 Rights clause in FAR 52.227-19.
  
 Gaussian, Inc.
 340 Quinnipiac St., Bldg. 40, Wallingford CT 06492
  
  
 ---------------------------------------------------------------
 Warning -- This program may not be used in any manner that
 competes with the business of Gaussian, Inc. or will provide
 assistance to any competitor of Gaussian, Inc.  The licensee
 of this program is prohibited from giving any competitor of
 Gaussian, Inc. access to this program.  By using this program,
 the user acknowledges that Gaussian, Inc. is engaged in the
 business of creating and licensing software in the field of
 computational chemistry and represents and warrants to the
 licensee that it is not a competitor of Gaussian, Inc. and that
 it will not use this program in any manner prohibited above.
 ---------------------------------------------------------------
  

 Cite this work as:
 Gaussian 09, Revision E.01,
 M. J. Frisch, G. W. Trucks, H. B. Schlegel, G. E. Scuseria, 
 M. A. Robb, J. R. Cheeseman, G. Scalmani, V. Barone, B. Mennucci, 
 G. A. Petersson, H. Nakatsuji, M. Caricato, X. Li, H. P. Hratchian, 
 A. F. Izmaylov, J. Bloino, G. Zheng, J. L. Sonnenberg, M. Hada, 
 M. Ehara, K. Toyota, R. Fukuda, J. Hasegawa, M. Ishida, T. Nakajima, 
 Y. Honda, O. Kitao, H. Nakai, T. Vreven, J. A. Montgomery, Jr., 
 J. E. Peralta, F. Ogliaro, M. Bearpark, J. J. Heyd, E. Brothers, 
 K. N. Kudin, V. N. Staroverov, T. Keith, R. Kobayashi, J. Normand, 
 K. Raghavachari, A. Rendell, J. C. Burant, S. S. Iyengar, J. Tomasi, 
 M. Cossi, N. Rega, J. M. Millam, M. Klene, J. E. Knox, J. B. Cross, 
 V. Bakken, C. Adamo, J. Jaramillo, R. Gomperts, R. E. Stratmann, 
 O. Yazyev, A. J. Austin, R. Cammi, C. Pomelli, J. W. Ochterski, 
 R. L. Martin, K. Morokuma, V. G. Zakrzewski, G. A. Voth, 
 P. Salvador, J. J. Dannenberg, S. Dapprich, A. D. Daniels, 
 O. Farkas, J. B. Foresman, J. V. Ortiz, J. Cioslowski, 
 and D. J. Fox, Gaussian, Inc., Wallingford CT, 2013.
 
 ******************************************
 Gaussian 09:  EM64L-G09RevE.01 30-Nov-2015
                 8-Mar-2019 
 ******************************************
 %NProcShared=4
 Will use up to    4 processors via shared memory.
 --------------------------------------
 #p ccsd(t,maxcyc=200)/6-311++G(3df,2p)
 --------------------------------------
 1/38=1/1;
 2/12=2,17=6,18=5,40=1/2;
 3/5=4,6=6,7=1216,11=9,16=1,25=1,30=1/1,2,3;
 4//1;
 5/5=2,38=5/2;
 8/6=4,9=120000,10=2/1,4;
 9/5=7,6=200,14=2/13;
 6/7=2,8=2,9=2,10=2/1;
 99/5=1,9=1/99;
 Leave Link    1 at Fri Mar  8 07:03:18 2019, MaxMem=           0 cpu:         0.5
 (Enter /home/proyectos/fulerenos/M3C-v2.0/M3C-deps_CCC/g09-AM64L-G09RevC.01/l101.exe)
 -------------
 ccsd(t) iener
 -------------
 Symbolic Z-matrix:
 Charge = -1 Multiplicity = 4
 C                     1.21958   0.12111  -0.0381 
 C                    -2.2238   -0.40649  -0.41964 
 O                     1.95457   0.18862   0.93559 
 C                    -1.15079   0.05578   0.26679 
 C                    -0.04      0.89168  -0.3112 
 H                     0.02927   1.90224   0.14735 
 H                    -2.73237  -1.36192  -0.50015 
 H                    -1.0763   -0.10366   1.34366 
 H                    -0.19464   1.0163   -1.38429 
 
 NAtoms=      9 NQM=        9 NQMF=       0 NMMI=      0 NMMIF=      0
                NMic=       0 NMicF=      0.
                    Isotopes and Nuclear Properties:
 (Nuclear quadrupole moments (NQMom) in fm**2, nuclear magnetic moments (NMagM)
  in nuclear magnetons)

  Atom         1           2           3           4           5           6           7           8           9
 IAtWgt=          12          12          16          12          12           1           1           1           1
 AtmWgt=  12.0000000  12.0000000  15.9949146  12.0000000  12.0000000   1.0078250   1.0078250   1.0078250   1.0078250
 NucSpn=           0           0           0           0           0           1           1           1           1
 AtZEff=   0.0000000   0.0000000   0.0000000   0.0000000   0.0000000   0.0000000   0.0000000   0.0000000   0.0000000
 NQMom=    0.0000000   0.0000000   0.0000000   0.0000000   0.0000000   0.0000000   0.0000000   0.0000000   0.0000000
 NMagM=    0.0000000   0.0000000   0.0000000   0.0000000   0.0000000   2.7928460   2.7928460   2.7928460   2.7928460
 AtZNuc=   6.0000000   6.0000000   8.0000000   6.0000000   6.0000000   1.0000000   1.0000000   1.0000000   1.0000000
 Leave Link  101 at Fri Mar  8 07:03:18 2019, MaxMem=    33554432 cpu:         0.6
 (Enter /home/proyectos/fulerenos/M3C-v2.0/M3C-deps_CCC/g09-AM64L-G09RevC.01/l202.exe)
                          Input orientation:                          
 ---------------------------------------------------------------------
 Center     Atomic      Atomic             Coordinates (Angstroms)
 Number     Number       Type             X           Y           Z
 ---------------------------------------------------------------------
      1          6           0        1.219581    0.121107   -0.038103
      2          6           0       -2.223798   -0.406491   -0.419640
      3          8           0        1.954566    0.188621    0.935586
      4          6           0       -1.150790    0.055776    0.266788
      5          6           0       -0.040000    0.891676   -0.311196
      6          1           0        0.029267    1.902237    0.147345
      7          1           0       -2.732374   -1.361916   -0.500151
      8          1           0       -1.076296   -0.103661    1.343664
      9          1           0       -0.194638    1.016303   -1.384290
 ---------------------------------------------------------------------
                    Distance matrix (angstroms):
                    1          2          3          4          5
     1  C    0.000000
     2  C    3.504396   0.000000
     3  O    1.221815   4.432778   0.000000
     4  C    2.390792   1.355072   3.179336   0.000000
     5  C    1.501633   2.542827   2.455004   1.505539   0.000000
     6  H    2.150270   3.275362   2.695288   2.194589   1.111886
     7  H    4.246268   1.085343   5.141295   2.258197   3.516143
     8  H    2.689024   2.125490   3.072146   1.091161   2.191613
     9  H    2.147932   2.659395   3.268939   2.136094   1.091318
                    6          7          8          9
     6  H    0.000000
     7  H    4.324420   0.000000
     8  H    2.584004   2.779470   0.000000
     9  H    1.783513   3.588556   3.077885   0.000000
 Stoichiometry    C4H4O(1-,4)
 Framework group  C1[X(C4H4O)]
 Deg. of freedom    21
 Full point group                 C1      NOp   1
 Largest Abelian subgroup         C1      NOp   1
 Largest concise Abelian subgroup C1      NOp   1
                         Standard orientation:                         
 ---------------------------------------------------------------------
 Center     Atomic      Atomic             Coordinates (Angstroms)
 Number     Number       Type             X           Y           Z
 ---------------------------------------------------------------------
      1          6           0        1.170263    0.083785   -0.492720
      2          6           0       -2.310238   -0.182160   -0.182603
      3          8           0        2.106296   -0.470598    0.063456
      4          6           0       -1.054020   -0.239092    0.322266
      5          6           0        0.011195    0.807350    0.130109
      6          1           0        0.331643    1.283520    1.082404
      7          1           0       -2.960850   -0.874748   -0.707003
      8          1           0       -0.764883   -1.054358    0.987378
      9          1           0       -0.359480    1.591066   -0.532738
 ---------------------------------------------------------------------
 Rotational constants (GHZ):     19.2096767      2.7757359      2.6201277
 Leave Link  202 at Fri Mar  8 07:03:19 2019, MaxMem=    33554432 cpu:         0.1
 (Enter /home/proyectos/fulerenos/M3C-v2.0/M3C-deps_CCC/g09-AM64L-G09RevC.01/l301.exe)
 Standard basis: 6-311++G(3df,2p) (5D, 7F)
 Ernie: Thresh=  0.10000D-02 Tol=  0.10000D-05 Strict=F.
 There are   265 symmetry adapted cartesian basis functions of A   symmetry.
 There are   235 symmetry adapted basis functions of A   symmetry.
   235 basis functions,   338 primitive gaussians,   265 cartesian basis functions
    20 alpha electrons       17 beta electrons
       nuclear repulsion energy       138.1818888142 Hartrees.
 IExCor=    0 DFT=F Ex=HF Corr=None ExCW=0 ScaHFX=  1.000000
 ScaDFX=  1.000000  1.000000  1.000000  1.000000 ScalE2=  1.000000  1.000000
 IRadAn=      0 IRanWt=     -1 IRanGd=            0 ICorTp=0 IEmpDi=  4
 NAtoms=    9 NActive=    9 NUniq=    9 SFac= 1.00D+00 NAtFMM=   60 NAOKFM=F Big=F
 Integral buffers will be    131072 words long.
 Raffenetti 2 integral format.
 Two-electron integral symmetry is turned on.
 Leave Link  301 at Fri Mar  8 07:03:19 2019, MaxMem=    33554432 cpu:         0.6
 (Enter /home/proyectos/fulerenos/M3C-v2.0/M3C-deps_CCC/g09-AM64L-G09RevC.01/l302.exe)
 NPDir=0 NMtPBC=     1 NCelOv=     1 NCel=       1 NClECP=     1 NCelD=      1
         NCelK=      1 NCelE2=     1 NClLst=     1 CellRange=     0.0.
 One-electron integrals computed using PRISM.
 NBasis=   235 RedAO= T EigKep=  2.92D-05  NBF=   235
 NBsUse=   235 1.00D-06 EigRej= -1.00D+00 NBFU=   235
 Leave Link  302 at Fri Mar  8 07:03:21 2019, MaxMem=    33554432 cpu:         3.1
 (Enter /home/proyectos/fulerenos/M3C-v2.0/M3C-deps_CCC/g09-AM64L-G09RevC.01/l303.exe)
 DipDrv:  MaxL=1.
 Leave Link  303 at Fri Mar  8 07:03:21 2019, MaxMem=    33554432 cpu:         0.4
 (Enter /home/proyectos/fulerenos/M3C-v2.0/M3C-deps_CCC/g09-AM64L-G09RevC.01/l401.exe)
 ExpMin= 3.60D-02 ExpMax= 8.59D+03 ExpMxC= 1.30D+03 IAcc=3 IRadAn=         5 AccDes= 0.00D+00
 Harris functional with IExCor=  205 and IRadAn=       5 diagonalized for initial guess.
 HarFok:  IExCor=  205 AccDes= 0.00D+00 IRadAn=         5 IDoV= 1 UseB2=F ITyADJ=14
 ICtDFT=  3500011 ScaDFX=  1.000000  1.000000  1.000000  1.000000
 FoFCou: FMM=F IPFlag=           0 FMFlag=      100000 FMFlg1=           0
         NFxFlg=           0 DoJE=T BraDBF=F KetDBF=T FulRan=T
         wScrn=  0.000000 ICntrl=     500 IOpCl=  0 I1Cent=   200000004 NGrid=           0
         NMat0=    1 NMatS0=      1 NMatT0=    0 NMatD0=    1 NMtDS0=    0 NMtDT0=    0
 Petite list used in FoFCou.
 Harris En= -228.922970484675    
 JPrj=0 DoOrth=F DoCkMO=F.
 Initial guess <Sx>= 0.0000 <Sy>= 0.0000 <Sz>= 1.5000 <S**2>= 3.7500 S= 1.5000
 Leave Link  401 at Fri Mar  8 07:03:25 2019, MaxMem=    33554432 cpu:        10.0
 (Enter /home/proyectos/fulerenos/M3C-v2.0/M3C-deps_CCC/g09-AM64L-G09RevC.01/l502.exe)
 UHF open shell SCF:
 Using DIIS extrapolation, IDIIS=  1040.
 Integral symmetry usage will be decided dynamically.
 IVT=      232727 IEndB=      232727 NGot=    33554432 MDV=    33408836
 LenX=    33408836 LenY=    33338170
 Requested convergence on RMS density matrix=1.00D-08 within 128 cycles.
 Requested convergence on MAX density matrix=1.00D-06.
 Requested convergence on             energy=1.00D-06.
 No special actions if energy rises.
 Fock matrices will be formed incrementally for  20 cycles.

 Cycle   1  Pass 0  IDiag  1:
 FoFJK:  IHMeth= 1 ICntrl=       0 DoSepK=F KAlg= 0 I1Cent=   0 FoldK=F
 IRaf= 980000000 NMat=   1 IRICut=       1 DoRegI=T DoRafI=F ISym2E= 0.
 FoFCou: FMM=F IPFlag=           0 FMFlag=      100000 FMFlg1=           0
         NFxFlg=           0 DoJE=F BraDBF=F KetDBF=F FulRan=T
         wScrn=  0.000000 ICntrl=       0 IOpCl=  1 I1Cent=           0 NGrid=           0
         NMat0=    1 NMatS0=      1 NMatT0=    0 NMatD0=    1 NMtDS0=    0 NMtDT0=    0
 Symmetry not used in FoFCou.
 E= -228.213496998371    
 DIIS: error= 4.26D-02 at cycle   1 NSaved=   1.
 NSaved= 1 IEnMin= 1 EnMin= -228.213496998371     IErMin= 1 ErrMin= 4.26D-02
 ErrMax= 4.26D-02  0.00D+00 EMaxC= 1.00D-01 BMatC= 2.08D+00 BMatP= 2.08D+00
 IDIUse=3 WtCom= 5.74D-01 WtEn= 4.26D-01
 Coeff-Com:  0.100D+01
 Coeff-En:   0.100D+01
 Coeff:      0.100D+01
 Gap=     0.266 Goal=   None    Shift=    0.000
 Gap=     0.454 Goal=   None    Shift=    0.000
 GapD=    0.266 DampG=1.000 DampE=0.500 DampFc=0.5000 IDamp=-1.
 Damping current iteration by 5.00D-01
 RMSDP=2.12D-02 MaxDP=1.85D+00              OVMax= 3.25D-01

 Cycle   2  Pass 0  IDiag  1:
 RMSU=  1.06D-02    CP:  9.89D-01
 E= -228.379919424486     Delta-E=       -0.166422426115 Rises=F Damp=T
 DIIS: error= 2.43D-02 at cycle   2 NSaved=   2.
 NSaved= 2 IEnMin= 2 EnMin= -228.379919424486     IErMin= 2 ErrMin= 2.43D-02
 ErrMax= 2.43D-02  0.00D+00 EMaxC= 1.00D-01 BMatC= 4.11D-01 BMatP= 2.08D+00
 IDIUse=3 WtCom= 7.57D-01 WtEn= 2.43D-01
 Coeff-Com: -0.572D+00 0.157D+01
 Coeff-En:   0.000D+00 0.100D+01
 Coeff:     -0.433D+00 0.143D+01
 Gap=     0.146 Goal=   None    Shift=    0.000
 Gap=     0.314 Goal=   None    Shift=    0.000
 RMSDP=3.08D-03 MaxDP=1.74D-01 DE=-1.66D-01 OVMax= 1.14D-01

 Cycle   3  Pass 0  IDiag  1:
 RMSU=  2.88D-03    CP:  9.11D-01  9.90D-01
 E= -228.534585340440     Delta-E=       -0.154665915954 Rises=F Damp=F
 DIIS: error= 3.50D-03 at cycle   3 NSaved=   3.
 NSaved= 3 IEnMin= 3 EnMin= -228.534585340440     IErMin= 3 ErrMin= 3.50D-03
 ErrMax= 3.50D-03  0.00D+00 EMaxC= 1.00D-01 BMatC= 1.39D-02 BMatP= 4.11D-01
 IDIUse=3 WtCom= 9.65D-01 WtEn= 3.50D-02
 Coeff-Com: -0.126D+00 0.211D+00 0.915D+00
 Coeff-En:   0.000D+00 0.000D+00 0.100D+01
 Coeff:     -0.122D+00 0.204D+00 0.918D+00
 Gap=     0.147 Goal=   None    Shift=    0.000
 Gap=     0.300 Goal=   None    Shift=    0.000
 RMSDP=1.12D-03 MaxDP=1.07D-01 DE=-1.55D-01 OVMax= 2.89D-02

 Cycle   4  Pass 0  IDiag  1:
 RMSU=  9.52D-04    CP:  9.04D-01  1.02D+00  1.17D+00
 E= -228.539369832397     Delta-E=       -0.004784491957 Rises=F Damp=F
 DIIS: error= 1.62D-03 at cycle   4 NSaved=   4.
 NSaved= 4 IEnMin= 4 EnMin= -228.539369832397     IErMin= 4 ErrMin= 1.62D-03
 ErrMax= 1.62D-03  0.00D+00 EMaxC= 1.00D-01 BMatC= 1.84D-03 BMatP= 1.39D-02
 IDIUse=3 WtCom= 9.84D-01 WtEn= 1.62D-02
 Coeff-Com: -0.271D-02-0.135D-01 0.153D+00 0.864D+00
 Coeff-En:   0.000D+00 0.000D+00 0.000D+00 0.100D+01
 Coeff:     -0.266D-02-0.133D-01 0.150D+00 0.866D+00
 Gap=     0.145 Goal=   None    Shift=    0.000
 Gap=     0.300 Goal=   None    Shift=    0.000
 RMSDP=6.13D-04 MaxDP=4.19D-02 DE=-4.78D-03 OVMax= 1.67D-02

 Cycle   5  Pass 0  IDiag  1:
 RMSU=  2.87D-04    CP:  9.06D-01  1.01D+00  1.26D+00  1.49D+00
 E= -228.540496655386     Delta-E=       -0.001126822989 Rises=F Damp=F
 DIIS: error= 6.78D-04 at cycle   5 NSaved=   5.
 NSaved= 5 IEnMin= 5 EnMin= -228.540496655386     IErMin= 5 ErrMin= 6.78D-04
 ErrMax= 6.78D-04  0.00D+00 EMaxC= 1.00D-01 BMatC= 5.99D-04 BMatP= 1.84D-03
 IDIUse=3 WtCom= 9.93D-01 WtEn= 6.78D-03
 Coeff-Com:  0.227D-01-0.349D-01-0.220D+00-0.105D+00 0.134D+01
 Coeff-En:   0.000D+00 0.000D+00 0.000D+00 0.000D+00 0.100D+01
 Coeff:      0.225D-01-0.346D-01-0.218D+00-0.104D+00 0.133D+01
 Gap=     0.147 Goal=   None    Shift=    0.000
 Gap=     0.302 Goal=   None    Shift=    0.000
 RMSDP=8.24D-04 MaxDP=5.49D-02 DE=-1.13D-03 OVMax= 2.08D-02

 Cycle   6  Pass 0  IDiag  1:
 RMSU=  2.30D-04    CP:  9.07D-01  9.93D-01  1.34D+00  2.17D+00  2.21D+00
 E= -228.541349107004     Delta-E=       -0.000852451618 Rises=F Damp=F
 DIIS: error= 5.13D-04 at cycle   6 NSaved=   6.
 NSaved= 6 IEnMin= 6 EnMin= -228.541349107004     IErMin= 6 ErrMin= 5.13D-04
 ErrMax= 5.13D-04  0.00D+00 EMaxC= 1.00D-01 BMatC= 2.41D-04 BMatP= 5.99D-04
 IDIUse=3 WtCom= 9.95D-01 WtEn= 5.13D-03
 Coeff-Com: -0.919D-04 0.280D-02-0.196D-01-0.105D+00 0.267D-01 0.110D+01
 Coeff-En:   0.000D+00 0.000D+00 0.000D+00 0.000D+00 0.000D+00 0.100D+01
 Coeff:     -0.915D-04 0.279D-02-0.195D-01-0.105D+00 0.266D-01 0.109D+01
 Gap=     0.146 Goal=   None    Shift=    0.000
 Gap=     0.302 Goal=   None    Shift=    0.000
 RMSDP=4.75D-04 MaxDP=3.68D-02 DE=-8.52D-04 OVMax= 1.44D-02

 Cycle   7  Pass 0  IDiag  1:
 RMSU=  1.05D-04    CP:  9.08D-01  9.96D-01  1.36D+00  2.50D+00  3.00D+00
                    CP:  2.01D+00
 E= -228.541743690205     Delta-E=       -0.000394583201 Rises=F Damp=F
 DIIS: error= 4.47D-04 at cycle   7 NSaved=   7.
 NSaved= 7 IEnMin= 7 EnMin= -228.541743690205     IErMin= 7 ErrMin= 4.47D-04
 ErrMax= 4.47D-04  0.00D+00 EMaxC= 1.00D-01 BMatC= 1.73D-04 BMatP= 2.41D-04
 IDIUse=3 WtCom= 9.96D-01 WtEn= 4.47D-03
 Coeff-Com: -0.145D-01 0.235D-01 0.121D+00 0.146D-01-0.714D+00 0.140D+00
 Coeff-Com:  0.143D+01
 Coeff-En:   0.000D+00 0.000D+00 0.000D+00 0.000D+00 0.000D+00 0.000D+00
 Coeff-En:   0.100D+01
 Coeff:     -0.144D-01 0.234D-01 0.121D+00 0.146D-01-0.711D+00 0.140D+00
 Coeff:      0.143D+01
 Gap=     0.146 Goal=   None    Shift=    0.000
 Gap=     0.304 Goal=   None    Shift=    0.000
 RMSDP=6.94D-04 MaxDP=5.33D-02 DE=-3.95D-04 OVMax= 2.31D-02

 Cycle   8  Pass 0  IDiag  1:
 RMSU=  3.51D-04    CP:  9.09D-01  1.00D+00  1.36D+00  2.92D+00  3.00D+00
                    CP:  3.00D+00  3.00D+00
 E= -228.542237577211     Delta-E=       -0.000493887006 Rises=F Damp=F
 DIIS: error= 3.25D-04 at cycle   8 NSaved=   8.
 NSaved= 8 IEnMin= 8 EnMin= -228.542237577211     IErMin= 8 ErrMin= 3.25D-04
 ErrMax= 3.25D-04  0.00D+00 EMaxC= 1.00D-01 BMatC= 1.09D-04 BMatP= 1.73D-04
 IDIUse=3 WtCom= 9.97D-01 WtEn= 3.25D-03
 Coeff-Com:  0.364D-02-0.737D-02-0.155D-01 0.233D-01 0.264D+00-0.776D+00
 Coeff-Com: -0.464D+00 0.197D+01
 Coeff-En:   0.000D+00 0.000D+00 0.000D+00 0.000D+00 0.000D+00 0.000D+00
 Coeff-En:   0.000D+00 0.100D+01
 Coeff:      0.363D-02-0.735D-02-0.154D-01 0.232D-01 0.263D+00-0.774D+00
 Coeff:     -0.462D+00 0.197D+01
 Gap=     0.145 Goal=   None    Shift=    0.000
 Gap=     0.307 Goal=   None    Shift=    0.000
 RMSDP=8.96D-04 MaxDP=6.44D-02 DE=-4.94D-04 OVMax= 3.16D-02

 Cycle   9  Pass 0  IDiag  1:
 RMSU=  6.14D-04    CP:  9.10D-01  1.02D+00  1.34D+00  3.00D+00  3.00D+00
                    CP:  3.00D+00  3.00D+00  2.65D+00
 E= -228.542766366426     Delta-E=       -0.000528789215 Rises=F Damp=F
 DIIS: error= 2.94D-04 at cycle   9 NSaved=   9.
 NSaved= 9 IEnMin= 9 EnMin= -228.542766366426     IErMin= 9 ErrMin= 2.94D-04
 ErrMax= 2.94D-04  0.00D+00 EMaxC= 1.00D-01 BMatC= 7.81D-05 BMatP= 1.09D-04
 IDIUse=3 WtCom= 9.97D-01 WtEn= 2.94D-03
 Coeff-Com:  0.579D-02-0.954D-02-0.393D-01-0.608D-01 0.344D+00 0.517D-01
 Coeff-Com: -0.695D+00 0.315D-01 0.137D+01
 Coeff-En:   0.000D+00 0.000D+00 0.000D+00 0.000D+00 0.000D+00 0.000D+00
 Coeff-En:   0.000D+00 0.000D+00 0.100D+01
 Coeff:      0.578D-02-0.951D-02-0.392D-01-0.606D-01 0.343D+00 0.516D-01
 Coeff:     -0.693D+00 0.314D-01 0.137D+01
 Gap=     0.144 Goal=   None    Shift=    0.000
 Gap=     0.310 Goal=   None    Shift=    0.000
 RMSDP=5.22D-04 MaxDP=4.14D-02 DE=-5.29D-04 OVMax= 2.46D-02

 Cycle  10  Pass 0  IDiag  1:
 RMSU=  2.04D-04    CP:  9.11D-01  1.03D+00  1.33D+00  3.00D+00  3.00D+00
                    CP:  3.00D+00  3.00D+00  3.00D+00  1.67D+00
 E= -228.543070744494     Delta-E=       -0.000304378068 Rises=F Damp=F
 DIIS: error= 2.69D-04 at cycle  10 NSaved=  10.
 NSaved=10 IEnMin=10 EnMin= -228.543070744494     IErMin=10 ErrMin= 2.69D-04
 ErrMax= 2.69D-04  0.00D+00 EMaxC= 1.00D-01 BMatC= 6.66D-05 BMatP= 7.81D-05
 IDIUse=3 WtCom= 9.97D-01 WtEn= 2.69D-03
 Coeff-Com: -0.159D-02 0.232D-02 0.252D-01-0.444D-01-0.393D-01 0.454D-01
 Coeff-Com:  0.199D-01 0.253D+00-0.132D+01 0.206D+01
 Coeff-En:   0.000D+00 0.000D+00 0.000D+00 0.000D+00 0.000D+00 0.000D+00
 Coeff-En:   0.000D+00 0.000D+00 0.000D+00 0.100D+01
 Coeff:     -0.159D-02 0.231D-02 0.251D-01-0.442D-01-0.392D-01 0.453D-01
 Coeff:      0.198D-01 0.252D+00-0.132D+01 0.206D+01
 Gap=     0.143 Goal=   None    Shift=    0.000
 Gap=     0.313 Goal=   None    Shift=    0.000
 RMSDP=4.73D-04 MaxDP=3.43D-02 DE=-3.04D-04 OVMax= 3.06D-02

 Cycle  11  Pass 0  IDiag  1:
 RMSU=  1.08D-04    CP:  9.11D-01  1.03D+00  1.32D+00  3.00D+00  3.00D+00
                    CP:  3.00D+00  3.00D+00  3.00D+00  2.25D+00  2.43D+00
 E= -228.543392915632     Delta-E=       -0.000322171138 Rises=F Damp=F
 DIIS: error= 2.82D-04 at cycle  11 NSaved=  11.
 NSaved=11 IEnMin=11 EnMin= -228.543392915632     IErMin=10 ErrMin= 2.69D-04
 ErrMax= 2.82D-04  0.00D+00 EMaxC= 1.00D-01 BMatC= 7.10D-05 BMatP= 6.66D-05
 IDIUse=3 WtCom= 9.97D-01 WtEn= 2.69D-03
 Coeff-Com: -0.194D-02 0.273D-02 0.284D-01-0.367D-01-0.406D-01-0.673D-01
 Coeff-Com:  0.330D-01 0.533D+00-0.151D+01 0.167D+01 0.390D+00
 Coeff-En:   0.000D+00 0.000D+00 0.000D+00 0.000D+00 0.000D+00 0.000D+00
 Coeff-En:   0.000D+00 0.000D+00 0.000D+00 0.000D+00 0.100D+01
 Coeff:     -0.194D-02 0.272D-02 0.284D-01-0.366D-01-0.405D-01-0.671D-01
 Coeff:      0.330D-01 0.531D+00-0.151D+01 0.166D+01 0.392D+00
 Gap=     0.143 Goal=   None    Shift=    0.000
 Gap=     0.314 Goal=   None    Shift=    0.000
 RMSDP=1.22D-04 MaxDP=5.37D-03 DE=-3.22D-04 OVMax= 8.76D-03

 Cycle  12  Pass 0  IDiag  1:
 RMSU=  1.51D-05    CP:  9.11D-01  1.02D+00  1.32D+00  3.00D+00  3.00D+00
                    CP:  3.00D+00  3.00D+00  3.00D+00  2.36D+00  2.75D+00
                    CP:  1.61D+00
 E= -228.543481551212     Delta-E=       -0.000088635580 Rises=F Damp=F
 DIIS: error= 2.84D-04 at cycle  12 NSaved=  12.
 NSaved=12 IEnMin=12 EnMin= -228.543481551212     IErMin=10 ErrMin= 2.69D-04
 ErrMax= 2.84D-04  0.00D+00 EMaxC= 1.00D-01 BMatC= 7.05D-05 BMatP= 6.66D-05
 IDIUse=3 WtCom= 9.97D-01 WtEn= 2.69D-03
 Coeff-Com: -0.826D-03 0.959D-03 0.187D-01-0.427D-01 0.151D-01-0.319D-01
 Coeff-Com: -0.774D-01 0.436D+00-0.108D+01 0.148D+01-0.210D+01 0.239D+01
 Coeff-En:   0.000D+00 0.000D+00 0.000D+00 0.000D+00 0.000D+00 0.000D+00
 Coeff-En:   0.000D+00 0.000D+00 0.000D+00 0.000D+00 0.000D+00 0.100D+01
 Coeff:     -0.824D-03 0.957D-03 0.187D-01-0.426D-01 0.150D-01-0.319D-01
 Coeff:     -0.772D-01 0.435D+00-0.108D+01 0.147D+01-0.209D+01 0.238D+01
 Gap=     0.143 Goal=   None    Shift=    0.000
 Gap=     0.315 Goal=   None    Shift=    0.000
 RMSDP=2.29D-04 MaxDP=1.69D-02 DE=-8.86D-05 OVMax= 1.45D-02

 Cycle  13  Pass 0  IDiag  1:
 RMSU=  4.43D-05    CP:  9.11D-01  1.01D+00  1.31D+00  3.00D+00  3.00D+00
                    CP:  3.00D+00  3.00D+00  3.00D+00  2.46D+00  3.00D+00
                    CP:  3.00D+00  3.00D+00
 E= -228.543624206117     Delta-E=       -0.000142654906 Rises=F Damp=F
 DIIS: error= 2.89D-04 at cycle  13 NSaved=  13.
 NSaved=13 IEnMin=13 EnMin= -228.543624206117     IErMin=10 ErrMin= 2.69D-04
 ErrMax= 2.89D-04  0.00D+00 EMaxC= 1.00D-01 BMatC= 7.11D-05 BMatP= 6.66D-05
 IDIUse=3 WtCom= 9.97D-01 WtEn= 2.69D-03
 Large coefficients: NSaved= 13 BigCof=   10.22 CofMax=   10.00 Det=-6.47D-09
 Inversion failed.  Reducing to 12 matrices.
 Large coefficients: NSaved= 12 BigCof=   10.17 CofMax=   10.00 Det=-7.78D-09
 Inversion failed.  Reducing to 11 matrices.
 Coeff-Com:  0.999D-02-0.437D-01 0.794D-01-0.120D+00-0.182D+00 0.652D+00
 Coeff-Com: -0.765D+00 0.623D+00-0.428D+01 0.997D+01-0.495D+01
 Coeff-En:   0.000D+00 0.000D+00 0.000D+00 0.000D+00 0.000D+00 0.000D+00
 Coeff-En:   0.000D+00 0.000D+00 0.000D+00 0.000D+00 0.100D+01
 Coeff:      0.996D-02-0.436D-01 0.791D-01-0.119D+00-0.182D+00 0.651D+00
 Coeff:     -0.763D+00 0.621D+00-0.427D+01 0.995D+01-0.493D+01
 Gap=     0.143 Goal=   None    Shift=    0.000
 Gap=     0.311 Goal=   None    Shift=    0.000
 RMSDP=8.13D-04 MaxDP=7.23D-02 DE=-1.43D-04 OVMax= 4.42D-02

 Cycle  14  Pass 0  IDiag  1:
 RMSU=  1.29D-04    CP:  9.12D-01  1.05D+00  1.34D+00  3.00D+00  3.00D+00
                    CP:  3.00D+00  3.00D+00  3.00D+00  2.25D+00  2.22D+00
                    CP: -2.14D+00 -3.00D+00 -3.00D+00
 E= -228.543194346572     Delta-E=        0.000429859545 Rises=F Damp=F
 DIIS: error= 2.80D-04 at cycle  14 NSaved=  12.
 NSaved=12 IEnMin=11 EnMin= -228.543624206117     IErMin= 8 ErrMin= 2.69D-04
 ErrMax= 2.80D-04  0.00D+00 EMaxC= 1.00D-01 BMatC= 6.85D-05 BMatP= 6.66D-05
 IDIUse=3 WtCom= 9.97D-01 WtEn= 2.69D-03
 Rare condition: small coef for last iteration:  0.000D+00
 Coeff-Com:  0.690D-03-0.439D-01 0.109D+00 0.107D+00-0.180D+00-0.152D+00
 Coeff-Com: -0.189D+00 0.170D+01-0.595D+01 0.533D+00-0.220D+01 0.726D+01
 Coeff-En:   0.000D+00 0.000D+00 0.000D+00 0.000D+00 0.000D+00 0.000D+00
 Coeff-En:   0.000D+00 0.000D+00 0.000D+00 0.000D+00 0.000D+00 0.100D+01
 Coeff:      0.690D-03-0.439D-01 0.109D+00 0.107D+00-0.180D+00-0.152D+00
 Coeff:     -0.189D+00 0.170D+01-0.595D+01 0.533D+00-0.220D+01 0.726D+01
 Gap=     0.147 Goal=   None    Shift=    0.000
 Gap=     0.292 Goal=   None    Shift=    0.000
 RMSDP=3.10D-03 MaxDP=2.97D-01 DE= 4.30D-04 OVMax= 1.85D-01

 Cycle  15  Pass 0  IDiag  1:
 RMSU=  2.59D-03    CP:  9.11D-01  1.13D+00  1.45D+00  3.00D+00  3.00D+00
                    CP:  3.00D+00  3.00D+00  3.00D+00  9.36D-01 -1.84D+00
                    CP: -3.00D+00 -3.00D+00 -3.00D+00  3.00D+00
 E= -228.541431021967     Delta-E=        0.001763324605 Rises=F Damp=F
 DIIS: error= 4.27D-04 at cycle  15 NSaved=  13.
 NSaved=13 IEnMin=11 EnMin= -228.543624206117     IErMin= 8 ErrMin= 2.69D-04
 ErrMax= 4.27D-04  0.00D+00 EMaxC= 1.00D-01 BMatC= 2.16D-04 BMatP= 6.66D-05
 IDIUse=3 WtCom= 9.97D-01 WtEn= 2.69D-03
 Large coefficients: NSaved= 13 BigCof=   14.96 CofMax=   10.00 Det=-6.59D-09
 Inversion failed.  Reducing to 12 matrices.
 Large coefficients: NSaved= 12 BigCof=   14.24 CofMax=   10.00 Det=-6.59D-09
 Inversion failed.  Reducing to 11 matrices.
 Large coefficients: NSaved= 11 BigCof=   14.33 CofMax=   10.00 Det=-6.60D-09
 Inversion failed.  Reducing to 10 matrices.
 Large coefficients: NSaved= 10 BigCof=   13.53 CofMax=   10.00 Det=-8.10D-09
 Inversion failed.  Reducing to  9 matrices.
 Large coefficients: NSaved=  9 BigCof=   12.61 CofMax=   10.00 Det=-8.48D-09
 Inversion failed.  Reducing to  8 matrices.
 Large coefficients: NSaved=  8 BigCof=   12.68 CofMax=   10.00 Det=-2.58D-08
 Inversion failed.  Reducing to  7 matrices.
 Large coefficients: NSaved=  7 BigCof=   11.71 CofMax=   10.00 Det=-9.49D-09
 Inversion failed.  Reducing to  6 matrices.
 Large coefficients: NSaved=  6 BigCof=   11.71 CofMax=   10.00 Det=-1.73D-08
 Inversion failed.  Reducing to  5 matrices.
 Large coefficients: NSaved=  5 BigCof=   11.75 CofMax=   10.00 Det=-4.45D-08
 Inversion failed.  Reducing to  4 matrices.
 Large coefficients: NSaved=  4 BigCof=   11.65 CofMax=   10.00 Det=-5.04D-08
 Inversion failed.  Reducing to  3 matrices.
 Rare condition: small coef for last iteration:  0.000D+00
 Coeff-Com: -0.814D+01 0.960D+01-0.468D+00
 Coeff-En:   0.000D+00 0.000D+00 0.100D+01
 Coeff:     -0.814D+01 0.960D+01-0.468D+00
 Gap=     0.167 Goal=   None    Shift=    0.000
 Gap=     0.285 Goal=   None    Shift=    0.000
 RMSDP=7.33D-04 MaxDP=6.49D-02 DE= 1.76D-03 OVMax= 4.65D-02

 Problem detected with inexpensive integrals.
 Switching to full accuracy and repeating last cycle.
 Cycle  16  Pass 1  IDiag  1:
 E= -228.541431021972     Delta-E=       -0.000000000005 Rises=F Damp=F
 DIIS: error= 4.27D-04 at cycle   1 NSaved=   1.
 NSaved= 1 IEnMin= 1 EnMin= -228.541431021972     IErMin= 1 ErrMin= 4.27D-04
 ErrMax= 4.27D-04  0.00D+00 EMaxC= 1.00D-01 BMatC= 2.16D-04 BMatP= 2.16D-04
 IDIUse=3 WtCom= 9.96D-01 WtEn= 4.27D-03
 Coeff-Com:  0.100D+01
 Coeff-En:   0.100D+01
 Coeff:      0.100D+01
 Gap=     0.147 Goal=   None    Shift=    0.000
 Gap=     0.294 Goal=   None    Shift=    0.000
 RMSDP=3.03D-04 MaxDP=3.10D-02 DE=-4.66D-12 OVMax= 8.24D-03

 Cycle  17  Pass 1  IDiag  1:
 RMSU=  2.78D-04    CP:  9.94D-01
 E= -228.541581901274     Delta-E=       -0.000150879302 Rises=F Damp=F
 DIIS: error= 3.60D-04 at cycle   2 NSaved=   2.
 NSaved= 2 IEnMin= 2 EnMin= -228.541581901274     IErMin= 2 ErrMin= 3.60D-04
 ErrMax= 3.60D-04  0.00D+00 EMaxC= 1.00D-01 BMatC= 6.75D-05 BMatP= 2.16D-04
 IDIUse=3 WtCom= 9.96D-01 WtEn= 3.60D-03
 Coeff-Com:  0.967D-01 0.903D+00
 Coeff-En:   0.000D+00 0.100D+01
 Coeff:      0.964D-01 0.904D+00
 Gap=     0.147 Goal=   None    Shift=    0.000
 Gap=     0.294 Goal=   None    Shift=    0.000
 RMSDP=1.75D-04 MaxDP=1.26D-02 DE=-1.51D-04 OVMax= 1.14D-02

 Cycle  18  Pass 1  IDiag  1:
 RMSU=  1.38D-04    CP:  9.93D-01  1.39D+00
 E= -228.541680531945     Delta-E=       -0.000098630671 Rises=F Damp=F
 DIIS: error= 2.60D-04 at cycle   3 NSaved=   3.
 NSaved= 3 IEnMin= 3 EnMin= -228.541680531945     IErMin= 3 ErrMin= 2.60D-04
 ErrMax= 2.60D-04  0.00D+00 EMaxC= 1.00D-01 BMatC= 6.70D-05 BMatP= 6.75D-05
 IDIUse=3 WtCom= 9.97D-01 WtEn= 2.60D-03
 Coeff-Com: -0.386D+00 0.287D+00 0.110D+01
 Coeff-En:   0.000D+00 0.000D+00 0.100D+01
 Coeff:     -0.384D+00 0.286D+00 0.110D+01
 Gap=     0.146 Goal=   None    Shift=    0.000
 Gap=     0.296 Goal=   None    Shift=    0.000
 RMSDP=2.49D-04 MaxDP=1.72D-02 DE=-9.86D-05 OVMax= 1.55D-02

 Cycle  19  Pass 1  IDiag  1:
 RMSU=  5.25D-05    CP:  9.93D-01  1.91D+00  2.42D+00
 E= -228.541821929279     Delta-E=       -0.000141397334 Rises=F Damp=F
 DIIS: error= 2.37D-04 at cycle   4 NSaved=   4.
 NSaved= 4 IEnMin= 4 EnMin= -228.541821929279     IErMin= 4 ErrMin= 2.37D-04
 ErrMax= 2.37D-04  0.00D+00 EMaxC= 1.00D-01 BMatC= 5.50D-05 BMatP= 6.70D-05
 IDIUse=3 WtCom= 9.98D-01 WtEn= 2.37D-03
 Coeff-Com: -0.195D+00 0.312D+00-0.136D+00 0.102D+01
 Coeff-En:   0.000D+00 0.000D+00 0.000D+00 0.100D+01
 Coeff:     -0.195D+00 0.312D+00-0.135D+00 0.102D+01
 Gap=     0.146 Goal=   None    Shift=    0.000
 Gap=     0.297 Goal=   None    Shift=    0.000
 RMSDP=1.81D-04 MaxDP=1.94D-02 DE=-1.41D-04 OVMax= 1.18D-02

 Cycle  20  Pass 1  IDiag  1:
 RMSU=  8.05D-05    CP:  9.95D-01  2.10D+00  3.00D+00  2.26D+00
 E= -228.541923954840     Delta-E=       -0.000102025561 Rises=F Damp=F
 DIIS: error= 2.30D-04 at cycle   5 NSaved=   5.
 NSaved= 5 IEnMin= 5 EnMin= -228.541923954840     IErMin= 5 ErrMin= 2.30D-04
 ErrMax= 2.30D-04  0.00D+00 EMaxC= 1.00D-01 BMatC= 5.51D-05 BMatP= 5.50D-05
 IDIUse=3 WtCom= 9.98D-01 WtEn= 2.30D-03
 Coeff-Com: -0.193D+00 0.314D+00-0.143D+00 0.997D+00 0.251D-01
 Coeff-En:   0.000D+00 0.000D+00 0.000D+00 0.000D+00 0.100D+01
 Coeff:     -0.193D+00 0.313D+00-0.142D+00 0.995D+00 0.274D-01
 Gap=     0.146 Goal=   None    Shift=    0.000
 Gap=     0.297 Goal=   None    Shift=    0.000
 RMSDP=4.82D-06 MaxDP=4.63D-04 DE=-1.02D-04 OVMax= 3.30D-04

 Cycle  21  Pass 1  IDiag  1:
 RMSU=  6.44D-07    CP:  9.95D-01  2.10D+00  3.00D+00  2.30D+00  1.05D+00
 E= -228.541926819941     Delta-E=       -0.000002865101 Rises=F Damp=F
 DIIS: error= 2.30D-04 at cycle   6 NSaved=   6.
 NSaved= 6 IEnMin= 6 EnMin= -228.541926819941     IErMin= 5 ErrMin= 2.30D-04
 ErrMax= 2.30D-04  0.00D+00 EMaxC= 1.00D-01 BMatC= 5.50D-05 BMatP= 5.50D-05
 IDIUse=3 WtCom= 9.98D-01 WtEn= 2.30D-03
 Large coefficients: NSaved=  6 BigCof=  111.65 CofMax=   10.00 Det=-2.90D-11
 Inversion failed.  Reducing to  5 matrices.
 Coeff-Com:  0.397D+00-0.912D+00 0.597D+00 0.433D+01-0.341D+01
 Coeff-En:   0.000D+00 0.000D+00 0.000D+00 0.000D+00 0.100D+01
 Coeff:      0.396D+00-0.910D+00 0.596D+00 0.432D+01-0.340D+01
 Gap=     0.145 Goal=   None    Shift=    0.000
 Gap=     0.298 Goal=   None    Shift=    0.000
 RMSDP=1.83D-04 MaxDP=1.86D-02 DE=-2.87D-06 OVMax= 1.23D-02

 Cycle  22  Pass 1  IDiag  1:
 RMSU=  5.08D-05    CP:  9.97D-01  2.25D+00  3.00D+00  3.00D+00  2.96D+00
                    CP:  3.00D+00
 E= -228.542033360397     Delta-E=       -0.000106540456 Rises=F Damp=F
 DIIS: error= 2.38D-04 at cycle   7 NSaved=   6.
 NSaved= 6 IEnMin= 6 EnMin= -228.542033360397     IErMin= 4 ErrMin= 2.30D-04
 ErrMax= 2.38D-04  0.00D+00 EMaxC= 1.00D-01 BMatC= 5.45D-05 BMatP= 5.50D-05
 IDIUse=3 WtCom= 9.98D-01 WtEn= 2.30D-03
 Large coefficients: NSaved=  6 BigCof= 4198.40 CofMax=   10.00 Det=-1.70D-13
 Inversion failed.  Reducing to  5 matrices.
 Large coefficients: NSaved=  5 BigCof=  567.12 CofMax=   10.00 Det=-1.40D-11
 Inversion failed.  Reducing to  4 matrices.
 Large coefficients: NSaved=  4 BigCof=   16.78 CofMax=   10.00 Det=-3.40D-11
 Inversion failed.  Reducing to  3 matrices.
 Large coefficients: NSaved=  3 BigCof=   86.93 CofMax=   10.00 Det=-4.54D-11
 Inversion failed.  Reducing to  2 matrices.
 Coeff-Com: -0.219D+01 0.319D+01
 Coeff-En:   0.000D+00 0.100D+01
 Coeff:     -0.219D+01 0.319D+01
 Gap=     0.144 Goal=   None    Shift=    0.000
 Gap=     0.303 Goal=   None    Shift=    0.000
 RMSDP=5.34D-04 MaxDP=3.71D-02 DE=-1.07D-04 OVMax= 3.70D-02

 Cycle  23  Pass 1  IDiag  1:
 RMSU=  4.58D-04    CP:  9.95D-01  2.82D+00  3.00D+00  3.00D+00  3.00D+00
                    CP:  3.00D+00  3.00D+00
 E= -228.542360931240     Delta-E=       -0.000327570843 Rises=F Damp=F
 DIIS: error= 2.56D-04 at cycle   8 NSaved=   3.
 NSaved= 3 IEnMin= 3 EnMin= -228.542360931240     IErMin= 1 ErrMin= 2.30D-04
 ErrMax= 2.56D-04  0.00D+00 EMaxC= 1.00D-01 BMatC= 4.82D-05 BMatP= 5.45D-05
 IDIUse=3 WtCom= 9.98D-01 WtEn= 2.30D-03
 Coeff-Com:  0.167D+01-0.215D+01 0.148D+01
 Coeff-En:   0.000D+00 0.000D+00 0.100D+01
 Coeff:      0.167D+01-0.214D+01 0.147D+01
 Gap=     0.144 Goal=   None    Shift=    0.000
 Gap=     0.303 Goal=   None    Shift=    0.000
 RMSDP=1.43D-04 MaxDP=1.20D-02 DE=-3.28D-04 OVMax= 8.47D-03

 Cycle  24  Pass 1  IDiag  1:
 RMSU=  5.97D-05    CP:  9.92D-01  3.00D+00  3.00D+00  3.00D+00  3.00D+00
                    CP:  3.00D+00  3.00D+00  1.21D+00
 E= -228.542432513227     Delta-E=       -0.000071581987 Rises=F Damp=F
 DIIS: error= 2.47D-04 at cycle   9 NSaved=   4.
 NSaved= 4 IEnMin= 4 EnMin= -228.542432513227     IErMin= 1 ErrMin= 2.30D-04
 ErrMax= 2.47D-04  0.00D+00 EMaxC= 1.00D-01 BMatC= 5.50D-05 BMatP= 4.82D-05
 IDIUse=3 WtCom= 9.98D-01 WtEn= 2.30D-03
 Coeff-Com: -0.352D+01 0.689D+01 0.191D+01-0.429D+01
 Coeff-En:   0.000D+00 0.000D+00 0.000D+00 0.100D+01
 Coeff:     -0.351D+01 0.687D+01 0.191D+01-0.427D+01
 Gap=     0.146 Goal=   None    Shift=    0.000
 Gap=     0.291 Goal=   None    Shift=    0.000
 RMSDP=1.65D-03 MaxDP=9.95D-02 DE=-7.16D-05 OVMax= 1.13D-01

 Cycle  25  Pass 1  IDiag  1:
 RMSU=  2.74D-04    CP:  9.98D-01  7.48D-01  7.28D-02 -3.00D+00 -1.99D+00
                    CP:  3.00D+00 -1.89D-01 -1.82D-01 -3.00D+00
 E= -228.541435467196     Delta-E=        0.000997046031 Rises=F Damp=F
 DIIS: error= 2.81D-04 at cycle  10 NSaved=   5.
 NSaved= 5 IEnMin= 4 EnMin= -228.542432513227     IErMin= 1 ErrMin= 2.30D-04
 ErrMax= 2.81D-04  0.00D+00 EMaxC= 1.00D-01 BMatC= 6.92D-05 BMatP= 4.82D-05
 IDIUse=3 WtCom= 9.98D-01 WtEn= 2.30D-03
 Rare condition: small coef for last iteration:  0.000D+00
 Coeff-Com: -0.447D+01 0.841D+01 0.146D+01-0.364D+01-0.766D+00
 Coeff-En:   0.000D+00 0.000D+00 0.000D+00 0.000D+00 0.100D+01
 Coeff:     -0.447D+01 0.841D+01 0.146D+01-0.364D+01-0.766D+00
 Gap=     0.145 Goal=   None    Shift=    0.000
 Gap=     0.299 Goal=   None    Shift=    0.000
 RMSDP=1.10D-03 MaxDP=9.52D-02 DE= 9.97D-04 OVMax= 7.50D-02

 Cycle  26  Pass 1  IDiag  1:
 RMSU=  5.95D-05    CP:  1.00D+00  2.05D+00  3.00D+00  3.00D+00  3.00D+00
                    CP:  3.00D+00  1.82D+00  2.30D-01 -1.49D+00 -5.82D-03
 E= -228.542089278852     Delta-E=       -0.000653811656 Rises=F Damp=F
 DIIS: error= 2.64D-04 at cycle  11 NSaved=   6.
 NSaved= 6 IEnMin= 4 EnMin= -228.542432513227     IErMin= 1 ErrMin= 2.30D-04
 ErrMax= 2.64D-04  0.00D+00 EMaxC= 1.00D-01 BMatC= 5.94D-05 BMatP= 4.82D-05
 IDIUse=3 WtCom= 9.98D-01 WtEn= 2.30D-03
 Coeff-Com: -0.757D+00 0.180D+01 0.126D+01-0.273D+01-0.356D+01 0.498D+01
 Coeff-En:   0.000D+00 0.000D+00 0.000D+00 0.000D+00 0.000D+00 0.100D+01
 Coeff:     -0.755D+00 0.180D+01 0.126D+01-0.272D+01-0.355D+01 0.497D+01
 Gap=     0.143 Goal=   None    Shift=    0.000
 Gap=     0.322 Goal=   None    Shift=    0.000
 RMSDP=2.93D-03 MaxDP=1.87D-01 DE=-6.54D-04 OVMax= 1.97D-01

 Cycle  27  Pass 1  IDiag  1:
 RMSU=  1.50D-03    CP:  9.56D-01  3.00D+00  3.00D+00  3.00D+00  3.00D+00
                    CP:  3.00D+00  3.00D+00  3.00D+00  3.00D+00  9.35D-01
                    CP:  3.00D+00
 E= -228.543910241114     Delta-E=       -0.001820962262 Rises=F Damp=F
 DIIS: error= 4.57D-04 at cycle  12 NSaved=   7.
 NSaved= 7 IEnMin= 7 EnMin= -228.543910241114     IErMin= 1 ErrMin= 2.30D-04
 ErrMax= 4.57D-04  0.00D+00 EMaxC= 1.00D-01 BMatC= 1.18D-04 BMatP= 4.82D-05
 IDIUse=3 WtCom= 9.98D-01 WtEn= 2.30D-03
 Coeff-Com: -0.343D+01 0.606D+01-0.375D+00-0.166D+01-0.443D+01 0.450D+01
 Coeff-Com:  0.339D+00
 Coeff-En:   0.000D+00 0.000D+00 0.000D+00 0.000D+00 0.000D+00 0.000D+00
 Coeff-En:   0.100D+01
 Coeff:     -0.342D+01 0.605D+01-0.374D+00-0.166D+01-0.442D+01 0.449D+01
 Coeff:      0.341D+00
 Gap=     0.163 Goal=   None    Shift=    0.000
 Gap=     0.336 Goal=   None    Shift=    0.000
 RMSDP=2.19D-03 MaxDP=1.51D-01 DE=-1.82D-03 OVMax= 1.15D-01

 Cycle  28  Pass 1  IDiag  1:
 RMSU=  5.74D-04    CP:  8.88D-01  3.00D+00  3.00D+00  3.00D+00  3.00D+00
                    CP:  3.00D+00  3.00D+00  3.00D+00  3.00D+00  1.87D+00
                    CP:  5.61D-01  2.08D+00
 E= -228.544681667676     Delta-E=       -0.000771426561 Rises=F Damp=F
 DIIS: error= 6.36D-04 at cycle  13 NSaved=   8.
 NSaved= 8 IEnMin= 8 EnMin= -228.544681667676     IErMin= 1 ErrMin= 2.30D-04
 ErrMax= 6.36D-04  0.00D+00 EMaxC= 1.00D-01 BMatC= 6.04D-04 BMatP= 4.82D-05
 IDIUse=3 WtCom= 9.98D-01 WtEn= 2.30D-03
 Coeff-Com: -0.448D+01 0.920D+01-0.112D+01-0.388D+01 0.813D+00 0.140D+01
 Coeff-Com: -0.173D+01 0.791D+00
 Coeff-En:   0.000D+00 0.000D+00 0.000D+00 0.000D+00 0.000D+00 0.000D+00
 Coeff-En:   0.000D+00 0.100D+01
 Coeff:     -0.447D+01 0.917D+01-0.112D+01-0.387D+01 0.811D+00 0.140D+01
 Coeff:     -0.172D+01 0.791D+00
 Gap=     0.079 Goal=   None    Shift=    0.000
 Gap=     0.268 Goal=   None    Shift=    0.000
 RMSDP=7.37D-03 MaxDP=4.65D-01 DE=-7.71D-04 OVMax= 5.35D-01

 Cycle  29  Pass 1  IDiag  1:
 RMSU=  1.14D-03    CP:  9.03D-01 -1.10D-01 -3.00D+00 -3.00D+00 -3.00D+00
                    CP:  3.00D+00 -3.00D+00 -3.00D+00  2.02D+00  3.00D+00
                    CP: -3.00D+00 -1.13D-01  1.81D+00
 E= -228.538668601214     Delta-E=        0.006013066462 Rises=F Damp=F
 DIIS: error= 1.22D-03 at cycle  14 NSaved=   9.
 NSaved= 9 IEnMin= 8 EnMin= -228.544681667676     IErMin= 1 ErrMin= 2.30D-04
 ErrMax= 1.22D-03  0.00D+00 EMaxC= 1.00D-01 BMatC= 1.28D-03 BMatP= 4.82D-05
 IDIUse=3 WtCom= 9.98D-01 WtEn= 2.30D-03
 Rare condition: small coef for last iteration:  0.000D+00
 Coeff-Com: -0.265D+01 0.711D+01-0.110D+01-0.409D+01 0.170D+01 0.744D+00
 Coeff-Com: -0.110D+01 0.516D+00-0.140D+00
 Coeff-En:   0.000D+00 0.000D+00 0.000D+00 0.000D+00 0.000D+00 0.000D+00
 Coeff-En:   0.000D+00 0.000D+00 0.100D+01
 Coeff:     -0.265D+01 0.711D+01-0.110D+01-0.409D+01 0.170D+01 0.744D+00
 Coeff:     -0.110D+01 0.516D+00-0.140D+00
 Gap=     0.175 Goal=   None    Shift=    0.000
 Gap=     0.261 Goal=   None    Shift=    0.000
 RMSDP=1.77D-04 MaxDP=1.16D-02 DE= 6.01D-03 OVMax= 1.04D-02

 Cycle  30  Pass 1  IDiag  1:
 RMSU=  4.87D-05    CP:  8.99D-01 -3.09D-01 -3.00D+00 -3.00D+00 -3.00D+00
                    CP:  3.00D+00 -3.00D+00 -3.00D+00  3.00D+00  3.00D+00
                    CP: -3.00D+00 -1.44D-01  1.92D+00  1.07D+00
 E= -228.538297272780     Delta-E=        0.000371328434 Rises=F Damp=F
 DIIS: error= 1.41D-03 at cycle  15 NSaved=  10.
 NSaved=10 IEnMin= 8 EnMin= -228.544681667676     IErMin= 1 ErrMin= 2.30D-04
 ErrMax= 1.41D-03  0.00D+00 EMaxC= 1.00D-01 BMatC= 1.73D-03 BMatP= 4.82D-05
 IDIUse=3 WtCom= 9.98D-01 WtEn= 2.30D-03
 Rare condition: small coef for last iteration:  0.000D+00
 Coeff-Com: -0.434D+01 0.989D+01-0.124D+01-0.383D+01 0.727D+00 0.107D+01
 Coeff-Com: -0.148D+01 0.707D+00-0.299D+01 0.248D+01
 Coeff-En:   0.000D+00 0.000D+00 0.000D+00 0.000D+00 0.000D+00 0.000D+00
 Coeff-En:   0.000D+00 0.000D+00 0.000D+00 0.100D+01
 Coeff:     -0.434D+01 0.989D+01-0.124D+01-0.383D+01 0.727D+00 0.107D+01
 Coeff:     -0.148D+01 0.707D+00-0.299D+01 0.248D+01
 Gap=     0.158 Goal=   None    Shift=    0.000
 Gap=     0.279 Goal=   None    Shift=    0.000
 RMSDP=2.49D-03 MaxDP=2.89D-01 DE= 3.71D-04 OVMax= 1.17D-01

 Cycle  31  Pass 1  IDiag  1:
 RMSU=  2.03D-04    CP:  9.79D-01 -6.54D-01 -3.00D+00 -3.00D+00 -3.00D+00
                    CP:  3.00D+00 -3.00D+00 -1.81D+00 -3.00D+00  1.61D+00
                    CP: -2.68D+00  7.41D-02  1.98D-01  1.87D-01  1.78D+00
 E= -228.540441767320     Delta-E=       -0.002144494540 Rises=F Damp=F
 DIIS: error= 6.03D-04 at cycle  16 NSaved=  11.
 NSaved=11 IEnMin= 8 EnMin= -228.544681667676     IErMin= 1 ErrMin= 2.30D-04
 ErrMax= 6.03D-04  0.00D+00 EMaxC= 1.00D-01 BMatC= 3.38D-04 BMatP= 4.82D-05
 IDIUse=3 WtCom= 9.98D-01 WtEn= 2.30D-03
 Coeff-Com: -0.372D+01 0.481D+01-0.103D+01-0.357D+00-0.113D+01 0.262D+01
 Coeff-Com: -0.138D+01 0.494D+00-0.331D+01 0.205D+01 0.195D+01
 Coeff-En:   0.000D+00 0.000D+00 0.000D+00 0.000D+00 0.000D+00 0.000D+00
 Coeff-En:   0.000D+00 0.000D+00 0.000D+00 0.000D+00 0.100D+01
 Coeff:     -0.372D+01 0.480D+01-0.103D+01-0.357D+00-0.113D+01 0.261D+01
 Coeff:     -0.137D+01 0.493D+00-0.330D+01 0.204D+01 0.195D+01
 Gap=     0.151 Goal=   None    Shift=    0.000
 Gap=     0.295 Goal=   None    Shift=    0.000
 RMSDP=2.37D-03 MaxDP=2.95D-01 DE=-2.14D-03 OVMax= 1.27D-01

 Cycle  32  Pass 1  IDiag  1:
 RMSU=  2.67D-04    CP:  1.04D+00 -5.82D-01  2.97D+00  1.19D+00  1.60D+00
                    CP: -3.00D+00 -3.00D+00  1.90D-03 -4.07D-02 -7.97D-01
                    CP:  3.00D+00 -3.27D-02 -1.55D-01 -2.28D-01  3.00D+00
                    CP: -2.02D-01
 E= -228.541690396708     Delta-E=       -0.001248629388 Rises=F Damp=F
 DIIS: error= 3.72D-04 at cycle  17 NSaved=  12.
 NSaved=12 IEnMin= 8 EnMin= -228.544681667676     IErMin= 1 ErrMin= 2.30D-04
 ErrMax= 3.72D-04  0.00D+00 EMaxC= 1.00D-01 BMatC= 1.55D-04 BMatP= 4.82D-05
 IDIUse=3 WtCom= 9.98D-01 WtEn= 2.30D-03
 Coeff-Com: -0.707D+01 0.740D+01-0.106D+00 0.320D+00-0.234D+01 0.296D+01
 Coeff-Com: -0.270D+01 0.830D+00-0.202D+01 0.119D+01 0.118D+01 0.134D+01
 Coeff-En:   0.000D+00 0.000D+00 0.000D+00 0.000D+00 0.000D+00 0.000D+00
 Coeff-En:   0.000D+00 0.000D+00 0.000D+00 0.000D+00 0.000D+00 0.100D+01
 Coeff:     -0.705D+01 0.738D+01-0.106D+00 0.320D+00-0.234D+01 0.296D+01
 Coeff:     -0.269D+01 0.828D+00-0.201D+01 0.119D+01 0.117D+01 0.134D+01
 Gap=     0.158 Goal=   None    Shift=    0.000
 Gap=     0.296 Goal=   None    Shift=    0.000
 RMSDP=6.37D-04 MaxDP=6.79D-02 DE=-1.25D-03 OVMax= 6.63D-03

 Cycle  33  Pass 1  IDiag  1:
 RMSU=  1.21D-04    CP:  1.06D+00 -1.79D+00  3.00D+00  3.00D+00  3.00D+00
                    CP: -3.00D+00 -3.00D+00  1.31D-01  7.40D-01 -1.49D+00
                    CP:  3.00D+00 -7.53D-02 -2.51D-01 -3.85D-01  3.00D+00
                    CP:  1.04D-01  1.42D+00
 E= -228.541677835959     Delta-E=        0.000012560749 Rises=F Damp=F
 DIIS: error= 4.43D-04 at cycle  18 NSaved=  13.
 NSaved=13 IEnMin= 8 EnMin= -228.544681667676     IErMin= 1 ErrMin= 2.30D-04
 ErrMax= 4.43D-04  0.00D+00 EMaxC= 1.00D-01 BMatC= 2.25D-04 BMatP= 4.82D-05
 IDIUse=3 WtCom= 9.98D-01 WtEn= 2.30D-03
 Rare condition: small coef for last iteration:  0.000D+00
 Coeff-Com: -0.779D+01 0.898D+01-0.343D+00 0.161D+00-0.217D+01 0.254D+01
 Coeff-Com: -0.269D+01 0.796D+00-0.133D+01 0.633D+00 0.931D+00 0.305D+00
 Coeff-Com:  0.980D+00
 Coeff-En:   0.000D+00 0.000D+00 0.000D+00 0.000D+00 0.000D+00 0.000D+00
 Coeff-En:   0.000D+00 0.000D+00 0.000D+00 0.000D+00 0.000D+00 0.000D+00
 Coeff-En:   0.100D+01
 Coeff:     -0.779D+01 0.898D+01-0.343D+00 0.161D+00-0.217D+01 0.254D+01
 Coeff:     -0.269D+01 0.796D+00-0.133D+01 0.633D+00 0.931D+00 0.305D+00
 Coeff:      0.980D+00
 Gap=     0.159 Goal=   None    Shift=    0.000
 Gap=     0.295 Goal=   None    Shift=    0.000
 RMSDP=3.09D-04 MaxDP=3.35D-02 DE= 1.26D-05 OVMax= 1.34D-02

 Cycle  34  Pass 1  IDiag  1:
 RMSU=  3.05D-05    CP:  1.06D+00 -2.53D+00  2.35D+00  2.32D+00  3.00D+00
                    CP: -3.00D+00 -3.00D+00  3.69D-02  4.90D-01 -1.68D+00
                    CP:  3.00D+00 -8.61D-02 -2.59D-01 -4.44D-01  3.00D+00
                    CP:  8.63D-02  1.58D+00  1.55D+00
 E= -228.541536956191     Delta-E=        0.000140879768 Rises=F Damp=F
 DIIS: error= 4.71D-04 at cycle  19 NSaved=  14.
 NSaved=14 IEnMin= 8 EnMin= -228.544681667676     IErMin= 1 ErrMin= 2.30D-04
 ErrMax= 4.71D-04  0.00D+00 EMaxC= 1.00D-01 BMatC= 2.71D-04 BMatP= 4.82D-05
 IDIUse=3 WtCom= 9.98D-01 WtEn= 2.30D-03
 Rare condition: small coef for last iteration:  0.000D+00
 Coeff-Com: -0.583D+01 0.695D+01-0.329D+00-0.187D+00-0.171D+01 0.248D+01
 Coeff-Com: -0.244D+01 0.736D+00-0.590D+00-0.117D+00 0.112D+01 0.470D+00
 Coeff-Com: -0.253D+01 0.298D+01
 Coeff-En:   0.000D+00 0.000D+00 0.000D+00 0.000D+00 0.000D+00 0.000D+00
 Coeff-En:   0.000D+00 0.000D+00 0.000D+00 0.000D+00 0.000D+00 0.000D+00
 Coeff-En:   0.000D+00 0.100D+01
 Coeff:     -0.583D+01 0.695D+01-0.329D+00-0.187D+00-0.171D+01 0.248D+01
 Coeff:     -0.244D+01 0.736D+00-0.590D+00-0.117D+00 0.112D+01 0.470D+00
 Coeff:     -0.253D+01 0.298D+01
 Gap=     0.161 Goal=   None    Shift=    0.000
 Gap=     0.285 Goal=   None    Shift=    0.000
 RMSDP=1.25D-03 MaxDP=1.43D-01 DE= 1.41D-04 OVMax= 7.63D-02

 Cycle  35  Pass 1  IDiag  1:
 RMSU=  1.06D-04    CP:  1.04D+00 -3.00D+00 -3.00D+00 -3.00D+00 -1.17D+00
                    CP: -3.00D+00 -3.00D+00 -2.50D-01 -3.00D+00 -6.22D-01
                    CP:  3.00D+00 -8.82D-02 -1.88D-01 -2.06D-01  3.00D+00
                    CP:  2.13D-01  1.35D+00  1.32D+00  3.00D+00
 E= -228.540766267497     Delta-E=        0.000770688694 Rises=F Damp=F
 DIIS: error= 6.18D-04 at cycle  20 NSaved=  15.
 NSaved=15 IEnMin= 8 EnMin= -228.544681667676     IErMin= 1 ErrMin= 2.30D-04
 ErrMax= 6.18D-04  0.00D+00 EMaxC= 1.00D-01 BMatC= 4.52D-04 BMatP= 4.82D-05
 IDIUse=3 WtCom= 9.98D-01 WtEn= 2.30D-03
 Rare condition: small coef for last iteration:  0.000D+00
 Coeff-Com: -0.539D+01 0.592D+01 0.745D-01-0.247D+00-0.136D+01 0.183D+01
 Coeff-Com: -0.219D+01 0.689D+00-0.262D+00-0.693D+00 0.964D+00 0.148D+01
 Coeff-Com:  0.340D+00-0.259D+01 0.244D+01
 Coeff-En:   0.000D+00 0.000D+00 0.000D+00 0.000D+00 0.000D+00 0.000D+00
 Coeff-En:   0.000D+00 0.000D+00 0.000D+00 0.000D+00 0.000D+00 0.000D+00
 Coeff-En:   0.000D+00 0.000D+00 0.100D+01
 Coeff:     -0.539D+01 0.592D+01 0.745D-01-0.247D+00-0.136D+01 0.183D+01
 Coeff:     -0.219D+01 0.689D+00-0.262D+00-0.693D+00 0.964D+00 0.148D+01
 Coeff:      0.340D+00-0.259D+01 0.244D+01
 Gap=     0.166 Goal=   None    Shift=    0.000
 Gap=     0.277 Goal=   None    Shift=    0.000
 RMSDP=1.15D-03 MaxDP=1.44D-01 DE= 7.71D-04 OVMax= 5.46D-02

 Cycle  36  Pass 1  IDiag  1:
 Restarting incremental Fock formation.
 E= -228.540098779604     Delta-E=        0.000667487893 Rises=F Damp=F
 DIIS: error= 8.12D-04 at cycle  21 NSaved=  16.
 NSaved=16 IEnMin= 8 EnMin= -228.544681667676     IErMin= 1 ErrMin= 2.30D-04
 ErrMax= 8.12D-04  0.00D+00 EMaxC= 1.00D-01 BMatC= 6.91D-04 BMatP= 4.82D-05
 IDIUse=3 WtCom= 9.98D-01 WtEn= 2.30D-03
 Rare condition: small coef for last iteration:  0.000D+00
 Coeff-Com: -0.529D+01 0.558D+01 0.114D+00-0.395D-01-0.134D+01 0.173D+01
 Coeff-Com: -0.220D+01 0.680D+00-0.592D-01-0.783D+00 0.849D+00 0.165D+01
 Coeff-Com:  0.491D+00-0.302D+01 0.310D+01-0.460D+00
 Coeff-En:   0.000D+00 0.000D+00 0.000D+00 0.000D+00 0.000D+00 0.000D+00
 Coeff-En:   0.000D+00 0.000D+00 0.000D+00 0.000D+00 0.000D+00 0.000D+00
 Coeff-En:   0.000D+00 0.000D+00 0.000D+00 0.100D+01
 Coeff:     -0.529D+01 0.558D+01 0.114D+00-0.395D-01-0.134D+01 0.173D+01
 Coeff:     -0.220D+01 0.680D+00-0.592D-01-0.783D+00 0.849D+00 0.165D+01
 Coeff:      0.491D+00-0.302D+01 0.310D+01-0.460D+00
 Gap=     0.166 Goal=   None    Shift=    0.000
 Gap=     0.278 Goal=   None    Shift=    0.000
 RMSDP=8.80D-05 MaxDP=9.67D-03 DE= 6.67D-04 OVMax= 3.94D-03

 Cycle  37  Pass 1  IDiag  1:
 RMSU=  7.60D-05    CP:  1.00D+00
 E= -228.540152659340     Delta-E=       -0.000053879736 Rises=F Damp=F
 DIIS: error= 7.96D-04 at cycle  22 NSaved=  17.
 NSaved=17 IEnMin= 8 EnMin= -228.544681667676     IErMin= 1 ErrMin= 2.30D-04
 ErrMax= 7.96D-04  0.00D+00 EMaxC= 1.00D-01 BMatC= 6.69D-04 BMatP= 4.82D-05
 IDIUse=3 WtCom= 9.98D-01 WtEn= 2.30D-03
 Large coefficients: NSaved= 17 BigCof=   18.25 CofMax=   10.00 Det=-1.87D-09
 Inversion failed.  Reducing to 16 matrices.
 Large coefficients: NSaved= 16 BigCof=   18.09 CofMax=   10.00 Det=-1.88D-09
 Inversion failed.  Reducing to 15 matrices.
 Large coefficients: NSaved= 15 BigCof=   11.54 CofMax=   10.00 Det=-1.92D-09
 Inversion failed.  Reducing to 14 matrices.
 Large coefficients: NSaved= 14 BigCof=   11.77 CofMax=   10.00 Det=-1.95D-09
 Inversion failed.  Reducing to 13 matrices.
 Large coefficients: NSaved= 13 BigCof=   16.18 CofMax=   10.00 Det=-4.05D-09
 Inversion failed.  Reducing to 12 matrices.
 Large coefficients: NSaved= 12 BigCof=   14.65 CofMax=   10.00 Det=-4.09D-09
 Inversion failed.  Reducing to 11 matrices.
 Large coefficients: NSaved= 11 BigCof=   18.46 CofMax=   10.00 Det=-5.60D-09
 Inversion failed.  Reducing to 10 matrices.
 Large coefficients: NSaved= 10 BigCof=   22.07 CofMax=   10.00 Det=-6.61D-09
 Inversion failed.  Reducing to  9 matrices.
 Large coefficients: NSaved=  9 BigCof=   27.69 CofMax=   10.00 Det=-8.12D-09
 Inversion failed.  Reducing to  8 matrices.
 Large coefficients: NSaved=  8 BigCof=   30.25 CofMax=   10.00 Det=-8.49D-09
 Inversion failed.  Reducing to  7 matrices.
 Large coefficients: NSaved=  7 BigCof=   32.10 CofMax=   10.00 Det=-8.84D-09
 Inversion failed.  Reducing to  6 matrices.
 Large coefficients: NSaved=  6 BigCof=   35.86 CofMax=   10.00 Det=-1.05D-08
 Inversion failed.  Reducing to  5 matrices.
 Large coefficients: NSaved=  5 BigCof=   36.01 CofMax=   10.00 Det=-1.06D-08
 Inversion failed.  Reducing to  4 matrices.
 Large coefficients: NSaved=  4 BigCof=   50.89 CofMax=   10.00 Det=-1.35D-08
 Inversion failed.  Reducing to  3 matrices.
 Large coefficients: NSaved=  3 BigCof=   91.01 CofMax=   10.00 Det=-2.38D-08
 Inversion failed.  Reducing to  2 matrices.
 Large coefficients: NSaved=  2 BigCof=   52.49 CofMax=   10.00 Det=-2.12D-07
 Coeff-Com: -0.515D+02 0.525D+02
 Coeff-En:   0.000D+00 0.100D+01
 Coeff:     -0.514D+02 0.524D+02
 Gap=     0.143 Goal=   None    Shift=    0.000
 Gap=     0.304 Goal=   None    Shift=    0.000
 RMSDP=3.46D-03 MaxDP=3.25D-01 DE=-5.39D-05 OVMax= 2.06D-01

 Cycle  38  Pass 1  IDiag  1:
 RMSU=  3.21D-03    CP:  1.05D+00  3.00D+00
 E= -228.542257431956     Delta-E=       -0.002104772616 Rises=F Damp=F
 DIIS: error= 4.76D-04 at cycle  23 NSaved=   3.
 NSaved= 3 IEnMin= 3 EnMin= -228.542257431956     IErMin= 3 ErrMin= 4.76D-04
 ErrMax= 4.76D-04  0.00D+00 EMaxC= 1.00D-01 BMatC= 1.70D-04 BMatP= 6.69D-04
 IDIUse=3 WtCom= 9.98D-01 WtEn= 2.30D-03
 Large coefficients: NSaved=  3 BigCof=   28.83 CofMax=   10.00 Det=-2.14D-08
 Inversion failed.  Reducing to  2 matrices.
 Coeff-Com: -0.482D+00 0.148D+01
 Coeff-En:   0.000D+00 0.100D+01
 Coeff:     -0.480D+00 0.148D+01
 Gap=     0.145 Goal=   None    Shift=    0.000
 Gap=     0.315 Goal=   None    Shift=    0.000
 RMSDP=1.80D-03 MaxDP=1.55D-01 DE=-2.10D-03 OVMax= 1.07D-01

 Cycle  39  Pass 1  IDiag  1:
 RMSU=  1.15D-03    CP:  1.00D+00  3.00D+00  1.34D+00
 E= -228.543248913729     Delta-E=       -0.000991481773 Rises=F Damp=F
 DIIS: error= 4.48D-04 at cycle  24 NSaved=   3.
 NSaved= 3 IEnMin= 3 EnMin= -228.543248913729     IErMin= 3 ErrMin= 4.48D-04
 ErrMax= 4.48D-04  0.00D+00 EMaxC= 1.00D-01 BMatC= 1.49D-04 BMatP= 1.70D-04
 IDIUse=3 WtCom= 9.98D-01 WtEn= 2.30D-03
 Coeff-Com: -0.437D+00 0.106D+01 0.377D+00
 Coeff-En:   0.000D+00 0.000D+00 0.100D+01
 Coeff:     -0.436D+00 0.106D+01 0.379D+00
 Gap=     0.148 Goal=   None    Shift=    0.000
 Gap=     0.318 Goal=   None    Shift=    0.000
 RMSDP=6.00D-04 MaxDP=5.78D-02 DE=-9.91D-04 OVMax= 3.04D-02

 Cycle  40  Pass 1  IDiag  1:
 RMSU=  4.33D-05    CP:  9.82D-01  3.00D+00  1.40D+00  1.37D+00
 E= -228.543539272300     Delta-E=       -0.000290358571 Rises=F Damp=F
 DIIS: error= 4.42D-04 at cycle  25 NSaved=   4.
 NSaved= 4 IEnMin= 4 EnMin= -228.543539272300     IErMin= 4 ErrMin= 4.42D-04
 ErrMax= 4.42D-04  0.00D+00 EMaxC= 1.00D-01 BMatC= 1.44D-04 BMatP= 1.49D-04
 IDIUse=3 WtCom= 9.98D-01 WtEn= 2.30D-03
 Coeff-Com: -0.605D+00 0.164D+01 0.331D+01-0.335D+01
 Coeff-En:   0.000D+00 0.000D+00 0.000D+00 0.100D+01
 Coeff:     -0.603D+00 0.164D+01 0.330D+01-0.334D+01
 Gap=     0.150 Goal=   None    Shift=    0.000
 Gap=     0.308 Goal=   None    Shift=    0.000
 RMSDP=2.16D-03 MaxDP=2.22D-01 DE=-2.90D-04 OVMax= 1.06D-01

 Cycle  41  Pass 1  IDiag  1:
 RMSU=  2.53D-04    CP:  1.05D+00  3.00D+00  1.17D+00 -6.17D-03 -3.00D+00
 E= -228.542473309289     Delta-E=        0.001065963011 Rises=F Damp=F
 DIIS: error= 5.23D-04 at cycle  26 NSaved=   5.
 NSaved= 5 IEnMin= 4 EnMin= -228.543539272300     IErMin= 4 ErrMin= 4.42D-04
 ErrMax= 5.23D-04  0.00D+00 EMaxC= 1.00D-01 BMatC= 2.27D-04 BMatP= 1.44D-04
 IDIUse=3 WtCom= 9.98D-01 WtEn= 2.30D-03
 Rare condition: small coef for last iteration:  0.000D+00
 Coeff-Com: -0.182D+00 0.164D+01 0.311D+01-0.120D+01-0.237D+01
 Coeff-En:   0.000D+00 0.000D+00 0.000D+00 0.000D+00 0.100D+01
 Coeff:     -0.182D+00 0.164D+01 0.311D+01-0.120D+01-0.237D+01
 Gap=     0.142 Goal=   None    Shift=    0.000
 Gap=     0.318 Goal=   None    Shift=    0.000
 RMSDP=3.15D-03 MaxDP=3.45D-01 DE= 1.07D-03 OVMax= 1.16D-01

 Cycle  42  Pass 1  IDiag  1:
 RMSU=  2.10D-04    CP:  9.49D-01  3.00D+00  1.26D+00  2.04D+00  3.00D+00
                    CP: -2.10D+00
 E= -228.543699424122     Delta-E=       -0.001226114833 Rises=F Damp=F
 DIIS: error= 3.14D-04 at cycle  27 NSaved=   6.
 NSaved= 6 IEnMin= 6 EnMin= -228.543699424122     IErMin= 6 ErrMin= 3.14D-04
 ErrMax= 3.14D-04  0.00D+00 EMaxC= 1.00D-01 BMatC= 9.25D-05 BMatP= 1.44D-04
 IDIUse=3 WtCom= 9.98D-01 WtEn= 2.30D-03
 Coeff-Com: -0.631D+00 0.156D+01 0.554D+01-0.630D+01-0.557D+00 0.139D+01
 Coeff-En:   0.000D+00 0.000D+00 0.000D+00 0.000D+00 0.000D+00 0.100D+01
 Coeff:     -0.630D+00 0.156D+01 0.553D+01-0.628D+01-0.556D+00 0.138D+01
 Gap=     0.151 Goal=   None    Shift=    0.000
 Gap=     0.310 Goal=   None    Shift=    0.000
 RMSDP=1.91D-03 MaxDP=1.96D-01 DE=-1.23D-03 OVMax= 9.33D-02

 Cycle  43  Pass 1  IDiag  1:
 RMSU=  1.49D-04    CP:  1.01D+00  3.00D+00  1.07D+00  8.17D-01  3.00D+00
                    CP: -1.46D+00  8.23D-01
 E= -228.542759981305     Delta-E=        0.000939442817 Rises=F Damp=F
 DIIS: error= 4.39D-04 at cycle  28 NSaved=   7.
 NSaved= 7 IEnMin= 6 EnMin= -228.543699424122     IErMin= 6 ErrMin= 3.14D-04
 ErrMax= 4.39D-04  0.00D+00 EMaxC= 1.00D-01 BMatC= 1.54D-04 BMatP= 9.25D-05
 IDIUse=3 WtCom= 9.98D-01 WtEn= 2.30D-03
 Rare condition: small coef for last iteration:  0.000D+00
 Coeff-Com: -0.584D+00 0.143D+01 0.362D+01-0.448D+01-0.775D+00 0.120D+01
 Coeff-Com:  0.589D+00
 Coeff-En:   0.000D+00 0.000D+00 0.000D+00 0.000D+00 0.000D+00 0.000D+00
 Coeff-En:   0.100D+01
 Coeff:     -0.584D+00 0.143D+01 0.362D+01-0.448D+01-0.775D+00 0.120D+01
 Coeff:      0.589D+00
 Gap=     0.151 Goal=   None    Shift=    0.000
 Gap=     0.312 Goal=   None    Shift=    0.000
 RMSDP=8.27D-04 MaxDP=8.67D-02 DE= 9.39D-04 OVMax= 3.08D-02

 Cycle  44  Pass 1  IDiag  1:
 RMSU=  5.25D-05    CP:  9.82D-01  3.00D+00  1.09D+00  1.34D+00  3.00D+00
                    CP: -2.17D+00  1.66D+00  1.34D+00
 E= -228.543070637761     Delta-E=       -0.000310656456 Rises=F Damp=F
 DIIS: error= 4.30D-04 at cycle  29 NSaved=   8.
 NSaved= 8 IEnMin= 6 EnMin= -228.543699424122     IErMin= 6 ErrMin= 3.14D-04
 ErrMax= 4.30D-04  0.00D+00 EMaxC= 1.00D-01 BMatC= 1.24D-04 BMatP= 9.25D-05
 IDIUse=3 WtCom= 9.98D-01 WtEn= 2.30D-03
 Coeff-Com: -0.763D+00 0.190D+01 0.430D+01-0.528D+01-0.161D+01 0.179D+01
 Coeff-Com:  0.469D+01-0.403D+01
 Coeff-En:   0.000D+00 0.000D+00 0.000D+00 0.000D+00 0.000D+00 0.000D+00
 Coeff-En:   0.000D+00 0.100D+01
 Coeff:     -0.761D+00 0.190D+01 0.429D+01-0.527D+01-0.160D+01 0.178D+01
 Coeff:      0.468D+01-0.402D+01
 Gap=     0.154 Goal=   None    Shift=    0.000
 Gap=     0.307 Goal=   None    Shift=    0.000
 RMSDP=1.64D-03 MaxDP=1.69D-01 DE=-3.11D-04 OVMax= 5.82D-02

 Cycle  45  Pass 1  IDiag  1:
 RMSU=  8.07D-05    CP:  1.04D+00  3.00D+00  1.06D+00  3.21D-01  2.24D+00
                    CP: -1.02D+00  2.73D-02  2.56D-01 -1.53D+00
 E= -228.542489190072     Delta-E=        0.000581447689 Rises=F Damp=F
 DIIS: error= 4.61D-04 at cycle  30 NSaved=   9.
 NSaved= 9 IEnMin= 6 EnMin= -228.543699424122     IErMin= 6 ErrMin= 3.14D-04
 ErrMax= 4.61D-04  0.00D+00 EMaxC= 1.00D-01 BMatC= 1.85D-04 BMatP= 9.25D-05
 IDIUse=3 WtCom= 9.98D-01 WtEn= 2.30D-03
 Rare condition: small coef for last iteration:  0.000D+00
 Coeff-Com: -0.946D+00 0.232D+01 0.351D+01-0.452D+01-0.269D+01 0.195D+01
 Coeff-Com:  0.544D+01-0.609D+01 0.202D+01
 Coeff-En:   0.000D+00 0.000D+00 0.000D+00 0.000D+00 0.000D+00 0.000D+00
 Coeff-En:   0.000D+00 0.000D+00 0.100D+01
 Coeff:     -0.946D+00 0.232D+01 0.351D+01-0.452D+01-0.269D+01 0.195D+01
 Coeff:      0.544D+01-0.609D+01 0.202D+01
 Gap=     0.157 Goal=   None    Shift=    0.000
 Gap=     0.304 Goal=   None    Shift=    0.000
 RMSDP=1.21D-03 MaxDP=1.21D-01 DE= 5.81D-04 OVMax= 3.21D-02

 Cycle  46  Pass 1  IDiag  1:
 RMSU=  7.04D-05    CP:  1.08D+00  3.00D+00  1.08D+00 -3.84D-01 -3.00D+00
                    CP: -3.84D-01 -4.14D-01 -1.10D+00 -2.91D+00  3.00D+00
 E= -228.542162389630     Delta-E=        0.000326800442 Rises=F Damp=F
 DIIS: error= 4.99D-04 at cycle  31 NSaved=  10.
 NSaved=10 IEnMin= 6 EnMin= -228.543699424122     IErMin= 6 ErrMin= 3.14D-04
 ErrMax= 4.99D-04  0.00D+00 EMaxC= 1.00D-01 BMatC= 2.51D-04 BMatP= 9.25D-05
 IDIUse=3 WtCom= 9.98D-01 WtEn= 2.30D-03
 Large coefficients: NSaved= 10 BigCof=   11.20 CofMax=   10.00 Det=-7.89D-08
 Inversion failed.  Reducing to  9 matrices.
 Rare condition: small coef for last iteration:  0.000D+00
 Coeff-Com:  0.847D+00-0.483D+01 0.515D+01-0.348D+01 0.104D+01 0.937D+01
 Coeff-Com: -0.879D+01 0.590D+01-0.421D+01
 Coeff-En:   0.000D+00 0.000D+00 0.000D+00 0.000D+00 0.000D+00 0.000D+00
 Coeff-En:   0.000D+00 0.000D+00 0.100D+01
 Coeff:      0.847D+00-0.483D+01 0.515D+01-0.348D+01 0.104D+01 0.937D+01
 Coeff:     -0.879D+01 0.590D+01-0.421D+01
 Gap=     0.135 Goal=   None    Shift=    0.000
 Gap=     0.320 Goal=   None    Shift=    0.000
 RMSDP=6.39D-03 MaxDP=6.54D-01 DE= 3.27D-04 OVMax= 1.94D-01

 Cycle  47  Pass 1  IDiag  1:
 RMSU=  6.84D-04    CP:  8.56D-01  3.00D+00  9.97D-01  3.00D+00  3.00D+00
                    CP: -3.00D+00  3.00D+00  1.16D+00  3.00D+00 -3.00D+00
                    CP: -8.85D-01
 E= -228.544093294920     Delta-E=       -0.001930905290 Rises=F Damp=F
 DIIS: error= 2.81D-04 at cycle  32 NSaved=  10.
 NSaved=10 IEnMin=10 EnMin= -228.544093294920     IErMin=10 ErrMin= 2.81D-04
 ErrMax= 2.81D-04  0.00D+00 EMaxC= 1.00D-01 BMatC= 8.21D-05 BMatP= 9.25D-05
 IDIUse=3 WtCom= 9.98D-01 WtEn= 2.30D-03
 Large coefficients: NSaved= 10 BigCof=   10.03 CofMax=   10.00 Det=-7.50D-08
 Inversion failed.  Reducing to  9 matrices.
 Coeff-Com: -0.612D+01 0.650D+01-0.238D+01 0.387D+00 0.731D+01-0.656D+01
 Coeff-Com:  0.472D+01-0.334D+01 0.473D+00
 Coeff-En:   0.000D+00 0.000D+00 0.000D+00 0.000D+00 0.000D+00 0.000D+00
 Coeff-En:   0.000D+00 0.000D+00 0.100D+01
 Coeff:     -0.610D+01 0.649D+01-0.237D+01 0.386D+00 0.730D+01-0.654D+01
 Coeff:      0.471D+01-0.334D+01 0.475D+00
 Gap=     0.148 Goal=   None    Shift=    0.000
 Gap=     0.330 Goal=   None    Shift=    0.000
 RMSDP=2.40D-03 MaxDP=2.03D-01 DE=-1.93D-03 OVMax= 1.08D-01

 Cycle  48  Pass 1  IDiag  1:
 RMSU=  5.99D-04    CP:  7.69D-01  3.00D+00  1.04D+00  3.00D+00  3.00D+00
                    CP: -1.79D+00  3.00D+00  5.20D-01  3.00D+00 -3.00D+00
                    CP: -1.19D+00  3.00D+00
 E= -228.545051337694     Delta-E=       -0.000958042774 Rises=F Damp=F
 DIIS: error= 2.91D-04 at cycle  33 NSaved=  10.
 NSaved=10 IEnMin=10 EnMin= -228.545051337694     IErMin= 9 ErrMin= 2.81D-04
 ErrMax= 2.91D-04  0.00D+00 EMaxC= 1.00D-01 BMatC= 4.76D-05 BMatP= 8.21D-05
 IDIUse=3 WtCom= 9.98D-01 WtEn= 2.30D-03
 Coeff-Com: -0.236D+01 0.260D+01-0.173D+01 0.238D+00 0.476D+01-0.541D+01
 Coeff-Com:  0.221D+01-0.965D+00 0.377D+00 0.127D+01
 Coeff-En:   0.000D+00 0.000D+00 0.000D+00 0.000D+00 0.000D+00 0.000D+00
 Coeff-En:   0.000D+00 0.000D+00 0.000D+00 0.100D+01
 Coeff:     -0.235D+01 0.260D+01-0.173D+01 0.238D+00 0.475D+01-0.540D+01
 Coeff:      0.221D+01-0.963D+00 0.376D+00 0.127D+01
 Gap=     0.152 Goal=   None    Shift=    0.000
 Gap=     0.338 Goal=   None    Shift=    0.000
 RMSDP=2.84D-03 MaxDP=2.68D-01 DE=-9.58D-04 OVMax= 9.85D-02

 Cycle  49  Pass 1  IDiag  1:
 RMSU=  1.59D-03    CP:  6.67D-01  3.00D+00  8.48D-01  3.00D+00  3.00D+00
                    CP: -2.87D-01  3.00D+00 -1.97D+00  3.00D+00 -3.00D+00
                    CP: -2.86D+00  3.00D+00  2.66D+00
 E= -228.545531800691     Delta-E=       -0.000480462997 Rises=F Damp=F
 DIIS: error= 1.69D-04 at cycle  34 NSaved=  11.
 NSaved=11 IEnMin=11 EnMin= -228.545531800691     IErMin=11 ErrMin= 1.69D-04
 ErrMax= 1.69D-04  0.00D+00 EMaxC= 1.00D-01 BMatC= 4.25D-05 BMatP= 4.76D-05
 IDIUse=3 WtCom= 9.98D-01 WtEn= 1.69D-03
 Coeff-Com:  0.202D+00-0.420D+00 0.135D+00 0.570D+00-0.251D+00 0.854D+00
 Coeff-Com:  0.528D+00-0.514D+00 0.792D+00-0.279D+01 0.190D+01
 Coeff-En:   0.000D+00 0.000D+00 0.000D+00 0.000D+00 0.000D+00 0.000D+00
 Coeff-En:   0.000D+00 0.000D+00 0.000D+00 0.000D+00 0.100D+01
 Coeff:      0.202D+00-0.419D+00 0.135D+00 0.569D+00-0.251D+00 0.852D+00
 Coeff:      0.527D+00-0.513D+00 0.791D+00-0.279D+01 0.189D+01
 Gap=     0.125 Goal=   None    Shift=    0.000
 Gap=     0.320 Goal=   None    Shift=    0.000
 RMSDP=4.38D-03 MaxDP=3.80D-01 DE=-4.80D-04 OVMax= 1.90D-01

 Cycle  50  Pass 1  IDiag  1:
 RMSU=  2.79D-04    CP:  8.27D-01  3.00D+00  8.81D-01  3.00D+00  3.00D+00
                    CP: -3.00D+00  3.00D+00  1.93D-01  3.00D+00 -3.00D+00
                    CP: -1.52D+00  2.10D+00 -2.44D-01  3.36D-02
 E= -228.544180784811     Delta-E=        0.001351015880 Rises=F Damp=F
 DIIS: error= 4.09D-04 at cycle  35 NSaved=  12.
 NSaved=12 IEnMin=11 EnMin= -228.545531800691     IErMin=11 ErrMin= 1.69D-04
 ErrMax= 4.09D-04  0.00D+00 EMaxC= 1.00D-01 BMatC= 1.70D-04 BMatP= 4.25D-05
 IDIUse=3 WtCom= 9.98D-01 WtEn= 1.69D-03
 Rare condition: small coef for last iteration:  0.000D+00
 Coeff-Com:  0.394D+00-0.794D+00 0.377D+00 0.382D+00 0.204D+00 0.172D+00
 Coeff-Com:  0.324D+00-0.366D+00-0.105D+00-0.159D+01 0.154D+01 0.458D+00
 Coeff-En:   0.000D+00 0.000D+00 0.000D+00 0.000D+00 0.000D+00 0.000D+00
 Coeff-En:   0.000D+00 0.000D+00 0.000D+00 0.000D+00 0.000D+00 0.100D+01
 Coeff:      0.394D+00-0.794D+00 0.377D+00 0.382D+00 0.204D+00 0.172D+00
 Coeff:      0.324D+00-0.366D+00-0.105D+00-0.159D+01 0.154D+01 0.458D+00
 Gap=     0.134 Goal=   None    Shift=    0.000
 Gap=     0.323 Goal=   None    Shift=    0.000
 RMSDP=1.73D-03 MaxDP=1.65D-01 DE= 1.35D-03 OVMax= 5.65D-02

 Cycle  51  Pass 1  IDiag  1:
 RMSU=  1.42D-04    CP:  7.63D-01  3.00D+00  8.13D-01  3.00D+00  3.00D+00
                    CP: -3.00D+00  3.00D+00 -1.29D-01  3.00D+00 -3.00D+00
                    CP: -3.00D+00  3.00D+00  6.28D-01  2.55D-01  8.34D-01
 E= -228.544672320620     Delta-E=       -0.000491535809 Rises=F Damp=F
 DIIS: error= 4.78D-04 at cycle  36 NSaved=  13.
 NSaved=13 IEnMin=11 EnMin= -228.545531800691     IErMin=11 ErrMin= 1.69D-04
 ErrMax= 4.78D-04  0.00D+00 EMaxC= 1.00D-01 BMatC= 2.09D-04 BMatP= 4.25D-05
 IDIUse=3 WtCom= 9.98D-01 WtEn= 1.69D-03
 Coeff-Com:  0.423D+00-0.665D+00 0.240D+00 0.497D+00-0.311D+00 0.887D+00
 Coeff-Com:  0.364D+00-0.541D+00-0.269D+00-0.147D+01 0.146D+01-0.508D+00
 Coeff-Com:  0.894D+00
 Coeff-En:   0.000D+00 0.000D+00 0.000D+00 0.000D+00 0.000D+00 0.000D+00
 Coeff-En:   0.000D+00 0.000D+00 0.000D+00 0.000D+00 0.000D+00 0.000D+00
 Coeff-En:   0.100D+01
 Coeff:      0.423D+00-0.664D+00 0.239D+00 0.496D+00-0.311D+00 0.886D+00
 Coeff:      0.363D+00-0.540D+00-0.268D+00-0.147D+01 0.145D+01-0.507D+00
 Coeff:      0.894D+00
 Gap=     0.139 Goal=   None    Shift=    0.000
 Gap=     0.330 Goal=   None    Shift=    0.000
 RMSDP=1.81D-03 MaxDP=1.62D-01 DE=-4.92D-04 OVMax= 7.34D-02

 Cycle  52  Pass 1  IDiag  1:
 RMSU=  7.15D-05    CP:  6.97D-01  3.00D+00  7.69D-01  3.00D+00  3.00D+00
                    CP: -2.64D+00  3.00D+00 -8.86D-01  3.00D+00 -3.00D+00
                    CP: -3.00D+00  3.00D+00  2.08D+00  7.71D-01  1.32D-01
                    CP:  2.02D+00
 E= -228.545271839874     Delta-E=       -0.000599519254 Rises=F Damp=F
 DIIS: error= 3.53D-04 at cycle  37 NSaved=  14.
 NSaved=14 IEnMin=11 EnMin= -228.545531800691     IErMin=11 ErrMin= 1.69D-04
 ErrMax= 3.53D-04  0.00D+00 EMaxC= 1.00D-01 BMatC= 1.05D-04 BMatP= 4.25D-05
 IDIUse=3 WtCom= 9.98D-01 WtEn= 1.69D-03
 Coeff-Com: -0.630D+00 0.691D+00-0.969D-01-0.352D-01 0.593D+00-0.260D+00
 Coeff-Com:  0.386D+00-0.492D+00 0.117D+01-0.199D+01 0.663D+00 0.234D+01
 Coeff-Com: -0.500D+01 0.366D+01
 Coeff-En:   0.000D+00 0.000D+00 0.000D+00 0.000D+00 0.000D+00 0.000D+00
 Coeff-En:   0.000D+00 0.000D+00 0.000D+00 0.000D+00 0.000D+00 0.000D+00
 Coeff-En:   0.000D+00 0.100D+01
 Coeff:     -0.629D+00 0.689D+00-0.968D-01-0.351D-01 0.592D+00-0.259D+00
 Coeff:      0.385D+00-0.491D+00 0.116D+01-0.199D+01 0.662D+00 0.234D+01
 Coeff:     -0.499D+01 0.365D+01
 Gap=     0.141 Goal=   None    Shift=    0.000
 Gap=     0.330 Goal=   None    Shift=    0.000
 RMSDP=3.65D-04 MaxDP=4.35D-02 DE=-6.00D-04 OVMax= 7.20D-03

 Cycle  53  Pass 1  IDiag  1:
 RMSU=  6.27D-05    CP:  6.84D-01  9.20D-01  7.78D-01  3.00D+00  3.00D+00
                    CP: -2.28D+00  3.00D+00 -7.00D-01  3.00D+00 -3.00D+00
                    CP: -3.00D+00  3.00D+00  2.16D+00  8.53D-01 -4.61D-02
                    CP:  2.26D+00  1.98D+00
 E= -228.545311155487     Delta-E=       -0.000039315613 Rises=F Damp=F
 DIIS: error= 3.45D-04 at cycle  38 NSaved=  15.
 NSaved=15 IEnMin=11 EnMin= -228.545531800691     IErMin=11 ErrMin= 1.69D-04
 ErrMax= 3.45D-04  0.00D+00 EMaxC= 1.00D-01 BMatC= 1.00D-04 BMatP= 4.25D-05
 IDIUse=3 WtCom= 9.98D-01 WtEn= 1.69D-03
 Coeff-Com: -0.514D+00 0.620D+00-0.218D+00 0.193D-01 0.114D+01-0.861D+00
 Coeff-Com:  0.528D+00-0.558D+00 0.846D+00-0.168D+01 0.661D+00 0.213D+01
 Coeff-Com: -0.430D+01 0.206D+01 0.112D+01
 Coeff-En:   0.000D+00 0.000D+00 0.000D+00 0.000D+00 0.000D+00 0.000D+00
 Coeff-En:   0.000D+00 0.000D+00 0.000D+00 0.000D+00 0.000D+00 0.000D+00
 Coeff-En:   0.000D+00 0.000D+00 0.100D+01
 Coeff:     -0.513D+00 0.619D+00-0.218D+00 0.193D-01 0.114D+01-0.860D+00
 Coeff:      0.527D+00-0.557D+00 0.845D+00-0.168D+01 0.660D+00 0.213D+01
 Coeff:     -0.429D+01 0.205D+01 0.112D+01
 Gap=     0.142 Goal=   None    Shift=    0.000
 Gap=     0.331 Goal=   None    Shift=    0.000
 RMSDP=3.27D-04 MaxDP=3.80D-02 DE=-3.93D-05 OVMax= 7.77D-03

 Cycle  54  Pass 1  IDiag  1:
 RMSU=  1.34D-05    CP:  6.72D-01 -1.08D+00  7.91D-01  3.00D+00  3.00D+00
                    CP: -1.99D+00  3.00D+00 -7.33D-01  3.00D+00 -3.00D+00
                    CP: -3.00D+00  3.00D+00  2.25D+00  9.32D-01 -1.66D-01
                    CP:  2.45D+00  2.70D+00  1.57D+00
 E= -228.545352746778     Delta-E=       -0.000041591291 Rises=F Damp=F
 DIIS: error= 3.38D-04 at cycle  39 NSaved=  16.
 NSaved=16 IEnMin=11 EnMin= -228.545531800691     IErMin=11 ErrMin= 1.69D-04
 ErrMax= 3.38D-04  0.00D+00 EMaxC= 1.00D-01 BMatC= 9.62D-05 BMatP= 4.25D-05
 IDIUse=3 WtCom= 9.98D-01 WtEn= 1.69D-03
 Coeff-Com: -0.477D+00 0.450D+00-0.938D-01 0.987D-01 0.741D+00-0.478D+00
 Coeff-Com:  0.585D+00-0.568D+00 0.513D+00-0.138D+01 0.700D+00 0.169D+01
 Coeff-Com: -0.322D+01 0.196D+01-0.193D+01 0.240D+01
 Coeff-En:   0.000D+00 0.000D+00 0.000D+00 0.000D+00 0.000D+00 0.000D+00
 Coeff-En:   0.000D+00 0.000D+00 0.000D+00 0.000D+00 0.000D+00 0.000D+00
 Coeff-En:   0.000D+00 0.000D+00 0.000D+00 0.100D+01
 Coeff:     -0.477D+00 0.449D+00-0.937D-01 0.985D-01 0.740D+00-0.477D+00
 Coeff:      0.584D+00-0.567D+00 0.512D+00-0.138D+01 0.699D+00 0.169D+01
 Coeff:     -0.322D+01 0.196D+01-0.192D+01 0.240D+01
 Gap=     0.142 Goal=   None    Shift=    0.000
 Gap=     0.332 Goal=   None    Shift=    0.000
 RMSDP=2.74D-04 MaxDP=3.05D-02 DE=-4.16D-05 OVMax= 6.94D-03

 Cycle  55  Pass 1  IDiag  1:
 RMSU=  1.99D-05    CP:  6.62D-01 -2.78D+00  8.02D-01  3.00D+00  3.00D+00
                    CP: -1.79D+00  3.00D+00 -8.20D-01  3.00D+00 -3.00D+00
                    CP: -3.00D+00  3.00D+00  2.32D+00  1.00D+00 -2.78D-01
                    CP:  2.61D+00  3.00D+00  1.88D+00  2.04D+00
 E= -228.545390760118     Delta-E=       -0.000038013340 Rises=F Damp=F
 DIIS: error= 3.20D-04 at cycle  40 NSaved=  17.
 NSaved=17 IEnMin=11 EnMin= -228.545531800691     IErMin=11 ErrMin= 1.69D-04
 ErrMax= 3.20D-04  0.00D+00 EMaxC= 1.00D-01 BMatC= 8.63D-05 BMatP= 4.25D-05
 IDIUse=3 WtCom= 9.98D-01 WtEn= 1.69D-03
 Coeff-Com: -0.518D+00 0.577D+00-0.104D+00-0.142D+00 0.902D+00-0.750D+00
 Coeff-Com:  0.284D+00-0.329D+00 0.919D+00-0.142D+01 0.436D+00 0.237D+01
 Coeff-Com: -0.451D+01 0.248D+01 0.194D+01-0.550D+01 0.436D+01
 Coeff-En:   0.000D+00 0.000D+00 0.000D+00 0.000D+00 0.000D+00 0.000D+00
 Coeff-En:   0.000D+00 0.000D+00 0.000D+00 0.000D+00 0.000D+00 0.000D+00
 Coeff-En:   0.000D+00 0.000D+00 0.000D+00 0.000D+00 0.100D+01
 Coeff:     -0.517D+00 0.576D+00-0.104D+00-0.142D+00 0.900D+00-0.748D+00
 Coeff:      0.283D+00-0.328D+00 0.917D+00-0.141D+01 0.436D+00 0.236D+01
 Coeff:     -0.451D+01 0.248D+01 0.194D+01-0.549D+01 0.436D+01
 Gap=     0.142 Goal=   None    Shift=    0.000
 Gap=     0.332 Goal=   None    Shift=    0.000
 RMSDP=3.37D-04 MaxDP=3.42D-02 DE=-3.80D-05 OVMax= 6.06D-03

 Cycle  56  Pass 1  IDiag  1:
 Restarting incremental Fock formation.
 E= -228.545414521609     Delta-E=       -0.000023761491 Rises=F Damp=F
 DIIS: error= 3.21D-04 at cycle  41 NSaved=  18.
 NSaved=18 IEnMin=11 EnMin= -228.545531800691     IErMin=11 ErrMin= 1.69D-04
 ErrMax= 3.21D-04  0.00D+00 EMaxC= 1.00D-01 BMatC= 8.58D-05 BMatP= 4.25D-05
 IDIUse=3 WtCom= 9.98D-01 WtEn= 1.69D-03
 Coeff-Com: -0.351D+00 0.455D+00-0.182D+00-0.476D-01 0.105D+01-0.872D+00
 Coeff-Com:  0.349D+00-0.392D+00 0.708D+00-0.131D+01 0.467D+00 0.228D+01
 Coeff-Com: -0.436D+01 0.215D+01 0.206D+01-0.305D+01 0.438D+00 0.160D+01
 Coeff-En:   0.000D+00 0.000D+00 0.000D+00 0.000D+00 0.000D+00 0.000D+00
 Coeff-En:   0.000D+00 0.000D+00 0.000D+00 0.000D+00 0.000D+00 0.000D+00
 Coeff-En:   0.000D+00 0.000D+00 0.000D+00 0.000D+00 0.000D+00 0.100D+01
 Coeff:     -0.350D+00 0.454D+00-0.181D+00-0.475D-01 0.105D+01-0.871D+00
 Coeff:      0.348D+00-0.391D+00 0.707D+00-0.131D+01 0.467D+00 0.227D+01
 Coeff:     -0.435D+01 0.214D+01 0.206D+01-0.304D+01 0.438D+00 0.160D+01
 Gap=     0.143 Goal=   None    Shift=    0.000
 Gap=     0.332 Goal=   None    Shift=    0.000
 RMSDP=1.45D-04 MaxDP=1.26D-02 DE=-2.38D-05 OVMax= 5.23D-03

 Cycle  57  Pass 1  IDiag  1:
 RMSU=  1.40D-04    CP:  9.98D-01
 E= -228.545441291472     Delta-E=       -0.000026769864 Rises=F Damp=F
 DIIS: error= 3.03D-04 at cycle  42 NSaved=  19.
 NSaved=19 IEnMin=11 EnMin= -228.545531800691     IErMin=11 ErrMin= 1.69D-04
 ErrMax= 3.03D-04  0.00D+00 EMaxC= 1.00D-01 BMatC= 7.58D-05 BMatP= 4.25D-05
 IDIUse=3 WtCom= 9.98D-01 WtEn= 1.69D-03
 Coeff-Com: -0.578D+00 0.510D+00 0.215D-01-0.882D-01 0.487D+00-0.398D+00
 Coeff-Com:  0.309D+00-0.302D+00 0.734D+00-0.112D+01 0.388D+00 0.176D+01
 Coeff-Com: -0.311D+01 0.174D+01-0.459D+00-0.152D+01 0.351D+01-0.643D+01
 Coeff-Com:  0.555D+01
 Coeff-En:   0.000D+00 0.000D+00 0.000D+00 0.000D+00 0.000D+00 0.000D+00
 Coeff-En:   0.000D+00 0.000D+00 0.000D+00 0.000D+00 0.000D+00 0.000D+00
 Coeff-En:   0.000D+00 0.000D+00 0.000D+00 0.000D+00 0.000D+00 0.000D+00
 Coeff-En:   0.100D+01
 Coeff:     -0.577D+00 0.509D+00 0.215D-01-0.881D-01 0.486D+00-0.397D+00
 Coeff:      0.308D+00-0.302D+00 0.733D+00-0.112D+01 0.388D+00 0.176D+01
 Coeff:     -0.311D+01 0.174D+01-0.458D+00-0.151D+01 0.350D+01-0.642D+01
 Coeff:      0.554D+01
 Gap=     0.143 Goal=   None    Shift=    0.000
 Gap=     0.332 Goal=   None    Shift=    0.000
 RMSDP=8.75D-05 MaxDP=7.49D-03 DE=-2.68D-05 OVMax= 2.22D-03

 Cycle  58  Pass 1  IDiag  1:
 RMSU=  2.17D-05    CP:  9.96D-01  1.59D+00
 E= -228.545450887107     Delta-E=       -0.000009595635 Rises=F Damp=F
 DIIS: error= 2.98D-04 at cycle  43 NSaved=  20.
 NSaved=20 IEnMin=11 EnMin= -228.545531800691     IErMin=11 ErrMin= 1.69D-04
 ErrMax= 2.98D-04  0.00D+00 EMaxC= 1.00D-01 BMatC= 7.21D-05 BMatP= 4.25D-05
 IDIUse=3 WtCom= 9.98D-01 WtEn= 1.69D-03
 Coeff-Com: -0.351D+00 0.397D+00-0.803D-01-0.995D-01 0.567D+00-0.459D+00
 Coeff-Com:  0.254D+00-0.270D+00 0.689D+00-0.114D+01 0.380D+00 0.194D+01
 Coeff-Com: -0.366D+01 0.221D+01 0.589D+00-0.356D+01 0.378D+01-0.155D+01
 Coeff-Com: -0.117D+01 0.254D+01
 Coeff-En:   0.000D+00 0.000D+00 0.000D+00 0.000D+00 0.000D+00 0.000D+00
 Coeff-En:   0.000D+00 0.000D+00 0.000D+00 0.000D+00 0.000D+00 0.000D+00
 Coeff-En:   0.000D+00 0.000D+00 0.000D+00 0.000D+00 0.000D+00 0.000D+00
 Coeff-En:   0.000D+00 0.100D+01
 Coeff:     -0.350D+00 0.396D+00-0.801D-01-0.993D-01 0.567D+00-0.459D+00
 Coeff:      0.254D+00-0.269D+00 0.688D+00-0.114D+01 0.379D+00 0.194D+01
 Coeff:     -0.365D+01 0.220D+01 0.588D+00-0.356D+01 0.377D+01-0.155D+01
 Coeff:     -0.117D+01 0.254D+01
 Gap=     0.144 Goal=   None    Shift=    0.000
 Gap=     0.333 Goal=   None    Shift=    0.000
 RMSDP=2.48D-04 MaxDP=2.39D-02 DE=-9.60D-06 OVMax= 9.72D-03

 Cycle  59  Pass 1  IDiag  1:
 RMSU=  4.47D-05    CP:  9.91D-01  3.00D+00 -4.25D-01
 E= -228.545494371766     Delta-E=       -0.000043484659 Rises=F Damp=F
 DIIS: error= 2.62D-04 at cycle  44 NSaved=  20.
 NSaved=20 IEnMin=10 EnMin= -228.545531800691     IErMin=10 ErrMin= 1.69D-04
 ErrMax= 2.62D-04  0.00D+00 EMaxC= 1.00D-01 BMatC= 5.49D-05 BMatP= 4.25D-05
 IDIUse=3 WtCom= 9.98D-01 WtEn= 1.69D-03
 Coeff-Com: -0.135D+00 0.843D-01 0.445D-01-0.113D+00 0.392D+00-0.420D+00
 Coeff-Com: -0.276D-01 0.199D+00-0.180D+00 0.278D-01 0.114D+01-0.154D+01
 Coeff-Com:  0.379D+00 0.107D+01-0.140D+01 0.659D+00-0.167D+01 0.447D+01
 Coeff-Com: -0.805D+01 0.607D+01
 Coeff-En:   0.000D+00 0.000D+00 0.000D+00 0.000D+00 0.000D+00 0.000D+00
 Coeff-En:   0.000D+00 0.000D+00 0.000D+00 0.000D+00 0.000D+00 0.000D+00
 Coeff-En:   0.000D+00 0.000D+00 0.000D+00 0.000D+00 0.000D+00 0.000D+00
 Coeff-En:   0.000D+00 0.100D+01
 Coeff:     -0.135D+00 0.842D-01 0.444D-01-0.113D+00 0.392D+00-0.420D+00
 Coeff:     -0.276D-01 0.198D+00-0.179D+00 0.278D-01 0.114D+01-0.154D+01
 Coeff:      0.378D+00 0.107D+01-0.140D+01 0.658D+00-0.167D+01 0.446D+01
 Coeff:     -0.804D+01 0.606D+01
 Gap=     0.147 Goal=   None    Shift=    0.000
 Gap=     0.335 Goal=   None    Shift=    0.000
 RMSDP=5.39D-04 MaxDP=5.18D-02 DE=-4.35D-05 OVMax= 2.22D-02

 Cycle  60  Pass 1  IDiag  1:
 RMSU=  4.36D-04    CP:  9.81D-01  3.00D+00 -3.00D+00  3.00D+00
 E= -228.545566028053     Delta-E=       -0.000071656287 Rises=F Damp=F
 DIIS: error= 1.72D-04 at cycle  45 NSaved=  20.
 NSaved=20 IEnMin=20 EnMin= -228.545566028053     IErMin= 9 ErrMin= 1.69D-04
 ErrMax= 1.72D-04  0.00D+00 EMaxC= 1.00D-01 BMatC= 2.29D-05 BMatP= 4.25D-05
 IDIUse=3 WtCom= 9.98D-01 WtEn= 1.69D-03
 Coeff-Com: -0.511D-01 0.600D-01-0.232D-01 0.111D+00-0.118D+00-0.428D-01
 Coeff-Com: -0.466D-01 0.142D+00-0.607D-01 0.465D+00-0.519D+00-0.176D+00
 Coeff-Com:  0.309D+00 0.686D+00-0.786D+00-0.187D+01 0.361D+01-0.209D+01
 Coeff-Com: -0.727D+00 0.213D+01
 Coeff-En:   0.000D+00 0.000D+00 0.000D+00 0.000D+00 0.000D+00 0.000D+00
 Coeff-En:   0.000D+00 0.000D+00 0.000D+00 0.000D+00 0.000D+00 0.000D+00
 Coeff-En:   0.000D+00 0.000D+00 0.000D+00 0.000D+00 0.000D+00 0.000D+00
 Coeff-En:   0.000D+00 0.100D+01
 Coeff:     -0.510D-01 0.599D-01-0.232D-01 0.111D+00-0.117D+00-0.427D-01
 Coeff:     -0.466D-01 0.142D+00-0.606D-01 0.464D+00-0.518D+00-0.175D+00
 Coeff:      0.309D+00 0.685D+00-0.785D+00-0.187D+01 0.360D+01-0.208D+01
 Coeff:     -0.726D+00 0.213D+01
 Gap=     0.150 Goal=   None    Shift=    0.000
 Gap=     0.338 Goal=   None    Shift=    0.000
 RMSDP=4.18D-04 MaxDP=3.71D-02 DE=-7.17D-05 OVMax= 2.28D-02

 Cycle  61  Pass 1  IDiag  1:
 RMSU=  1.58D-04    CP:  9.73D-01  3.00D+00 -3.00D+00  3.00D+00  1.85D+00
 E= -228.545597045914     Delta-E=       -0.000031017861 Rises=F Damp=F
 DIIS: error= 6.77D-06 at cycle  46 NSaved=  20.
 NSaved=20 IEnMin=20 EnMin= -228.545597045914     IErMin=20 ErrMin= 6.77D-06
 ErrMax= 6.77D-06  0.00D+00 EMaxC= 1.00D-01 BMatC= 3.53D-08 BMatP= 2.29D-05
 IDIUse=1 WtCom= 1.00D+00 WtEn= 0.00D+00
 Coeff-Com: -0.801D-01 0.910D-01-0.729D-01 0.143D+00-0.146D+00 0.187D+00
 Coeff-Com: -0.169D+00-0.992D-02 0.140D+00-0.422D+00 0.414D+00 0.534D+00
 Coeff-Com: -0.169D+01 0.141D+01 0.461D+00-0.212D+01 0.310D+01-0.164D+01
 Coeff-Com: -0.588D+00 0.146D+01
 Coeff:     -0.801D-01 0.910D-01-0.729D-01 0.143D+00-0.146D+00 0.187D+00
 Coeff:     -0.169D+00-0.992D-02 0.140D+00-0.422D+00 0.414D+00 0.534D+00
 Coeff:     -0.169D+01 0.141D+01 0.461D+00-0.212D+01 0.310D+01-0.164D+01
 Coeff:     -0.588D+00 0.146D+01
 Gap=     0.149 Goal=   None    Shift=    0.000
 Gap=     0.337 Goal=   None    Shift=    0.000
 RMSDP=1.74D-04 MaxDP=1.60D-02 DE=-3.10D-05 OVMax= 7.46D-03

 Cycle  62  Pass 1  IDiag  1:
 RMSU=  1.97D-05    CP:  9.77D-01  3.00D+00 -3.00D+00  3.00D+00  1.48D+00
                    CP:  8.18D-01
 E= -228.545594120937     Delta-E=        0.000002924977 Rises=F Damp=F
 DIIS: error= 5.09D-05 at cycle  47 NSaved=  20.
 NSaved=20 IEnMin=19 EnMin= -228.545597045914     IErMin=19 ErrMin= 6.77D-06
 ErrMax= 5.09D-05  0.00D+00 EMaxC= 1.00D-01 BMatC= 2.04D-06 BMatP= 3.53D-08
 IDIUse=1 WtCom= 1.00D+00 WtEn= 0.00D+00
 Coeff-Com:  0.445D-01-0.438D-01 0.360D-02 0.160D-03 0.120D-01-0.608D-01
 Coeff-Com:  0.421D-01 0.593D-01-0.878D-01 0.546D-01 0.318D-01-0.223D+00
 Coeff-Com:  0.168D+00 0.660D-01-0.151D-01-0.563D+00 0.723D+00-0.535D+00
 Coeff-Com:  0.103D-01 0.131D+01
 Coeff:      0.445D-01-0.438D-01 0.360D-02 0.160D-03 0.120D-01-0.608D-01
 Coeff:      0.421D-01 0.593D-01-0.878D-01 0.546D-01 0.318D-01-0.223D+00
 Coeff:      0.168D+00 0.660D-01-0.151D-01-0.563D+00 0.723D+00-0.535D+00
 Coeff:      0.103D-01 0.131D+01
 Gap=     0.150 Goal=   None    Shift=    0.000
 Gap=     0.337 Goal=   None    Shift=    0.000
 RMSDP=1.12D-04 MaxDP=1.13D-02 DE= 2.92D-06 OVMax= 5.59D-03

 Cycle  63  Pass 1  IDiag  1:
 RMSU=  9.55D-06    CP:  9.75D-01  3.00D+00 -3.00D+00  3.00D+00  1.71D+00
                    CP:  1.06D+00  9.60D-01
 E= -228.545596980891     Delta-E=       -0.000002859953 Rises=F Damp=F
 DIIS: error= 1.48D-05 at cycle  48 NSaved=  20.
 NSaved=20 IEnMin=18 EnMin= -228.545597045914     IErMin=18 ErrMin= 6.77D-06
 ErrMax= 1.48D-05  0.00D+00 EMaxC= 1.00D-01 BMatC= 1.71D-07 BMatP= 3.53D-08
 IDIUse=1 WtCom= 1.00D+00 WtEn= 0.00D+00
 Coeff-Com: -0.286D-01 0.266D-01-0.287D-02-0.409D-02 0.103D-01-0.222D-02
 Coeff-Com:  0.604D-01-0.770D-01 0.713D-02-0.232D-01 0.666D-01-0.632D-02
[...]
 DD1Dir:  Pass   9 NRAB=     0 NRAA=    33 NRBB=    21 NR=    54.
 DD1Dir:  Pass  10 NRAB=     0 NRAA=     0 NRBB=    45 NR=    45.
 Norm of the A-vectors is  1.6491997D-05 conv= 1.00D-05.
 RLE energy=       -0.8709631380
 DE(Corr)= -0.87096317     E(CORR)=     -229.41656033     Delta= 4.37D-08
 NORM(A)=   0.12207742D+01
 Iteration Nr.  37
 **********************
 DD1Dir will call FoFJK  10 times, MxPair=        54
 NAB=   180 NAA=   105 NBB=    66 NumPrc=  4.
 DD1Dir:  Pass   1 NRAB=    27 NRAA=     0 NRBB=     0 NR=    54.
 DD1Dir:  Pass   2 NRAB=    27 NRAA=     0 NRBB=     0 NR=    54.
 DD1Dir:  Pass   3 NRAB=    27 NRAA=     0 NRBB=     0 NR=    54.
 DD1Dir:  Pass   4 NRAB=    27 NRAA=     0 NRBB=     0 NR=    54.
 DD1Dir:  Pass   5 NRAB=    27 NRAA=     0 NRBB=     0 NR=    54.
 DD1Dir:  Pass   6 NRAB=    27 NRAA=     0 NRBB=     0 NR=    54.
 DD1Dir:  Pass   7 NRAB=    18 NRAA=    18 NRBB=     0 NR=    54.
 DD1Dir:  Pass   8 NRAB=     0 NRAA=    54 NRBB=     0 NR=    54.
 DD1Dir:  Pass   9 NRAB=     0 NRAA=    33 NRBB=    21 NR=    54.
 DD1Dir:  Pass  10 NRAB=     0 NRAA=     0 NRBB=    45 NR=    45.
 Norm of the A-vectors is  1.1521241D-05 conv= 1.00D-05.
 RLE energy=       -0.8709631236
 DE(Corr)= -0.87096315     E(CORR)=     -229.41656031     Delta= 1.97D-08
 NORM(A)=   0.12207739D+01
 Iteration Nr.  38
 **********************
 DD1Dir will call FoFJK  10 times, MxPair=        54
 NAB=   180 NAA=   105 NBB=    66 NumPrc=  4.
 DD1Dir:  Pass   1 NRAB=    27 NRAA=     0 NRBB=     0 NR=    54.
 DD1Dir:  Pass   2 NRAB=    27 NRAA=     0 NRBB=     0 NR=    54.
 DD1Dir:  Pass   3 NRAB=    27 NRAA=     0 NRBB=     0 NR=    54.
 DD1Dir:  Pass   4 NRAB=    27 NRAA=     0 NRBB=     0 NR=    54.
 DD1Dir:  Pass   5 NRAB=    27 NRAA=     0 NRBB=     0 NR=    54.
 DD1Dir:  Pass   6 NRAB=    27 NRAA=     0 NRBB=     0 NR=    54.
 DD1Dir:  Pass   7 NRAB=    18 NRAA=    18 NRBB=     0 NR=    54.
 DD1Dir:  Pass   8 NRAB=     0 NRAA=    54 NRBB=     0 NR=    54.
 DD1Dir:  Pass   9 NRAB=     0 NRAA=    33 NRBB=    21 NR=    54.
 DD1Dir:  Pass  10 NRAB=     0 NRAA=     0 NRBB=    45 NR=    45.
 Norm of the A-vectors is  8.3634247D-06 conv= 1.00D-05.
 RLE energy=       -0.8709631130
 DE(Corr)= -0.87096312     E(CORR)=     -229.41656028     Delta= 3.13D-08
 NORM(A)=   0.12207737D+01
 CI/CC converged in   38 iterations to DelEn= 3.13D-08 Conv= 1.00D-07 ErrA1= 8.36D-06 Conv= 1.00D-05
 Dominant configurations:
 ***********************
 Spin Case        I    J    A    B          Value
    AA           20        22            0.132480D+00
    AA           20        26           -0.127020D+00
    AA           20        39            0.110373D+00
 Largest amplitude= 1.32D-01
 Time for triples=    15982.77 seconds.
 T4(CCSD)= -0.50334131D-01
 T5(CCSD)=  0.51616019D-02
 CCSD(T)= -0.22946173281D+03

 S**2, projected HF & approx projected MPn energies after annihilation of
 unwanted spin states (see manual for definitions):

 spins       (S**2,0) (S**2,1)    PUHF        PMP2        PMP3        PMP4
 annihilated
 s+1         3.74313  3.74970 -228.556900 -229.382814 -229.403699
 s+1,s+2     3.75007  3.74995 -228.556378 -229.382362 -229.403329
 s+1 to s+3  3.75000  3.75000 -228.556384 -229.382367 -229.403331
 s+1 to s+4  3.75000  3.75000 -228.556384 -229.382367 -229.403331
 s+1 to s+5  3.75000  3.75000 -228.556384
 s+1 to s+6  3.75000  3.75000 -228.556384

 Discarding MO integrals.
 Leave Link  913 at Fri Mar  8 14:55:03 2019, MaxMem=    33554432 cpu:    105167.8
 (Enter /home/proyectos/fulerenos/M3C-v2.0/M3C-deps_CCC/g09-AM64L-G09RevC.01/l601.exe)
 Copying SCF densities to generalized density rwf, IOpCl= 1 IROHF=0.

 **********************************************************************

            Population analysis using the SCF density.

 **********************************************************************

 Orbital symmetries:
 Alpha Orbitals:
       Occupied  (A) (A) (A) (A) (A) (A) (A) (A) (A) (A) (A) (A)
                 (A) (A) (A) (A) (A) (A) (A) (A)
       Virtual   (A) (A) (A) (A) (A) (A) (A) (A) (A) (A) (A) (A)
                 (A) (A) (A) (A) (A) (A) (A) (A) (A) (A) (A) (A)
                 (A) (A) (A) (A) (A) (A) (A) (A) (A) (A) (A) (A)
                 (A) (A) (A) (A) (A) (A) (A) (A) (A) (A) (A) (A)
                 (A) (A) (A) (A) (A) (A) (A) (A) (A) (A) (A) (A)
                 (A) (A) (A) (A) (A) (A) (A) (A) (A) (A) (A) (A)
                 (A) (A) (A) (A) (A) (A) (A) (A) (A) (A) (A) (A)
                 (A) (A) (A) (A) (A) (A) (A) (A) (A) (A) (A) (A)
                 (A) (A) (A) (A) (A) (A) (A) (A) (A) (A) (A) (A)
                 (A) (A) (A) (A) (A) (A) (A) (A) (A) (A) (A) (A)
                 (A) (A) (A) (A) (A) (A) (A) (A) (A) (A) (A) (A)
                 (A) (A) (A) (A) (A) (A) (A) (A) (A) (A) (A) (A)
                 (A) (A) (A) (A) (A) (A) (A) (A) (A) (A) (A) (A)
                 (A) (A) (A) (A) (A) (A) (A) (A) (A) (A) (A) (A)
                 (A) (A) (A) (A) (A) (A) (A) (A) (A) (A) (A) (A)
                 (A) (A) (A) (A) (A) (A) (A) (A) (A) (A) (A) (A)
                 (A) (A) (A) (A) (A) (A) (A) (A) (A) (A) (A) (A)
                 (A) (A) (A) (A) (A) (A) (A) (A) (A) (A) (A)
 Beta  Orbitals:
       Occupied  (A) (A) (A) (A) (A) (A) (A) (A) (A) (A) (A) (A)
                 (A) (A) (A) (A) (A)
       Virtual   (A) (A) (A) (A) (A) (A) (A) (A) (A) (A) (A) (A)
                 (A) (A) (A) (A) (A) (A) (A) (A) (A) (A) (A) (A)
                 (A) (A) (A) (A) (A) (A) (A) (A) (A) (A) (A) (A)
                 (A) (A) (A) (A) (A) (A) (A) (A) (A) (A) (A) (A)
                 (A) (A) (A) (A) (A) (A) (A) (A) (A) (A) (A) (A)
                 (A) (A) (A) (A) (A) (A) (A) (A) (A) (A) (A) (A)
                 (A) (A) (A) (A) (A) (A) (A) (A) (A) (A) (A) (A)
                 (A) (A) (A) (A) (A) (A) (A) (A) (A) (A) (A) (A)
                 (A) (A) (A) (A) (A) (A) (A) (A) (A) (A) (A) (A)
                 (A) (A) (A) (A) (A) (A) (A) (A) (A) (A) (A) (A)
                 (A) (A) (A) (A) (A) (A) (A) (A) (A) (A) (A) (A)
                 (A) (A) (A) (A) (A) (A) (A) (A) (A) (A) (A) (A)
                 (A) (A) (A) (A) (A) (A) (A) (A) (A) (A) (A) (A)
                 (A) (A) (A) (A) (A) (A) (A) (A) (A) (A) (A) (A)
                 (A) (A) (A) (A) (A) (A) (A) (A) (A) (A) (A) (A)
                 (A) (A) (A) (A) (A) (A) (A) (A) (A) (A) (A) (A)
                 (A) (A) (A) (A) (A) (A) (A) (A) (A) (A) (A) (A)
                 (A) (A) (A) (A) (A) (A) (A) (A) (A) (A) (A) (A)
                 (A) (A)
 The electronic state is 4-A.
 Alpha  occ. eigenvalues --  -20.31714 -11.08571 -11.07013 -11.06667 -11.05965
 Alpha  occ. eigenvalues --   -1.16163  -0.90656  -0.80035  -0.60912  -0.55014
 Alpha  occ. eigenvalues --   -0.48042  -0.42655  -0.40588  -0.39761  -0.34547
 Alpha  occ. eigenvalues --   -0.32405  -0.26657  -0.21119  -0.11969  -0.00422
 Alpha virt. eigenvalues --    0.14638   0.16867   0.17319   0.18399   0.22635
 Alpha virt. eigenvalues --    0.23101   0.24612   0.26710   0.26822   0.28183
 Alpha virt. eigenvalues --    0.29066   0.29928   0.30643   0.31020   0.32613
 Alpha virt. eigenvalues --    0.33975   0.34113   0.35469   0.36334   0.37973
 Alpha virt. eigenvalues --    0.40743   0.43971   0.45349   0.48272   0.49850
 Alpha virt. eigenvalues --    0.52100   0.53186   0.54834   0.57868   0.58393
 Alpha virt. eigenvalues --    0.61033   0.64534   0.65392   0.66152   0.68766
 Alpha virt. eigenvalues --    0.70212   0.70759   0.71991   0.74095   0.76623
 Alpha virt. eigenvalues --    0.77383   0.78232   0.80288   0.82120   0.82869
 Alpha virt. eigenvalues --    0.83058   0.86518   0.89298   0.90434   0.93477
 Alpha virt. eigenvalues --    0.95194   0.95604   0.95953   0.98441   1.00397
 Alpha virt. eigenvalues --    1.05552   1.07035   1.10827   1.12005   1.12475
 Alpha virt. eigenvalues --    1.14610   1.15459   1.17771   1.19231   1.24981
 Alpha virt. eigenvalues --    1.25443   1.31637   1.35744   1.37409   1.39963
 Alpha virt. eigenvalues --    1.43390   1.43691   1.45860   1.47254   1.49007
 Alpha virt. eigenvalues --    1.51998   1.52720   1.55042   1.58309   1.59694
 Alpha virt. eigenvalues --    1.62002   1.66279   1.68707   1.71188   1.72601
 Alpha virt. eigenvalues --    1.73868   1.75504   1.79907   1.82595   1.84663
 Alpha virt. eigenvalues --    1.90920   1.93113   1.98846   1.99986   2.03178
 Alpha virt. eigenvalues --    2.06086   2.10662   2.13527   2.16031   2.24495
 Alpha virt. eigenvalues --    2.27206   2.33203   2.36049   2.43341   2.46393
 Alpha virt. eigenvalues --    2.51821   2.57400   2.58370   2.66891   2.71528
 Alpha virt. eigenvalues --    2.77562   2.83748   2.87595   2.89759   3.09106
 Alpha virt. eigenvalues --    3.15916   3.21383   3.24647   3.28088   3.33004
 Alpha virt. eigenvalues --    3.36531   3.38596   3.39372   3.42415   3.43985
 Alpha virt. eigenvalues --    3.45704   3.50486   3.51274   3.53254   3.55344
 Alpha virt. eigenvalues --    3.58436   3.60483   3.65190   3.66935   3.68045
 Alpha virt. eigenvalues --    3.71313   3.78103   3.80873   3.86026   3.88295
 Alpha virt. eigenvalues --    3.93246   3.97623   4.04201   4.14930   4.17559
 Alpha virt. eigenvalues --    4.19172   4.21841   4.28418   4.29968   4.40966
 Alpha virt. eigenvalues --    4.46119   4.54335   4.58117   4.65791   4.67522
 Alpha virt. eigenvalues --    4.71376   4.74407   4.79451   4.85341   4.87842
 Alpha virt. eigenvalues --    4.90832   4.95449   4.99468   5.03306   5.15670
 Alpha virt. eigenvalues --    5.16946   5.17714   5.26591   5.35467   5.61684
 Alpha virt. eigenvalues --    5.74910   5.75562   5.94064   6.01043   6.01962
 Alpha virt. eigenvalues --    6.13396   6.15982   6.19480   6.22564   6.27839
 Alpha virt. eigenvalues --    6.32022   6.50368   6.99553   7.10480   7.14626
 Alpha virt. eigenvalues --    7.63624   7.65095   7.73033   7.73707   7.79214
 Alpha virt. eigenvalues --    7.81944   7.84156   7.92271   8.04619   8.10851
 Alpha virt. eigenvalues --    8.16512   8.30185   8.38024   8.47673   8.58551
 Alpha virt. eigenvalues --    8.65753   8.75569   8.89001   9.02144   9.11643
 Alpha virt. eigenvalues --   15.29170  15.30228  15.60623  15.67474  15.92676
 Alpha virt. eigenvalues --   25.36778  25.82267  26.31341  26.88702  52.33143
  Beta  occ. eigenvalues --  -20.29320 -11.08049 -11.06171 -11.04942 -11.03144
  Beta  occ. eigenvalues --   -1.10118  -0.88539  -0.73688  -0.55073  -0.48690
  Beta  occ. eigenvalues --   -0.44638  -0.40286  -0.36323  -0.34931  -0.24238
  Beta  occ. eigenvalues --   -0.22397  -0.19017
  Beta virt. eigenvalues --    0.14731   0.16579   0.17303   0.18506   0.21620
  Beta virt. eigenvalues --    0.22637   0.23243   0.25721   0.26881   0.28534
  Beta virt. eigenvalues --    0.29361   0.29928   0.30610   0.30955   0.31501
  Beta virt. eigenvalues --    0.32268   0.33826   0.35199   0.36178   0.36745
  Beta virt. eigenvalues --    0.37407   0.39991   0.43394   0.44976   0.46240
  Beta virt. eigenvalues --    0.46721   0.49671   0.52150   0.53047   0.54120
  Beta virt. eigenvalues --    0.56163   0.59005   0.60008   0.62682   0.66662
  Beta virt. eigenvalues --    0.66938   0.69086   0.71829   0.72259   0.73306
  Beta virt. eigenvalues --    0.74180   0.75639   0.78965   0.80146   0.81568
  Beta virt. eigenvalues --    0.82576   0.84526   0.84879   0.86473   0.89606
  Beta virt. eigenvalues --    0.91725   0.92687   0.96043   0.96570   0.98523
  Beta virt. eigenvalues --    0.99425   1.00518   1.02818   1.06237   1.08177
  Beta virt. eigenvalues --    1.11934   1.13281   1.13936   1.17320   1.17432
  Beta virt. eigenvalues --    1.19025   1.20176   1.26522   1.27538   1.33345
  Beta virt. eigenvalues --    1.36980   1.38522   1.41026   1.44632   1.44882
  Beta virt. eigenvalues --    1.47071   1.49420   1.50966   1.53255   1.53959
  Beta virt. eigenvalues --    1.55854   1.59419   1.61283   1.63552   1.67897
  Beta virt. eigenvalues --    1.70112   1.72568   1.74023   1.75025   1.77501
  Beta virt. eigenvalues --    1.81472   1.83950   1.87691   1.93103   1.96183
  Beta virt. eigenvalues --    2.03108   2.04493   2.06055   2.08364   2.15410
  Beta virt. eigenvalues --    2.17990   2.20068   2.28661   2.29434   2.35965
  Beta virt. eigenvalues --    2.38076   2.45145   2.49230   2.53386   2.59169
  Beta virt. eigenvalues --    2.60142   2.69080   2.72879   2.79898   2.85894
  Beta virt. eigenvalues --    2.89628   2.92013   3.10985   3.17045   3.23210
  Beta virt. eigenvalues --    3.25949   3.30601   3.36608   3.38857   3.40772
  Beta virt. eigenvalues --    3.43566   3.44994   3.47948   3.49604   3.52581
  Beta virt. eigenvalues --    3.54513   3.56395   3.57470   3.60351   3.62719
  Beta virt. eigenvalues --    3.67828   3.69119   3.69740   3.74172   3.79331
  Beta virt. eigenvalues --    3.82129   3.87573   3.90019   3.94075   3.98089
  Beta virt. eigenvalues --    4.06296   4.16421   4.18556   4.22765   4.24699
  Beta virt. eigenvalues --    4.31144   4.31481   4.42714   4.47191   4.55656
  Beta virt. eigenvalues --    4.59040   4.66501   4.68687   4.72802   4.74981
  Beta virt. eigenvalues --    4.81668   4.85721   4.88988   4.91659   4.96716
  Beta virt. eigenvalues --    5.00631   5.04804   5.16232   5.17293   5.18373
  Beta virt. eigenvalues --    5.28153   5.36187   5.62565   5.77517   5.78178
  Beta virt. eigenvalues --    5.95194   6.01912   6.05743   6.15458   6.17956
  Beta virt. eigenvalues --    6.21041   6.24632   6.29080   6.33010   6.51246
  Beta virt. eigenvalues --    7.01434   7.11941   7.16588   7.69178   7.70955
  Beta virt. eigenvalues --    7.76892   7.77406   7.79823   7.83368   7.86101
  Beta virt. eigenvalues --    7.94505   8.06396   8.12166   8.18080   8.30207
  Beta virt. eigenvalues --    8.39608   8.49170   8.60035   8.66784   8.76246
  Beta virt. eigenvalues --    8.89778   9.02627   9.12180  15.33252  15.34308
  Beta virt. eigenvalues --   15.63054  15.69875  15.94668  25.37706  25.82838
  Beta virt. eigenvalues --   26.33085  26.89449  52.34531
          Condensed to atoms (all electrons):
               1          2          3          4          5          6
     1  C    8.015756  -0.003886  -0.219545  -0.295799  -1.231720  -0.093548
     2  C   -0.003886   7.840826   0.023479  -1.019470  -0.295892  -0.155020
     3  O   -0.219545   0.023479   9.061751  -0.031072   0.020470   0.008425
     4  C   -0.295799  -1.019470  -0.031072   6.841449   0.227655  -0.210757
     5  C   -1.231720  -0.295892   0.020470   0.227655   6.290883   0.443322
     6  H   -0.093548  -0.155020   0.008425  -0.210757   0.443322   0.955216
     7  H    0.000320   0.481281   0.000198  -0.127072  -0.007493  -0.004494
     8  H   -0.007065  -0.177734  -0.003464   0.520207  -0.047573   0.004016
     9  H   -0.069610  -0.102870   0.016936  -0.054966   0.446644   0.066714
               7          8          9
     1  C    0.000320  -0.007065  -0.069610
     2  C    0.481281  -0.177734  -0.102870
     3  O    0.000198  -0.003464   0.016936
     4  C   -0.127072   0.520207  -0.054966
     5  C   -0.007493  -0.047573   0.446644
     6  H   -0.004494   0.004016   0.066714
     7  H    0.545129  -0.003401  -0.002966
     8  H   -0.003401   0.587109   0.009213
     9  H   -0.002966   0.009213   0.654954
          Atomic-Atomic Spin Densities.
               1          2          3          4          5          6
     1  C    4.022438  -0.070308  -0.682563  -0.105224  -1.389657  -0.038659
     2  C   -0.070308   3.371951   0.019504  -0.921604  -0.203813  -0.180038
     3  O   -0.682563   0.019504   0.877867  -0.004571   0.059627   0.035184
     4  C   -0.105224  -0.921604  -0.004571   0.019630   0.280791  -0.124049
     5  C   -1.389657  -0.203813   0.059627   0.280791   1.142161  -0.081889
     6  H   -0.038659  -0.180038   0.035184  -0.124049  -0.081889   0.377608
     7  H   -0.000854  -0.017351  -0.000011  -0.012735  -0.008197  -0.004744
     8  H    0.022203  -0.037920  -0.002913   0.008752  -0.026952   0.016138
     9  H   -0.044495  -0.102875   0.006741   0.001958  -0.005774   0.109714
               7          8          9
     1  C   -0.000854   0.022203  -0.044495
     2  C   -0.017351  -0.037920  -0.102875
     3  O   -0.000011  -0.002913   0.006741
     4  C   -0.012735   0.008752   0.001958
     5  C   -0.008197  -0.026952  -0.005774
     6  H   -0.004744   0.016138   0.109714
     7  H    0.031069  -0.006958  -0.003684
     8  H   -0.006958   0.124070   0.005436
     9  H   -0.003684   0.005436   0.056779
 Mulliken charges and spin densities:
               1          2
     1  C   -0.094902   1.712881
     2  C   -0.590715   1.857548
     3  O   -0.877179   0.308865
     4  C    0.149825  -0.857052
     5  C    0.153704  -0.233702
     6  H   -0.013874   0.109266
     7  H    0.118496  -0.023464
     8  H    0.118693   0.101857
     9  H    0.035951   0.023801
 Sum of Mulliken charges =  -1.00000   3.00000
 Mulliken charges and spin densities with hydrogens summed into heavy atoms:
               1          2
     1  C   -0.094902   1.712881
     2  C   -0.472218   1.834085
     3  O   -0.877179   0.308865
     4  C    0.268518  -0.755195
     5  C    0.175781  -0.100635
 Electronic spatial extent (au):  <R**2>=            487.2160
 Charge=             -1.0000 electrons
 Dipole moment (field-independent basis, Debye):
    X=             -3.9207    Y=              0.7466    Z=              0.8157  Tot=              4.0737
 Quadrupole moment (field-independent basis, Debye-Ang):
   XX=            -56.2866   YY=            -35.7085   ZZ=            -36.6272
   XY=              4.3438   XZ=              2.3534   YZ=             -0.5565
 Traceless Quadrupole moment (field-independent basis, Debye-Ang):
   XX=            -13.4125   YY=              7.1656   ZZ=              6.2469
   XY=              4.3438   XZ=              2.3534   YZ=             -0.5565
 Octapole moment (field-independent basis, Debye-Ang**2):
  XXX=             -4.1295  YYY=             -3.2482  ZZZ=              5.1347  XYY=              0.5311
  XXY=              0.1926  XXZ=             -4.1777  XZZ=              2.0828  YZZ=             -1.9560
  YYZ=              1.2154  XYZ=              0.5117
 Hexadecapole moment (field-independent basis, Debye-Ang**3):
 XXXX=           -679.5456 YYYY=           -118.2687 ZZZZ=            -89.0314 XXXY=             26.7548
 XXXZ=             20.6188 YYYX=              0.4235 YYYZ=             -4.9758 ZZZX=              8.4676
 ZZZY=             -3.2518 XXYY=           -117.0446 XXZZ=           -113.4515 YYZZ=            -34.1225
 XXYZ=              5.1801 YYXZ=              3.7773 ZZXY=             -0.4902
 N-N= 1.381818888142D+02 E-N=-8.198277067695D+02  KE= 2.284771260091D+02
 Leave Link  601 at Fri Mar  8 14:55:04 2019, MaxMem=    33554432 cpu:         0.7
 (Enter /home/proyectos/fulerenos/M3C-v2.0/M3C-deps_CCC/g09-AM64L-G09RevC.01/l9999.exe)
 1\1\GINC-FOSFORO\SP\UCCSD(T)-FC\6-311++G(3df,2p)\C4H4O1(1-,4)\NAGUIRRE
 \08-Mar-2019\0\\#p ccsd(t,maxcyc=200)/6-311++G(3df,2p)\\ccsd(t) iener\
 \-1,4\C,0,1.219581,0.121107,-0.038103\C,0,-2.223798,-0.406491,-0.41964
 \O,0,1.954566,0.188621,0.935586\C,0,-1.15079,0.055776,0.266788\C,0,-0.
 04,0.891676,-0.311196\H,0,0.029267,1.902237,0.147345\H,0,-2.732374,-1.
 361916,-0.500151\H,0,-1.076296,-0.103661,1.343664\H,0,-0.194638,1.0163
 03,-1.38429\\Version=EM64L-G09RevE.01\State=4-A\HF=-228.5455972\MP2=-2
 29.3730433\MP3=-229.3963662\MP4D=-229.4159447\MP4DQ=-229.3945846\PUHF=
 -228.5568998\PMP2-0=-229.3828136\PMP3-0=-229.4036991\MP4SDQ=-229.40960
 41\CCSD=-229.4165603\CCSD(T)=-229.4617328\S2=3.99998\S2-1=3.930333\S2A
 =3.759774\RMSD=4.866e-09\PG=C01 [X(C4H4O1)]\\@


 CHRISTMAS IS ON TOP OF A STEEP HILL.
 THE CLOSER YOU GET, THE STEEPER THE HILL IS.
          -- LINUS, OF PEANUTS
 Job cpu time:       1 days  6 hours 34 minutes 15.2 seconds.
 File lengths (MBytes):  RWF=   8621 Int=      0 D2E=      0 Chk=      5 Scr=      1
 Normal termination of Gaussian 09 at Fri Mar  8 14:55:08 2019.
