4
Energy =   -189.499367812     
    C    0.055950   -0.598015    0.026375
    C    0.216382    0.676825   -0.081893
    C    0.377444    1.958276   -0.190670
    O   -0.094164   -1.789977    0.127714

FREQUENCIES 7
-316.9285
202.4109
281.9570
614.7427
924.1288
1623.3751
2090.3473

SYMMETRY C*V
ELECTRONIC_STATE ??
