5
Energy =   -152.608626154     
    C    0.150254    0.415389   -0.000061
    C    1.480240    0.142452   -0.111404
    H    2.067299   -0.724975   -0.386510
    H   -0.077857    1.462436    0.319815
    O   -0.840696   -0.361810   -0.211208

FREQUENCIES 9
-678.5095
432.7289
914.8106
963.1206
1239.5581
1319.7083
1513.1462
2724.9756
3158.6068

SYMMETRY C1
ELECTRONIC_STATE 2-A
