6
Energy =   -190.675068902     
    C    0.917673    1.510837   -0.409020
    C   -0.498442   -0.557627    0.308023
    C    0.258794    0.505966   -0.086805
    H    0.574350   -1.636771   -0.937783
    H    1.412731    2.425837   -0.611563
    O   -0.161348   -1.782474   -0.318884

FREQUENCIES 12
-452.2793
219.0733
375.0296
438.4037
515.4579
644.1514
836.1454
1148.3547
1267.7363
1907.2860
3455.8878
3575.8080

SYMMETRY C1
ELECTRONIC_STATE 2-A
