7
Energy =   -228.745860985     
    C    1.613667    1.247664   -0.119289
    C   -0.484281   -0.062587    0.127977
    C    0.188848    1.049545   -0.306321
    C   -1.141105   -1.013474    0.522669
    H   -1.766020   -1.813238    0.852991
    H   -0.359369    1.838826   -0.820290
    O    2.448648    0.544704    0.362427

FREQUENCIES 15
-144.8391
63.2706
323.9436
397.1508
661.2184
691.2919
740.9014
765.0763
911.0582
1116.3731
1337.3054
1761.2237
1953.7687
3026.1246
3344.2171

SYMMETRY C1
ELECTRONIC_STATE 4-A
