4
Energy =   -114.399403554     
    C    0.471066    0.196692   -0.488252
    H    0.770633    1.163856   -0.884434
    H   -0.560667    0.804274    1.023286
    O   -0.275096   -0.037257    0.580156

FREQUENCIES 6
-463.9422
974.5766
1153.2453
1329.6413
3071.0877
3165.3864

SYMMETRY CS
ELECTRONIC_STATE 4-A"
