4
Energy =   -114.408999621     
    C    0.148397    0.237012   -0.442647
    H    0.665808   -0.498658   -1.063000
    H    0.348709    1.306847   -0.537916
    O   -0.727945   -0.171236    0.431557

FREQUENCIES 6
-664.7955
828.9156
1237.9189
1259.1605
2914.1265
3087.4224

SYMMETRY C2V
ELECTRONIC_STATE 4-A2
