3
Energy =   -76.2120477442     
    H    0.607400    1.307593    0.000000
    H    1.497972   -1.029585    0.000000
    O    0.124236   -0.213417    0.000000

FREQUENCIES 3
-564.8715
439.9448
512.2728

SYMMETRY CS
ELECTRONIC_STATE 4-A"
