6
Energy =   -153.137468409     
    C    0.068978    0.030603   -0.468747
    C    0.651566   -1.259200   -0.327322
    H   -0.874653    0.172521   -0.992607
    H    0.656839    0.936469   -0.331763
    H    1.190580   -2.155571   -0.545872
    O   -0.039797   -0.815524    0.759988

FREQUENCIES 12
-765.4219
675.8177
925.9126
956.0621
1070.6513
1081.6102
1190.7534
1361.8026
1514.0457
3012.3586
3115.0990
3319.3302

SYMMETRY C1
ELECTRONIC_STATE 3-A
