7
Energy =   -191.230507012     
    C    1.251053   -0.357444    0.067045
    C    0.583322    0.251195   -1.121590
    C   -0.095078   -0.246896   -0.050538
    H    2.129432   -0.653658    0.594684
    H   -1.217243   -0.887319    1.343734
    H    0.622958    0.717909   -2.081981
    O   -1.284626   -0.449894    0.457345

FREQUENCIES 15
-700.5880
-460.4701
448.3130
494.5802
555.5227
759.2748
888.2775
946.8717
1021.2517
1082.9316
1288.7808
1753.8379
3170.2733
3319.8101
3357.9647

SYMMETRY C1
ELECTRONIC_STATE 3-A
