7
Energy =   -191.308073418     
    C   -0.198670    1.890557    0.000000
    C    0.217312    0.714964    0.000000
    C    0.585653   -0.583627   -0.000000
    H   -0.527492    2.897186   -0.000000
    H   -1.254283   -1.188658    0.000000
    H    1.588766   -0.972742   -0.000000
    O   -0.409610   -1.645271   -0.000000

FREQUENCIES 15
-767.8620
-372.1877
-221.6111
217.3144
471.2103
604.3525
684.0264
893.8044
1156.3589
1199.6556
1383.6122
1983.9389
3220.1494
3469.3322
3844.8272

SYMMETRY CS
ELECTRONIC_STATE 1-A'
