7
Energy =   -153.739284142     
    C    0.346912   -0.328879    0.011415
    C   -1.060029   -0.679698   -0.252801
    H   -1.501459   -1.317396    0.528660
    H    1.800061    0.905466    0.344701
    H   -1.202432   -1.208015   -1.208200
    H   -1.657422    0.236227   -0.297927
    O    0.832250    0.913984    0.173623

FREQUENCIES 15
-266.9612
-180.2814
386.0478
895.9238
980.3823
998.5508
1173.1356
1356.5415
1379.9092
1434.4788
1459.5782
2891.6919
2922.8034
3029.2640
3338.8812

SYMMETRY C1
ELECTRONIC_STATE 4-A
