7
Energy =   -153.725517468     
    C   -0.136345    0.086835    0.377106
    C   -1.169607   -0.429272   -0.596000
    H   -2.026020   -0.994080   -0.252253
    H    1.511123    1.082363    0.489821
    H   -1.048146   -0.230713   -1.649088
    H   -0.154647   -0.051663    1.443519
    O    0.877773    0.777408   -0.199414

FREQUENCIES 15
-679.5666
-468.0006
-271.8000
405.2314
455.6748
880.9015
1033.8026
1203.2231
1260.2067
1388.6886
1461.2526
3126.6010
3225.2082
3253.5987
3327.4881

SYMMETRY C1
ELECTRONIC_STATE 4-A
