9
Energy =   -230.092842702     
    O   -3.482176   -0.685064   -0.000000
    C    1.193956    0.714107   -0.000000
    C    0.363903   -0.543831    0.000000
    C   -1.007190   -0.562191    0.000000
    C   -2.257719   -0.628822    0.000000
    H    1.855318    0.794325    0.879095
    H    1.855318    0.794325   -0.879095
    H    0.548195    1.594499    0.000000
    H    0.930594   -1.477451   -0.000000

FREQUENCIES 21
-108.9518
59.7219
223.6892
421.1471
439.4465
454.8313
516.2555
772.2180
1005.7012
1036.4355
1064.5169
1324.9491
1375.2466
1468.4089
1474.0310
1530.9817
2183.3982
2866.6157
2890.5419
3011.7623
3054.6086

SYMMETRY CS
ELECTRONIC_STATE 2-A"
