9
Energy =   -229.955227168     
    C   -0.000000    1.110546    0.381755
    C    0.000000   -1.110546    0.381755
    O    0.000000   -0.000000    1.242880
    C   -0.000000   -0.671202   -1.007925
    C    0.000000    0.671202   -1.007925
    H   -0.000000    2.083758    0.840115
    H    0.000000   -2.083758    0.840115
    H   -0.000000   -1.335671   -1.858502
    H    0.000000    1.335671   -1.858502

FREQUENCIES 21
-470.5830
-280.3406
98.4637
472.2903
673.5386
695.2693
762.1159
770.3720
895.1935
982.1984
1032.0903
1049.8140
1114.4211
1248.4287
1294.8769
1380.0810
1590.3444
3187.4900
3195.2370
3237.3119
3238.6666

SYMMETRY C2V
ELECTRONIC_STATE 4-B2
