9
Energy =   -230.072207247     
    C    3.089946    3.310696    0.913991
    C    3.137849    1.807502    0.613570
    O    4.188113    1.321935    0.080503
    C    2.002425    1.082019    0.951700
    C    1.041411    0.444714    1.440940
    H    4.035323    3.756232    0.600717
    H    2.944437    3.505052    1.983217
    H    2.272530    3.812608    0.385266
    H    0.074278    0.084932    1.119625

FREQUENCIES 21
-145.8094
186.1473
252.1184
440.1669
509.4392
611.5549
620.4728
641.1618
764.8668
974.4548
994.9122
1180.5211
1349.7590
1448.8800
1471.0554
1498.2383
1961.4296
2969.1819
3003.7685
3071.4915
3146.0585

SYMMETRY C1
ELECTRONIC_STATE 2-A
