9
Energy =   -229.940947104     
    C    0.529724   -0.929587    0.862745
    C    0.049086    0.780393   -0.900389
    O   -0.494510   -1.419704    1.634158
    C   -0.169827    1.926699   -1.261680
    C    0.274347   -0.517690   -0.521442
    H    1.484437   -1.346393    1.153783
    H   -1.342285   -1.091626    1.293236
    H   -0.397011    2.911705   -1.594147
    H    0.213237   -1.280762   -1.301133

FREQUENCIES 21
-403.2452
187.2486
323.3596
374.1008
413.0505
481.8047
604.7672
695.9736
698.9337
735.9541
921.5402
1101.6591
1168.9717
1248.8773
1358.4990
1392.2386
1994.2029
3016.2288
3163.6502
3395.2742
3596.4470

SYMMETRY C1
ELECTRONIC_STATE 4-A
