9
Energy =   -230.040667971     
    O    1.850993    0.648560    0.002318
    C   -0.614706   -0.034341   -0.000640
    C    0.810159    0.026606    0.000658
    C    0.080220   -1.187267   -0.001444
    C   -1.949126    0.596363   -0.000968
    H   -0.022024   -2.262403   -0.002836
    H   -2.061545    1.238346    0.879156
    H   -2.749760   -0.143395   -0.002373
    H   -2.060208    1.240235   -0.879875

FREQUENCIES 21
-332.4267
148.7785
235.2320
543.6337
544.5760
751.2572
866.1648
905.7104
975.1398
998.5132
1083.1739
1228.3762
1379.6516
1450.9981
1454.4378
1649.6397
1888.6826
2830.1764
2971.3574
3073.7350
3195.3100

SYMMETRY CS
ELECTRONIC_STATE 2-A'
