9
Energy =   -230.077131434     
    C   -2.468195   -0.195846   -0.000000
    C    1.234402   -0.354280   -0.000000
    O    2.445267    0.017007    0.000000
    C    0.100645    0.498486   -0.000000
    C   -1.212703    0.143454   -0.000000
    H   -3.055646   -0.362248   -0.918798
    H    1.002644   -1.439972    0.000000
    H    0.320550    1.565202   -0.000000
    H   -3.055645   -0.362249    0.918798

FREQUENCIES 21
-327.0032
-120.9305
168.4370
254.9772
458.2957
558.3270
776.2206
829.7218
873.6685
1008.7323
1015.4136
1162.9497
1279.4201
1341.8961
1468.4400
1548.4534
1867.1238
2735.4230
2827.0412
2874.8564
3083.4693

SYMMETRY CS
ELECTRONIC_STATE 2-A"
