9
Energy =   -229.931325643     
    O   -0.000001    0.000002    2.380381
    C    0.000000   -0.767348   -1.432081
    C    0.000000    0.767348   -1.432080
    C    0.000000   -0.000001   -0.170630
    C    0.000001   -0.000001    1.172439
    H    0.912768   -1.282700   -1.724504
    H   -0.912768   -1.282700   -1.724504
    H   -0.912768    1.282700   -1.724503
    H    0.912768    1.282700   -1.724503

FREQUENCIES 21
-734.0939
145.2853
285.9291
368.5944
616.3367
678.7817
736.3172
808.8185
972.5959
991.3425
1008.3050
1047.1169
1153.4641
1320.6714
1401.0415
1415.7339
1945.8893
3018.1331
3020.9462
3086.0385
3114.1118

SYMMETRY C2V
ELECTRONIC_STATE 4-A2
