9
Energy =   -230.040667200     
    O    1.852460    0.646175    0.002118
    C   -0.614661   -0.033229   -0.000643
    C    0.810652    0.025418    0.000461
    C    0.078954   -1.187012   -0.001820
    C   -1.949422    0.597095   -0.000662
    H   -0.021068   -2.262231   -0.003446
    H   -2.062302    1.238700    0.879864
    H   -2.749487   -0.143336   -0.002213
    H   -2.061123    1.241125   -0.879564

FREQUENCIES 21
-337.4712
151.4416
235.5407
542.8138
544.5657
751.0424
866.3718
905.4868
975.4929
998.4144
1083.0557
1228.0749
1379.7700
1451.0160
1454.4794
1649.0346
1887.6791
2826.5716
2970.2324
3073.1569
3196.6803

SYMMETRY CS
ELECTRONIC_STATE 2-A'
