9
Energy =   -230.022051124     
    O    0.931242    1.443643    0.000000
    C    0.268399    0.187757   -0.000000
    C    1.047312   -0.973021   -0.000000
    C   -1.105306    0.272740   -0.000000
    C   -2.336604    0.326896   -0.000000
    H    2.129683   -0.917594    0.000000
    H    0.591101   -1.950343   -0.000000
    H    1.869327    1.237466    0.000000
    H   -3.395154    0.372556    0.000000

FREQUENCIES 21
-6659.5901
-588.7923
-261.0872
196.1349
278.9897
384.7806
431.2226
480.3001
599.3808
660.8568
778.3124
944.0014
1165.4652
1248.5891
1429.0577
1517.1031
2046.0914
3124.0196
3224.3000
3469.0343
3843.7876

SYMMETRY CS
ELECTRONIC_STATE 2-A"
