9
Energy =   -230.038899597     
    O   -0.000000    0.000000    2.360092
    C    0.000000   -0.760879   -1.422669
    C    0.000000    0.760879   -1.422669
    C    0.000000   -0.000000   -0.136926
    C    0.000000   -0.000000    1.151914
    H    0.908750   -1.280315   -1.727432
    H   -0.908750   -1.280315   -1.727432
    H   -0.908750    1.280315   -1.727431
    H    0.908750    1.280315   -1.727431

FREQUENCIES 21
-287.9000
117.0028
304.4166
515.4091
609.5730
755.0094
779.4049
858.1800
952.5587
1009.1417
1045.0761
1065.0184
1159.9167
1368.6926
1443.1473
1475.7508
2030.9591
2982.9494
2997.8132
3050.4864
3090.5358

SYMMETRY C2V
ELECTRONIC_STATE 2-B2
