9
Energy =   -230.006080046     
    C   -0.968066    0.611833    0.000000
    C    0.326093   -1.311962   -0.000000
    O   -1.034632   -0.729927   -0.000000
    C    1.231178   -0.058213    0.000000
    C    0.274934    1.114132   -0.000000
    H   -1.915450    1.141677    0.000000
    H    1.915588   -0.048271    0.873847
    H    1.915588   -0.048271   -0.873847
    H    0.516474    2.168978   -0.000000

FREQUENCIES 21
-31.4456
493.7095
641.6546
653.1641
751.4183
797.5756
859.2710
887.1591
895.6573
941.1898
1065.1367
1068.1786
1143.5010
1217.6166
1345.5264
1452.6547
1603.9064
2617.6511
2784.2210
3124.2950
3165.2309

SYMMETRY CS
ELECTRONIC_STATE 2-A"
