9
Energy =   -229.884819329     
    C   -1.317252    0.254636    0.646815
    C    1.148293   -0.466545    0.000000
    O    1.715372    0.698778   -0.000000
    C   -0.343991   -0.683582    0.000000
    C   -1.317252    0.254636   -0.646815
    H   -1.697372    0.644542    1.575623
    H   -0.531263   -1.756912    0.000000
    H    1.802596   -1.336901   -0.000000
    H   -1.697372    0.644542   -1.575623

FREQUENCIES 21
-480.8807
104.1143
236.8564
390.7516
508.8822
665.5133
731.2445
820.5921
849.7971
875.4304
957.4654
1001.3309
1014.8619
1178.3796
1222.2566
1396.6681
1688.8875
3039.1810
3074.9546
3206.5755
3241.4229

SYMMETRY CS
ELECTRONIC_STATE 4-A"
