9
Energy =   -229.940947111     
    C    0.543115   -0.928371    0.856925
    C    0.039974    0.773116   -0.908146
    O   -0.468548   -1.399392    1.656389
    C   -0.175318    1.918772   -1.273815
    C    0.259209   -0.524375   -0.524015
    H    1.499599   -1.353571    1.129281
    H   -1.320057   -1.063751    1.332688
    H   -0.400693    2.903422   -1.608550
    H    0.169917   -1.292816   -1.295623

FREQUENCIES 21
-462.0878
194.0554
311.4691
371.4101
412.3421
461.1448
598.8120
688.0374
696.8990
735.5758
937.7656
1109.0838
1171.4925
1247.6816
1353.2526
1390.7144
1944.3403
3017.5781
3163.7372
3400.1898
3596.9413

SYMMETRY C1
ELECTRONIC_STATE 4-A
