9
Energy =   -230.006079161     
    C   -0.967517    0.611981    0.000000
    C    0.325706   -1.311692   -0.000000
    O   -1.034521   -0.729978   -0.000000
    C    1.231659   -0.058219    0.000000
    C    0.275275    1.114189   -0.000000
    H   -1.914920    1.141762    0.000000
    H    1.914895   -0.048687    0.874181
    H    1.914895   -0.048687   -0.874181
    H    0.516237    2.169308   -0.000000

FREQUENCIES 21
-42.4187
493.4997
642.7067
653.8157
751.8448
797.3174
859.3598
886.5575
895.5723
940.8429
1064.8353
1067.9301
1143.3381
1216.4593
1345.5356
1452.0741
1604.6305
2623.1498
2787.9944
3124.1992
3164.1442

SYMMETRY CS
ELECTRONIC_STATE 2-A"
