9
Energy =   -229.916719854     
    C    2.315965   -0.505416   -0.446791
    C   -1.089437    0.332379    0.450466
    O   -1.195057    1.398290   -0.279011
    C   -0.291991   -0.857982   -0.138129
    C    1.129254   -0.620922   -0.290457
    H    3.367430   -0.423047   -0.581252
    H   -2.061285    0.003289    0.862358
    H   -0.464641   -1.695750    0.549871
    H   -0.734279   -1.142953   -1.103373

FREQUENCIES 21
-243.2842
-43.1923
252.1895
308.1552
488.3664
657.9280
699.2992
732.1776
800.5385
866.2512
955.9405
1097.1403
1170.2693
1259.0011
1331.9873
1425.0203
2169.0953
2856.4873
2928.1682
2954.4933
3424.9275

SYMMETRY C1
ELECTRONIC_STATE 4-A
