9
Energy =   -229.908750666     
    C   -0.427447    1.089227    0.000000
    C   -0.326109   -1.479133   -0.731436
    O    0.288182    2.138174   -0.000001
    C   -0.326109   -1.479133    0.731436
    C    0.252033   -0.337599    0.000000
    H   -1.516238    1.083559   -0.000000
    H    0.172803   -2.127428    1.454567
    H    0.172803   -2.127427   -1.454567
    H    1.325684   -0.161177    0.000000

FREQUENCIES 21
-590.2711
-335.2285
254.3346
319.7803
406.6585
482.5395
682.7096
698.9349
805.6838
888.0032
974.0876
1017.9812
1052.7001
1207.6227
1218.8580
1261.5854
1327.5384
2731.5570
3027.6275
3057.3573
3066.1121

SYMMETRY CS
ELECTRONIC_STATE 4-A'
