9
Energy =   -229.955226450     
    C    0.000000   -1.110590    0.358583
    C   -0.000000    1.110590    0.358583
    O   -0.000000    0.000000    1.220405
    C    0.000000    0.671197   -1.031016
    C   -0.000000   -0.671197   -1.031016
    H    0.000000   -2.083258    0.817783
    H   -0.000000    2.083258    0.817783
    H    0.000000    1.334669   -1.882413
    H   -0.000000   -1.334669   -1.882413

FREQUENCIES 21
-470.5130
-280.8541
99.5526
472.2408
673.3010
695.5566
761.8651
769.8358
895.2451
981.5013
1030.9748
1049.7977
1114.3862
1248.1297
1295.0541
1379.6455
1590.3957
3187.1515
3194.8567
3238.6038
3239.9193

SYMMETRY C2V
ELECTRONIC_STATE 4-B2
