6
Energy =   -115.748767737     
    C    0.599964   -0.543326   -0.395498
    H    0.781195   -0.987397   -1.379150
    H    0.936430    0.497864   -0.413459
    H   -0.891941   -1.119804    0.730144
    H    1.207930   -1.082806    0.336539
    O   -0.787386   -0.603705   -0.079630

FREQUENCIES 12
-232.0095
1029.1634
1096.0770
1182.6193
1357.0393
1473.5740
1487.9967
1509.3897
2959.3464
3024.0934
3031.6355
3681.8209

SYMMETRY CS
ELECTRONIC_STATE 2-A'
