4
Energy =   -151.963390035     
    C   -0.535906    0.253852   -0.254523
    C    0.686315    0.550984    0.234734
    H    1.446781   -0.032187    0.770363
    O   -1.232742   -0.774647   -0.264474

FREQUENCIES 6
-630.6407
475.6310
913.2583
1214.6361
1600.5609
2938.5411

SYMMETRY C1
ELECTRONIC_STATE 3-A
