5
Energy =   -190.047192424     
    C   -1.748947    0.450086    0.229979
    C    0.597455    0.125165   -0.117244
    C   -0.656595   -0.154860   -0.482046
    H   -0.792889   -0.848793   -1.325091
    O    1.660677    0.457551    0.305397

FREQUENCIES 9
-298.7587
198.3564
578.1823
588.0206
928.8080
1027.3070
1183.8870
2012.4208
2880.4702

SYMMETRY CS
ELECTRONIC_STATE 3-A"
