1
Energy =  -0.498301871750     
    H    0.000000    0.000000    0.000000

FREQUENCIES 0

SYMMETRY SO3
ELECTRONIC_STATE ??
