18
Energy =   -798.560259514     
    C   -0.746948    1.020331    0.573843
    C    0.701149    0.701840    0.164793
    N   -1.270971    1.900521   -0.522070
    O    1.237329    1.345624   -0.716736
    O    1.215746   -0.260528    0.865925
    H   -0.712098    1.607625    1.497063
    H   -1.962324    2.583333   -0.205733
    H   -1.692735    1.286027   -1.243598
    H    2.179225   -0.424067    0.566917
    C   -1.625323   -0.215527    0.768860
    S   -1.794493   -1.123258   -0.814143
    H   -2.609286    0.072854    1.143871
    H   -1.142059   -0.850112    1.513162
    H   -3.123532   -1.281730   -0.764204
    O    3.554784   -0.540958   -0.058828
    H    3.824575    0.136883   -0.690554
    H    4.342192   -0.972662    0.291396
    H   -0.456871    2.371859   -0.955500

FREQUENCIES 48
41.8539
74.6018
79.6361
95.4616
205.8028
211.8515
231.9132
244.1013
269.7442
293.1924
331.6307
363.2055
458.5652
490.9052
535.9996
600.6765
711.5562
780.6269
827.2441
878.9948
934.7850
1010.4899
1024.1552
1048.9006
1091.6132
1139.9635
1221.9945
1315.8774
1331.2501
1361.0899
1423.7949
1469.7382
1490.7694
1556.1263
1606.8876
1618.9975
1670.3746
1847.4638
2716.5258
2820.0359
3124.3428
3134.8174
3191.3116
3275.2447
3332.5593
3545.2466
3856.4960
3975.5647

SYMMETRY C1
ELECTRONIC_STATE 1-A
