16
Energy = -382.412464871
1 3.099240 -2.414708 0.242215
1 3.924181 -1.139445 -0.199443
1 -1.024238 -2.758372 0.935435
8 3.127261 -1.655692 -0.366565
1 0.466051 -3.278507 0.835861
1 2.513802 -4.031309 2.071799
8 -0.225115 -2.752458 0.396090
1 2.438777 -4.737121 0.702591
1 0.534988 -0.648483 -1.773243
8 0.809705 -0.820231 -0.813773
1 0.268342 -1.555804 -0.344439
1 1.802035 -1.055705 -0.694725
8 2.262415 -3.896793 1.147996
1 -0.188609 0.591590 -3.461970
8 0.105500 -0.288057 -3.197548
1 0.033032 -0.872391 -3.960806
 
FREQUENCIES 42
36.1389
61.4945
77.5281
86.5661
156.9556
163.0263
204.5937
208.2664
235.4431
244.4979
280.2556
288.5433
296.8395
339.9025
370.0324
395.3220
436.9308
522.2171
556.3027
659.3201
696.7132
776.6603
987.7188
1003.7385
1265.7114
1612.9418
1624.6081
1631.1351
1647.5193
1647.6966
1813.9333
2680.2423
2800.7697
2990.8312
3723.1879
3744.8695
3838.1106
3867.8105
3936.6412
3940.4784
3944.8606
3979.3896
 
SYMMETRY C1
ELECTRONIC_STATE 1-A
