16
Energy = -382.408749600
1 2.987803 -2.488303 0.474231
1 3.759644 -1.323193 -0.262038
1 -1.597108 -1.545808 -0.108627
8 3.013400 -1.930141 -0.323211
1 -0.721722 -2.856754 0.324578
1 2.819435 -3.406667 2.758356
8 -0.974605 -2.214838 -0.420963
1 3.132321 -4.531785 1.747627
1 0.983862 -1.746152 -2.577584
8 0.923907 -1.460970 -1.656560
1 -0.038315 -1.817764 -1.068031
1 1.798204 -1.629087 -1.158088
8 2.622539 -3.718144 1.864118
1 0.744215 -3.898376 1.613813
8 -0.199339 -3.802803 1.396341
1 -0.665473 -4.607098 1.650417
 
FREQUENCIES 42
44.6374
64.0883
73.9112
104.5367
105.9884
194.1368
231.6118
253.2598
268.7143
287.3303
324.7680
346.7330
360.5995
437.0237
461.1527
508.7085
574.4257
607.0764
645.0312
657.4884
677.8774
695.9145
958.5035
1055.1065
1134.0811
1486.3293
1577.9323
1630.1697
1630.6113
1651.0465
1750.9324
1776.9179
2827.9332
2910.0950
3699.6742
3728.5080
3827.2118
3892.5441
3897.3852
3925.9406
3938.4840
3943.3892
 
SYMMETRY C1
ELECTRONIC_STATE 1-A
