16
Energy = -382.531732612
1 4.032200 -1.133634 -2.073054
1 3.972739 -1.443342 -0.535162
1 0.071508 -2.689565 0.656268
8 3.856405 -0.730515 -1.212286
1 0.793392 -2.937211 -0.701300
1 2.715636 -2.829192 0.674223
8 0.898065 -2.488123 0.178674
1 4.065684 -2.811414 1.477752
1 0.959222 -0.330689 -1.831431
8 1.453652 -0.129242 -0.933575
1 1.151269 -0.869285 -0.333743
1 2.482492 -0.298873 -1.080814
8 3.673445 -2.657928 0.612617
1 -0.662648 -0.872265 -2.976142
8 0.310038 -0.877260 -3.034786
1 0.552000 -1.832684 -3.040952
 
FREQUENCIES 42
41.0059
66.8629
79.4553
103.2283
145.0006
181.1674
209.5688
221.0756
253.1671
291.1563
351.3233
373.5121
388.2562
408.2255
464.4148
483.4611
526.2781
571.7404
583.1334
620.6489
783.3419
803.5566
992.3096
1078.1581
1446.4056
1535.3667
1585.0007
1625.3643
1654.1596
1748.8442
1805.7557
2276.1448
2514.8764
3140.7326
3259.5322
3375.6590
3435.4212
3657.4937
3691.0659
3701.7934
3884.2255
3955.5969
 
SYMMETRY C1
ELECTRONIC_STATE 2-A
