16
Energy = -382.530014836
1 2.999061 -2.807454 0.175911
1 3.661087 -1.494357 -0.283857
1 -0.308745 -1.392046 0.966554
8 3.220439 -2.286597 -0.623947
1 -0.597139 -2.922764 0.529945
1 1.820045 -2.439780 2.006362
8 -0.675225 -1.933287 0.219449
1 2.708432 -3.592495 2.572790
1 0.780291 -1.959554 -2.502312
8 0.926120 -1.619164 -1.612194
1 -0.011141 -1.790771 -0.616703
1 1.849130 -1.878991 -1.294447
8 2.184292 -3.341695 1.789651
1 0.638126 -4.190878 1.395837
8 -0.280859 -4.274518 1.049799
1 -0.325147 -5.053532 0.481541
 
FREQUENCIES 42
58.2959
75.4122
82.0532
98.3082
175.8884
198.6489
242.5372
247.1828
260.9840
304.4620
337.7394
358.8431
392.7853
418.1241
441.5718
447.1896
518.8357
567.1423
643.9321
737.1963
784.8337
800.5496
998.1074
1112.0878
1446.0071
1524.0296
1612.7504
1624.7027
1663.5705
1705.4709
1731.7106
2026.3247
2525.0974
2973.5496
3121.6791
3281.0706
3477.6630
3613.1883
3694.3615
3842.7795
3891.1757
3913.8158
 
SYMMETRY C1
ELECTRONIC_STATE 2-A
