16
Energy = -382.410903308
1 3.351800 -3.428339 -1.000393
1 3.969687 -2.191664 -0.213735
1 -1.374740 -1.962222 0.697725
8 3.254735 -2.485064 -0.831544
1 -1.586944 -2.897060 -0.530801
1 5.198318 -1.804955 1.776101
8 -0.948664 -2.326643 -0.087127
1 6.036899 -1.363641 0.544374
1 1.050769 -0.769139 -1.938048
8 1.164127 -1.249319 -1.060341
1 0.322078 -1.680743 -0.718409
1 2.057725 -1.816382 -0.955237
8 5.191185 -1.738185 0.814877
1 0.822347 1.006430 -3.260456
8 0.824643 0.041987 -3.246212
1 0.991134 -0.266281 -4.144483
 
FREQUENCIES 42
27.3805
46.2955
60.9648
77.5953
92.7793
164.0180
184.4354
208.4016
216.6738
229.8789
243.4984
271.6323
277.4001
292.3758
315.9571
325.3120
366.6617
390.6914
470.0433
541.9334
753.1098
869.5331
982.9029
1054.6271
1293.0333
1614.2432
1624.7857
1634.5034
1638.9846
1675.6982
1702.3177
2265.3109
3025.6204
3075.1105
3363.8668
3858.4365
3859.3283
3877.0410
3939.3677
3969.2412
3970.3250
3990.4259
 
SYMMETRY C1
ELECTRONIC_STATE 1-A
