16
Energy = -382.532995716
1 2.970086 -2.084527 -0.044197
1 3.708338 -0.862040 0.645544
1 -0.608733 -2.382566 1.714520
8 3.081247 -1.109148 -0.043349
1 0.341242 -3.009759 0.610194
1 2.268317 -4.531681 -0.075493
8 -0.312374 -2.302805 0.800963
1 1.664245 -3.578989 -1.147063
1 0.569128 -0.710024 -1.494132
8 0.696854 -0.373100 -0.504985
1 0.197293 -1.038022 0.085621
1 1.682654 -0.517898 -0.283275
8 1.920416 -3.627779 -0.186824
1 1.355241 -1.672344 -3.054304
8 0.467018 -1.343909 -2.800651
1 -0.053606 -2.168896 -2.703094
 
FREQUENCIES 42
73.4683
74.7790
107.9609
115.8038
174.3081
196.4182
221.5892
227.0757
277.6174
299.8688
308.0501
352.9672
366.5946
392.7266
448.7112
522.1848
534.4654
564.9752
610.5531
623.1326
707.7941
826.4225
992.5290
1024.2102
1478.5539
1540.3343
1597.8471
1617.9034
1622.8866
1745.3968
1806.4037
2301.3834
2767.7454
2948.8492
3166.7879
3556.5910
3560.0513
3594.9151
3615.3127
3680.4058
3921.6055
3924.2560
 
SYMMETRY C1
ELECTRONIC_STATE 2-A
