21
Energy =   -875.143438484     
    N    1.381110   -1.896094   -0.336494
    H    2.130975   -2.507260   -0.031901
    C    1.194601   -0.779739    0.589966
    H    1.267529   -1.185622    1.614127
    C    2.214330    0.358939    0.479638
    C   -0.214890   -0.270958    0.403009
    H    1.970718    1.143164    1.198913
    H    3.216344   -0.017437    0.702999
    S    2.335477    1.079637   -1.194530
    O   -0.556911    0.694061    1.272402
    H   -3.242404    2.451909    0.533566
    O   -1.145805   -1.283310    0.249721
    H   -0.632436   -2.027485   -0.124915
    H    1.623370   -1.536722   -1.259303
    H   -1.481424    1.013408    1.127294
    O   -3.059377    1.549418    0.808950
    H   -3.480915    0.944125    0.165996
    H   -2.781151   -0.945605   -0.521079
    O   -3.620560   -0.545354   -0.816894
    H   -3.642152   -0.609273   -1.775897
    H    1.068260    1.521606   -1.240430

FREQUENCIES 57
27.0607
38.3658
66.2855
90.6668
114.8405
167.0464
173.5264
218.6252
232.0850
251.5632
266.3070
283.0805
308.3987
338.8498
355.0857
382.8653
428.7550
500.7364
526.0747
548.6719
604.2487
654.2291
696.7926
703.0108
799.9659
808.9724
841.3659
867.9589
916.1040
978.6526
1071.0802
1122.5413
1163.0551
1181.1279
1248.9501
1279.5469
1304.9725
1337.6568
1394.3441
1408.6971
1472.0874
1514.3508
1628.4713
1654.7649
1656.1291
2736.0173
3004.1434
3104.0223
3167.8371
3344.0076
3515.9677
3603.3869
3627.0532
3639.3387
3677.1341
3962.5713
3969.8996

SYMMETRY C1
ELECTRONIC_STATE 2-A
