21
Energy =   -874.977109650     
    C   -0.629877    0.594393    0.659837
    C   -0.060022   -0.819082    0.600209
    N    0.560955    1.488613    0.823032
    O    1.090381   -1.064031    0.881395
    O   -0.960876   -1.711528    0.227838
    H   -1.257620    0.677136    1.553780
    H    0.281370    2.447884    1.035370
    H    1.171562    1.142015    1.570635
    H   -2.980302   -0.801557   -0.735036
    C   -1.436628    1.000915   -0.582527
    S   -3.183981    0.505912   -0.522085
    H   -0.947694    0.643947   -1.492083
    H   -1.468623    2.094161   -0.633801
    O    1.781238    0.935154   -1.387878
    H    2.536636    0.333434   -1.167811
    H    2.024412    1.469725   -2.152603
    O    3.595312   -0.668610   -0.332821
    H    3.154455   -1.339606    0.203723
    H    4.464779   -1.003465   -0.577996
    H    1.137733    1.443612   -0.096418
    H   -0.567519   -2.601506    0.234869

FREQUENCIES 57
20.3876
43.9228
58.6915
87.0955
107.4257
147.7461
199.3165
229.3107
275.4879
283.7569
306.0962
329.8512
338.0454
340.8657
360.1139
389.2588
409.3326
473.1200
511.5158
590.4309
653.1760
679.1343
735.6709
745.9482
792.4934
810.4370
880.4103
977.6870
1001.1627
1093.8542
1135.5668
1175.4896
1227.1196
1236.9697
1313.4515
1351.1955
1354.2462
1462.4121
1488.3886
1551.6075
1602.9723
1614.1098
1683.9386
1727.8777
1874.9313
2429.7756
2774.4188
3094.4327
3122.2025
3162.6065
3351.7239
3450.3708
3541.8822
3797.5946
3854.9370
3923.5433
3975.5660

SYMMETRY C1
ELECTRONIC_STATE 1-A
