21
Energy =   -875.122470425     
    C   -0.570773    0.543759    0.566708
    C    0.126593   -0.811235    0.462991
    N    0.583144    1.486618    0.756945
    O    1.201156   -0.956303    1.187066
    O   -0.809069   -1.842459    0.484556
    H   -1.188791    0.607406    1.478318
    H    0.302552    2.384818    1.144824
    H    1.220273    0.966378    1.390858
    H   -2.554263   -1.095839   -0.734539
    C   -1.384155    0.962310   -0.652876
    S   -3.018736    0.164052   -0.738128
    H   -0.805509    0.764130   -1.559961
    H   -1.607547    2.034325   -0.612232
    O    2.041295    1.364468   -1.484460
    H    2.513114    0.510041   -1.239714
    H    2.699384    1.968718   -1.841149
    O    3.127776   -0.767416   -0.484127
    H    2.425129   -0.950219    0.226519
    H    3.240512   -1.581310   -0.983792
    H    1.119197    1.607041   -0.152880
    H   -0.355591   -2.591768    0.894702

FREQUENCIES 57
33.8244
57.9829
77.1211
108.0432
130.0187
171.6764
208.4847
255.2882
283.1030
297.8349
308.4553
327.3921
346.4989
350.5549
363.1821
375.5249
432.5925
472.0283
549.6955
576.3380
601.1950
618.3155
739.9730
800.5216
864.8198
971.7296
1009.6157
1018.5837
1070.8937
1091.3154
1106.3641
1135.7223
1158.7690
1237.3104
1271.5053
1311.7835
1359.6534
1379.5454
1449.3804
1475.4020
1500.7382
1620.2781
1648.3230
1674.0981
1732.3871
2722.1261
2735.3010
2852.3252
3021.2934
3075.1890
3089.9327
3138.8642
3263.4837
3569.9105
3858.5478
3954.8619
3957.0990

SYMMETRY C1
ELECTRONIC_STATE 2-A
