18
Energy =   -458.464580389     
    O    0.755826    0.354683   -1.606884
    H    0.297358   -0.495777   -1.498314
    H    1.647665    0.225280   -1.231178
    O    0.601244   -0.432378    1.601281
    H    0.176859    0.419884    1.408723
    H    0.140920   -1.073713    1.035101
    O    2.859587    0.021105    0.139228
    H    2.215328   -0.214542    0.839770
    H    3.693045   -0.415195    0.332248
    O   -0.865053   -1.722139   -0.524939
    H   -1.692215   -1.221728   -0.336860
    H   -1.111047   -2.602555   -0.823526
    O   -2.744113    0.064903    0.180743
    H   -3.131193    0.021314    1.060440
    H   -2.135214    0.833281    0.175799
    O   -0.599208    1.741733    0.139548
    H   -0.054435    1.340091   -0.600291
    H   -0.505313    2.697774    0.092421

FREQUENCIES 48
50.2558
58.9807
81.8059
112.2266
152.7051
181.5280
213.0471
221.4536
231.9210
238.3375
245.9014
254.4400
269.3846
295.8389
301.8585
327.2749
402.3903
417.3741
450.0011
486.9590
492.5469
562.1867
583.8355
682.2225
737.2566
788.1639
839.4067
854.7726
928.1145
1083.5515
1618.7561
1634.9341
1654.6287
1672.7840
1686.7277
1711.1573
3090.6867
3449.4726
3544.7858
3573.2301
3686.0276
3740.4020
3779.4389
3821.0162
3950.8432
3954.4709
3963.4507
3982.4910

SYMMETRY C1
ELECTRONIC_STATE 1-A
