18
Energy =   -458.466401110     
    O    1.494538   -0.398172    1.413401
    H    0.542292   -0.693803    1.527808
    H    1.990592   -0.679380    2.187676
    O    0.706601    1.856138   -0.105386
    H    1.084055    1.374049    0.649723
    H    1.087399    1.400415   -0.871456
    O    1.699807   -0.513482   -1.313058
    H    2.407401   -0.936137   -1.808670
    H    1.849996   -0.686997   -0.361447
    O   -1.912752    1.232241   -0.044365
    H   -1.009912    1.626903   -0.073668
    H   -2.551215    1.949600   -0.093082
    O   -1.093862   -1.198970   -1.352853
    H   -0.167754   -0.999034   -1.565404
    H   -1.546427   -0.343131   -1.291717
    O   -1.024627   -1.049235    1.400156
    H   -1.101853   -1.417516    0.495297
    H   -1.539173   -0.228622    1.330438

FREQUENCIES 48
65.9445
73.8102
77.0731
140.0711
158.9242
173.5829
199.4266
206.8610
222.9753
229.3302
251.7677
271.3678
296.1479
305.9690
339.8810
362.5768
382.5549
437.3597
452.6866
491.4015
528.2164
570.9434
595.8191
663.5147
671.7876
733.4681
769.4370
907.0336
954.8290
1127.7137
1619.3825
1630.4045
1652.8164
1670.1931
1704.3681
1725.8534
3070.7878
3431.1121
3591.7336
3606.6572
3755.3231
3767.1776
3806.7987
3839.6988
3852.5163
3959.0697
3961.8795
3965.5662

SYMMETRY C1
ELECTRONIC_STATE 1-A
