18
Energy =   -458.118845003     
    O    0.762052   -0.035936   -1.137133
    H   -0.159628   -1.169597   -0.990832
    H    1.743303   -0.146119   -0.839049
    O    0.654939   -0.188438    1.336306
    H    0.238652    0.676808    1.469427
    H    0.352773   -0.763526    2.049074
    O    3.040594   -0.137089   -0.065411
    H    2.814459   -0.258794    0.867254
    H    3.913923   -0.502996   -0.243069
    O   -0.988950   -1.757879   -0.759004
    H   -1.752876   -1.078751   -0.389832
    H   -1.283955   -2.284288   -1.516396
    O   -2.548618   -0.067615    0.002580
    H   -3.277523   -0.164437    0.626453
    H   -2.073053    0.785663    0.140361
    O   -0.777014    1.950455    0.179388
    H   -0.175383    1.782265   -0.564188
    H   -0.933652    2.902294    0.217382

FREQUENCIES 48
52.2608
59.3880
72.9567
93.8389
137.8231
140.7030
178.5915
189.2298
198.0294
224.2888
244.1827
273.6161
293.7481
334.1565
368.6762
399.9725
429.9510
445.2128
468.0910
486.7806
500.5105
544.8004
592.2525
638.0914
668.7634
780.1688
904.9398
1027.8615
1116.8854
1304.4470
1506.8126
1585.3685
1615.7006
1624.0083
1635.3937
1796.3613
2036.2701
2522.6052
2801.4965
3437.4993
3782.0425
3809.6404
3840.8615
3867.0234
3927.6051
3930.8728
3950.5677
3972.8172

SYMMETRY C1
ELECTRONIC_STATE 2-A
