19
Energy = -458.940943520
1 3.660479 -2.095756 0.236417
1 3.331675 -2.618941 -1.160344
1 -2.043753 -2.539738 -0.322915
8 2.995927 -2.635612 -0.244253
1 -1.508377 -3.113369 -1.663095
1 4.384248 0.231106 0.169429
8 -1.360598 -2.436661 -0.994063
1 5.762109 -0.462258 0.393277
1 1.276178 -0.442106 -1.004703
8 0.965302 -1.228784 -0.350063
1 0.133597 -1.676482 -0.627944
1 1.787907 -1.888754 -0.251660
8 4.863586 -0.625103 0.051335
1 2.599056 0.013055 -2.317876
8 1.857675 0.483842 -1.874945
1 2.292321 1.193118 -1.357079
1 4.576733 -0.887208 -1.817802
8 3.987502 -1.253519 -2.514634
1 4.500846 -1.267648 -3.333468
 
FREQUENCIES 51
32.8543
49.6088
73.3896
97.3605
103.7364
139.9201
155.2470
159.4943
193.3460
196.6390
219.7974
237.1472
265.4076
286.7234
306.4056
323.9405
359.8606
387.1184
430.2191
435.6757
451.8739
496.4583
558.9419
619.0036
689.7202
745.8160
823.1832
861.8727
913.2310
1166.9303
1424.4494
1538.7855
1575.0826
1588.2194
1623.2024
1642.8703
1695.8423
1767.5441
2056.7871
2380.8749
3318.8939
3465.0423
3512.8670
3558.8105
3581.6742
3608.0950
3685.4369
3714.8930
3867.9772
3876.0129
3995.8614
 
SYMMETRY C1
ELECTRONIC_STATE 2-A
