19
Energy = -458.951604163
1 -0.327450 1.545331 -0.199728
1 -0.664645 2.642171 0.884213
1 1.939173 -1.615854 0.806231
8 -0.934169 1.779739 0.542552
1 1.095809 -0.903221 -0.331468
1 1.064339 0.887100 -2.084727
8 1.050845 -1.498859 0.450525
1 -0.259060 0.076917 -1.914443
1 -1.826419 -1.062610 0.956836
8 -1.033106 -0.667255 1.597949
1 -0.144469 -1.045746 1.249633
1 -0.999066 0.310781 1.420499
8 0.509742 0.450740 -1.406366
1 -3.091922 -0.593644 -0.367648
8 -2.777094 -1.440637 0.068229
1 -2.374491 -1.965425 -0.643190
1 -2.643242 1.482453 -0.495139
8 -3.286501 0.926997 -0.971189
1 -2.973091 0.923829 -1.891229
 
FREQUENCIES 51
54.5496
68.3750
86.6495
89.1994
109.5869
140.8818
165.6191
174.8734
218.1498
229.8915
241.2649
288.6838
306.5103
335.9833
348.6230
373.3969
394.6681
466.5106
471.5563
506.5377
533.0536
548.3562
635.4908
671.6138
684.8760
769.3408
836.5799
854.0658
1035.5899
1076.2674
1453.9254
1521.4837
1586.7711
1612.2063
1638.4769
1690.3186
1753.3746
1823.3894
1843.0922
2742.2151
3121.5331
3165.1427
3287.1379
3456.0996
3513.4190
3616.8264
3711.1099
3777.7213
3785.2173
3880.6686
3912.0764
 
SYMMETRY C1
ELECTRONIC_STATE 2-A
