19
Energy = -458.828356892
1 0.478176 -1.700258 -0.824301
1 -0.351725 -3.031225 -1.439063
1 -2.689190 1.524695 0.745526
8 -0.198306 -2.493255 -0.651106
1 -1.183275 1.418535 0.307870
1 3.638731 1.458529 0.447240
8 -1.932761 0.930208 0.694317
1 2.838493 1.075553 1.705978
1 -2.447458 -2.042668 1.279399
8 -2.153141 -1.630834 0.458072
1 -2.125587 -0.632288 0.568101
1 -1.122635 -2.145407 -0.142932
8 2.768898 1.162378 0.746384
1 1.181145 2.104801 0.028980
8 0.386023 1.999248 -0.523311
1 0.322210 2.775996 -1.092762
1 2.010341 -0.400973 -0.346116
8 1.302786 -0.578596 -0.987369
1 0.870647 0.285370 -1.127775
 
FREQUENCIES 51
40.4235
45.2229
61.9048
70.0857
104.4633
118.4622
162.7870
211.6806
220.5997
231.2922
246.9760
283.0478
315.9573
333.9604
365.2092
419.6813
440.2145
453.0892
466.1674
511.5567
533.8618
537.7021
586.6632
613.7705
645.6207
673.3954
727.2265
773.0559
989.1546
1246.4608
1388.4735
1440.3147
1622.5931
1634.9752
1641.2603
1656.4578
1689.9664
1786.4857
1871.0753
2383.6996
3078.9775
3672.4125
3687.4265
3737.7946
3817.8737
3848.7502
3890.0927
3919.8032
3928.6898
3945.4463
3946.9679
 
SYMMETRY C1
ELECTRONIC_STATE 1-A
