19
Energy = -458.950176944
1 0.497087 -1.755802 -1.177736
1 -0.596115 -2.885167 -1.550059
1 -2.270805 1.507943 1.067633
8 -0.174468 -2.416244 -0.822313
1 -1.282288 1.395576 -0.131634
1 2.653990 0.968352 1.647184
8 -2.072628 0.977952 0.281712
1 1.276061 0.246253 1.535268
1 -0.622221 -1.099784 1.694226
8 -1.354816 -1.316366 1.041106
1 -1.694872 -0.388917 0.712559
1 -0.898775 -1.833967 0.230880
8 1.967836 0.724921 1.005514
1 0.935068 1.804105 -0.027503
8 0.292524 1.965465 -0.754996
1 0.418643 2.869372 -1.066898
1 2.002993 -0.388030 -0.687369
8 1.500181 -0.563210 -1.503808
1 1.015977 0.267356 -1.646633
 
FREQUENCIES 51
54.8799
71.5068
76.1464
99.2500
133.5418
151.4881
157.8409
204.1855
228.6289
264.7246
284.7211
298.7989
325.5206
341.3170
359.1025
376.4068
423.1023
424.8321
462.4017
483.2891
511.6857
539.3920
562.2511
615.6313
718.6654
743.0139
800.9796
864.5383
1011.2769
1132.6917
1426.5081
1552.9045
1617.0863
1638.5313
1644.6943
1677.5449
1697.4092
1739.3473
2149.3378
2462.4887
2991.2289
3053.9757
3185.9267
3470.2382
3533.4385
3716.1026
3781.5116
3805.3801
3840.3564
3910.3253
3938.2632
 
SYMMETRY C1
ELECTRONIC_STATE 2-A
