19
Energy = -458.830729033
1 3.611123 -2.078273 0.216316
1 3.358607 -2.220065 -1.292175
1 -2.124271 -2.497825 -0.103521
8 2.955113 -2.398731 -0.424240
1 -1.628827 -3.232382 -1.387781
1 5.307976 -0.152849 0.901784
8 -1.424597 -2.524131 -0.766609
1 6.118540 -1.381298 0.451630
1 0.963443 -0.557226 -1.203970
8 0.766688 -1.239271 -0.465548
1 -0.077195 -1.773009 -0.607039
1 1.636943 -1.806270 -0.362828
8 5.300514 -0.895237 0.283817
1 2.566467 0.130355 -2.406523
8 1.609554 0.275198 -2.275137
1 1.388911 1.190670 -2.477856
1 4.818671 -0.542483 -1.600453
8 4.200390 -0.742756 -2.325052
1 4.714364 -0.805235 -3.139202
 
FREQUENCIES 51
38.5705
50.0226
63.5089
78.9189
91.2416
131.8142
158.7478
197.6686
216.3885
229.4350
237.2431
248.7001
269.6121
277.6295
305.3408
319.8475
346.0200
382.1188
415.9736
424.2475
439.7429
490.6426
518.4523
618.8432
670.8420
713.3321
787.4411
792.3504
968.6024
1064.6837
1333.4162
1601.0774
1618.6451
1637.1268
1640.1448
1646.6518
1695.9539
1796.5865
2498.5993
2804.7871
3028.5093
3652.2605
3730.6403
3754.6388
3817.1743
3847.7866
3870.1160
3927.9482
3946.5787
3948.6815
3982.2720
 
SYMMETRY C1
ELECTRONIC_STATE 1-A
