19
Energy = -458.831018212
1 1.510895 1.400619 -0.039933
1 0.682401 2.709836 0.252090
1 0.624125 -2.640639 0.616879
8 0.628424 1.807695 -0.082054
1 1.488683 -1.399183 0.167990
1 3.517267 0.025022 0.588011
8 0.595582 -1.783836 0.177179
1 3.261471 -0.086304 -0.930063
1 -2.002435 0.003449 -0.272773
8 -1.154907 0.047257 0.346407
1 -0.562820 -0.774745 0.303331
1 -0.551874 0.845325 0.187663
8 2.815482 -0.018488 -0.074971
1 -4.087332 -0.037288 -0.673053
8 -3.175165 -0.094080 -1.043530
1 -3.212648 0.024553 -1.997991
1 -6.243671 -0.698703 0.066630
8 -5.666522 0.055217 -0.097081
1 -6.141772 0.847099 0.176809
 
FREQUENCIES 51
27.7387
30.9048
46.6008
66.8821
74.1851
94.2886
159.6620
194.6773
205.6650
210.1944
230.6054
247.0635
256.4236
258.2157
280.6804
301.2649
304.7620
312.0939
324.5976
432.6629
439.5978
537.0020
538.9973
554.9839
654.0116
689.3664
788.7432
840.5571
928.0493
1028.3676
1332.3251
1616.8040
1625.9822
1632.2592
1634.3809
1649.4935
1668.9867
1798.5946
2409.9346
2913.9503
3033.2023
3427.9839
3718.6528
3740.4783
3833.8225
3873.0677
3936.6237
3947.0515
3951.0076
3952.5287
3986.8445
 
SYMMETRY C1
ELECTRONIC_STATE 1-A
