24
Energy =   -951.515137986     
    C    1.066549   -0.684929    0.541323
    C    2.305096   -0.293575   -0.242615
    N    0.764087    0.465807    1.439847
    O    3.087035    0.548656    0.130041
    O    2.468875   -1.027733   -1.348843
    H    1.334596   -1.534142    1.189363
    H    1.550838    0.655117    2.080921
    H    0.590005    1.319193    0.847604
    H    3.295195   -0.745029   -1.771041
    C   -0.136687   -1.072088   -0.317725
    S   -1.410468   -2.012215    0.588022
    H    0.209615   -1.740922   -1.107463
    H   -0.564308   -0.185094   -0.794503
    O   -3.253050   -0.304361   -1.463473
    H   -2.961555   -1.058513   -0.920877
    H   -4.136233   -0.508651   -1.786508
    O   -2.416194    1.969200   -0.111872
    H   -2.484978    1.703776    0.818934
    H   -2.816702    1.240286   -0.627097
    H   -0.099497    0.285667    2.026988
    H    0.507166    3.120829   -0.732879
    O    0.179235    2.239089   -0.529147
    H   -0.811414    2.277234   -0.477148
    H   -1.652541   -0.988384    1.517915

FREQUENCIES 66
27.3417
41.6393
46.3115
61.0546
66.4993
79.4566
124.4709
146.7677
187.7584
202.4487
218.9536
254.5638
269.0522
283.2423
310.7050
320.8108
337.1795
352.1174
369.9108
398.8794
404.4643
474.3072
486.7937
553.9811
568.6620
597.0338
634.5816
712.5566
759.3122
784.5674
803.2433
872.5066
926.3214
965.0384
974.7866
1074.1963
1121.1190
1170.6627
1206.9423
1261.0934
1282.0139
1341.2855
1369.6087
1412.6955
1435.8307
1469.6042
1520.2621
1608.8772
1624.4831
1651.7101
1660.1949
1850.9020
1875.4281
2625.3482
2946.9257
3035.3400
3115.6928
3182.0147
3272.7123
3309.7858
3603.2602
3689.4665
3792.0766
3818.1429
3945.3079
3955.4966

SYMMETRY C1
ELECTRONIC_STATE 2-A
