24
Energy =   -951.551918921     
    C   -0.522518   -0.834258   -0.184986
    C    0.644504   -0.627074   -1.107883
    N   -0.252803   -0.152622    1.154081
    O    1.602707   -1.650682   -0.947183
    O    1.101757    0.584595   -1.272426
    H   -0.643050   -1.896265    0.043203
    H   -0.177632    0.869827    0.992266
    H   -1.033251   -0.311795    1.795607
    C   -1.795285   -0.263618   -0.828645
    S   -3.153275    0.151257    0.324108
    H   -2.182780   -1.009668   -1.523919
    H   -1.552193    0.631068   -1.402762
    H   -2.732373    1.408669    0.547060
    H    0.655101   -0.519083    1.552447
    H    2.706125   -0.303011    1.542812
    O    2.205708   -1.111760    1.777955
    H    2.273111   -1.658174    0.977266
    H   -0.033161    3.206169    0.070961
    O   -0.437074    2.348457   -0.091832
    H    0.168231    1.842987   -0.705864
    O    2.899925    1.209908    0.536855
    H    2.315694    1.009259   -0.248108
    H    3.697966    1.636975    0.213548
    H    2.302986   -1.459067   -1.584118

FREQUENCIES 66
45.6852
51.6852
81.2338
88.2755
140.3378
163.3462
170.6577
191.9241
192.3262
235.6596
254.0659
271.8402
282.4871
301.7387
303.8248
322.8786
355.7218
376.4257
417.9936
429.6144
455.6527
515.2109
539.1695
550.0482
612.3778
641.5491
699.3649
742.2585
776.9368
843.8199
852.6737
868.2046
903.6769
972.7581
1001.4299
1051.9305
1108.6234
1129.9917
1170.8958
1245.8629
1281.5949
1287.8040
1382.4132
1402.1275
1466.3006
1475.5881
1557.9371
1632.6372
1655.3512
1678.9873
1698.8794
1705.4268
2753.5081
2859.5484
3099.5382
3127.8093
3146.1699
3167.1685
3192.9267
3260.3316
3494.4612
3612.0497
3791.6889
3872.1573
3955.2850
3962.2813

SYMMETRY C1
ELECTRONIC_STATE 2-A
