27
Energy =   -1027.93810739     
    C   -1.079113   -1.364631    0.018692
    C    0.405443   -1.060688   -0.153998
    O    1.175850   -1.237211    0.788497
    O    0.717356   -0.705514   -1.357414
    N   -1.379662   -1.253001    1.481558
    H   -1.234619   -2.417837   -0.242448
    H   -0.626005   -1.696836    2.029004
    H   -1.406268   -0.219548    1.792607
    H    1.721349   -0.350770   -1.427765
    O   -0.703379    2.442147    0.430025
    H   -1.103061    3.320743    0.477397
    H   -0.986825    1.972436    1.239411
    H    2.662546    1.216698   -1.058121
    O    2.935575    0.350210   -1.469220
    H    3.582484    0.003155   -0.835241
    O    3.515932    0.152751    1.278628
    H    4.051620   -0.077096    2.043543
    H    2.744978   -0.445177    1.267090
    H    2.472792    1.901146    0.867133
    O    2.100693    2.314626    0.073186
    H    1.136179    2.382720    0.203598
    C   -1.986587   -0.473099   -0.828984
    H   -1.876913   -0.775800   -1.871699
    H   -1.679255    0.572132   -0.747921
    S   -3.753759   -0.626367   -0.413029
    H   -3.727364    0.285771    0.587893
    H   -2.290751   -1.674932    1.720172

FREQUENCIES 75
25.5251
42.5057
50.7279
71.7851
78.3160
87.1530
112.1065
132.5038
141.7519
163.7249
185.5863
195.2913
209.8939
247.9100
252.8115
267.5941
307.5789
314.5341
323.0533
339.3479
351.4410
358.8257
371.9475
412.7791
441.4364
480.2098
535.9180
548.8447
603.3632
612.2272
693.6719
723.1759
739.6217
749.0232
773.5509
827.3493
856.8723
925.6814
948.7724
964.2099
1085.1951
1092.4415
1153.3643
1259.4836
1279.6975
1328.4247
1367.0148
1370.8448
1395.4062
1420.2245
1472.0579
1506.9709
1536.8709
1550.7211
1594.4556
1615.6544
1651.7123
1735.1469
1751.7020
2173.3524
2321.5166
2553.1598
3104.1078
3124.5060
3188.4343
3242.1808
3287.0130
3378.9175
3551.5440
3659.0397
3674.3794
3833.0459
3848.6183
3882.9358
3963.9864

SYMMETRY C1
ELECTRONIC_STATE 2-A
