27
Energy =   -1027.93519093     
    C    0.330791    0.061555   -0.344467
    C    1.725135   -0.155241   -0.922397
    O    2.347159   -1.246850   -0.513559
    O    2.206265    0.629937   -1.705868
    N    0.007387    1.493390   -0.557393
    H    0.359942   -0.082898    0.743821
    H   -1.004583    1.671492   -0.379882
    H    0.581350    2.031399    0.122701
    H    0.270798    1.747018   -1.516204
    O   -1.919980   -0.163603    2.076618
    O    0.915423   -2.311548    1.510222
    H   -2.350156   -0.795324    2.674793
    H    1.244919   -3.079730    1.993678
    H   -1.135181    0.172451    2.575111
    H    0.627235   -1.667236    2.190284
    H    1.053855    1.585966    2.388039
    O    1.526703    2.073845    1.681680
    H    2.467243    1.891282    1.817815
    C   -0.731945   -0.878004   -0.922002
    H   -1.577525   -0.920575   -0.232388
    H   -0.310346   -1.883765   -0.978482
    S   -1.323715   -0.426545   -2.588097
    H    1.869949   -1.686410    0.235505
    H   -3.313097    2.163507    0.227246
    O   -2.693971    1.445833    0.057370
    H   -2.615051    0.924050    0.889251
    H   -2.319889    0.361626   -2.149358

FREQUENCIES 75
30.1931
45.2669
55.5106
70.6546
89.0273
91.0964
94.5938
102.9531
109.1710
136.6613
167.2957
174.8927
197.3227
204.7059
235.9689
242.9445
252.5750
266.2713
281.5877
305.4683
312.1129
353.6141
362.6730
378.7318
402.3160
415.0219
443.0576
445.7998
481.3007
513.1320
514.4800
567.1186
639.0498
720.6278
756.7646
799.3813
825.5209
839.0129
891.9859
970.1005
1050.5591
1113.2694
1158.5904
1194.4224
1241.6459
1299.3276
1327.2725
1367.4616
1436.7170
1464.7223
1482.7154
1527.9682
1556.1766
1585.8452
1609.9488
1624.2799
1648.8405
1691.3118
1875.2296
2742.7821
3048.2394
3108.9346
3127.6817
3184.0477
3199.8281
3266.0098
3307.1425
3464.6600
3476.9303
3539.0120
3562.1327
3769.3410
3851.0231
3895.5439
3941.7109

SYMMETRY C1
ELECTRONIC_STATE 2-A
