27
Energy =   -1027.82233970     
    C    0.694652    0.574932   -0.070774
    C    1.079569    2.052406   -0.035250
    N    0.534885    0.138792    1.347395
    O    1.305301    2.644562    0.990518
    O    1.148789    2.571698   -1.253985
    H    1.532163    0.013883   -0.504731
    H    0.965378    0.852543    1.950993
    H   -0.470472    0.046660    1.614949
    H    1.425828    3.501704   -1.192642
    C   -0.569925    0.334918   -0.894467
    S   -0.988547   -1.422648   -1.147797
    H   -0.403857    0.738245   -1.895443
    H   -1.430094    0.857851   -0.465009
    O   -3.754520    0.242894   -0.251469
    H   -3.777426   -0.437643   -0.936444
    H   -4.592457    0.717916   -0.296649
    O   -2.142903   -0.376196    1.862187
    H   -2.539520   -0.593873    2.712690
    H   -2.865208   -0.136355    1.245598
    H    1.016470   -0.786510    1.490624
    H    2.293678   -2.770993    1.927964
    O    1.836363   -2.200339    1.302150
    H    2.178980   -2.367336    0.402249
    O    2.259495   -2.053793   -1.372236
    H    1.405047   -2.301461   -1.754210
    H    2.948628   -2.361006   -1.972765
    H   -1.267643   -1.717969    0.134087

FREQUENCIES 75
31.2467
45.8430
54.1825
61.6360
68.0297
85.8923
98.2734
114.1809
131.6451
147.8111
188.9010
202.4443
223.7807
242.3034
257.2361
266.2473
271.7244
276.6450
286.3650
300.1125
343.0085
345.3986
367.8785
383.2831
392.8687
408.5478
426.1623
470.2356
507.5981
563.0596
582.2695
593.2717
658.6472
710.1180
734.4869
761.5933
770.3829
809.0626
915.2650
960.5117
1043.4399
1133.2762
1189.9130
1204.8211
1217.3939
1277.3440
1309.1415
1361.1169
1394.8323
1454.5216
1475.0475
1599.3439
1603.1485
1613.1343
1639.1938
1654.4551
1683.3414
1694.5828
1882.1593
2704.3162
2940.2731
3102.5548
3108.2836
3114.6296
3177.1934
3411.3318
3585.9522
3617.4695
3796.5512
3809.8205
3845.4246
3941.8088
3946.5184
3953.7975
3962.0470

SYMMETRY C1
ELECTRONIC_STATE 1-A
