27
Energy =   -1027.80568929     
    C   -1.400676   -0.778567   -0.751138
    C   -0.027394   -1.426971   -0.496493
    N   -2.255093   -1.175247    0.406382
    O    0.993992   -1.014545   -1.233898
    O    0.036395   -2.390072    0.221030
    H   -1.775439   -1.314065   -1.633269
    H   -1.836277   -0.829116    1.366532
    H   -3.212248   -0.832452    0.305417
    C   -1.500572    0.714090   -1.077376
    S   -1.479759    1.808878    0.390198
    H   -2.441665    0.882049   -1.605464
    H   -0.694877    0.977796   -1.766714
    H    1.037618   -0.042511   -1.403356
    H   -2.257871   -2.197752    0.479763
    O    1.022389    0.391221    1.368035
    H    1.908126    0.011210    1.233201
    H    1.054145    1.285441    0.998916
    O   -1.097274   -0.587471    2.638147
    H   -1.460593   -0.103327    3.388267
    H   -0.217935   -0.207028    2.413289
    O    3.381631   -0.469394    0.088121
    H    4.273325   -0.699473    0.375112
    H    3.013906   -1.240969   -0.368442
    H    2.046394    2.200387   -1.798399
    O    1.858472    1.476523   -1.190112
    H    2.710584    1.104091   -0.898603
    H   -2.177968    2.796836   -0.185984

FREQUENCIES 75
35.3807
54.3062
71.4652
94.1111
99.6211
112.2057
132.9066
144.1320
158.1185
179.5116
190.6992
214.4844
240.1684
271.3836
283.3887
294.5007
325.2208
333.3971
347.9457
356.9098
358.7052
374.3455
401.5192
433.8778
456.2939
470.0562
487.3472
496.8033
524.3009
571.6130
597.2124
666.1885
702.4312
723.2762
753.2289
806.9430
840.9626
869.4417
900.4811
952.8114
1004.0451
1087.2804
1130.2610
1197.2541
1237.2890
1263.8065
1316.2807
1333.7310
1369.1458
1424.8128
1503.3221
1572.9842
1600.4490
1609.7137
1621.8900
1666.1042
1684.0955
1708.3213
1899.1797
2210.3209
2764.0727
3089.2045
3111.4111
3162.1924
3416.5016
3456.0040
3501.7405
3544.5690
3708.2120
3732.0947
3816.8336
3875.6217
3936.5506
3940.5067
3950.9161

SYMMETRY C1
ELECTRONIC_STATE 1-A
