27
Energy =   -1027.95844454     
    C   -1.986257    0.053102    0.390186
    C   -0.793226   -0.760657   -0.068760
    N   -2.433198   -0.507313    1.668026
    O   -0.330457   -0.393616   -1.264425
    O   -0.894431   -2.107152    0.124276
    H   -2.797181   -0.102093   -0.339566
    H   -1.876485   -0.148423    2.440711
    H   -3.404458   -0.282648    1.854898
    H   -1.473760   -2.225927    0.897849
    C   -1.677166    1.551570    0.478587
    S   -1.285965    2.314274   -1.145642
    H   -0.838814    1.704504    1.168968
    H   -2.557546    2.057095    0.882639
    O    2.144928    1.545713   -0.930788
    H    2.344557   -0.181476   -1.726311
    H    2.095302    1.294581    0.003699
    O    2.038098   -1.099033   -1.861327
    H    2.552005   -1.641060   -1.236047
    H    0.540753   -0.849341   -1.515872
    H    1.243130    1.813245   -1.168536
    H    4.406053   -1.838180    0.449087
    O    3.459433   -1.990713    0.375865
    H    3.013583   -1.319726    0.920371
    H    0.876295   -0.330811    1.077384
    O    1.731779   -0.028041    1.464321
    H    1.587238    0.063018    2.412761
    H   -1.623149    3.559168   -0.770129

FREQUENCIES 75
36.0348
43.0470
45.8805
51.4468
70.8015
82.7209
115.5433
132.8728
152.8897
185.7516
187.6852
213.7688
216.2556
226.6422
236.7878
254.1880
285.7085
304.1581
312.6434
332.6941
356.8323
362.2378
378.3766
395.0446
435.9694
464.6425
477.2610
554.2159
558.8116
607.7439
637.1889
639.4811
666.4689
686.7800
726.2556
777.1583
814.8065
852.9223
882.1285
947.7603
985.5401
1093.3820
1113.7446
1123.7002
1165.7082
1181.4678
1220.9564
1287.9156
1305.4861
1366.7158
1394.0030
1448.6730
1480.8851
1526.8543
1616.4096
1629.0811
1655.0461
1658.5270
1698.9063
2751.7103
2888.1423
3029.2855
3067.0514
3135.6659
3409.6503
3530.8810
3642.1842
3661.0544
3716.2126
3740.3280
3757.1749
3776.4912
3860.5655
3932.9472
3975.7689

SYMMETRY C1
ELECTRONIC_STATE 2-A
