30
Energy =   -1104.21377674     
    C   -2.769881   -0.561089   -0.590669
    C   -1.775025   -1.703666   -0.798293
    H   -3.158660   -0.360507   -1.600016
    O   -2.344577   -2.862184   -1.047268
    O   -0.557880   -1.556778   -0.780306
    H    1.000137   -1.576527    0.226060
    N   -3.877721   -1.007434    0.215688
    H   -4.701834   -0.431995    0.094603
    H   -3.643259   -1.070464    1.201528
    O    1.900632    0.979926    1.561970
    H    0.974138    1.272513    1.415547
    H    2.575279    1.482473    0.881604
    O    1.829090   -1.472981    0.734480
    H    1.892078    0.000125    1.299314
    H    1.873231   -2.201977    1.366526
    H    3.851302    1.124495   -0.479756
    O    3.466207    1.933255   -0.049049
    H    4.173560    2.531696    0.219446
    H    3.285874   -1.015915   -0.593306
    O    3.952901   -0.446884   -1.010519
    H    4.741768   -0.974068   -1.176301
    C   -2.033827    0.703035   -0.126045
    H   -2.748208    1.523636   -0.048576
    H   -1.244740    0.992309   -0.821750
    S   -1.242062    0.460253    1.508776
    H   -2.018037    1.280501    2.230477
    H    0.660643   -0.050426   -1.554995
    O    1.178179    0.616101   -1.083779
    H    1.692967    1.096325   -1.743320
    H   -1.659677   -3.528614   -1.220662

FREQUENCIES 84
18.3177
37.5237
46.6610
51.8420
72.8514
87.9942
100.6538
113.7344
125.7591
138.3867
153.2968
168.5018
176.3432
198.1243
203.7347
218.2910
248.6625
262.5344
273.0907
276.9726
298.4440
316.8348
338.4521
347.0026
358.4655
401.5464
423.3912
439.4986
468.6820
476.2483
511.3557
543.9330
559.3177
578.5030
598.8183
657.3408
672.0174
680.5109
717.7477
749.3705
763.1796
772.8106
814.1931
872.5737
880.0463
954.9904
1055.7762
1063.5035
1132.1627
1185.5684
1219.8978
1256.6751
1288.9197
1320.9853
1385.2355
1409.2991
1464.2843
1477.6698
1596.7425
1610.0707
1629.9202
1646.0360
1667.2963
1683.9164
1788.9565
1811.8910
2044.7790
2764.8566
2950.5811
3063.3404
3126.6028
3189.2525
3294.6704
3553.3614
3582.7775
3664.0388
3666.9915
3786.8251
3802.6916
3840.9680
3907.3472
3917.3868
3954.4967
3957.2792

SYMMETRY C1
ELECTRONIC_STATE 1-A
