30
Energy =   -1104.22794132     
    C    2.276608    0.898528   -0.680190
    C    0.857891    0.319055   -0.422838
    H    2.218054    1.519766   -1.579105
    O    0.195251    0.914256    0.477344
    O    0.527998   -0.630694   -1.139899
    H   -1.017343   -1.182203   -1.424762
    N    2.578721    1.799725    0.482140
    H    3.135440    2.621915    0.244028
    H    1.649287    2.062260    0.868110
    O   -1.982186   -1.317494   -1.619080
    H   -2.894606   -1.410121   -0.353786
    H   -2.061835   -1.967962   -2.326256
    O   -4.645434    0.815008    0.392573
    H   -3.988907    1.354222   -0.098852
    H   -5.541403    1.026205    0.111105
    H   -1.064386   -1.116735    2.705004
    O   -1.497058   -0.590544    2.024874
    H   -0.826840   -0.067552    1.534205
    H   -2.644026   -1.082189    1.221337
    O   -3.374511   -1.305283    0.532554
    H   -4.022017   -0.491498    0.477313
    C    3.340084   -0.179665   -0.855180
    H    2.996939   -0.843986   -1.649137
    H    4.298937    0.254749   -1.144396
    S    3.531582   -1.130223    0.701698
    H    3.067295    1.240660    1.202285
    H   -1.564143    1.476423   -0.315553
    O   -2.370112    1.460221   -0.854705
    H   -2.245602    0.750400   -1.501611
    H    4.870313   -1.094274    0.754187

FREQUENCIES 84
19.0528
21.9184
40.3615
63.3011
73.0642
75.2612
76.9023
85.8223
107.3246
131.3817
145.3726
165.9750
189.7615
217.7574
235.7523
250.2974
269.2429
280.3454
290.7516
307.5072
322.7967
361.8179
366.4203
377.6103
393.6964
429.1690
464.8479
480.3226
497.4027
529.3716
547.7839
559.0709
597.9347
614.6548
694.3631
714.0796
772.2145
797.2016
815.4055
837.0872
875.8989
888.1137
933.4619
965.5519
1005.9841
1049.2906
1078.4509
1090.1676
1132.1444
1222.3811
1313.5090
1331.5244
1371.5199
1435.8761
1458.9978
1467.6980
1480.5815
1581.7784
1593.0377
1624.6769
1641.1659
1673.8291
1680.9950
1727.3785
1775.5858
1790.8566
2484.7634
2724.0390
2761.8097
2977.3884
3123.3821
3134.2871
3193.3714
3239.0757
3284.8385
3326.5785
3535.1678
3538.4217
3573.1191
3775.6265
3868.3541
3929.7162
3947.2992
3953.2864

SYMMETRY C1
ELECTRONIC_STATE 1-A
