30
Energy =   -1104.34192713     
    C   -0.290114   -0.485207   -0.781636
    C    0.327865    0.835175   -0.376430
    O   -0.131794    1.908447   -0.719113
    O    1.427718    0.667408    0.340140
    N    0.013946   -1.504361    0.261570
    H    0.216823   -0.840436   -1.695400
    H   -0.462563   -2.384949    0.013899
    H    1.041777   -1.721269    0.243846
    H   -0.271853   -1.154730    1.187640
    O    0.190829   -3.405659   -1.819033
    O   -0.809164    0.453858    2.171517
    H   -1.537437    0.568078    2.790688
    H    0.130910   -4.364414   -1.916129
    H   -0.180142    1.179496    2.342884
    H    0.078163    5.160968    0.189297
    O   -0.177570    4.340041    0.620010
    H   -0.242274    3.652570   -0.066799
    H    1.659140    2.889901    2.914327
    O    1.095512    2.609574    2.186024
    H    0.694041    3.411987    1.776806
    C   -1.787093   -0.309995   -1.027036
    H   -1.912907    0.348553   -1.887620
    H   -2.242943    0.182077   -0.164088
    S   -2.703166   -1.865918   -1.267078
    H   -1.885669   -2.371220   -2.208276
    O    2.484051   -2.348275   -0.580669
    H    3.150368   -1.715376   -0.924359
    H    2.989943   -3.016925   -0.070225
    H    1.143736   -3.215741   -1.708096
    H    1.681375    1.508764    0.776633

FREQUENCIES 84
27.8565
34.5584
37.1993
62.5740
65.0591
81.4231
89.0552
99.0090
127.9390
138.2463
150.1895
166.1920
169.5603
184.0137
207.1623
211.3967
223.5477
240.8988
255.0440
264.7425
286.3833
286.6091
292.3026
293.5212
313.1921
346.2850
352.2523
378.3181
391.2546
412.9841
419.5077
434.2272
474.7293
494.7362
515.0743
590.3032
605.9636
623.7161
666.7939
717.8831
727.4119
799.8681
814.1886
839.8302
862.4859
971.6463
1024.2652
1105.1318
1139.9356
1180.7857
1224.3827
1275.5557
1286.9468
1361.4681
1390.6389
1429.1228
1476.4800
1513.9569
1526.7076
1610.7637
1613.9236
1623.0392
1643.7818
1654.5326
1670.9427
1811.0285
2708.2238
3002.1573
3022.7550
3120.5488
3179.2715
3351.0285
3415.8723
3422.6982
3509.5140
3579.9924
3594.7708
3637.3136
3687.5738
3715.3845
3884.9985
3944.9945
3947.5107
3970.1052

SYMMETRY C1
ELECTRONIC_STATE 2-A
