30
Energy =   -1104.23876903     
    C    1.561542   -1.530111   -0.483652
    C    0.031566   -1.365353   -0.414477
    O   -0.535605   -0.943483   -1.437684
    O   -0.467652   -1.689938    0.696546
    N    2.005284   -0.771410   -1.698285
    H    1.783958   -2.587920   -0.664312
    H    2.950249   -1.017481   -1.998189
    H    1.324468   -0.965606   -2.445477
    H   -1.680275   -1.274877    0.952022
    O    1.388251    1.994546   -1.650836
    H    1.473590    2.685690   -2.320415
    H    1.672040    2.372496   -0.805496
    H   -2.309122    0.133200    1.615057
    O   -2.624485   -0.746105    1.215024
    H   -3.099353   -0.551463    0.372498
    H   -1.726178    2.071494    2.536655
    O   -1.464194    1.409930    1.886495
    H   -1.411977    1.827233    0.987687
    O   -3.144834   -0.175433   -1.353439
    H   -3.871228   -0.375919   -1.954455
    H   -2.340396   -0.649360   -1.646931
    H   -2.109957    1.475130   -1.084218
    O   -1.389382    1.983090   -0.676343
    H   -0.577285    1.748360   -1.149761
    C    2.271200   -1.069411    0.783577
    H    3.355939   -1.161082    0.678956
    H    1.957539   -1.726677    1.595403
    S    1.944281    0.661275    1.258490
    H    0.668878    0.490432    1.658944
    H    1.939201    0.259117   -1.547425

FREQUENCIES 84
45.3262
69.3983
71.7447
86.5050
88.6806
94.9302
96.6361
121.0074
139.9166
147.7780
159.1323
175.1263
188.7453
227.1804
230.2788
237.8528
244.5244
274.0130
299.6471
307.9786
332.3322
370.0800
387.8460
410.5042
425.5703
429.7920
456.7106
502.7592
521.1935
546.2400
587.0745
594.9503
613.7890
631.6074
680.8072
708.8196
724.2688
752.9870
783.5506
819.4982
869.2697
891.9247
933.1587
954.6799
1001.5695
1049.7328
1079.8229
1100.3171
1146.0118
1251.9174
1325.2597
1342.8441
1373.3074
1416.4408
1452.3983
1498.0525
1517.1074
1546.4568
1584.2952
1593.8610
1605.6323
1625.8653
1660.5446
1681.2666
1742.3602
1758.2966
1898.2189
2704.9246
2906.6184
3111.3649
3118.4022
3191.1951
3193.3920
3317.3673
3415.8290
3470.9970
3536.6627
3623.8168
3754.9496
3803.4968
3855.0715
3928.3779
3936.0714
3941.4839

SYMMETRY C1
ELECTRONIC_STATE 1-A
