30
Energy =   -1104.37106776     
    C   -1.632859    0.406726   -0.306655
    C   -1.103403    1.798428   -0.105046
    O   -0.525318    2.114921    0.996351
    O   -0.458893    2.209612   -1.324175
    N   -0.481868   -0.600631   -0.433623
    H   -2.193871    0.337759   -1.242814
    H   -0.849148   -1.558384   -0.419115
    H    0.052473   -0.482822   -1.300780
    H    0.169975   -0.463431    0.399144
    O    1.663801   -1.302069   -2.193265
    O    0.751157    0.059528    1.846558
    H    2.008890   -1.732688   -1.377701
    H    0.290013    0.949342    1.694031
    H    1.934486   -1.826340   -2.952465
    H    1.698897    0.266342    1.881383
    H    4.237894    0.859673    1.172089
    O    3.399953    0.438267    0.961415
    H    2.997945    0.899871    0.175820
    O    2.180113    1.293848   -1.189904
    H    1.298283    1.719996   -1.183579
    H    2.129719    0.550258   -1.811397
    O    2.452584   -2.027896    0.280908
    H    1.833734   -2.195509    1.001042
    H    2.973942   -1.249643    0.570046
    C   -2.480859   -0.006332    0.889732
    H   -3.298208    0.707893    0.990080
    H   -1.875034    0.038306    1.797254
    S   -3.164892   -1.698248    0.683152
    H   -2.868536   -2.151921    1.908585
    H   -0.388306    3.171521   -1.276119

FREQUENCIES 84
36.2043
45.8616
65.3125
75.8831
84.3127
87.8594
91.5196
113.5738
125.1869
169.4007
173.5209
188.2347
190.2963
220.2990
229.9955
236.5059
258.6443
270.7422
283.2764
293.0939
293.9106
308.5933
336.0588
356.7933
363.7820
378.8190
420.6113
444.8400
478.3400
497.7976
503.9485
531.4061
605.9745
635.8748
654.5465
668.8989
727.1116
741.9677
763.9189
777.7869
828.6094
859.5628
883.7022
913.8759
963.2840
1007.0992
1025.0848
1037.7361
1062.1363
1134.5212
1143.3300
1221.1407
1259.6068
1270.6608
1364.7992
1389.5461
1482.4342
1515.4640
1546.0503
1615.3333
1626.6206
1651.6725
1674.1454
1686.7108
1699.0855
1733.1545
2670.6891
2773.9807
2946.7100
3124.9571
3133.9022
3194.7333
3211.0995
3417.9042
3460.3662
3492.2811
3571.4168
3580.8332
3790.9143
3793.3773
3882.0576
3925.9902
3964.5293
3966.2125

SYMMETRY C1
ELECTRONIC_STATE 2-A
