30
Energy =   -1104.34917760     
    C   -2.327216   -0.595787   -0.432719
    C   -0.968922   -0.311963    0.149425
    H   -2.200029   -1.134314   -1.387300
    O   -0.345379   -1.407499    0.529315
    O   -0.475097    0.822337    0.088807
    H    0.911109    1.445325    0.751364
    N   -3.032015   -1.616677    0.441367
    H   -2.386554   -2.396952    0.649085
    H   -3.314134   -1.193977    1.359640
    O    1.778475    1.726818    1.143055
    H    1.584933    2.316114    1.879241
    H    2.186622   -0.111889    1.428406
    O    3.982017   -1.955219   -0.264128
    H    3.809321   -2.561867   -0.989600
    H    4.505703   -1.206565   -0.630294
    H    6.174593    0.414887   -0.891206
    O    5.285175    0.216462   -1.198264
    H    4.746840    1.025971   -1.056287
    H    3.279475    2.822197   -1.456902
    O    3.709495    2.379734   -0.719095
    H    3.015220    2.205826   -0.051451
    C   -3.155311    0.664541   -0.642447
    H   -3.131659    1.285483    0.255142
    H   -2.692905    1.237940   -1.449388
    S   -4.878751    0.363504   -1.146976
    H   -3.877680   -2.003090   -0.027160
    O    1.991988   -1.056149    1.301686
    H    0.643663   -1.243453    0.840652
    H    2.711831   -1.438965    0.743356
    H   -5.363806    0.195258    0.105648

FREQUENCIES 84
19.0481
22.3685
35.6978
43.9550
54.2481
57.7483
66.7066
82.7405
91.2907
99.3450
136.5947
161.9570
189.0574
201.5109
225.4070
229.2021
239.3330
245.9566
260.2323
274.4388
281.3301
299.7928
311.9234
321.8902
336.1514
368.9484
396.8450
402.7546
451.8159
470.0533
489.3446
511.4099
552.2316
645.6111
673.4386
716.0245
730.8652
782.5922
795.9072
816.5108
829.0723
850.8032
915.5154
928.5641
949.9450
960.8698
1044.4977
1057.7725
1138.1706
1183.9765
1217.3477
1257.6825
1274.6790
1329.2451
1380.8541
1410.0640
1455.0610
1530.1097
1556.7541
1572.3908
1633.5378
1643.4789
1658.7136
1673.6630
1696.0523
1729.4759
2346.7144
2575.7295
2834.7977
3023.9600
3116.0922
3158.6279
3173.0407
3261.4165
3313.5459
3365.4031
3459.0002
3519.9107
3602.7540
3745.9414
3948.1917
3959.4995
3965.0290
3966.6576

SYMMETRY C1
ELECTRONIC_STATE 2-A
