30
Energy =   -1104.22765083     
    C   -2.202286    0.126960    0.871781
    C   -0.847426    0.200590    0.131481
    H   -2.083202   -0.367818    1.838086
    O   -0.533964    1.330373   -0.310890
    O   -0.255111   -0.892222    0.028421
    H    0.976189    1.660468   -1.107363
    N   -2.646723    1.543550    1.105845
    H   -2.345826    1.897261    2.016632
    H   -2.161727    2.105575    0.379681
    O    1.848959   -1.049493   -1.277816
    H    2.672820   -1.558957   -0.809429
    H    0.966193   -1.010280   -0.712449
    O    3.656964    1.887048    0.730445
    H    3.858808    2.772555    1.047315
    H    3.115402    1.971119   -0.072874
    H    5.992863   -0.307751    1.091287
    O    5.039795   -0.419342    1.168798
    H    4.622798    0.463557    1.074384
    H    3.727768   -3.015272    0.127366
    O    3.776258   -2.132762   -0.254509
    H    4.322419   -1.526977    0.337923
    C   -3.226272   -0.607038    0.005281
    H   -3.279020   -0.143451   -0.984170
    H   -2.881300   -1.634858   -0.111696
    S   -4.873610   -0.555332    0.805862
    H   -5.594989   -0.461213   -0.319610
    O    1.895176    1.631321   -1.466492
    H    2.075205   -0.121119   -1.518537
    H    1.912099    2.133479   -2.289330
    H   -3.674532    1.610292    1.049294

FREQUENCIES 84
18.0937
32.5948
35.3952
42.0393
56.3204
67.5749
82.6285
93.6261
106.1220
114.5471
151.2196
182.4946
187.2606
206.2959
224.5629
235.5685
237.6838
241.9848
286.3348
299.7107
312.6124
331.7840
344.1803
370.2254
376.8192
427.0902
453.1553
461.8014
476.7750
487.4823
569.9764
606.6555
654.6411
682.4830
716.9172
782.9193
801.8453
826.9189
834.4839
851.7139
874.8647
912.4561
943.5339
982.3163
1006.0143
1059.8777
1080.0997
1094.4699
1147.0286
1245.0774
1274.0960
1313.9565
1336.0170
1383.3693
1449.8871
1471.3720
1486.4904
1621.3329
1625.2088
1634.4825
1642.1611
1663.6557
1667.8906
1717.8289
1755.4496
1787.4798
2074.1265
2466.3252
2783.1892
3028.1281
3102.2834
3153.3228
3184.8994
3266.9716
3370.8957
3409.0380
3496.7314
3519.3553
3559.5735
3730.1750
3930.1222
3945.6840
3951.0105
3962.0477

SYMMETRY C1
ELECTRONIC_STATE 1-A
