30
Energy =   -1104.23026157     
    C    2.256034    0.151279   -0.634272
    C    0.748530   -0.073257   -0.399169
    H    2.532841   -0.122470   -1.654322
    O    0.129331    0.868881    0.154824
    O    0.324439   -1.193962   -0.747581
    H   -0.969042   -1.571063   -0.233454
    N    2.520562    1.616534   -0.443627
    H    2.389165    2.148804   -1.306968
    H    1.810665    1.952861    0.230981
    O   -1.865935   -1.773640    0.270779
    H   -1.945081   -1.076433    1.048569
    H   -2.672549   -1.654538   -0.309911
    O   -4.316975    1.004015    0.756181
    H   -3.747211    1.453963    0.092923
    H   -5.031100    1.596852    1.015381
    H   -4.478450   -0.494829   -0.397506
    O   -4.018077   -1.089152   -1.022650
    H   -4.668156   -1.683648   -1.414720
    H   -2.881181    0.478760    1.854432
    O   -2.016755    0.036919    1.970254
    H   -1.328632    0.656042    1.678955
    C    3.062251   -0.660844    0.386000
    H    2.688939   -0.470926    1.398060
    H    2.908536   -1.720128    0.175258
    S    4.833234   -0.241638    0.431880
    H    3.486745    1.758150   -0.107427
    H   -1.525242    1.206646   -0.728636
    O   -2.418256    1.368454   -1.076132
    H   -2.638689    0.633150   -1.663624
    H    5.150350   -0.768061   -0.762523

FREQUENCIES 84
24.1326
28.2508
53.8042
69.6127
77.2172
83.6945
92.6632
119.6217
127.1961
129.5365
157.4981
187.5052
191.4605
219.5030
225.7365
239.1166
249.3959
264.1363
303.4565
330.5516
354.5212
360.4910
368.4179
385.5978
408.5331
429.0925
433.4412
451.2819
473.2144
553.0759
563.2517
567.4070
615.0094
680.3456
690.8759
703.5697
759.2779
804.6911
827.5568
877.8367
882.2385
932.7491
941.3738
978.8684
1000.9354
1045.0641
1060.7441
1107.6662
1153.9034
1262.4630
1272.1602
1343.6530
1357.9052
1379.0085
1455.7721
1472.0218
1475.1286
1575.6114
1620.1147
1627.4473
1630.3459
1658.5612
1665.3914
1692.2569
1746.0777
1841.7381
2323.6618
2545.8691
2747.9937
3103.1761
3158.4070
3170.9966
3180.4285
3298.8958
3369.8826
3499.3041
3514.6595
3640.8650
3677.6211
3738.6169
3836.6545
3902.2637
3932.3536
3936.3549

SYMMETRY C1
ELECTRONIC_STATE 1-A
