30
Energy =   -1104.23500071     
    C    0.098655    0.191861   -0.436769
    C   -0.793401   -0.985559   -0.829887
    N   -0.652813    1.442047   -0.749181
    O   -1.996397   -0.864943   -0.819637
    O   -0.191468   -2.111224   -1.153015
    H    1.023572    0.193972   -1.020636
    H    0.021104    2.230105   -0.682262
    H   -1.036316    1.416165   -1.696482
    H    0.788047   -2.030411   -1.184575
    C    0.418917    0.211217    1.067721
    S    1.326066   -1.234975    1.698182
    H   -0.507720    0.331813    1.635295
    H    1.066774    1.069296    1.262909
    O    1.684093    2.845015   -0.639741
    H    2.434042    2.228562   -0.540178
    H    2.034978    3.725939   -0.805579
    H   -1.477005    1.554909   -0.071430
    H   -2.996844    2.275514    1.455007
    O   -2.618442    1.502460    1.022085
    H   -3.364611    0.897470    0.781232
    O   -4.481975   -0.182579    0.137357
    H   -4.000658   -0.876604   -0.332656
    H   -5.306876   -0.552296    0.467432
    H    2.684537   -2.247050   -0.249171
    O    2.583582   -1.918812   -1.157785
    H    3.037820   -2.534545   -1.748762
    O    3.299872    0.673720   -0.130393
    H    4.144202    0.742342    0.330172
    H    3.348660   -0.114112   -0.695034
    H    0.261833   -2.041292    1.848027

FREQUENCIES 84
33.5272
36.9419
51.5460
60.2946
64.9869
83.4738
89.8080
105.6466
118.0120
136.8069
152.6449
169.3431
184.2513
192.7365
201.2168
213.9107
236.6763
243.3124
248.6327
258.7083
271.4302
287.2015
305.3228
314.6938
329.9703
341.3622
362.2461
371.3167
413.7711
419.5820
432.8051
489.8676
504.9100
528.8573
554.5341
630.6127
648.2632
671.3529
719.6882
739.7626
776.6136
829.6238
837.1364
877.6317
894.8983
1002.0322
1031.5766
1087.1227
1164.8552
1208.8138
1249.4160
1304.4737
1327.3327
1363.8307
1388.2355
1458.1690
1485.4194
1580.2914
1588.3734
1606.7840
1625.9009
1651.5281
1667.4105
1677.5592
1708.3025
1885.7856
2601.1597
2735.5453
3111.2944
3147.3543
3178.0509
3214.5787
3363.5986
3489.9068
3513.9061
3653.2818
3757.6331
3786.2385
3848.5837
3914.6136
3932.8484
3940.7628
3953.7880
3982.8602

SYMMETRY C1
ELECTRONIC_STATE 1-A
