30
Energy =   -1104.37868011     
    C   -1.401110   -0.616190   -0.728851
    C    0.098683   -0.848659   -0.711357
    O    0.468277   -2.006564   -0.268806
    O    0.655766   -0.336820   -1.887318
    N   -1.839941   -1.195600    0.578731
    H   -1.878495   -1.229106   -1.514573
    H   -2.846412   -1.355954    0.613554
    H   -1.546093   -0.548707    1.352473
    H    1.563887   -0.690773   -1.951446
    O   -0.919092    0.688463    2.332443
    H    0.043918    0.862494    2.180516
    H   -1.098349    0.855026    3.262772
    H    1.828245    1.447971    0.912919
    O    1.691388    1.177276    1.870081
    H    2.150656    1.830048    2.408921
    H    4.236717   -0.911909   -1.721906
    O    3.450044   -0.517096   -1.335655
    H    3.310119   -0.922352   -0.427363
    O    2.093834    1.790063   -0.650307
    H    2.852383    1.245573   -0.933254
    H    1.359608    1.370880   -1.132701
    H    2.456156   -0.667414    1.517741
    O    2.712047   -1.434486    0.982689
    H    1.858957   -1.786950    0.607216
    C   -1.830354    0.833581   -0.857315
    H   -1.482982    1.223418   -1.815669
    H   -1.376326    1.427591   -0.058415
    S   -3.634457    1.079203   -0.687422
    H   -3.982026    0.532040   -1.863501
    H   -1.276999   -2.061394    0.662999

FREQUENCIES 84
42.4888
50.2180
58.7414
76.8544
92.2877
105.8040
112.9078
122.2953
140.0641
164.0476
169.3201
171.2730
182.7239
221.0958
235.1701
238.4426
252.7892
281.6120
292.2714
306.5680
326.5338
333.2234
391.3652
396.9103
407.0882
409.9244
423.7603
466.5510
500.9713
515.1410
534.2980
587.2705
599.4467
607.3407
622.1427
686.6885
712.1414
752.4750
799.1083
800.2823
816.6999
845.2355
917.5560
945.1880
1008.7347
1076.4912
1089.2477
1130.9224
1145.8362
1165.7587
1178.8558
1256.2212
1276.7708
1323.3121
1347.6623
1400.2629
1454.2002
1469.6527
1517.7292
1624.6892
1650.7025
1662.3145
1674.7939
1690.7056
1705.8687
1709.5684
2764.1828
2983.9587
2991.0470
3031.3817
3076.0191
3114.1609
3180.4141
3241.7483
3304.7998
3356.9662
3552.4693
3680.9173
3709.0339
3773.9384
3813.5282
3932.6627
3953.9873
3967.8987

SYMMETRY C1
ELECTRONIC_STATE 2-A
