30
Energy =   -1104.35956972     
    C   -0.028087   -0.586190   -0.323528
    C   -0.583446   -1.894820    0.243231
    O   -1.862288   -1.896829    0.550831
    O    0.126906   -2.871302    0.328277
    N    1.450534   -0.689955   -0.267611
    H   -0.305050    0.261691    0.311501
    H    1.724068   -0.746906    0.730292
    H    1.750892   -1.539474   -0.758002
    H    1.866630    0.170956   -0.685112
    O    1.847746    1.849682   -1.289659
    O   -2.758428    0.532123    0.470336
    H    2.641035    2.226329   -1.687773
    H   -3.689509    0.722636    0.621978
    H    1.659833    2.387486   -0.488727
    H   -2.221797    1.049791    1.134022
    C   -0.512991   -0.327768   -1.751627
    H   -0.118919    0.635061   -2.087339
    H   -1.602662   -0.269422   -1.749394
    S    0.073362   -1.548597   -2.973716
    H   -2.272971   -0.978686    0.518103
    H    1.125961   -1.152259    3.202971
    O    1.000286   -0.454569    2.539884
    H    1.661987    0.247204    2.751447
    H    1.853484    2.318190    1.703271
    O    1.271390    2.947024    1.195589
    H    1.527626    3.831985    1.509715
    O   -1.086914    1.613102    2.156101
    H   -0.419867    2.253479    1.843535
    H   -0.568493    0.919160    2.599512
    H   -0.582494   -2.609599   -2.474934

FREQUENCIES 84
29.2474
43.4865
54.9486
61.0623
77.0727
89.6029
102.0392
115.2549
122.2800
130.6300
140.0382
163.6529
175.5722
187.2429
213.3671
223.5951
244.5758
278.7086
290.2622
303.9484
315.2745
327.7621
349.2295
361.5323
367.2360
375.2888
398.3976
427.1950
451.6094
469.7763
503.0574
532.7668
538.0859
544.7620
584.8684
622.8625
635.4560
689.7398
702.9571
778.7759
800.3969
812.4860
873.0548
930.4017
962.4028
1032.1064
1094.9120
1109.1482
1136.6310
1180.4190
1255.2516
1313.6331
1326.4531
1368.1099
1445.6761
1472.7676
1499.0514
1527.3125
1533.7365
1550.4526
1617.0270
1642.2921
1642.7018
1671.9653
1688.9601
1869.4276
2737.1852
3004.5647
3106.4900
3117.9165
3142.2335
3163.9760
3180.9319
3207.4451
3262.2738
3339.5698
3474.6380
3527.4052
3666.7754
3727.2294
3764.1173
3796.0568
3920.4986
3950.3366

SYMMETRY C1
ELECTRONIC_STATE 2-A
