30
Energy =   -1104.35301678     
    C   -0.498601   -0.145750   -0.114579
    C   -1.611179    0.905046    0.028513
    N   -0.743966   -1.239578    0.870685
    O   -2.778959    0.564072    0.006163
    O   -1.251852    2.154201    0.161802
    H    0.475976    0.279357    0.139307
    H    0.031268   -1.953034    0.774708
    H   -0.657524   -0.869673    1.836551
    H   -0.259529    2.290001    0.180054
    C   -0.448184   -0.731244   -1.522148
    S    0.016734    0.539903   -2.738756
    H   -1.429328   -1.117443   -1.812131
    H    0.276303   -1.548965   -1.546741
    O    1.475094   -2.799662    0.598064
    H    2.046085   -2.187738    0.089051
    H    1.868213   -2.829840    1.484675
    H   -1.670319   -1.684502    0.720556
    H   -4.011972   -2.643198    0.106535
    O   -3.236756   -2.114243   -0.102675
    H   -3.504878   -1.180393   -0.162287
    O    1.329939    2.576507    0.228268
    H    1.829828    2.082161    0.914101
    H    1.547526    3.510424    0.324343
    H    3.341526    0.786939    2.431274
    O    2.610747    0.714051    1.788911
    H    1.907146    0.194397    2.267843
    O    2.663808   -0.626909   -0.669442
    H    3.466606   -0.624013   -1.203217
    H    2.855405   -0.115204    0.144642
    H    1.219385    0.778384   -2.185044

FREQUENCIES 84
36.7765
49.0916
58.5143
67.0166
73.3208
84.0970
97.5520
104.8218
112.2679
117.6767
157.2683
176.5820
183.5509
195.9338
217.0373
222.7752
241.2077
258.2763
270.4430
274.1637
305.3127
318.3673
329.7165
338.7022
358.4626
372.3808
391.9260
410.0686
414.9410
425.3650
452.3142
497.7981
521.2935
548.6042
568.6163
633.2712
667.7406
679.5260
745.3003
754.8924
775.7373
812.1111
828.3425
894.5870
981.9295
1010.7449
1015.0900
1078.9227
1182.6928
1203.5151
1237.4424
1309.7393
1333.9033
1387.7315
1457.5752
1474.1632
1500.8235
1540.5101
1567.7482
1588.2181
1622.3471
1641.2216
1646.1497
1664.8331
1683.7539
1852.0562
2730.6942
2838.2270
3074.8266
3108.2503
3123.0767
3151.8320
3173.0570
3187.9517
3243.6078
3527.9933
3555.7415
3612.2461
3674.4005
3728.9067
3796.7671
3914.3780
3929.0883
3972.8303

SYMMETRY C1
ELECTRONIC_STATE 2-A
