30
Energy =   -1104.22793830     
    C    2.513984   -0.601719   -0.142795
    C    1.051020   -0.091420   -0.196147
    H    2.514702   -1.666195   -0.400415
    O    0.746741    0.503413   -1.258883
    O    0.369990   -0.356480    0.807291
    H   -1.144433   -0.146667    1.235910
    N    3.260508    0.093567   -1.248644
    H    4.160701   -0.358416   -1.440062
    H    3.446210    1.069395   -0.994654
    O   -2.092768   -0.038942    1.550717
    H   -2.915489    0.801027    0.516806
    H   -2.059215    0.310592    2.449377
    O   -5.076004   -0.442889   -0.977655
    H   -4.864146   -1.205914   -0.395068
    H   -6.024404   -0.276293   -0.942729
    H   -1.609059    1.869986   -2.766152
    O   -1.527273    1.732953   -1.817229
    H   -0.681373    1.249444   -1.621969
    H   -2.664483    1.461780   -0.981333
    O   -3.387823    1.240097   -0.263016
    H   -4.133252    0.603455   -0.608378
    C    3.202830   -0.376154    1.193367
    H    3.172730    0.684566    1.465073
    H    2.649541   -0.915584    1.962318
    S    4.966134   -0.847705    1.182784
    H    4.766959   -2.176096    1.178814
    H   -3.923632   -2.970456    1.106019
    O   -3.948864   -2.048694    0.833223
    H   -3.210824   -1.578999    1.255743
    H    2.635896    0.123419   -2.067318

FREQUENCIES 84
21.7567
27.8635
38.7791
45.7732
54.8633
70.0028
79.0373
85.7742
105.9220
110.4011
112.8447
133.3355
172.3956
178.5981
190.0286
202.3056
251.2361
258.8840
276.4044
332.5245
348.1410
360.1065
366.6801
380.6193
403.6147
420.6048
428.3495
450.0086
508.1507
529.5822
543.5325
593.6110
634.9228
665.8042
717.7783
778.6420
789.3181
810.4580
831.8282
868.2155
908.1123
942.2565
959.8263
981.6650
1045.5304
1049.7024
1075.4411
1102.6702
1155.9814
1259.1918
1272.2298
1348.3013
1365.1509
1394.5055
1445.7600
1470.4307
1477.9084
1610.5234
1611.6436
1638.3152
1662.1917
1671.3615
1675.7740
1747.2936
1765.7805
1823.1893
2424.2221
2594.9802
2752.2311
2944.9465
3100.9018
3102.8521
3125.1062
3187.6013
3267.6372
3378.8774
3480.1620
3517.7668
3527.8701
3754.2790
3915.5226
3941.5235
3953.3269
3967.7980

SYMMETRY C1
ELECTRONIC_STATE 1-A
