30
Energy =   -1104.39104037     
    C    1.408015    0.571575   -0.932064
    C    0.074794   -0.108531   -1.176350
    O   -0.736200    0.527250   -2.053367
    O    0.134973   -1.463196   -1.401597
    N    1.214165    2.025724   -1.020651
    H    2.122832    0.214372   -1.698298
    H    2.107706    2.485492   -1.170694
    H    0.616287    2.224219   -1.820627
    H   -1.600343   -2.297164   -0.900975
    O    0.016131    2.768002    1.350095
    H   -0.147301    3.711295    1.439043
    H    0.434866    2.608822    0.463032
    H   -1.151175   -1.931944    1.097558
    O   -2.250991   -2.349011   -0.182906
    H   -2.816294   -1.570101   -0.326126
    H   -0.447276   -2.096970    2.487257
    O   -0.505275   -1.518040    1.720454
    H   -1.409261    0.081890    1.829859
    O   -3.026231    0.314414   -0.633723
    H   -3.870551    0.756499   -0.763726
    H   -1.664114    0.474293   -1.725994
    H   -2.650017    0.607279    0.261456
    O   -1.939381    0.876337    1.623343
    H   -1.298989    1.616757    1.574039
    C    1.972214    0.254624    0.461625
    H    1.198759    0.431110    1.213350
    H    2.818248    0.911894    0.680357
    S    2.497950   -1.477385    0.704681
    H    0.768698   -1.854126   -0.770114
    H    3.585172   -1.412399   -0.084132

FREQUENCIES 84
41.8602
45.0724
65.7227
70.6281
89.5020
96.7489
115.8433
125.3380
162.7323
181.7350
189.3585
195.9074
214.0509
230.7619
237.5505
247.2496
268.8384
275.5515
305.1474
312.2903
331.7308
346.9029
355.2717
376.2953
390.9510
395.8263
422.1298
456.5759
476.3462
501.7071
527.2880
541.4155
587.7069
599.4468
622.8504
645.0920
682.3648
749.8043
772.5802
781.9873
793.9596
863.0124
879.7500
935.3361
985.0310
988.8983
1014.8491
1085.5567
1123.1751
1172.1723
1189.3447
1215.4502
1236.4328
1287.7309
1303.6740
1363.0464
1387.7730
1408.5064
1467.4424
1483.4773
1630.4361
1649.8543
1657.2572
1661.2055
1681.2395
1712.0278
2738.0383
2891.6424
2963.6049
3101.2467
3177.4201
3234.5643
3383.5046
3455.9286
3521.8428
3562.0937
3617.1697
3649.1410
3656.7912
3732.3185
3818.1094
3947.6094
3952.0883
3962.4731

SYMMETRY C1
ELECTRONIC_STATE 2-A
