30
Energy =   -1104.23264624     
    C    1.038752    0.594565   -0.830976
    C   -0.211453    0.058070   -1.559327
    N    0.608409    1.485094    0.285068
    O   -0.556288   -1.211556   -1.378823
    O   -0.814622    0.767413   -2.323065
    H    1.534510    1.227186   -1.573178
    H    0.215305    0.902256    1.093622
    H    1.435855    1.976787    0.640430
    C    2.012321   -0.459796   -0.309844
    S    3.484017    0.274416    0.479384
    H    2.310534   -1.123547   -1.124556
    H    1.544826   -1.071800    0.469062
    H    4.071929    0.675212   -0.659440
    H   -0.104223    2.170172   -0.032931
    O   -2.969888   -1.966753   -0.235157
    H   -2.626542   -1.916842   -1.140218
    H   -3.828162   -2.406294   -0.273869
    O   -0.272812    0.011269    2.335767
    H   -1.210104    0.255198    2.265144
    H   -0.255529   -0.949106    2.189321
    O   -1.472264    3.041144   -0.918476
    H   -1.453441    2.659260   -1.810189
    H   -1.707821    3.972829   -0.997257
    H   -0.245370   -3.378142    1.261666
    O   -0.525775   -2.493710    0.995601
    H   -1.482075   -2.537432    0.792849
    H   -2.732228   -0.069345    0.235718
    O   -2.145805    0.666962    0.471497
    H   -2.507756    1.476114    0.083070
    H   -0.164442   -1.648446   -0.592129

FREQUENCIES 84
47.3427
55.6299
64.5773
90.8267
96.3056
108.3455
117.7317
130.6750
147.6081
157.8831
167.0622
185.2873
204.9804
214.4719
221.2189
242.8311
253.7709
264.5142
280.6776
298.5118
306.4616
321.4762
341.0122
364.3494
375.0503
391.1442
413.4290
441.8483
460.2519
475.1663
507.8160
515.8896
533.0340
538.2270
613.0862
624.2742
653.1022
683.3038
702.5298
736.1462
757.6758
773.0562
807.9155
844.3619
880.1477
962.7518
1041.2388
1105.6987
1170.8716
1199.6391
1275.7171
1288.0603
1318.3916
1373.7441
1403.4159
1411.8519
1477.2575
1600.3537
1605.7440
1609.3323
1618.2930
1639.4801
1672.8242
1689.4713
1718.7671
1892.6221
2625.6701
2735.1777
3102.8691
3131.9427
3165.9525
3248.1704
3460.5645
3562.9114
3645.1483
3757.2001
3766.0815
3794.4360
3812.8846
3839.3099
3894.7160
3920.6647
3938.9316
3950.3473

SYMMETRY C1
ELECTRONIC_STATE 1-A
