30
Energy =   -1104.35135844     
    C    2.162929    0.811628   -0.645455
    C    0.659533    0.559974   -0.817158
    H    2.516308    1.341829   -1.539515
    O   -0.128782    1.272579   -0.148295
    O    0.370322   -0.343249   -1.639584
    H   -1.015436   -0.752491   -1.776451
    N    2.386226    1.761409    0.492217
    H    3.374529    2.100737    0.527860
    H    1.760738    2.586732    0.406780
    O   -2.014656   -1.050206   -1.808350
    H   -2.449906   -1.338781   -0.437055
    H   -2.104933   -1.747467   -2.466808
    O   -4.184387    0.586418    0.871734
    H   -3.765413    1.144803    0.155093
    H   -5.141227    0.676402    0.846638
    H    0.171017   -1.133458    1.694148
    O   -0.668595   -0.658584    1.817133
    H   -0.510177    0.223782    1.429407
    H   -1.866997   -1.184359    1.124054
    O   -2.711636   -1.405143    0.567309
    H   -3.417518   -0.675361    0.755025
    C    2.968503   -0.474515   -0.509406
    H    2.763470   -1.074391   -1.398296
    H    4.038477   -0.252224   -0.469625
    S    2.540972   -1.548664    0.902569
    H    2.183199    1.331924    1.421542
    H   -1.830923    1.659199   -0.706260
    O   -2.752341    1.608437   -1.035370
    H   -2.723787    0.897466   -1.693441
    H    3.194483   -0.821457    1.842966

FREQUENCIES 84
34.6071
46.8482
59.6395
63.0460
69.7777
81.1951
97.5286
112.4357
115.4279
143.8710
177.2621
180.8123
189.4814
211.5805
245.0831
263.5371
300.6834
319.7884
333.7588
353.9658
361.2656
380.8037
382.0242
408.6197
420.5569
491.1063
494.2465
511.5176
563.7812
572.7237
590.9670
606.6447
633.0399
667.7036
702.2626
740.5164
796.9136
823.6260
865.4878
874.8191
946.3240
973.2347
1002.2160
1051.8337
1070.6143
1105.5004
1112.0045
1132.9846
1152.6869
1237.8512
1317.6476
1333.5786
1355.1544
1427.5402
1442.7815
1474.6600
1489.5495
1519.4171
1565.0589
1617.7531
1665.7800
1669.7982
1696.9571
1710.8271
1758.8701
1794.4925
2313.4095
2498.1498
2534.8008
2611.5318
2790.2043
2951.4635
3065.9093
3095.8008
3103.0679
3164.9374
3173.6024
3203.0463
3605.3057
3676.4129
3768.6406
3839.8380
3937.7978
3963.0104

SYMMETRY C1
ELECTRONIC_STATE 2-A
