30
Energy =   -1104.22730884     
    C    1.595340   -0.291716   -1.102105
    C    0.077000   -0.495544   -1.143342
    O   -0.659416    0.457888   -0.909477
    O   -0.258480   -1.709726   -1.367303
    N    1.854454    1.185163   -1.123952
    H    2.074558   -0.737611   -1.977192
    H    1.904172    1.548168   -2.078732
    H    1.075681    1.694862   -0.660385
    H   -1.315157   -1.848184   -1.074614
    O   -0.392155    3.051278   -0.550546
    H   -0.968296    2.514394   -1.118199
    H   -0.547268    3.980834   -0.758423
    H   -2.208039   -1.912470    0.470842
    O   -2.492123   -1.929974   -0.461169
    H   -2.999827   -1.091479   -0.575655
    H   -0.860855   -1.320618    2.564026
    O   -0.880910   -1.001695    1.654693
    H   -1.186753   -0.076307    1.687117
    O   -3.644196    0.517684   -0.339136
    H   -3.145237    0.989086    0.348763
    H   -4.581874    0.662355   -0.173785
    H   -2.061205    2.210022    2.310309
    O   -1.802129    1.692745    1.538774
    H   -1.232828    2.260045    0.988387
    C    2.143730   -0.907255    0.190648
    H    1.996402   -1.986115    0.126233
    H    1.569907   -0.543913    1.047565
    S    3.922293   -0.514112    0.386089
    H    3.867447   -0.167492    1.679183
    H    2.756428    1.370724   -0.655531

FREQUENCIES 84
24.5495
44.4269
45.5704
56.1906
77.9214
93.2500
97.8488
108.0469
113.7642
142.2638
159.3520
172.8784
178.2775
203.1173
205.7262
210.7024
229.8577
234.7622
265.8388
276.0462
284.6867
314.6326
324.0091
347.1192
372.6852
396.1881
426.0874
450.8092
458.5693
469.7600
505.0536
517.0896
574.2582
587.2966
621.7015
675.7415
682.6019
714.4441
751.2109
815.9661
829.3015
837.3709
875.1225
928.5686
952.8830
992.5641
1061.4758
1092.1798
1151.3507
1250.6903
1275.2328
1343.4726
1380.6743
1400.0779
1473.3448
1482.8043
1498.7017
1546.5769
1586.6079
1616.3515
1633.3456
1644.7813
1649.7178
1667.9154
1703.5182
1744.8657
1928.0533
2770.2118
3118.5614
3150.1905
3186.3845
3272.8803
3348.9172
3467.8043
3516.6989
3673.9803
3705.9854
3753.8838
3759.7482
3793.3086
3928.6309
3938.4009
3938.9197
3950.7438

SYMMETRY C1
ELECTRONIC_STATE 1-A
