30
Energy =   -1104.24303468     
    C    0.775070   -0.834166   -0.888196
    C   -0.740955   -0.738230   -0.734102
    O   -1.344393    0.262350   -1.072605
    O   -1.260043   -1.812556   -0.200725
    N    1.242780    0.502058   -1.334815
    H    1.013191   -1.577777   -1.656466
    H    2.268716    0.548964   -1.352769
    H    0.856141    0.751920   -2.245934
    H   -2.206600   -1.619675    0.077530
    O    3.210238    2.134805    0.033700
    H    3.498736    3.024196   -0.205797
    H    0.902599    1.239142   -0.603029
    H   -4.155597   -1.363082    1.252615
    O   -3.455023   -0.868804    0.811785
    H   -3.869831   -0.178484    0.231084
    H   -1.235890    0.470681    2.972285
    O   -1.192332    0.429155    2.010366
    H   -2.065762    0.114134    1.713648
    O   -4.017661    1.128062   -0.772092
    H   -3.181611    1.161252   -1.257612
    H   -4.720803    1.471693   -1.331906
    H   -0.255116    1.686968    1.121827
    O    0.422615    2.094106    0.541621
    H    1.182255    2.371782    1.070444
    C    1.438290   -1.212310    0.439605
    H    1.076118   -2.192471    0.750552
    H    1.144336   -0.495804    1.212533
    S    3.257925   -1.191256    0.377787
    H    3.989953    1.698902    0.400079
    H    3.421319   -2.337659   -0.300145

FREQUENCIES 84
32.8205
42.4201
54.9490
61.9080
73.5635
93.4328
106.2853
107.7813
115.7742
134.3267
136.8188
146.4761
165.1077
181.0645
200.3764
211.0252
241.0847
246.8942
262.5052
274.2271
306.3878
308.8821
316.1230
330.6506
353.8244
374.9996
396.1313
411.1014
425.9123
441.5389
457.9629
484.6511
526.1407
546.5326
572.3118
614.6978
633.4400
667.3668
713.9719
772.4720
802.6633
818.5022
860.8512
898.9040
964.4306
972.5394
1018.4265
1106.6830
1145.3093
1187.6553
1273.0868
1287.2112
1327.8395
1375.2115
1402.9221
1461.8695
1518.1001
1592.3415
1595.5041
1620.5617
1631.1409
1647.9623
1663.0759
1674.8294
1696.7522
1847.1669
2344.5670
2753.2092
3073.4955
3110.6595
3121.2928
3185.2574
3313.2055
3427.5272
3549.9137
3562.1894
3713.1725
3839.4135
3846.6871
3904.0648
3928.3334
3937.1431
3954.2851
3980.3271

SYMMETRY C1
ELECTRONIC_STATE 1-A
