30
Energy =   -1104.38122323     
    C    1.375989   -0.695653    0.333024
    C   -0.070852   -0.964428    0.692809
    H    2.064087   -1.285134    0.963153
    O   -0.532904   -2.130262    0.344243
    O   -0.343809   -0.456646    1.963407
    H   -1.259781   -0.737681    2.184752
    N    1.492307   -1.260541   -1.048557
    H    2.461476   -1.458133   -1.296207
    H    1.073493   -0.580328   -1.743189
    O   -3.098166   -0.484247    1.923199
    H   -3.243188   -0.918458    1.062463
    H   -3.112521    0.463957    1.732847
    O   -1.948649    0.979358   -1.534726
    H   -1.877162    1.422605   -0.669700
    H   -2.303434    0.086490   -1.332596
    H   -0.530129    0.850902   -2.138109
    O    0.415682    0.732429   -2.497143
    H    0.379490    0.900532   -3.444115
    H   -0.980648    1.215645    1.517952
    O   -1.580518    1.890083    1.136570
    H   -1.382628    2.734418    1.552706
    C    1.761648    0.776563    0.373074
    H    0.977455    1.384096   -0.085337
    H    1.864071    1.074810    1.418360
    S    3.345345    1.152426   -0.461167
    H    2.791649    1.421042   -1.656792
    H   -1.875460   -1.897703   -0.280457
    O   -2.757716   -1.527337   -0.657201
    H   -3.233373   -2.238161   -1.096026
    H    0.905039   -2.112293   -1.016313

FREQUENCIES 84
17.8201
57.0828
62.8242
79.3867
91.2216
97.0360
117.0936
140.1384
141.3732
149.1250
164.9289
174.3663
191.0743
203.5370
214.3595
227.0285
249.4023
255.1474
273.4094
308.9514
337.2846
341.8325
355.9049
365.6674
393.8268
407.6626
438.5400
464.8651
493.7923
501.6343
535.2975
555.8397
570.6602
618.6277
633.9130
658.5524
704.9519
735.6094
749.1219
798.9453
845.2366
862.6081
922.8869
941.6079
1013.8463
1062.3570
1105.0380
1132.6384
1160.8074
1172.5240
1195.9562
1258.9304
1282.3796
1342.1084
1348.7578
1396.4294
1466.4589
1476.7145
1510.3897
1622.0300
1634.0893
1652.2300
1665.9875
1677.6160
1704.9253
1725.9337
2637.0920
2727.4504
2766.3516
2915.4878
3006.1451
3113.0328
3176.1059
3309.6916
3524.6189
3544.7865
3553.5908
3583.6568
3691.9480
3729.9688
3880.7443
3940.6890
3959.8811
3963.2705

SYMMETRY C1
ELECTRONIC_STATE 2-A
