30
Energy =   -1104.34995892     
    C   -2.293286    0.197206    0.666629
    C   -0.937905    0.247759   -0.005115
    H   -2.121628    0.067160    1.747188
    O   -0.291601    1.303726    0.010592
    O   -0.520177   -0.905809   -0.430375
    H    1.207910    1.754416   -0.645908
    N   -2.907213    1.565499    0.555355
    H   -2.188376    2.286324    0.756027
    H   -3.268604    1.748988   -0.413134
    O    1.759082   -0.872005   -1.388178
    H    2.441000   -1.441893   -0.951083
    H    0.460114   -0.874932   -0.829911
    O    4.159567    1.939136    0.831640
    H    3.847763    2.371804    1.632004
    H    3.431087    1.984078    0.181177
    H    6.244439   -0.410354    0.615390
    O    5.351773   -0.504229    0.960818
    H    4.950380    0.392013    0.956464
    H    3.470357   -2.993151    0.448759
    O    3.667800   -2.279255   -0.163969
    H    4.323375   -1.688315    0.273595
    C   -3.210762   -0.907844    0.154388
    H   -3.316049   -0.846395   -0.931032
    H   -2.738419   -1.865300    0.385862
    S   -4.851554   -0.946758    0.940535
    H   -5.392738    0.044152    0.194573
    O    2.107692    1.880788   -1.032241
    H    2.123286    0.026736   -1.461843
    H    2.038388    2.561091   -1.710040
    H   -3.691974    1.695627    1.226549

FREQUENCIES 84
20.0351
31.0561
36.3088
49.0433
57.2216
62.2169
71.1638
88.5572
92.7265
104.5510
142.4845
160.9873
191.8379
200.3434
226.7910
236.3796
248.7759
257.4440
264.1648
289.8560
300.2945
332.2580
351.0492
355.5203
377.7416
387.6384
402.2407
429.2279
447.8664
476.4742
491.5357
540.0679
580.4161
650.0610
690.3137
727.9317
743.1989
783.9365
820.8228
829.7689
840.7027
858.2672
901.8736
943.9080
958.5217
960.7940
1069.9689
1093.2006
1151.8989
1219.2700
1238.0140
1271.6683
1310.5659
1356.8213
1378.7162
1422.6858
1454.1728
1529.8873
1559.9203
1594.9090
1633.3207
1643.1598
1658.3015
1672.2616
1697.4904
1737.0026
2233.3194
2592.8422
2840.0006
3049.3220
3113.5757
3151.5901
3172.9509
3258.9549
3315.5928
3382.7185
3435.2318
3522.7298
3627.6577
3763.3267
3943.0763
3960.5663
3962.3041
3963.6480

SYMMETRY C1
ELECTRONIC_STATE 2-A
