33
Energy =   -1180.65968282     
    C   -1.733430   -0.553382    0.123082
    C   -1.015122   -1.520643   -0.804419
    O    0.209174   -1.087944   -1.166815
    O   -1.528142   -2.519792   -1.220514
    N   -0.773105    0.270526    0.898230
    H   -2.311525   -1.161555    0.823203
    H   -1.301129    0.909845    1.502538
    H   -0.155956   -0.331533    1.463420
    H    1.261496   -2.243548    1.071222
    O    0.481768    1.707694   -0.968110
    H    1.124566    2.388144   -0.710719
    H   -0.177323    0.863088    0.242231
    H    3.581466    3.144712    0.280732
    O    2.986504    2.419006    0.062529
    H    2.747833    1.952065    0.888842
    H    2.124991    0.623353    2.845246
    O    1.976292    0.618582    1.892411
    H    3.221054    1.118164   -1.208248
    O    2.870738   -1.524665    0.355193
    H    3.711686   -1.987114    0.449290
    H    2.922005   -0.998134   -0.472171
    H    3.408510    0.273102   -2.515385
    O    2.920995    0.316204   -1.684515
    H    0.995593    1.067120   -1.487544
    C   -2.658744    0.355322   -0.697692
    H   -3.355764   -0.260321   -1.268718
    H   -2.065946    0.949872   -1.400145
    S   -3.555142    1.561857    0.331924
    H   -4.420505    0.690398    0.875963
    O    0.411099   -2.157596    1.536258
    H    0.256070   -2.972520    2.025199
    H    2.376780   -0.205360    1.549620
    H    0.581677   -1.737896   -1.785671

FREQUENCIES 93
17.4274
33.2921
47.3957
62.4256
71.8672
84.6638
91.4004
98.8808
104.0042
114.8402
131.1230
167.6838
175.2351
176.7743
188.7385
195.6058
209.7880
234.9067
243.0011
260.3418
265.8600
280.1041
292.5409
305.5600
318.2513
334.2315
342.2465
383.3725
387.8286
404.0166
417.2164
434.3250
465.0007
479.8030
501.8868
521.2765
541.0412
550.8418
573.9352
619.9677
640.3490
653.5052
694.9864
708.5042
733.6215
754.2080
774.6213
806.9427
821.6270
856.3857
941.8583
943.3598
998.6431
1091.9695
1152.1994
1160.3723
1227.5325
1281.3149
1289.1515
1359.8832
1375.6376
1415.0666
1462.9434
1550.7795
1622.0391
1631.9918
1639.0093
1648.0131
1661.7365
1667.7570
1682.3942
1716.6429
1917.2656
2694.6327
2723.2515
3106.1163
3144.5710
3177.2997
3368.5387
3463.0245
3506.1288
3584.5040
3612.3442
3644.0946
3736.2148
3762.4533
3807.0410
3834.6336
3924.5879
3927.4080
3933.3266
3945.4204
3951.2733

SYMMETRY C1
ELECTRONIC_STATE 1-A
