33
Energy =   -1180.64800937     
    C   -1.721038   -1.446327   -1.114940
    C   -0.470148   -0.605814   -1.386161
    O    0.443430   -1.215140   -2.128851
    O   -0.297876    0.513763   -0.943318
    N   -1.757350   -2.514550   -2.114063
    H   -2.582847   -0.771631   -1.157223
    H   -2.086900   -3.396123   -1.732955
    H    0.013462   -2.058121   -2.434283
    H    0.973916    1.766010   -1.637366
    O    3.421930   -0.483856    3.645512
    H    3.247225   -1.127384    4.340653
    H    4.313545   -0.147782    3.787584
    H    1.533159    2.565012    0.230362
    O    1.797128    2.261100   -1.468095
    H    1.886347    2.952954   -2.133926
    H    0.187331    2.431755    1.123214
    O    1.207374    2.361451    1.140741
    H    1.509668    1.326738    1.373007
    O    2.901397   -0.297711   -0.844747
    H    2.921047    0.595381   -1.224574
    H    2.376064   -0.828911   -1.458836
    H    2.297580   -0.213352    0.660629
    O    1.844756    0.050652    1.513176
    H    2.428860   -0.161218    2.276972
    C   -1.638957   -2.069169    0.291566
    H   -0.787435   -2.754003    0.350642
    H   -2.546850   -2.658681    0.445817
    S   -1.582091   -0.901776    1.683915
    H   -0.259747   -0.642994    1.630384
    H   -1.919185    2.695781    1.626516
    O   -1.309727    2.387451    0.945644
    H   -1.575581    1.488386    0.686606
    H   -2.344143   -2.281936   -2.909884

FREQUENCIES 93
31.5908
35.9517
55.5458
60.0009
63.7807
68.0473
81.4238
94.2366
101.7767
110.4587
130.4433
142.5685
151.9942
165.3112
169.1250
191.2249
203.2104
206.9638
232.8362
249.6787
263.6719
276.5851
302.7630
317.4008
324.5467
329.9174
331.1809
339.1985
364.1011
388.5286
404.7794
424.2841
441.3866
506.4386
520.4801
542.5582
606.7049
615.6097
659.0450
692.6115
730.7724
750.6673
776.8089
802.8983
829.6851
850.1015
874.5164
897.2477
930.2207
961.9937
1000.2771
1058.6583
1093.8869
1106.4578
1125.0070
1173.9555
1247.8391
1254.1237
1313.7263
1352.5722
1364.5885
1445.4793
1466.7792
1479.3569
1588.0163
1601.3096
1609.4406
1635.2548
1666.6623
1672.1825
1687.3310
1798.9377
1839.7655
1864.9528
2684.8309
2818.5442
3095.3950
3110.3328
3139.3916
3156.6469
3355.3850
3433.2857
3488.8652
3553.4365
3641.2227
3697.3524
3763.2540
3785.1355
3878.7556
3896.3351
3930.0173
3933.2307
3992.5439

SYMMETRY C1
ELECTRONIC_STATE 1-A
