33
Energy =   -1180.65315987     
    C    0.408342    0.468529   -0.566969
    C   -0.740407   -0.433923   -1.017848
    N    0.097636    1.837356   -1.073181
    O   -1.781868    0.042898   -1.411156
    O   -0.533201   -1.734768   -0.988869
    H    1.337835    0.136143   -1.041885
    H    0.961985    2.402745   -0.989578
    H   -0.187970    1.804581   -2.054586
    H    0.392484   -1.976182   -0.765944
    C    0.615821    0.582454    0.956088
    S    0.827601   -0.974268    1.865722
    H   -0.219988    1.121427    1.402790
    H    1.533749    1.151740    1.117950
    O    2.774343    2.365984   -0.950049
    H    3.264800    1.574486   -0.659346
    H    3.412584    3.061911   -1.137137
    H   -0.720306    2.233496   -0.520168
    H   -2.659528    3.133784    0.395652
    O   -1.943222    2.503289    0.526000
    H   -2.329400    1.659871    0.854541
    O   -2.465769    0.019253    1.521756
    H   -3.076205   -0.507712    0.951808
    H   -2.839434    0.002450    2.410842
    H    2.074602   -2.773950    0.325698
    O    2.137829   -2.488094   -0.598938
    H    2.415690   -3.250477   -1.124447
    O    3.558556   -0.082405    0.076299
    H    4.346480   -0.207223    0.617413
    H    3.324449   -0.950620   -0.290484
    H   -3.470879   -1.051119   -1.107789
    O   -3.993099   -1.204750   -0.306801
    H   -4.446780   -2.048450   -0.397326
    H   -0.485051   -1.264873    1.921838

FREQUENCIES 93
36.5678
42.2209
48.4520
59.2062
64.4671
81.8018
91.7619
97.3461
107.5502
120.9228
131.4600
145.8043
165.3762
171.3281
182.1011
198.2645
213.9089
220.0919
222.9046
236.2094
245.4727
254.7638
261.6581
269.2050
277.5942
290.3099
308.1328
315.6665
336.0999
344.5935
362.8396
382.2795
394.0944
419.8081
438.2111
455.3077
493.8595
510.0410
556.4957
564.3904
594.2938
624.7861
661.1008
687.9510
716.6622
758.3330
766.9033
817.7034
843.3083
881.5685
889.4020
999.5360
1024.1618
1077.5303
1170.0673
1197.1024
1257.4542
1306.9235
1331.3068
1357.8788
1384.1332
1446.8991
1480.8599
1569.4004
1591.2795
1596.3451
1621.2298
1633.0733
1650.3401
1664.8900
1685.2878
1691.8568
1872.7455
2728.1443
2756.5099
3130.5288
3137.7631
3202.2131
3276.3240
3397.1379
3501.6885
3507.6086
3533.8337
3665.6565
3768.6982
3808.0533
3824.2910
3921.7900
3924.5455
3940.6990
3947.0917
3952.4625
3974.6488

SYMMETRY C1
ELECTRONIC_STATE 1-A
