33
Energy =   -1180.76019040     
    C    0.381074    0.105989   -0.393981
    C   -0.898897   -0.596352   -0.824502
    N    0.366447    1.467243   -0.997151
    O   -1.845136    0.049908   -1.252634
    O   -0.927422   -1.898594   -0.738326
    H    1.253411   -0.422108   -0.816555
    H    1.278850    1.944839   -0.775568
    H    0.280277    1.396134   -2.016178
    H   -0.008333   -2.331399   -0.641746
    C    0.578511    0.270591    1.119490
    S    0.561064   -1.269103    2.082922
    H   -0.164110    0.957824    1.528016
    H    1.575501    0.699883    1.270318
    O   -4.125504   -1.037843   -0.166652
    H   -3.472469   -0.864061   -0.869263
    H   -4.996229   -0.846072   -0.526357
    O    2.859130    2.260563   -0.313596
    H    3.451265    1.533370   -0.646493
    H    3.361470    3.081703   -0.322449
    H   -0.448303    2.001055   -0.615729
    H   -2.395857    3.187064    0.097318
    O   -1.700617    2.627436    0.456720
    H   -2.143365    1.844315    0.852309
    O   -2.605661    0.313873    1.621828
    H   -3.262209   -0.186204    1.085552
    H   -2.895768    0.276580    2.538981
    H    1.922471   -2.754068    0.083105
    O    1.387195   -2.985119   -0.697000
    H    1.929589   -2.721890   -1.465052
    O    4.227211    0.179986   -1.241270
    H    4.184068   -0.554489   -0.599309
    H    3.744159   -0.167152   -2.017838
    H   -0.755123   -1.502001    1.928973

FREQUENCIES 93
22.4067
30.1684
37.4069
44.7889
52.6254
64.6147
71.5304
76.3051
97.7653
102.9827
118.6215
128.8400
135.5084
158.8994
179.9365
188.9277
204.3259
220.7634
234.7534
242.9606
247.1548
252.2198
255.4182
265.1079
274.5376
282.9854
301.3858
313.3937
343.0467
360.0792
364.8817
380.7423
390.5846
407.1275
432.4314
481.7391
493.4600
507.5603
529.4373
566.1177
591.6918
647.0574
661.1715
720.4961
759.4034
786.7215
830.7733
847.6686
883.5619
926.0556
1001.5272
1027.0552
1086.7568
1107.7145
1167.1945
1205.1386
1255.8191
1323.0223
1342.3797
1372.9757
1423.6462
1456.9320
1490.3571
1568.8493
1576.7723
1594.1121
1613.3524
1634.7498
1640.9566
1654.2492
1669.0147
1682.3731
1813.7644
2703.7578
2784.5103
2893.8758
2958.9727
3065.4842
3089.9560
3173.7462
3221.0623
3440.5254
3460.9406
3540.3052
3599.8737
3636.2506
3673.8699
3693.3592
3753.7981
3933.8460
3943.2456
3952.4485
3969.7851

SYMMETRY C1
ELECTRONIC_STATE 2-A
