33
Energy =   -1180.65520421     
    C    0.934886    0.599460   -0.896957
    C   -0.595333    0.716326   -0.972147
    O   -1.181068    1.522718   -0.253928
    O   -1.129776   -0.110484   -1.799323
    N    1.317296    1.181226    0.424587
    H    1.388067    1.224130   -1.674480
    H    2.308556    1.048073    0.641734
    H    1.086699    2.195995    0.419135
    H   -2.143667   -0.326700   -1.540511
    O    2.262019   -0.634306    2.438918
    H    2.759792   -0.636769    3.265083
    H    0.775796    0.689806    1.158660
    H   -2.914280   -1.764783   -0.644157
    O   -3.279749   -0.908101   -0.951135
    H   -3.551941   -0.444470   -0.141222
    H   -1.680974   -3.650479    0.433853
    O   -1.573534   -2.748877    0.113244
    H   -1.159392   -2.225141    0.818875
    O   -2.980275    0.507317    1.530398
    H   -3.641472    0.884935    2.121974
    H   -2.600982    1.226181    0.995530
    H   -1.324690   -0.302417    2.004132
    O   -0.461671   -0.663471    1.721705
    H    0.071955   -0.895997    2.495566
    C    1.374143   -0.854712   -1.035368
    H    1.116234   -1.182184   -2.042338
    H    0.832854   -1.477405   -0.319332
    S    3.183638   -0.983289   -0.780080
    H    2.782613   -1.155842    1.808187
    H   -0.402238    3.642874   -0.431420
    O    0.553739    3.709165   -0.307278
    H    0.801099    4.639557   -0.344728
    H    3.292199   -2.281197   -1.096710

FREQUENCIES 93
28.7163
42.5523
52.3174
56.5519
76.7102
79.2362
84.6865
98.6919
109.1857
136.4318
141.0031
162.3358
173.8902
180.3078
191.5425
205.8226
216.1973
227.5497
233.6260
255.8675
270.3228
276.7071
279.6408
292.7685
301.0257
330.9226
335.2141
343.5090
351.2871
373.0641
383.3343
399.9034
411.6554
426.0483
451.4721
467.6300
498.2613
517.0033
537.9904
569.5942
624.5417
628.3009
657.9293
730.2545
758.7243
797.7639
808.7174
840.4619
870.0907
900.7836
931.2440
990.6807
1108.9151
1120.7887
1172.8936
1217.1063
1277.3872
1291.4661
1362.3903
1392.5678
1455.0649
1481.3694
1541.4868
1573.1012
1576.7350
1586.2584
1593.2105
1615.6655
1630.4013
1644.2709
1670.3885
1697.6870
1780.4020
2193.6466
2766.0806
3125.4308
3137.2936
3188.2358
3206.3926
3305.9737
3504.1696
3596.4871
3654.5979
3737.6326
3755.0272
3782.8013
3796.9913
3844.6017
3876.5309
3937.5502
3941.6108
3953.5721
3971.0106

SYMMETRY C1
ELECTRONIC_STATE 1-A
