33
Energy =   -1180.64781351     
    C   -0.763523    1.294424   -0.103162
    C   -0.442210    0.131474   -1.060714
    O    0.821481   -0.214331   -1.262400
    O   -1.323882   -0.421792   -1.674203
    N   -0.671152    0.850546    1.319239
    H   -1.814847    1.528383   -0.296849
    H   -0.831250    1.648669    1.939038
    H   -1.420755    0.149638    1.510114
    H    0.283809    0.383296    1.596680
    O    3.130259   -0.957580    0.020631
    O    1.451842   -0.405608    2.129137
    H    2.235964   -0.479108    1.549548
    H    2.793980   -1.801234   -0.333772
    H    1.040108   -1.286256    2.106235
    H    1.536248   -3.757907   -1.514190
    O    1.406808   -2.903582   -1.085611
    H    1.090941   -2.282552   -1.759147
    H   -1.336119   -2.196296    0.974407
    O   -0.402753   -1.958634    0.886365
    H    0.017245   -2.560570    0.250374
    C    0.071297    2.554119   -0.344331
    H   -0.405037    3.398236    0.161195
    H    0.078255    2.771198   -1.414254
    S    1.795557    2.383985    0.266293
    H    1.490999    0.243115   -0.708399
    O   -2.894003   -0.866711    1.501916
    H   -3.459745   -0.549280    0.764346
    H   -3.466559   -1.064515    2.251345
    H    4.092015   -0.979254   -0.031339
    H   -4.699113    0.366643   -1.158233
    O   -3.831641    0.288067   -0.746649
    H   -3.211059   -0.060379   -1.408282
    H    2.391607    2.974456   -0.778507

FREQUENCIES 93
48.2672
55.2797
62.7826
72.0523
76.9422
93.8763
102.5282
109.3333
118.4412
135.6100
143.6226
154.1659
169.9597
184.1873
214.0334
218.6923
222.0224
228.9359
243.4557
247.7350
254.3191
262.6297
278.6445
293.4277
305.4405
312.8739
331.3465
358.9135
362.6991
382.4917
402.2413
416.6244
454.0275
486.7377
494.1547
515.9473
549.9409
575.7754
581.0063
644.4216
656.9795
675.8682
684.4126
705.1880
728.5602
762.6124
776.8603
781.5692
831.4218
848.1316
888.5671
973.4303
999.0662
1096.0363
1175.7181
1194.6609
1219.9178
1256.5708
1329.7167
1384.9871
1392.0433
1424.3191
1485.4986
1593.4746
1597.8112
1605.6114
1632.8121
1638.4779
1647.8277
1662.7895
1695.2134
1730.2046
1876.4834
2225.8461
2779.4400
3102.1150
3137.2150
3143.0594
3166.0703
3495.9225
3525.9783
3576.4439
3629.6699
3713.2874
3757.0935
3762.1818
3788.4485
3821.1150
3896.4421
3930.8373
3945.1295
3951.7770
3955.9083

SYMMETRY C1
ELECTRONIC_STATE 1-A
