33
Energy =   -1180.79566721     
    C   -1.462894   -0.555056   -0.485574
    C   -0.106755   -0.222040   -1.101579
    O   -0.166906    0.690978   -2.177267
    O    0.689493   -1.223789   -1.314289
    N   -1.225247   -0.893044    0.957434
    H   -1.871645   -1.467131   -0.947433
    H   -2.070274   -1.303576    1.360583
    H   -0.404047   -1.563099    1.072439
    H   -1.008137   -0.007175    1.466328
    O    3.069016   -0.675584    1.350306
    O   -0.749578    1.692317    1.800028
    H    3.905351   -0.687903    1.826166
    H    0.213994    1.807451    1.514579
    H    3.275024   -0.765956    0.384118
    H   -0.846589    2.182470    2.622675
    H    2.171800    1.007203    1.343178
    O    1.740882    1.856564    1.138716
    H    1.931990    2.002404    0.185736
    H    2.147527   -0.970713   -1.408978
    O    3.162698   -0.811201   -1.298357
    H    3.624468   -1.445045   -1.855622
    H    1.612302    1.508481   -2.019783
    O    2.388845    1.861303   -1.555230
    H    3.010817    1.115233   -1.568767
    H    1.683324   -2.047675    1.424280
    O    0.917881   -2.504741    1.034318
    H    0.976161   -2.287566    0.075317
    C   -2.478150    0.582459   -0.585218
    H   -2.807237    0.670625   -1.622204
    H   -2.023643    1.524328   -0.264422
    S   -3.984541    0.341789    0.425833
    H   -3.534336    1.019130    1.495182
    H   -0.611056    1.497384   -1.885821

FREQUENCIES 93
26.4304
52.1008
61.0998
65.2992
70.3071
81.0090
97.0876
116.3856
135.2343
149.1605
169.0997
177.3161
181.9511
197.8658
205.8293
227.6502
233.4499
244.9344
257.1171
271.1768
317.8284
322.2302
347.1167
354.1482
357.7773
360.1381
387.6692
397.8692
437.3239
458.8964
482.6038
492.5449
504.1257
554.7737
564.7451
567.9157
599.0027
611.5750
638.9436
658.2087
706.3246
721.2141
758.5269
768.7448
805.0046
834.5327
855.1290
899.8803
915.2747
935.6340
1030.2232
1083.1351
1124.7168
1137.6246
1145.7940
1159.9888
1180.3851
1230.2403
1260.7693
1294.2188
1349.8200
1406.4741
1471.3533
1499.1369
1601.5530
1650.1908
1666.7534
1674.3128
1680.3421
1701.2088
1708.6843
1734.4096
1741.5767
2577.6884
2698.3815
2728.1174
2914.3178
3040.2812
3106.8807
3119.2251
3176.5046
3303.1687
3488.8975
3500.9504
3527.1796
3711.9464
3755.9693
3776.2627
3811.7934
3876.5767
3940.3536
3948.1916
3950.4647

SYMMETRY C1
ELECTRONIC_STATE 2-A
