33
Energy =   -1180.64947672     
    C    1.047680    0.338704   -0.743625
    C   -0.382845    0.904055   -0.700044
    O   -1.384564    0.178738   -1.150533
    O   -0.551894    2.047390   -0.332388
    N    1.723807    0.790536    0.503368
    H    1.516373    0.891145   -1.568125
    H    2.639275    0.315024    0.600708
    H    1.866001    1.817191    0.448699
    H    1.107899    0.558620    1.314266
    O   -1.860599   -2.273954   -0.633137
    O   -0.392466    0.042610    2.106993
    H   -0.377484   -0.265641    3.019654
    H   -2.802331   -2.075924   -0.486922
    H   -1.276024    0.475869    1.957989
    H   -5.016979   -0.645937   -0.422004
    O   -4.055490   -0.567469   -0.456427
    H   -3.844000   -0.049484   -1.245441
    H   -2.416223    1.880827    0.845627
    O   -2.681135    1.166364    1.441770
    H   -3.230078    0.562149    0.915691
    C    1.247821   -1.156511   -1.012793
    H    2.245367   -1.288569   -1.438414
    H    0.536229   -1.486919   -1.774075
    S    1.243812   -2.284730    0.415594
    H   -1.292698   -0.812251   -1.089531
    O    1.873751    3.406872   -0.376455
    H    0.932797    3.617850   -0.452295
    H    2.365700    4.234069   -0.340248
    H   -1.776008   -3.171598   -0.973007
    H    4.047387   -1.574362    0.935506
    O    4.098820   -0.757497    0.423202
    H    5.033578   -0.534922    0.341479
    H    0.014996   -1.995181    0.874350

FREQUENCIES 93
31.3945
43.1428
52.3408
56.4842
70.2066
80.1366
90.7316
99.7313
106.5590
117.2657
134.6074
139.1531
156.6943
167.8418
178.5049
190.1576
194.5712
215.3017
216.7062
233.7674
254.1675
259.7686
282.0779
291.9084
301.0583
310.5383
327.5577
334.3091
357.0962
366.1512
372.4216
386.4148
392.4328
431.0873
451.1907
458.2832
481.1572
484.5624
513.7854
539.4645
558.5201
602.3683
603.3926
666.4386
687.4182
715.0439
782.7931
821.5179
866.5060
905.6138
970.1492
1000.3790
1053.7336
1110.8608
1169.1263
1227.8473
1258.9353
1285.7725
1348.9088
1365.5139
1379.0087
1441.8891
1483.8980
1561.8858
1590.7567
1602.7637
1619.4550
1625.0325
1654.8396
1674.0022
1678.1916
1697.2591
1852.6134
2737.6408
3089.9706
3108.1650
3113.7935
3165.7168
3211.3654
3223.1521
3252.9293
3272.9611
3740.2844
3766.1685
3838.6358
3839.7377
3853.0271
3885.5957
3936.4687
3947.6143
3952.4587
3968.4877
3974.9627

SYMMETRY C1
ELECTRONIC_STATE 1-A
