33
Energy =   -1180.64429244     
    C    0.670911   -0.882513    0.384218
    C    1.493585   -2.159052    0.140302
    N    1.451088   -0.066732    1.360887
    O    2.486719   -2.374402    0.787693
    O    1.039917   -3.000932   -0.772729
    H   -0.278243   -1.155294    0.859585
    H    0.805662    0.488735    1.952206
    H    2.030172   -0.705284    1.921618
    H    0.227726   -2.672005   -1.205306
    C    0.376680   -0.030160   -0.854859
    S   -0.896615   -0.793414   -1.925718
    H    1.284898    0.150801   -1.432949
    H   -0.011988    0.936119   -0.526207
    O   -0.704317    1.380410    2.452087
    H   -1.454887    0.892580    2.031436
    H   -0.925526    1.553845    3.374387
    O    1.034861    3.022515   -1.528864
    H    0.211610    3.190026   -1.036424
    H    1.113095    3.690447   -2.217641
    H    2.100540    0.595144    0.853819
    H    3.794913    1.960331   -0.076008
    O    2.887700    1.644897   -0.140973
    H    2.363452    2.280914   -0.675689
    O   -1.231957    2.957569    0.161295
    H   -0.959430    2.763138    1.076160
    H   -1.801754    3.735100    0.200559
    H   -4.507036   -1.966875   -0.458273
    O   -4.377972   -1.432408    0.332812
    H   -5.179261   -1.516813    0.860930
    O   -2.270754    0.289649    0.663981
    H   -2.393070    1.056277    0.084873
    H   -3.054399   -0.289311    0.568094
    H   -0.148581   -0.850047   -3.038161

FREQUENCIES 93
14.4851
23.6507
36.9168
43.5936
54.1852
64.8314
69.3220
74.1158
93.6084
108.4186
124.8658
143.9425
164.2619
177.4110
187.0467
201.8359
208.0733
218.4726
219.3652
236.6671
255.0226
274.1882
276.6971
283.7769
287.3716
299.3092
316.4822
328.4579
340.4394
366.4365
376.8835
400.0517
416.5772
461.0670
485.8495
514.8106
523.0894
538.6898
559.6599
583.4429
592.0354
624.3267
663.9727
705.2439
738.8374
779.5464
802.0759
806.5007
820.3603
901.1004
977.3989
994.7034
1037.7514
1105.5652
1169.9565
1197.3183
1240.6723
1268.8842
1322.0256
1357.9559
1393.5275
1448.0949
1475.8992
1565.6945
1601.0341
1623.1786
1630.4286
1639.9805
1645.5442
1658.3845
1671.0361
1716.1082
1895.2925
2730.8555
2863.1075
3123.4139
3132.8179
3189.1560
3233.3670
3373.3260
3432.0772
3512.9526
3589.7349
3624.9361
3696.4849
3732.4984
3851.5240
3876.6111
3926.9255
3930.6724
3951.3395
3960.7428
3988.9958

SYMMETRY C1
ELECTRONIC_STATE 1-A
