33
Energy =   -1180.66321427     
    C   -1.773133    0.147395    0.139251
    C   -0.491045   -0.621757    0.451118
    H   -1.680235    1.170453    0.517238
    O   -0.065987   -1.431859   -0.364536
    O    0.021794   -0.329867    1.601637
    H    1.014688   -0.706953    1.701440
    N   -1.853417    0.232115   -1.341877
    H   -0.966317    0.798638   -1.644697
    H   -1.781052   -0.707879   -1.743006
    O    2.384907   -1.004477    1.741841
    H    2.938151   -0.214589    1.575441
    H    2.644165   -1.671255    1.080366
    O    2.897604    0.137013   -1.715949
    H    3.390711    0.218286   -2.541391
    H    2.856179   -0.817120   -1.496111
    H    4.453368    1.662073    0.917606
    O    3.587994    1.282239    0.726022
    H    3.569607    1.017544   -0.214768
    C   -2.996181   -0.540547    0.746505
    H   -3.082066   -1.559120    0.358267
    H   -2.864837   -0.591313    1.829099
    S   -4.501158    0.419906    0.335681
    H   -2.737645    0.665159   -1.628104
    O    2.482602   -2.395801   -0.672112
    H    1.507455   -2.387649   -0.647997
    H    2.778520   -3.272176   -0.944139
    H    1.174470    0.964345   -1.801018
    O    0.375248    1.484500   -1.597963
    H    0.575232    1.951030   -0.751231
    H    0.602628    1.933734    1.613880
    O    1.000002    2.392362    0.863178
    H    1.960670    2.269972    0.957981
    H   -5.288138   -0.627284    0.053467

FREQUENCIES 93
30.2353
53.8649
59.2857
63.7340
73.3063
86.9443
93.9272
109.5463
117.2613
135.5409
160.1789
162.1666
182.6023
184.8518
192.9490
211.1491
224.0455
228.9112
236.7557
247.2911
248.9694
268.3858
319.4879
336.5651
347.0693
363.8019
370.5068
388.1924
407.2924
443.4403
457.8871
476.7210
490.7801
527.9702
536.1104
564.3890
603.7753
612.2290
660.0451
692.3271
706.2955
725.8339
769.8497
783.9061
825.1216
831.6242
842.6021
871.8654
883.7964
903.3551
957.4064
1034.2895
1105.2928
1129.6615
1182.7037
1257.1644
1268.3848
1286.7803
1355.4383
1396.5455
1472.4236
1485.1383
1502.1622
1583.8367
1595.1375
1601.7263
1622.1271
1648.8148
1666.0506
1704.1487
1723.0762
1732.4131
1799.4297
2212.7614
2360.5721
2703.3383
3104.2350
3130.1006
3173.7060
3416.6611
3443.7356
3521.1203
3572.3407
3616.2584
3657.6636
3683.2599
3722.3216
3742.0682
3754.5469
3913.3048
3918.5961
3931.9534
3936.2082

SYMMETRY C1
ELECTRONIC_STATE 1-A
