33
Energy =   -1180.66008638     
    C    1.610645   -0.123906   -0.035314
    C    0.271791   -0.453514    0.617142
    H    1.448143   -0.140841   -1.118030
    O   -0.317737    0.428824    1.242624
    O   -0.096714   -1.666937    0.435927
    H   -1.149017   -1.829771    0.674112
    N    1.952007    1.279358    0.337334
    H    1.246533    1.961397   -0.076552
    H    1.897227    1.393691    1.353708
    O   -2.481719   -2.007792    0.777046
    H   -2.834016   -2.046625   -0.147719
    H   -2.937900   -1.292045    1.252234
    O   -2.499759    1.890806   -0.330472
    H   -3.285751    2.293651   -0.717854
    H   -2.781347    1.459455    0.504751
    H   -0.737647    0.577022   -2.723840
    O   -0.975506    0.116137   -1.911049
    H   -1.559416    0.727919   -1.422054
    H   -3.158268   -2.538376   -2.433364
    O   -2.980187   -1.828673   -1.808073
    H   -2.201775   -1.329105   -2.112888
    C    2.719856   -1.092609    0.367508
    H    2.866880   -1.077570    1.451205
    H    2.412337   -2.097677    0.078054
    S    4.277783   -0.627531   -0.479424
    H    2.907855    1.487240    0.022730
    O   -2.910499    0.479794    2.002115
    H   -1.944489    0.464329    2.140118
    H   -3.341033    0.740385    2.824203
    H    0.101582    3.814416   -0.839869
    O    0.064917    2.863460   -0.689937
    H   -0.847805    2.634226   -0.417156
    H    5.098673   -0.840882    0.557042

FREQUENCIES 93
25.9455
45.9546
54.3836
58.4689
59.7245
70.5829
83.4081
98.6591
107.5666
120.5795
129.3306
163.1839
165.9532
180.9815
189.6293
196.1544
221.5703
224.7755
237.5239
244.3032
265.7806
277.1695
296.0215
315.3609
329.2671
338.6116
363.2280
374.3769
380.9997
391.4750
404.4691
426.3460
440.6667
483.8681
494.5726
539.9801
570.8158
594.4689
615.7178
639.0946
683.8026
718.7486
728.6299
761.0255
802.7491
825.0777
843.1494
857.6314
877.4389
930.0439
959.0875
1024.1680
1097.0296
1117.8395
1175.8506
1261.1838
1276.2560
1327.4677
1354.1207
1395.9370
1480.1640
1488.6501
1562.0567
1573.6339
1603.5436
1619.4503
1628.9949
1636.5821
1654.2661
1661.3872
1674.7868
1683.3542
1754.1261
1987.7408
2738.6460
2779.4489
3110.2827
3134.1609
3190.9743
3350.9105
3413.8651
3511.4773
3533.0784
3586.7114
3660.0173
3677.5032
3722.7242
3776.1488
3926.9825
3930.0627
3939.1472
3940.9716
3961.5082

SYMMETRY C1
ELECTRONIC_STATE 1-A
