33
Energy =   -1180.66084644     
    C    1.497692    0.018088   -0.222384
    C    0.357775    0.869319   -0.811937
    O    0.404623    2.080440   -0.653005
    O   -0.600192    0.318490   -1.493253
    N    1.842176    0.644757    1.087340
    H    2.363773    0.166834   -0.878739
    H    2.526157    0.048177    1.569174
    H    2.249442    1.591679    0.928215
    H    2.214691    3.289320   -0.452207
    O   -0.834705    0.448469    1.634682
    H   -1.368704   -0.364687    1.658432
    H    0.965688    0.701644    1.643034
    H   -1.701414   -2.294936   -0.696596
    O   -1.252221   -2.121031   -1.549540
    H   -1.912890   -2.229909   -2.245154
    H   -3.175454    0.806231   -0.569492
    O   -3.590156   -0.074396   -0.652565
    H   -2.741309    3.139246    0.230960
    O   -2.384996   -1.811124    0.933163
    H   -3.048623   -1.225695    0.494378
    H   -2.851170   -2.419665    1.517927
    H   -1.479475    2.528874   -0.462560
    O   -2.282737    2.311926    0.045451
    H   -1.431836    1.166532    1.360172
    C    1.224410   -1.472834   -0.044522
    H    1.032944   -1.939396   -1.010868
    H    0.336893   -1.625715    0.577774
    S    2.582955   -2.350859    0.800328
    H    3.453454   -2.300336   -0.221482
    O    2.952297    2.909393    0.044380
    H    3.627890    3.586059    0.160126
    H   -4.507843    0.067494   -0.907709
    H   -0.751750   -0.694289   -1.485560

FREQUENCIES 93
37.3267
42.3388
47.2915
53.4341
73.6185
79.8320
113.7757
118.3094
130.3899
144.2904
158.9528
169.1053
189.0901
193.4461
209.9346
215.7566
217.9580
231.8501
255.9980
262.8112
280.0874
283.6179
291.9357
311.0654
314.9246
342.2496
349.7046
367.9675
377.9755
380.9259
394.5390
408.8876
431.1047
460.4955
477.1641
518.2746
542.5101
550.0135
564.8144
624.4345
640.5956
670.7401
693.7980
735.4752
738.9776
773.0604
807.0363
829.2123
882.0076
918.4207
971.7052
1029.8670
1096.9792
1130.2543
1158.3571
1206.2509
1290.9516
1306.5142
1354.3524
1375.5515
1395.2052
1466.9695
1482.3576
1520.4638
1585.7776
1611.1245
1636.3166
1651.9000
1661.7726
1665.2051
1677.1281
1704.4508
1815.1285
2712.2293
2770.3484
3103.3853
3123.0533
3128.9076
3193.4433
3234.1455
3394.2021
3429.5644
3597.3022
3657.4627
3690.1615
3721.7364
3786.2119
3841.0930
3915.7677
3929.2326
3937.3959
3948.3414
3973.5598

SYMMETRY C1
ELECTRONIC_STATE 1-A
