33
Energy =   -1180.66019944     
    C   -1.313009   -1.412274   -0.200425
    C    0.213672   -1.479199   -0.204276
    O    0.826845   -1.431268    0.847277
    O    0.707555   -1.613226   -1.396559
    N   -1.733248   -1.135512    1.205297
    H   -1.706092   -2.396779   -0.477663
    H   -2.753558   -1.009234    1.223418
    H   -1.461681   -1.903206    1.823717
    H    1.735686   -1.528973   -1.372430
    O   -0.527552    1.075635    2.225304
    H    0.484571    0.922386    2.274048
    H   -0.798478    1.355518    3.109083
    H   -0.893521    2.371771    0.928630
    O   -0.990748    2.665975    0.004613
    H   -1.312688    3.573666    0.001497
    H    4.152369    1.732382   -0.046359
    O    3.427179    1.115365    0.104222
    H    2.643360    1.419946   -0.410319
    O    1.090953    1.363023   -1.133969
    H    0.411458    2.012126   -0.857337
    H    1.060644    1.299434   -2.095544
    H    1.964971   -0.383543    2.149916
    O    1.956773    0.553085    2.396970
    H    2.588554    0.962641    1.777089
    C   -1.869935   -0.341695   -1.137922
    H   -1.570581   -0.583391   -2.158584
    H   -1.456833    0.638656   -0.883173
    S   -3.677084   -0.149993   -1.006896
    H   -4.006438   -1.308011   -1.602598
    O    3.191795   -1.214284   -1.354702
    H    3.852889   -1.913988   -1.319584
    H    3.460146   -0.491351   -0.750192
    H   -1.263020   -0.257184    1.592088

FREQUENCIES 93
43.0704
43.7659
54.5386
59.9615
66.1814
77.5146
80.2691
91.4796
111.7026
134.5352
153.3712
172.6844
184.4530
199.3258
201.1023
218.1001
226.7279
239.3368
257.9446
280.4701
292.0559
301.2445
308.5306
319.8473
326.7366
338.4372
360.3316
371.2513
376.8468
414.8837
444.9780
458.7756
464.6699
471.5251
525.6248
539.5831
546.6007
557.5045
627.9321
633.3934
705.6553
716.5938
727.7370
760.5818
791.2147
808.5656
813.6901
876.6549
965.0199
978.1033
1007.3372
1092.8936
1138.0396
1176.4573
1196.3337
1241.7683
1275.6501
1284.0336
1348.2201
1380.3443
1420.9974
1478.8390
1526.8291
1559.1629
1591.7717
1612.7941
1651.2404
1661.8730
1664.1990
1669.7743
1684.6608
1718.9748
1834.2680
2623.9134
2676.1475
2736.0914
2821.4741
3109.1506
3126.1013
3189.0324
3411.3154
3426.2805
3532.7006
3565.4306
3580.2411
3695.7881
3701.6132
3868.1787
3895.6380
3929.1338
3931.8846
3937.7157
3950.9401

SYMMETRY C1
ELECTRONIC_STATE 1-A
