33
Energy =   -1180.65674322     
    C    0.768609    0.006424   -1.536036
    C   -0.450906   -0.934548   -1.459518
    O   -0.437469   -1.909228   -0.742477
    O   -1.480140   -0.681588   -2.245596
    N    0.522932    1.223618   -0.706983
    H    0.876786    0.343745   -2.573073
    H    1.391655    1.748835   -0.532386
    H   -0.164991    1.832005   -1.175637
    H    0.156876    1.018523    0.271546
    O   -2.326396    0.898797   -0.002754
    O    2.302515    2.281046    1.213214
    H   -2.123169    1.250119    0.876256
    H    2.877682    3.009923    1.474894
    H   -2.734095    0.024932    0.138045
    H    2.748949    1.457496    1.461186
    H    0.401402    1.632779    2.294435
    O   -0.308413    1.141200    1.858830
    H   -0.375153    0.244673    2.257763
    H   -2.275320   -2.256577   -0.126125
    O   -2.822656   -1.842156    0.563492
    H   -3.655051   -2.326155    0.614369
    H   -0.708871   -1.953509    3.208198
    O   -0.694331   -1.471393    2.373980
    H   -1.498908   -1.723015    1.882135
    H   -2.308773    1.876351   -1.576276
    O   -1.691050    1.999428   -2.326677
    H   -2.052153    2.655055   -2.934446
    C    2.051582   -0.717884   -1.122189
    H    2.914657   -0.139393   -1.463775
    H    2.080052   -1.682485   -1.632425
    S    2.323403   -0.960816    0.662762
    H    1.165946   -1.587990    0.944225
    H   -1.491115    0.235124   -2.599471

FREQUENCIES 93
44.4373
57.5493
67.2182
74.7824
78.0877
92.7875
99.6857
109.4050
120.7426
141.9503
150.7225
163.9763
177.8455
179.6206
189.0700
209.7638
219.0532
238.0559
247.6822
252.3036
288.0969
290.7131
296.5636
311.2767
327.4181
341.9682
361.1280
374.1645
387.3585
413.5750
419.8061
437.3494
459.4486
473.9705
501.6612
511.0184
530.9543
557.1497
572.3135
627.9225
650.6914
664.2149
693.8846
700.7582
729.5455
764.7398
777.2538
815.0801
827.0803
870.3977
921.2250
972.7402
1020.8327
1089.1940
1137.5164
1177.8915
1248.5796
1290.1461
1341.5098
1359.9421
1382.4142
1457.5404
1464.9797
1576.9656
1588.0375
1599.7569
1613.6563
1631.2207
1646.6298
1667.7866
1683.2495
1694.3346
1872.7166
2727.1428
2782.7422
3106.7215
3115.4716
3167.1145
3349.3487
3423.1565
3493.2484
3513.5874
3625.3127
3669.6214
3697.1961
3756.4123
3799.3921
3855.3420
3886.3282
3938.0651
3938.8925
3941.2922
3945.1344

SYMMETRY C1
ELECTRONIC_STATE 1-A
