33
Energy =   -1180.65822596     
    C    1.581385   -0.447897   -0.724233
    C    0.180357   -1.077780   -0.750551
    O   -0.505160   -1.159557    0.377311
    O   -0.238023   -1.573460   -1.770675
    N    1.540788    1.015170   -0.432071
    H    1.971028   -0.552754   -1.739199
    H    2.512047    1.319871   -0.278379
    H    1.137981    1.552557   -1.251804
    H    0.999811    1.219676    0.426562
    O    0.423046    2.137233   -2.574765
    O    0.126564    0.869524    2.030907
    H   -0.502411    2.149546   -2.269116
    H    0.489220    0.832003    2.924053
    H    0.572180    2.847789   -3.206402
    H   -0.761525    1.319077    2.085979
    H   -3.169347   -0.889530    0.554249
    O   -3.271302   -0.563974    1.469024
    H   -3.976968   -1.067505    1.886920
    H   -1.830383    1.840581   -0.068109
    O   -1.417085    1.389626   -0.822718
    H   -2.030636    0.670772   -1.066468
    H   -3.624170   -1.128593   -1.911621
    O   -2.911241   -0.983376   -1.279187
    H   -2.151779   -1.525305   -1.563474
    C    2.486514   -1.169160    0.280506
    H    2.084625   -1.081581    1.294688
    H    2.522727   -2.232880    0.035685
    S    4.168945   -0.472966    0.356165
    H    4.575326   -0.931141   -0.838356
    H   -2.784141    2.500352    2.320140
    O   -2.305361    1.834326    1.814830
    H   -2.839442    0.996610    1.788692
    H   -0.220954   -0.544946    1.095663

FREQUENCIES 93
40.0259
50.4585
60.8131
62.8251
69.5095
75.8927
93.2669
104.8334
124.3068
130.6107
153.2114
170.7029
180.3342
182.9163
193.9577
207.4531
224.0662
228.3132
243.5574
270.7405
281.6676
292.4787
299.3259
307.3220
334.9608
357.4405
368.7448
382.7801
393.0935
399.2574
426.7908
447.6555
492.3239
501.1922
538.7110
556.6439
568.6498
602.3297
623.6747
662.0804
682.4835
708.1070
729.4341
737.8594
782.8225
798.3336
814.8165
830.7623
871.8362
912.8023
959.2224
1025.4932
1039.1807
1090.5147
1164.4316
1181.3319
1277.6842
1291.8122
1317.0801
1369.1585
1402.3532
1424.8438
1466.3505
1564.2067
1583.8560
1615.8587
1635.4637
1661.9943
1667.3124
1679.2163
1705.4784
1715.1612
1869.1355
2761.4152
2816.7228
3103.8899
3156.1254
3167.8925
3171.3676
3280.6613
3305.3247
3399.6535
3432.6316
3646.0268
3666.4822
3698.0483
3717.8487
3786.9009
3917.5391
3935.7895
3938.9047
3956.4569
3957.3001

SYMMETRY C1
ELECTRONIC_STATE 1-A
