33
Energy =   -1180.77036826     
    C   -1.401550   -0.628661   -1.353425
    C   -0.175170    0.262749   -1.285869
    H   -1.340091   -1.183379   -2.302642
    O    0.948119   -0.214714   -1.294530
    O   -0.438525    1.564636   -1.292950
    H    0.412882    2.055874   -1.104881
    N   -1.245129   -1.663352   -0.285107
    H   -1.975232   -2.399067   -0.345400
    H   -0.296637   -2.149959   -0.338725
    O    1.798536    2.558224   -0.362253
    H    2.560690    1.944354   -0.608736
    H    2.122015    3.464788   -0.372505
    O    2.879566   -1.022083    0.984300
    H    2.252360   -0.350423    1.371082
    H    3.382619   -1.384746    1.721520
    H   -0.544048   -1.602215    2.787311
    O   -0.963295   -0.783719    2.456614
    H   -1.844221   -0.752269    2.868010
    H    0.391654    0.557086    2.091688
    O    1.291340    0.878524    1.910707
    H    1.250719    1.596222    1.257454
    C   -2.750215    0.080320   -1.291054
    H   -2.774794    0.853131   -2.061872
    H   -3.539974   -0.643056   -1.513645
    S   -3.218928    0.807892    0.312996
    H   -2.239558    1.726372    0.337323
    H    3.628812    0.154202   -0.281249
    O    3.551451    0.768196   -1.036795
    H    2.921981    0.304090   -1.610277
    H    1.790134   -2.254709    0.105711
    O    1.144968   -2.929883   -0.193625
    H    1.085783   -3.578025    0.522052
    H   -1.304612   -1.245010    0.665956

FREQUENCIES 93
41.6626
56.7851
60.7176
68.7480
75.1246
81.3586
90.0721
95.2035
105.2358
125.0070
137.4906
145.0865
160.8581
173.4619
184.5361
199.6359
211.6835
226.2928
234.9692
244.6273
266.7653
272.7032
297.3492
303.1156
324.0758
335.1505
353.3465
368.6614
408.4455
427.6292
450.9742
455.9746
476.6132
496.3684
509.4556
516.5310
545.0005
559.5142
602.8274
608.4992
635.8387
680.8352
713.3118
751.7224
777.8500
798.2282
837.2642
848.5511
922.7076
966.5995
1012.8028
1038.7055
1074.7861
1095.0030
1150.7989
1162.9628
1232.6098
1289.2348
1327.0701
1338.0229
1364.2013
1452.2402
1492.8291
1540.0408
1573.3935
1607.3769
1621.9102
1635.7524
1651.4281
1666.6798
1673.8269
1696.1762
1778.2341
2681.0587
2772.3992
2932.4791
3032.2359
3102.5811
3146.6080
3162.3966
3186.0455
3194.1546
3210.5679
3592.6722
3611.0096
3693.3940
3719.1015
3766.9651
3817.5905
3837.3370
3847.1487
3933.1713
3950.5957

SYMMETRY C1
ELECTRONIC_STATE 2-A
