33
Energy =   -1180.80070686     
    C   -1.615233   -0.432795    0.836314
    C   -0.129478   -0.706388    0.688555
    H   -1.970458   -0.794014    1.816425
    O    0.651259   -0.026215    1.484359
    O    0.051595   -2.064477    0.516787
    H    0.959725   -2.233235    0.198489
    N   -1.763371    1.054576    0.852436
    H   -2.732997    1.323844    1.036515
    H   -1.131709    1.438591    1.565261
    O    2.600250   -2.101401   -0.691705
    H    3.043672   -1.538386    0.011270
    H    3.122903   -2.898996   -0.816453
    O    3.351838    1.870680   -0.508024
    H    2.724113    1.355937   -1.064579
    H    4.032813    2.229625   -1.084570
    H   -0.231521    1.594483   -2.011624
    O   -0.684718    2.161342   -1.370597
    H    0.026963    2.479597   -0.765277
    H    0.869140    0.047776   -0.931974
    O    1.467986    0.253708   -1.685992
    H    1.924858   -0.595253   -1.821210
    C   -2.464615   -1.020760   -0.278109
    H   -2.141212   -0.621514   -1.245021
    H   -2.317090   -2.100271   -0.300835
    S   -4.242009   -0.615034   -0.133875
    H   -4.478623   -1.376342    0.946529
    H    2.384115   -0.323121    1.468215
    O    3.315805   -0.455419    1.171369
    H    3.583943    0.389969    0.775922
    H    0.946068    1.573571    1.075341
    O    0.927607    2.511598    0.749653
    H    1.849669    2.726242    0.542676
    H   -1.450348    1.453166   -0.084022

FREQUENCIES 93
35.3063
53.1591
61.5866
68.4885
80.8309
98.3438
106.4598
117.8458
124.3802
145.7881
154.1185
162.5805
185.7861
199.1853
209.4659
213.4419
222.9857
242.0769
253.3932
274.2531
288.1094
297.1058
329.0251
358.9646
383.6285
400.1653
405.2188
422.2704
442.3991
455.3804
487.3215
504.7664
510.2677
529.6917
561.2868
570.3612
584.9745
611.4746
655.5049
660.1301
670.2587
682.5116
751.7331
758.1380
799.2954
824.2210
856.9276
893.6298
937.6002
945.8088
986.0236
1004.3050
1092.1678
1125.9205
1135.3161
1167.8971
1202.8021
1263.8300
1273.7101
1354.3030
1361.1303
1393.2375
1453.7349
1472.2324
1539.1783
1633.3677
1637.0984
1646.4555
1653.0786
1679.4022
1699.0186
1728.8678
1741.4719
2738.0883
2763.7703
3010.0495
3053.8091
3104.4621
3185.7662
3233.3656
3419.2353
3424.0054
3450.7583
3470.1948
3510.0289
3517.6091
3628.7157
3758.4625
3796.7438
3837.0595
3852.9957
3958.0377
3960.3972

SYMMETRY C1
ELECTRONIC_STATE 2-A
