33
Energy =   -1180.79704205     
    C   -1.334502   -1.271256    0.011320
    C   -0.254628   -0.959233   -0.984233
    O   -0.214900    0.221728   -1.516136
    O    0.982618   -1.509334   -0.546449
    N   -1.301201   -0.283589    1.166939
    H   -1.180783   -2.263638    0.444346
    H   -1.996529   -0.535916    1.872901
    H   -0.359305   -0.197010    1.620882
    H   -1.524544    0.681079    0.792234
    O    0.993653    0.446191    2.457231
    O   -1.620793    2.085161   -0.109045
    H    1.084071    1.354511    2.104653
    H   -1.187650    1.615442   -0.856641
    H    1.819040   -0.029570    2.275740
    H   -0.914288    2.629537    0.282322
    H    1.119997    1.131703   -1.325953
    O    1.880357    1.722629   -1.052121
    H    2.654529    1.142246   -0.992250
    O    2.760148   -1.525248    1.473339
    H    1.987903   -1.685301    0.883632
    H    2.920851   -2.327915    1.979421
    O    0.896781    2.818618    1.034731
    H    1.251969    3.690925    1.229766
    H    1.375976    2.460646    0.216408
    C   -2.699314   -1.180841   -0.670926
    H   -2.790733   -2.019130   -1.362867
    H   -2.757417   -0.262106   -1.259153
    S   -4.132201   -1.267564    0.466437
    H   -4.295365    0.057004    0.616041
    H    3.731235   -0.880495   -0.028677
    O    3.657399   -0.513548   -0.927738
    H    4.492178   -0.660656   -1.382150
    H    1.668187   -1.225121   -1.173651

FREQUENCIES 93
38.6425
49.8239
55.3998
58.8046
75.3534
82.4843
91.5826
102.9678
114.9028
139.6926
145.6542
166.1909
184.7271
193.6518
201.7706
221.1342
225.6265
241.2542
253.7139
257.2064
267.0067
279.3258
297.8856
305.6798
338.1911
339.9607
355.1122
364.7444
383.7841
450.0604
492.8293
499.6149
516.3751
545.2043
553.8125
562.2596
592.4543
600.9941
644.4780
679.7525
697.7072
701.1446
725.1991
752.2004
780.8809
812.4747
828.9795
848.1600
877.8041
916.3929
949.9947
999.3875
1052.4453
1104.3220
1133.8443
1137.4420
1152.3239
1262.8263
1273.7842
1290.4006
1378.8063
1382.4234
1469.7921
1504.1984
1589.2472
1601.5824
1628.4378
1640.3672
1663.2781
1675.6087
1689.8380
1728.6699
1750.6365
2742.2349
2820.1459
2873.5235
3021.2240
3122.1199
3128.0944
3133.8167
3189.0338
3468.5904
3498.7791
3536.5783
3592.3265
3716.9047
3732.0741
3787.8827
3808.6480
3825.6961
3952.3568
3955.6588
3970.7973

SYMMETRY C1
ELECTRONIC_STATE 2-A
