5
Energy =   -189.693767040     
    H    0.010717   -1.678515    0.770182
    C    0.051106   -0.754268    0.179962
    O    1.053070   -0.146876   -0.082534
    O   -1.180101   -0.397445   -0.208491
    H   -1.103799    0.421831   -0.723974

FREQUENCIES 9
641.2626
686.6152
1069.7019
1170.4796
1314.6550
1410.5011
1882.6554
3145.5387
3811.0706

SYMMETRY C1
ELECTRONIC_STATE 1-A
