3
Energy =   -55.8486842782     
    N    1.427480   -0.757197   -0.225046
    H    1.816477   -0.220221   -1.010481
    H    1.482232   -1.733115   -0.543085

FREQUENCIES 3
1510.3533
3409.6649
3515.8521

SYMMETRY CS
ELECTRONIC_STATE 2-A"
