8
Energy =   -589.315943213     
    C   -0.755570   -0.143172   -0.219552
    C    0.559517    0.037362   -0.798174
    H    0.814304   -0.735928   -1.525033
    C   -1.865550   -0.168106    0.383792
    O   -2.918488   -0.229299    0.932602
    S    1.796653    0.015062    0.569676
    H    0.683209    1.019270   -1.263868
    H    1.551404   -1.249898    0.945309

FREQUENCIES 18
69.0202
92.2978
324.7855
381.9365
501.9531
542.4504
685.2149
820.3878
837.2902
1033.3825
1201.3251
1263.9296
1485.9240
1574.3934
2228.0864
2764.8389
3097.4839
3155.2482

SYMMETRY C1
ELECTRONIC_STATE 2-A
