4
Energy =   -56.5291402914     
    N   -0.753231    0.197920    0.107026
    H   -0.523015    0.471242   -0.841591
    H   -1.659267   -0.256590    0.092537
    H   -0.832898    1.039825    0.666043

FREQUENCIES 6
1024.6248
1673.3404
1675.3529
3525.4750
3671.3419
3677.8713

SYMMETRY C1
ELECTRONIC_STATE 1-A
