4
Energy =   -76.8664653865     
    H    0.924595   -0.248653   -0.248653
    H   -0.248653    0.924595   -0.248653
    H   -0.248653   -0.248653    0.924595
    O   -0.065763   -0.065763   -0.065763

FREQUENCIES 6
764.5224
1323.4776
1323.4936
1568.0576
1568.3743
2888.6506

SYMMETRY C3V
ELECTRONIC_STATE 2-A1
