4
Energy =   -76.6703183809     
    H    0.901321   -0.261598   -0.261598
    H   -0.261598    0.901321   -0.261598
    H   -0.261598   -0.261598    0.901321
    O   -0.016554   -0.016554   -0.016554

FREQUENCIES 6
758.4188
1661.6753
1661.7061
3598.3628
3723.0856
3723.1299

SYMMETRY C3V
ELECTRONIC_STATE 1-A1
