9
Energy =   -283.688056753     
    H   -0.382942   -1.112039    0.811431
    C   -0.041716   -0.838766   -0.178796
    N    1.287133   -0.864465   -0.441809
    H    1.561377   -0.674610   -1.398269
    H    1.941012   -1.315246    0.175178
    C   -0.901318   -0.399869   -1.246565
    O   -0.472821   -0.110958   -2.350826
    O   -2.236566   -0.316672   -0.993838
    H   -2.434240   -0.558801   -0.081244

FREQUENCIES 21
189.6112
277.6138
296.3987
376.6552
486.1177
507.7938
636.7068
660.6915
708.8319
923.1284
1120.1377
1172.6061
1316.4511
1324.6619
1539.8887
1661.8240
1790.6368
3239.3103
3599.8783
3768.9518
3892.2185

SYMMETRY C1
ELECTRONIC_STATE 2-A
