10
Energy =   -665.229311707     
    C   -0.137990   -1.173233    0.097363
    H   -0.289735   -2.171825    0.493822
    C   -1.159949   -0.581422   -0.800646
    C    1.290376   -0.803492   -0.158756
    H   -0.788643    0.076929   -1.580192
    H   -2.019018   -1.194745   -1.050165
    S   -1.153607    0.123341    0.862361
    O    1.662655    0.073083   -0.897220
    O    2.129468   -1.582493    0.545818
    H    3.033151   -1.292226    0.346681

FREQUENCIES 24
59.0965
194.9041
252.6786
444.6458
607.7172
635.2686
683.9555
723.7626
807.9016
860.3674
950.6368
1002.5032
1091.0763
1119.2943
1172.9765
1196.5516
1311.5905
1449.3108
1487.7977
1884.8273
3164.2305
3215.3184
3266.0926
3820.8795

SYMMETRY C1
ELECTRONIC_STATE 1-A
