10
Energy =   -664.888526184     
    C   -0.124157   -1.183703    0.160649
    H   -0.292447   -2.083451    0.750617
    C   -1.136008   -0.717377   -0.803589
    C    1.306204   -0.736061   -0.116132
    H   -0.794917   -0.129894   -1.658602
    H   -2.061247   -1.279104   -0.928569
    S   -1.106000    0.262965    0.720301
    O    1.516728    0.323364   -0.644819
    O    2.174370   -1.636806    0.286978
    H    3.084183   -1.346013    0.092232

FREQUENCIES 24
29.1497
160.6099
272.7840
405.3638
578.4380
621.5236
632.5535
677.8484
771.2780
822.9827
876.5126
995.4884
1095.9977
1134.2617
1175.7952
1207.5104
1304.7714
1434.5619
1459.6170
1879.8722
3133.0894
3206.5683
3237.8039
3777.3025

SYMMETRY C1
ELECTRONIC_STATE 2-A
