6
Energy =   -152.800700575     
    H   -1.943006   -0.024560    0.743660
    H   -0.569968    0.001796    0.037739
    O   -1.525765    0.005328   -0.121448
    H    1.731820    0.778437   -0.328702
    H    1.719892   -0.762850   -0.381451
    O    1.344333   -0.004039    0.077054

FREQUENCIES 12
172.8522
191.2113
219.2190
248.4389
394.5095
669.3253
1615.3545
1624.4828
3791.7788
3884.3426
3978.1555
4004.2642

SYMMETRY C1
ELECTRONIC_STATE 1-A
