11
Energy =   -665.520362649     
    H   -3.265670    0.477820    1.263100
    C   -2.440460    0.771098    0.617386
    C   -1.995499    2.178585    0.632479
    H   -1.526665    2.574044   -0.265647
    C   -2.176231    0.016251   -0.694052
    O   -1.092819    0.089186   -1.205595
    O   -3.185025   -0.643384   -1.222232
    H   -4.009222   -0.624090   -0.714678
    S   -0.894459    1.049118    1.576328
    H   -2.498768    2.887728    1.283678
    H   -0.110510    0.738597    0.507844

FREQUENCIES 27
80.9582
248.3614
271.6776
390.2152
475.3682
609.4472
646.1257
686.3276
758.9725
809.5536
834.8391
898.4188
1012.6375
1077.8215
1122.8757
1150.3002
1179.1609
1194.3705
1304.0062
1424.4714
1475.4515
1908.2342
2612.1407
3177.4782
3201.5163
3287.3575
3847.9026

SYMMETRY C1
ELECTRONIC_STATE 1-A
