11
Energy =   -665.785721412     
    H   -3.572379    0.641904    0.968335
    C   -2.741629    0.929891    0.331366
    C   -1.849580    2.032765    0.737076
    H   -1.406098    2.528068   -0.127262
    C   -2.360773    0.118485   -0.820669
    O   -1.338704    0.312890   -1.444073
    O   -3.193445   -0.885073   -1.186448
    H   -3.965574   -0.931435   -0.609713
    S   -0.486695    1.349028    1.783335
    H   -2.359466    2.763731    1.365432
    H    0.079014    0.654699    0.781234

FREQUENCIES 27
73.8871
92.1120
187.5755
277.5490
287.8573
409.1365
496.9135
555.3943
631.9509
678.4211
736.3160
792.8289
901.3945
1035.5824
1123.5976
1152.5750
1225.5558
1259.0606
1305.2670
1449.5328
1482.0183
1802.1061
2686.7639
3124.1306
3191.0159
3214.3905
3889.1694

SYMMETRY C1
ELECTRONIC_STATE 2-A
