7
Energy =   -153.127257282     
    H   -2.596371    0.173678   -2.395020
    H   -2.478023   -0.971149   -1.284324
    H   -2.220024   -1.534485   -3.069768
    H   -1.226858   -2.620434   -4.231164
    H   -2.794269   -2.937373   -4.198342
    O   -2.277125   -0.720817   -2.198902
    O   -2.105013   -2.289756   -3.986215

FREQUENCIES 15
216.2847
280.2483
350.1819
482.1943
495.5002
632.8285
1038.2252
1480.2269
1525.0656
1675.8952
1772.9463
3789.9363
3800.6910
3899.6581
3899.9215

SYMMETRY C1
ELECTRONIC_STATE 1-A
