10
Energy =   -532.399562719     
    N   -1.597108   -0.765788   -0.005462
    C   -1.308005    0.479864    0.030244
    C    0.093136    0.980522   -0.008474
    S    1.376321   -0.303492   -0.071322
    H   -2.557063   -1.103118    0.002546
    H   -0.829141   -1.447274   -0.056070
    H   -2.131165    1.193457    0.073931
    H    0.234775    1.672498    0.829477
    H    0.177278    1.603378   -0.909739
    H    1.569585   -0.376249    1.255516

FREQUENCIES 24
177.3134
257.8742
359.0111
560.1732
582.3275
763.1399
819.3556
933.2449
947.5053
1032.4156
1108.2704
1130.3157
1227.4561
1326.2997
1389.9872
1422.6943
1553.9555
1786.4551
2747.4225
3077.7858
3123.1123
3227.5285
3394.9548
3601.1221

SYMMETRY C1
ELECTRONIC_STATE 1-A
