10
Energy =   -532.611594822     
    N   -1.683510   -0.681020   -0.396412
    C   -1.236322    0.463355    0.240805
    C    0.085884    0.996583   -0.106927
    S    1.507508   -0.153302    0.316835
    H   -2.479108   -1.145273    0.016680
    H   -0.952791   -1.331672   -0.666018
    H   -1.898844    0.964725    0.932323
    H    0.262498    1.959569    0.371708
    H    0.215331    1.122408   -1.190012
    H    1.207967   -0.261576    1.621664

FREQUENCIES 24
-166.1140
143.2511
295.9498
317.9437
374.4573
458.7063
608.6526
663.5288
781.7622
935.9905
993.4629
1129.8197
1227.3074
1264.8407
1321.0850
1455.5351
1492.0226
1650.9610
2728.4240
3047.7784
3166.8460
3255.4063
3555.4975
3695.4714

SYMMETRY C1
ELECTRONIC_STATE 2-A
