13
Energy =   -741.644959408     
    C   -0.438160   -0.501539    0.600766
    H   -0.621974   -0.882711    1.599750
    C   -1.413161   -0.785289   -0.479908
    C    1.007880   -0.411102    0.218906
    H   -0.999836   -0.907085   -1.476421
    H   -2.271311   -1.400103   -0.230268
    S   -1.465743    0.917620    0.120720
    O    1.397566   -0.342421   -0.931455
    O    1.802990   -0.415890    1.280975
    H    2.740003   -0.344421    0.975938
    H    3.418123   -0.201065   -0.928646
    O    4.053081   -0.259154   -0.195142
    H    4.721775    0.420318   -0.322615

FREQUENCIES 33
47.3857
63.1308
142.6008
186.3793
222.0121
263.4415
295.6272
390.8720
466.2082
594.4715
637.8341
671.6739
724.5146
800.6657
878.7242
908.9007
940.2911
1012.6419
1096.6172
1124.7493
1173.5948
1272.1700
1391.1568
1472.4832
1498.2500
1596.1884
1835.4088
3160.9091
3223.7203
3261.3672
3436.1913
3763.3137
3972.5160

SYMMETRY C1
ELECTRONIC_STATE 1-A
