13
Energy =   -360.432694988     
    N   -1.027195    1.664667    0.188563
    H   -0.320337    2.059484   -0.473952
    C   -0.349396    0.533648    0.807152
    H   -0.864077   -0.063172    1.546880
    C    1.020885    0.374666    0.284928
    O    1.402227    1.178428   -0.559578
    H   -1.868420    1.391488   -0.336147
    O    1.672864   -0.619609    0.795743
    H    2.605510   -0.682622    0.378539
    H   -1.300742    2.389142    0.865241
    H    4.170688    0.060715   -0.904692
    O    3.923541   -0.691019   -0.352712
    H    4.723461   -1.163755   -0.095276

FREQUENCIES 33
65.2814
70.6923
174.0604
204.4458
239.3191
248.0782
259.4493
314.3523
431.0829
450.6904
535.7029
690.8792
708.3449
918.4160
1033.1697
1058.5967
1059.2914
1129.3624
1311.5083
1432.5260
1484.6230
1575.4689
1619.0424
1631.3267
1647.4183
1789.6439
2787.2809
3180.2434
3330.9366
3417.0516
3465.8174
3860.6759
3977.9682

SYMMETRY C1
ELECTRONIC_STATE 2-A
