13
Energy =   -360.438537829     
    N   -0.025108    0.778293    1.282112
    H    0.205765    1.527210    0.498645
    C    0.216877   -0.551441    0.767925
    H   -0.548807   -1.309577    0.855023
    C    1.525445   -0.722041    0.138638
    O    2.299813    0.212015    0.040650
    H   -0.987570    0.891300    1.609337
    O    1.731814   -1.958973   -0.277931
    H    2.612371   -2.030477   -0.684723
    H    0.607406    0.994142    2.065047
    H    0.405033    3.204581   -0.965686
    O    0.675768    2.338145   -0.637246
    H    1.604894    2.178566   -0.860251

FREQUENCIES 33
63.1284
144.6631
185.0377
232.6803
246.4900
325.2936
389.3601
429.3356
441.4474
484.9020
572.9226
602.0548
666.8123
741.1146
908.8823
1099.4266
1123.5480
1175.4494
1227.2677
1326.7190
1511.3182
1565.5566
1598.2024
1637.1041
1664.5370
1809.4827
2152.6866
3304.6170
3399.5382
3525.5132
3782.9833
3813.5048
3942.9745

SYMMETRY C1
ELECTRONIC_STATE 2-A
