10
Energy =   -229.563146052     
    H    1.675661    0.508362    0.000000
    H    0.312067    0.051293   -0.911385
    H    0.312067    0.051293    0.911385
    H   -0.773676    0.744139   -2.601363
    H   -0.394955   -0.781623   -2.696010
    H   -0.773676    0.744139    2.601363
    H   -0.394955   -0.781623    2.696010
    O   -0.376353    0.001053    2.130223
    O   -0.376353    0.001053   -2.130223
    O    0.838118    0.025084    0.000000

FREQUENCIES 24
74.3837
147.2429
169.1979
175.4869
219.7207
366.7473
404.7231
414.5146
421.8608
433.4368
614.9117
1182.2718
1245.7180
1563.3670
1621.6358
1638.1156
1658.6998
2314.1532
2505.3579
3848.6925
3849.7986
3878.0252
3958.0429
3958.7685

SYMMETRY CS
ELECTRONIC_STATE 1-A'
