10
Energy =   -229.563153564     
    H   -0.305086    0.918334    0.058953
    H   -1.612865   -0.036595    0.583606
    H   -0.255618   -0.903632    0.040037
    H    0.446188   -2.671875   -0.836825
    H    1.004111   -2.511431    0.627650
    H    0.298000    2.734550   -0.786555
    H    0.759807    2.635817    0.715060
    O    0.354173    2.153889   -0.016580
    O   -0.806412   -0.006600    0.050672
    O    0.425584   -2.124401   -0.041345

FREQUENCIES 24
77.1626
159.4355
194.0867
200.5594
251.4499
367.4239
408.9162
413.2376
425.9314
435.3169
617.1687
1184.2710
1245.7016
1571.2878
1613.5341
1647.6054
1659.9594
2316.6353
2508.3047
3844.3711
3846.9682
3875.0274
3954.3602
3955.6660

SYMMETRY C1
ELECTRONIC_STATE 1-A
