10
Energy =   -229.696271381     
    H   -0.603171    0.828604   -0.252803
    H   -1.934830    0.058017    0.424702
    H   -0.590680   -0.849164   -0.018512
    H    1.050288   -1.829662   -0.417388
    H    0.921511   -1.329596    1.048636
    H    0.899174    1.605502    0.639263
    H    1.024647    1.685432   -0.907870
    O    0.383387    1.801997   -0.177053
    O   -1.252218   -0.032985   -0.263318
    O    0.409775   -1.750088    0.319016

FREQUENCIES 24
99.8015
104.0416
152.3502
309.9249
338.8483
424.2859
466.5612
544.2884
612.3028
622.4284
751.4989
1059.8920
1458.8253
1534.5696
1558.1012
1578.4617
1732.3496
1830.1770
2207.9884
3446.8767
3464.3277
3627.1714
3628.1521
3735.5288

SYMMETRY C1
ELECTRONIC_STATE 2-A
