13
Energy =   -608.819406347     
    N    0.040423    0.657302    1.320477
    H    0.314562    1.388860    0.602504
    C   -0.889798   -0.326304    0.698186
    H   -1.213895   -1.078606    1.410170
    C   -0.614013   -0.694069   -0.709437
    H    0.211401   -0.198971   -1.215675
    H   -0.803743   -1.721262   -1.003264
    S   -2.088751    0.335971   -0.443281
    H   -0.407746    1.134651    2.108424
    H    0.887687    0.196353    1.669663
    H   -0.205159    2.640297   -1.206813
    O    0.570895    2.328110   -0.721920
    H    1.304173    2.920198   -0.932200

FREQUENCIES 33
102.9989
117.0410
236.8917
288.8098
305.3739
351.9734
391.3637
434.3066
500.3706
674.1114
719.5777
878.3683
942.3571
989.9081
1069.3593
1101.1934
1140.0456
1207.9921
1222.9948
1404.0995
1494.3196
1564.9450
1622.3427
1664.5729
1681.6530
2807.8553
3162.7197
3227.7740
3267.5311
3444.1909
3513.4297
3835.7927
3947.0284

SYMMETRY C1
ELECTRONIC_STATE 1-A
