15
Energy =   -722.130681921     
    N    0.559809    1.641122   -0.771717
    H    1.532515    1.642147   -1.103401
    C    0.411347    0.800936    0.469006
    H    0.827226    1.372760    1.305594
    C   -1.058146    0.463042    0.716016
    C    1.252223   -0.472876    0.315951
    H   -1.096596   -0.218338    1.567556
    H   -1.626618    1.360842    0.965090
    S   -1.769265   -0.367695   -0.754604
    O    1.020937   -1.471104    0.927324
    H   -2.783982    0.487194   -0.948848
    O    2.261558   -0.285789   -0.546661
    H    2.804489   -1.091932   -0.605689
    H    0.250360    2.606273   -0.622085
    H   -0.039938    1.212976   -1.503410

FREQUENCIES 39
54.6432
80.2707
172.8777
221.6956
276.6272
291.0838
346.0968
463.6744
521.2758
546.4544
647.2291
714.6276
741.4170
811.3212
864.2706
924.5995
1017.1703
1044.3338
1081.4101
1130.7803
1194.1052
1229.8764
1312.8157
1324.7819
1363.6817
1419.8593
1469.7493
1500.0888
1626.4074
1665.2713
1943.7404
2757.0342
3127.5776
3137.0315
3190.6797
3269.1459
3437.8067
3508.7289
3789.9475

SYMMETRY C1
ELECTRONIC_STATE 1-A
