13
Energy = -306.113621869
1 0.062708 0.017302 -1.283742
1 -0.342896 1.339117 -0.310739
1 -1.318445 0.049211 -0.517447
1 0.794605 -1.603022 -0.586345
1 1.979919 -0.714745 -1.061467
1 -0.374132 2.186570 1.476714
1 0.978420 1.539979 1.082367
1 -1.285216 -2.132992 1.170171
1 -0.337164 -0.928088 1.437173
8 -0.733088 0.646133 -1.035155
8 1.103823 -1.039463 -1.323143
8 0.239920 2.086844 0.719976
8 -0.768454 -1.446848 0.722046
 
FREQUENCIES 33
78.6273
91.8684
111.5065
177.9944
208.5861
225.5070
325.5855
354.2860
373.9580
420.3596
436.8003
458.4253
511.2850
584.0784
595.0235
717.0982
810.1483
1032.6360
1445.6499
1566.3346
1572.7503
1621.2181
1749.5247
1796.2963
1979.5712
2522.6294
3375.0985
3484.3411
3598.7445
3606.3078
3660.7590
3813.1875
3822.9206
 
SYMMETRY C1
ELECTRONIC_STATE 2-A
