13
Energy = -305.987360185
1 -0.000376 0.000142 0.640457
1 -0.081097 1.859196 0.159206
1 -1.089746 1.339360 1.339164
1 0.080932 -1.859099 0.159376
1 1.088710 -1.339056 1.339933
1 0.195499 3.450093 -1.355957
1 1.317391 3.563368 -0.273286
1 -0.194344 -3.450336 -1.355822
1 -1.316888 -3.563702 -0.273843
8 -0.529720 1.066454 0.602593
8 0.529109 -1.066256 0.602995
8 0.544051 3.056757 -0.547116
8 -0.543521 -3.056923 -0.547290
 
FREQUENCIES 33
32.7562
75.0683
78.0747
187.2888
188.0979
194.2882
222.6972
230.8667
296.0450
312.7794
349.9641
362.6986
366.7602
607.9406
617.1828
653.2781
969.2625
1057.8173
1090.1662
1489.8151
1568.3559
1628.9543
1630.3769
1680.7245
1761.6822
2937.4248
2969.2674
3862.6808
3863.0084
3915.5199
3918.5176
3975.0668
3975.1574
 
SYMMETRY C1
ELECTRONIC_STATE 1-A
