13
Energy = -306.113805005
1 -0.062990 0.090883 1.303913
1 0.004681 1.515534 0.237958
1 0.937470 1.428594 1.627738
8 0.072653 1.181181 1.266155
1 -0.068261 -1.551457 0.315891
1 -1.024840 -1.589787 1.608565
8 -0.192631 -1.233069 1.272783
1 0.593284 1.351325 -1.590593
1 -0.921559 1.674228 -1.480493
8 -0.053169 1.897213 -1.080431
1 1.028411 -1.655272 -1.491841
1 -0.436085 -1.242766 -1.706637
8 0.123084 -1.866647 -1.199361
 
FREQUENCIES 33
61.7508
100.5320
112.2885
159.1520
214.3526
229.1890
297.2892
392.5690
413.1404
442.1119
491.2359
534.0844
562.3444
575.9956
666.7794
737.9241
1052.0706
1198.3423
1475.6909
1498.5345
1551.1534
1584.5468
1634.0341
1754.0893
1798.9695
2122.4982
2881.9233
3366.7179
3544.2647
3579.1206
3705.4609
3813.4126
3892.2643
 
SYMMETRY C1
ELECTRONIC_STATE 2-A
