13
Energy = -305.986817082
1 3.195965 -2.440510 0.453471
1 3.951058 -1.202314 -0.205387
1 -1.001137 -2.937693 0.601337
8 3.259328 -1.863687 -0.330191
1 0.499551 -3.385390 0.892732
1 2.380623 -3.575818 2.518307
8 -0.121245 -3.048335 0.220512
1 2.558992 -4.610099 1.388149
1 0.953137 -1.719327 -2.251251
8 1.040457 -1.529165 -1.305817
1 0.439912 -2.156112 -0.697006
1 2.039792 -1.595420 -0.957536
8 2.270172 -3.703445 1.565648
 
FREQUENCIES 33
71.2214
94.6467
151.6019
217.1353
288.2712
301.5284
340.6406
340.9207
411.2252
465.9322
477.2209
487.5519
587.9098
591.4473
645.8675
704.7126
716.2253
1142.3553
1293.8248
1554.3389
1612.5680
1623.3237
1650.8526
1824.3130
2221.0321
2455.7278
3684.3564
3708.5602
3818.8949
3857.0876
3915.0773
3923.9478
3928.1331
 
SYMMETRY C1
ELECTRONIC_STATE 1-A
