2
Energy =   -75.7018294358     
    H    0.012025    0.000000    0.000000
    O    0.987975    0.000000    0.000000

FREQUENCIES 1
3756.0388

SYMMETRY C*V
ELECTRONIC_STATE ??
