2
Energy =   -75.1167576285     
    H   -0.019719    0.000000    0.000000
    O    1.019719    0.000000    0.000000

FREQUENCIES 1
3069.7253

SYMMETRY C*V
ELECTRONIC_STATE ??
