3
Energy =   -38.5743273208     
    C    0.000000    0.000000    0.000000
    H    0.000000    0.000000    1.221845
    H    0.000000    0.000000   -1.221845

FREQUENCIES 4
-1366.7867
-1366.7867
1705.5167
2265.5867

SYMMETRY D*H
ELECTRONIC_STATE 4-SGU
