3
Energy = -38.48669253200
C 0.000000 0.000000 0.000000
H 0.000000 0.000000 1.221845
H 0.000000 0.000000 -1.221845
