3
Energy =   -38.7807736362     
    C    0.000000    0.000000    0.000000
    H    0.000000    0.000000    1.091696
    H    0.000000    0.000000   -1.091696

FREQUENCIES 4
-753.4097
1224.2057
2987.7138
3304.3559

SYMMETRY D*H
ELECTRONIC_STATE ??
