3
Energy = -38.69090715100
C 0.000000 0.000000 0.000000
H 0.000000 0.000000 1.091696
H 0.000000 0.000000 -1.091696
