4
Energy =   -77.1526247000     
    H    0.000000   -0.000000    1.727352
    C   -0.000000    0.000000    0.665287
    C   -0.000000    0.000000   -0.665287
    H    0.000000   -0.000000   -1.727352

FREQUENCIES 7
-1244.1676
-1203.3422
687.1388
714.9434
1571.7829
3424.3330
3473.0830

SYMMETRY D*H
ELECTRONIC_STATE ??
