7
Energy =   -189.726704653     
    C   -2.408528   -0.307906   -0.000210
    C   -1.175487    0.022483   -0.000255
    C    0.123055    0.548618   -0.000434
    C    1.358764   -0.032467    0.000263
    C    2.617724   -0.392389    0.000803
    H   -3.474287   -0.631810   -0.000186
    H    0.217552    1.691671   -0.001257

FREQUENCIES 15
-78.7674
263.2773
324.2378
328.2043
534.5005
716.6233
754.2345
786.0454
868.2508
1022.4792
1216.9820
1786.5704
1807.2236
2516.2743
2971.2309

SYMMETRY CS
ELECTRONIC_STATE 4-A"
