7
Energy =   -189.696311552     
    C   -0.771934   -0.052022   -0.001916
    C    0.506443    0.805674    0.000372
    C    1.618719   -0.213569    0.000856
    C    0.401549   -0.768205   -0.000473
    C   -2.320743   -0.054470    0.000345
    H    0.617943    1.941797    0.000796
    H    2.741630   -0.238953    0.001742

FREQUENCIES 15
-111.1554
254.8275
324.7292
341.5784
579.7203
718.7635
741.1166
826.4581
896.5483
934.6603
1033.6509
1353.9174
1559.4782
2644.8160
2849.8346

SYMMETRY C1
ELECTRONIC_STATE 2-A
