4
Energy =   -38.4798435112     
    C    0.000000    0.000002    0.000000
    H   -1.239631    0.633855    0.000000
    H    1.168756    0.756605    0.000000
    H    0.070876   -1.390472    0.000000

FREQUENCIES 6
-747.8478
582.6009
582.6009
1067.4901
1067.4903
1526.1191

SYMMETRY D3H
ELECTRONIC_STATE 4-A2"
