4
Energy =   -38.6198718804     
    C    0.000000    0.000000    0.093501
    H    0.000000    0.000000    1.232068
    H    0.000000    0.828126   -0.896536
    H    0.000000   -0.828126   -0.896536

FREQUENCIES 6
-503.5548
1022.3986
1066.3549
1156.0112
2005.3098
2728.2715

SYMMETRY C2V
ELECTRONIC_STATE 2-B2
