4
Energy =   -39.3569710185     
    C    0.000000    0.000000    0.088994
    H    0.000000    0.000000    1.170138
    H    0.000000    0.698432   -0.852052
    H    0.000000   -0.698432   -0.852052

FREQUENCIES 6
-687.3061
541.7075
1201.8280
2151.0003
2612.8543
3269.4534

SYMMETRY C2V
ELECTRONIC_STATE 3-A2
