5
Energy =   -75.7046678318     
    C   -0.068460   -0.438122    0.000000
    C   -0.068460    0.995040    0.000000
    H   -1.170341   -0.924342    0.000000
    H    0.995928   -1.208582    0.617991
    H    0.995928   -1.208582   -0.617991

FREQUENCIES 9
-852.6041
-354.7953
560.6233
731.5924
944.3754
1083.3012
1149.3869
1294.3376
2058.2445

SYMMETRY CS
ELECTRONIC_STATE 3-A"
