5
Energy =   -77.8552977177     
    C   -0.013815   -0.500523    0.000000
    C   -0.013815    0.944393    0.000000
    H   -0.988628   -1.006403    0.000000
    H    0.577204   -0.828408    0.870929
    H    0.577204   -0.828408   -0.870929

FREQUENCIES 9
-899.9471
864.8977
1085.3289
1285.5918
1397.8286
1400.3502
2922.5904
2982.6019
2983.8218

SYMMETRY CS
ELECTRONIC_STATE 2-A'
