5
Energy = -77.28482557200
C -0.017648 -0.502796 0.000000
C -0.017648 0.920980 0.000000
H -1.018777 -0.945098 0.000000
H 0.615278 -0.782003 0.872899
H 0.615278 -0.782003 -0.872899
