6
Energy =   -115.984248434     
    C    0.000000    0.746517    0.000000
    H    0.001466    1.825678    0.000000
    C    0.749590   -0.377882    0.000000
    H    1.693724   -0.879001    0.000000
    C   -0.750006   -0.379406    0.000000
    H   -1.692692   -0.882049    0.000000

FREQUENCIES 12
-647.8731
-501.2445
544.5227
846.0746
914.8945
936.8759
1020.4816
1108.7487
1590.1365
3215.6949
3315.0374
3357.2563

SYMMETRY CS
ELECTRONIC_STATE 2-A"
