6
Energy =   -114.025339946     
    C    0.000174    0.469982    0.000000
    H   -0.079921    1.631640   -0.000000
    C    1.282769   -0.064817    0.000001
    H    2.370296   -0.486262   -0.000000
    C   -1.373116   -0.357138   -0.000000
    H   -1.753671   -1.443756   -0.000000

FREQUENCIES 12
-685.9344
208.9553
634.4730
684.5639
724.1458
774.4018
921.4659
1085.3370
1248.9374
2381.9612
2481.6207
2592.7461

SYMMETRY CS
ELECTRONIC_STATE 3-A"
