6
Energy = -115.34885099000
C 0.000000 0.621128 0.000000
H 0.001334 1.713790 0.000000
C 0.996068 -0.265485 0.000000
H 1.642465 -1.126466 0.000000
C -0.996102 -0.265778 0.000000
H -1.643595 -1.126513 0.000000
