6
Energy =   -115.046270965     
    C    0.000000    0.000000    0.841906
    H    0.000000    0.000000    1.950858
    C    0.000000    0.647634   -0.465526
    H    0.000000    1.743727   -0.707989
    C    0.000000   -0.647634   -0.465526
    H    0.000000   -1.743727   -0.707989

FREQUENCIES 12
-619.0136
559.7033
702.3354
741.0449
862.1495
882.3146
899.5847
1174.0012
1672.5217
2745.3169
2901.7057
2989.8450

SYMMETRY C2V
ELECTRONIC_STATE 2-B2
