6
Energy =   -115.622082943     
    C    0.000132    0.620592    0.000000
    H    0.000541    1.713540   -0.000000
    C    0.995981   -0.266376   -0.000000
    H    1.643939   -1.125940    0.000000
    C   -0.996035   -0.265948    0.000000
    H   -1.644389   -1.125193   -0.000000

FREQUENCIES 12
-277.4868
-210.7934
385.9946
600.5002
646.9430
661.0054
1088.8794
1123.5333
1488.5057
3061.3026
3284.9514
3307.6147

SYMMETRY CS
ELECTRONIC_STATE 3-A"
