6
Energy = -113.75961037000
C 0.000000 0.471739 0.000000
H -0.081473 1.633257 0.000000
C 1.282030 -0.064746 0.000000
H 2.368492 -0.489171 0.000000
C -1.371337 -0.356924 0.000000
H -1.751180 -1.444504 0.000000
