6
Energy = -114.69148341000
C 0.000150 -1.298682 0.000000
H 0.954058 -1.878598 0.000000
H -0.953542 -1.879067 0.000000
C 0.000000 0.074028 0.000000
C -0.000164 1.428649 0.000000
H -0.000434 2.533697 0.000000
