7
Energy = -153.27841827000
C 0.000000 0.938141 0.000000
H -0.097823 2.020395 0.000000
C -0.937202 -0.048245 0.000000
H -2.023262 -0.006559 0.000000
C 1.282308 0.237706 0.000000
C -0.171646 -1.292207 0.000000
H 1.080326 -1.026202 0.000000
