8
Energy =   -191.789369652     
    C   -0.086393    0.235899    0.000000
    C   -1.135916    1.147246    0.000000
    C    0.312901    1.483439    0.000000
    H    1.041660    2.281255    0.000000
    C    0.312901   -1.373053    0.612002
    H    0.329990   -1.502067    1.680401
    C    0.312901   -1.373053   -0.612002
    H    0.329990   -1.502067   -1.680401

FREQUENCIES 18
-383.0775
-247.9705
274.3922
329.7035
384.1548
637.8888
751.9892
844.9443
858.1935
886.6773
946.5829
960.4170
1295.4298
1619.7505
1953.2921
3240.0430
3267.4122
3366.2034

SYMMETRY CS
ELECTRONIC_STATE 1-A'
