8
Energy =   -190.367396172     
    C    0.010786    0.245717    0.000000
    C   -0.837672    1.329366    0.000000
    C    0.558995    1.518770    0.000000
    H    1.436181    2.212466    0.000000
    C    0.010786   -1.456603    0.650524
    H    0.020868   -1.648175    1.764105
    C    0.010786   -1.456603   -0.650524
    H    0.020868   -1.648175   -1.764105

FREQUENCIES 18
-540.4555
-127.5068
257.9755
307.9433
314.8476
652.6844
696.3452
837.0454
869.0444
889.5721
904.0665
1009.5725
1071.6598
1466.0184
1625.4236
2734.2421
2856.8623
2866.0479

SYMMETRY CS
ELECTRONIC_STATE 3-A'
