8
Energy =   -192.147376935     
    C    0.218498   -1.243997   -0.000906
    C    1.170707   -0.123733    0.000036
    H    2.247010   -0.181983    0.000376
    C    0.367490    1.037145    0.000196
    H    0.726205    2.056857    0.000417
    C   -0.940327   -0.833140    0.000839
    C   -0.985726    0.635093    0.000033
    H   -1.861968    1.262613   -0.000192

FREQUENCIES 18
-213.2666
312.2912
473.6293
659.1658
706.1761
720.0255
824.7683
862.2844
996.3551
1034.6181
1100.4185
1216.5016
1326.8301
1366.3857
2006.3558
3189.0494
3227.3384
3234.0607

SYMMETRY C1
ELECTRONIC_STATE 2-A
