8
Energy =   -190.110981090     
    C   -0.000123    0.000054    0.141873
    C   -0.000222   -0.000701    1.912528
    C   -0.000238    1.231656   -0.497275
    H    0.000852    2.161625   -1.121651
    C    1.066356   -0.615259   -0.497978
    H    1.872762   -1.080514   -1.120818
    C   -1.066388   -0.615515   -0.498085
    H   -1.873000   -1.081344   -1.120227

FREQUENCIES 18
-555.1900
-554.1210
185.0379
185.5245
185.7369
307.8888
406.2799
406.4563
466.9054
627.0432
627.6365
704.0333
1170.4289
1256.8307
1256.9894
2866.2004
2866.8922
2887.3758

SYMMETRY C1
ELECTRONIC_STATE 1-A
