8
Energy =   -191.974794200     
    C   -0.003676    0.232306    0.000000
    C   -1.205911    1.065688    0.000000
    C    1.029008    1.199123    0.000000
    H    1.168505    2.266485    0.000000
    C   -0.003676   -1.156924    0.644977
    H   -0.020457   -1.683048    1.584624
    C   -0.003676   -1.156924   -0.644977
    H   -0.020457   -1.683048   -1.584624

FREQUENCIES 18
-467.8570
241.9243
324.5172
330.5119
389.8183
558.3473
558.5519
680.8653
746.2809
829.5756
949.0023
979.1426
998.0241
1169.5984
1693.9437
3214.6777
3261.7499
3267.9651

SYMMETRY CS
ELECTRONIC_STATE 4-A'
