8
Energy =   -192.053354875     
    C    0.359572   -0.002058    0.125930
    C   -1.795677    0.000896    0.129571
    C   -0.747098    0.876379   -0.123321
    C   -0.749360   -0.875388   -0.123899
    C    1.826699   -0.000942    0.002996
    H    2.180068   -0.959196   -0.375852
    H    2.157779    0.794259   -0.666239
    H    2.297343    0.171611    0.974430

FREQUENCIES 18
-39.7130
232.9485
345.7433
559.6355
627.5495
823.2387
851.8985
1015.0961
1109.3881
1142.2471
1287.3109
1401.9531
1464.5568
1476.7226
1494.4692
3016.7869
3068.2896
3107.2622

SYMMETRY C1
ELECTRONIC_STATE 4-A
