8
Energy = -190.68770109000
C -0.049488 0.362427 0.000000
C -1.144314 1.202153 0.000000
C 1.012628 1.162053 0.000000
H 1.797338 1.922305 0.000000
C -0.049488 -1.280186 0.620702
H -0.058216 -1.459938 1.693345
C -0.049488 -1.280186 -0.620702
H -0.058216 -1.459938 -1.693345
