8
Energy =   -192.179920724     
    C   -0.658110   -1.525038   -0.000000
    H   -1.575533   -2.087289    0.000000
    C   -0.000453   -0.241288   -0.000000
    C    0.654397   -1.526528   -0.000000
    H    1.570590   -2.090883    0.000000
    C    0.000887    1.099843   -0.000000
    C    0.002745    2.325198   -0.000000
    H    0.003557    3.385772    0.000000

FREQUENCIES 18
-77.2852
68.6927
199.2779
359.9794
474.7228
600.7518
657.7430
700.7293
711.6105
874.3874
976.9812
1038.3045
1473.4991
1689.1947
2037.8914
3230.1911
3278.4917
3462.0208

SYMMETRY CS
ELECTRONIC_STATE 2-A"
