8
Energy = -190.70801665000
C 0.000000 -0.706416 0.000000
C -1.354697 -1.017912 0.000000
C 0.956930 -1.727346 0.000000
C 0.542814 0.680698 0.000000
H 1.631526 0.760807 0.000000
C -0.242442 1.861810 0.000000
H -1.331011 1.876451 0.000000
H 0.283854 2.817748 0.000000
