8
Energy =   -191.134446076     
    C    0.000000   -0.706416    0.000000
    C   -1.354697   -1.017912    0.000000
    C    0.956930   -1.727346    0.000000
    C    0.542814    0.680698    0.000000
    H    1.631526    0.760807    0.000000
    C   -0.242442    1.861810    0.000000
    H   -1.331011    1.876451    0.000000
    H    0.283854    2.817748    0.000000

FREQUENCIES 18
-52.6230
119.0981
178.1482
325.8000
328.1947
429.0706
809.8602
819.3921
1058.6504
1077.6218
1146.1161
1293.8778
1387.4838
1443.1196
1500.9616
3078.5041
3106.4637
3194.8173

SYMMETRY CS
ELECTRONIC_STATE 2-A"
