8
Energy =   -191.184655900     
    C    1.071747   -1.516874    0.000000
    H    2.109344   -1.192286    0.000000
    H    0.829009   -2.584600    0.000000
    C    0.000000   -0.625482    0.000000
    C   -1.247614   -0.104710    0.000000
    H   -2.338656   -0.185346    0.000000
    C   -0.267190    0.872017    0.000000
    C    0.343108    2.035421    0.000000

FREQUENCIES 18
-1402.0451
193.4793
332.5824
392.2511
409.2457
529.9048
545.4919
844.1382
855.1104
938.1635
998.8057
1047.0952
1388.0003
1439.3892
1742.9580
3035.2551
3103.4830
3180.9645

SYMMETRY CS
ELECTRONIC_STATE 4-A'
