8
Energy =   -191.253832698     
    C   -0.122937    0.201577    0.000000
    C   -1.048225    1.187399    0.000000
    C    0.293904    1.525528    0.000000
    H    1.106308    2.257068    0.000000
    C    0.293904   -1.392961    0.617350
    H    0.315196   -1.514282    1.701742
    C    0.293904   -1.392961   -0.617350
    H    0.315196   -1.514282   -1.701742

FREQUENCIES 18
-522.2920
-205.7695
319.3622
344.6644
461.4806
597.3424
762.4201
886.6025
939.6877
955.5639
961.2644
1195.8844
1275.2914
1593.4956
1909.0652
3113.4976
3132.9533
3227.2856

SYMMETRY CS
ELECTRONIC_STATE 2-A'
