5
Energy = -38.06260597400
C 0.000000 0.000000 0.000000
H 1.266122 0.853385 0.000209
H 1.266122 -0.853385 -0.000209
H -1.266122 -0.853385 0.000209
H -1.266122 0.853385 -0.000209
