6
Energy =   -77.5255069839     
    C    0.000000    0.808801    0.000000
    H    0.967166    1.343616    0.000000
    H   -0.967820    1.342555    0.000000
    C    0.000000   -0.808801    0.000000
    H   -0.967166   -1.343616    0.000000
    H    0.967820   -1.342555    0.000000

FREQUENCIES 12
-876.1478
805.6231
903.6855
1020.2155
1139.7413
1300.1971
1389.8680
1434.8788
2939.7663
2955.1466
3083.6188
3084.4206

SYMMETRY C2H
ELECTRONIC_STATE 1-AG
