6
Energy = -77.34828610500
C 0.000000 0.808801 0.000000
H 0.967166 1.343616 0.000000
H -0.967820 1.342555 0.000000
C 0.000000 -0.808801 0.000000
H -0.967166 -1.343616 0.000000
H 0.967820 -1.342555 0.000000
