6
Energy =   -78.4886962540     
    C    0.000000    0.768097    0.000000
    H    0.929758    1.314128    0.000000
    H   -0.929523    1.315247    0.000000
    C    0.000000   -0.768097    0.000000
    H   -0.929758   -1.314128    0.000000
    H    0.929523   -1.315247    0.000000

FREQUENCIES 12
-699.9970
-299.0638
196.8174
768.3720
1041.1741
1159.6500
1425.4227
1470.3509
3158.0383
3164.8220
3262.0314
3282.4604

SYMMETRY C2H
ELECTRONIC_STATE 3-BU
