7
Energy = -116.26230256000
C -1.181036 -0.082301 -0.000047
H -1.152741 -1.187749 0.000134
H -1.733822 0.236699 0.885610
H -1.733533 0.236618 -0.885890
C 0.195302 0.410427 0.000089
C 1.357001 -0.223439 0.000042
H 2.392496 0.086316 -0.000358
