7
Energy =   -116.548765164     
    C   -1.162332   -0.133863   -0.000004
    H   -1.246628   -1.224143    0.000103
    H   -1.696424    0.279679    0.863580
    H   -1.696266    0.279463   -0.863797
    C    0.210011    0.379665   -0.000004
    C    1.388558   -0.314659   -0.000144
    H    2.346748    0.210429   -0.000152

FREQUENCIES 15
-66.5239
391.8822
633.9835
893.9397
920.4745
936.9681
1113.9302
1349.3520
1437.1438
1455.6490
1517.9826
2975.9060
3024.3749
3050.6269
3058.0705

SYMMETRY C1
ELECTRONIC_STATE 3-A
