8
Energy = -154.28354214000
C 0.000000 0.133020 0.000000
C 1.243186 -0.547318 0.000000
H 2.182429 -0.016183 0.000000
H 1.256785 -1.627358 0.000000
C 0.000301 1.507354 0.000000
C -1.243234 -0.545853 0.000000
H -1.258703 -1.625735 0.000000
H -2.182030 -0.013949 0.000000
