8
Energy =   -153.674941867     
    C    0.000000    0.776277   -0.639254
    H   -0.941561    1.282535   -0.925815
    H    0.941561    1.282535   -0.925815
    C    0.000000   -0.776277   -0.639254
    H   -0.941561   -1.282535   -0.925815
    H    0.941561   -1.282535   -0.925815
    C    0.000000    0.668460    0.947859
    C    0.000000   -0.668460    0.947859

FREQUENCIES 18
-1001.9168
174.0511
417.5964
456.6825
710.0563
761.8275
876.3747
935.1391
1069.6787
1092.7133
1094.5153
1270.0444
1316.9746
1553.7089
2836.0395
2900.6994
2946.0713
2982.7604

SYMMETRY C2V
ELECTRONIC_STATE 3-B1
