8
Energy = -154.35367625000
C 0.000000 0.000000 -1.880711
H 0.000000 1.018581 -2.281249
H -0.882117 -0.509290 -2.281249
H 0.882117 -0.509290 -2.281249
C 0.000000 0.000000 -0.434951
C 0.000000 0.000000 0.831117
C 0.000000 0.000000 2.098542
H 0.000000 0.000000 3.159771
