8
Energy =   -154.643423365     
    C    0.000000    0.133020    0.000000
    C    1.243186   -0.547318    0.000000
    H    2.182429   -0.016183    0.000000
    H    1.256785   -1.627358    0.000000
    C    0.000301    1.507354    0.000000
    C   -1.243234   -0.545853    0.000000
    H   -1.258703   -1.625735    0.000000
    H   -2.182030   -0.013949    0.000000

FREQUENCIES 18
-230.1599
254.1871
341.8024
376.2179
471.8378
649.9793
694.8589
937.3831
966.2063
986.6735
1255.1241
1387.2926
1457.6079
1483.5144
3149.6038
3151.2080
3255.7555
3256.5027

SYMMETRY CS
ELECTRONIC_STATE 3-A'
