8
Energy =   -154.660522383     
    C    0.000000    0.745446   -0.645240
    H   -0.902315    1.245007   -0.979739
    H    0.902315    1.245007   -0.979739
    C   -0.000000   -0.745446   -0.645240
    H   -0.902315   -1.245007   -0.979739
    H    0.902315   -1.245007   -0.979739
    C    0.000000    0.619537    0.971914
    C   -0.000000   -0.619537    0.971914

FREQUENCIES 18
-598.1914
93.0311
737.5625
761.7872
797.0215
927.5572
1021.9487
1052.7240
1164.8919
1183.9530
1209.1697
1470.0584
1497.7044
1963.5874
3098.9948
3101.0569
3165.8171
3183.2095

SYMMETRY C2V
ELECTRONIC_STATE 1-A1
