8
Energy =   -152.861906119     
    C    0.000000    0.764555    0.555093
    H    0.000000    1.314317    1.541954
    C    0.000000   -0.764555    0.555093
    H    0.000000   -1.314317    1.541954
    C    0.000000    1.575674   -0.604833
    C    0.000000   -1.575674   -0.604833
    H    0.000000   -2.506258   -1.243514
    H    0.000000    2.506258   -1.243514

FREQUENCIES 18
-1019.9817
-248.3546
133.9402
383.5462
538.8895
610.2837
674.7125
727.7360
838.1187
870.7671
1004.6263
1152.3680
1320.4080
1393.7707
2572.1680
2730.0415
2770.1157
2807.9099

SYMMETRY C2V
ELECTRONIC_STATE 4-B2
