9
Energy =   -191.749425818     
    C   -2.415145    0.302494    0.000000
    C   -1.254470   -0.164728    0.000000
    C    1.688899    1.298399    0.000000
    C    1.309884   -0.004975    0.000000
    H    2.015278   -0.205863   -0.886245
    H    2.015278   -0.205863    0.886245
    C    0.000000   -0.847674    0.000000
    H   -0.002780   -1.544683   -0.862223
    H   -0.002780   -1.544683    0.862223

FREQUENCIES 21
-128.1022
143.5274
225.9586
234.7134
333.3370
461.7243
710.0373
763.4926
799.0723
934.9204
999.7828
1169.8599
1231.4749
1286.8534
1299.8913
1550.1892
2049.2934
2613.5586
2618.8553
2881.6865
2901.7416

SYMMETRY CS
ELECTRONIC_STATE 3-A"
