9
Energy = -190.74383117000
C -1.751900 1.680437 0.000000
H -1.049066 2.527104 0.000000
H -2.841497 1.856932 0.000000
C -1.282868 0.251706 0.000000
H -2.052704 -0.561431 0.000000
C 0.000000 -0.202064 0.000000
C 1.164635 -0.743496 0.000000
C 2.309531 -1.319678 0.000000
H 3.306876 -1.824036 0.000000
