9
Energy =   -191.740694645     
    C   -2.493010    0.375633    0.000000
    C    1.968967   -1.212184    0.000000
    C    1.307979   -0.033262    0.000000
    H    2.025463    0.232683    0.883972
    H    2.025463    0.232683   -0.883972
    C    0.000000    0.668774    0.000000
    H    0.031305    1.752887    0.000000
    C   -1.231282    0.015009    0.000000
    H   -1.398153   -1.102077    0.000000

FREQUENCIES 21
-50.6918
106.5162
155.9802
246.8624
255.6229
394.7534
617.3765
683.4775
765.4555
803.5420
889.9078
992.3200
1167.1420
1225.6986
1374.3714
1434.4845
1597.9999
2488.6096
2505.2186
2768.3418
3168.6367

SYMMETRY CS
ELECTRONIC_STATE 3-A"
