9
Energy =   -192.462846014     
    C    0.629814    1.098789    0.000305
    C    1.191468   -0.171119    0.000295
    H    2.232170   -0.465723   -0.001313
    C   -1.193938   -0.161416   -0.000347
    C   -0.622261    1.104093   -0.002013
    H   -2.236962   -0.447706    0.001566
    C   -0.005156   -1.123536    0.000366
    H   -0.008304   -1.796666    0.868978
    H   -0.007492   -1.797144   -0.867899

FREQUENCIES 21
-141.3769
237.2754
336.1292
591.3131
771.5839
793.3709
871.3514
875.6990
948.2348
1111.3377
1180.0785
1205.8442
1237.7737
1303.0127
1320.1220
1384.3524
1909.7629
2999.2133
3019.1916
3209.6389
3216.3700

SYMMETRY C1
ELECTRONIC_STATE 2-A
