9
Energy =   -192.014650251     
    C    0.061864   -0.350741   -0.000001
    H    1.469120    1.382685    0.000006
    C    0.377239    1.067445   -0.000002
    C   -0.168971    2.198411   -0.000006
    H   -0.511803    3.234180    0.000003
    C   -0.168851   -1.502663   -0.684439
    H   -0.273454   -2.038341   -1.624575
    C   -0.168861   -1.502660    0.684438
    H   -0.273445   -2.038340    1.624575

FREQUENCIES 21
-97.1493
174.3396
299.6271
415.9371
611.9900
679.1632
687.0628
837.2565
950.2508
974.8066
1012.5126
1038.3774
1042.3563
1293.0686
1302.8756
1728.7925
1907.5626
2711.3535
3176.1149
3184.6248
3208.8940

SYMMETRY CS
ELECTRONIC_STATE 1-A'
