9
Energy =   -191.931455581     
    C    1.089550    1.245440    0.000000
    C    0.049481   -2.092690    0.000000
    H    1.138591   -2.129186    0.000000
    H   -0.504907   -3.032120    0.000000
    C   -0.671654   -0.856576    0.000000
    H   -1.762070   -0.860479    0.000000
    C    0.000000    0.432214    0.000000
    C   -0.143421    1.827507    0.000000
    H   -0.815351    2.686417    0.000000

FREQUENCIES 21
-274.5358
52.9857
221.7850
351.8385
489.5816
759.9994
788.8853
929.4134
961.4821
1061.8702
1122.2837
1183.3321
1231.0264
1364.4482
1413.8532
1503.9722
1650.3480
3082.2957
3125.7958
3158.5958
3198.4572

SYMMETRY CS
ELECTRONIC_STATE 3-A"
