9
Energy = -192.05676733000
C 0.662131 0.781010 0.000709
C -0.497972 -0.009084 0.006535
C 0.662412 -0.783687 0.000371
C -1.952728 -0.000184 0.000367
H -2.335957 -0.996238 0.209776
H -2.324829 0.710545 0.741516
H -2.318315 0.325536 -0.980004
C 1.808807 0.004601 -0.002607
H 2.883199 0.004215 -0.003539
