9
Energy =   -191.946146839     
    C    1.757777   -1.595114    0.000000
    H    1.064364   -2.429903   -0.000000
    H    2.828267   -1.778110    0.000000
    C    1.306308   -0.237487    0.000000
    H    2.049681    0.576810   -0.000000
    C   -0.000239    0.223408    0.000000
    C   -1.162461    0.714132    0.000000
    C   -2.336381    1.223614   -0.000000
    H   -3.334684    1.657696    0.000000

FREQUENCIES 21
-141.7673
136.9859
151.3757
300.2858
358.4281
402.6748
594.8377
773.7103
816.5059
872.4246
1042.3808
1193.8771
1309.3403
1463.3526
1472.8455
1490.5595
1970.6154
2989.8307
3113.4191
3193.9048
3239.6417

SYMMETRY CS
ELECTRONIC_STATE 3-A'
