9
Energy = -191.30568436000
C -2.493010 0.375633 0.000000
C 1.968967 -1.212184 0.000000
C 1.307979 -0.033262 0.000000
H 2.025463 0.232683 0.883972
H 2.025463 0.232683 -0.883972
C 0.000000 0.668774 0.000000
H 0.031305 1.752887 0.000000
C -1.231282 0.015009 0.000000
H -1.398153 -1.102077 0.000000
