9
Energy = -191.97793285000
C -1.837139 -0.497211 0.000669
H -2.677950 0.194176 0.027328
H -1.898095 -1.124020 -0.894418
H -1.876453 -1.170719 0.861707
C -0.574327 0.219131 0.000241
C 0.195195 1.330856 0.000061
C 0.867586 0.147836 -0.000213
C 2.035962 -0.580574 0.000145
H 2.328835 -1.619659 -0.000034
