9
Energy =   -192.409367103     
    C   -0.961892    1.861079    0.000000
    H   -1.912943    2.385658    0.000000
    H   -0.069124    2.488330    0.000000
    C   -0.911196    0.552757    0.000000
    C    0.000000   -0.510455    0.000000
    C    0.141128   -1.861207    0.000000
    C    1.397624   -0.633324    0.000000
    H    1.955069   -1.580481    0.000000
    H    2.033011    0.253396    0.000000

FREQUENCIES 21
-234.6675
182.8303
264.9543
348.8580
353.1672
455.7210
629.7165
640.4882
804.5913
953.8709
993.5382
1003.9466
1220.2881
1355.4234
1413.6987
1579.8631
1744.3677
3013.7939
3058.4682
3120.3365
3160.7553

SYMMETRY CS
ELECTRONIC_STATE 2-A'
