9
Energy = -192.30731679000
C 2.410318 0.212092 0.000820
H 2.998566 -0.160845 0.844208
H 2.382755 1.305294 0.033854
H 2.963007 -0.105660 -0.889127
C 1.095651 -0.426160 0.001171
C -0.158776 -0.106138 -0.000024
C -1.431504 0.038068 0.000055
C -2.729362 -0.020518 -0.000083
H -3.462295 0.777146 -0.000562
