9
Energy = -191.30710756000
C -2.415145 0.302494 0.000000
C -1.254470 -0.164728 0.000000
C 1.688899 1.298399 0.000000
C 1.309884 -0.004975 0.000000
H 2.015278 -0.205863 -0.886245
H 2.015278 -0.205863 0.886245
C 0.000000 -0.847674 0.000000
H -0.002780 -1.544683 -0.862223
H -0.002780 -1.544683 0.862223
