9
Energy = -191.96799164000
C -0.961892 1.861079 0.000000
H -1.912943 2.385658 0.000000
H -0.069124 2.488330 0.000000
C -0.911196 0.552757 0.000000
C 0.000000 -0.510455 0.000000
C 0.141128 -1.861207 0.000000
C 1.397624 -0.633324 0.000000
H 1.955069 -1.580481 0.000000
H 2.033011 0.253396 0.000000
