9
Energy =   -191.896748473     
    C   -0.003468   -1.490345    0.000000
    C   -1.076966   -2.350954    0.000000
    C    0.855098    2.125234    0.000000
    H    1.911440    1.868295    0.000000
    H    0.568970    3.175378    0.000000
    C   -0.141846    1.150199    0.000000
    H   -1.217644    1.440811    0.000000
    C    0.000000   -0.165108    0.000000
    H    0.940329   -2.098635    0.000000

FREQUENCIES 21
-462.8482
137.8373
202.4626
272.8759
426.1959
621.4038
653.3314
761.9173
832.1902
894.9515
1005.4849
1132.2777
1197.8481
1297.7929
1476.3797
1517.6786
1833.4943
2799.3562
2861.8386
3103.3074
3218.3463

SYMMETRY CS
ELECTRONIC_STATE 1-A'
