9
Energy = -192.33959527000
C -0.667492 -1.865821 0.000000
H -1.749207 -1.918395 0.000000
H -0.119533 -2.800690 0.000000
C 0.000000 -0.701695 0.000000
C 0.128243 0.689947 0.000000
C 1.328715 -0.122423 0.000000
C -0.315498 1.956362 0.000000
H 0.394328 2.775112 0.000000
H -1.369391 2.205755 0.000000
