9
Energy =   -191.078186268     
    C    2.539725    0.752466    0.000000
    C   -1.652337   -1.668606   -0.000000
    H   -0.934534   -2.502364   -0.000000
    H   -2.737931   -1.863015   -0.000000
    C   -1.204330   -0.251029    0.000000
    H   -2.003749    0.553759    0.000000
    C   -0.000539    0.337678   -0.000000
    C    1.097671    1.092169   -0.000000
    H    0.990413    2.234437   -0.000000

FREQUENCIES 21
-342.3422
-214.2233
150.2181
306.8458
325.9381
558.3451
602.7529
656.1102
807.4307
877.7311
964.0453
1024.7921
1137.1238
1158.1349
1329.0261
1434.5566
1505.3580
2560.0885
2679.6723
2975.8638
3104.1848

SYMMETRY CS
ELECTRONIC_STATE 2-A"
