3
Energy =   -76.1276794833     
    H    0.000000    0.000000    1.064944
    C    0.000000    0.634904   -0.088745
    C    0.000000   -0.634904   -0.088745

FREQUENCIES 3
-339.9324
1797.0454
2220.9961

SYMMETRY C2V
ELECTRONIC_STATE 1-A1
