3
Energy =   -76.4751425673     
    H    0.000000    0.000000   -1.692080
    C    0.000000    0.000000   -0.615121
    C    0.000000    0.000000    0.897135

FREQUENCIES 4
-1048.1499
-564.0477
1063.2008
3270.9712

SYMMETRY C*V
ELECTRONIC_STATE ??
