3
Energy =   -75.3338467696     
    H    0.000000    0.000000    1.196138
    C    0.000000    0.689502   -0.099678
    C    0.000000   -0.689502   -0.099678

FREQUENCIES 3
-855.8061
1365.2876
1577.1282

SYMMETRY C2V
ELECTRONIC_STATE 2-B1
