3
Energy = -75.99418026600
H 0.000000 0.000000 1.080380
C 0.000000 0.671780 -0.090032
C 0.000000 -0.671780 -0.090032
