3
Energy = -76.26373726200
H 0.000000 0.000000 1.002287
C 0.000000 0.744354 -0.083524
C 0.000000 -0.744354 -0.083524
