3
Energy = -75.99355353400
H 0.000000 0.000000 1.648855
C 0.000000 0.000000 0.555195
C 0.000000 0.000000 -0.830004
