3
Energy =   -76.1522419224     
    H    0.000000    0.000000    1.648855
    C    0.000000    0.000000    0.555195
    C    0.000000    0.000000   -0.830004

FREQUENCIES 4
-974.0077
470.2578
1390.4706
3139.6711

SYMMETRY C*V
ELECTRONIC_STATE ??
