3
Energy = -76.00337066600
H 0.000000 0.000000 1.064944
C 0.000000 0.634904 -0.088745
C 0.000000 -0.634904 -0.088745
