4
Energy =   -114.719001831     
    C    0.000000    0.000000   -1.423061
    C    0.000000    0.000000   -0.092332
    C    0.000000    0.000000    1.146893
    H    0.000000    0.000000    2.210995

FREQUENCIES 7
-192.0729
245.1866
379.7184
830.7742
1177.1987
1905.4260
3431.8244

SYMMETRY C*V
ELECTRONIC_STATE ??
