4
Energy = -113.32105365000
H 0.000000 0.000000 1.508100
C 0.000000 0.000000 0.355210
C 0.000000 1.198609 -0.303280
C 0.000000 -1.198609 -0.303280
