6
Energy = -189.97794543000
H -0.000143 1.983029 0.000000
C 0.000018 0.902269 0.000000
C 1.077340 -0.143543 0.000000
C 0.000018 -0.472623 0.896754
C 0.000018 -0.472623 -0.896754
C -1.077370 -0.143985 0.000000
