 Entering Gaussian System, Link 0=g09
 Initial command:
 /usr/local/gaussian/gaussian09/g09/l1.exe "/scratch/sergio/C2.q-1.m4-1.com-4921599/Gau-1336.inp" -scrdir="/scratch/sergio/C2.q-1.m4-1.com-4921599/"
 Default is to use a total of   2 processors:
                                2 via shared-memory
                                1 via Linda
 Entering Link 1 = /usr/local/gaussian/gaussian09/g09/l1.exe PID=      1337.
  
 Copyright (c) 1988,1990,1992,1993,1995,1998,2003,2009,2015,
            Gaussian, Inc.  All Rights Reserved.
  
 This is part of the Gaussian(R) 09 program.  It is based on
 the Gaussian(R) 03 system (copyright 2003, Gaussian, Inc.),
 the Gaussian(R) 98 system (copyright 1998, Gaussian, Inc.),
 the Gaussian(R) 94 system (copyright 1995, Gaussian, Inc.),
 the Gaussian 92(TM) system (copyright 1992, Gaussian, Inc.),
 the Gaussian 90(TM) system (copyright 1990, Gaussian, Inc.),
 the Gaussian 88(TM) system (copyright 1988, Gaussian, Inc.),
 the Gaussian 86(TM) system (copyright 1986, Carnegie Mellon
 University), and the Gaussian 82(TM) system (copyright 1983,
 Carnegie Mellon University). Gaussian is a federally registered
 trademark of Gaussian, Inc.
  
 This software contains proprietary and confidential information,
 including trade secrets, belonging to Gaussian, Inc.
  
 This software is provided under written license and may be
 used, copied, transmitted, or stored only in accord with that
 written license.
  
 The following legend is applicable only to US Government
 contracts under FAR:
  
                    RESTRICTED RIGHTS LEGEND
  
 Use, reproduction and disclosure by the US Government is
 subject to restrictions as set forth in subparagraphs (a)
 and (c) of the Commercial Computer Software - Restricted
 Rights clause in FAR 52.227-19.
  
 Gaussian, Inc.
 340 Quinnipiac St., Bldg. 40, Wallingford CT 06492
  
  
 ---------------------------------------------------------------
 Warning -- This program may not be used in any manner that
 competes with the business of Gaussian, Inc. or will provide
 assistance to any competitor of Gaussian, Inc.  The licensee
 of this program is prohibited from giving any competitor of
 Gaussian, Inc. access to this program.  By using this program,
 the user acknowledges that Gaussian, Inc. is engaged in the
 business of creating and licensing software in the field of
 computational chemistry and represents and warrants to the
 licensee that it is not a competitor of Gaussian, Inc. and that
 it will not use this program in any manner prohibited above.
 ---------------------------------------------------------------
  

 Cite this work as:
 Gaussian 09, Revision E.01,
 M. J. Frisch, G. W. Trucks, H. B. Schlegel, G. E. Scuseria, 
 M. A. Robb, J. R. Cheeseman, G. Scalmani, V. Barone, B. Mennucci, 
 G. A. Petersson, H. Nakatsuji, M. Caricato, X. Li, H. P. Hratchian, 
 A. F. Izmaylov, J. Bloino, G. Zheng, J. L. Sonnenberg, M. Hada, 
 M. Ehara, K. Toyota, R. Fukuda, J. Hasegawa, M. Ishida, T. Nakajima, 
 Y. Honda, O. Kitao, H. Nakai, T. Vreven, J. A. Montgomery, Jr., 
 J. E. Peralta, F. Ogliaro, M. Bearpark, J. J. Heyd, E. Brothers, 
 K. N. Kudin, V. N. Staroverov, T. Keith, R. Kobayashi, J. Normand, 
 K. Raghavachari, A. Rendell, J. C. Burant, S. S. Iyengar, J. Tomasi, 
 M. Cossi, N. Rega, J. M. Millam, M. Klene, J. E. Knox, J. B. Cross, 
 V. Bakken, C. Adamo, J. Jaramillo, R. Gomperts, R. E. Stratmann, 
 O. Yazyev, A. J. Austin, R. Cammi, C. Pomelli, J. W. Ochterski, 
 R. L. Martin, K. Morokuma, V. G. Zakrzewski, G. A. Voth, 
 P. Salvador, J. J. Dannenberg, S. Dapprich, A. D. Daniels, 
 O. Farkas, J. B. Foresman, J. V. Ortiz, J. Cioslowski, 
 and D. J. Fox, Gaussian, Inc., Wallingford CT, 2013.
 
 ******************************************
 Gaussian 09:  EM64L-G09RevE.01 30-Nov-2015
                25-Jan-2019 
 ******************************************
 Default route:  MaxDisk=70000MB
 -------------------------------------------------
 #p b3lyp/6-311++G(3df,2p) opt freq symmetry=Loose
 -------------------------------------------------
 1/14=-1,18=20,19=15,26=3,38=1/1,3;
 2/9=110,12=2,17=4,18=3,40=1/2;
 3/5=4,6=6,7=1216,11=2,16=1,25=1,30=1,71=1,74=-5/1,2,3;
 4//1;
 5/5=2,38=5/2;
 6/7=2,8=2,9=2,10=2,28=1/1;
 7//1,2,3,16;
 1/14=-1,18=20,19=15,26=3/3(2);
 2/9=110/2;
 99//99;
 2/9=110/2;
 3/5=4,6=6,7=1216,11=2,16=1,25=1,30=1,71=1,74=-5/1,2,3;
 4/5=5,16=3,69=1/1;
 5/5=2,38=5/2;
 7//1,2,3,16;
 1/14=-1,18=20,19=15,26=3/3(-5);
 2/9=110/2;
 6/7=2,8=2,9=2,10=2,19=2,28=1/1;
 99/9=1/99;
 Leave Link    1 at Fri Jan 25 14:28:29 2019, MaxMem=           0 cpu:         0.3
 (Enter /usr/local/gaussian/gaussian09/g09/l101.exe)
 ---------
 b3lyp opt
 ---------
 Symbolic Z-matrix:
 Charge = -1 Multiplicity = 4
 C                     0.62354   0.        0. 
 C                    -0.62354   0.        0. 
 
 NAtoms=      2 NQM=        2 NQMF=       0 NMMI=      0 NMMIF=      0
                NMic=       0 NMicF=      0.
                    Isotopes and Nuclear Properties:
 (Nuclear quadrupole moments (NQMom) in fm**2, nuclear magnetic moments (NMagM)
  in nuclear magnetons)

  Atom         1           2
 IAtWgt=          12          12
 AtmWgt=  12.0000000  12.0000000
 NucSpn=           0           0
 AtZEff=   0.0000000   0.0000000
 NQMom=    0.0000000   0.0000000
 NMagM=    0.0000000   0.0000000
 AtZNuc=   6.0000000   6.0000000
 Leave Link  101 at Fri Jan 25 14:28:29 2019, MaxMem=   412876800 cpu:         0.4
 (Enter /usr/local/gaussian/gaussian09/g09/l103.exe)

 GradGradGradGradGradGradGradGradGradGradGradGradGradGradGradGradGradGrad
 Berny optimization.
 Initialization pass.
                           ----------------------------
                           !    Initial Parameters    !
                           ! (Angstroms and Degrees)  !
 --------------------------                            --------------------------
 ! Name  Definition              Value          Derivative Info.                !
 --------------------------------------------------------------------------------
 ! R1    R(1,2)                  1.2471         estimate D2E/DX2                !
 --------------------------------------------------------------------------------
 Trust Radius=3.00D-01 FncErr=1.00D-07 GrdErr=1.00D-06
 Number of steps in this run=     20 maximum allowed number of steps=    100.
 GradGradGradGradGradGradGradGradGradGradGradGradGradGradGradGradGradGrad

 Leave Link  103 at Fri Jan 25 14:28:31 2019, MaxMem=   412876800 cpu:         0.3
 (Enter /usr/local/gaussian/gaussian09/g09/l202.exe)
                          Input orientation:                          
 ---------------------------------------------------------------------
 Center     Atomic      Atomic             Coordinates (Angstroms)
 Number     Number       Type             X           Y           Z
 ---------------------------------------------------------------------
      1          6           0        0.623543    0.000000    0.000000
      2          6           0       -0.623543    0.000000    0.000000
 ---------------------------------------------------------------------
 Stoichiometry    C2(1-,4)
 Framework group  D*H[C*(C.C)]
 Deg. of freedom     1
 Full point group                 D*H     NOp   8
 Largest Abelian subgroup         D2H     NOp   8
 Largest concise Abelian subgroup C2      NOp   2
                         Standard orientation:                         
 ---------------------------------------------------------------------
 Center     Atomic      Atomic             Coordinates (Angstroms)
 Number     Number       Type             X           Y           Z
 ---------------------------------------------------------------------
      1          6           0        0.000000    0.000000    0.623543
      2          6           0        0.000000    0.000000   -0.623543
 ---------------------------------------------------------------------
 Rotational constants (GHZ):      0.0000000     54.1593119     54.1593119
 Leave Link  202 at Fri Jan 25 14:28:33 2019, MaxMem=   412876800 cpu:         0.2
 (Enter /usr/local/gaussian/gaussian09/g09/l301.exe)
 Standard basis: 6-311++G(3df,2p) (5D, 7F)
 Ernie: Thresh=  0.10000D-02 Tol=  0.10000D-05 Strict=F.
 There are    21 symmetry adapted cartesian basis functions of AG  symmetry.
 There are     4 symmetry adapted cartesian basis functions of B1G symmetry.
 There are    10 symmetry adapted cartesian basis functions of B2G symmetry.
 There are    10 symmetry adapted cartesian basis functions of B3G symmetry.
 There are     4 symmetry adapted cartesian basis functions of AU  symmetry.
 There are    21 symmetry adapted cartesian basis functions of B1U symmetry.
 There are    10 symmetry adapted cartesian basis functions of B2U symmetry.
 There are    10 symmetry adapted cartesian basis functions of B3U symmetry.
 There are    17 symmetry adapted basis functions of AG  symmetry.
 There are     4 symmetry adapted basis functions of B1G symmetry.
 There are     9 symmetry adapted basis functions of B2G symmetry.
 There are     9 symmetry adapted basis functions of B3G symmetry.
 There are     4 symmetry adapted basis functions of AU  symmetry.
 There are    17 symmetry adapted basis functions of B1U symmetry.
 There are     9 symmetry adapted basis functions of B2U symmetry.
 There are     9 symmetry adapted basis functions of B3U symmetry.
    78 basis functions,   116 primitive gaussians,    90 cartesian basis functions
     8 alpha electrons        5 beta electrons
       nuclear repulsion energy        15.2759148200 Hartrees.
 IExCor=  402 DFT=T Ex+Corr=B3LYP ExCW=0 ScaHFX=  0.200000
 ScaDFX=  0.800000  0.720000  1.000000  0.810000 ScalE2=  1.000000  1.000000
 IRadAn=      0 IRanWt=     -1 IRanGd=            0 ICorTp=0 IEmpDi=  4
 NAtoms=    2 NActive=    2 NUniq=    1 SFac= 4.00D+00 NAtFMM=   60 NAOKFM=F Big=F
 Integral buffers will be    131072 words long.
 Raffenetti 2 integral format.
 Two-electron integral symmetry is turned on.
 Leave Link  301 at Fri Jan 25 14:28:34 2019, MaxMem=   412876800 cpu:         0.7
 (Enter /usr/local/gaussian/gaussian09/g09/l302.exe)
 NPDir=0 NMtPBC=     1 NCelOv=     1 NCel=       1 NClECP=     1 NCelD=      1
         NCelK=      1 NCelE2=     1 NClLst=     1 CellRange=     0.0.
 One-electron integrals computed using PRISM.
 One-electron integral symmetry used in STVInt
 NBasis=    78 RedAO= T EigKep=  7.85D-05  NBF=    17     4     9     9     4    17     9     9
 NBsUse=    78 1.00D-06 EigRej= -1.00D+00 NBFU=    17     4     9     9     4    17     9     9
 Precomputing XC quadrature grid using
 IXCGrd= 4 IRadAn=           0 IRanWt=          -1 IRanGd=           0 AccXCQ= 0.00D+00.
 Generated NRdTot=       0 NPtTot=           0 NUsed=           0 NTot=          32
 NSgBfM=    90    90    90    90    90 MxSgAt=     2 MxSgA2=     2.
 Leave Link  302 at Fri Jan 25 14:28:39 2019, MaxMem=   412876800 cpu:         2.2
 (Enter /usr/local/gaussian/gaussian09/g09/l303.exe)
 DipDrv:  MaxL=1.
 Leave Link  303 at Fri Jan 25 14:28:40 2019, MaxMem=   412876800 cpu:         0.1
 (Enter /usr/local/gaussian/gaussian09/g09/l401.exe)
 ExpMin= 4.38D-02 ExpMax= 4.56D+03 ExpMxC= 6.82D+02 IAcc=2 IRadAn=         4 AccDes= 0.00D+00
 Harris functional with IExCor=  402 and IRadAn=       4 diagonalized for initial guess.
 HarFok:  IExCor=  402 AccDes= 0.00D+00 IRadAn=         4 IDoV= 1 UseB2=F ITyADJ=14
 ICtDFT=  3500011 ScaDFX=  1.000000  1.000000  1.000000  1.000000
 FoFCou: FMM=F IPFlag=           0 FMFlag=      100000 FMFlg1=           0
         NFxFlg=           0 DoJE=T BraDBF=F KetDBF=T FulRan=T
         wScrn=  0.000000 ICntrl=     500 IOpCl=  0 I1Cent=   200000004 NGrid=           0
         NMat0=    1 NMatS0=      1 NMatT0=    0 NMatD0=    1 NMtDS0=    0 NMtDT0=    0
 Petite list used in FoFCou.
 Harris En= -75.9595719952524    
 JPrj=0 DoOrth=F DoCkMO=F.
 Initial guess orbital symmetries:
 Alpha Orbitals:
       Occupied  (SGG) (SGU) (SGG) (SGU) (PIU) (PIU) (SGG) (PIG)
       Virtual   (PIG) (SGG) (SGU) (PIU) (PIU) (SGG) (PIG) (PIG)
                 (SGU) (DLTG) (DLTG) (SGU) (SGG) (PIU) (PIU) (SGU)
                 (DLTU) (DLTU) (PIU) (PIU) (SGG) (PIG) (PIG) (PIG)
                 (PIG) (SGU) (SGG) (SGU) (PIU) (PIU) (DLTG) (DLTG)
                 (DLTU) (DLTU) (SGG) (PIG) (PIG) (SGU) (PIU) (PIU)
                 (SGG) (DLTG) (DLTG) (PHIU) (PHIU) (PIG) (PIG)
                 (PHIG) (PHIG) (PIU) (PIU) (SGU) (DLTU) (DLTU)
                 (SGU) (SGG) (PIG) (PIG) (DLTG) (DLTG) (DLTU) (DLTU)
                 (SGU) (PIU) (PIU) (PIG) (PIG) (SGG) (SGG) (SGU)
 Beta  Orbitals:
       Occupied  (SGG) (SGU) (SGG) (SGU) (PIU)
       Virtual   (PIU) (SGG) (PIG) (PIG) (SGG) (SGU) (PIU) (PIU)
                 (SGG) (PIG) (PIG) (SGU) (DLTG) (DLTG) (SGU) (SGG)
                 (PIU) (PIU) (SGU) (DLTU) (DLTU) (PIU) (PIU) (SGG)
                 (PIG) (PIG) (PIG) (PIG) (SGU) (SGG) (SGU) (PIU)
                 (PIU) (DLTG) (DLTG) (DLTU) (DLTU) (SGG) (PIG)
                 (PIG) (SGU) (PIU) (PIU) (SGG) (DLTG) (DLTG) (PHIU)
                 (PHIU) (PIG) (PIG) (PHIG) (PHIG) (PIU) (PIU) (SGU)
                 (DLTU) (DLTU) (SGU) (SGG) (PIG) (PIG) (DLTG) (DLTG)
                 (DLTU) (DLTU) (SGU) (PIU) (PIU) (PIG) (PIG) (SGG)
                 (SGG) (SGU)
 Initial guess <Sx>= 0.0000 <Sy>= 0.0000 <Sz>= 1.5000 <S**2>= 3.7500 S= 1.5000
 Leave Link  401 at Fri Jan 25 14:28:45 2019, MaxMem=   412876800 cpu:         2.8
 (Enter /usr/local/gaussian/gaussian09/g09/l502.exe)
 UHF open shell SCF:
 Using DIIS extrapolation, IDIIS=  1040.
 Integral symmetry usage will be decided dynamically.
 Keep R1 and R2 ints in memory in symmetry-blocked form, NReq=6757276.
 IVT=       44262 IEndB=       44262 NGot=   412876800 MDV=   411595737
 LenX=   411595737 LenY=   411587196
 Requested convergence on RMS density matrix=1.00D-08 within 128 cycles.
 Requested convergence on MAX density matrix=1.00D-06.
 Requested convergence on             energy=1.00D-06.
 No special actions if energy rises.
 FoFCou: FMM=F IPFlag=           0 FMFlag=           0 FMFlg1=           0
         NFxFlg=           0 DoJE=F BraDBF=F KetDBF=F FulRan=T
         wScrn=  0.000000 ICntrl=     600 IOpCl=  0 I1Cent=           0 NGrid=           0
         NMat0=    1 NMatS0=   3081 NMatT0=    0 NMatD0=    1 NMtDS0=    0 NMtDT0=    0
 Petite list used in FoFCou.

 Cycle   1  Pass 1  IDiag  1:
 E= -75.7890111043690    
 DIIS: error= 4.54D-02 at cycle   1 NSaved=   1.
 NSaved= 1 IEnMin= 1 EnMin= -75.7890111043690     IErMin= 1 ErrMin= 4.54D-02
 ErrMax= 4.54D-02  0.00D+00 EMaxC= 1.00D-01 BMatC= 2.81D-01 BMatP= 2.81D-01
 IDIUse=3 WtCom= 5.46D-01 WtEn= 4.54D-01
 Coeff-Com:  0.100D+01
 Coeff-En:   0.100D+01
 Coeff:      0.100D+01
 Gap=     0.022 Goal=   None    Shift=    0.000
 Gap=     0.095 Goal=   None    Shift=    0.000
 GapD=    0.022 DampG=0.250 DampE=0.500 DampFc=0.2500 IDamp=-1.
 Damping current iteration by 2.50D-01
 RMSDP=8.98D+00 MaxDP=4.55D+02              OVMax= 3.22D-01

 Cycle   2  Pass 1  IDiag  1:
 E= -75.8231539706871     Delta-E=       -0.034142866318 Rises=F Damp=T
 DIIS: error= 1.78D-02 at cycle   2 NSaved=   2.
 NSaved= 2 IEnMin= 2 EnMin= -75.8231539706871     IErMin= 2 ErrMin= 1.78D-02
 ErrMax= 1.78D-02  0.00D+00 EMaxC= 1.00D-01 BMatC= 4.74D-02 BMatP= 2.81D-01
 IDIUse=3 WtCom= 8.22D-01 WtEn= 1.78D-01
 Coeff-Com: -0.586D+00 0.159D+01
 Coeff-En:   0.000D+00 0.100D+01
 Coeff:     -0.482D+00 0.148D+01
 Gap=     0.017 Goal=   None    Shift=    0.000
 Gap=     0.130 Goal=   None    Shift=    0.000
 RMSDP=2.25D+00 MaxDP=1.14D+02 DE=-3.41D-02 OVMax= 2.22D-01

 Cycle   3  Pass 1  IDiag  1:
 E= -75.8808491834921     Delta-E=       -0.057695212805 Rises=F Damp=F
 DIIS: error= 1.08D-02 at cycle   3 NSaved=   3.
 NSaved= 3 IEnMin= 3 EnMin= -75.8808491834921     IErMin= 3 ErrMin= 1.08D-02
 ErrMax= 1.08D-02  0.00D+00 EMaxC= 1.00D-01 BMatC= 7.45D-03 BMatP= 4.74D-02
 IDIUse=3 WtCom= 8.92D-01 WtEn= 1.08D-01
 Coeff-Com: -0.297D+00 0.480D+00 0.817D+00
 Coeff-En:   0.000D+00 0.000D+00 0.100D+01
 Coeff:     -0.265D+00 0.428D+00 0.837D+00
 Gap=     0.034 Goal=   None    Shift=    0.000
 Gap=     0.108 Goal=   None    Shift=    0.000
 RMSDP=9.47D-03 MaxDP=4.59D-01 DE=-5.77D-02 OVMax= 1.19D-01

 Cycle   4  Pass 1  IDiag  1:
 E= -75.8860834954183     Delta-E=       -0.005234311926 Rises=F Damp=F
 DIIS: error= 1.62D-03 at cycle   4 NSaved=   4.
 NSaved= 4 IEnMin= 4 EnMin= -75.8860834954183     IErMin= 4 ErrMin= 1.62D-03
 ErrMax= 1.62D-03  0.00D+00 EMaxC= 1.00D-01 BMatC= 2.62D-04 BMatP= 7.45D-03
 IDIUse=3 WtCom= 9.84D-01 WtEn= 1.62D-02
 Coeff-Com:  0.572D-01-0.844D-01-0.718D-02 0.103D+01
 Coeff-En:   0.000D+00 0.000D+00 0.000D+00 0.100D+01
 Coeff:      0.563D-01-0.830D-01-0.706D-02 0.103D+01
 Gap=     0.054 Goal=   None    Shift=    0.000
 Gap=     0.109 Goal=   None    Shift=    0.000
 RMSDP=4.14D-03 MaxDP=1.78D-01 DE=-5.23D-03 OVMax= 3.92D-02

 Cycle   5  Pass 1  IDiag  1:
 E= -75.8862555361323     Delta-E=       -0.000172040714 Rises=F Damp=F
 DIIS: error= 1.65D-03 at cycle   5 NSaved=   5.
 NSaved= 5 IEnMin= 5 EnMin= -75.8862555361323     IErMin= 4 ErrMin= 1.62D-03
 ErrMax= 1.65D-03  0.00D+00 EMaxC= 1.00D-01 BMatC= 2.55D-04 BMatP= 2.62D-04
 IDIUse=3 WtCom= 9.84D-01 WtEn= 1.65D-02
 Coeff-Com:  0.359D-01-0.529D-01 0.761D-01-0.423D-01 0.983D+00
 Coeff-En:   0.000D+00 0.000D+00 0.000D+00 0.000D+00 0.100D+01
 Coeff:      0.353D-01-0.521D-01 0.749D-01-0.416D-01 0.983D+00
 Gap=     0.054 Goal=   None    Shift=    0.000
 Gap=     0.109 Goal=   None    Shift=    0.000
 RMSDP=4.89D-04 MaxDP=1.44D-02 DE=-1.72D-04 OVMax= 4.26D-03

 Cycle   6  Pass 1  IDiag  1:
 E= -75.8863491584086     Delta-E=       -0.000093622276 Rises=F Damp=F
 DIIS: error= 6.58D-04 at cycle   6 NSaved=   6.
 NSaved= 6 IEnMin= 6 EnMin= -75.8863491584086     IErMin= 6 ErrMin= 6.58D-04
 ErrMax= 6.58D-04  0.00D+00 EMaxC= 1.00D-01 BMatC= 3.78D-05 BMatP= 2.55D-04
 IDIUse=3 WtCom= 9.93D-01 WtEn= 6.58D-03
 Coeff-Com: -0.299D-02 0.304D-02 0.355D-01-0.942D-01-0.332D+00 0.139D+01
 Coeff-En:   0.000D+00 0.000D+00 0.000D+00 0.000D+00 0.000D+00 0.100D+01
 Coeff:     -0.297D-02 0.302D-02 0.353D-01-0.935D-01-0.330D+00 0.139D+01
 Gap=     0.053 Goal=   None    Shift=    0.000
 Gap=     0.109 Goal=   None    Shift=    0.000
 RMSDP=2.31D-04 MaxDP=8.18D-03 DE=-9.36D-05 OVMax= 2.44D-03

 Cycle   7  Pass 1  IDiag  1:
 E= -75.8863655192123     Delta-E=       -0.000016360804 Rises=F Damp=F
 DIIS: error= 2.66D-05 at cycle   7 NSaved=   7.
 NSaved= 7 IEnMin= 7 EnMin= -75.8863655192123     IErMin= 7 ErrMin= 2.66D-05
 ErrMax= 2.66D-05  0.00D+00 EMaxC= 1.00D-01 BMatC= 5.29D-08 BMatP= 3.78D-05
 IDIUse=1 WtCom= 1.00D+00 WtEn= 0.00D+00
 Coeff-Com:  0.166D-03 0.568D-04-0.736D-02 0.145D-01-0.224D-01-0.325D-01
 Coeff-Com:  0.105D+01
 Coeff:      0.166D-03 0.568D-04-0.736D-02 0.145D-01-0.224D-01-0.325D-01
 Coeff:      0.105D+01
 Gap=     0.053 Goal=   None    Shift=    0.000
 Gap=     0.109 Goal=   None    Shift=    0.000
 RMSDP=4.48D-05 MaxDP=2.43D-03 DE=-1.64D-05 OVMax= 5.19D-04

 Cycle   8  Pass 1  IDiag  1:
 E= -75.8863655595063     Delta-E=       -0.000000040294 Rises=F Damp=F
 DIIS: error= 1.94D-06 at cycle   8 NSaved=   8.
 NSaved= 8 IEnMin= 8 EnMin= -75.8863655595063     IErMin= 8 ErrMin= 1.94D-06
 ErrMax= 1.94D-06  0.00D+00 EMaxC= 1.00D-01 BMatC= 2.80D-10 BMatP= 5.29D-08
 IDIUse=1 WtCom= 1.00D+00 WtEn= 0.00D+00
 Coeff-Com:  0.363D-04-0.590D-04 0.242D-03 0.243D-03 0.462D-02-0.117D-01
 Coeff-Com: -0.680D-01 0.107D+01
 Coeff:      0.363D-04-0.590D-04 0.242D-03 0.243D-03 0.462D-02-0.117D-01
 Coeff:     -0.680D-01 0.107D+01
 Gap=     0.053 Goal=   None    Shift=    0.000
 Gap=     0.109 Goal=   None    Shift=    0.000
 RMSDP=2.88D-06 MaxDP=1.42D-04 DE=-4.03D-08 OVMax= 3.09D-05

 Cycle   9  Pass 1  IDiag  1:
 E= -75.8863655597509     Delta-E=       -0.000000000245 Rises=F Damp=F
 DIIS: error= 2.65D-07 at cycle   9 NSaved=   9.
 NSaved= 9 IEnMin= 9 EnMin= -75.8863655597509     IErMin= 9 ErrMin= 2.65D-07
 ErrMax= 2.65D-07  0.00D+00 EMaxC= 1.00D-01 BMatC= 4.40D-12 BMatP= 2.80D-10
 IDIUse=1 WtCom= 1.00D+00 WtEn= 0.00D+00
 Coeff-Com:  0.539D-05-0.110D-04 0.203D-04-0.101D-04-0.494D-03 0.170D-02
 Coeff-Com:  0.134D-02-0.106D+00 0.110D+01
 Coeff:      0.539D-05-0.110D-04 0.203D-04-0.101D-04-0.494D-03 0.170D-02
 Coeff:      0.134D-02-0.106D+00 0.110D+01
 Gap=     0.053 Goal=   None    Shift=    0.000
 Gap=     0.109 Goal=   None    Shift=    0.000
 RMSDP=3.78D-07 MaxDP=2.03D-05 DE=-2.45D-10 OVMax= 4.43D-06

 Cycle  10  Pass 1  IDiag  1:
 E= -75.8863655597552     Delta-E=       -0.000000000004 Rises=F Damp=F
 DIIS: error= 9.88D-08 at cycle  10 NSaved=  10.
 NSaved=10 IEnMin=10 EnMin= -75.8863655597552     IErMin=10 ErrMin= 9.88D-08
 ErrMax= 9.88D-08  0.00D+00 EMaxC= 1.00D-01 BMatC= 8.59D-13 BMatP= 4.40D-12
 IDIUse=1 WtCom= 1.00D+00 WtEn= 0.00D+00
 Coeff-Com:  0.943D-06-0.114D-05-0.313D-05 0.519D-05-0.207D-04-0.501D-04
 Coeff-Com:  0.123D-02-0.877D-02-0.106D+00 0.111D+01
 Coeff:      0.943D-06-0.114D-05-0.313D-05 0.519D-05-0.207D-04-0.501D-04
 Coeff:      0.123D-02-0.877D-02-0.106D+00 0.111D+01
 Gap=     0.053 Goal=   None    Shift=    0.000
 Gap=     0.109 Goal=   None    Shift=    0.000
 RMSDP=8.89D-08 MaxDP=4.33D-06 DE=-4.26D-12 OVMax= 9.66D-07

 Cycle  11  Pass 1  IDiag  1:
 E= -75.8863655597556     Delta-E=       -0.000000000000 Rises=F Damp=F
 DIIS: error= 1.28D-08 at cycle  11 NSaved=  11.
 NSaved=11 IEnMin=11 EnMin= -75.8863655597556     IErMin=11 ErrMin= 1.28D-08
 ErrMax= 1.28D-08  0.00D+00 EMaxC= 1.00D-01 BMatC= 1.46D-14 BMatP= 8.59D-13
 IDIUse=1 WtCom= 1.00D+00 WtEn= 0.00D+00
 Coeff-Com:  0.114D-06-0.173D-06-0.235D-06 0.199D-05 0.439D-06-0.115D-04
 Coeff-Com: -0.103D-04 0.109D-02 0.988D-03-0.115D+00 0.111D+01
 Coeff:      0.114D-06-0.173D-06-0.235D-06 0.199D-05 0.439D-06-0.115D-04
 Coeff:     -0.103D-04 0.109D-02 0.988D-03-0.115D+00 0.111D+01
 Gap=     0.053 Goal=   None    Shift=    0.000
 Gap=     0.109 Goal=   None    Shift=    0.000
 RMSDP=1.03D-08 MaxDP=3.80D-07 DE=-3.69D-13 OVMax= 8.70D-08

 Cycle  12  Pass 1  IDiag  1:
 E= -75.8863655597556     Delta-E=        0.000000000000 Rises=F Damp=F
 DIIS: error= 2.00D-09 at cycle  12 NSaved=  12.
 NSaved=12 IEnMin=11 EnMin= -75.8863655597556     IErMin=12 ErrMin= 2.00D-09
 ErrMax= 2.00D-09  0.00D+00 EMaxC= 1.00D-01 BMatC= 3.24D-16 BMatP= 1.46D-14
 IDIUse=1 WtCom= 1.00D+00 WtEn= 0.00D+00
 Coeff-Com: -0.156D-07 0.222D-07 0.122D-06-0.299D-06 0.147D-06 0.743D-06
 Coeff-Com: -0.413D-05-0.747D-04 0.733D-03 0.536D-02-0.197D+00 0.119D+01
 Coeff:     -0.156D-07 0.222D-07 0.122D-06-0.299D-06 0.147D-06 0.743D-06
 Coeff:     -0.413D-05-0.747D-04 0.733D-03 0.536D-02-0.197D+00 0.119D+01
 Gap=     0.053 Goal=   None    Shift=    0.000
 Gap=     0.109 Goal=   None    Shift=    0.000
 RMSDP=1.63D-09 MaxDP=7.00D-08 DE= 0.00D+00 OVMax= 1.60D-08

 SCF Done:  E(UB3LYP) =  -75.8863655598     A.U. after   12 cycles
            NFock= 12  Conv=0.16D-08     -V/T= 1.9979
 <Sx>= 0.0000 <Sy>= 0.0000 <Sz>= 1.5000 <S**2>= 3.7574 S= 1.5019
 <L.S>= 0.000000000000E+00
 KE= 7.604898446709D+01 PE=-2.104567913633D+02 EE= 4.324552651646D+01
 Annihilation of the first spin contaminant:
 S**2 before annihilation     3.7574,   after     3.7500
 Leave Link  502 at Fri Jan 25 14:28:47 2019, MaxMem=   412876800 cpu:         3.8
 (Enter /usr/local/gaussian/gaussian09/g09/l601.exe)
 Copying SCF densities to generalized density rwf, IOpCl= 1 IROHF=0.

 **********************************************************************

            Population analysis using the SCF density.

 **********************************************************************

 Orbital symmetries:
 Alpha Orbitals:
       Occupied  (SGG) (SGU) (SGG) (SGU) (PIU) (SGG) (PIU) (?A)
       Virtual   (SGU) (SGG) (?A) (PIU) (PIU) (SGG) (?A) (?A) (SGU)
                 (?B) (?B) (SGU) (?B) (PIU) (PIU) (?C) (?C) (?C)
                 (SGG) (PIG) (PIU) (PIU) (PIG) (PIG) (PIG) (SGU)
                 (SGG) (SGU) (PIU) (?D) (?D) (PIU) (DLTU) (DLTU)
                 (?D) (PIG) (PIG) (SGU) (?E) (?F) (?E) (?F) (?E)
                 (?F) (?F) (?G) (?G) (?G) (?G) (PIU) (PIU) (?H)
                 (?H) (?H) (?H) (SGG) (PIG) (PIG) (DLTG) (DLTG)
                 (?H) (?H) (?H) (PIU) (PIU) (PIG) (PIG) (SGG) (SGG)
                 (SGU)
 Beta  Orbitals:
       Occupied  (SGG) (SGU) (SGG) (SGU) (?A)
       Virtual   (?A) (SGG) (SGU) (SGG) (?B) (?A) (?B) (?A) (SGG)
                 (SGU) (?B) (?B) (?C) (?C) (SGU) (?C) (PIU) (PIU)
                 (?D) (?D) (?D) (PIU) (SGG) (?B) (PIU) (?B) (?B)
                 (?B) (SGU) (SGG) (SGU) (PIU) (?E) (?E) (PIU) (DLTU)
                 (DLTU) (?E) (PIG) (PIG) (SGU) (?F) (?G) (?G) (?F)
                 (?G) (?F) (?G) (?H) (?H) (?H) (?H) (PIU) (PIU)
                 (?H) (?H) (?H) (SGU) (SGG) (PIG) (PIG) (DLTG)
                 (DLTG) (?H) (?H) (?H) (PIU) (PIU) (PIG) (PIG)
                 (SGG) (SGG) (SGU)
 Unable to determine electronic state:  an orbital has unidentified symmetry.
 Alpha  occ. eigenvalues --   -9.99443  -9.99284  -0.58187  -0.19401  -0.13786
 Alpha  occ. eigenvalues --   -0.10478  -0.09356   0.13072
 Alpha virt. eigenvalues --    0.18414   0.19019   0.20082   0.20516   0.21543
 Alpha virt. eigenvalues --    0.24726   0.25414   0.29241   0.29344   0.49407
 Alpha virt. eigenvalues --    0.49444   0.55749   0.56626   0.60902   0.62682
 Alpha virt. eigenvalues --    0.65518   0.66702   0.67420   0.72538   0.73837
 Alpha virt. eigenvalues --    0.73961   0.75714   0.76282   0.91769   0.93368
 Alpha virt. eigenvalues --    1.05323   1.20930   1.43234   1.62872   1.65244
 Alpha virt. eigenvalues --    1.65283   1.65647   1.94870   1.94983   1.98303
 Alpha virt. eigenvalues --    2.28431   2.30999   2.50779   2.82628   2.84235
 Alpha virt. eigenvalues --    2.85029   2.85348   2.85875   2.85903   2.87789
 Alpha virt. eigenvalues --    3.05560   3.08683   3.23219   3.23249   3.41517
 Alpha virt. eigenvalues --    3.43998   3.67684   3.84311   3.84452   4.06367
 Alpha virt. eigenvalues --    4.25240   4.88275   4.90997   7.11913   7.11921
 Alpha virt. eigenvalues --    7.24932   7.25539   7.30507   7.34333   7.37247
 Alpha virt. eigenvalues --    7.60818   7.63618   8.14957  23.54225  26.48269
  Beta  occ. eigenvalues --   -9.97442  -9.97308  -0.50554  -0.09285  -0.07147
  Beta virt. eigenvalues --    0.03705   0.03930   0.18925   0.20809   0.21015
  Beta virt. eigenvalues --    0.21482   0.21710   0.22393   0.24813   0.30211
  Beta virt. eigenvalues --    0.31187   0.34520   0.51143   0.51343   0.58286
  Beta virt. eigenvalues --    0.58441   0.63844   0.64963   0.68704   0.68892
  Beta virt. eigenvalues --    0.69607   0.76540   0.76746   0.77556   0.78564
  Beta virt. eigenvalues --    0.79319   0.94036   0.95287   1.11567   1.23974
  Beta virt. eigenvalues --    1.47075   1.69439   1.70172   1.70490   1.71914
  Beta virt. eigenvalues --    2.00660   2.01006   2.04745   2.34850   2.37191
  Beta virt. eigenvalues --    2.56870   2.88390   2.89007   2.90426   2.90628
  Beta virt. eigenvalues --    2.90629   2.91285   2.91970   3.10571   3.13097
  Beta virt. eigenvalues --    3.28394   3.28533   3.47552   3.49630   3.73016
  Beta virt. eigenvalues --    3.89612   3.89910   4.11326   4.31108   4.94035
  Beta virt. eigenvalues --    4.96291   7.17975   7.18225   7.31346   7.31570
  Beta virt. eigenvalues --    7.37582   7.41228   7.44046   7.67525   7.70133
  Beta virt. eigenvalues --    8.21563  23.56437  26.50748
          Condensed to atoms (all electrons):
               1          2
     1  C   10.585692  -4.085692
     2  C   -4.085692  10.585692
          Atomic-Atomic Spin Densities.
               1          2
     1  C    3.243589  -1.743589
     2  C   -1.743589   3.243589
 Mulliken charges and spin densities:
               1          2
     1  C   -0.500000   1.500000
     2  C   -0.500000   1.500000
 Sum of Mulliken charges =  -1.00000   3.00000
 Mulliken charges and spin densities with hydrogens summed into heavy atoms:
               1          2
     1  C   -0.500000   1.500000
     2  C   -0.500000   1.500000
 Electronic spatial extent (au):  <R**2>=             65.0244
 Charge=             -1.0000 electrons
 Dipole moment (field-independent basis, Debye):
    X=             -0.0000    Y=             -0.0000    Z=              0.0000  Tot=              0.0000
 Quadrupole moment (field-independent basis, Debye-Ang):
   XX=            -21.7476   YY=            -17.5946   ZZ=            -25.7077
   XY=             -0.0000   XZ=              0.0000   YZ=              0.0000
 Traceless Quadrupole moment (field-independent basis, Debye-Ang):
   XX=             -0.0643   YY=              4.0887   ZZ=             -4.0244
   XY=             -0.0000   XZ=              0.0000   YZ=              0.0000
 Octapole moment (field-independent basis, Debye-Ang**2):
  XXX=             -0.0000  YYY=             -0.0000  ZZZ=             -0.0000  XYY=             -0.0000
  XXY=              0.0000  XXZ=             -0.0000  XZZ=             -0.0000  YZZ=             -0.0000
  YYZ=              0.0000  XYZ=              0.0000
 Hexadecapole moment (field-independent basis, Debye-Ang**3):
 XXXX=            -78.2246 YYYY=            -36.2836 ZZZZ=           -128.6111 XXXY=             -0.0000
 XXXZ=              0.0000 YYYX=             -0.0000 YYYZ=              0.0000 ZZZX=              0.0000
 ZZZY=              0.0000 XXYY=            -19.0802 XXZZ=            -51.0694 YYZZ=            -26.6677
 XXYZ=              0.0000 YYXZ=              0.0000 ZZXY=             -0.0000
 N-N= 1.527591482002D+01 E-N=-2.104567914844D+02  KE= 7.604898446709D+01
 Symmetry AG   KE= 3.697006298769D+01
 Symmetry B1G  KE= 3.275854082121D-34
 Symmetry B2G  KE= 8.718894594268D-01
 Symmetry B3G  KE= 1.726543133050D-20
 Symmetry AU   KE= 2.500847893829D-33
 Symmetry B1U  KE= 3.488414014463D+01
 Symmetry B2U  KE= 2.171549605838D+00
 Symmetry B3U  KE= 1.151342269504D+00
                          Isotropic Fermi Contact Couplings
        Atom                 a.u.       MegaHertz       Gauss      10(-4) cm-1
     1  C(13)              0.07305      27.37313       9.76741       9.13069
     2  C(13)              0.07305      27.37313       9.76741       9.13069
 --------------------------------------------------------
       Center         ----  Spin Dipole Couplings  ----
                      3XX-RR        3YY-RR        3ZZ-RR
 --------------------------------------------------------
     1   Atom        0.664071     -0.974590      0.310519
     2   Atom        0.664071     -0.974590      0.310519
 --------------------------------------------------------
                        XY            XZ            YZ
 --------------------------------------------------------
     1   Atom        0.000000     -0.000000      0.000000
     2   Atom        0.000000     -0.000000      0.000000
 --------------------------------------------------------


 ---------------------------------------------------------------------------------
              Anisotropic Spin Dipole Couplings in Principal Axis System
 ---------------------------------------------------------------------------------

       Atom             a.u.   MegaHertz   Gauss  10(-4) cm-1        Axes

              Baa    -0.9746  -130.781   -46.666   -43.624  0.0000  1.0000  0.0000
     1 C(13)  Bbb     0.3105    41.669    14.868    13.899  0.0000  0.0000  1.0000
              Bcc     0.6641    89.112    31.797    29.725  1.0000  0.0000  0.0000
 
              Baa    -0.9746  -130.781   -46.666   -43.624  0.0000  1.0000  0.0000
     2 C(13)  Bbb     0.3105    41.669    14.868    13.899  0.0000  0.0000  1.0000
              Bcc     0.6641    89.112    31.797    29.725  1.0000  0.0000  0.0000
 

 ---------------------------------------------------------------------------------

 No NMR shielding tensors so no spin-rotation constants.
 Leave Link  601 at Fri Jan 25 14:28:48 2019, MaxMem=   412876800 cpu:         1.0
 (Enter /usr/local/gaussian/gaussian09/g09/l701.exe)
 Compute integral first derivatives.
 ... and contract with generalized density number  0.
 Leave Link  701 at Fri Jan 25 14:28:50 2019, MaxMem=   412876800 cpu:         1.2
 (Enter /usr/local/gaussian/gaussian09/g09/l702.exe)
 L702 exits ... SP integral derivatives will be done elsewhere.
 Leave Link  702 at Fri Jan 25 14:28:51 2019, MaxMem=   412876800 cpu:         0.1
 (Enter /usr/local/gaussian/gaussian09/g09/l703.exe)
 Compute integral first derivatives, UseDBF=F ICtDFT=           0.
 Integral derivatives from FoFJK, PRISM(SPDF).
 Calling FoFJK, ICntrl=      2127 FMM=F ISym2X=1 I1Cent= 0 IOpClX= 1 NMat=1 NMatS=1 NMatT=0.
 FoFJK:  IHMeth= 1 ICntrl=    2127 DoSepK=F KAlg= 0 I1Cent=   0 FoldK=F
 IRaf=         0 NMat=   1 IRICut=       1 DoRegI=T DoRafI=F ISym2E= 1.
 FoFCou: FMM=F IPFlag=           0 FMFlag=      100000 FMFlg1=         800
         NFxFlg=           0 DoJE=F BraDBF=F KetDBF=F FulRan=T
         wScrn=  0.000000 ICntrl=    2127 IOpCl=  1 I1Cent=           0 NGrid=           0
         NMat0=    1 NMatS0=      1 NMatT0=    0 NMatD0=    1 NMtDS0=    0 NMtDT0=    0
 Petite list used in FoFCou.
 Leave Link  703 at Fri Jan 25 14:28:53 2019, MaxMem=   412876800 cpu:         3.1
 (Enter /usr/local/gaussian/gaussian09/g09/l716.exe)
 Dipole        =-7.21516277D-17-3.75443492D-33 8.88178420D-16
 ***** Axes restored to original set *****
 -------------------------------------------------------------------
 Center     Atomic                   Forces (Hartrees/Bohr)
 Number     Number              X              Y              Z
 -------------------------------------------------------------------
      1        6           0.184594322    0.000000000    0.000000000
      2        6          -0.184594322   -0.000000000   -0.000000000
 -------------------------------------------------------------------
 Cartesian Forces:  Max     0.184594322 RMS     0.106575581
 Leave Link  716 at Fri Jan 25 14:28:54 2019, MaxMem=   412876800 cpu:         0.3
 (Enter /usr/local/gaussian/gaussian09/g09/l103.exe)

 GradGradGradGradGradGradGradGradGradGradGradGradGradGradGradGradGradGrad
 Berny optimization.
 FormGI is forming the generalized inverse of G from B-inverse, IUseBI=4.
 Internal  Forces:  Max     0.184594322 RMS     0.184594322
 Search for a local minimum.
 Step number   1 out of a maximum of   20
 All quantities printed in internal units (Hartrees-Bohrs-Radians)
 RMS Force = .18459D+00 SwitMx=.10000D-02 MixMth= 1
 Mixed Optimization -- RFO/linear search
 Second derivative matrix not updated -- first step.
 The second derivative matrix:
                          R1
           R1           0.84323
 ITU=  0
     Eigenvalues ---    0.84323
 RFO step:  Lambda=-3.86396358D-02 EMin= 8.43228502D-01
 Linear search not attempted -- first point.
 Iteration  1 RMS(Cart)=  0.14142136 RMS(Int)=  0.00932191
 Iteration  2 RMS(Cart)=  0.00659158 RMS(Int)=  0.00000000
 Iteration  3 RMS(Cart)=  0.00000000 RMS(Int)=  0.00000000
 ITry= 1 IFail=0 DXMaxC= 1.05D-01 DCOld= 1.00D+10 DXMaxT= 3.00D-01 DXLimC= 3.00D+00 Rises=F
 ClnCor:  largest displacement from symmetrization is 6.41D-18 for atom     2.
 Variable       Old X    -DE/DX   Delta X   Delta X   Delta X     New X
                                 (Linear)    (Quad)   (Total)
    R1        2.35665   0.18459   0.00000   0.20932   0.20932   2.56597
         Item               Value     Threshold  Converged?
 Maximum Force            0.184594     0.000450     NO 
 RMS     Force            0.184594     0.000300     NO 
 Maximum Displacement     0.104661     0.001800     NO 
 RMS     Displacement     0.148013     0.001200     NO 
 Predicted change in Energy=-2.016633D-02
 Lowest energy point so far.  Saving SCF results.
 GradGradGradGradGradGradGradGradGradGradGradGradGradGradGradGradGradGrad

 Leave Link  103 at Fri Jan 25 14:28:57 2019, MaxMem=   412876800 cpu:         2.8
 (Enter /usr/local/gaussian/gaussian09/g09/l202.exe)
                          Input orientation:                          
 ---------------------------------------------------------------------
 Center     Atomic      Atomic             Coordinates (Angstroms)
 Number     Number       Type             X           Y           Z
 ---------------------------------------------------------------------
      1          6           0        0.678927    0.000000    0.000000
      2          6           0       -0.678927    0.000000   -0.000000
 ---------------------------------------------------------------------
 Stoichiometry    C2(1-,4)
 Framework group  D*H[C*(C.C)]
 Deg. of freedom     1
 Full point group                 D*H     NOp   8
 RotChk:  IX=0 Diff= 8.66D-17
 Largest Abelian subgroup         D2H     NOp   8
 Largest concise Abelian subgroup C2      NOp   2
                         Standard orientation:                         
 ---------------------------------------------------------------------
 Center     Atomic      Atomic             Coordinates (Angstroms)
 Number     Number       Type             X           Y           Z
 ---------------------------------------------------------------------
      1          6           0        0.000000    0.000000    0.678927
      2          6           0        0.000000    0.000000   -0.678927
 ---------------------------------------------------------------------
 Rotational constants (GHZ):      0.0000000     45.6835188     45.6835188
 Leave Link  202 at Fri Jan 25 14:28:57 2019, MaxMem=   412876800 cpu:         0.0
 (Enter /usr/local/gaussian/gaussian09/g09/l301.exe)
 Standard basis: 6-311++G(3df,2p) (5D, 7F)
 Ernie: Thresh=  0.10000D-02 Tol=  0.10000D-05 Strict=F.
 There are    21 symmetry adapted cartesian basis functions of AG  symmetry.
 There are     4 symmetry adapted cartesian basis functions of B1G symmetry.
 There are    10 symmetry adapted cartesian basis functions of B2G symmetry.
 There are    10 symmetry adapted cartesian basis functions of B3G symmetry.
 There are     4 symmetry adapted cartesian basis functions of AU  symmetry.
 There are    21 symmetry adapted cartesian basis functions of B1U symmetry.
 There are    10 symmetry adapted cartesian basis functions of B2U symmetry.
 There are    10 symmetry adapted cartesian basis functions of B3U symmetry.
 There are    17 symmetry adapted basis functions of AG  symmetry.
 There are     4 symmetry adapted basis functions of B1G symmetry.
 There are     9 symmetry adapted basis functions of B2G symmetry.
 There are     9 symmetry adapted basis functions of B3G symmetry.
 There are     4 symmetry adapted basis functions of AU  symmetry.
 There are    17 symmetry adapted basis functions of B1U symmetry.
 There are     9 symmetry adapted basis functions of B2U symmetry.
 There are     9 symmetry adapted basis functions of B3U symmetry.
    78 basis functions,   116 primitive gaussians,    90 cartesian basis functions
     8 alpha electrons        5 beta electrons
       nuclear repulsion energy        14.0297661828 Hartrees.
 IExCor=  402 DFT=T Ex+Corr=B3LYP ExCW=0 ScaHFX=  0.200000
 ScaDFX=  0.800000  0.720000  1.000000  0.810000 ScalE2=  1.000000  1.000000
 IRadAn=      0 IRanWt=     -1 IRanGd=            0 ICorTp=0 IEmpDi=  4
 NAtoms=    2 NActive=    2 NUniq=    1 SFac= 4.00D+00 NAtFMM=   60 NAOKFM=F Big=F
 Integral buffers will be    131072 words long.
 Raffenetti 2 integral format.
 Two-electron integral symmetry is turned on.
 Leave Link  301 at Fri Jan 25 14:28:57 2019, MaxMem=   412876800 cpu:         0.2
 (Enter /usr/local/gaussian/gaussian09/g09/l302.exe)
 NPDir=0 NMtPBC=     1 NCelOv=     1 NCel=       1 NClECP=     1 NCelD=      1
         NCelK=      1 NCelE2=     1 NClLst=     1 CellRange=     0.0.
 One-electron integrals computed using PRISM.
 One-electron integral symmetry used in STVInt
 NBasis=    78 RedAO= T EigKep=  1.35D-04  NBF=    17     4     9     9     4    17     9     9
 NBsUse=    78 1.00D-06 EigRej= -1.00D+00 NBFU=    17     4     9     9     4    17     9     9
 Precomputing XC quadrature grid using
 IXCGrd= 4 IRadAn=           0 IRanWt=          -1 IRanGd=           0 AccXCQ= 0.00D+00.
 Generated NRdTot=       0 NPtTot=           0 NUsed=           0 NTot=          32
 NSgBfM=    90    90    90    90    90 MxSgAt=     2 MxSgA2=     2.
 Leave Link  302 at Fri Jan 25 14:28:57 2019, MaxMem=   412876800 cpu:         0.5
 (Enter /usr/local/gaussian/gaussian09/g09/l303.exe)
 DipDrv:  MaxL=1.
 Leave Link  303 at Fri Jan 25 14:28:57 2019, MaxMem=   412876800 cpu:         0.1
 (Enter /usr/local/gaussian/gaussian09/g09/l401.exe)
 Initial guess from the checkpoint file:  "/scratch/sergio/C2.q-1.m4-1.com-4921599/Gau-1337.chk"
 B after Tr=     0.000000    0.000000    0.000000
         Rot=    1.000000    0.000000    0.000000    0.000000 Ang=   0.00 deg.
 Guess basis will be translated and rotated to current coordinates.
 JPrj=2 DoOrth=T DoCkMO=T.
 Initial guess orbital symmetries:
 Alpha Orbitals:
       Occupied  (SGG) (SGU) (SGG) (SGU) (PIU) (SGG) (PIU) (?A)
       Virtual   (?B) (?C) (?B) (?C) (SGG) (?C) (SGG) (DLTG) (SGG)
                 (SGG) (DLTG) (SGG) (SGG) (SGG) (?B) (?C) (DLTG)
                 (DLTG) (?A) (?A) (?A) (PHIG) (PIG) (?A) (?A) (?A)
                 (?A) (?A) (?A) (PHIG) (PIG) (?A) (?A) (?A) (?A)
                 (?D) (DLTU) (?E) (?D) (?D) (SGU) (?D) (?D) (SGU)
                 (?E) (DLTU) (SGU) (?E) (?D) (?D) (?D) (SGU) (SGU)
                 (SGU) (PIU) (PIU) (?F) (PIU) (?F) (PIU) (PIU)
                 (PIU) (PIU) (PIU) (?F) (PIU) (?F) (PIU) (PIU)
                 (PIU)
 Beta  Orbitals:
       Occupied  (SGG) (SGU) (SGG) (SGU) (?A)
       Virtual   (?B) (?B) (?B) (SGG) (SGG) (DLTG) (SGG) (DLTG)
                 (SGG) (SGG) (DLTG) (SGG) (SGG) (SGG) (SGG) (?B)
                 (DLTG) (DLTG) (DLTG) (PIG) (PIG) (PIG) (PHIG)
                 (PIG) (PIG) (PIG) (PIG) (PIG) (PIG) (PIG) (PIG)
                 (PHIG) (PIG) (PIG) (PIG) (PIG) (PIG) (?C) (DLTU)
                 (DLTU) (?D) (?C) (SGU) (?C) (?C) (SGU) (SGU) (DLTU)
                 (SGU) (DLTU) (SGU) (?D) (?D) (SGU) (SGU) (SGU)
                 (?A) (?A) (?A) (?A) (?A) (?A) (?A) (PIU) (?A)
                 (?A) (?A) (?A) (?A) (?A) (?A) (?A) (PIU)
 Initial guess <Sx>= 0.0000 <Sy>= 0.0000 <Sz>= 1.5000 <S**2>= 3.7568 S= 1.5017
 Generating alternative initial guess.
 ExpMin= 4.38D-02 ExpMax= 4.56D+03 ExpMxC= 6.82D+02 IAcc=2 IRadAn=         4 AccDes= 0.00D+00
 Harris functional with IExCor=  402 and IRadAn=       4 diagonalized for initial guess.
 HarFok:  IExCor=  402 AccDes= 0.00D+00 IRadAn=         4 IDoV= 1 UseB2=F ITyADJ=14
 ICtDFT=  3500011 ScaDFX=  1.000000  1.000000  1.000000  1.000000
 FoFCou: FMM=F IPFlag=           0 FMFlag=      100000 FMFlg1=           0
         NFxFlg=           0 DoJE=T BraDBF=F KetDBF=T FulRan=T
         wScrn=  0.000000 ICntrl=     500 IOpCl=  0 I1Cent=   200000004 NGrid=           0
         NMat0=    1 NMatS0=      1 NMatT0=    0 NMatD0=    1 NMtDS0=    0 NMtDT0=    0
 Petite list used in FoFCou.
 Harris En= -75.9688892515661    
 Leave Link  401 at Fri Jan 25 14:28:58 2019, MaxMem=   412876800 cpu:         0.9
 (Enter /usr/local/gaussian/gaussian09/g09/l502.exe)
 UHF open shell SCF:
 Using DIIS extrapolation, IDIIS=  1040.
 Integral symmetry usage will be decided dynamically.
 Keep R1 and R2 ints in memory in symmetry-blocked form, NReq=6757232.
 IVT=       44262 IEndB=       44262 NGot=   412876800 MDV=   411595737
 LenX=   411595737 LenY=   411587196
 Requested convergence on RMS density matrix=1.00D-08 within 128 cycles.
 Requested convergence on MAX density matrix=1.00D-06.
 Requested convergence on             energy=1.00D-06.
 No special actions if energy rises.
 FoFCou: FMM=F IPFlag=           0 FMFlag=           0 FMFlg1=           0
         NFxFlg=           0 DoJE=F BraDBF=F KetDBF=F FulRan=T
         wScrn=  0.000000 ICntrl=     600 IOpCl=  0 I1Cent=           0 NGrid=           0
         NMat0=    1 NMatS0=   3081 NMatT0=    0 NMatD0=    1 NMtDS0=    0 NMtDT0=    0
 Petite list used in FoFCou.

 Cycle   1  Pass 1  IDiag  1:
 E= -75.9003252913875    
 DIIS: error= 2.41D-02 at cycle   1 NSaved=   1.
 NSaved= 1 IEnMin= 1 EnMin= -75.9003252913875     IErMin= 1 ErrMin= 2.41D-02
 ErrMax= 2.41D-02  0.00D+00 EMaxC= 1.00D-01 BMatC= 5.23D-02 BMatP= 5.23D-02
 IDIUse=3 WtCom= 7.59D-01 WtEn= 2.41D-01
 Coeff-Com:  0.100D+01
 Coeff-En:   0.100D+01
 Coeff:      0.100D+01
 Recover alternate guess density for next cycle.
 RMSDP=2.63D-02 MaxDP=1.11D+00              OVMax= 0.00D+00

 Cycle   2  Pass 1  IDiag  1:
 E= -75.8403558954248     Delta-E=        0.059969395963 Rises=F Damp=F
 Switch densities from cycles 1 and 2 for lowest energy.
 DIIS: error= 3.81D-02 at cycle   2 NSaved=   2.
 NSaved= 2 IEnMin= 1 EnMin= -75.9003252913875     IErMin= 1 ErrMin= 2.41D-02
 ErrMax= 3.81D-02  0.00D+00 EMaxC= 1.00D+00 BMatC= 1.91D-01 BMatP= 5.23D-02
 IDIUse=1 WtCom= 1.00D+00 WtEn= 0.00D+00
 Coeff-Com:  0.846D+00 0.154D+00
 Coeff:      0.846D+00 0.154D+00
 Gap=     0.161 Goal=   None    Shift=    0.000
 Gap=     0.142 Goal=   None    Shift=    0.000
 RMSDP=2.71D-02 MaxDP=8.19D-01 DE= 6.00D-02 OVMax= 7.12D-02

 Cycle   3  Pass 1  IDiag  1:
 E= -75.9033431023180     Delta-E=       -0.062987206893 Rises=F Damp=F
 DIIS: error= 1.17D-02 at cycle   3 NSaved=   3.
 NSaved= 3 IEnMin= 3 EnMin= -75.9033431023180     IErMin= 3 ErrMin= 1.17D-02
 ErrMax= 1.17D-02  0.00D+00 EMaxC= 1.00D+00 BMatC= 1.54D-02 BMatP= 5.23D-02
 IDIUse=1 WtCom= 1.00D+00 WtEn= 0.00D+00
 Coeff-Com:  0.108D+00 0.155D+00 0.737D+00
 Coeff:      0.108D+00 0.155D+00 0.737D+00
 Gap=     0.052 Goal=   None    Shift=    0.000
 Gap=     0.070 Goal=   None    Shift=    0.000
 RMSDP=5.34D-03 MaxDP=2.83D-01 DE=-6.30D-02 OVMax= 8.17D-02

 Cycle   4  Pass 1  IDiag  1:
 E= -75.9089524605938     Delta-E=       -0.005609358276 Rises=F Damp=F
 DIIS: error= 4.16D-03 at cycle   4 NSaved=   4.
 NSaved= 4 IEnMin= 4 EnMin= -75.9089524605938     IErMin= 4 ErrMin= 4.16D-03
 ErrMax= 4.16D-03  0.00D+00 EMaxC= 1.00D+00 BMatC= 1.25D-03 BMatP= 1.54D-02
 IDIUse=1 WtCom= 1.00D+00 WtEn= 0.00D+00
 Coeff-Com:  0.110D-01 0.212D-01 0.149D+00 0.819D+00
 Coeff:      0.110D-01 0.212D-01 0.149D+00 0.819D+00
 Gap=     0.069 Goal=   None    Shift=    0.000
 Gap=     0.090 Goal=   None    Shift=    0.000
 RMSDP=1.71D-03 MaxDP=8.92D-02 DE=-5.61D-03 OVMax= 2.69D-02

 Cycle   5  Pass 1  IDiag  1:
 E= -75.9095159941666     Delta-E=       -0.000563533573 Rises=F Damp=F
 DIIS: error= 1.36D-03 at cycle   5 NSaved=   5.
 NSaved= 5 IEnMin= 5 EnMin= -75.9095159941666     IErMin= 5 ErrMin= 1.36D-03
 ErrMax= 1.36D-03  0.00D+00 EMaxC= 1.00D+00 BMatC= 1.40D-04 BMatP= 1.25D-03
 IDIUse=1 WtCom= 1.00D+00 WtEn= 0.00D+00
 Coeff-Com:  0.660D-02-0.287D-02 0.136D-02-0.428D+00 0.142D+01
 Coeff:      0.660D-02-0.287D-02 0.136D-02-0.428D+00 0.142D+01
 Gap=     0.070 Goal=   None    Shift=    0.000
 Gap=     0.094 Goal=   None    Shift=    0.000
 RMSDP=1.01D-03 MaxDP=5.09D-02 DE=-5.64D-04 OVMax= 1.58D-02

 Cycle   6  Pass 1  IDiag  1:
 E= -75.9096163435781     Delta-E=       -0.000100349411 Rises=F Damp=F
 DIIS: error= 1.95D-04 at cycle   6 NSaved=   6.
 NSaved= 6 IEnMin= 6 EnMin= -75.9096163435781     IErMin= 6 ErrMin= 1.95D-04
 ErrMax= 1.95D-04  0.00D+00 EMaxC= 1.00D+00 BMatC= 2.23D-06 BMatP= 1.40D-04
 IDIUse=1 WtCom= 1.00D+00 WtEn= 0.00D+00
 Coeff-Com: -0.103D-02-0.872D-05-0.501D-03-0.535D-01 0.170D+00 0.885D+00
 Coeff:     -0.103D-02-0.872D-05-0.501D-03-0.535D-01 0.170D+00 0.885D+00
 Gap=     0.070 Goal=   None    Shift=    0.000
 Gap=     0.093 Goal=   None    Shift=    0.000
 RMSDP=1.87D-04 MaxDP=9.25D-03 DE=-1.00D-04 OVMax= 2.92D-03

 Cycle   7  Pass 1  IDiag  1:
 E= -75.9096183612530     Delta-E=       -0.000002017675 Rises=F Damp=F
 DIIS: error= 7.70D-05 at cycle   7 NSaved=   7.
 NSaved= 7 IEnMin= 7 EnMin= -75.9096183612530     IErMin= 7 ErrMin= 7.70D-05
 ErrMax= 7.70D-05  0.00D+00 EMaxC= 1.00D+00 BMatC= 4.55D-07 BMatP= 2.23D-06
 IDIUse=1 WtCom= 1.00D+00 WtEn= 0.00D+00
 Coeff-Com:  0.395D-04-0.102D-03 0.275D-02 0.265D-01-0.109D+00-0.418D-02
 Coeff-Com:  0.108D+01
 Coeff:      0.395D-04-0.102D-03 0.275D-02 0.265D-01-0.109D+00-0.418D-02
 Coeff:      0.108D+01
 Gap=     0.070 Goal=   None    Shift=    0.000
 Gap=     0.093 Goal=   None    Shift=    0.000
 RMSDP=7.28D-05 MaxDP=3.61D-03 DE=-2.02D-06 OVMax= 1.12D-03

 Cycle   8  Pass 1  IDiag  1:
 E= -75.9096187420280     Delta-E=       -0.000000380775 Rises=F Damp=F
 DIIS: error= 2.13D-05 at cycle   8 NSaved=   8.
 NSaved= 8 IEnMin= 8 EnMin= -75.9096187420280     IErMin= 8 ErrMin= 2.13D-05
 ErrMax= 2.13D-05  0.00D+00 EMaxC= 1.00D+00 BMatC= 4.00D-08 BMatP= 4.55D-07
 IDIUse=1 WtCom= 1.00D+00 WtEn= 0.00D+00
 Coeff-Com: -0.299D-04 0.264D-04 0.109D-02 0.134D-02-0.298D-02-0.143D-01
 Coeff-Com: -0.208D+00 0.122D+01
 Coeff:     -0.299D-04 0.264D-04 0.109D-02 0.134D-02-0.298D-02-0.143D-01
 Coeff:     -0.208D+00 0.122D+01
 Gap=     0.070 Goal=   None    Shift=    0.000
 Gap=     0.093 Goal=   None    Shift=    0.000
 RMSDP=9.97D-06 MaxDP=4.35D-04 DE=-3.81D-07 OVMax= 1.53D-04

 Cycle   9  Pass 1  IDiag  1:
 E= -75.9096187630389     Delta-E=       -0.000000021011 Rises=F Damp=F
 DIIS: error= 2.83D-06 at cycle   9 NSaved=   9.
 NSaved= 9 IEnMin= 9 EnMin= -75.9096187630389     IErMin= 9 ErrMin= 2.83D-06
 ErrMax= 2.83D-06  0.00D+00 EMaxC= 1.00D+00 BMatC= 4.57D-10 BMatP= 4.00D-08
 IDIUse=1 WtCom= 1.00D+00 WtEn= 0.00D+00
 Coeff-Com:  0.317D-05 0.362D-05-0.304D-03-0.736D-03 0.294D-02 0.234D-02
 Coeff-Com:  0.413D-02-0.123D+00 0.111D+01
 Coeff:      0.317D-05 0.362D-05-0.304D-03-0.736D-03 0.294D-02 0.234D-02
 Coeff:      0.413D-02-0.123D+00 0.111D+01
 Gap=     0.070 Goal=   None    Shift=    0.000
 Gap=     0.093 Goal=   None    Shift=    0.000
 RMSDP=6.42D-07 MaxDP=2.72D-05 DE=-2.10D-08 OVMax= 1.20D-05

 Cycle  10  Pass 1  IDiag  1:
 E= -75.9096187632507     Delta-E=       -0.000000000212 Rises=F Damp=F
 DIIS: error= 3.02D-07 at cycle  10 NSaved=  10.
 NSaved=10 IEnMin=10 EnMin= -75.9096187632507     IErMin=10 ErrMin= 3.02D-07
 ErrMax= 3.02D-07  0.00D+00 EMaxC= 1.00D+00 BMatC= 6.52D-12 BMatP= 4.57D-10
 IDIUse=1 WtCom= 1.00D+00 WtEn= 0.00D+00
 Coeff-Com: -0.121D-06-0.246D-06 0.242D-04 0.138D-04-0.166D-03-0.700D-03
 Coeff-Com:  0.232D-02 0.604D-02-0.171D+00 0.116D+01
 Coeff:     -0.121D-06-0.246D-06 0.242D-04 0.138D-04-0.166D-03-0.700D-03
 Coeff:      0.232D-02 0.604D-02-0.171D+00 0.116D+01
 Gap=     0.070 Goal=   None    Shift=    0.000
 Gap=     0.093 Goal=   None    Shift=    0.000
 RMSDP=9.47D-08 MaxDP=3.94D-06 DE=-2.12D-10 OVMax= 1.57D-06

 Cycle  11  Pass 1  IDiag  1:
 E= -75.9096187632540     Delta-E=       -0.000000000003 Rises=F Damp=F
 DIIS: error= 5.31D-08 at cycle  11 NSaved=  11.
 NSaved=11 IEnMin=11 EnMin= -75.9096187632540     IErMin=11 ErrMin= 5.31D-08
 ErrMax= 5.31D-08  0.00D+00 EMaxC= 1.00D+00 BMatC= 2.76D-13 BMatP= 6.52D-12
 IDIUse=1 WtCom= 1.00D+00 WtEn= 0.00D+00
 Coeff-Com: -0.138D-07-0.567D-08 0.159D-05 0.900D-05-0.315D-04 0.116D-03
 Coeff-Com: -0.140D-03-0.115D-02 0.729D-02-0.810D-01 0.107D+01
 Coeff:     -0.138D-07-0.567D-08 0.159D-05 0.900D-05-0.315D-04 0.116D-03
 Coeff:     -0.140D-03-0.115D-02 0.729D-02-0.810D-01 0.107D+01
 Gap=     0.070 Goal=   None    Shift=    0.000
 Gap=     0.093 Goal=   None    Shift=    0.000
 RMSDP=1.25D-08 MaxDP=3.85D-07 DE=-3.28D-12 OVMax= 2.58D-07

 Cycle  12  Pass 1  IDiag  1:
 E= -75.9096187632541     Delta-E=       -0.000000000000 Rises=F Damp=F
 DIIS: error= 3.19D-09 at cycle  12 NSaved=  12.
 NSaved=12 IEnMin=12 EnMin= -75.9096187632541     IErMin=12 ErrMin= 3.19D-09
 ErrMax= 3.19D-09  0.00D+00 EMaxC= 1.00D+00 BMatC= 5.68D-16 BMatP= 2.76D-13
 IDIUse=1 WtCom= 1.00D+00 WtEn= 0.00D+00
 Coeff-Com:  0.367D-08-0.401D-08-0.396D-06-0.141D-05 0.582D-05-0.171D-04
 Coeff-Com:  0.836D-05 0.224D-03-0.545D-03 0.412D-02-0.182D+00 0.118D+01
 Coeff:      0.367D-08-0.401D-08-0.396D-06-0.141D-05 0.582D-05-0.171D-04
 Coeff:      0.836D-05 0.224D-03-0.545D-03 0.412D-02-0.182D+00 0.118D+01
 Gap=     0.070 Goal=   None    Shift=    0.000
 Gap=     0.093 Goal=   None    Shift=    0.000
 RMSDP=6.57D-10 MaxDP=2.25D-08 DE=-1.42D-13 OVMax= 1.59D-08

 SCF Done:  E(UB3LYP) =  -75.9096187633     A.U. after   12 cycles
            NFock= 12  Conv=0.66D-09     -V/T= 2.0019
 <Sx>= 0.0000 <Sy>= 0.0000 <Sz>= 1.5000 <S**2>= 3.7580 S= 1.5020
 <L.S>= 0.000000000000E+00
 KE= 7.576444243450D+01 PE=-2.079637264960D+02 EE= 4.225989911539D+01
 Annihilation of the first spin contaminant:
 S**2 before annihilation     3.7580,   after     3.7500
 Leave Link  502 at Fri Jan 25 14:28:59 2019, MaxMem=   412876800 cpu:         3.0
 (Enter /usr/local/gaussian/gaussian09/g09/l701.exe)
 Compute integral first derivatives.
 ... and contract with generalized density number  0.
 Leave Link  701 at Fri Jan 25 14:29:00 2019, MaxMem=   412876800 cpu:         0.5
 (Enter /usr/local/gaussian/gaussian09/g09/l702.exe)
 L702 exits ... SP integral derivatives will be done elsewhere.
 Leave Link  702 at Fri Jan 25 14:29:00 2019, MaxMem=   412876800 cpu:         0.0
 (Enter /usr/local/gaussian/gaussian09/g09/l703.exe)
 Compute integral first derivatives, UseDBF=F ICtDFT=           0.
 Integral derivatives from FoFJK, PRISM(SPDF).
 Calling FoFJK, ICntrl=      2127 FMM=F ISym2X=1 I1Cent= 0 IOpClX= 1 NMat=1 NMatS=1 NMatT=0.
 FoFJK:  IHMeth= 1 ICntrl=    2127 DoSepK=F KAlg= 0 I1Cent=   0 FoldK=F
 IRaf=         0 NMat=   1 IRICut=       1 DoRegI=T DoRafI=F ISym2E= 1.
 FoFCou: FMM=F IPFlag=           0 FMFlag=      100000 FMFlg1=         800
         NFxFlg=           0 DoJE=F BraDBF=F KetDBF=F FulRan=T
         wScrn=  0.000000 ICntrl=    2127 IOpCl=  1 I1Cent=           0 NGrid=           0
         NMat0=    1 NMatS0=      1 NMatT0=    0 NMatD0=    1 NMtDS0=    0 NMtDT0=    0
 Petite list used in FoFCou.
 Leave Link  703 at Fri Jan 25 14:29:01 2019, MaxMem=   412876800 cpu:         2.4
 (Enter /usr/local/gaussian/gaussian09/g09/l716.exe)
 Dipole        =-7.85602629D-17-7.27489944D-34-8.88178420D-16
 ***** Axes restored to original set *****
 -------------------------------------------------------------------
 Center     Atomic                   Forces (Hartrees/Bohr)
 Number     Number              X              Y              Z
 -------------------------------------------------------------------
      1        6           0.050726289    0.000000000   -0.000000000
      2        6          -0.050726289   -0.000000000    0.000000000
 -------------------------------------------------------------------
 Cartesian Forces:  Max     0.050726289 RMS     0.029286836
 Leave Link  716 at Fri Jan 25 14:29:01 2019, MaxMem=   412876800 cpu:         0.1
 (Enter /usr/local/gaussian/gaussian09/g09/l103.exe)

 GradGradGradGradGradGradGradGradGradGradGradGradGradGradGradGradGradGrad
 Berny optimization.
 Using GEDIIS/GDIIS optimizer.
 Red2BG is reusing G-inverse.
 Internal  Forces:  Max     0.050726289 RMS     0.050726289
 Search for a local minimum.
 Step number   2 out of a maximum of   20
 All quantities printed in internal units (Hartrees-Bohrs-Radians)
 RMS Force = .50726D-01 SwitMx=.10000D-02 MixMth= 1
 Mixed Optimization -- RFO/linear search
 Update second derivatives using D2CorX and points    1    2
 DE= -2.33D-02 DEPred=-2.02D-02 R= 1.15D+00
 TightC=F SS=  1.41D+00  RLast= 2.09D-01 DXNew= 5.0454D-01 6.2797D-01
 Trust test= 1.15D+00 RLast= 2.09D-01 DXMaxT set to 5.05D-01
 The second derivative matrix:
                          R1
           R1           0.63953
 ITU=  1  0
 Use linear search instead of GDIIS.
     Eigenvalues ---    0.63953
 RFO step:  Lambda= 0.00000000D+00 EMin= 6.39531877D-01
 Quartic linear search produced a step of  0.67088.
 Iteration  1 RMS(Cart)=  0.09929894 RMS(Int)=  0.00000000
 Iteration  2 RMS(Cart)=  0.00000000 RMS(Int)=  0.00000000
 ITry= 1 IFail=0 DXMaxC= 7.02D-02 DCOld= 1.00D+10 DXMaxT= 5.05D-01 DXLimC= 3.00D+00 Rises=F
 ClnCor:  largest displacement from symmetrization is 4.30D-18 for atom     1.
 Variable       Old X    -DE/DX   Delta X   Delta X   Delta X     New X
                                 (Linear)    (Quad)   (Total)
    R1        2.56597   0.05073   0.14043   0.00000   0.14043   2.70640
         Item               Value     Threshold  Converged?
 Maximum Force            0.050726     0.000450     NO 
 RMS     Force            0.050726     0.000300     NO 
 Maximum Displacement     0.070215     0.001800     NO 
 RMS     Displacement     0.099299     0.001200     NO 
 Predicted change in Energy=-8.175251D-04
 Lowest energy point so far.  Saving SCF results.
 GradGradGradGradGradGradGradGradGradGradGradGradGradGradGradGradGradGrad

 Leave Link  103 at Fri Jan 25 14:29:01 2019, MaxMem=   412876800 cpu:         0.0
 (Enter /usr/local/gaussian/gaussian09/g09/l202.exe)
                          Input orientation:                          
 ---------------------------------------------------------------------
 Center     Atomic      Atomic             Coordinates (Angstroms)
 Number     Number       Type             X           Y           Z
 ---------------------------------------------------------------------
      1          6           0        0.716083    0.000000    0.000000
      2          6           0       -0.716083    0.000000   -0.000000
 ---------------------------------------------------------------------
 Stoichiometry    C2(1-,4)
 Framework group  D*H[C*(C.C)]
 Deg. of freedom     1
 Full point group                 D*H     NOp   8
 RotChk:  IX=0 Diff= 8.66D-17
 Largest Abelian subgroup         D2H     NOp   8
 Largest concise Abelian subgroup C2      NOp   2
                         Standard orientation:                         
 ---------------------------------------------------------------------
 Center     Atomic      Atomic             Coordinates (Angstroms)
 Number     Number       Type             X           Y           Z
 ---------------------------------------------------------------------
      1          6           0        0.000000    0.000000    0.716083
      2          6           0        0.000000    0.000000   -0.716083
 ---------------------------------------------------------------------
 Rotational constants (GHZ):      0.0000000     41.0656603     41.0656603
 Leave Link  202 at Fri Jan 25 14:29:01 2019, MaxMem=   412876800 cpu:         0.0
 (Enter /usr/local/gaussian/gaussian09/g09/l301.exe)
 Standard basis: 6-311++G(3df,2p) (5D, 7F)
 Ernie: Thresh=  0.10000D-02 Tol=  0.10000D-05 Strict=F.
 There are    21 symmetry adapted cartesian basis functions of AG  symmetry.
 There are     4 symmetry adapted cartesian basis functions of B1G symmetry.
 There are    10 symmetry adapted cartesian basis functions of B2G symmetry.
 There are    10 symmetry adapted cartesian basis functions of B3G symmetry.
 There are     4 symmetry adapted cartesian basis functions of AU  symmetry.
 There are    21 symmetry adapted cartesian basis functions of B1U symmetry.
 There are    10 symmetry adapted cartesian basis functions of B2U symmetry.
 There are    10 symmetry adapted cartesian basis functions of B3U symmetry.
 There are    17 symmetry adapted basis functions of AG  symmetry.
 There are     4 symmetry adapted basis functions of B1G symmetry.
 There are     9 symmetry adapted basis functions of B2G symmetry.
 There are     9 symmetry adapted basis functions of B3G symmetry.
 There are     4 symmetry adapted basis functions of AU  symmetry.
 There are    17 symmetry adapted basis functions of B1U symmetry.
 There are     9 symmetry adapted basis functions of B2U symmetry.
 There are     9 symmetry adapted basis functions of B3U symmetry.
    78 basis functions,   116 primitive gaussians,    90 cartesian basis functions
     8 alpha electrons        5 beta electrons
       nuclear repulsion energy        13.3017892866 Hartrees.
 IExCor=  402 DFT=T Ex+Corr=B3LYP ExCW=0 ScaHFX=  0.200000
 ScaDFX=  0.800000  0.720000  1.000000  0.810000 ScalE2=  1.000000  1.000000
 IRadAn=      0 IRanWt=     -1 IRanGd=            0 ICorTp=0 IEmpDi=  4
 NAtoms=    2 NActive=    2 NUniq=    1 SFac= 4.00D+00 NAtFMM=   60 NAOKFM=F Big=F
 Integral buffers will be    131072 words long.
 Raffenetti 2 integral format.
 Two-electron integral symmetry is turned on.
 Leave Link  301 at Fri Jan 25 14:29:01 2019, MaxMem=   412876800 cpu:         0.2
 (Enter /usr/local/gaussian/gaussian09/g09/l302.exe)
 NPDir=0 NMtPBC=     1 NCelOv=     1 NCel=       1 NClECP=     1 NCelD=      1
         NCelK=      1 NCelE2=     1 NClLst=     1 CellRange=     0.0.
 One-electron integrals computed using PRISM.
 One-electron integral symmetry used in STVInt
 NBasis=    78 RedAO= T EigKep=  1.93D-04  NBF=    17     4     9     9     4    17     9     9
 NBsUse=    78 1.00D-06 EigRej= -1.00D+00 NBFU=    17     4     9     9     4    17     9     9
 Precomputing XC quadrature grid using
 IXCGrd= 4 IRadAn=           0 IRanWt=          -1 IRanGd=           0 AccXCQ= 0.00D+00.
 Generated NRdTot=       0 NPtTot=           0 NUsed=           0 NTot=          32
 NSgBfM=    90    90    90    90    90 MxSgAt=     2 MxSgA2=     2.
 Leave Link  302 at Fri Jan 25 14:29:01 2019, MaxMem=   412876800 cpu:         0.5
 (Enter /usr/local/gaussian/gaussian09/g09/l303.exe)
 DipDrv:  MaxL=1.
 Leave Link  303 at Fri Jan 25 14:29:01 2019, MaxMem=   412876800 cpu:         0.1
 (Enter /usr/local/gaussian/gaussian09/g09/l401.exe)
 Initial guess from the checkpoint file:  "/scratch/sergio/C2.q-1.m4-1.com-4921599/Gau-1337.chk"
 B after Tr=     0.000000    0.000000    0.000000
         Rot=    1.000000    0.000000    0.000000    0.000000 Ang=   0.00 deg.
 Guess basis will be translated and rotated to current coordinates.
 JPrj=2 DoOrth=T DoCkMO=T.
 Initial guess orbital symmetries:
 Alpha Orbitals:
       Occupied  (SGG) (SGU) (SGG) (SGU) (PIU) (SGG) (PIU) (?A)
       Virtual   (?B) (SGG) (?B) (?C) (?D) (?C) (SGG) (?D) (SGG)
                 (SGG) (DLTG) (SGG) (SGG) (SGG) (?B) (?C) (?D)
                 (DLTG) (?A) (?A) (?A) (PHIG) (PIG) (?A) (PIG)
                 (?A) (?A) (?A) (?A) (PHIG) (PIG) (?A) (PIG) (?A)
                 (?A) (?E) (DLTU) (?F) (?G) (?E) (SGU) (?E) (?E)
                 (SGU) (?F) (DLTU) (SGU) (?F) (SGU) (?G) (?G) (SGU)
                 (SGU) (SGU) (PIU) (PIU) (?H) (PIU) (?H) (PIU)
                 (PIU) (PIU) (PIU) (PIU) (?H) (PIU) (?H) (PIU)
                 (PIU) (PIU)
 Beta  Orbitals:
       Occupied  (SGG) (SGU) (SGG) (SGU) (?A)
       Virtual   (?B) (?B) (?B) (SGG) (SGG) (DLTG) (SGG) (DLTG)
                 (SGG) (SGG) (DLTG) (SGG) (SGG) (SGG) (SGG) (?B)
                 (DLTG) (DLTG) (DLTG) (PIG) (PIG) (PIG) (PHIG)
                 (PIG) (PIG) (PIG) (PIG) (PIG) (PIG) (PIG) (PIG)
                 (PHIG) (PIG) (PIG) (PIG) (PIG) (PIG) (?C) (DLTU)
                 (?D) (?E) (?C) (SGU) (?C) (?C) (SGU) (?D) (DLTU)
                 (SGU) (?D) (SGU) (?E) (?E) (SGU) (SGU) (SGU) (?A)
                 (?A) (?A) (?A) (?A) (?A) (?A) (PIU) (?A) (?A)
                 (?A) (?A) (?A) (?A) (?A) (?A) (PIU)
 Initial guess <Sx>= 0.0000 <Sy>= 0.0000 <Sz>= 1.5000 <S**2>= 3.7578 S= 1.5020
 Generating alternative initial guess.
 ExpMin= 4.38D-02 ExpMax= 4.56D+03 ExpMxC= 6.82D+02 IAcc=2 IRadAn=         4 AccDes= 0.00D+00
 Harris functional with IExCor=  402 and IRadAn=       4 diagonalized for initial guess.
 HarFok:  IExCor=  402 AccDes= 0.00D+00 IRadAn=         4 IDoV= 1 UseB2=F ITyADJ=14
 ICtDFT=  3500011 ScaDFX=  1.000000  1.000000  1.000000  1.000000
 FoFCou: FMM=F IPFlag=           0 FMFlag=      100000 FMFlg1=           0
         NFxFlg=           0 DoJE=T BraDBF=F KetDBF=T FulRan=T
         wScrn=  0.000000 ICntrl=     500 IOpCl=  0 I1Cent=   200000004 NGrid=           0
         NMat0=    1 NMatS0=      1 NMatT0=    0 NMatD0=    1 NMtDS0=    0 NMtDT0=    0
 Petite list used in FoFCou.
 Harris En= -75.9652622364542    
 Leave Link  401 at Fri Jan 25 14:29:02 2019, MaxMem=   412876800 cpu:         0.7
 (Enter /usr/local/gaussian/gaussian09/g09/l502.exe)
 UHF open shell SCF:
 Using DIIS extrapolation, IDIIS=  1040.
 Integral symmetry usage will be decided dynamically.
 Keep R1 and R2 ints in memory in symmetry-blocked form, NReq=6757202.
 IVT=       44262 IEndB=       44262 NGot=   412876800 MDV=   411595737
 LenX=   411595737 LenY=   411587196
 Requested convergence on RMS density matrix=1.00D-08 within 128 cycles.
 Requested convergence on MAX density matrix=1.00D-06.
 Requested convergence on             energy=1.00D-06.
 No special actions if energy rises.
 FoFCou: FMM=F IPFlag=           0 FMFlag=           0 FMFlg1=           0
         NFxFlg=           0 DoJE=F BraDBF=F KetDBF=F FulRan=T
         wScrn=  0.000000 ICntrl=     600 IOpCl=  0 I1Cent=           0 NGrid=           0
         NMat0=    1 NMatS0=   3081 NMatT0=    0 NMatD0=    1 NMtDS0=    0 NMtDT0=    0
 Petite list used in FoFCou.

 Cycle   1  Pass 1  IDiag  1:
 E= -75.9098477007803    
 DIIS: error= 7.81D-03 at cycle   1 NSaved=   1.
 NSaved= 1 IEnMin= 1 EnMin= -75.9098477007803     IErMin= 1 ErrMin= 7.81D-03
 ErrMax= 7.81D-03  0.00D+00 EMaxC= 1.00D-01 BMatC= 1.16D-02 BMatP= 1.16D-02
 IDIUse=3 WtCom= 9.22D-01 WtEn= 7.81D-02
 Coeff-Com:  0.100D+01
 Coeff-En:   0.100D+01
 Coeff:      0.100D+01
 Gap=     0.195 Goal=   None    Shift=    0.000
 Gap=     0.172 Goal=   None    Shift=    0.000
 GapD=    0.172 DampG=1.000 DampE=1.000 DampFc=1.0000 IDamp=-1.
 RMSDP=3.96D-03 MaxDP=1.37D-01              OVMax= 5.56D-02

 Cycle   2  Pass 1  IDiag  1:
 E= -75.9125461786799     Delta-E=       -0.002698477900 Rises=F Damp=F
 DIIS: error= 2.08D-03 at cycle   2 NSaved=   2.
 NSaved= 2 IEnMin= 2 EnMin= -75.9125461786799     IErMin= 2 ErrMin= 2.08D-03
 ErrMax= 2.08D-03  0.00D+00 EMaxC= 1.00D-01 BMatC= 4.90D-04 BMatP= 1.16D-02
 IDIUse=3 WtCom= 9.79D-01 WtEn= 2.08D-02
 Coeff-Com:  0.813D-01 0.919D+00
 Coeff-En:   0.000D+00 0.100D+01
 Coeff:      0.797D-01 0.920D+00
 Gap=     0.083 Goal=   None    Shift=    0.000
 Gap=     0.085 Goal=   None    Shift=    0.000
 RMSDP=8.02D-04 MaxDP=3.96D-02 DE=-2.70D-03 OVMax= 1.72D-02

 Cycle   3  Pass 1  IDiag  1:
 E= -75.9126677434200     Delta-E=       -0.000121564740 Rises=F Damp=F
 DIIS: error= 1.09D-03 at cycle   3 NSaved=   3.
 NSaved= 3 IEnMin= 3 EnMin= -75.9126677434200     IErMin= 3 ErrMin= 1.09D-03
 ErrMax= 1.09D-03  0.00D+00 EMaxC= 1.00D-01 BMatC= 9.30D-05 BMatP= 4.90D-04
 IDIUse=3 WtCom= 9.89D-01 WtEn= 1.09D-02
 Coeff-Com: -0.529D-02 0.261D+00 0.745D+00
 Coeff-En:   0.000D+00 0.000D+00 0.100D+01
 Coeff:     -0.524D-02 0.258D+00 0.747D+00
 Gap=     0.081 Goal=   None    Shift=    0.000
 Gap=     0.084 Goal=   None    Shift=    0.000
 RMSDP=1.27D-04 MaxDP=3.46D-03 DE=-1.22D-04 OVMax= 5.01D-03

 Cycle   4  Pass 1  IDiag  1:
 E= -75.9126935901380     Delta-E=       -0.000025846718 Rises=F Damp=F
 DIIS: error= 6.12D-04 at cycle   4 NSaved=   4.
 NSaved= 4 IEnMin= 4 EnMin= -75.9126935901380     IErMin= 4 ErrMin= 6.12D-04
 ErrMax= 6.12D-04  0.00D+00 EMaxC= 1.00D-01 BMatC= 2.48D-05 BMatP= 9.30D-05
 IDIUse=3 WtCom= 9.94D-01 WtEn= 6.12D-03
 Coeff-Com: -0.439D-02 0.406D-01 0.359D+00 0.605D+00
 Coeff-En:   0.000D+00 0.000D+00 0.107D+00 0.893D+00
 Coeff:     -0.437D-02 0.403D-01 0.358D+00 0.606D+00
 Gap=     0.082 Goal=   None    Shift=    0.000
 Gap=     0.084 Goal=   None    Shift=    0.000
 RMSDP=2.22D-04 MaxDP=1.09D-02 DE=-2.58D-05 OVMax= 4.74D-03

 Cycle   5  Pass 1  IDiag  1:
 E= -75.9127044850355     Delta-E=       -0.000010894897 Rises=F Damp=F
 DIIS: error= 1.38D-04 at cycle   5 NSaved=   5.
 NSaved= 5 IEnMin= 5 EnMin= -75.9127044850355     IErMin= 5 ErrMin= 1.38D-04
 ErrMax= 1.38D-04  0.00D+00 EMaxC= 1.00D-01 BMatC= 1.31D-06 BMatP= 2.48D-05
 IDIUse=3 WtCom= 9.99D-01 WtEn= 1.38D-03
 Coeff-Com:  0.838D-03-0.428D-01-0.992D-01 0.955D-01 0.105D+01
 Coeff-En:   0.000D+00 0.000D+00 0.000D+00 0.000D+00 0.100D+01
 Coeff:      0.837D-03-0.428D-01-0.991D-01 0.954D-01 0.105D+01
 Gap=     0.082 Goal=   None    Shift=    0.000
 Gap=     0.084 Goal=   None    Shift=    0.000
 RMSDP=7.08D-05 MaxDP=3.40D-03 DE=-1.09D-05 OVMax= 1.39D-03

 Cycle   6  Pass 1  IDiag  1:
 E= -75.9127054037371     Delta-E=       -0.000000918702 Rises=F Damp=F
 DIIS: error= 1.90D-05 at cycle   6 NSaved=   6.
 NSaved= 6 IEnMin= 6 EnMin= -75.9127054037371     IErMin= 6 ErrMin= 1.90D-05
 ErrMax= 1.90D-05  0.00D+00 EMaxC= 1.00D-01 BMatC= 3.56D-08 BMatP= 1.31D-06
 IDIUse=1 WtCom= 1.00D+00 WtEn= 0.00D+00
 Coeff-Com:  0.605D-04 0.559D-02-0.919D-02-0.183D-01-0.160D+00 0.118D+01
 Coeff:      0.605D-04 0.559D-02-0.919D-02-0.183D-01-0.160D+00 0.118D+01
 Gap=     0.082 Goal=   None    Shift=    0.000
 Gap=     0.084 Goal=   None    Shift=    0.000
 RMSDP=1.24D-05 MaxDP=5.73D-04 DE=-9.19D-07 OVMax= 2.32D-04

 Cycle   7  Pass 1  IDiag  1:
 E= -75.9127054258357     Delta-E=       -0.000000022099 Rises=F Damp=F
 DIIS: error= 1.89D-06 at cycle   7 NSaved=   7.
 NSaved= 7 IEnMin= 7 EnMin= -75.9127054258357     IErMin= 7 ErrMin= 1.89D-06
 ErrMax= 1.89D-06  0.00D+00 EMaxC= 1.00D-01 BMatC= 1.61D-10 BMatP= 3.56D-08
 IDIUse=1 WtCom= 1.00D+00 WtEn= 0.00D+00
 Coeff-Com: -0.237D-04 0.163D-03 0.344D-02 0.605D-03 0.686D-02-0.159D+00
 Coeff-Com:  0.115D+01
 Coeff:     -0.237D-04 0.163D-03 0.344D-02 0.605D-03 0.686D-02-0.159D+00
 Coeff:      0.115D+01
 Gap=     0.082 Goal=   None    Shift=    0.000
 Gap=     0.084 Goal=   None    Shift=    0.000
 RMSDP=2.83D-07 MaxDP=7.05D-06 DE=-2.21D-08 OVMax= 7.99D-06

 Cycle   8  Pass 1  IDiag  1:
 E= -75.9127054259281     Delta-E=       -0.000000000092 Rises=F Damp=F
 DIIS: error= 2.28D-07 at cycle   8 NSaved=   8.
 NSaved= 8 IEnMin= 8 EnMin= -75.9127054259281     IErMin= 8 ErrMin= 2.28D-07
 ErrMax= 2.28D-07  0.00D+00 EMaxC= 1.00D-01 BMatC= 3.40D-12 BMatP= 1.61D-10
 IDIUse=1 WtCom= 1.00D+00 WtEn= 0.00D+00
 Coeff-Com:  0.198D-06-0.715D-04-0.223D-03 0.348D-03 0.965D-03-0.371D-03
 Coeff-Com: -0.109D+00 0.111D+01
 Coeff:      0.198D-06-0.715D-04-0.223D-03 0.348D-03 0.965D-03-0.371D-03
 Coeff:     -0.109D+00 0.111D+01
 Gap=     0.082 Goal=   None    Shift=    0.000
 Gap=     0.084 Goal=   None    Shift=    0.000
 RMSDP=3.13D-08 MaxDP=8.80D-07 DE=-9.24D-11 OVMax= 1.33D-06

 Cycle   9  Pass 1  IDiag  1:
 E= -75.9127054259301     Delta-E=       -0.000000000002 Rises=F Damp=F
 DIIS: error= 2.44D-08 at cycle   9 NSaved=   9.
 NSaved= 9 IEnMin= 9 EnMin= -75.9127054259301     IErMin= 9 ErrMin= 2.44D-08
 ErrMax= 2.44D-08  0.00D+00 EMaxC= 1.00D-01 BMatC= 4.16D-14 BMatP= 3.40D-12
 IDIUse=1 WtCom= 1.00D+00 WtEn= 0.00D+00
 Coeff-Com:  0.320D-06 0.204D-05-0.258D-04-0.606D-04-0.862D-04 0.203D-02
 Coeff-Com: -0.431D-02-0.124D+00 0.113D+01
 Coeff:      0.320D-06 0.204D-05-0.258D-04-0.606D-04-0.862D-04 0.203D-02
 Coeff:     -0.431D-02-0.124D+00 0.113D+01
 Gap=     0.082 Goal=   None    Shift=    0.000
 Gap=     0.084 Goal=   None    Shift=    0.000
 RMSDP=1.07D-08 MaxDP=4.61D-07 DE=-2.00D-12 OVMax= 2.07D-07

 Cycle  10  Pass 1  IDiag  1:
 E= -75.9127054259301     Delta-E=        0.000000000000 Rises=F Damp=F
 DIIS: error= 5.30D-09 at cycle  10 NSaved=  10.
 NSaved=10 IEnMin= 9 EnMin= -75.9127054259301     IErMin=10 ErrMin= 5.30D-09
 ErrMax= 5.30D-09  0.00D+00 EMaxC= 1.00D-01 BMatC= 1.53D-15 BMatP= 4.16D-14
 IDIUse=1 WtCom= 1.00D+00 WtEn= 0.00D+00
 Coeff-Com: -0.560D-07 0.152D-05 0.848D-05 0.456D-05-0.220D-04-0.334D-03
 Coeff-Com:  0.282D-02-0.488D-02-0.155D+00 0.116D+01
 Coeff:     -0.560D-07 0.152D-05 0.848D-05 0.456D-05-0.220D-04-0.334D-03
 Coeff:      0.282D-02-0.488D-02-0.155D+00 0.116D+01
 Gap=     0.082 Goal=   None    Shift=    0.000
 Gap=     0.084 Goal=   None    Shift=    0.000
 RMSDP=1.95D-09 MaxDP=7.30D-08 DE= 4.26D-14 OVMax= 4.13D-08

 SCF Done:  E(UB3LYP) =  -75.9127054259     A.U. after   10 cycles
            NFock= 10  Conv=0.19D-08     -V/T= 2.0037
 <Sx>= 0.0000 <Sy>= 0.0000 <Sz>= 1.5000 <S**2>= 3.7582 S= 1.5021
 <L.S>= 0.000000000000E+00
 KE= 7.563274135377D+01 PE=-2.064753768334D+02 EE= 4.162814076709D+01
 Annihilation of the first spin contaminant:
 S**2 before annihilation     3.7582,   after     3.7500
 Leave Link  502 at Fri Jan 25 14:29:03 2019, MaxMem=   412876800 cpu:         2.7
 (Enter /usr/local/gaussian/gaussian09/g09/l701.exe)
 Compute integral first derivatives.
 ... and contract with generalized density number  0.
 Leave Link  701 at Fri Jan 25 14:29:04 2019, MaxMem=   412876800 cpu:         0.5
 (Enter /usr/local/gaussian/gaussian09/g09/l702.exe)
 L702 exits ... SP integral derivatives will be done elsewhere.
 Leave Link  702 at Fri Jan 25 14:29:04 2019, MaxMem=   412876800 cpu:         0.0
 (Enter /usr/local/gaussian/gaussian09/g09/l703.exe)
 Compute integral first derivatives, UseDBF=F ICtDFT=           0.
 Integral derivatives from FoFJK, PRISM(SPDF).
 Calling FoFJK, ICntrl=      2127 FMM=F ISym2X=1 I1Cent= 0 IOpClX= 1 NMat=1 NMatS=1 NMatT=0.
 FoFJK:  IHMeth= 1 ICntrl=    2127 DoSepK=F KAlg= 0 I1Cent=   0 FoldK=F
 IRaf=         0 NMat=   1 IRICut=       1 DoRegI=T DoRafI=F ISym2E= 1.
 FoFCou: FMM=F IPFlag=           0 FMFlag=      100000 FMFlg1=         800
         NFxFlg=           0 DoJE=F BraDBF=F KetDBF=F FulRan=T
         wScrn=  0.000000 ICntrl=    2127 IOpCl=  1 I1Cent=           0 NGrid=           0
         NMat0=    1 NMatS0=      1 NMatT0=    0 NMatD0=    1 NMtDS0=    0 NMtDT0=    0
 Petite list used in FoFCou.
 Leave Link  703 at Fri Jan 25 14:29:05 2019, MaxMem=   412876800 cpu:         2.4
 (Enter /usr/local/gaussian/gaussian09/g09/l716.exe)
 Dipole        =-8.28596887D-17 2.71887141D-33 0.00000000D+00
 ***** Axes restored to original set *****
 -------------------------------------------------------------------
 Center     Atomic                   Forces (Hartrees/Bohr)
 Number     Number              X              Y              Z
 -------------------------------------------------------------------
      1        6          -0.003018905    0.000000000   -0.000000000
      2        6           0.003018905   -0.000000000    0.000000000
 -------------------------------------------------------------------
 Cartesian Forces:  Max     0.003018905 RMS     0.001742965
 Leave Link  716 at Fri Jan 25 14:29:05 2019, MaxMem=   412876800 cpu:         0.1
 (Enter /usr/local/gaussian/gaussian09/g09/l103.exe)

 GradGradGradGradGradGradGradGradGradGradGradGradGradGradGradGradGradGrad
 Berny optimization.
 Using GEDIIS/GDIIS optimizer.
 Red2BG is reusing G-inverse.
 Internal  Forces:  Max     0.003018905 RMS     0.003018905
 Search for a local minimum.
 Step number   3 out of a maximum of   20
 All quantities printed in internal units (Hartrees-Bohrs-Radians)
 RMS Force = .30189D-02 SwitMx=.10000D-02 MixMth= 1
 Mixed Optimization -- RFO/linear search
 Update second derivatives using D2CorX and points    2    3
 DE= -3.09D-03 DEPred=-8.18D-04 R= 3.78D+00
 TightC=F SS=  1.41D+00  RLast= 1.40D-01 DXNew= 8.4853D-01 4.2129D-01
 Trust test= 3.78D+00 RLast= 1.40D-01 DXMaxT set to 5.05D-01
 The second derivative matrix:
                          R1
           R1           0.38272
 ITU=  1  1
 Use linear search instead of GDIIS.
     Eigenvalues ---    0.38272
 RFO step:  Lambda= 0.00000000D+00 EMin= 3.82719005D-01
 Quartic linear search produced a step of -0.06925.
 Iteration  1 RMS(Cart)=  0.00687596 RMS(Int)=  0.00000000
 Iteration  2 RMS(Cart)=  0.00000000 RMS(Int)=  0.00000000
 ITry= 1 IFail=0 DXMaxC= 4.86D-03 DCOld= 1.00D+10 DXMaxT= 5.05D-01 DXLimC= 3.00D+00 Rises=F
 ClnCor:  largest displacement from symmetrization is 2.98D-19 for atom     1.
 Variable       Old X    -DE/DX   Delta X   Delta X   Delta X     New X
                                 (Linear)    (Quad)   (Total)
    R1        2.70640  -0.00302  -0.00972   0.00000  -0.00972   2.69668
         Item               Value     Threshold  Converged?
 Maximum Force            0.003019     0.000450     NO 
 RMS     Force            0.003019     0.000300     NO 
 Maximum Displacement     0.004862     0.001800     NO 
 RMS     Displacement     0.006876     0.001200     NO 
 Predicted change in Energy=-1.126156D-05
 Lowest energy point so far.  Saving SCF results.
 GradGradGradGradGradGradGradGradGradGradGradGradGradGradGradGradGradGrad

 Leave Link  103 at Fri Jan 25 14:29:05 2019, MaxMem=   412876800 cpu:         0.0
 (Enter /usr/local/gaussian/gaussian09/g09/l202.exe)
                          Input orientation:                          
 ---------------------------------------------------------------------
 Center     Atomic      Atomic             Coordinates (Angstroms)
 Number     Number       Type             X           Y           Z
 ---------------------------------------------------------------------
      1          6           0        0.713510    0.000000    0.000000
      2          6           0       -0.713510    0.000000   -0.000000
 ---------------------------------------------------------------------
 Stoichiometry    C2(1-,4)
 Framework group  D*H[C*(C.C)]
 Deg. of freedom     1
 Full point group                 D*H     NOp   8
 RotChk:  IX=0 Diff= 8.66D-17
 Largest Abelian subgroup         D2H     NOp   8
 Largest concise Abelian subgroup C2      NOp   2
                         Standard orientation:                         
 ---------------------------------------------------------------------
 Center     Atomic      Atomic             Coordinates (Angstroms)
 Number     Number       Type             X           Y           Z
 ---------------------------------------------------------------------
      1          6           0        0.000000    0.000000    0.713510
      2          6           0        0.000000    0.000000   -0.713510
 ---------------------------------------------------------------------
 Rotational constants (GHZ):      0.0000000     41.3623551     41.3623551
 Leave Link  202 at Fri Jan 25 14:29:05 2019, MaxMem=   412876800 cpu:         0.0
 (Enter /usr/local/gaussian/gaussian09/g09/l301.exe)
 Standard basis: 6-311++G(3df,2p) (5D, 7F)
 Ernie: Thresh=  0.10000D-02 Tol=  0.10000D-05 Strict=F.
 There are    21 symmetry adapted cartesian basis functions of AG  symmetry.
 There are     4 symmetry adapted cartesian basis functions of B1G symmetry.
 There are    10 symmetry adapted cartesian basis functions of B2G symmetry.
 There are    10 symmetry adapted cartesian basis functions of B3G symmetry.
 There are     4 symmetry adapted cartesian basis functions of AU  symmetry.
 There are    21 symmetry adapted cartesian basis functions of B1U symmetry.
 There are    10 symmetry adapted cartesian basis functions of B2U symmetry.
 There are    10 symmetry adapted cartesian basis functions of B3U symmetry.
 There are    17 symmetry adapted basis functions of AG  symmetry.
 There are     4 symmetry adapted basis functions of B1G symmetry.
 There are     9 symmetry adapted basis functions of B2G symmetry.
 There are     9 symmetry adapted basis functions of B3G symmetry.
 There are     4 symmetry adapted basis functions of AU  symmetry.
 There are    17 symmetry adapted basis functions of B1U symmetry.
 There are     9 symmetry adapted basis functions of B2U symmetry.
 There are     9 symmetry adapted basis functions of B3U symmetry.
    78 basis functions,   116 primitive gaussians,    90 cartesian basis functions
     8 alpha electrons        5 beta electrons
       nuclear repulsion energy        13.3497547845 Hartrees.
 IExCor=  402 DFT=T Ex+Corr=B3LYP ExCW=0 ScaHFX=  0.200000
 ScaDFX=  0.800000  0.720000  1.000000  0.810000 ScalE2=  1.000000  1.000000
 IRadAn=      0 IRanWt=     -1 IRanGd=            0 ICorTp=0 IEmpDi=  4
 NAtoms=    2 NActive=    2 NUniq=    1 SFac= 4.00D+00 NAtFMM=   60 NAOKFM=F Big=F
 Integral buffers will be    131072 words long.
 Raffenetti 2 integral format.
 Two-electron integral symmetry is turned on.
 Leave Link  301 at Fri Jan 25 14:29:05 2019, MaxMem=   412876800 cpu:         0.2
 (Enter /usr/local/gaussian/gaussian09/g09/l302.exe)
 NPDir=0 NMtPBC=     1 NCelOv=     1 NCel=       1 NClECP=     1 NCelD=      1
         NCelK=      1 NCelE2=     1 NClLst=     1 CellRange=     0.0.
 One-electron integrals computed using PRISM.
 One-electron integral symmetry used in STVInt
 NBasis=    78 RedAO= T EigKep=  1.89D-04  NBF=    17     4     9     9     4    17     9     9
 NBsUse=    78 1.00D-06 EigRej= -1.00D+00 NBFU=    17     4     9     9     4    17     9     9
 Precomputing XC quadrature grid using
[...]
      6 vectors produced by pass  0 Test12= 1.54D-14 1.67D-08 XBig12= 3.38D+02 1.25D+01.
 AX will form     6 AO Fock derivatives at one time.
      6 vectors produced by pass  1 Test12= 1.54D-14 1.67D-08 XBig12= 6.28D+02 1.74D+01.
      6 vectors produced by pass  2 Test12= 1.54D-14 1.67D-08 XBig12= 5.96D+01 2.87D+00.
      6 vectors produced by pass  3 Test12= 1.54D-14 1.67D-08 XBig12= 5.34D+00 1.20D+00.
      6 vectors produced by pass  4 Test12= 1.54D-14 1.67D-08 XBig12= 4.00D-01 2.62D-01.
      6 vectors produced by pass  5 Test12= 1.54D-14 1.67D-08 XBig12= 7.52D-03 2.82D-02.
      6 vectors produced by pass  6 Test12= 1.54D-14 1.67D-08 XBig12= 4.55D-04 1.03D-02.
      5 vectors produced by pass  7 Test12= 1.54D-14 1.67D-08 XBig12= 6.12D-06 9.75D-04.
      4 vectors produced by pass  8 Test12= 1.54D-14 1.67D-08 XBig12= 4.35D-08 6.92D-05.
      2 vectors produced by pass  9 Test12= 1.54D-14 1.67D-08 XBig12= 3.54D-10 6.84D-06.
      1 vectors produced by pass 10 Test12= 1.54D-14 1.67D-08 XBig12= 2.98D-12 6.36D-07.
      1 vectors produced by pass 11 Test12= 1.54D-14 1.67D-08 XBig12= 1.49D-14 3.02D-08.
 InvSVY:  IOpt=1 It=  1 EMax= 4.04D-15
 Solved reduced A of dimension    55 with     6 vectors.
 FullF1:  Do perturbations    1 to     6.
 Isotropic polarizability for W=    0.000000      109.87 Bohr**3.
 End of Minotr F.D. properties file   721 does not exist.
 End of Minotr F.D. properties file   722 does not exist.
 End of Minotr F.D. properties file   788 does not exist.
 Leave Link 1002 at Fri Jan 25 14:29:41 2019, MaxMem=   412876800 cpu:        13.6
 (Enter /usr/local/gaussian/gaussian09/g09/l601.exe)
 Copying SCF densities to generalized density rwf, IOpCl= 1 IROHF=0.

 **********************************************************************

            Population analysis using the SCF density.

 **********************************************************************

 Orbital symmetries:
 Alpha Orbitals:
       Occupied  (SGG) (SGU) (SGG) (SGU) (PIU) (SGG) (PIU) (?A)
       Virtual   (SGU) (?A) (SGG) (PIU) (PIU) (?A) (SGG) (?A) (SGU)
                 (?B) (?B) (SGU) (?B) (PIU) (PIU) (?C) (?C) (?C)
                 (PIG) (PIG) (PIU) (SGG) (PIU) (SGU) (PIG) (PIG)
                 (SGG) (SGU) (PIU) (PIU) (?D) (?D) (?D) (DLTU)
                 (DLTU) (PIG) (PIG) (SGU) (?E) (?E) (?F) (?F) (?E)
                 (?F) (?F) (?G) (?G) (?G) (?G) (PIU) (PIU) (?H)
                 (?H) (?H) (SGG) (PIG) (PIG) (SGU) (DLTG) (DLTG)
                 (PIU) (?H) (PIU) (?H) (?H) (PIG) (PIG) (SGG) (SGG)
                 (SGU)
 Beta  Orbitals:
       Occupied  (SGG) (SGU) (SGG) (SGU) (?A)
       Virtual   (SGG) (?A) (SGU) (?B) (SGG) (?B) (?A) (?A) (SGG)
                 (?B) (SGU) (?B) (?C) (?C) (SGU) (?C) (PIU) (PIU)
                 (?D) (?D) (?D) (PIG) (PIG) (PIU) (PIU) (SGG) (SGU)
                 (PIG) (PIG) (SGG) (SGU) (PIU) (PIU) (?E) (?E)
                 (?E) (DLTU) (DLTU) (PIG) (PIG) (SGU) (?F) (?F)
                 (?G) (?G) (?F) (?G) (?G) (?H) (?H) (?H) (?H) (PIU)
                 (PIU) (?H) (?H) (?H) (SGG) (PIG) (PIG) (SGU) (DLTG)
                 (DLTG) (PIU) (?H) (?H) (PIU) (?H) (PIG) (PIG)
                 (SGG) (SGG) (SGU)
 Unable to determine electronic state:  an orbital has unidentified symmetry.
 Alpha  occ. eigenvalues --   -9.99323  -9.99288  -0.50469  -0.20266  -0.09182
 Alpha  occ. eigenvalues --   -0.08029  -0.04581   0.10630
 Alpha virt. eigenvalues --    0.18734   0.18903   0.19608   0.21635   0.22325
 Alpha virt. eigenvalues --    0.25027   0.25162   0.27865   0.30091   0.50399
 Alpha virt. eigenvalues --    0.50436   0.51825   0.58929   0.61381   0.62860
 Alpha virt. eigenvalues --    0.65555   0.66380   0.66999   0.72212   0.74454
 Alpha virt. eigenvalues --    0.74888   0.76144   0.76957   0.88011   0.92539
 Alpha virt. eigenvalues --    0.94136   1.18242   1.50765   1.60525   1.62910
 Alpha virt. eigenvalues --    1.71259   1.71288   1.90342   1.91269   1.91409
 Alpha virt. eigenvalues --    2.17420   2.19936   2.33151   2.79415   2.79431
 Alpha virt. eigenvalues --    2.84889   2.87854   2.92766   2.93259   2.93292
 Alpha virt. eigenvalues --    3.01435   3.04544   3.17274   3.17311   3.21409
 Alpha virt. eigenvalues --    3.23604   3.41863   3.64352   3.64517   3.78009
 Alpha virt. eigenvalues --    4.47538   4.49963   4.68700   7.12068   7.12148
 Alpha virt. eigenvalues --    7.20604   7.23467   7.23574   7.23923   7.31536
 Alpha virt. eigenvalues --    7.64367   7.67269   7.91428  23.60125  25.07425
  Beta  occ. eigenvalues --   -9.97249  -9.97225  -0.42831  -0.10022  -0.02432
  Beta virt. eigenvalues --    0.06060   0.07867   0.19130   0.20249   0.21404
  Beta virt. eigenvalues --    0.21641   0.22375   0.23615   0.25343   0.29332
  Beta virt. eigenvalues --    0.30715   0.32844   0.52189   0.52385   0.55944
  Beta virt. eigenvalues --    0.60939   0.64089   0.65283   0.68478   0.68566
  Beta virt. eigenvalues --    0.69476   0.75742   0.77600   0.77965   0.80551
  Beta virt. eigenvalues --    0.80599   0.93377   0.94888   0.96410   1.21034
  Beta virt. eigenvalues --    1.54724   1.66479   1.69280   1.76513   1.76720
  Beta virt. eigenvalues --    1.97215   1.97307   1.97594   2.23831   2.26614
  Beta virt. eigenvalues --    2.39413   2.85101   2.85169   2.89673   2.92689
  Beta virt. eigenvalues --    2.97981   2.98522   2.98636   3.06286   3.09322
  Beta virt. eigenvalues --    3.22704   3.22835   3.27116   3.29604   3.47396
  Beta virt. eigenvalues --    3.69819   3.70122   3.83942   4.53077   4.55780
  Beta virt. eigenvalues --    4.73893   7.18639   7.18836   7.27396   7.30090
  Beta virt. eigenvalues --    7.30463   7.30689   7.38460   7.70942   7.74045
  Beta virt. eigenvalues --    7.98396  23.62407  25.09898
          Condensed to atoms (all electrons):
               1          2
     1  C    7.828486  -1.328486
     2  C   -1.328486   7.828486
          Atomic-Atomic Spin Densities.
               1          2
     1  C    2.128341  -0.628341
     2  C   -0.628341   2.128341
 Mulliken charges and spin densities:
               1          2
     1  C   -0.500000   1.500000
     2  C   -0.500000   1.500000
 Sum of Mulliken charges =  -1.00000   3.00000
 Mulliken charges and spin densities with hydrogens summed into heavy atoms:
               1          2
     1  C   -0.500000   1.500000
     2  C   -0.500000   1.500000
 APT charges:
               1
     1  C   -0.500000
     2  C   -0.500000
 Sum of APT charges =  -1.00000
 APT charges with hydrogens summed into heavy atoms:
               1
     1  C   -0.500000
     2  C   -0.500000
 Electronic spatial extent (au):  <R**2>=             66.5210
 Charge=             -1.0000 electrons
 Dipole moment (field-independent basis, Debye):
    X=             -0.0000    Y=              0.0000    Z=             -0.0000  Tot=              0.0000
 Quadrupole moment (field-independent basis, Debye-Ang):
   XX=            -19.0349   YY=            -18.0188   ZZ=            -23.0757
   XY=             -0.0000   XZ=              0.0000   YZ=              0.0000
 Traceless Quadrupole moment (field-independent basis, Debye-Ang):
   XX=              1.0082   YY=              2.0244   ZZ=             -3.0326
   XY=             -0.0000   XZ=              0.0000   YZ=              0.0000
 Octapole moment (field-independent basis, Debye-Ang**2):
  XXX=             -0.0000  YYY=              0.0000  ZZZ=              0.0000  XYY=             -0.0000
  XXY=             -0.0000  XXZ=             -0.0000  XZZ=             -0.0000  YZZ=             -0.0000
  YYZ=             -0.0000  XYZ=              0.0000
 Hexadecapole moment (field-independent basis, Debye-Ang**3):
 XXXX=            -49.6646 YYYY=            -37.8829 ZZZZ=           -109.9018 XXXY=             -0.0000
 XXXZ=              0.0000 YYYX=             -0.0000 YYYZ=              0.0000 ZZZX=              0.0000
 ZZZY=              0.0000 XXYY=            -14.5860 XXZZ=            -34.3859 YYZZ=            -24.0606
 XXYZ=              0.0000 YYXZ=              0.0000 ZZXY=             -0.0000
 N-N= 1.334975478453D+01 E-N=-2.065741847119D+02  KE= 7.564065201578D+01
 Symmetry AG   KE= 3.646091318847D+01
 Symmetry B1G  KE= 2.347248568520D-34
 Symmetry B2G  KE= 1.135070813127D+00
 Symmetry B3G  KE= 1.129481979905D-31
 Symmetry AU   KE= 1.200642476487D-33
 Symmetry B1U  KE= 3.498177461170D+01
 Symmetry B2U  KE= 1.978263288149D+00
 Symmetry B3U  KE= 1.084630114328D+00
  Exact polarizability:  70.814   0.000 163.728   0.000  -0.000  95.071
 Approx polarizability:  56.922  -0.000  48.441  -0.000  -0.000 125.249
                          Isotropic Fermi Contact Couplings
        Atom                 a.u.       MegaHertz       Gauss      10(-4) cm-1
     1  C(13)              0.07618      28.54597      10.18591       9.52191
     2  C(13)              0.07618      28.54597      10.18591       9.52191
 --------------------------------------------------------
       Center         ----  Spin Dipole Couplings  ----
                      3XX-RR        3YY-RR        3ZZ-RR
 --------------------------------------------------------
     1   Atom        0.816322     -0.989337      0.173015
     2   Atom        0.816322     -0.989337      0.173015
 --------------------------------------------------------
                        XY            XZ            YZ
 --------------------------------------------------------
     1   Atom        0.000000     -0.000000      0.000000
     2   Atom        0.000000     -0.000000      0.000000
 --------------------------------------------------------


 ---------------------------------------------------------------------------------
              Anisotropic Spin Dipole Couplings in Principal Axis System
 ---------------------------------------------------------------------------------

       Atom             a.u.   MegaHertz   Gauss  10(-4) cm-1        Axes

              Baa    -0.9893  -132.760   -47.372   -44.284  0.0000  1.0000  0.0000
     1 C(13)  Bbb     0.1730    23.217     8.284     7.744  0.0000  0.0000  1.0000
              Bcc     0.8163   109.543    39.088    36.539  1.0000  0.0000  0.0000
 
              Baa    -0.9893  -132.760   -47.372   -44.284  0.0000  1.0000  0.0000
     2 C(13)  Bbb     0.1730    23.217     8.284     7.744  0.0000  0.0000  1.0000
              Bcc     0.8163   109.543    39.088    36.539  1.0000  0.0000  0.0000
 

 ---------------------------------------------------------------------------------

 No NMR shielding tensors so no spin-rotation constants.
 Leave Link  601 at Fri Jan 25 14:29:41 2019, MaxMem=   412876800 cpu:         0.8
 (Enter /usr/local/gaussian/gaussian09/g09/l701.exe)
 Compute integral second derivatives.
 ... and contract with generalized density number  0.
 Leave Link  701 at Fri Jan 25 14:29:42 2019, MaxMem=   412876800 cpu:         0.7
 (Enter /usr/local/gaussian/gaussian09/g09/l702.exe)
 L702 exits ... SP integral derivatives will be done elsewhere.
 Leave Link  702 at Fri Jan 25 14:29:42 2019, MaxMem=   412876800 cpu:         0.0
 (Enter /usr/local/gaussian/gaussian09/g09/l703.exe)
 Compute integral second derivatives, UseDBF=F ICtDFT=           0.
 Integral derivatives from FoFJK, PRISM(SPDF).
 Calling FoFJK, ICntrl=    100127 FMM=F ISym2X=1 I1Cent= 0 IOpClX= 1 NMat=1 NMatS=1 NMatT=0.
 FoFJK:  IHMeth= 1 ICntrl=  100127 DoSepK=F KAlg= 0 I1Cent=   0 FoldK=F
 IRaf=         0 NMat=   1 IRICut=       1 DoRegI=T DoRafI=F ISym2E= 1.
 FoFCou: FMM=F IPFlag=           0 FMFlag=      100000 FMFlg1=         800
         NFxFlg=           0 DoJE=F BraDBF=F KetDBF=F FulRan=T
         wScrn=  0.000000 ICntrl=  100127 IOpCl=  1 I1Cent=           0 NGrid=           0
         NMat0=    1 NMatS0=      1 NMatT0=    0 NMatD0=    1 NMtDS0=    0 NMtDT0=    0
 Petite list used in FoFCou.
 Leave Link  703 at Fri Jan 25 14:29:47 2019, MaxMem=   412876800 cpu:         9.3
 (Enter /usr/local/gaussian/gaussian09/g09/l716.exe)
 Dipole        =-8.25619749D-17-3.85185989D-33-5.19149204D-15
 Polarizability= 7.08137326D+01 7.51819487D-08 1.63728133D+02
                 1.03958400D-08-2.73842962D-08 9.50708768D+01
 Full mass-weighted force constant matrix:
 Low frequencies ---  -26.1983   -0.0012   -0.0003    0.0004    4.0531 1181.0638
 Diagonal vibrational polarizability:
        0.0000000       0.0000000       0.0000000
 Harmonic frequencies (cm**-1), IR intensities (KM/Mole), Raman scattering
 activities (A**4/AMU), depolarization ratios for plane and unpolarized
 incident light, reduced masses (AMU), force constants (mDyne/A),
 and normal coordinates:
                      1
                     SGG
 Frequencies --   1181.0638
 Red. masses --     12.0000
 Frc consts  --      9.8623
 IR Inten    --      0.0000
  Atom  AN      X      Y      Z
     1   6    -0.00   0.00   0.71
     2   6     0.00   0.00  -0.71

 -------------------
 - Thermochemistry -
 -------------------
 Temperature   298.150 Kelvin.  Pressure   1.00000 Atm.
 Atom     1 has atomic number  6 and mass  12.00000
 Atom     2 has atomic number  6 and mass  12.00000
 Molecular mass:    24.00000 amu.
 Principal axes and moments of inertia in atomic units:
                           1         2         3
     Eigenvalues --     0.00000  43.63246  43.63246
           X           -0.00000   1.00000  -0.00000
           Y            0.00000   0.00000   1.00000
           Z            1.00000   0.00000  -0.00000
 This molecule is a prolate symmetric top.
 Rotational symmetry number  2.
 Rotational temperature (Kelvin)      1.98508
 Rotational constant (GHZ):          41.362355
 Zero-point vibrational energy       7064.3 (Joules/Mol)
                                    1.68842 (Kcal/Mol)
 Vibrational temperatures:   1699.29
          (Kelvin)
 
 Zero-point correction=                           0.002691 (Hartree/Particle)
 Thermal correction to Energy=                    0.005069
 Thermal correction to Enthalpy=                  0.006013
 Thermal correction to Gibbs Free Energy=        -0.017189
 Sum of electronic and zero-point Energies=            -75.910029
 Sum of electronic and thermal Energies=               -75.907651
 Sum of electronic and thermal Enthalpies=             -75.906707
 Sum of electronic and thermal Free Energies=          -75.929909
 
                     E (Thermal)             CV                S
                      KCal/Mol        Cal/Mol-Kelvin    Cal/Mol-Kelvin
 Total                    3.181              5.186             48.833
 Electronic               0.000              0.000              2.755
 Translational            0.889              2.981             35.464
 Rotational               0.592              1.987             10.570
 Vibrational              1.700              0.218              0.045
                       Q            Log10(Q)             Ln(Q)
 Total Bot       0.805935D+08          7.906300         18.204929
 Total V=0       0.139289D+10          9.143916         21.054644
 Vib (Bot)       0.580551D-01         -1.236159         -2.846362
 Vib (V=0)       0.100336D+01          0.001456          0.003353
 Electronic      0.400000D+01          0.602060          1.386294
 Translational   0.462138D+07          6.664772         15.346205
 Rotational      0.750978D+02          1.875627          4.318792
 ***** Axes restored to original set *****
 -------------------------------------------------------------------
 Center     Atomic                   Forces (Hartrees/Bohr)
 Number     Number              X              Y              Z
 -------------------------------------------------------------------
      1        6           0.000014478    0.000000000   -0.000000000
      2        6          -0.000014478   -0.000000000    0.000000000
 -------------------------------------------------------------------
 Cartesian Forces:  Max     0.000014478 RMS     0.000008359
 Force constants in Cartesian coordinates: 
                1             2             3             4             5 
      1  0.316730D+00
      2  0.000000D+00  0.373002D-05
      3  0.000000D+00  0.000000D+00 -0.155844D-03
      4 -0.316730D+00  0.000000D+00  0.000000D+00  0.316730D+00
      5  0.000000D+00 -0.373002D-05  0.000000D+00  0.000000D+00  0.373002D-05
      6  0.000000D+00  0.000000D+00  0.155844D-03  0.000000D+00  0.000000D+00
                6 
      6 -0.155844D-03
 FormGI is forming the generalized inverse of G from B-inverse, IUseBI=4.
 Force constants in internal coordinates: 
                1 
      1  0.316730D+00
 Leave Link  716 at Fri Jan 25 14:29:51 2019, MaxMem=   412876800 cpu:         4.3
 (Enter /usr/local/gaussian/gaussian09/g09/l103.exe)

 GradGradGradGradGradGradGradGradGradGradGradGradGradGradGradGradGradGrad
 Berny optimization.
 Red2BG is reusing G-inverse.
 Internal  Forces:  Max     0.000014478 RMS     0.000014478
 Search for a local minimum.
 Step number   1 out of a maximum of    2
 All quantities printed in internal units (Hartrees-Bohrs-Radians)
 Second derivative matrix not updated -- analytic derivatives used.
 The second derivative matrix:
                          R1
           R1           0.31673
 ITU=  0
     Eigenvalues ---    0.31673
 Angle between quadratic step and forces=   0.00 degrees.
 Linear search not attempted -- first point.
 Iteration  1 RMS(Cart)=  0.00003232 RMS(Int)=  0.00000000
 Iteration  2 RMS(Cart)=  0.00000000 RMS(Int)=  0.00000000
 ITry= 1 IFail=0 DXMaxC= 2.29D-05 DCOld= 1.00D+10 DXMaxT= 3.00D-01 DXLimC= 3.00D+00 Rises=F
 ClnCor:  largest displacement from symmetrization is 1.40D-21 for atom     1.
 Variable       Old X    -DE/DX   Delta X   Delta X   Delta X     New X
                                 (Linear)    (Quad)   (Total)
    R1        2.69668   0.00001   0.00000   0.00005   0.00005   2.69672
         Item               Value     Threshold  Converged?
 Maximum Force            0.000014     0.000450     YES
 RMS     Force            0.000014     0.000300     YES
 Maximum Displacement     0.000023     0.001800     YES
 RMS     Displacement     0.000032     0.001200     YES
 Predicted change in Energy=-3.308855D-10
 Optimization completed.
    -- Stationary point found.
                           ----------------------------
                           !   Optimized Parameters   !
                           ! (Angstroms and Degrees)  !
 --------------------------                            --------------------------
 ! Name  Definition              Value          Derivative Info.                !
 --------------------------------------------------------------------------------
 ! R1    R(1,2)                  1.427          -DE/DX =    0.0                 !
 --------------------------------------------------------------------------------
 GradGradGradGradGradGradGradGradGradGradGradGradGradGradGradGradGradGrad

 Leave Link  103 at Fri Jan 25 14:29:51 2019, MaxMem=   412876800 cpu:         0.1
 (Enter /usr/local/gaussian/gaussian09/g09/l9999.exe)
 1\1\GINC-PANORAMIX\Freq\UB3LYP\6-311++G(3df,2p)\C2(1-,4)\SERGIO\25-Jan
 -2019\0\\#P Geom=AllCheck Guess=TCheck SCRF=Check GenChk UB3LYP/6-311+
 +G(3df,2p) Freq\\b3lyp opt\\-1,4\C,0.7135104658,0.,0.\C,-0.7135104658,
 0.,0.\\Version=EM64L-G09RevE.01\HF=-75.9127201\S2=3.758213\S2-1=0.\S2A
 =3.750019\RMSD=8.829e-10\RMSF=8.359e-06\ZeroPoint=0.0026907\Thermal=0.
 0050692\Dipole=0.,0.,0.\DipoleDeriv=-0.5,0.,0.,0.,-0.5,0.,0.,0.,-0.5,-
 0.5,0.,0.,0.,-0.5,0.,0.,0.,-0.5\Polar=95.0708768,0.,163.728133,0.,0.,7
 0.8137326\PG=D*H [C*(C1.C1)]\NImag=0\\0.31673018,0.,0.00000373,0.,0.,-
 0.00015584,-0.31673018,0.,0.,0.31673018,0.,-0.00000373,0.,0.,0.0000037
 3,0.,0.,0.00015584,0.,0.,-0.00015584\\-0.00001448,0.,0.,0.00001448,0.,
 0.\\\@


 UNLESS WE CHANGE DIRECTIONS, WE WILL WIND UP WHERE WE ARE HEADED.
     -- CONFUCIUS
 Job cpu time:       0 days  0 hours  0 minutes 45.6 seconds.
 File lengths (MBytes):  RWF=      7 Int=      0 D2E=      0 Chk=      2 Scr=      1
 Normal termination of Gaussian 09 at Fri Jan 25 14:29:51 2019.
