 Entering Gaussian System, Link 0=/home/proyectos/fulerenos/M3C-v2.0/M3C-deps_CCC/g09-AM64L-G09RevC.01/g09
 Initial command:
 /home/proyectos/fulerenos/M3C-v2.0/M3C-deps_CCC/g09-AM64L-G09RevC.01/l1.exe "/scratch/naguirre/gaussian/Gau-24620.inp" -scrdir="/scratch/naguirre/gaussian/"
 Entering Link 1 = /home/proyectos/fulerenos/M3C-v2.0/M3C-deps_CCC/g09-AM64L-G09RevC.01/l1.exe PID=     24624.
  
 Copyright (c) 1988,1990,1992,1993,1995,1998,2003,2009,2015,
            Gaussian, Inc.  All Rights Reserved.
  
 This is part of the Gaussian(R) 09 program.  It is based on
 the Gaussian(R) 03 system (copyright 2003, Gaussian, Inc.),
 the Gaussian(R) 98 system (copyright 1998, Gaussian, Inc.),
 the Gaussian(R) 94 system (copyright 1995, Gaussian, Inc.),
 the Gaussian 92(TM) system (copyright 1992, Gaussian, Inc.),
 the Gaussian 90(TM) system (copyright 1990, Gaussian, Inc.),
 the Gaussian 88(TM) system (copyright 1988, Gaussian, Inc.),
 the Gaussian 86(TM) system (copyright 1986, Carnegie Mellon
 University), and the Gaussian 82(TM) system (copyright 1983,
 Carnegie Mellon University). Gaussian is a federally registered
 trademark of Gaussian, Inc.
  
 This software contains proprietary and confidential information,
 including trade secrets, belonging to Gaussian, Inc.
  
 This software is provided under written license and may be
 used, copied, transmitted, or stored only in accord with that
 written license.
  
 The following legend is applicable only to US Government
 contracts under FAR:
  
                    RESTRICTED RIGHTS LEGEND
  
 Use, reproduction and disclosure by the US Government is
 subject to restrictions as set forth in subparagraphs (a)
 and (c) of the Commercial Computer Software - Restricted
 Rights clause in FAR 52.227-19.
  
 Gaussian, Inc.
 340 Quinnipiac St., Bldg. 40, Wallingford CT 06492
  
  
 ---------------------------------------------------------------
 Warning -- This program may not be used in any manner that
 competes with the business of Gaussian, Inc. or will provide
 assistance to any competitor of Gaussian, Inc.  The licensee
 of this program is prohibited from giving any competitor of
 Gaussian, Inc. access to this program.  By using this program,
 the user acknowledges that Gaussian, Inc. is engaged in the
 business of creating and licensing software in the field of
 computational chemistry and represents and warrants to the
 licensee that it is not a competitor of Gaussian, Inc. and that
 it will not use this program in any manner prohibited above.
 ---------------------------------------------------------------
  

 Cite this work as:
 Gaussian 09, Revision E.01,
 M. J. Frisch, G. W. Trucks, H. B. Schlegel, G. E. Scuseria, 
 M. A. Robb, J. R. Cheeseman, G. Scalmani, V. Barone, B. Mennucci, 
 G. A. Petersson, H. Nakatsuji, M. Caricato, X. Li, H. P. Hratchian, 
 A. F. Izmaylov, J. Bloino, G. Zheng, J. L. Sonnenberg, M. Hada, 
 M. Ehara, K. Toyota, R. Fukuda, J. Hasegawa, M. Ishida, T. Nakajima, 
 Y. Honda, O. Kitao, H. Nakai, T. Vreven, J. A. Montgomery, Jr., 
 J. E. Peralta, F. Ogliaro, M. Bearpark, J. J. Heyd, E. Brothers, 
 K. N. Kudin, V. N. Staroverov, T. Keith, R. Kobayashi, J. Normand, 
 K. Raghavachari, A. Rendell, J. C. Burant, S. S. Iyengar, J. Tomasi, 
 M. Cossi, N. Rega, J. M. Millam, M. Klene, J. E. Knox, J. B. Cross, 
 V. Bakken, C. Adamo, J. Jaramillo, R. Gomperts, R. E. Stratmann, 
 O. Yazyev, A. J. Austin, R. Cammi, C. Pomelli, J. W. Ochterski, 
 R. L. Martin, K. Morokuma, V. G. Zakrzewski, G. A. Voth, 
 P. Salvador, J. J. Dannenberg, S. Dapprich, A. D. Daniels, 
 O. Farkas, J. B. Foresman, J. V. Ortiz, J. Cioslowski, 
 and D. J. Fox, Gaussian, Inc., Wallingford CT, 2013.
 
 ******************************************
 Gaussian 09:  EM64L-G09RevE.01 30-Nov-2015
                 7-Mar-2019 
 ******************************************
 %NProcShared=2
 Will use up to    2 processors via shared memory.
 ------------------------------------------------------
 #p b3lyp/6-311++G(3df,2p) freq IOp(2/17=3) IOp(2/18=3)
 ------------------------------------------------------
 1/10=4,30=1,38=1/1,3;
 2/12=2,17=3,18=3,40=1/2;
 3/5=4,6=6,7=1216,11=2,16=1,25=1,30=1,71=2,74=-5,140=1/1,2,3;
 4//1;
 5/5=2,38=5,98=1/2;
 8/6=4,10=90,11=11/1;
 11/6=1,8=1,9=11,15=111,16=1/1,2,10;
 10/6=1/2;
 6/7=2,8=2,9=2,10=2,18=1,28=1/1;
 7/8=1,10=1,25=1/1,2,3,16;
 1/10=4,30=1/3;
 99//99;
 Leave Link    1 at Thu Mar  7 09:10:54 2019, MaxMem=           0 cpu:         0.2
 (Enter /home/proyectos/fulerenos/M3C-v2.0/M3C-deps_CCC/g09-AM64L-G09RevC.01/l101.exe)
 ---------
 b3lyp opt
 ---------
 Symbolic Z-matrix:
 Charge = -1 Multiplicity = 2
 C                    -1.98745  -1.79417   0.06626 
 C                    -1.01432  -0.97949   0.02635 
 C                     0.96705   0.68056  -0.05567 
 C                     0.00507  -0.12619  -0.01574 
 O                     1.88933   1.45311  -0.09416 
 
 NAtoms=      5 NQM=        5 NQMF=       0 NMMI=      0 NMMIF=      0
                NMic=       0 NMicF=      0.
                    Isotopes and Nuclear Properties:
 (Nuclear quadrupole moments (NQMom) in fm**2, nuclear magnetic moments (NMagM)
  in nuclear magnetons)

  Atom         1           2           3           4           5
 IAtWgt=          12          12          12          12          16
 AtmWgt=  12.0000000  12.0000000  12.0000000  12.0000000  15.9949146
 NucSpn=           0           0           0           0           0
 AtZEff=   0.0000000   0.0000000   0.0000000   0.0000000   0.0000000
 NQMom=    0.0000000   0.0000000   0.0000000   0.0000000   0.0000000
 NMagM=    0.0000000   0.0000000   0.0000000   0.0000000   0.0000000
 AtZNuc=   6.0000000   6.0000000   6.0000000   6.0000000   8.0000000
 Leave Link  101 at Thu Mar  7 09:10:54 2019, MaxMem=    33554432 cpu:         0.6
 (Enter /home/proyectos/fulerenos/M3C-v2.0/M3C-deps_CCC/g09-AM64L-G09RevC.01/l103.exe)

 GradGradGradGradGradGradGradGradGradGradGradGradGradGradGradGradGradGrad
 Berny optimization.
 Initialization pass.
 Trust Radius=3.00D-01 FncErr=1.00D-07 GrdErr=1.00D-07
 Number of steps in this run=      2 maximum allowed number of steps=      2.
 GradGradGradGradGradGradGradGradGradGradGradGradGradGradGradGradGradGrad

 Leave Link  103 at Thu Mar  7 09:10:54 2019, MaxMem=    33554432 cpu:         0.2
 (Enter /home/proyectos/fulerenos/M3C-v2.0/M3C-deps_CCC/g09-AM64L-G09RevC.01/l202.exe)
                          Input orientation:                          
 ---------------------------------------------------------------------
 Center     Atomic      Atomic             Coordinates (Angstroms)
 Number     Number       Type             X           Y           Z
 ---------------------------------------------------------------------
      1          6           0       -1.987453   -1.794167    0.066262
      2          6           0       -1.014319   -0.979490    0.026347
      3          6           0        0.967051    0.680556   -0.055672
      4          6           0        0.005068   -0.126189   -0.015738
      5          8           0        1.889333    1.453113   -0.094159
 ---------------------------------------------------------------------
                    Distance matrix (angstroms):
                    1          2          3          4          5
     1  C    0.000000
     2  C    1.269757   0.000000
     3  C    3.855933   2.586176   0.000000
     4  C    2.599810   1.330054   1.256122   0.000000
     5  O    5.059647   3.789891   1.203715   2.459837   0.000000
 Stoichiometry    C4O(1-,2)
 Framework group  C*V[C*(CCCCO)]
 Deg. of freedom     4
 Full point group                 C*V     NOp   4
 Largest Abelian subgroup         C2V     NOp   4
 Largest concise Abelian subgroup C1      NOp   1
                         Standard orientation:                         
 ---------------------------------------------------------------------
 Center     Atomic      Atomic             Coordinates (Angstroms)
 Number     Number       Type             X           Y           Z
 ---------------------------------------------------------------------
      1          6           0        0.000000    0.000000   -2.713443
      2          6           0        0.000000    0.000000   -1.443687
      3          6           0       -0.000000   -0.000000    1.142490
      4          6           0        0.000000    0.000000   -0.113633
      5          8           0       -0.000000   -0.000000    2.346204
 ---------------------------------------------------------------------
 Rotational constants (GHZ):      0.0000000      2.3264783      2.3264783
 Leave Link  202 at Thu Mar  7 09:10:54 2019, MaxMem=    33554432 cpu:         0.1
 (Enter /home/proyectos/fulerenos/M3C-v2.0/M3C-deps_CCC/g09-AM64L-G09RevC.01/l301.exe)
 Standard basis: 6-311++G(3df,2p) (5D, 7F)
 Ernie: Thresh=  0.10000D-02 Tol=  0.10000D-05 Strict=F.
 There are   105 symmetry adapted cartesian basis functions of A1  symmetry.
 There are    20 symmetry adapted cartesian basis functions of A2  symmetry.
 There are    50 symmetry adapted cartesian basis functions of B1  symmetry.
 There are    50 symmetry adapted cartesian basis functions of B2  symmetry.
 There are    85 symmetry adapted basis functions of A1  symmetry.
 There are    20 symmetry adapted basis functions of A2  symmetry.
 There are    45 symmetry adapted basis functions of B1  symmetry.
 There are    45 symmetry adapted basis functions of B2  symmetry.
   195 basis functions,   290 primitive gaussians,   225 cartesian basis functions
    17 alpha electrons       16 beta electrons
       nuclear repulsion energy       107.2768304689 Hartrees.
 IExCor=  402 DFT=T Ex+Corr=B3LYP ExCW=0 ScaHFX=  0.200000
 ScaDFX=  0.800000  0.720000  1.000000  0.810000 ScalE2=  1.000000  1.000000
 IRadAn=      0 IRanWt=     -1 IRanGd=            0 ICorTp=0 IEmpDi=  4
 NAtoms=    5 NActive=    5 NUniq=    5 SFac= 1.00D+00 NAtFMM=   60 NAOKFM=F Big=F
 Integral buffers will be    131072 words long.
 Raffenetti 2 integral format.
 Two-electron integral symmetry is turned on.
 Leave Link  301 at Thu Mar  7 09:10:55 2019, MaxMem=    33554432 cpu:         0.7
 (Enter /home/proyectos/fulerenos/M3C-v2.0/M3C-deps_CCC/g09-AM64L-G09RevC.01/l302.exe)
 NPDir=0 NMtPBC=     1 NCelOv=     1 NCel=       1 NClECP=     1 NCelD=      1
         NCelK=      1 NCelE2=     1 NClLst=     1 CellRange=     0.0.
 One-electron integrals computed using PRISM.
 NBasis=   195 RedAO= T EigKep=  1.97D-06  NBF=    85    20    45    45
 NBsUse=   194 1.00D-06 EigRej=  6.93D-08 NBFU=    84    20    45    45
 Precomputing XC quadrature grid using
 IXCGrd= 4 IRadAn=           0 IRanWt=          -1 IRanGd=           0 AccXCQ= 0.00D+00.
 Generated NRdTot=       0 NPtTot=           0 NUsed=           0 NTot=          32
 NSgBfM=   225   225   225   225   225 MxSgAt=     5 MxSgA2=     5.
 Leave Link  302 at Thu Mar  7 09:10:55 2019, MaxMem=    33554432 cpu:         1.2
 (Enter /home/proyectos/fulerenos/M3C-v2.0/M3C-deps_CCC/g09-AM64L-G09RevC.01/l303.exe)
 DipDrv:  MaxL=1.
 Leave Link  303 at Thu Mar  7 09:10:56 2019, MaxMem=    33554432 cpu:         0.3
 (Enter /home/proyectos/fulerenos/M3C-v2.0/M3C-deps_CCC/g09-AM64L-G09RevC.01/l401.exe)
 ExpMin= 4.38D-02 ExpMax= 8.59D+03 ExpMxC= 1.30D+03 IAcc=2 IRadAn=         4 AccDes= 0.00D+00
 Harris functional with IExCor=  402 and IRadAn=       4 diagonalized for initial guess.
 HarFok:  IExCor=  402 AccDes= 0.00D+00 IRadAn=         4 IDoV= 1 UseB2=F ITyADJ=14
 ICtDFT=  3500011 ScaDFX=  1.000000  1.000000  1.000000  1.000000
 FoFCou: FMM=F IPFlag=           0 FMFlag=      100000 FMFlg1=           0
         NFxFlg=           0 DoJE=T BraDBF=F KetDBF=T FulRan=T
         wScrn=  0.000000 ICntrl=     500 IOpCl=  0 I1Cent=   200000004 NGrid=           0
         NMat0=    1 NMatS0=      1 NMatT0=    0 NMatD0=    1 NMtDS0=    0 NMtDT0=    0
 Petite list used in FoFCou.
 Harris En= -227.781150136712    
 JPrj=0 DoOrth=F DoCkMO=F.
 Initial guess orbital symmetries:
 Alpha Orbitals:
       Occupied  (SG) (SG) (SG) (SG) (SG) (SG) (SG) (SG) (SG) (SG)
                 (PI) (PI) (PI) (PI) (SG) (PI) (PI)
       Virtual   (PI) (PI) (SG) (SG) (PI) (PI) (SG) (PI) (PI) (SG)
                 (PI) (PI) (SG) (PI) (PI) (SG) (SG) (PI) (PI) (DLTA)
                 (DLTA) (SG) (SG) (SG) (PI) (PI) (DLTA) (DLTA)
                 (SG) (SG) (SG) (SG) (PI) (PI) (DLTA) (DLTA) (PI)
                 (PI) (PI) (PI) (PI) (PI) (SG) (DLTA) (DLTA) (PI)
                 (PI) (SG) (SG) (SG) (PI) (PI) (SG) (PI) (PI) (DLTA)
                 (DLTA) (SG) (PI) (PI) (SG) (SG) (PI) (PI) (SG)
                 (SG) (DLTA) (DLTA) (PI) (PI) (SG) (DLTA) (DLTA)
                 (SG) (PI) (PI) (DLTA) (DLTA) (SG) (PI) (PI) (DLTA)
                 (DLTA) (SG) (PI) (PI) (SG) (DLTA) (DLTA) (SG)
                 (PI) (PI) (PHI) (PHI) (PHI) (PHI) (PI) (PI) (SG)
                 (PI) (PI) (DLTA) (DLTA) (PI) (PI) (SG) (PHI) (PHI)
                 (PI) (PI) (SG) (PHI) (PHI) (PI) (PI) (DLTA) (DLTA)
                 (SG) (SG) (DLTA) (DLTA) (PI) (PI) (SG) (SG) (SG)
                 (DLTA) (DLTA) (PI) (PI) (SG) (PI) (PI) (PHI) (PHI)
                 (SG) (PI) (PI) (DLTA) (DLTA) (SG) (SG) (PI) (PI)
                 (DLTA) (DLTA) (DLTA) (DLTA) (DLTA) (DLTA) (DLTA)
                 (DLTA) (SG) (PI) (PI) (PI) (PI) (PI) (PI) (PI)
                 (PI) (SG) (PI) (PI) (SG) (SG) (SG) (DLTA) (DLTA)
                 (PI) (PI) (SG) (SG) (SG) (SG) (SG) (SG)
 Beta  Orbitals:
       Occupied  (SG) (SG) (SG) (SG) (SG) (SG) (SG) (SG) (SG) (SG)
                 (PI) (PI) (PI) (PI) (SG) (PI)
       Virtual   (PI) (PI) (PI) (SG) (SG) (PI) (PI) (SG) (PI) (PI)
                 (SG) (PI) (PI) (SG) (PI) (PI) (SG) (SG) (PI) (PI)
                 (DLTA) (DLTA) (SG) (SG) (SG) (PI) (PI) (DLTA)
                 (DLTA) (SG) (SG) (SG) (SG) (PI) (PI) (DLTA) (DLTA)
                 (PI) (PI) (PI) (PI) (PI) (PI) (SG) (DLTA) (DLTA)
                 (PI) (PI) (SG) (SG) (SG) (PI) (PI) (SG) (PI) (PI)
                 (DLTA) (DLTA) (SG) (PI) (PI) (SG) (SG) (PI) (PI)
                 (SG) (SG) (DLTA) (DLTA) (PI) (PI) (SG) (DLTA)
                 (DLTA) (SG) (PI) (PI) (DLTA) (DLTA) (SG) (PI)
                 (PI) (DLTA) (DLTA) (SG) (PI) (PI) (SG) (DLTA)
                 (DLTA) (SG) (PI) (PI) (PHI) (PHI) (PHI) (PHI)
                 (PI) (PI) (SG) (PI) (PI) (DLTA) (DLTA) (PI) (PI)
                 (SG) (PHI) (PHI) (PI) (PI) (SG) (PHI) (PHI) (PI)
                 (PI) (DLTA) (DLTA) (SG) (SG) (DLTA) (DLTA) (PI)
                 (PI) (SG) (SG) (SG) (DLTA) (DLTA) (PI) (PI) (SG)
                 (PI) (PI) (PHI) (PHI) (SG) (PI) (PI) (DLTA) (DLTA)
                 (SG) (SG) (PI) (PI) (DLTA) (DLTA) (DLTA) (DLTA)
                 (DLTA) (DLTA) (DLTA) (DLTA) (SG) (PI) (PI) (PI)
                 (PI) (PI) (PI) (PI) (PI) (SG) (PI) (PI) (SG) (SG)
                 (SG) (DLTA) (DLTA) (PI) (PI) (SG) (SG) (SG) (SG)
                 (SG) (SG)
 Initial guess <Sx>= 0.0000 <Sy>= 0.0000 <Sz>= 0.5000 <S**2>= 0.7500 S= 0.5000
 Leave Link  401 at Thu Mar  7 09:10:57 2019, MaxMem=    33554432 cpu:         1.7
 (Enter /home/proyectos/fulerenos/M3C-v2.0/M3C-deps_CCC/g09-AM64L-G09RevC.01/l502.exe)
 UHF open shell SCF:
 Using DIIS extrapolation, IDIIS=  1040.
 Integral symmetry usage will be decided dynamically.
 IVT=      173522 IEndB=      173522 NGot=    33554432 MDV=    33448401
 LenX=    33448401 LenY=    33397335
 Requested convergence on RMS density matrix=1.00D-08 within 128 cycles.
 Requested convergence on MAX density matrix=1.00D-06.
 Requested convergence on             energy=1.00D-06.
 No special actions if energy rises.
 Fock matrices will be formed incrementally for  20 cycles.

 Cycle   1  Pass 1  IDiag  1:
 FoFJK:  IHMeth= 1 ICntrl=       0 DoSepK=F KAlg= 0 I1Cent=   0 FoldK=F
 IRaf= 950000000 NMat=   1 IRICut=       1 DoRegI=T DoRafI=F ISym2E= 1.
 FoFCou: FMM=F IPFlag=           0 FMFlag=      100000 FMFlg1=           0
         NFxFlg=           0 DoJE=F BraDBF=F KetDBF=F FulRan=T
         wScrn=  0.000000 ICntrl=       0 IOpCl=  1 I1Cent=           0 NGrid=           0
         NMat0=    1 NMatS0=      1 NMatT0=    0 NMatD0=    1 NMtDS0=    0 NMtDT0=    0
 Petite list used in FoFCou.
 E= -227.443613448845    
 DIIS: error= 4.04D-02 at cycle   1 NSaved=   1.
 NSaved= 1 IEnMin= 1 EnMin= -227.443613448845     IErMin= 1 ErrMin= 4.04D-02
 ErrMax= 4.04D-02  0.00D+00 EMaxC= 1.00D-01 BMatC= 6.57D-01 BMatP= 6.57D-01
 IDIUse=3 WtCom= 5.96D-01 WtEn= 4.04D-01
 Coeff-Com:  0.100D+01
 Coeff-En:   0.100D+01
 Coeff:      0.100D+01
 Gap=     0.075 Goal=   None    Shift=    0.000
 Gap=     0.057 Goal=   None    Shift=    0.000
 GapD=    0.057 DampG=0.500 DampE=0.500 DampFc=0.2500 IDamp=-1.
 Damping current iteration by 2.50D-01
 RMSDP=1.52D-01 MaxDP=8.78D+00              OVMax= 4.15D-01

 Cycle   2  Pass 1  IDiag  1:
 RMSU=  3.70D-02    CP:  1.24D+00
 E= -227.498971287351     Delta-E=       -0.055357838506 Rises=F Damp=T
 DIIS: error= 2.18D-02 at cycle   2 NSaved=   2.
 NSaved= 2 IEnMin= 2 EnMin= -227.498971287351     IErMin= 2 ErrMin= 2.18D-02
 ErrMax= 2.18D-02  0.00D+00 EMaxC= 1.00D-01 BMatC= 1.65D-01 BMatP= 6.57D-01
 IDIUse=3 WtCom= 7.82D-01 WtEn= 2.18D-01
 Coeff-Com: -0.628D+00 0.163D+01
 Coeff-En:   0.000D+00 0.100D+01
 Coeff:     -0.491D+00 0.149D+01
 Gap=     0.180 Goal=   None    Shift=    0.000
 Gap=     0.081 Goal=   None    Shift=    0.000
 RMSDP=4.21D-02 MaxDP=2.30D+00 DE=-5.54D-02 OVMax= 3.97D-01

 Cycle   3  Pass 1  IDiag  1:
 RMSU=  7.57D-03    CP:  7.32D-01 -1.09D-02
 E= -227.545148944836     Delta-E=       -0.046177657485 Rises=F Damp=F
 DIIS: error= 3.58D-02 at cycle   3 NSaved=   3.
 NSaved= 3 IEnMin= 3 EnMin= -227.545148944836     IErMin= 2 ErrMin= 2.18D-02
 ErrMax= 3.58D-02  0.00D+00 EMaxC= 1.00D-01 BMatC= 2.26D-01 BMatP= 1.65D-01
 IDIUse=2 WtCom= 0.00D+00 WtEn= 1.00D+00
 Coeff-En:   0.000D+00 0.192D+00 0.808D+00
 Coeff:      0.000D+00 0.192D+00 0.808D+00
 Gap=     0.117 Goal=   None    Shift=    0.000
 Gap=     0.020 Goal=   None    Shift=    0.000
 RMSDP=1.66D-02 MaxDP=8.15D-01 DE=-4.62D-02 OVMax= 4.81D-01

 Cycle   4  Pass 1  IDiag  1:
 RMSU=  1.22D-02    CP:  5.79D-01  2.10D-01  2.48D-01
 E= -227.233727637004     Delta-E=        0.311421307832 Rises=F Damp=F
 DIIS: error= 6.25D-02 at cycle   4 NSaved=   4.
 NSaved= 4 IEnMin= 3 EnMin= -227.545148944836     IErMin= 2 ErrMin= 2.18D-02
 ErrMax= 6.25D-02  0.00D+00 EMaxC= 1.00D-01 BMatC= 1.22D+00 BMatP= 1.65D-01
 IDIUse=2 WtCom= 0.00D+00 WtEn= 1.00D+00
 Coeff-En:   0.000D+00 0.000D+00 0.776D+00 0.224D+00
 Coeff:      0.000D+00 0.000D+00 0.776D+00 0.224D+00
 Gap=     0.175 Goal=   None    Shift=    0.000
 Gap=     0.060 Goal=   None    Shift=    0.000
 RMSDP=1.67D-02 MaxDP=8.31D-01 DE= 3.11D-01 OVMax= 2.50D-01

 Cycle   5  Pass 1  IDiag  1:
 RMSU=  3.07D-03    CP:  7.58D-01  9.47D-03  8.81D-01 -8.14D-03
 E= -227.584171364699     Delta-E=       -0.350443727694 Rises=F Damp=F
 DIIS: error= 2.02D-02 at cycle   5 NSaved=   5.
 NSaved= 5 IEnMin= 5 EnMin= -227.584171364699     IErMin= 5 ErrMin= 2.02D-02
 ErrMax= 2.02D-02  0.00D+00 EMaxC= 1.00D-01 BMatC= 9.99D-02 BMatP= 1.65D-01
 IDIUse=3 WtCom= 7.98D-01 WtEn= 2.02D-01
 Coeff-Com: -0.162D+00 0.277D+00 0.312D+00-0.957D-01 0.668D+00
 Coeff-En:   0.000D+00 0.000D+00 0.354D+00 0.000D+00 0.646D+00
 Coeff:     -0.129D+00 0.221D+00 0.320D+00-0.764D-01 0.664D+00
 Gap=     0.175 Goal=   None    Shift=    0.000
 Gap=     0.064 Goal=   None    Shift=    0.000
 RMSDP=2.39D-03 MaxDP=1.15D-01 DE=-3.50D-01 OVMax= 1.08D-01

 Cycle   6  Pass 1  IDiag  1:
 RMSU=  4.50D-04    CP:  7.90D-01  8.78D-03  1.00D+00 -1.56D-01  8.74D-01
 E= -227.612666924415     Delta-E=       -0.028495559716 Rises=F Damp=F
 DIIS: error= 2.85D-03 at cycle   6 NSaved=   6.
 NSaved= 6 IEnMin= 6 EnMin= -227.612666924415     IErMin= 6 ErrMin= 2.85D-03
 ErrMax= 2.85D-03  0.00D+00 EMaxC= 1.00D-01 BMatC= 2.33D-03 BMatP= 9.99D-02
 IDIUse=3 WtCom= 9.72D-01 WtEn= 2.85D-02
 Coeff-Com: -0.836D-01 0.121D+00 0.165D+00-0.738D-01 0.458D+00 0.414D+00
 Coeff-En:   0.000D+00 0.000D+00 0.000D+00 0.000D+00 0.000D+00 0.100D+01
 Coeff:     -0.812D-01 0.118D+00 0.160D+00-0.717D-01 0.445D+00 0.430D+00
 Gap=     0.171 Goal=   None    Shift=    0.000
 Gap=     0.062 Goal=   None    Shift=    0.000
 RMSDP=3.23D-04 MaxDP=2.25D-02 DE=-2.85D-02 OVMax= 1.59D-02

 Cycle   7  Pass 1  IDiag  1:
 RMSU=  1.55D-04    CP:  7.89D-01  1.00D-02  1.01D+00 -1.59D-01  9.39D-01
                    CP:  6.22D-01
 E= -227.613212380511     Delta-E=       -0.000545456096 Rises=F Damp=F
 DIIS: error= 1.22D-03 at cycle   7 NSaved=   7.
 NSaved= 7 IEnMin= 7 EnMin= -227.613212380511     IErMin= 7 ErrMin= 1.22D-03
 ErrMax= 1.22D-03  0.00D+00 EMaxC= 1.00D-01 BMatC= 2.61D-04 BMatP= 2.33D-03
 IDIUse=3 WtCom= 9.88D-01 WtEn= 1.22D-02
 Coeff-Com: -0.149D-02-0.751D-02 0.248D-01-0.137D-01 0.790D-01 0.246D+00
 Coeff-Com:  0.673D+00
 Coeff-En:   0.000D+00 0.000D+00 0.000D+00 0.000D+00 0.000D+00 0.124D+00
 Coeff-En:   0.876D+00
 Coeff:     -0.147D-02-0.742D-02 0.245D-01-0.136D-01 0.781D-01 0.244D+00
 Coeff:      0.676D+00
 Gap=     0.171 Goal=   None    Shift=    0.000
 Gap=     0.063 Goal=   None    Shift=    0.000
 RMSDP=6.14D-04 MaxDP=3.72D-02 DE=-5.45D-04 OVMax= 4.82D-03

 Cycle   8  Pass 1  IDiag  1:
 RMSU=  9.32D-05    CP:  7.99D-01  1.17D-02  1.04D+00 -1.95D-01  9.92D-01
                    CP:  7.83D-01  1.26D+00
 E= -227.613290583400     Delta-E=       -0.000078202889 Rises=F Damp=F
 DIIS: error= 3.16D-04 at cycle   8 NSaved=   8.
 NSaved= 8 IEnMin= 8 EnMin= -227.613290583400     IErMin= 8 ErrMin= 3.16D-04
 ErrMax= 3.16D-04  0.00D+00 EMaxC= 1.00D-01 BMatC= 3.70D-05 BMatP= 2.61D-04
 IDIUse=3 WtCom= 9.97D-01 WtEn= 3.16D-03
 Coeff-Com:  0.772D-02-0.119D-01-0.143D-01 0.425D-02-0.405D-01 0.534D-01
 Coeff-Com:  0.390D+00 0.611D+00
 Coeff-En:   0.000D+00 0.000D+00 0.000D+00 0.000D+00 0.000D+00 0.000D+00
 Coeff-En:   0.000D+00 0.100D+01
 Coeff:      0.769D-02-0.119D-01-0.142D-01 0.423D-02-0.404D-01 0.533D-01
 Coeff:      0.389D+00 0.613D+00
 Gap=     0.171 Goal=   None    Shift=    0.000
 Gap=     0.063 Goal=   None    Shift=    0.000
 RMSDP=1.10D-04 MaxDP=7.94D-03 DE=-7.82D-05 OVMax= 2.41D-03

 Cycle   9  Pass 1  IDiag  1:
 RMSU=  3.64D-05    CP:  8.00D-01  1.21D-02  1.04D+00 -2.00D-01  1.00D+00
                    CP:  7.82D-01  1.40D+00  1.03D+00
 E= -227.613300648839     Delta-E=       -0.000010065439 Rises=F Damp=F
 DIIS: error= 1.14D-04 at cycle   9 NSaved=   9.
 NSaved= 9 IEnMin= 9 EnMin= -227.613300648839     IErMin= 9 ErrMin= 1.14D-04
 ErrMax= 1.14D-04  0.00D+00 EMaxC= 1.00D-01 BMatC= 2.48D-06 BMatP= 3.70D-05
 IDIUse=3 WtCom= 9.99D-01 WtEn= 1.14D-03
 Coeff-Com:  0.976D-03-0.178D-03-0.700D-02 0.219D-02-0.159D-01-0.237D-01
 Coeff-Com: -0.177D-01 0.124D+00 0.937D+00
 Coeff-En:   0.000D+00 0.000D+00 0.000D+00 0.000D+00 0.000D+00 0.000D+00
 Coeff-En:   0.000D+00 0.000D+00 0.100D+01
 Coeff:      0.975D-03-0.178D-03-0.700D-02 0.219D-02-0.159D-01-0.237D-01
 Coeff:     -0.177D-01 0.124D+00 0.937D+00
 Gap=     0.171 Goal=   None    Shift=    0.000
 Gap=     0.063 Goal=   None    Shift=    0.000
 RMSDP=3.27D-05 MaxDP=1.53D-03 DE=-1.01D-05 OVMax= 1.09D-03

 Cycle  10  Pass 1  IDiag  1:
 RMSU=  2.00D-05    CP:  8.00D-01  1.21D-02  1.04D+00 -1.99D-01  1.01D+00
                    CP:  7.75D-01  1.44D+00  1.15D+00  1.49D+00
 E= -227.613302026905     Delta-E=       -0.000001378066 Rises=F Damp=F
 DIIS: error= 5.48D-05 at cycle  10 NSaved=  10.
 NSaved=10 IEnMin=10 EnMin= -227.613302026905     IErMin=10 ErrMin= 5.48D-05
 ErrMax= 5.48D-05  0.00D+00 EMaxC= 1.00D-01 BMatC= 1.08D-06 BMatP= 2.48D-06
 IDIUse=1 WtCom= 1.00D+00 WtEn= 0.00D+00
 Coeff-Com:  0.562D-03-0.102D-02-0.125D-02 0.680D-03-0.232D-03-0.196D-01
 Coeff-Com: -0.781D-01-0.381D-01 0.488D+00 0.649D+00
 Coeff:      0.562D-03-0.102D-02-0.125D-02 0.680D-03-0.232D-03-0.196D-01
 Coeff:     -0.781D-01-0.381D-01 0.488D+00 0.649D+00
 Gap=     0.171 Goal=   None    Shift=    0.000
 Gap=     0.063 Goal=   None    Shift=    0.000
 RMSDP=1.71D-05 MaxDP=1.07D-03 DE=-1.38D-06 OVMax= 4.70D-04

 Cycle  11  Pass 1  IDiag  1:
 RMSU=  4.89D-06    CP:  8.00D-01  1.21D-02  1.04D+00 -1.99D-01  1.01D+00
                    CP:  7.72D-01  1.47D+00  1.23D+00  1.80D+00  1.31D+00
 E= -227.613302419210     Delta-E=       -0.000000392306 Rises=F Damp=F
 DIIS: error= 2.11D-05 at cycle  11 NSaved=  11.
 NSaved=11 IEnMin=11 EnMin= -227.613302419210     IErMin=11 ErrMin= 2.11D-05
 ErrMax= 2.11D-05  0.00D+00 EMaxC= 1.00D-01 BMatC= 1.24D-07 BMatP= 1.08D-06
 IDIUse=1 WtCom= 1.00D+00 WtEn= 0.00D+00
 Coeff-Com: -0.509D-03 0.734D-03 0.123D-02-0.353D-03 0.256D-02-0.133D-02
 Coeff-Com: -0.114D-01-0.348D-01-0.900D-01 0.176D+00 0.958D+00
 Coeff:     -0.509D-03 0.734D-03 0.123D-02-0.353D-03 0.256D-02-0.133D-02
 Coeff:     -0.114D-01-0.348D-01-0.900D-01 0.176D+00 0.958D+00
 Gap=     0.171 Goal=   None    Shift=    0.000
 Gap=     0.063 Goal=   None    Shift=    0.000
 RMSDP=1.91D-05 MaxDP=1.49D-03 DE=-3.92D-07 OVMax= 2.42D-04

 Cycle  12  Pass 1  IDiag  1:
 RMSU=  2.13D-06    CP:  8.00D-01  1.20D-02  1.04D+00 -1.98D-01  1.01D+00
                    CP:  7.68D-01  1.47D+00  1.25D+00  2.01D+00  1.64D+00
                    CP:  1.34D+00
 E= -227.613302514231     Delta-E=       -0.000000095020 Rises=F Damp=F
 DIIS: error= 7.78D-06 at cycle  12 NSaved=  12.
 NSaved=12 IEnMin=12 EnMin= -227.613302514231     IErMin=12 ErrMin= 7.78D-06
 ErrMax= 7.78D-06  0.00D+00 EMaxC= 1.00D-01 BMatC= 1.12D-08 BMatP= 1.24D-07
 IDIUse=1 WtCom= 1.00D+00 WtEn= 0.00D+00
 Coeff-Com:  0.199D-03-0.299D-03-0.188D-03 0.446D-04-0.767D-03 0.342D-02
 Coeff-Com:  0.152D-01 0.162D-01-0.486D-01-0.159D+00-0.236D+00 0.141D+01
 Coeff:      0.199D-03-0.299D-03-0.188D-03 0.446D-04-0.767D-03 0.342D-02
 Coeff:      0.152D-01 0.162D-01-0.486D-01-0.159D+00-0.236D+00 0.141D+01
 Gap=     0.171 Goal=   None    Shift=    0.000
 Gap=     0.063 Goal=   None    Shift=    0.000
 RMSDP=7.64D-06 MaxDP=5.48D-04 DE=-9.50D-08 OVMax= 2.20D-04

 Cycle  13  Pass 1  IDiag  1:
 RMSU=  1.03D-06    CP:  8.00D-01  1.20D-02  1.04D+00 -1.98D-01  1.01D+00
                    CP:  7.66D-01  1.47D+00  1.27D+00  2.12D+00  1.80D+00
                    CP:  1.59D+00  1.54D+00
 E= -227.613302537457     Delta-E=       -0.000000023226 Rises=F Damp=F
 DIIS: error= 3.89D-06 at cycle  13 NSaved=  13.
 NSaved=13 IEnMin=13 EnMin= -227.613302537457     IErMin=13 ErrMin= 3.89D-06
 ErrMax= 3.89D-06  0.00D+00 EMaxC= 1.00D-01 BMatC= 1.66D-09 BMatP= 1.12D-08
 IDIUse=1 WtCom= 1.00D+00 WtEn= 0.00D+00
 Coeff-Com: -0.231D-04 0.454D-04-0.130D-03 0.205D-04-0.656D-04-0.488D-03
 Coeff-Com: -0.232D-02-0.762D-03 0.226D-01 0.238D-01-0.623D-01-0.428D+00
 Coeff-Com:  0.145D+01
 Coeff:     -0.231D-04 0.454D-04-0.130D-03 0.205D-04-0.656D-04-0.488D-03
 Coeff:     -0.232D-02-0.762D-03 0.226D-01 0.238D-01-0.623D-01-0.428D+00
 Coeff:      0.145D+01
 Gap=     0.171 Goal=   None    Shift=    0.000
 Gap=     0.063 Goal=   None    Shift=    0.000
 RMSDP=2.39D-06 MaxDP=1.74D-04 DE=-2.32D-08 OVMax= 1.07D-04

 Cycle  14  Pass 1  IDiag  1:
 RMSU=  3.98D-07    CP:  8.00D-01  1.20D-02  1.04D+00 -1.98D-01  1.01D+00
                    CP:  7.65D-01  1.47D+00  1.28D+00  2.15D+00  1.85D+00
                    CP:  1.67D+00  1.71D+00  1.47D+00
 E= -227.613302540934     Delta-E=       -0.000000003478 Rises=F Damp=F
 DIIS: error= 1.07D-06 at cycle  14 NSaved=  14.
 NSaved=14 IEnMin=14 EnMin= -227.613302540934     IErMin=14 ErrMin= 1.07D-06
 ErrMax= 1.07D-06  0.00D+00 EMaxC= 1.00D-01 BMatC= 1.65D-10 BMatP= 1.66D-09
 IDIUse=1 WtCom= 1.00D+00 WtEn= 0.00D+00
 Coeff-Com: -0.140D-04 0.153D-04 0.116D-04 0.326D-05 0.328D-04-0.424D-03
 Coeff-Com: -0.179D-02-0.122D-02 0.498D-02 0.205D-01 0.214D-01-0.146D+00
 Coeff-Com: -0.538D-01 0.116D+01
 Coeff:     -0.140D-04 0.153D-04 0.116D-04 0.326D-05 0.328D-04-0.424D-03
 Coeff:     -0.179D-02-0.122D-02 0.498D-02 0.205D-01 0.214D-01-0.146D+00
 Coeff:     -0.538D-01 0.116D+01
 Gap=     0.171 Goal=   None    Shift=    0.000
 Gap=     0.063 Goal=   None    Shift=    0.000
 RMSDP=6.68D-07 MaxDP=4.78D-05 DE=-3.48D-09 OVMax= 2.58D-05

 Cycle  15  Pass 1  IDiag  1:
 RMSU=  7.20D-08    CP:  8.00D-01  1.20D-02  1.04D+00 -1.98D-01  1.01D+00
                    CP:  7.65D-01  1.47D+00  1.28D+00  2.16D+00  1.86D+00
                    CP:  1.68D+00  1.76D+00  1.58D+00  1.31D+00
 E= -227.613302541156     Delta-E=       -0.000000000222 Rises=F Damp=F
 DIIS: error= 3.02D-07 at cycle  15 NSaved=  15.
 NSaved=15 IEnMin=15 EnMin= -227.613302541156     IErMin=15 ErrMin= 3.02D-07
 ErrMax= 3.02D-07  0.00D+00 EMaxC= 1.00D-01 BMatC= 1.61D-11 BMatP= 1.65D-10
 IDIUse=1 WtCom= 1.00D+00 WtEn= 0.00D+00
 Coeff-Com:  0.900D-06-0.498D-06 0.836D-05-0.189D-05 0.364D-05 0.536D-04
 Coeff-Com:  0.414D-03 0.342D-03-0.245D-02-0.464D-02 0.284D-02 0.538D-01
 Coeff-Com: -0.119D+00-0.121D+00 0.119D+01
 Coeff:      0.900D-06-0.498D-06 0.836D-05-0.189D-05 0.364D-05 0.536D-04
 Coeff:      0.414D-03 0.342D-03-0.245D-02-0.464D-02 0.284D-02 0.538D-01
 Coeff:     -0.119D+00-0.121D+00 0.119D+01
 Gap=     0.171 Goal=   None    Shift=    0.000
 Gap=     0.063 Goal=   None    Shift=    0.000
 RMSDP=2.42D-07 MaxDP=1.71D-05 DE=-2.22D-10 OVMax= 4.88D-06

 Cycle  16  Pass 1  IDiag  1:
 RMSU=  2.06D-08    CP:  8.00D-01  1.20D-02  1.04D+00 -1.98D-01  1.01D+00
                    CP:  7.65D-01  1.47D+00  1.28D+00  2.16D+00  1.86D+00
                    CP:  1.68D+00  1.76D+00  1.59D+00  1.36D+00  1.24D+00
 E= -227.613302541168     Delta-E=       -0.000000000013 Rises=F Damp=F
 DIIS: error= 6.11D-08 at cycle  16 NSaved=  16.
 NSaved=16 IEnMin=16 EnMin= -227.613302541168     IErMin=16 ErrMin= 6.11D-08
 ErrMax= 6.11D-08  0.00D+00 EMaxC= 1.00D-01 BMatC= 8.32D-13 BMatP= 1.61D-11
 IDIUse=1 WtCom= 1.00D+00 WtEn= 0.00D+00
 Coeff-Com:  0.257D-05-0.362D-05-0.929D-06-0.426D-07-0.253D-05 0.334D-04
 Coeff-Com:  0.102D-03 0.811D-04-0.296D-03-0.119D-02-0.153D-02 0.770D-02
 Coeff-Com:  0.107D-01-0.798D-01-0.657D-01 0.113D+01
 Coeff:      0.257D-05-0.362D-05-0.929D-06-0.426D-07-0.253D-05 0.334D-04
 Coeff:      0.102D-03 0.811D-04-0.296D-03-0.119D-02-0.153D-02 0.770D-02
 Coeff:      0.107D-01-0.798D-01-0.657D-01 0.113D+01
 Gap=     0.171 Goal=   None    Shift=    0.000
 Gap=     0.063 Goal=   None    Shift=    0.000
 RMSDP=3.21D-08 MaxDP=2.12D-06 DE=-1.26D-11 OVMax= 8.46D-07

 Cycle  17  Pass 1  IDiag  1:
 RMSU=  3.63D-09    CP:  8.00D-01  1.20D-02  1.04D+00 -1.98D-01  1.01D+00
                    CP:  7.65D-01  1.47D+00  1.28D+00  2.16D+00  1.86D+00
                    CP:  1.68D+00  1.76D+00  1.60D+00  1.36D+00  1.27D+00
                    CP:  1.23D+00
 E= -227.613302541170     Delta-E=       -0.000000000002 Rises=F Damp=F
 DIIS: error= 1.21D-08 at cycle  17 NSaved=  17.
 NSaved=17 IEnMin=17 EnMin= -227.613302541170     IErMin=17 ErrMin= 1.21D-08
 ErrMax= 1.21D-08  0.00D+00 EMaxC= 1.00D-01 BMatC= 4.24D-14 BMatP= 8.32D-13
 IDIUse=1 WtCom= 1.00D+00 WtEn= 0.00D+00
 Coeff-Com: -0.123D-07 0.978D-07-0.310D-06 0.669D-07-0.547D-06-0.899D-06
 Coeff-Com: -0.137D-04-0.232D-04 0.912D-04 0.200D-03-0.133D-03-0.215D-02
 Coeff-Com:  0.520D-02 0.302D-02-0.553D-01 0.318D-01 0.102D+01
 Coeff:     -0.123D-07 0.978D-07-0.310D-06 0.669D-07-0.547D-06-0.899D-06
 Coeff:     -0.137D-04-0.232D-04 0.912D-04 0.200D-03-0.133D-03-0.215D-02
 Coeff:      0.520D-02 0.302D-02-0.553D-01 0.318D-01 0.102D+01
 Gap=     0.171 Goal=   None    Shift=    0.000
 Gap=     0.063 Goal=   None    Shift=    0.000
 RMSDP=3.73D-09 MaxDP=2.66D-07 DE=-1.71D-12 OVMax= 1.22D-07

 SCF Done:  E(UB3LYP) =  -227.613302541     A.U. after   17 cycles
            NFock= 17  Conv=0.37D-08     -V/T= 2.0041
 <Sx>= 0.0000 <Sy>= 0.0000 <Sz>= 0.5000 <S**2>= 0.7593 S= 0.5046
 <L.S>= 0.000000000000E+00
 KE= 2.266791473979D+02 PE=-7.529698066650D+02 EE= 1.914005262571D+02
 Annihilation of the first spin contaminant:
 S**2 before annihilation     0.7593,   after     0.7500
 Leave Link  502 at Thu Mar  7 09:14:39 2019, MaxMem=    33554432 cpu:       444.6
 (Enter /home/proyectos/fulerenos/M3C-v2.0/M3C-deps_CCC/g09-AM64L-G09RevC.01/l801.exe)
 DoSCS=F DFT=T ScalE2(SS,OS)=  1.000000  1.000000
 Range of M.O.s used for correlation:     1   194
 NBasis=   195 NAE=    17 NBE=    16 NFC=     0 NFV=     0
 NROrb=    194 NOA=    17 NOB=    16 NVA=   177 NVB=   178

 **** Warning!!: The largest alpha MO coefficient is  0.24052565D+03


 **** Warning!!: The largest beta MO coefficient is  0.23732930D+03


 **** Warning!!: The smallest beta delta epsilon is  0.62980250D-01

 Leave Link  801 at Thu Mar  7 09:14:39 2019, MaxMem=    33554432 cpu:         0.1
 (Enter /home/proyectos/fulerenos/M3C-v2.0/M3C-deps_CCC/g09-AM64L-G09RevC.01/l1101.exe)
 Using compressed storage, NAtomX=     5.
 Will process      6 centers per pass.
 Leave Link 1101 at Thu Mar  7 09:14:40 2019, MaxMem=    33554432 cpu:         1.0
 (Enter /home/proyectos/fulerenos/M3C-v2.0/M3C-deps_CCC/g09-AM64L-G09RevC.01/l1102.exe)
 Symmetrizing basis deriv contribution to polar:
 IMax=3 JMax=2 DiffMx= 0.00D+00
 Leave Link 1102 at Thu Mar  7 09:14:40 2019, MaxMem=    33554432 cpu:         0.1
 (Enter /home/proyectos/fulerenos/M3C-v2.0/M3C-deps_CCC/g09-AM64L-G09RevC.01/l1110.exe)
 Forming Gx(P) for the SCF density, NAtomX=     5.
 Integral derivatives from FoFJK, PRISM(SPDF).
 Do as many integral derivatives as possible in FoFJK.
 G2DrvN: MDV=      33554288.
 G2DrvN: will do     6 centers at a time, making    1 passes.
 Calling FoFCou, ICntrl=  3107 FMM=F I1Cent=   0 AccDes= 0.00D+00.
 FoFJK:  IHMeth= 1 ICntrl=    3107 DoSepK=F KAlg= 0 I1Cent=   0 FoldK=F
 IRaf=         0 NMat=   1 IRICut=       1 DoRegI=T DoRafI=F ISym2E= 1.
 FoFCou: FMM=F IPFlag=           0 FMFlag=      100000 FMFlg1=           0
         NFxFlg=           0 DoJE=F BraDBF=F KetDBF=F FulRan=T
         wScrn=  0.000000 ICntrl=    3107 IOpCl=  1 I1Cent=           0 NGrid=           0
         NMat0=    1 NMatS0=      1 NMatT0=    0 NMatD0=    1 NMtDS0=    0 NMtDT0=    0
 Petite list used in FoFCou.
 End of G2Drv F.D. properties file   721 does not exist.
 End of G2Drv F.D. properties file   722 does not exist.
 End of G2Drv F.D. properties file   788 does not exist.
 Leave Link 1110 at Thu Mar  7 09:16:11 2019, MaxMem=    33554432 cpu:       181.3
 (Enter /home/proyectos/fulerenos/M3C-v2.0/M3C-deps_CCC/g09-AM64L-G09RevC.01/l1002.exe)
 Minotr:  UHF open shell wavefunction.
          IDoAtm=11111
          Direct CPHF calculation.
          Differentiating once with respect to electric field.
                with respect to dipole field.
          Differentiating once with respect to nuclear coordinates.
          Using symmetry in CPHF.
          Requested convergence is 1.0D-08 RMS, and 1.0D-07 maximum.
          Secondary convergence is 1.0D-12 RMS, and 1.0D-12 maximum.
          NewPWx=T KeepS1=F KeepF1=F KeepIn=T MapXYZ=F SortEE=F KeepMc=T.
          MDV=      33553990 using IRadAn=       2.
 Generate precomputed XC quadrature information.
          Solving linear equations simultaneously, MaxMat=       0.
 FoFJK:  IHMeth= 1 ICntrl=       0 DoSepK=F KAlg= 0 I1Cent=   0 FoldK=F
 IRaf= 950000000 NMat=  18 IRICut=      45 DoRegI=T DoRafI=T ISym2E= 2.
 FoFCou: FMM=F IPFlag=           0 FMFlag=      100000 FMFlg1=           0
         NFxFlg=           0 DoJE=F BraDBF=F KetDBF=F FulRan=T
         wScrn=  0.000000 ICntrl=       0 IOpCl=  1 I1Cent=           0 NGrid=           0
         NMat0=   18 NMatS0=     18 NMatT0=    0 NMatD0=   18 NMtDS0=    0 NMtDT0=    0
 Integrals replicated using symmetry in FoFCou.
          There are    18 degrees of freedom in the 1st order CPHF.  IDoFFX=6 NUNeed=     3.
     15 vectors produced by pass  0 Test12= 3.25D-14 5.56D-09 XBig12= 6.28D+02 1.43D+01.
 AX will form    15 AO Fock derivatives at one time.
     15 vectors produced by pass  1 Test12= 3.25D-14 5.56D-09 XBig12= 4.70D+02 7.25D+00.
     15 vectors produced by pass  2 Test12= 3.25D-14 5.56D-09 XBig12= 2.33D+01 1.37D+00.
     15 vectors produced by pass  3 Test12= 3.25D-14 5.56D-09 XBig12= 1.07D+00 3.49D-01.
     15 vectors produced by pass  4 Test12= 3.25D-14 5.56D-09 XBig12= 2.91D-02 5.52D-02.
     15 vectors produced by pass  5 Test12= 3.25D-14 5.56D-09 XBig12= 1.46D-03 1.73D-02.
     15 vectors produced by pass  6 Test12= 3.25D-14 5.56D-09 XBig12= 1.98D-05 1.27D-03.
     11 vectors produced by pass  7 Test12= 3.25D-14 5.56D-09 XBig12= 1.52D-07 9.37D-05.
      7 vectors produced by pass  8 Test12= 3.25D-14 5.56D-09 XBig12= 7.92D-10 4.29D-06.
      4 vectors produced by pass  9 Test12= 3.25D-14 5.56D-09 XBig12= 1.25D-11 1.13D-06.
      4 vectors produced by pass 10 Test12= 3.25D-14 5.56D-09 XBig12= 3.10D-12 5.00D-07.
      2 vectors produced by pass 11 Test12= 3.25D-14 5.56D-09 XBig12= 1.09D-12 2.38D-07.
      1 vectors produced by pass 12 Test12= 3.25D-14 5.56D-09 XBig12= 1.10D-13 6.17D-08.
 InvSVY:  IOpt=1 It=  1 EMax= 6.66D-16
 Solved reduced A of dimension   134 with    15 vectors.
 FullF1:  Do perturbations    1 to     3.
 Isotropic polarizability for W=    0.000000       73.83 Bohr**3.
 End of Minotr F.D. properties file   721 does not exist.
 End of Minotr F.D. properties file   722 does not exist.
 End of Minotr F.D. properties file   788 does not exist.
 Leave Link 1002 at Thu Mar  7 09:21:23 2019, MaxMem=    33554432 cpu:       624.5
 (Enter /home/proyectos/fulerenos/M3C-v2.0/M3C-deps_CCC/g09-AM64L-G09RevC.01/l601.exe)
 Copying SCF densities to generalized density rwf, IOpCl= 1 IROHF=0.

 **********************************************************************

            Population analysis using the SCF density.

 **********************************************************************

 Orbital symmetries:
 Alpha Orbitals:
       Occupied  (SG) (SG) (SG) (SG) (SG) (SG) (SG) (SG) (SG) (SG)
                 (PI) (PI) (PI) (PI) (SG) (PI) (PI)
       Virtual   (SG) (?A) (SG) (?A) (SG) (?A) (?A) (?A) (?A) (SG)
                 (PI) (PI) (SG) (PI) (PI) (SG) (SG) (PI) (PI) (PI)
                 (?B) (PI) (?B) (?B) (?B) (?B) (?C) (?C) (?C) (SG)
                 (?D) (?D) (?D) (?D) (PI) (PI) (PI) (PI) (PI) (PI)
                 (PI) (PI) (?D) (?D) (?D) (?D) (PI) (PI) (SG) (SG)
                 (PI) (PI) (PI) (PI) (DLTA) (DLTA) (SG) (SG) (PI)
                 (PI) (SG) (PI) (PI) (SG) (SG) (SG) (DLTA) (DLTA)
                 (PI) (PI) (SG) (DLTA) (DLTA) (SG) (PI) (PI) (DLTA)
                 (DLTA) (SG) (PI) (PI) (DLTA) (DLTA) (SG) (PI)
                 (PI) (SG) (DLTA) (DLTA) (?E) (?E) (SG) (?E) (?E)
                 (PHI) (PHI) (PI) (PI) (SG) (?F) (?F) (DLTA) (DLTA)
                 (?F) (?F) (?F) (?F) (SG) (?E) (?E) (?E) (?E) (SG)
                 (PI) (PI) (DLTA) (DLTA) (SG) (?G) (?G) (?G) (PI)
                 (PI) (SG) (?D) (?D) (?D) (?D) (PI) (PI) (SG) (?E)
                 (?E) (?E) (?E) (SG) (PI) (PI) (DLTA) (DLTA) (SG)
                 (PI) (PI) (SG) (DLTA) (DLTA) (DLTA) (DLTA) (DLTA)
                 (DLTA) (PI) (PI) (?H) (?H) (?H) (PI) (PI) (?I)
                 (?I) (?I) (?I) (SG) (PI) (PI) (SG) (SG) (SG) (DLTA)
                 (DLTA) (PI) (PI) (SG) (SG) (SG) (SG) (SG) (SG)
 Beta  Orbitals:
       Occupied  (SG) (SG) (SG) (SG) (SG) (SG) (SG) (SG) (SG) (SG)
                 (PI) (PI) (PI) (PI) (SG) (PI)
       Virtual   (PI) (SG) (SG) (?A) (SG) (?A) (?A) (?A) (?A) (SG)
                 (?A) (?A) (?A) (SG) (PI) (PI) (SG) (SG) (?B) (?B)
                 (SG) (?B) (?B) (?C) (?C) (?C) (?C) (?D) (?D) (?D)
                 (SG) (?C) (?C) (?C) (?C) (PI) (PI) (PI) (PI) (PI)
                 (PI) (PI) (PI) (?C) (?C) (?C) (?C) (PI) (PI) (SG)
                 (SG) (PI) (PI) (PI) (PI) (DLTA) (DLTA) (SG) (SG)
                 (PI) (PI) (SG) (PI) (PI) (SG) (SG) (SG) (DLTA)
                 (DLTA) (PI) (PI) (SG) (DLTA) (DLTA) (SG) (PI)
                 (PI) (DLTA) (DLTA) (SG) (PI) (PI) (DLTA) (DLTA)
                 (SG) (PI) (PI) (SG) (DLTA) (DLTA) (PHI) (PHI)
                 (SG) (PI) (PI) (PHI) (PHI) (PI) (PI) (SG) (PI)
                 (PI) (DLTA) (DLTA) (PHI) (PHI) (PI) (PI) (SG)
                 (PI) (PI) (PHI) (PHI) (SG) (PI) (PI) (DLTA) (DLTA)
                 (SG) (?E) (?E) (?E) (PI) (PI) (SG) (SG) (SG) (DLTA)
                 (DLTA) (PI) (PI) (SG) (PHI) (PHI) (PI) (PI) (SG)
                 (PI) (PI) (DLTA) (DLTA) (SG) (PI) (PI) (SG) (DLTA)
                 (DLTA) (DLTA) (DLTA) (DLTA) (DLTA) (PI) (PI) (?F)
                 (?F) (?F) (PI) (PI) (?B) (?B) (?B) (?B) (SG) (PI)
                 (PI) (SG) (SG) (SG) (DLTA) (DLTA) (PI) (PI) (SG)
                 (SG) (SG) (SG) (SG) (SG)
 Unable to determine electronic state:  partially filled degenerate orbitals.
 Alpha  occ. eigenvalues --  -18.99482 -10.09547 -10.02254  -9.99941  -9.98647
 Alpha  occ. eigenvalues --   -0.91314  -0.62835  -0.55429  -0.43073  -0.33319
 Alpha  occ. eigenvalues --   -0.28051  -0.26716  -0.16537  -0.15128  -0.09794
 Alpha  occ. eigenvalues --   -0.05597  -0.03791
 Alpha virt. eigenvalues --    0.13346   0.16232   0.16950   0.17204   0.17716
 Alpha virt. eigenvalues --    0.18097   0.18350   0.21057   0.21589   0.22151
 Alpha virt. eigenvalues --    0.26498   0.26785   0.27444   0.31705   0.31871
 Alpha virt. eigenvalues --    0.32513   0.35745   0.35789   0.37074   0.40598
 Alpha virt. eigenvalues --    0.40621   0.40884   0.41681   0.42301   0.42335
 Alpha virt. eigenvalues --    0.42930   0.50064   0.50217   0.50638   0.55693
 Alpha virt. eigenvalues --    0.61772   0.63227   0.63281   0.63978   0.64990
 Alpha virt. eigenvalues --    0.65866   0.68843   0.69499   0.72782   0.73423
 Alpha virt. eigenvalues --    0.76543   0.77294   0.81270   0.81771   0.81894
 Alpha virt. eigenvalues --    0.82736   0.85876   0.86850   0.90599   1.00492
 Alpha virt. eigenvalues --    1.05537   1.06384   1.08744   1.09486   1.14088
 Alpha virt. eigenvalues --    1.14093   1.16251   1.22572   1.26669   1.27480
 Alpha virt. eigenvalues --    1.30103   1.39072   1.40126   1.42549   1.46890
 Alpha virt. eigenvalues --    1.49888   1.57328   1.57334   1.60058   1.60959
 Alpha virt. eigenvalues --    1.62185   1.68582   1.68591   1.72262   1.83742
 Alpha virt. eigenvalues --    1.84883   1.85283   1.85288   1.87803   2.01516
 Alpha virt. eigenvalues --    2.02745   2.04157   2.04161   2.25021   2.28858
 Alpha virt. eigenvalues --    2.29971   2.33941   2.69676   2.69689   2.74747
 Alpha virt. eigenvalues --    2.74751   2.76197   2.77016   2.78309   2.88205
 Alpha virt. eigenvalues --    2.88207   2.95457   2.96607   2.98220   3.02013
 Alpha virt. eigenvalues --    3.03285   3.06015   3.06027   3.11708   3.11713
 Alpha virt. eigenvalues --    3.14468   3.15487   3.17743   3.22957   3.24329
 Alpha virt. eigenvalues --    3.31093   3.31097   3.31745   3.43688   3.45010
 Alpha virt. eigenvalues --    3.50894   3.50904   3.58348   3.76499   3.76611
 Alpha virt. eigenvalues --    3.78979   3.91968   3.93319   4.06719   4.24679
 Alpha virt. eigenvalues --    4.30794   4.39606   4.39650   4.49967   4.51285
 Alpha virt. eigenvalues --    5.13043   5.18909   5.18912   5.21311   5.22629
 Alpha virt. eigenvalues --    5.26936   5.58207   5.59580   5.67402   5.67403
 Alpha virt. eigenvalues --    5.91608   6.25491   6.26678   6.26982   7.07652
 Alpha virt. eigenvalues --    7.07657   7.15510   7.15526   7.24232   7.24245
 Alpha virt. eigenvalues --    7.26413   7.27500   7.30400   7.30487   7.33760
 Alpha virt. eigenvalues --    7.53048   7.54451   7.58311   7.59152   7.59267
 Alpha virt. eigenvalues --    7.60112   7.71238   7.89382   7.90375   8.19523
 Alpha virt. eigenvalues --    8.84880   9.02259  14.45018  14.45023  14.97084
 Alpha virt. eigenvalues --   14.98290  15.31737  24.39655  25.91904  26.40957
 Alpha virt. eigenvalues --   26.81168  50.75276
  Beta  occ. eigenvalues --  -18.98945 -10.09390 -10.01922  -9.99840  -9.98086
  Beta  occ. eigenvalues --   -0.90362  -0.61575  -0.53652  -0.42222  -0.32653
  Beta  occ. eigenvalues --   -0.26384  -0.25238  -0.14812  -0.13223  -0.08724
  Beta  occ. eigenvalues --   -0.03166
  Beta virt. eigenvalues --    0.03132   0.13409   0.17031   0.17364   0.17763
  Beta virt. eigenvalues --    0.17853   0.18378   0.18583   0.21757   0.22225
  Beta virt. eigenvalues --    0.22512   0.26749   0.26793   0.27504   0.31914
  Beta virt. eigenvalues --    0.32018   0.32885   0.35982   0.37372   0.38402
  Beta virt. eigenvalues --    0.40690   0.40937   0.41069   0.42205   0.42687
  Beta virt. eigenvalues --    0.42689   0.43259   0.50677   0.50803   0.50873
  Beta virt. eigenvalues --    0.56100   0.62067   0.63503   0.63535   0.64382
  Beta virt. eigenvalues --    0.66015   0.66276   0.69578   0.69652   0.73435
  Beta virt. eigenvalues --    0.73450   0.77377   0.77396   0.81528   0.82140
  Beta virt. eigenvalues --    0.82197   0.83047   0.87072   0.87285   0.90813
  Beta virt. eigenvalues --    1.01228   1.06386   1.06465   1.09592   1.09667
  Beta virt. eigenvalues --    1.14525   1.14536   1.16768   1.23159   1.27478
  Beta virt. eigenvalues --    1.27558   1.30437   1.40383   1.40563   1.42859
  Beta virt. eigenvalues --    1.47574   1.50695   1.58441   1.58488   1.61060
  Beta virt. eigenvalues --    1.61068   1.62681   1.69997   1.70065   1.72597
  Beta virt. eigenvalues --    1.84998   1.85023   1.86631   1.86710   1.88167
  Beta virt. eigenvalues --    2.02933   2.03091   2.05377   2.05439   2.25378
  Beta virt. eigenvalues --    2.30083   2.30121   2.34795   2.70573   2.70611
  Beta virt. eigenvalues --    2.75841   2.75846   2.76934   2.78511   2.78719
  Beta virt. eigenvalues --    2.89588   2.89597   2.96857   2.97047   2.98824
  Beta virt. eigenvalues --    3.03566   3.03804   3.07054   3.07095   3.13169
  Beta virt. eigenvalues --    3.13179   3.15582   3.15636   3.18255   3.24679
  Beta virt. eigenvalues --    3.25011   3.32324   3.32332   3.32349   3.45222
  Beta virt. eigenvalues --    3.45351   3.52280   3.52324   3.59112   3.77838
  Beta virt. eigenvalues --    3.77883   3.79547   3.93549   3.93706   4.07395
  Beta virt. eigenvalues --    4.25464   4.31363   4.40554   4.40603   4.51487
  Beta virt. eigenvalues --    4.51607   5.13726   5.20225   5.20226   5.22882
  Beta virt. eigenvalues --    5.23074   5.27404   5.59921   5.60106   5.68265
  Beta virt. eigenvalues --    5.68285   5.92093   6.26758   6.26817   6.27665
  Beta virt. eigenvalues --    7.08817   7.08852   7.17018   7.17066   7.26303
  Beta virt. eigenvalues --    7.26375   7.27604   7.27609   7.31831   7.31832
  Beta virt. eigenvalues --    7.34618   7.54660   7.55337   7.59305   7.59592
  Beta virt. eigenvalues --    7.60158   7.60454   7.71543   7.90420   7.90669
  Beta virt. eigenvalues --    8.20159   8.85217   9.02665  14.47135  14.47181
  Beta virt. eigenvalues --   14.98566  14.99131  15.32675  24.40004  25.92210
  Beta virt. eigenvalues --   26.41443  26.81495  50.75801
          Condensed to atoms (all electrons):
               1          2          3          4          5
     1  C   13.647578  -6.200235   0.614721  -0.845219   0.023237
     2  C   -6.200235  10.983493  -0.573392   1.022009   0.038794
     3  C    0.614721  -0.573392   7.159970  -1.567576   0.438433
     4  C   -0.845219   1.022009  -1.567576   7.652618  -0.594136
     5  O    0.023237   0.038794   0.438433  -0.594136   8.843067
          Atomic-Atomic Spin Densities.
               1          2          3          4          5
     1  C    0.578625  -0.260593   0.039517  -0.025976   0.001426
     2  C   -0.260593   0.402319  -0.023015   0.053639   0.000216
     3  C    0.039517  -0.023015  -0.026416  -0.000338  -0.044130
     4  C   -0.025976   0.053639  -0.000338   0.397620  -0.061728
     5  O    0.001426   0.000216  -0.044130  -0.061728   0.289816
 Mulliken charges and spin densities:
               1          2
     1  C   -1.240083   0.332999
     2  C    0.729330   0.172566
     3  C   -0.072156  -0.054382
     4  C    0.332304   0.363217
     5  O   -0.749395   0.185600
 Sum of Mulliken charges =  -1.00000   1.00000
 Mulliken charges and spin densities with hydrogens summed into heavy atoms:
               1          2
     1  C   -1.240083   0.332999
     2  C    0.729330   0.172566
     3  C   -0.072156  -0.054382
     4  C    0.332304   0.363217
     5  O   -0.749395   0.185600
 APT charges:
               1
     1  C   -0.324819
     2  C   -0.211622
     3  C    1.138760
     4  C   -0.477415
     5  O   -1.124904
 Sum of APT charges =  -1.00000
 APT charges with hydrogens summed into heavy atoms:
               1
     1  C   -0.324819
     2  C   -0.211622
     3  C    1.138760
     4  C   -0.477415
     5  O   -1.124904
 Electronic spatial extent (au):  <R**2>=            485.7106
 Charge=             -1.0000 electrons
 Dipole moment (field-independent basis, Debye):
    X=             -0.0000    Y=             -0.0000    Z=              5.0317  Tot=              5.0317
 Quadrupole moment (field-independent basis, Debye-Ang):
   XX=            -30.4520   YY=            -32.3707   ZZ=            -68.7094
   XY=             -0.0000   XZ=              0.0000   YZ=              0.0000
 Traceless Quadrupole moment (field-independent basis, Debye-Ang):
   XX=             13.3921   YY=             11.4733   ZZ=            -24.8653
   XY=             -0.0000   XZ=              0.0000   YZ=              0.0000
 Octapole moment (field-independent basis, Debye-Ang**2):
  XXX=             -0.0000  YYY=             -0.0000  ZZZ=             92.6672  XYY=             -0.0000
  XXY=             -0.0000  XXZ=             11.4301  XZZ=             -0.0000  YZZ=             -0.0000
  YYZ=             13.3957  XYZ=              0.0000
 Hexadecapole moment (field-independent basis, Debye-Ang**3):
 XXXX=            -39.5926 YYYY=            -44.7682 ZZZZ=          -1076.4607 XXXY=             -0.0000
 XXXZ=              0.0000 YYYX=             -0.0000 YYYZ=              0.0000 ZZZX=              0.0000
 ZZZY=              0.0000 XXYY=            -14.0597 XXZZ=           -126.1266 YYZZ=           -135.2502
 XXYZ=              0.0000 YYXZ=              0.0000 ZZXY=             -0.0000
 N-N= 1.072768304689D+02 E-N=-7.529698065151D+02  KE= 2.266791473979D+02
 Symmetry A1   KE= 2.103347538292D+02
 Symmetry A2   KE= 1.183306915872D-32
 Symmetry B1   KE= 7.422272370505D+00
 Symmetry B2   KE= 8.922121198255D+00
  Exact polarizability:  40.623  -0.000  41.563  -0.000   0.000 139.307
 Approx polarizability:  55.351   0.000  56.018  -0.000  -0.000 266.561
                          Isotropic Fermi Contact Couplings
        Atom                 a.u.       MegaHertz       Gauss      10(-4) cm-1
     1  C(13)              0.01521      17.09570       6.10017       5.70251
     2  C(13)             -0.01460     -16.41095      -5.85583      -5.47410
     3  C(13)             -0.01922     -21.60213      -7.70818      -7.20570
     4  C(13)             -0.00116      -1.30135      -0.46435      -0.43408
     5  O(17)              0.01984     -12.02764      -4.29176      -4.01199
 --------------------------------------------------------
       Center         ----  Spin Dipole Couplings  ----
                      3XX-RR        3YY-RR        3ZZ-RR
 --------------------------------------------------------
     1   Atom        0.468383     -0.229943     -0.238440
     2   Atom        0.138777     -0.114111     -0.024666
     3   Atom        0.181641     -0.128554     -0.053087
     4   Atom        0.300157     -0.164841     -0.135316
     5   Atom        0.862642     -0.427578     -0.435064
 --------------------------------------------------------
                        XY            XZ            YZ
 --------------------------------------------------------
     1   Atom       -0.000000      0.000000     -0.000000
     2   Atom       -0.000000      0.000000     -0.000000
     3   Atom       -0.000000      0.000000     -0.000000
     4   Atom       -0.000000     -0.000000     -0.000000
     5   Atom        0.000000     -0.000000     -0.000000
 --------------------------------------------------------


 ---------------------------------------------------------------------------------
              Anisotropic Spin Dipole Couplings in Principal Axis System
 ---------------------------------------------------------------------------------

       Atom             a.u.   MegaHertz   Gauss  10(-4) cm-1        Axes

              Baa    -0.2384   -31.996   -11.417   -10.673  0.0000  0.0000  1.0000
     1 C(13)  Bbb    -0.2299   -30.856   -11.010   -10.293 -0.0000  1.0000  0.0000
              Bcc     0.4684    62.853    22.427    20.965  1.0000  0.0000  0.0000
 
              Baa    -0.1141   -15.313    -5.464    -5.108  0.0000  1.0000  0.0000
     2 C(13)  Bbb    -0.0247    -3.310    -1.181    -1.104  0.0000  0.0000  1.0000
              Bcc     0.1388    18.623     6.645     6.212  1.0000 -0.0000  0.0000
 
              Baa    -0.1286   -17.251    -6.155    -5.754 -0.0000  1.0000  0.0000
     3 C(13)  Bbb    -0.0531    -7.124    -2.542    -2.376  0.0000  0.0000  1.0000
              Bcc     0.1816    24.374     8.697     8.130  1.0000  0.0000  0.0000
 
              Baa    -0.1648   -22.120    -7.893    -7.378  0.0000  1.0000 -0.0000
     4 C(13)  Bbb    -0.1353   -18.158    -6.479    -6.057  0.0000  0.0000  1.0000
              Bcc     0.3002    40.278    14.372    13.435  1.0000 -0.0000 -0.0000
 
              Baa    -0.4351    31.481    11.233    10.501  0.0000  0.0000  1.0000
     5 O(17)  Bbb    -0.4276    30.939    11.040    10.320  0.0000  1.0000 -0.0000
              Bcc     0.8626   -62.420   -22.273   -20.821  1.0000  0.0000 -0.0000
 

 ---------------------------------------------------------------------------------

 No NMR shielding tensors so no spin-rotation constants.
 Leave Link  601 at Thu Mar  7 09:21:24 2019, MaxMem=    33554432 cpu:         1.2
 (Enter /home/proyectos/fulerenos/M3C-v2.0/M3C-deps_CCC/g09-AM64L-G09RevC.01/l701.exe)
 Compute integral second derivatives.
 ... and contract with generalized density number  0.
 Leave Link  701 at Thu Mar  7 09:21:24 2019, MaxMem=    33554432 cpu:         1.3
 (Enter /home/proyectos/fulerenos/M3C-v2.0/M3C-deps_CCC/g09-AM64L-G09RevC.01/l702.exe)
 L702 exits ... SP integral derivatives will be done elsewhere.
 Leave Link  702 at Thu Mar  7 09:21:25 2019, MaxMem=    33554432 cpu:         0.1
 (Enter /home/proyectos/fulerenos/M3C-v2.0/M3C-deps_CCC/g09-AM64L-G09RevC.01/l703.exe)
 Compute integral second derivatives, UseDBF=F ICtDFT=           0.
 Integral derivatives from FoFJK, PRISM(SPDF).
 Calling FoFJK, ICntrl=    100127 FMM=F ISym2X=1 I1Cent= 0 IOpClX= 1 NMat=1 NMatS=1 NMatT=0.
 FoFJK:  IHMeth= 1 ICntrl=  100127 DoSepK=F KAlg= 0 I1Cent=   0 FoldK=F
 IRaf=         0 NMat=   1 IRICut=       1 DoRegI=T DoRafI=F ISym2E= 1.
 FoFCou: FMM=F IPFlag=           0 FMFlag=      100000 FMFlg1=         800
         NFxFlg=           0 DoJE=F BraDBF=F KetDBF=F FulRan=T
         wScrn=  0.000000 ICntrl=  100127 IOpCl=  1 I1Cent=           0 NGrid=           0
         NMat0=    1 NMatS0=      1 NMatT0=    0 NMatD0=    1 NMtDS0=    0 NMtDT0=    0
 Petite list used in FoFCou.
 Leave Link  703 at Thu Mar  7 09:26:08 2019, MaxMem=    33554432 cpu:       565.9
 (Enter /home/proyectos/fulerenos/M3C-v2.0/M3C-deps_CCC/g09-AM64L-G09RevC.01/l716.exe)
 Dipole        =-1.21810008D-17-4.57620425D-17 1.97963384D+00
 Polarizability= 4.06230146D+01-2.60065999D-08 4.15632614D+01
                -1.53325153D-08 1.17973479D-07 1.39306923D+02
 Full mass-weighted force constant matrix:
 Low frequencies ---   -2.6537   -1.9009   -0.0014   -0.0009   -0.0009  124.7230
 Low frequencies ---  151.5864  406.6885  433.8537
 Diagonal vibrational polarizability:
       17.7333182       8.6811192       9.2802732
 Harmonic frequencies (cm**-1), IR intensities (KM/Mole), Raman scattering
 activities (A**4/AMU), depolarization ratios for plane and unpolarized
 incident light, reduced masses (AMU), force constants (mDyne/A),
 and normal coordinates:
                      1                      2                      3
                     ?A                     ?A                     ?A
 Frequencies --    124.7230               151.5864               406.6885
 Red. masses --     12.5185                12.6371                12.1305
 Frc consts  --      0.1147                 0.1711                 1.1821
 IR Inten    --      4.4074                13.8391                 4.7788
  Atom  AN      X      Y      Z        X      Y      Z        X      Y      Z
     1   6    -0.00  -0.52  -0.00    -0.56   0.00  -0.00    -0.33  -0.00   0.00
     2   6     0.00   0.19  -0.00     0.26  -0.00  -0.00     0.78   0.00  -0.00
     3   6     0.00   0.06   0.00     0.17  -0.00   0.00    -0.33  -0.00  -0.00
     4   6     0.00   0.75  -0.00     0.66  -0.00   0.00    -0.36  -0.00   0.00
     5   8    -0.00  -0.36  -0.00    -0.40   0.00   0.00     0.18   0.00  -0.00
                      4                      5                      6
                     ?A                     ?A                     ?A
 Frequencies --    433.8537               464.9211               569.4306
 Red. masses --     12.0193                12.5400                12.3066
 Frc consts  --      1.3330                 1.5970                 2.3511
 IR Inten    --      4.2649                 3.5871                 9.0135
  Atom  AN      X      Y      Z        X      Y      Z        X      Y      Z
     1   6     0.00  -0.36   0.00    -0.00   0.12   0.00    -0.05   0.00  -0.00
     2   6    -0.00   0.74   0.00     0.00  -0.34   0.00     0.15  -0.00  -0.00
     3   6     0.00   0.22  -0.00    -0.00   0.85  -0.00     0.79  -0.00   0.00
     4   6     0.00  -0.51  -0.00    -0.00  -0.14  -0.00    -0.53   0.00   0.00
     5   8    -0.00  -0.07  -0.00     0.00  -0.37   0.00    -0.28   0.00   0.00
                      7                      8                      9
                     SG                     SG                     SG
 Frequencies --    753.4483              1466.8110              1942.9186
 Red. masses --     13.1477                12.9410                12.1533
 Frc consts  --      4.3975                16.4046                27.0304
 IR Inten    --      8.0054               132.8549               354.0518
  Atom  AN      X      Y      Z        X      Y      Z        X      Y      Z
     1   6     0.00   0.00   0.64    -0.00   0.00  -0.46    -0.00   0.00  -0.49
     2   6    -0.00  -0.00   0.44     0.00  -0.00   0.14     0.00  -0.00   0.75
     3   6     0.00  -0.00  -0.33    -0.00   0.00   0.29     0.00  -0.00  -0.37
     4   6    -0.00   0.00  -0.03     0.00  -0.00   0.67    -0.00   0.00  -0.15
     5   8    -0.00   0.00  -0.54     0.00  -0.00  -0.49    -0.00   0.00   0.20
                     10
                     SG
 Frequencies --   2248.6847
 Red. masses --     12.1793
 Frc consts  --     36.2851
 IR Inten    --    885.9491
  Atom  AN      X      Y      Z
     1   6    -0.00   0.00  -0.08
     2   6     0.00  -0.00   0.26
     3   6    -0.00  -0.00   0.71
     4   6    -0.00   0.00  -0.61
     5   8     0.00   0.00  -0.21

 -------------------
 - Thermochemistry -
 -------------------
 Temperature   298.150 Kelvin.  Pressure   1.00000 Atm.
 Atom     1 has atomic number  6 and mass  12.00000
 Atom     2 has atomic number  6 and mass  12.00000
 Atom     3 has atomic number  6 and mass  12.00000
 Atom     4 has atomic number  6 and mass  12.00000
 Atom     5 has atomic number  8 and mass  15.99491
 Molecular mass:    63.99491 amu.
 Principal axes and moments of inertia in atomic units:
                           1         2         3
     Eigenvalues --     0.00000 775.73953 775.73953
           X           -0.00000   0.19614   0.98058
           Y           -0.00000   0.98058  -0.19614
           Z            1.00000   0.00000   0.00000
 This molecule is a prolate symmetric top.
 Rotational symmetry number  1.
 Warning -- assumption of classical behavior for rotation
           may cause significant error
 Rotational temperature (Kelvin)      0.11165
 Rotational constant (GHZ):           2.326478
 Zero-point vibrational energy      51218.5 (Joules/Mol)
                                   12.24152 (Kcal/Mol)
 Warning -- explicit consideration of   6 degrees of freedom as
           vibrations may cause significant error
 Vibrational temperatures:    179.45   218.10   585.13   624.22   668.92
          (Kelvin)            819.28  1084.04  2110.41  2795.42  3235.35
 
 Zero-point correction=                           0.019508 (Hartree/Particle)
 Thermal correction to Energy=                    0.024307
 Thermal correction to Enthalpy=                  0.025251
 Thermal correction to Gibbs Free Energy=        -0.006305
 Sum of electronic and zero-point Energies=           -227.593794
 Sum of electronic and thermal Energies=              -227.588996
 Sum of electronic and thermal Enthalpies=            -227.588052
 Sum of electronic and thermal Free Energies=         -227.619608
 
                     E (Thermal)             CV                S
                      KCal/Mol        Cal/Mol-Kelvin    Cal/Mol-Kelvin
 Total                   15.253             14.909             66.415
 Electronic               0.000              0.000              1.377
 Translational            0.889              2.981             38.388
 Rotational               0.592              1.987             17.666
 Vibrational             13.772              9.941              8.984
 Vibration     1          0.610              1.928              3.026
 Vibration     2          0.619              1.901              2.652
 Vibration     3          0.771              1.456              0.938
 Vibration     4          0.795              1.396              0.846
 Vibration     5          0.822              1.328              0.752
 Vibration     6          0.925              1.097              0.505
                       Q            Log10(Q)             Ln(Q)
 Total Bot       0.794630D+03          2.900165          6.677877
 Total V=0       0.746876D+12         11.873249         27.339166
 Vib (Bot)       0.739432D-08         -8.131102        -18.722554
 Vib (Bot)    1  0.163666D+01          0.213960          0.492661
 Vib (Bot)    2  0.133703D+01          0.126142          0.290452
 Vib (Bot)    3  0.436107D+00         -0.360407         -0.829869
 Vib (Bot)    4  0.400397D+00         -0.397509         -0.915299
 Vib (Bot)    5  0.364350D+00         -0.438481         -1.009640
 Vib (Bot)    6  0.270431D+00         -0.567943         -1.307737
 Vib (V=0)       0.694995D+01          0.841982          1.938735
 Vib (V=0)    1  0.221134D+01          0.344655          0.793597
 Vib (V=0)    2  0.192746D+01          0.284986          0.656205
 Vib (V=0)    3  0.116347D+01          0.065754          0.151405
 Vib (V=0)    4  0.114056D+01          0.057118          0.131520
 Vib (V=0)    5  0.111867D+01          0.048702          0.112139
 Vib (V=0)    6  0.106845D+01          0.028753          0.066207
 Electronic      0.200000D+01          0.301030          0.693147
 Translational   0.201221D+08          7.303673         16.817330
 Rotational      0.267032D+04          3.426564          7.889954
 
                                                              b3lyp opt
                                                             IR Spectrum
 
     2                 1                          1                                                                                  
     2                 9                          4                                       7         5     4 4 4             11       
     4                 4                          6                                       5         6     6 3 0             52       
     9                 3                          7                                       3         9     5 4 7             25       
 
     X                 X                          X                                       X         X     X X X             XX       
     X                 X                          X                                                                                  
     X                 X                          X                                                                                  
     X                 X                                                                                                             
     X                 X                                                                                                             
     X                 X                                                                                                             
     X                 X                                                                                                             
     X                 X                                                                                                             
     X                                                                                                                               
     X                                                                                                                               
     X                                                                                                                               
     X                                                                                                                               
     X                                                                                                                               
     X                                                                                                                               
     X                                                                                                                               
     X                                                                                                                               
     X                                                                                                                               
     X                                                                                                                               
     X                                                                                                                               
     X                                                                                                                               
 
 ***** Axes restored to original set *****
 -------------------------------------------------------------------
 Center     Atomic                   Forces (Hartrees/Bohr)
 Number     Number              X              Y              Z
 -------------------------------------------------------------------
      1        6          -0.000004635   -0.000003882    0.000000192
      2        6           0.000007945    0.000006655   -0.000000329
      3        6          -0.000006442   -0.000005396    0.000000267
      4        6          -0.000002583   -0.000002164    0.000000107
      5        8           0.000005715    0.000004788   -0.000000237
 -------------------------------------------------------------------
 Cartesian Forces:  Max     0.000007945 RMS     0.000004334
 Z-matrix is all fixed cartesians, so copy forces.
 Force constants in Cartesian coordinates: 
                1             2             3             4             5 
      1  0.420269D+00
      2  0.340927D+00  0.298775D+00
      3 -0.159990D-01 -0.151488D-01  0.134464D-01
      4 -0.397976D+00 -0.312226D+00  0.137087D-01  0.706010D+00
      5 -0.312226D+00 -0.286614D+00  0.150268D-01  0.545436D+00  0.511510D+00
      6  0.137087D-01  0.150268D-01 -0.248151D-01 -0.243540D-01 -0.257546D-01
      7  0.120897D-01  0.831803D-02 -0.282259D-03 -0.338951D-01 -0.215140D-01
      8  0.831803D-02  0.911445D-02 -0.501741D-03 -0.215140D-01 -0.258791D-01
      9 -0.282259D-03 -0.501742D-03  0.209669D-02 -0.242078D-02  0.514950D-02
     10 -0.289625D-01 -0.330871D-01  0.247756D-02 -0.281677D+00 -0.211979D+00
     11 -0.330871D-01 -0.172656D-01  0.339595D-03 -0.211979D+00 -0.206316D+00
     12  0.247756D-02  0.339595D-03  0.994464D-02  0.117118D-01  0.726262D-02
     13 -0.542003D-02 -0.393182D-02  0.950128D-04  0.753851D-02  0.282018D-03
     14 -0.393182D-02 -0.400976D-02  0.284118D-03  0.282018D-03  0.729879D-02
     15  0.950128D-04  0.284118D-03 -0.672587D-03  0.135431D-02 -0.168432D-02
                6             7             8             9            10 
      6  0.543768D-01
      7 -0.242078D-02  0.903632D+00
      8  0.514950D-02  0.688346D+00  0.659326D+00
      9 -0.608941D-02 -0.420789D-01 -0.186349D-01  0.883191D-01
     10  0.117118D-01 -0.434248D+00 -0.337061D+00  0.257045D-01  0.776684D+00
     11  0.726262D-02 -0.337061D+00 -0.315138D+00  0.289058D-02  0.618747D+00
     12 -0.298238D-01  0.257045D-01  0.289058D-02 -0.381873D-01 -0.386398D-01
     13  0.135431D-02 -0.447579D+00 -0.338089D+00  0.190775D-01 -0.317969D-01
     14 -0.168432D-02 -0.338089D+00 -0.327423D+00  0.110966D-01 -0.366213D-01
     15  0.635148D-02  0.190775D-01  0.110966D-01 -0.461390D-01 -0.125401D-02
               11            12            13            14            15 
     11  0.557163D+00
     12 -0.157539D-01  0.443150D-01
     13 -0.366213D-01 -0.125401D-02  0.477257D+00
     14 -0.184438D-01  0.526112D-02  0.378361D+00  0.342578D+00
     15  0.526113D-02  0.137515D-01 -0.192728D-01 -0.149575D-01  0.267086D-01
 Leave Link  716 at Thu Mar  7 09:26:08 2019, MaxMem=    33554432 cpu:         0.3
 (Enter /home/proyectos/fulerenos/M3C-v2.0/M3C-deps_CCC/g09-AM64L-G09RevC.01/l103.exe)

 GradGradGradGradGradGradGradGradGradGradGradGradGradGradGradGradGradGrad
 Berny optimization.
 Search for a local minimum.
 Step number   1 out of a maximum of    2
 All quantities printed in internal units (Hartrees-Bohrs-Radians)
 Second derivative matrix not updated -- analytic derivatives used.
 The second derivative matrix:
                          X1        Y1        Z1        X2        Y2
           X1           0.42027
           Y1           0.34093   0.29878
           Z1          -0.01600  -0.01515   0.01345
           X2          -0.39798  -0.31223   0.01371   0.70601
           Y2          -0.31223  -0.28661   0.01503   0.54544   0.51151
           Z2           0.01371   0.01503  -0.02482  -0.02435  -0.02575
           X3           0.01209   0.00832  -0.00028  -0.03390  -0.02151
           Y3           0.00832   0.00911  -0.00050  -0.02151  -0.02588
           Z3          -0.00028  -0.00050   0.00210  -0.00242   0.00515
           X4          -0.02896  -0.03309   0.00248  -0.28168  -0.21198
           Y4          -0.03309  -0.01727   0.00034  -0.21198  -0.20632
           Z4           0.00248   0.00034   0.00994   0.01171   0.00726
           X5          -0.00542  -0.00393   0.00010   0.00754   0.00028
           Y5          -0.00393  -0.00401   0.00028   0.00028   0.00730
           Z5           0.00010   0.00028  -0.00067   0.00135  -0.00168
                          Z2        X3        Y3        Z3        X4
           Z2           0.05438
           X3          -0.00242   0.90363
           Y3           0.00515   0.68835   0.65933
           Z3          -0.00609  -0.04208  -0.01863   0.08832
           X4           0.01171  -0.43425  -0.33706   0.02570   0.77668
           Y4           0.00726  -0.33706  -0.31514   0.00289   0.61875
           Z4          -0.02982   0.02570   0.00289  -0.03819  -0.03864
           X5           0.00135  -0.44758  -0.33809   0.01908  -0.03180
           Y5          -0.00168  -0.33809  -0.32742   0.01110  -0.03662
           Z5           0.00635   0.01908   0.01110  -0.04614  -0.00125
                          Y4        Z4        X5        Y5        Z5
           Y4           0.55716
           Z4          -0.01575   0.04432
           X5          -0.03662  -0.00125   0.47726
           Y5          -0.01844   0.00526   0.37836   0.34258
           Z5           0.00526   0.01375  -0.01927  -0.01496   0.02671
 ITU=  0
     Eigenvalues ---    0.00741   0.01107   0.07608   0.08560   0.10360
     Eigenvalues ---    0.15200   0.28285   1.06620   1.74441   2.34697
 Angle between quadratic step and forces=   8.36 degrees.
 ClnCor:  largest displacement from symmetrization is 3.52D-13 for atom     4.
 Linear search not attempted -- first point.
 ClnCor:  largest displacement from symmetrization is 9.93D-16 for atom     5.
 B after Tr=     0.000000    0.000000   -0.000000
         Rot=    1.000000    0.000000    0.000000    0.000000 Ang=   0.00 deg.
 Variable       Old X    -DE/DX   Delta X   Delta X   Delta X     New X
                                 (Linear)    (Quad)   (Total)
    X1       -3.75537  -0.00000   0.00000  -0.00000  -0.00000  -3.75538
    Y1       -3.39090  -0.00000   0.00000  -0.00000  -0.00000  -3.39090
    Z1        0.12566   0.00000   0.00000   0.00000   0.00000   0.12566
    X2       -1.91689   0.00001   0.00000   0.00000   0.00000  -1.91689
    Y2       -1.85085   0.00001   0.00000   0.00000   0.00000  -1.85085
    Z2        0.04955  -0.00000   0.00000  -0.00000  -0.00000   0.04955
    X3        1.82764  -0.00001   0.00000  -0.00000  -0.00000   1.82764
    Y3        1.28584  -0.00001   0.00000  -0.00000  -0.00000   1.28584
    Z3       -0.10545   0.00000   0.00000   0.00000   0.00000  -0.10545
    X4        0.00890  -0.00000   0.00000  -0.00000  -0.00000   0.00890
    Y4       -0.23767  -0.00000   0.00000  -0.00000  -0.00000  -0.23767
    Z4       -0.03016   0.00000   0.00000   0.00000   0.00000  -0.03016
    X5        3.57050   0.00001   0.00000   0.00000   0.00000   3.57051
    Y5        2.74579   0.00000   0.00000   0.00000   0.00000   2.74579
    Z5       -0.17759  -0.00000   0.00000  -0.00000  -0.00000  -0.17759
         Item               Value     Threshold  Converged?
 Maximum Force            0.000008     0.000450     YES
 RMS     Force            0.000004     0.000300     YES
 Maximum Displacement     0.000004     0.001800     YES
 RMS     Displacement     0.000003     0.001200     YES
 Predicted change in Energy=-8.139219D-11
 Optimization completed.
    -- Stationary point found.
 GradGradGradGradGradGradGradGradGradGradGradGradGradGradGradGradGradGrad

 Leave Link  103 at Thu Mar  7 09:26:08 2019, MaxMem=    33554432 cpu:         0.1
 (Enter /home/proyectos/fulerenos/M3C-v2.0/M3C-deps_CCC/g09-AM64L-G09RevC.01/l9999.exe)

 Test job not archived.
 1\1\GINC-BERQUELIO\Freq\UB3LYP\6-311++G(3df,2p)\C4O1(1-,2)\NAGUIRRE\07
 -Mar-2019\0\\#p b3lyp/6-311++G(3df,2p) freq IOp(2/17=3) IOp(2/18=3)\\b
 3lyp opt\\-1,2\C,-1.987258621,-1.7943875842,0.0664939561\C,-1.01437503
 39,-0.9794292513,0.0262226723\C,0.9671454164,0.6804369692,-0.055799857
 \C,0.0047083106,-0.1257706281,-0.015960992\O,1.8894281959,1.4530083708
 ,-0.0939765845\\Version=EM64L-G09RevE.01\HF=-227.6133025\S2=0.759287\S
 2-1=0.\S2A=0.750038\RMSD=3.733e-09\RMSF=4.334e-06\ZeroPoint=0.0195081\
 Thermal=0.0243068\Dipole=1.5167896,1.2705737,-0.0627856\DipoleDeriv=-0
 .1131974,0.3895231,0.0248885,0.3895231,-0.2564038,-0.0700797,0.0248885
 ,-0.0700797,-0.6048563,-0.3634253,-0.2651719,-0.0490275,-0.2651719,-0.
 2626698,0.0869298,-0.0490276,0.0869298,-0.0087696,1.9123656,1.500544,-
 0.0766346,1.500544,1.3782595,-0.0590753,-0.0766346,-0.0590753,0.125656
 1,-0.7031118,-0.4403144,0.0279076,-0.4403144,-0.5469374,0.0107088,0.02
 79076,0.0107088,-0.1821969,-1.7326311,-1.1845809,0.072866,-1.1845809,-
 1.3122485,0.0315165,0.072866,0.0315165,-0.3298333\Polar=98.7987011,48.
 2546799,81.5848967,-2.091585,-2.3555359,41.1096014\PG=C*V [C*(C1C1C1C1
 O1)]\NImag=0\\0.42026912,0.34092686,0.29877526,-0.01599902,-0.01514880
 ,0.01344637,-0.39797633,-0.31222602,0.01370871,0.70601035,-0.31222602,
 -0.28661436,0.01502683,0.54543650,0.51151028,0.01370871,0.01502683,-0.
 02481511,-0.02435400,-0.02575464,0.05437684,0.01208969,0.00831803,-0.0
 0028226,-0.03389513,-0.02151398,-0.00242078,0.90363177,0.00831803,0.00
 911445,-0.00050174,-0.02151398,-0.02587912,0.00514950,0.68834606,0.659
 32567,-0.00028226,-0.00050174,0.00209669,-0.00242078,0.00514950,-0.006
 08941,-0.04207894,-0.01863495,0.08831906,-0.02896245,-0.03308705,0.002
 47756,-0.28167740,-0.21197851,0.01171176,-0.43424775,-0.33706062,0.025
 70448,0.77668446,-0.03308705,-0.01726559,0.00033959,-0.21197851,-0.206
 31560,0.00726262,-0.33706062,-0.31513819,0.00289058,0.61874749,0.55716
 313,0.00247756,0.00033959,0.00994464,0.01171176,0.00726262,-0.02982380
 ,0.02570448,0.00289058,-0.03818735,-0.03863978,-0.01575392,0.04431503,
 -0.00542003,-0.00393182,0.00009501,0.00753851,0.00028202,0.00135431,-0
 .44757858,-0.33808949,0.01907749,-0.03179686,-0.03662130,-0.00125401,0
 .47725696,-0.00393182,-0.00400976,0.00028412,0.00028202,0.00729879,-0.
 00168432,-0.33808949,-0.32742281,0.01109661,-0.03662130,-0.01844375,0.
 00526112,0.37836060,0.34257753,0.00009501,0.00028412,-0.00067259,0.001
 35431,-0.00168432,0.00635148,0.01907749,0.01109661,-0.04613899,-0.0012
 5401,0.00526113,0.01375147,-0.01927281,-0.01495754,0.02670862\\0.00000
 463,0.00000388,-0.00000019,-0.00000794,-0.00000666,0.00000033,0.000006
 44,0.00000540,-0.00000027,0.00000258,0.00000216,-0.00000011,-0.0000057
 2,-0.00000479,0.00000024\\\@


 I do not feel obliged to believe that the same God who
 has endowed us with sense, reason, and intellect has
 intended us to forgo their use.
                   --Galileo Galilei
 Job cpu time:       0 days  0 hours 30 minutes 27.0 seconds.
 File lengths (MBytes):  RWF=     42 Int=      0 D2E=      0 Chk=      4 Scr=      1
 Normal termination of Gaussian 09 at Thu Mar  7 09:26:08 2019.
