 Entering Gaussian System, Link 0=/home/proyectos/fulerenos/M3C-v2.0/M3C-deps_CCC/g09-AM64L-G09RevC.01/g09
 Initial command:
 /home/proyectos/fulerenos/M3C-v2.0/M3C-deps_CCC/g09-AM64L-G09RevC.01/l1.exe "/scratch/naguirre/gaussian/Gau-24227.inp" -scrdir="/scratch/naguirre/gaussian/"
 Entering Link 1 = /home/proyectos/fulerenos/M3C-v2.0/M3C-deps_CCC/g09-AM64L-G09RevC.01/l1.exe PID=     24230.
  
 Copyright (c) 1988,1990,1992,1993,1995,1998,2003,2009,2015,
            Gaussian, Inc.  All Rights Reserved.
  
 This is part of the Gaussian(R) 09 program.  It is based on
 the Gaussian(R) 03 system (copyright 2003, Gaussian, Inc.),
 the Gaussian(R) 98 system (copyright 1998, Gaussian, Inc.),
 the Gaussian(R) 94 system (copyright 1995, Gaussian, Inc.),
 the Gaussian 92(TM) system (copyright 1992, Gaussian, Inc.),
 the Gaussian 90(TM) system (copyright 1990, Gaussian, Inc.),
 the Gaussian 88(TM) system (copyright 1988, Gaussian, Inc.),
 the Gaussian 86(TM) system (copyright 1986, Carnegie Mellon
 University), and the Gaussian 82(TM) system (copyright 1983,
 Carnegie Mellon University). Gaussian is a federally registered
 trademark of Gaussian, Inc.
  
 This software contains proprietary and confidential information,
 including trade secrets, belonging to Gaussian, Inc.
  
 This software is provided under written license and may be
 used, copied, transmitted, or stored only in accord with that
 written license.
  
 The following legend is applicable only to US Government
 contracts under FAR:
  
                    RESTRICTED RIGHTS LEGEND
  
 Use, reproduction and disclosure by the US Government is
 subject to restrictions as set forth in subparagraphs (a)
 and (c) of the Commercial Computer Software - Restricted
 Rights clause in FAR 52.227-19.
  
 Gaussian, Inc.
 340 Quinnipiac St., Bldg. 40, Wallingford CT 06492
  
  
 ---------------------------------------------------------------
 Warning -- This program may not be used in any manner that
 competes with the business of Gaussian, Inc. or will provide
 assistance to any competitor of Gaussian, Inc.  The licensee
 of this program is prohibited from giving any competitor of
 Gaussian, Inc. access to this program.  By using this program,
 the user acknowledges that Gaussian, Inc. is engaged in the
 business of creating and licensing software in the field of
 computational chemistry and represents and warrants to the
 licensee that it is not a competitor of Gaussian, Inc. and that
 it will not use this program in any manner prohibited above.
 ---------------------------------------------------------------
  

 Cite this work as:
 Gaussian 09, Revision E.01,
 M. J. Frisch, G. W. Trucks, H. B. Schlegel, G. E. Scuseria, 
 M. A. Robb, J. R. Cheeseman, G. Scalmani, V. Barone, B. Mennucci, 
 G. A. Petersson, H. Nakatsuji, M. Caricato, X. Li, H. P. Hratchian, 
 A. F. Izmaylov, J. Bloino, G. Zheng, J. L. Sonnenberg, M. Hada, 
 M. Ehara, K. Toyota, R. Fukuda, J. Hasegawa, M. Ishida, T. Nakajima, 
 Y. Honda, O. Kitao, H. Nakai, T. Vreven, J. A. Montgomery, Jr., 
 J. E. Peralta, F. Ogliaro, M. Bearpark, J. J. Heyd, E. Brothers, 
 K. N. Kudin, V. N. Staroverov, T. Keith, R. Kobayashi, J. Normand, 
 K. Raghavachari, A. Rendell, J. C. Burant, S. S. Iyengar, J. Tomasi, 
 M. Cossi, N. Rega, J. M. Millam, M. Klene, J. E. Knox, J. B. Cross, 
 V. Bakken, C. Adamo, J. Jaramillo, R. Gomperts, R. E. Stratmann, 
 O. Yazyev, A. J. Austin, R. Cammi, C. Pomelli, J. W. Ochterski, 
 R. L. Martin, K. Morokuma, V. G. Zakrzewski, G. A. Voth, 
 P. Salvador, J. J. Dannenberg, S. Dapprich, A. D. Daniels, 
 O. Farkas, J. B. Foresman, J. V. Ortiz, J. Cioslowski, 
 and D. J. Fox, Gaussian, Inc., Wallingford CT, 2013.
 
 ******************************************
 Gaussian 09:  EM64L-G09RevE.01 30-Nov-2015
                 7-Mar-2019 
 ******************************************
 %NProcShared=2
 Will use up to    2 processors via shared memory.
 ------------------------------------------------------
 #p b3lyp/6-311++G(3df,2p) freq IOp(2/17=3) IOp(2/18=3)
 ------------------------------------------------------
 1/10=4,30=1,38=1/1,3;
 2/12=2,17=3,18=3,40=1/2;
 3/5=4,6=6,7=1216,11=2,16=1,25=1,30=1,71=2,74=-5,140=1/1,2,3;
 4//1;
 5/5=2,38=5,98=1/2;
 8/6=4,10=90,11=11/1;
 11/6=1,8=1,9=11,15=111,16=1/1,2,10;
 10/6=1/2;
 6/7=2,8=2,9=2,10=2,18=1,28=1/1;
 7/8=1,10=1,25=1/1,2,3,16;
 1/10=4,30=1/3;
 99//99;
 Leave Link    1 at Thu Mar  7 08:52:02 2019, MaxMem=           0 cpu:         0.2
 (Enter /home/proyectos/fulerenos/M3C-v2.0/M3C-deps_CCC/g09-AM64L-G09RevC.01/l101.exe)
 ---------
 b3lyp opt
 ---------
 Symbolic Z-matrix:
 Charge = -1 Multiplicity = 2
 C                     0.72308  -0.28074   0.07187 
 C                    -0.75746   0.18076  -0.09538 
 C                    -1.99056  -0.10868  -0.29263 
 C                     1.58962  -1.22455   0.11146 
 O                     0.30951   1.04893   0.12859 
 
 NAtoms=      5 NQM=        5 NQMF=       0 NMMI=      0 NMMIF=      0
                NMic=       0 NMicF=      0.
                    Isotopes and Nuclear Properties:
 (Nuclear quadrupole moments (NQMom) in fm**2, nuclear magnetic moments (NMagM)
  in nuclear magnetons)

  Atom         1           2           3           4           5
 IAtWgt=          12          12          12          12          16
 AtmWgt=  12.0000000  12.0000000  12.0000000  12.0000000  15.9949146
 NucSpn=           0           0           0           0           0
 AtZEff=   0.0000000   0.0000000   0.0000000   0.0000000   0.0000000
 NQMom=    0.0000000   0.0000000   0.0000000   0.0000000   0.0000000
 NMagM=    0.0000000   0.0000000   0.0000000   0.0000000   0.0000000
 AtZNuc=   6.0000000   6.0000000   6.0000000   6.0000000   8.0000000
 Leave Link  101 at Thu Mar  7 08:52:02 2019, MaxMem=    33554432 cpu:         0.3
 (Enter /home/proyectos/fulerenos/M3C-v2.0/M3C-deps_CCC/g09-AM64L-G09RevC.01/l103.exe)

 GradGradGradGradGradGradGradGradGradGradGradGradGradGradGradGradGradGrad
 Berny optimization.
 Initialization pass.
 Trust Radius=3.00D-01 FncErr=1.00D-07 GrdErr=1.00D-07
 Number of steps in this run=      2 maximum allowed number of steps=      2.
 GradGradGradGradGradGradGradGradGradGradGradGradGradGradGradGradGradGrad

 Leave Link  103 at Thu Mar  7 08:52:02 2019, MaxMem=    33554432 cpu:         0.1
 (Enter /home/proyectos/fulerenos/M3C-v2.0/M3C-deps_CCC/g09-AM64L-G09RevC.01/l202.exe)
                          Input orientation:                          
 ---------------------------------------------------------------------
 Center     Atomic      Atomic             Coordinates (Angstroms)
 Number     Number       Type             X           Y           Z
 ---------------------------------------------------------------------
      1          6           0        0.723080   -0.280741    0.071874
      2          6           0       -0.757456    0.180760   -0.095380
      3          6           0       -1.990562   -0.108679   -0.292625
      4          6           0        1.589617   -1.224554    0.111456
      5          8           0        0.309510    1.048935    0.128586
 ---------------------------------------------------------------------
                    Distance matrix (angstroms):
                    1          2          3          4          5
     1  C    0.000000
     2  C    1.559790   0.000000
     3  C    2.743414   1.281886   0.000000
     4  C    1.281888   2.743436   3.771756   0.000000
     5  O    1.393662   1.393666   2.609180   2.609161   0.000000
 Stoichiometry    C4O(1-,2)
 Framework group  C2V[C2(O),SGV(C4)]
 Deg. of freedom     4
 Full point group                 C2V     NOp   4
 Largest Abelian subgroup         C2V     NOp   4
 Largest concise Abelian subgroup C2      NOp   2
                         Standard orientation:                         
 ---------------------------------------------------------------------
 Center     Atomic      Atomic             Coordinates (Angstroms)
 Number     Number       Type             X           Y           Z
 ---------------------------------------------------------------------
      1          6           0        0.000000   -0.779886   -0.045729
      2          6           0        0.000000    0.779886   -0.045729
      3          6           0       -0.000000    1.885878   -0.693817
      4          6           0       -0.000000   -1.885878   -0.693817
      5          8           0       -0.000000   -0.000000    1.109301
 ---------------------------------------------------------------------
 Rotational constants (GHZ):     16.1535880      5.0561054      3.8507979
 Leave Link  202 at Thu Mar  7 08:52:02 2019, MaxMem=    33554432 cpu:         0.1
 (Enter /home/proyectos/fulerenos/M3C-v2.0/M3C-deps_CCC/g09-AM64L-G09RevC.01/l301.exe)
 Standard basis: 6-311++G(3df,2p) (5D, 7F)
 Ernie: Thresh=  0.10000D-02 Tol=  0.10000D-05 Strict=F.
 There are    83 symmetry adapted cartesian basis functions of A1  symmetry.
 There are    32 symmetry adapted cartesian basis functions of A2  symmetry.
 There are    38 symmetry adapted cartesian basis functions of B1  symmetry.
 There are    72 symmetry adapted cartesian basis functions of B2  symmetry.
 There are    69 symmetry adapted basis functions of A1  symmetry.
 There are    30 symmetry adapted basis functions of A2  symmetry.
 There are    35 symmetry adapted basis functions of B1  symmetry.
 There are    61 symmetry adapted basis functions of B2  symmetry.
   195 basis functions,   290 primitive gaussians,   225 cartesian basis functions
    17 alpha electrons       16 beta electrons
       nuclear repulsion energy       116.7962603557 Hartrees.
 IExCor=  402 DFT=T Ex+Corr=B3LYP ExCW=0 ScaHFX=  0.200000
 ScaDFX=  0.800000  0.720000  1.000000  0.810000 ScalE2=  1.000000  1.000000
 IRadAn=      0 IRanWt=     -1 IRanGd=            0 ICorTp=0 IEmpDi=  4
 NAtoms=    5 NActive=    5 NUniq=    3 SFac= 2.78D+00 NAtFMM=   60 NAOKFM=F Big=F
 Integral buffers will be    131072 words long.
 Raffenetti 2 integral format.
 Two-electron integral symmetry is turned on.
 Leave Link  301 at Thu Mar  7 08:52:02 2019, MaxMem=    33554432 cpu:         0.3
 (Enter /home/proyectos/fulerenos/M3C-v2.0/M3C-deps_CCC/g09-AM64L-G09RevC.01/l302.exe)
 NPDir=0 NMtPBC=     1 NCelOv=     1 NCel=       1 NClECP=     1 NCelD=      1
         NCelK=      1 NCelE2=     1 NClLst=     1 CellRange=     0.0.
 One-electron integrals computed using PRISM.
 One-electron integral symmetry used in STVInt
 NBasis=   195 RedAO= T EigKep=  4.94D-06  NBF=    69    30    35    61
 NBsUse=   195 1.00D-06 EigRej= -1.00D+00 NBFU=    69    30    35    61
 Precomputing XC quadrature grid using
 IXCGrd= 4 IRadAn=           0 IRanWt=          -1 IRanGd=           0 AccXCQ= 0.00D+00.
 Generated NRdTot=       0 NPtTot=           0 NUsed=           0 NTot=          32
 NSgBfM=   225   225   225   225   225 MxSgAt=     5 MxSgA2=     5.
 Leave Link  302 at Thu Mar  7 08:52:03 2019, MaxMem=    33554432 cpu:         0.8
 (Enter /home/proyectos/fulerenos/M3C-v2.0/M3C-deps_CCC/g09-AM64L-G09RevC.01/l303.exe)
 DipDrv:  MaxL=1.
 Leave Link  303 at Thu Mar  7 08:52:03 2019, MaxMem=    33554432 cpu:         0.2
 (Enter /home/proyectos/fulerenos/M3C-v2.0/M3C-deps_CCC/g09-AM64L-G09RevC.01/l401.exe)
 ExpMin= 4.38D-02 ExpMax= 8.59D+03 ExpMxC= 1.30D+03 IAcc=2 IRadAn=         4 AccDes= 0.00D+00
 Harris functional with IExCor=  402 and IRadAn=       4 diagonalized for initial guess.
 HarFok:  IExCor=  402 AccDes= 0.00D+00 IRadAn=         4 IDoV= 1 UseB2=F ITyADJ=14
 ICtDFT=  3500011 ScaDFX=  1.000000  1.000000  1.000000  1.000000
 FoFCou: FMM=F IPFlag=           0 FMFlag=      100000 FMFlg1=           0
         NFxFlg=           0 DoJE=T BraDBF=F KetDBF=T FulRan=T
         wScrn=  0.000000 ICntrl=     500 IOpCl=  0 I1Cent=   200000004 NGrid=           0
         NMat0=    1 NMatS0=      1 NMatT0=    0 NMatD0=    1 NMtDS0=    0 NMtDT0=    0
 Petite list used in FoFCou.
 Harris En= -227.570420966048    
 JPrj=0 DoOrth=F DoCkMO=F.
 Initial guess orbital symmetries:
 Alpha Orbitals:
       Occupied  (A1) (A1) (B2) (B2) (A1) (A1) (A1) (B2) (A1) (B2)
                 (B1) (A1) (A1) (B2) (A2) (B1) (B2)
       Virtual   (A1) (B1) (A2) (A1) (B2) (A1) (B1) (B2) (A1) (B2)
                 (A1) (A2) (B2) (A1) (B1) (A1) (B2) (A2) (B2) (A1)
                 (B2) (B1) (B2) (A1) (B2) (A1) (B1) (A1) (A2) (A1)
                 (B2) (A1) (B2) (A1) (B2) (B1) (A2) (A1) (B1) (A1)
                 (B2) (A2) (B1) (A2) (B2) (B2) (A1) (B1) (B2) (A1)
                 (B2) (A1) (B1) (A1) (B2) (A2) (A2) (B1) (B2) (A1)
                 (A1) (A1) (B2) (A1) (B2) (A2) (B1) (A1) (B2) (A1)
                 (B2) (B1) (A1) (A2) (B1) (B2) (A2) (A1) (B2) (B1)
                 (A1) (B2) (A2) (B2) (A1) (B1) (B2) (A1) (A1) (A1)
                 (A2) (B2) (B1) (A1) (B1) (A1) (B2) (A2) (B2) (A2)
                 (B1) (B1) (A1) (B2) (A2) (A2) (A1) (B1) (A1) (B2)
                 (B1) (B2) (A1) (B2) (A2) (A1) (A2) (B2) (A1) (B2)
                 (B1) (A1) (A1) (B2) (A2) (B1) (A1) (B2) (A1) (B2)
                 (A2) (A1) (B2) (B1) (A1) (B2) (A2) (B1) (B1) (B2)
                 (A1) (B2) (B1) (A1) (A2) (B2) (A1) (B1) (B2) (A1)
                 (A2) (B2) (B1) (A1) (A2) (B1) (B2) (A2) (A1) (A1)
                 (B2) (B1) (B2) (A2) (A1) (B2) (A1) (B2) (A2) (A1)
                 (B1) (A1) (B2) (A1) (B2) (A1) (B2) (A1)
 Beta  Orbitals:
       Occupied  (A1) (A1) (B2) (B2) (A1) (A1) (A1) (B2) (A1) (B2)
                 (B1) (A1) (A1) (B2) (A2) (B1)
       Virtual   (B2) (A1) (B1) (A2) (A1) (B2) (A1) (B1) (B2) (A1)
                 (B2) (A1) (A2) (B2) (A1) (B1) (A1) (B2) (A2) (B2)
                 (A1) (B2) (B1) (B2) (A1) (B2) (A1) (B1) (A1) (A2)
                 (A1) (B2) (A1) (B2) (A1) (B2) (B1) (A2) (A1) (B1)
                 (A1) (B2) (A2) (B1) (A2) (B2) (B2) (A1) (B1) (B2)
                 (A1) (B2) (A1) (B1) (A1) (B2) (A2) (A2) (B1) (B2)
                 (A1) (A1) (A1) (B2) (A1) (B2) (A2) (B1) (A1) (B2)
                 (A1) (B2) (B1) (A1) (A2) (B1) (B2) (A2) (A1) (B2)
                 (B1) (A1) (B2) (A2) (B2) (A1) (B1) (B2) (A1) (A1)
                 (A1) (A2) (B2) (B1) (A1) (B1) (A1) (B2) (A2) (B2)
                 (A2) (B1) (B1) (A1) (B2) (A2) (A2) (A1) (B1) (A1)
                 (B2) (B1) (B2) (A1) (B2) (A2) (A1) (A2) (B2) (A1)
                 (B2) (B1) (A1) (A1) (B2) (A2) (B1) (A1) (B2) (A1)
                 (B2) (A2) (A1) (B2) (B1) (A1) (B2) (A2) (B1) (B1)
                 (B2) (A1) (B2) (B1) (A1) (A2) (B2) (A1) (B1) (B2)
                 (A1) (A2) (B2) (B1) (A1) (A2) (B1) (B2) (A2) (A1)
                 (A1) (B2) (B1) (B2) (A2) (A1) (B2) (A1) (B2) (A2)
                 (A1) (B1) (A1) (B2) (A1) (B2) (A1) (B2) (A1)
 The electronic state of the initial guess is 2-B2.
 Initial guess <Sx>= 0.0000 <Sy>= 0.0000 <Sz>= 0.5000 <S**2>= 0.7500 S= 0.5000
 Leave Link  401 at Thu Mar  7 08:52:04 2019, MaxMem=    33554432 cpu:         1.3
 (Enter /home/proyectos/fulerenos/M3C-v2.0/M3C-deps_CCC/g09-AM64L-G09RevC.01/l502.exe)
 UHF open shell SCF:
 Using DIIS extrapolation, IDIIS=  1040.
 Integral symmetry usage will be decided dynamically.
 IVT=      173717 IEndB=      173717 NGot=    33554432 MDV=    33448206
 LenX=    33448206 LenY=    33397140
 Requested convergence on RMS density matrix=1.00D-08 within 128 cycles.
 Requested convergence on MAX density matrix=1.00D-06.
 Requested convergence on             energy=1.00D-06.
 No special actions if energy rises.
 Fock matrices will be formed incrementally for  20 cycles.

 Cycle   1  Pass 1  IDiag  1:
 FoFJK:  IHMeth= 1 ICntrl=       0 DoSepK=F KAlg= 0 I1Cent=   0 FoldK=F
 IRaf= 990000000 NMat=   1 IRICut=       1 DoRegI=T DoRafI=F ISym2E= 1.
 FoFCou: FMM=F IPFlag=           0 FMFlag=      100000 FMFlg1=           0
         NFxFlg=           0 DoJE=F BraDBF=F KetDBF=F FulRan=T
         wScrn=  0.000000 ICntrl=       0 IOpCl=  1 I1Cent=           0 NGrid=           0
         NMat0=    1 NMatS0=      1 NMatT0=    0 NMatD0=    1 NMtDS0=    0 NMtDT0=    0
 Petite list used in FoFCou.
 E= -227.311089245364    
 DIIS: error= 2.95D-02 at cycle   1 NSaved=   1.
 NSaved= 1 IEnMin= 1 EnMin= -227.311089245364     IErMin= 1 ErrMin= 2.95D-02
 ErrMax= 2.95D-02  0.00D+00 EMaxC= 1.00D-01 BMatC= 4.92D-01 BMatP= 4.92D-01
 IDIUse=3 WtCom= 7.05D-01 WtEn= 2.95D-01
 Coeff-Com:  0.100D+01
 Coeff-En:   0.100D+01
 Coeff:      0.100D+01
 Gap=     0.097 Goal=   None    Shift=    0.000
 Gap=     0.134 Goal=   None    Shift=    0.000
 GapD=    0.097 DampG=0.500 DampE=0.500 DampFc=0.2500 IDamp=-1.
 Damping current iteration by 2.50D-01
 RMSDP=1.41D-02 MaxDP=8.05D-01              OVMax= 2.55D-01

 Cycle   2  Pass 1  IDiag  1:
 RMSU=  3.11D-03    CP:  9.42D-01
 E= -227.355088853590     Delta-E=       -0.043999608226 Rises=F Damp=T
 DIIS: error= 1.62D-02 at cycle   2 NSaved=   2.
 NSaved= 2 IEnMin= 2 EnMin= -227.355088853590     IErMin= 2 ErrMin= 1.62D-02
 ErrMax= 1.62D-02  0.00D+00 EMaxC= 1.00D-01 BMatC= 1.30D-01 BMatP= 4.92D-01
 IDIUse=3 WtCom= 8.38D-01 WtEn= 1.62D-01
 Coeff-Com: -0.561D+00 0.156D+01
 Coeff-En:   0.000D+00 0.100D+01
 Coeff:     -0.470D+00 0.147D+01
 Gap=     0.124 Goal=   None    Shift=    0.000
 Gap=     0.120 Goal=   None    Shift=    0.000
 RMSDP=8.17D-03 MaxDP=5.30D-01 DE=-4.40D-02 OVMax= 2.06D-01

 Cycle   3  Pass 1  IDiag  1:
 RMSU=  3.65D-03    CP:  7.54D-01  2.59D+00
 E= -227.412079580927     Delta-E=       -0.056990727337 Rises=F Damp=F
 DIIS: error= 2.73D-02 at cycle   3 NSaved=   3.
 NSaved= 3 IEnMin= 3 EnMin= -227.412079580927     IErMin= 2 ErrMin= 1.62D-02
 ErrMax= 2.73D-02  0.00D+00 EMaxC= 1.00D-01 BMatC= 1.19D-01 BMatP= 1.30D-01
 IDIUse=3 WtCom= 7.27D-01 WtEn= 2.73D-01
 Coeff-Com: -0.457D+00 0.993D+00 0.465D+00
 Coeff-En:   0.000D+00 0.000D+00 0.100D+01
 Coeff:     -0.332D+00 0.721D+00 0.611D+00
 Gap=     0.116 Goal=   None    Shift=    0.000
 Gap=     0.131 Goal=   None    Shift=    0.000
 RMSDP=1.53D-03 MaxDP=3.07D-02 DE=-5.70D-02 OVMax= 1.02D-01

 Cycle   4  Pass 1  IDiag  1:
 RMSU=  1.49D-03    CP:  7.53D-01  2.48D+00  1.03D+00
 E= -227.423728287460     Delta-E=       -0.011648706533 Rises=F Damp=F
 DIIS: error= 2.12D-02 at cycle   4 NSaved=   4.
 NSaved= 4 IEnMin= 4 EnMin= -227.423728287460     IErMin= 2 ErrMin= 1.62D-02
 ErrMax= 2.12D-02  0.00D+00 EMaxC= 1.00D-01 BMatC= 6.84D-02 BMatP= 1.19D-01
 IDIUse=3 WtCom= 7.88D-01 WtEn= 2.12D-01
 Coeff-Com:  0.949D-01-0.100D+00 0.400D+00 0.606D+00
 Coeff-En:   0.000D+00 0.000D+00 0.398D+00 0.602D+00
 Coeff:      0.748D-01-0.791D-01 0.400D+00 0.605D+00
 Gap=     0.120 Goal=   None    Shift=    0.000
 Gap=     0.129 Goal=   None    Shift=    0.000
 RMSDP=6.70D-04 MaxDP=2.47D-02 DE=-1.16D-02 OVMax= 4.74D-02

 Cycle   5  Pass 1  IDiag  1:
 RMSU=  2.72D-04    CP:  7.47D-01  2.51D+00  1.10D+00  6.52D-01
 E= -227.439304558500     Delta-E=       -0.015576271039 Rises=F Damp=F
 DIIS: error= 1.31D-03 at cycle   5 NSaved=   5.
 NSaved= 5 IEnMin= 5 EnMin= -227.439304558500     IErMin= 5 ErrMin= 1.31D-03
 ErrMax= 1.31D-03  0.00D+00 EMaxC= 1.00D-01 BMatC= 3.99D-04 BMatP= 6.84D-02
 IDIUse=3 WtCom= 9.87D-01 WtEn= 1.31D-02
 Coeff-Com: -0.869D-04-0.110D-01 0.466D-01 0.114D+00 0.851D+00
 Coeff-En:   0.000D+00 0.000D+00 0.000D+00 0.000D+00 0.100D+01
 Coeff:     -0.858D-04-0.108D-01 0.459D-01 0.112D+00 0.853D+00
 Gap=     0.120 Goal=   None    Shift=    0.000
 Gap=     0.130 Goal=   None    Shift=    0.000
 RMSDP=1.05D-04 MaxDP=4.76D-03 DE=-1.56D-02 OVMax= 6.29D-03

 Cycle   6  Pass 1  IDiag  1:
 RMSU=  6.72D-05    CP:  7.46D-01  2.53D+00  1.11D+00  6.71D-01  1.02D+00
 E= -227.439410827786     Delta-E=       -0.000106269287 Rises=F Damp=F
 DIIS: error= 4.99D-04 at cycle   6 NSaved=   6.
 NSaved= 6 IEnMin= 6 EnMin= -227.439410827786     IErMin= 6 ErrMin= 4.99D-04
 ErrMax= 4.99D-04  0.00D+00 EMaxC= 1.00D-01 BMatC= 6.25D-05 BMatP= 3.99D-04
 IDIUse=3 WtCom= 9.95D-01 WtEn= 4.99D-03
 Coeff-Com: -0.958D-02 0.582D-02-0.107D-01 0.786D-02 0.461D+00 0.545D+00
 Coeff-En:   0.000D+00 0.000D+00 0.000D+00 0.000D+00 0.000D+00 0.100D+01
 Coeff:     -0.953D-02 0.579D-02-0.106D-01 0.782D-02 0.459D+00 0.548D+00
 Gap=     0.120 Goal=   None    Shift=    0.000
 Gap=     0.130 Goal=   None    Shift=    0.000
 RMSDP=3.77D-05 MaxDP=1.27D-03 DE=-1.06D-04 OVMax= 1.77D-03

 Cycle   7  Pass 1  IDiag  1:
 RMSU=  2.53D-05    CP:  7.46D-01  2.53D+00  1.11D+00  6.64D-01  1.10D+00
                    CP:  9.71D-01
 E= -227.439426586306     Delta-E=       -0.000015758519 Rises=F Damp=F
 DIIS: error= 1.99D-04 at cycle   7 NSaved=   7.
 NSaved= 7 IEnMin= 7 EnMin= -227.439426586306     IErMin= 7 ErrMin= 1.99D-04
 ErrMax= 1.99D-04  0.00D+00 EMaxC= 1.00D-01 BMatC= 1.52D-05 BMatP= 6.25D-05
 IDIUse=3 WtCom= 9.98D-01 WtEn= 1.99D-03
 Coeff-Com: -0.811D-02 0.104D-01-0.242D-01-0.362D-01-0.560D-02 0.322D+00
 Coeff-Com:  0.742D+00
 Coeff-En:   0.000D+00 0.000D+00 0.000D+00 0.000D+00 0.000D+00 0.000D+00
 Coeff-En:   0.100D+01
 Coeff:     -0.810D-02 0.104D-01-0.242D-01-0.361D-01-0.559D-02 0.321D+00
 Coeff:      0.742D+00
 Gap=     0.121 Goal=   None    Shift=    0.000
 Gap=     0.131 Goal=   None    Shift=    0.000
 RMSDP=2.28D-05 MaxDP=6.52D-04 DE=-1.58D-05 OVMax= 1.68D-03

 Cycle   8  Pass 1  IDiag  1:
 RMSU=  1.47D-05    CP:  7.46D-01  2.53D+00  1.11D+00  6.69D-01  1.13D+00
                    CP:  1.11D+00  1.21D+00
 E= -227.439433537311     Delta-E=       -0.000006951005 Rises=F Damp=F
 DIIS: error= 5.89D-05 at cycle   8 NSaved=   8.
 NSaved= 8 IEnMin= 8 EnMin= -227.439433537311     IErMin= 8 ErrMin= 5.89D-05
 ErrMax= 5.89D-05  0.00D+00 EMaxC= 1.00D-01 BMatC= 1.60D-06 BMatP= 1.52D-05
 IDIUse=1 WtCom= 1.00D+00 WtEn= 0.00D+00
 Coeff-Com:  0.130D-02-0.763D-03-0.340D-02-0.103D-01-0.104D+00-0.364D-01
 Coeff-Com:  0.203D+00 0.951D+00
 Coeff:      0.130D-02-0.763D-03-0.340D-02-0.103D-01-0.104D+00-0.364D-01
 Coeff:      0.203D+00 0.951D+00
 Gap=     0.121 Goal=   None    Shift=    0.000
 Gap=     0.131 Goal=   None    Shift=    0.000
 RMSDP=1.34D-05 MaxDP=3.32D-04 DE=-6.95D-06 OVMax= 1.24D-03

 Cycle   9  Pass 1  IDiag  1:
 RMSU=  8.58D-06    CP:  7.46D-01  2.53D+00  1.11D+00  6.69D-01  1.13D+00
                    CP:  1.22D+00  1.39D+00  1.35D+00
 E= -227.439435210588     Delta-E=       -0.000001673276 Rises=F Damp=F
 DIIS: error= 2.69D-05 at cycle   9 NSaved=   9.
 NSaved= 9 IEnMin= 9 EnMin= -227.439435210588     IErMin= 9 ErrMin= 2.69D-05
 ErrMax= 2.69D-05  0.00D+00 EMaxC= 1.00D-01 BMatC= 2.12D-07 BMatP= 1.60D-06
 IDIUse=1 WtCom= 1.00D+00 WtEn= 0.00D+00
 Coeff-Com:  0.189D-02-0.254D-02 0.388D-02 0.524D-02-0.938D-02-0.548D-01
 Coeff-Com: -0.863D-01 0.533D-01 0.109D+01
 Coeff:      0.189D-02-0.254D-02 0.388D-02 0.524D-02-0.938D-02-0.548D-01
 Coeff:     -0.863D-01 0.533D-01 0.109D+01
 Gap=     0.121 Goal=   None    Shift=    0.000
 Gap=     0.131 Goal=   None    Shift=    0.000
 RMSDP=8.19D-06 MaxDP=4.07D-04 DE=-1.67D-06 OVMax= 7.44D-04

 Cycle  10  Pass 1  IDiag  1:
 RMSU=  2.65D-06    CP:  7.46D-01  2.53D+00  1.11D+00  6.68D-01  1.13D+00
                    CP:  1.23D+00  1.50D+00  1.66D+00  1.51D+00
 E= -227.439435577838     Delta-E=       -0.000000367251 Rises=F Damp=F
 DIIS: error= 1.47D-05 at cycle  10 NSaved=  10.
 NSaved=10 IEnMin=10 EnMin= -227.439435577838     IErMin=10 ErrMin= 1.47D-05
 ErrMax= 1.47D-05  0.00D+00 EMaxC= 1.00D-01 BMatC= 5.61D-08 BMatP= 2.12D-07
 IDIUse=1 WtCom= 1.00D+00 WtEn= 0.00D+00
 Coeff-Com: -0.136D-02 0.177D-02-0.837D-03 0.463D-03 0.272D-01 0.338D-01
 Coeff-Com: -0.125D-01-0.288D+00-0.272D+00 0.151D+01
 Coeff:     -0.136D-02 0.177D-02-0.837D-03 0.463D-03 0.272D-01 0.338D-01
 Coeff:     -0.125D-01-0.288D+00-0.272D+00 0.151D+01
 Gap=     0.121 Goal=   None    Shift=    0.000
 Gap=     0.131 Goal=   None    Shift=    0.000
 RMSDP=6.67D-06 MaxDP=3.27D-04 DE=-3.67D-07 OVMax= 5.38D-04

 Cycle  11  Pass 1  IDiag  1:
 RMSU=  2.06D-06    CP:  7.46D-01  2.53D+00  1.11D+00  6.69D-01  1.12D+00
                    CP:  1.24D+00  1.56D+00  1.85D+00  1.95D+00  1.81D+00
 E= -227.439435676343     Delta-E=       -0.000000098505 Rises=F Damp=F
 DIIS: error= 3.76D-06 at cycle  11 NSaved=  11.
 NSaved=11 IEnMin=11 EnMin= -227.439435676343     IErMin=11 ErrMin= 3.76D-06
 ErrMax= 3.76D-06  0.00D+00 EMaxC= 1.00D-01 BMatC= 4.79D-09 BMatP= 5.61D-08
 IDIUse=1 WtCom= 1.00D+00 WtEn= 0.00D+00
 Coeff-Com:  0.219D-03-0.317D-03-0.118D-03-0.557D-03-0.464D-02-0.251D-02
 Coeff-Com:  0.127D-01 0.432D-01-0.365D-01-0.258D+00 0.125D+01
 Coeff:      0.219D-03-0.317D-03-0.118D-03-0.557D-03-0.464D-02-0.251D-02
 Coeff:      0.127D-01 0.432D-01-0.365D-01-0.258D+00 0.125D+01
 Gap=     0.121 Goal=   None    Shift=    0.000
 Gap=     0.131 Goal=   None    Shift=    0.000
 RMSDP=1.28D-06 MaxDP=4.85D-05 DE=-9.85D-08 OVMax= 1.07D-04

 Cycle  12  Pass 1  IDiag  1:
 RMSU=  3.69D-07    CP:  7.46D-01  2.53D+00  1.11D+00  6.69D-01  1.12D+00
                    CP:  1.25D+00  1.57D+00  1.88D+00  2.03D+00  2.00D+00
                    CP:  1.21D+00
 E= -227.439435681297     Delta-E=       -0.000000004954 Rises=F Damp=F
 DIIS: error= 8.43D-07 at cycle  12 NSaved=  12.
 NSaved=12 IEnMin=12 EnMin= -227.439435681297     IErMin=12 ErrMin= 8.43D-07
 ErrMax= 8.43D-07  0.00D+00 EMaxC= 1.00D-01 BMatC= 2.89D-10 BMatP= 4.79D-09
 IDIUse=1 WtCom= 1.00D+00 WtEn= 0.00D+00
 Coeff-Com:  0.666D-04-0.742D-04 0.650D-04 0.130D-04-0.171D-02-0.223D-02
 Coeff-Com: -0.157D-02 0.169D-01 0.405D-01-0.872D-01-0.312D+00 0.135D+01
 Coeff:      0.666D-04-0.742D-04 0.650D-04 0.130D-04-0.171D-02-0.223D-02
 Coeff:     -0.157D-02 0.169D-01 0.405D-01-0.872D-01-0.312D+00 0.135D+01
 Gap=     0.121 Goal=   None    Shift=    0.000
 Gap=     0.131 Goal=   None    Shift=    0.000
 RMSDP=4.22D-07 MaxDP=1.23D-05 DE=-4.95D-09 OVMax= 3.30D-05

 Cycle  13  Pass 1  IDiag  1:
 RMSU=  1.14D-07    CP:  7.46D-01  2.53D+00  1.11D+00  6.69D-01  1.12D+00
                    CP:  1.25D+00  1.57D+00  1.89D+00  2.05D+00  2.04D+00
                    CP:  1.30D+00  1.59D+00
 E= -227.439435681901     Delta-E=       -0.000000000604 Rises=F Damp=F
 DIIS: error= 7.39D-07 at cycle  13 NSaved=  13.
 NSaved=13 IEnMin=13 EnMin= -227.439435681901     IErMin=13 ErrMin= 7.39D-07
 ErrMax= 7.39D-07  0.00D+00 EMaxC= 1.00D-01 BMatC= 7.42D-11 BMatP= 2.89D-10
 IDIUse=1 WtCom= 1.00D+00 WtEn= 0.00D+00
 Coeff-Com: -0.306D-04 0.425D-04 0.222D-04 0.110D-03 0.693D-03 0.267D-03
 Coeff-Com: -0.148D-02-0.737D-02 0.490D-02 0.357D-01-0.147D+00-0.141D+00
 Coeff-Com:  0.126D+01
 Coeff:     -0.306D-04 0.425D-04 0.222D-04 0.110D-03 0.693D-03 0.267D-03
 Coeff:     -0.148D-02-0.737D-02 0.490D-02 0.357D-01-0.147D+00-0.141D+00
 Coeff:      0.126D+01
 Gap=     0.121 Goal=   None    Shift=    0.000
 Gap=     0.131 Goal=   None    Shift=    0.000
 RMSDP=2.37D-07 MaxDP=1.21D-05 DE=-6.04D-10 OVMax= 1.61D-05

 Cycle  14  Pass 1  IDiag  1:
 RMSU=  4.17D-08    CP:  7.46D-01  2.53D+00  1.11D+00  6.69D-01  1.12D+00
                    CP:  1.25D+00  1.57D+00  1.90D+00  2.06D+00  2.06D+00
                    CP:  1.33D+00  1.86D+00  1.61D+00
 E= -227.439435682020     Delta-E=       -0.000000000119 Rises=F Damp=F
 DIIS: error= 1.38D-07 at cycle  14 NSaved=  14.
 NSaved=14 IEnMin=14 EnMin= -227.439435682020     IErMin=14 ErrMin= 1.38D-07
 ErrMax= 1.38D-07  0.00D+00 EMaxC= 1.00D-01 BMatC= 6.21D-12 BMatP= 7.42D-11
 IDIUse=1 WtCom= 1.00D+00 WtEn= 0.00D+00
 Coeff-Com:  0.504D-05-0.902D-05-0.601D-05-0.231D-04-0.290D-04 0.129D-03
 Coeff-Com:  0.499D-03-0.615D-04-0.410D-02-0.345D-03 0.627D-01-0.128D+00
 Coeff-Com: -0.321D+00 0.139D+01
 Coeff:      0.504D-05-0.902D-05-0.601D-05-0.231D-04-0.290D-04 0.129D-03
 Coeff:      0.499D-03-0.615D-04-0.410D-02-0.345D-03 0.627D-01-0.128D+00
 Coeff:     -0.321D+00 0.139D+01
 Gap=     0.121 Goal=   None    Shift=    0.000
 Gap=     0.131 Goal=   None    Shift=    0.000
 RMSDP=9.30D-08 MaxDP=4.76D-06 DE=-1.19D-10 OVMax= 6.40D-06

 Cycle  15  Pass 1  IDiag  1:
 RMSU=  1.74D-08    CP:  7.46D-01  2.53D+00  1.11D+00  6.69D-01  1.12D+00
                    CP:  1.25D+00  1.57D+00  1.90D+00  2.07D+00  2.07D+00
                    CP:  1.35D+00  1.97D+00  1.86D+00  1.53D+00
 E= -227.439435682034     Delta-E=       -0.000000000014 Rises=F Damp=F
 DIIS: error= 2.76D-08 at cycle  15 NSaved=  15.
 NSaved=15 IEnMin=15 EnMin= -227.439435682034     IErMin=15 ErrMin= 2.76D-08
 ErrMax= 2.76D-08  0.00D+00 EMaxC= 1.00D-01 BMatC= 3.28D-13 BMatP= 6.21D-12
 IDIUse=1 WtCom= 1.00D+00 WtEn= 0.00D+00
 Coeff-Com: -0.106D-05 0.206D-05-0.259D-05-0.409D-05-0.107D-04 0.203D-04
 Coeff-Com: -0.825D-05 0.124D-03 0.306D-03-0.982D-03-0.362D-02 0.373D-01
 Coeff-Com: -0.145D-01-0.357D+00 0.134D+01
 Coeff:     -0.106D-05 0.206D-05-0.259D-05-0.409D-05-0.107D-04 0.203D-04
 Coeff:     -0.825D-05 0.124D-03 0.306D-03-0.982D-03-0.362D-02 0.373D-01
 Coeff:     -0.145D-01-0.357D+00 0.134D+01
 Gap=     0.121 Goal=   None    Shift=    0.000
 Gap=     0.131 Goal=   None    Shift=    0.000
 RMSDP=2.01D-08 MaxDP=1.13D-06 DE=-1.43D-11 OVMax= 1.09D-06

 Cycle  16  Pass 1  IDiag  1:
 RMSU=  2.73D-09    CP:  7.46D-01  2.53D+00  1.11D+00  6.69D-01  1.12D+00
                    CP:  1.25D+00  1.57D+00  1.90D+00  2.07D+00  2.07D+00
                    CP:  1.35D+00  1.99D+00  1.90D+00  1.67D+00  1.35D+00
 E= -227.439435682033     Delta-E=        0.000000000001 Rises=F Damp=F
 DIIS: error= 5.37D-09 at cycle  16 NSaved=  16.
 NSaved=16 IEnMin=15 EnMin= -227.439435682034     IErMin=16 ErrMin= 5.37D-09
 ErrMax= 5.37D-09  0.00D+00 EMaxC= 1.00D-01 BMatC= 1.24D-14 BMatP= 3.28D-13
 IDIUse=1 WtCom= 1.00D+00 WtEn= 0.00D+00
 Coeff-Com: -0.632D-08 0.100D-07 0.539D-06 0.947D-06-0.154D-05-0.155D-04
 Coeff-Com: -0.186D-04 0.382D-04 0.251D-03-0.270D-03-0.251D-02 0.456D-02
 Coeff-Com:  0.164D-01-0.528D-01-0.455D-01 0.108D+01
 Coeff:     -0.632D-08 0.100D-07 0.539D-06 0.947D-06-0.154D-05-0.155D-04
 Coeff:     -0.186D-04 0.382D-04 0.251D-03-0.270D-03-0.251D-02 0.456D-02
 Coeff:      0.164D-01-0.528D-01-0.455D-01 0.108D+01
 Gap=     0.121 Goal=   None    Shift=    0.000
 Gap=     0.131 Goal=   None    Shift=    0.000
 RMSDP=1.95D-09 MaxDP=1.18D-07 DE= 9.09D-13 OVMax= 6.99D-08

 SCF Done:  E(UB3LYP) =  -227.439435682     A.U. after   16 cycles
            NFock= 16  Conv=0.19D-08     -V/T= 2.0040
 <Sx>= 0.0000 <Sy>= 0.0000 <Sz>= 0.5000 <S**2>= 0.7747 S= 0.5123
 <L.S>= 0.000000000000E+00
 KE= 2.265429779366D+02 PE=-7.712884099425D+02 EE= 2.005097359682D+02
 Annihilation of the first spin contaminant:
 S**2 before annihilation     0.7747,   after     0.7502
 Leave Link  502 at Thu Mar  7 08:53:52 2019, MaxMem=    33554432 cpu:       217.4
 (Enter /home/proyectos/fulerenos/M3C-v2.0/M3C-deps_CCC/g09-AM64L-G09RevC.01/l801.exe)
 DoSCS=F DFT=T ScalE2(SS,OS)=  1.000000  1.000000
 Range of M.O.s used for correlation:     1   195
 NBasis=   195 NAE=    17 NBE=    16 NFC=     0 NFV=     0
 NROrb=    195 NOA=    17 NOB=    16 NVA=   178 NVB=   179

 **** Warning!!: The largest alpha MO coefficient is  0.18572975D+03


 **** Warning!!: The largest beta MO coefficient is  0.18661018D+03

 Leave Link  801 at Thu Mar  7 08:53:52 2019, MaxMem=    33554432 cpu:         0.1
 (Enter /home/proyectos/fulerenos/M3C-v2.0/M3C-deps_CCC/g09-AM64L-G09RevC.01/l1101.exe)
 Using compressed storage, NAtomX=     5.
 Will process      6 centers per pass.
 Leave Link 1101 at Thu Mar  7 08:53:53 2019, MaxMem=    33554432 cpu:         1.1
 (Enter /home/proyectos/fulerenos/M3C-v2.0/M3C-deps_CCC/g09-AM64L-G09RevC.01/l1102.exe)
 Symmetrizing basis deriv contribution to polar:
 IMax=3 JMax=2 DiffMx= 0.00D+00
 Leave Link 1102 at Thu Mar  7 08:53:53 2019, MaxMem=    33554432 cpu:         0.2
 (Enter /home/proyectos/fulerenos/M3C-v2.0/M3C-deps_CCC/g09-AM64L-G09RevC.01/l1110.exe)
 Forming Gx(P) for the SCF density, NAtomX=     5.
 Integral derivatives from FoFJK, PRISM(SPDF).
 Do as many integral derivatives as possible in FoFJK.
 G2DrvN: MDV=      33554288.
 G2DrvN: will do     6 centers at a time, making    1 passes.
 Calling FoFCou, ICntrl=  3107 FMM=F I1Cent=   0 AccDes= 0.00D+00.
 FoFJK:  IHMeth= 1 ICntrl=    3107 DoSepK=F KAlg= 0 I1Cent=   0 FoldK=F
 IRaf=         0 NMat=   1 IRICut=       1 DoRegI=T DoRafI=F ISym2E= 1.
 FoFCou: FMM=F IPFlag=           0 FMFlag=      100000 FMFlg1=           0
         NFxFlg=           0 DoJE=F BraDBF=F KetDBF=F FulRan=T
         wScrn=  0.000000 ICntrl=    3107 IOpCl=  1 I1Cent=           0 NGrid=           0
         NMat0=    1 NMatS0=      1 NMatT0=    0 NMatD0=    1 NMtDS0=    0 NMtDT0=    0
 Petite list used in FoFCou.
 End of G2Drv F.D. properties file   721 does not exist.
 End of G2Drv F.D. properties file   722 does not exist.
 End of G2Drv F.D. properties file   788 does not exist.
 Leave Link 1110 at Thu Mar  7 08:54:57 2019, MaxMem=    33554432 cpu:       127.9
 (Enter /home/proyectos/fulerenos/M3C-v2.0/M3C-deps_CCC/g09-AM64L-G09RevC.01/l1002.exe)
 Minotr:  UHF open shell wavefunction.
          IDoAtm=11111
          Direct CPHF calculation.
          Differentiating once with respect to electric field.
                with respect to dipole field.
          Differentiating once with respect to nuclear coordinates.
          Using symmetry in CPHF.
          Requested convergence is 1.0D-08 RMS, and 1.0D-07 maximum.
          Secondary convergence is 1.0D-12 RMS, and 1.0D-12 maximum.
          NewPWx=T KeepS1=F KeepF1=F KeepIn=T MapXYZ=F SortEE=F KeepMc=T.
          MDV=      33553988 using IRadAn=       2.
 Generate precomputed XC quadrature information.
          Solving linear equations simultaneously, MaxMat=       0.
 FoFJK:  IHMeth= 1 ICntrl=       0 DoSepK=F KAlg= 0 I1Cent=   0 FoldK=F
 IRaf= 990000000 NMat=  12 IRICut=      30 DoRegI=T DoRafI=T ISym2E= 2.
 FoFCou: FMM=F IPFlag=           0 FMFlag=      100000 FMFlg1=           0
         NFxFlg=           0 DoJE=F BraDBF=F KetDBF=F FulRan=T
         wScrn=  0.000000 ICntrl=       0 IOpCl=  1 I1Cent=           0 NGrid=           0
         NMat0=   12 NMatS0=     12 NMatT0=    0 NMatD0=   12 NMtDS0=    0 NMtDT0=    0
 Integrals replicated using symmetry in FoFCou.
          There are    12 degrees of freedom in the 1st order CPHF.  IDoFFX=4 NUNeed=    12.
     12 vectors produced by pass  0 Test12= 4.91D-14 8.33D-09 XBig12= 6.22D+02 1.94D+01.
 AX will form    12 AO Fock derivatives at one time.
     12 vectors produced by pass  1 Test12= 4.91D-14 8.33D-09 XBig12= 4.47D+02 6.51D+00.
     12 vectors produced by pass  2 Test12= 4.91D-14 8.33D-09 XBig12= 5.38D+01 2.89D+00.
     12 vectors produced by pass  3 Test12= 4.91D-14 8.33D-09 XBig12= 4.95D+00 7.75D-01.
     12 vectors produced by pass  4 Test12= 4.91D-14 8.33D-09 XBig12= 2.09D-01 8.71D-02.
     12 vectors produced by pass  5 Test12= 4.91D-14 8.33D-09 XBig12= 4.69D-03 1.54D-02.
     12 vectors produced by pass  6 Test12= 4.91D-14 8.33D-09 XBig12= 4.64D-05 1.05D-03.
     12 vectors produced by pass  7 Test12= 4.91D-14 8.33D-09 XBig12= 3.97D-07 1.01D-04.
     10 vectors produced by pass  8 Test12= 4.91D-14 8.33D-09 XBig12= 2.37D-09 9.64D-06.
      5 vectors produced by pass  9 Test12= 4.91D-14 8.33D-09 XBig12= 1.84D-11 7.24D-07.
      2 vectors produced by pass 10 Test12= 4.91D-14 8.33D-09 XBig12= 3.95D-13 2.22D-07.
      2 vectors produced by pass 11 Test12= 4.91D-14 8.33D-09 XBig12= 1.59D-13 1.49D-07.
      1 vectors produced by pass 12 Test12= 4.91D-14 8.33D-09 XBig12= 5.91D-15 2.92D-08.
 InvSVY:  IOpt=1 It=  1 EMax= 3.55D-15
 Solved reduced A of dimension   116 with    12 vectors.
 FullF1:  Do perturbations    1 to    12.
 Isotropic polarizability for W=    0.000000       75.82 Bohr**3.
 End of Minotr F.D. properties file   721 does not exist.
 End of Minotr F.D. properties file   722 does not exist.
 End of Minotr F.D. properties file   788 does not exist.
 Leave Link 1002 at Thu Mar  7 09:01:35 2019, MaxMem=    33554432 cpu:       795.0
 (Enter /home/proyectos/fulerenos/M3C-v2.0/M3C-deps_CCC/g09-AM64L-G09RevC.01/l601.exe)
 Copying SCF densities to generalized density rwf, IOpCl= 1 IROHF=0.

 **********************************************************************

            Population analysis using the SCF density.

 **********************************************************************

 Orbital symmetries:
 Alpha Orbitals:
       Occupied  (A1) (A1) (B2) (B2) (A1) (A1) (A1) (B2) (A1) (B2)
                 (B1) (A1) (A1) (B2) (A2) (B1) (B2)
       Virtual   (A1) (A1) (B1) (B2) (A1) (B2) (A2) (A1) (B1) (B2)
                 (A1) (B1) (A2) (A1) (B2) (A2) (A1) (B2) (A1) (B2)
                 (B2) (B1) (A1) (B2) (B2) (A1) (B1) (A1) (A2) (A1)
                 (B2) (B2) (A1) (A1) (B2) (B1) (A1) (A2) (A1) (B1)
                 (B2) (A2) (B1) (B2) (A2) (B2) (A1) (B1) (B2) (A1)
                 (A1) (B1) (B2) (A1) (A2) (B2) (A2) (B1) (B2) (A1)
                 (A1) (A1) (B2) (A1) (B2) (A2) (B1) (A1) (B2) (A1)
                 (B2) (B1) (A1) (A2) (B1) (B2) (A2) (A1) (B2) (B1)
                 (A1) (B2) (A2) (B2) (A1) (B1) (A1) (B2) (A1) (A2)
                 (A1) (B2) (B1) (A1) (B1) (A1) (B2) (A2) (B2) (A2)
                 (B1) (A1) (B1) (B2) (A2) (A2) (A1) (B1) (B2) (A1)
                 (B1) (A1) (B2) (B2) (A2) (A1) (A2) (B2) (A1) (B1)
                 (B2) (A1) (A1) (A2) (B2) (B1) (A1) (B2) (A1) (B2)
                 (A2) (A1) (B2) (B1) (A1) (B2) (A2) (B1) (B1) (B2)
                 (A1) (B2) (B1) (A1) (A2) (B2) (A1) (B2) (B1) (A1)
                 (A2) (B2) (B1) (A1) (A2) (B1) (B2) (A1) (A2) (A1)
                 (B2) (B1) (B2) (A2) (A1) (B2) (A1) (B2) (A2) (A1)
                 (B1) (A1) (B2) (A1) (B2) (A1) (B2) (A1)
 Beta  Orbitals:
       Occupied  (A1) (A1) (B2) (B2) (A1) (A1) (A1) (B2) (A1) (B2)
                 (B1) (A1) (B2) (A1) (B1) (A2)
       Virtual   (B2) (A1) (A1) (B1) (B2) (A1) (B2) (A2) (B1) (A1)
                 (B2) (A1) (B1) (A2) (A1) (B2) (A2) (A1) (B2) (A1)
                 (B2) (B1) (B2) (A1) (B2) (B2) (A1) (B1) (A1) (A2)
                 (A1) (B2) (B2) (A1) (A1) (B2) (B1) (A2) (A1) (B1)
                 (A1) (A2) (B1) (B2) (B2) (A2) (B2) (A1) (B1) (B2)
                 (A1) (A1) (B1) (B2) (A1) (A2) (B2) (A2) (B1) (B2)
                 (A1) (A1) (A1) (B2) (A1) (B2) (A2) (B1) (A1) (B2)
                 (A1) (B2) (B1) (A2) (A1) (B1) (B2) (A2) (A1) (B2)
                 (B1) (A1) (B2) (A2) (B2) (A1) (B1) (A1) (B2) (A1)
                 (A2) (A1) (B2) (B1) (A1) (B1) (B2) (A1) (A2) (B2)
                 (A2) (B1) (B1) (A1) (B2) (A2) (A1) (A2) (B1) (A1)
                 (B2) (B1) (A1) (B2) (B2) (A2) (A1) (A2) (B2) (A1)
                 (B1) (B2) (A1) (A1) (A2) (B2) (B1) (A1) (B2) (A1)
                 (B2) (A2) (A1) (B2) (B1) (A1) (B2) (A2) (B1) (B1)
                 (B2) (A1) (B2) (B1) (A1) (A2) (B2) (A1) (B2) (B1)
                 (A1) (A2) (B2) (B1) (A1) (A2) (B1) (B2) (A2) (A1)
                 (A1) (B2) (B1) (A2) (B2) (A1) (B2) (A1) (B2) (A2)
                 (A1) (B1) (A1) (B2) (A1) (B2) (A1) (B2) (A1)
 The electronic state is 2-B2.
 Alpha  occ. eigenvalues --  -19.05246 -10.07087 -10.07070 -10.01347 -10.01345
 Alpha  occ. eigenvalues --   -0.97737  -0.58161  -0.57541  -0.42808  -0.37223
 Alpha  occ. eigenvalues --   -0.30161  -0.20561  -0.12430  -0.11936  -0.09150
 Alpha  occ. eigenvalues --   -0.09055  -0.05206
 Alpha virt. eigenvalues --    0.06881   0.15653   0.17010   0.17264   0.17871
 Alpha virt. eigenvalues --    0.18870   0.20275   0.20696   0.21172   0.23028
 Alpha virt. eigenvalues --    0.23386   0.25231   0.26402   0.27697   0.28066
 Alpha virt. eigenvalues --    0.29731   0.30105   0.31911   0.33528   0.34184
 Alpha virt. eigenvalues --    0.35793   0.36219   0.37537   0.39221   0.43225
 Alpha virt. eigenvalues --    0.45754   0.49302   0.49929   0.54889   0.55812
 Alpha virt. eigenvalues --    0.57960   0.59591   0.60516   0.61271   0.62557
 Alpha virt. eigenvalues --    0.65589   0.66957   0.67371   0.69225   0.69853
 Alpha virt. eigenvalues --    0.70910   0.72257   0.72612   0.72948   0.75554
 Alpha virt. eigenvalues --    0.77695   0.79547   0.83490   0.84866   0.91919
 Alpha virt. eigenvalues --    0.95148   0.96950   0.97690   1.01985   1.03250
 Alpha virt. eigenvalues --    1.03748   1.08725   1.13144   1.16620   1.18790
 Alpha virt. eigenvalues --    1.22617   1.28681   1.32804   1.35195   1.38780
 Alpha virt. eigenvalues --    1.40808   1.44420   1.47537   1.52647   1.56157
 Alpha virt. eigenvalues --    1.56222   1.59625   1.70278   1.70578   1.72665
 Alpha virt. eigenvalues --    1.77452   1.79490   1.79860   1.81311   1.92711
 Alpha virt. eigenvalues --    1.95287   1.98062   2.00471   2.14689   2.20984
 Alpha virt. eigenvalues --    2.23633   2.31107   2.31564   2.36945   2.46581
 Alpha virt. eigenvalues --    2.46694   2.59450   2.71513   2.80405   2.81814
 Alpha virt. eigenvalues --    2.88629   2.89021   2.91220   2.92057   2.94653
 Alpha virt. eigenvalues --    2.95802   3.00255   3.01244   3.05347   3.08828
 Alpha virt. eigenvalues --    3.10041   3.10737   3.14293   3.17155   3.17508
 Alpha virt. eigenvalues --    3.21998   3.27438   3.28752   3.37894   3.40702
 Alpha virt. eigenvalues --    3.42011   3.44381   3.48619   3.58911   3.60264
 Alpha virt. eigenvalues --    3.60275   3.75936   3.90942   3.94255   3.94553
 Alpha virt. eigenvalues --    4.01613   4.14170   4.18816   4.25108   4.29973
 Alpha virt. eigenvalues --    4.39715   4.53988   4.62890   4.68567   5.02019
 Alpha virt. eigenvalues --    5.11543   5.30613   5.33549   5.38304   5.49315
 Alpha virt. eigenvalues --    5.61492   5.80929   6.15334   6.15461   6.19883
 Alpha virt. eigenvalues --    6.29088   6.90384   7.10313   7.12213   7.15220
 Alpha virt. eigenvalues --    7.18964   7.21667   7.25035   7.25367   7.31445
 Alpha virt. eigenvalues --    7.40506   7.41624   7.49111   7.49394   7.53726
 Alpha virt. eigenvalues --    7.54649   7.66629   7.80905   7.81425   7.88818
 Alpha virt. eigenvalues --    8.43969   8.57721   8.65950  14.57078  14.58687
 Alpha virt. eigenvalues --   14.60498  14.90115  15.35163  24.10748  24.23336
 Alpha virt. eigenvalues --   26.29384  26.32803  50.35875
  Beta  occ. eigenvalues --  -19.05103 -10.07057 -10.07038 -10.00700 -10.00699
  Beta  occ. eigenvalues --   -0.97597  -0.56573  -0.55701  -0.42552  -0.35941
  Beta  occ. eigenvalues --   -0.30177  -0.18974  -0.10850  -0.10802  -0.08672
  Beta  occ. eigenvalues --   -0.08583
  Beta virt. eigenvalues --    0.04498   0.09763   0.16097   0.17078   0.17373
  Beta virt. eigenvalues --    0.17984   0.19110   0.20244   0.21427   0.21553
  Beta virt. eigenvalues --    0.23198   0.23423   0.25321   0.26607   0.27805
  Beta virt. eigenvalues --    0.28228   0.29901   0.30756   0.31994   0.34119
  Beta virt. eigenvalues --    0.34357   0.36270   0.36586   0.37710   0.40865
  Beta virt. eigenvalues --    0.43655   0.45945   0.49913   0.50460   0.55769
  Beta virt. eigenvalues --    0.55895   0.58272   0.60882   0.61017   0.61569
  Beta virt. eigenvalues --    0.62807   0.65672   0.67586   0.67848   0.69892
  Beta virt. eigenvalues --    0.70463   0.72241   0.72730   0.72798   0.73160
  Beta virt. eigenvalues --    0.75868   0.78464   0.80544   0.83816   0.85493
  Beta virt. eigenvalues --    0.92106   0.95860   0.96966   0.98123   1.02455
  Beta virt. eigenvalues --    1.03276   1.04843   1.09071   1.13090   1.17449
  Beta virt. eigenvalues --    1.18931   1.22982   1.29038   1.33172   1.35489
  Beta virt. eigenvalues --    1.39305   1.40939   1.44429   1.48427   1.53375
  Beta virt. eigenvalues --    1.56525   1.56998   1.59865   1.71805   1.72413
  Beta virt. eigenvalues --    1.74224   1.80095   1.80664   1.81091   1.82390
  Beta virt. eigenvalues --    1.93765   1.96174   1.99352   2.01441   2.15777
  Beta virt. eigenvalues --    2.21977   2.23856   2.31821   2.32375   2.37817
  Beta virt. eigenvalues --    2.46866   2.47137   2.60670   2.72227   2.81659
  Beta virt. eigenvalues --    2.82299   2.90236   2.90410   2.92124   2.94038
  Beta virt. eigenvalues --    2.95859   2.97029   3.01796   3.02829   3.07244
  Beta virt. eigenvalues --    3.09166   3.11777   3.11832   3.15416   3.18728
  Beta virt. eigenvalues --    3.19873   3.22578   3.28241   3.29566   3.38669
  Beta virt. eigenvalues --    3.41538   3.43397   3.44888   3.49694   3.60044
  Beta virt. eigenvalues --    3.60982   3.61432   3.76404   3.91028   3.94634
  Beta virt. eigenvalues --    3.94776   4.02009   4.15336   4.19924   4.25795
  Beta virt. eigenvalues --    4.30951   4.40289   4.54377   4.63678   4.68735
  Beta virt. eigenvalues --    5.03387   5.12454   5.30861   5.33841   5.38482
  Beta virt. eigenvalues --    5.49921   5.61496   5.81549   6.15253   6.15785
  Beta virt. eigenvalues --    6.20083   6.29973   6.90863   7.11413   7.13833
  Beta virt. eigenvalues --    7.17194   7.22074   7.24857   7.26951   7.27019
  Beta virt. eigenvalues --    7.31837   7.40615   7.42181   7.49648   7.51486
  Beta virt. eigenvalues --    7.54861   7.57003   7.66680   7.81345   7.81711
  Beta virt. eigenvalues --    7.89457   8.44406   8.58106   8.66380  14.57870
  Beta virt. eigenvalues --   14.59712  14.60231  14.89858  15.35714  24.11140
  Beta virt. eigenvalues --   24.23686  26.29849  26.33313  50.36020
          Condensed to atoms (all electrons):
               1          2          3          4          5
     1  C    8.351397   0.769165  -0.314121  -3.507442  -0.056931
     2  C    0.769165   8.351397  -3.507442  -0.314121  -0.056931
     3  C   -0.314121  -3.507442  11.304212  -0.493330  -0.007847
     4  C   -3.507442  -0.314121  -0.493330  11.304212  -0.007847
     5  O   -0.056931  -0.056931  -0.007847  -0.007847   8.682474
          Atomic-Atomic Spin Densities.
               1          2          3          4          5
     1  C    0.088999  -0.120426   0.025319   0.055430  -0.012491
     2  C   -0.120426   0.088999   0.055430   0.025319  -0.012491
     3  C    0.025319   0.055430   0.387523  -0.013978  -0.005811
     4  C    0.055430   0.025319  -0.013978   0.387523  -0.005811
     5  O   -0.012491  -0.012491  -0.005811  -0.005811   0.065976
 Mulliken charges and spin densities:
               1          2
     1  C    0.757932   0.036831
     2  C    0.757932   0.036831
     3  C   -0.981473   0.448484
     4  C   -0.981473   0.448484
     5  O   -0.552918   0.029370
 Sum of Mulliken charges =  -1.00000   1.00000
 Mulliken charges and spin densities with hydrogens summed into heavy atoms:
               1          2
     1  C    0.757932   0.036831
     2  C    0.757932   0.036831
     3  C   -0.981473   0.448484
     4  C   -0.981473   0.448484
     5  O   -0.552918   0.029370
 APT charges:
               1
     1  C    0.092716
     2  C    0.092716
     3  C   -0.394716
     4  C   -0.394716
     5  O   -0.395999
 Sum of APT charges =  -1.00000
 APT charges with hydrogens summed into heavy atoms:
               1
     1  C    0.092716
     2  C    0.092716
     3  C   -0.394716
     4  C   -0.394716
     5  O   -0.395999
 Electronic spatial extent (au):  <R**2>=            327.8745
 Charge=             -1.0000 electrons
 Dipole moment (field-independent basis, Debye):
    X=              0.0000    Y=              0.0000    Z=              3.6495  Tot=              3.6495
 Quadrupole moment (field-independent basis, Debye-Ang):
   XX=            -33.1327   YY=            -55.7702   ZZ=            -36.8981
   XY=              0.0000   XZ=             -0.0000   YZ=             -0.0000
 Traceless Quadrupole moment (field-independent basis, Debye-Ang):
   XX=              8.8010   YY=            -13.8365   ZZ=              5.0355
   XY=              0.0000   XZ=             -0.0000   YZ=             -0.0000
 Octapole moment (field-independent basis, Debye-Ang**2):
  XXX=              0.0000  YYY=              0.0000  ZZZ=             18.4650  XYY=              0.0000
  XXY=              0.0000  XXZ=              6.8182  XZZ=              0.0000  YZZ=             -0.0000
  YYZ=             31.4695  XYZ=              0.0000
 Hexadecapole moment (field-independent basis, Debye-Ang**3):
 XXXX=            -46.7681 YYYY=           -564.7978 ZZZZ=           -137.0440 XXXY=             -0.0000
 XXXZ=             -0.0000 YYYX=             -0.0000 YYYZ=             -0.0000 ZZZX=             -0.0000
 ZZZY=              0.0000 XXYY=            -85.1353 XXZZ=            -30.5989 YYZZ=           -115.8472
 XXYZ=             -0.0000 YYXZ=             -0.0000 ZZXY=             -0.0000
 N-N= 1.167962603557D+02 E-N=-7.712884094469D+02  KE= 2.265429779366D+02
 Symmetry A1   KE= 1.413678927548D+02
 Symmetry A2   KE= 2.359071533628D+00
 Symmetry B1   KE= 6.838056091566D+00
 Symmetry B2   KE= 7.597795755660D+01
  Exact polarizability:  44.873   0.000 128.733   0.000   0.000  53.850
 Approx polarizability:  62.221   0.000 225.312  -0.000  -0.000  84.193
                          Isotropic Fermi Contact Couplings
        Atom                 a.u.       MegaHertz       Gauss      10(-4) cm-1
     1  C(13)              0.00110       1.23682       0.44133       0.41256
     2  C(13)              0.00110       1.23682       0.44133       0.41256
     3  C(13)              0.02632      29.59222      10.55924       9.87090
     4  C(13)              0.02632      29.59222      10.55924       9.87090
     5  O(17)              0.03491     -21.16359      -7.55170      -7.05941
 --------------------------------------------------------
       Center         ----  Spin Dipole Couplings  ----
                      3XX-RR        3YY-RR        3ZZ-RR
 --------------------------------------------------------
     1   Atom       -0.090506      0.028408      0.062098
     2   Atom       -0.090506      0.028408      0.062098
     3   Atom       -0.248653     -0.185667      0.434319
     4   Atom       -0.248653     -0.185667      0.434319
     5   Atom       -0.149342      0.464279     -0.314937
 --------------------------------------------------------
                        XY            XZ            YZ
 --------------------------------------------------------
     1   Atom        0.000000      0.000000     -0.044497
     2   Atom       -0.000000      0.000000      0.044497
     3   Atom       -0.000000     -0.000000      0.307372
     4   Atom        0.000000     -0.000000     -0.307372
     5   Atom        0.000000      0.000000     -0.000000
 --------------------------------------------------------


 ---------------------------------------------------------------------------------
              Anisotropic Spin Dipole Couplings in Principal Axis System
 ---------------------------------------------------------------------------------

       Atom             a.u.   MegaHertz   Gauss  10(-4) cm-1        Axes

              Baa    -0.0905   -12.145    -4.334    -4.051  1.0000 -0.0000 -0.0000
     1 C(13)  Bbb    -0.0023    -0.312    -0.111    -0.104  0.0000  0.8228  0.5683
              Bcc     0.0928    12.457     4.445     4.155 -0.0000 -0.5683  0.8228
 
              Baa    -0.0905   -12.145    -4.334    -4.051  1.0000  0.0000 -0.0000
     2 C(13)  Bbb    -0.0023    -0.312    -0.111    -0.104 -0.0000  0.8228 -0.5683
              Bcc     0.0928    12.457     4.445     4.155 -0.0000  0.5683  0.8228
 
              Baa    -0.3122   -41.897   -14.950   -13.975 -0.0000  0.9247 -0.3807
     3 C(13)  Bbb    -0.2487   -33.367   -11.906   -11.130  1.0000  0.0000  0.0000
              Bcc     0.5609    75.264    26.856    25.105 -0.0000  0.3807  0.9247
 
              Baa    -0.3122   -41.897   -14.950   -13.975  0.0000  0.9247  0.3807
     4 C(13)  Bbb    -0.2487   -33.367   -11.906   -11.130  1.0000 -0.0000  0.0000
              Bcc     0.5609    75.264    26.856    25.105 -0.0000 -0.3807  0.9247
 
              Baa    -0.3149    22.789     8.132     7.601  0.0000  0.0000  1.0000
     5 O(17)  Bbb    -0.1493    10.806     3.856     3.605  1.0000  0.0000  0.0000
              Bcc     0.4643   -33.595   -11.988   -11.206 -0.0000  1.0000 -0.0000
 

 ---------------------------------------------------------------------------------

 No NMR shielding tensors so no spin-rotation constants.
 Leave Link  601 at Thu Mar  7 09:01:36 2019, MaxMem=    33554432 cpu:         1.3
 (Enter /home/proyectos/fulerenos/M3C-v2.0/M3C-deps_CCC/g09-AM64L-G09RevC.01/l701.exe)
 Compute integral second derivatives.
 ... and contract with generalized density number  0.
 Leave Link  701 at Thu Mar  7 09:01:37 2019, MaxMem=    33554432 cpu:         1.6
 (Enter /home/proyectos/fulerenos/M3C-v2.0/M3C-deps_CCC/g09-AM64L-G09RevC.01/l702.exe)
 L702 exits ... SP integral derivatives will be done elsewhere.
 Leave Link  702 at Thu Mar  7 09:01:37 2019, MaxMem=    33554432 cpu:         0.1
 (Enter /home/proyectos/fulerenos/M3C-v2.0/M3C-deps_CCC/g09-AM64L-G09RevC.01/l703.exe)
 Compute integral second derivatives, UseDBF=F ICtDFT=           0.
 Integral derivatives from FoFJK, PRISM(SPDF).
 Calling FoFJK, ICntrl=    100127 FMM=F ISym2X=1 I1Cent= 0 IOpClX= 1 NMat=1 NMatS=1 NMatT=0.
 FoFJK:  IHMeth= 1 ICntrl=  100127 DoSepK=F KAlg= 0 I1Cent=   0 FoldK=F
 IRaf=         0 NMat=   1 IRICut=       1 DoRegI=T DoRafI=F ISym2E= 1.
 FoFCou: FMM=F IPFlag=           0 FMFlag=      100000 FMFlg1=         800
         NFxFlg=           0 DoJE=F BraDBF=F KetDBF=F FulRan=T
         wScrn=  0.000000 ICntrl=  100127 IOpCl=  1 I1Cent=           0 NGrid=           0
         NMat0=    1 NMatS0=      1 NMatT0=    0 NMatD0=    1 NMtDS0=    0 NMtDT0=    0
 Petite list used in FoFCou.
 Leave Link  703 at Thu Mar  7 09:04:35 2019, MaxMem=    33554432 cpu:       356.2
 (Enter /home/proyectos/fulerenos/M3C-v2.0/M3C-deps_CCC/g09-AM64L-G09RevC.01/l716.exe)
 Dipole        = 3.01696991D-16 3.90024390D-14 1.43583447D+00
 Polarizability= 4.48734211D+01 1.39523663D-07 1.28733382D+02
                 2.82829122D-09 3.97738131D-07 5.38504312D+01
 Full mass-weighted force constant matrix:
 Low frequencies ---  -14.5015   -6.7771   -0.0008   -0.0006   -0.0005    7.2600
 Low frequencies ---  238.3343  324.4552  390.2188
 Diagonal vibrational polarizability:
        0.2689866       5.5063699      25.5473079
 Harmonic frequencies (cm**-1), IR intensities (KM/Mole), Raman scattering
 activities (A**4/AMU), depolarization ratios for plane and unpolarized
 incident light, reduced masses (AMU), force constants (mDyne/A),
 and normal coordinates:
                      1                      2                      3
                     A1                     B1                     B2
 Frequencies --    238.3343               324.4550               390.2188
 Red. masses --     12.2849                12.3734                12.2536
 Frc consts  --      0.4111                 0.7674                 1.0993
 IR Inten    --     29.9388                 1.0522                31.0490
  Atom  AN      X      Y      Z        X      Y      Z        X      Y      Z
     1   6    -0.00   0.00  -0.27     0.57  -0.00   0.00     0.00   0.32  -0.52
     2   6     0.00  -0.00  -0.27     0.57  -0.00  -0.00     0.00   0.32   0.52
     3   6    -0.00   0.44   0.44    -0.36   0.00   0.00    -0.00  -0.15  -0.26
     4   6    -0.00  -0.44   0.44    -0.36   0.00  -0.00    -0.00  -0.15   0.26
     5   8    -0.00   0.00  -0.27    -0.31   0.00   0.00    -0.00  -0.25  -0.00
                      4                      5                      6
                     A1                     A2                     B2
 Frequencies --    390.5488               411.1663               758.5191
 Red. masses --     12.4342                12.0000                13.7637
 Frc consts  --      1.1174                 1.1953                 4.6657
 IR Inten    --     57.7023                 0.0000                 0.1559
  Atom  AN      X      Y      Z        X      Y      Z        X      Y      Z
     1   6    -0.00   0.53  -0.34     0.65  -0.00  -0.00     0.00  -0.14  -0.33
     2   6    -0.00  -0.53  -0.34    -0.65   0.00  -0.00     0.00  -0.14   0.33
     3   6     0.00  -0.19   0.12     0.27   0.00   0.00    -0.00  -0.31   0.24
     4   6     0.00   0.19   0.12    -0.27  -0.00   0.00    -0.00  -0.31  -0.24
     5   8     0.00  -0.00   0.33     0.00  -0.00  -0.00    -0.00   0.66   0.00
                      7                      8                      9
                     A1                     B2                     A1
 Frequencies --    935.6039              1713.1048              1849.1146
 Red. masses --     13.5934                12.0124                12.1458
 Frc consts  --      7.0107                20.7705                24.4683
 IR Inten    --     35.7268                 1.2755                10.7297
  Atom  AN      X      Y      Z        X      Y      Z        X      Y      Z
     1   6    -0.00  -0.14  -0.15    -0.00   0.44   0.29     0.00   0.46   0.34
     2   6     0.00   0.14  -0.15    -0.00   0.44  -0.29    -0.00  -0.46   0.34
     3   6    -0.00   0.43  -0.27     0.00  -0.40   0.24     0.00   0.33  -0.21
     4   6     0.00  -0.43  -0.27     0.00  -0.40  -0.24    -0.00  -0.33  -0.21
     5   8    -0.00  -0.00   0.63     0.00  -0.06   0.00     0.00  -0.00  -0.19

 -------------------
 - Thermochemistry -
 -------------------
 Temperature   298.150 Kelvin.  Pressure   1.00000 Atm.
 Atom     1 has atomic number  6 and mass  12.00000
 Atom     2 has atomic number  6 and mass  12.00000
 Atom     3 has atomic number  6 and mass  12.00000
 Atom     4 has atomic number  6 and mass  12.00000
 Atom     5 has atomic number  8 and mass  15.99491
 Molecular mass:    63.99491 amu.
 Principal axes and moments of inertia in atomic units:
                           1         2         3
     Eigenvalues --   111.72386 356.94296 468.66682
           X            0.00000   0.00000   1.00000
           Y            1.00000  -0.00000  -0.00000
           Z            0.00000   1.00000  -0.00000
 This molecule is an asymmetric top.
 Rotational symmetry number  2.
 Rotational temperatures (Kelvin)      0.77525     0.24265     0.18481
 Rotational constants (GHZ):          16.15359     5.05611     3.85080
 Zero-point vibrational energy      41935.5 (Joules/Mol)
                                   10.02282 (Kcal/Mol)
 Warning -- explicit consideration of   5 degrees of freedom as
           vibrations may cause significant error
 Vibrational temperatures:    342.91   466.82   561.44   561.91   591.58
          (Kelvin)           1091.34  1346.12  2464.77  2660.46
 
 Zero-point correction=                           0.015972 (Hartree/Particle)
 Thermal correction to Energy=                    0.020776
 Thermal correction to Enthalpy=                  0.021721
 Thermal correction to Gibbs Free Energy=        -0.011169
 Sum of electronic and zero-point Energies=           -227.423463
 Sum of electronic and thermal Energies=              -227.418659
 Sum of electronic and thermal Enthalpies=            -227.417715
 Sum of electronic and thermal Free Energies=         -227.450605
 
                     E (Thermal)             CV                S
                      KCal/Mol        Cal/Mol-Kelvin    Cal/Mol-Kelvin
 Total                   13.037             15.028             69.222
 Electronic               0.000              0.000              1.377
 Translational            0.889              2.981             38.388
 Rotational               0.889              2.981             23.062
 Vibrational             11.260              9.067              6.395
 Vibration     1          0.656              1.782              1.815
 Vibration     2          0.709              1.627              1.288
 Vibration     3          0.758              1.491              0.999
 Vibration     4          0.758              1.490              0.998
 Vibration     5          0.775              1.446              0.923
                       Q            Log10(Q)             Ln(Q)
 Total Bot       0.137209D+06          5.137382         11.829260
 Total V=0       0.304897D+13         12.484153         28.745825
 Vib (Bot)       0.139334D-06         -6.855942        -15.786389
 Vib (Bot)    1  0.823336D+00         -0.084423         -0.194391
 Vib (Bot)    2  0.577829D+00         -0.238201         -0.548477
 Vib (Bot)    3  0.460006D+00         -0.337236         -0.776516
 Vib (Bot)    4  0.459509D+00         -0.337706         -0.777597
 Vib (Bot)    5  0.429918D+00         -0.366615         -0.844161
 Vib (V=0)       0.309620D+01          0.490829          1.130175
 Vib (V=0)    1  0.146327D+01          0.165323          0.380671
 Vib (V=0)    2  0.126412D+01          0.101790          0.234380
 Vib (V=0)    3  0.117942D+01          0.071667          0.165019
 Vib (V=0)    4  0.117908D+01          0.071543          0.164734
 Vib (V=0)    5  0.115942D+01          0.064239          0.147916
 Electronic      0.200000D+01          0.301030          0.693147
 Translational   0.201221D+08          7.303673         16.817330
 Rotational      0.244693D+05          4.388621         10.105173
 
                                                              b3lyp opt
                                                             IR Spectrum
 
      1        1                                                                                                                     
      8        7                                                    9           7                       433   3     2                
      4        1                                                    3           5                       199   2     3                
      9        3                                                    6           9                       110   4     8                
 
      X        X                                                    X           X                        XX   X     X                
      X                                                             X                                    XX         X                
      X                                                             X                                    XX         X                
      X                                                             X                                    XX         X                
                                                                    X                                    XX         X                
                                                                    X                                    XX         X                
                                                                    X                                    XX         X                
                                                                    X                                    XX         X                
                                                                    X                                    XX         X                
                                                                    X                                    XX         X                
                                                                    X                                    XX                          
                                                                    X                                    X                           
                                                                                                         X                           
                                                                                                         X                           
                                                                                                         X                           
                                                                                                         X                           
                                                                                                         X                           
                                                                                                         X                           
                                                                                                         X                           
                                                                                                         X                           
 
 ***** Axes restored to original set *****
 -------------------------------------------------------------------
 Center     Atomic                   Forces (Hartrees/Bohr)
 Number     Number              X              Y              Z
 -------------------------------------------------------------------
      1        6           0.000059714   -0.000059318    0.000003231
      2        6          -0.000081863   -0.000015191   -0.000012750
      3        6          -0.000020532   -0.000009970   -0.000003729
      4        6           0.000011625   -0.000019993   -0.000000099
      5        8           0.000031056    0.000104473    0.000013347
 -------------------------------------------------------------------
 Cartesian Forces:  Max     0.000104473 RMS     0.000042675
 Z-matrix is all fixed cartesians, so copy forces.
 Force constants in Cartesian coordinates: 
                1             2             3             4             5 
      1  0.373454D+00
      2 -0.412284D+00  0.597374D+00
      3  0.998553D-02 -0.102280D-01  0.481877D-01
      4 -0.721149D-01  0.966519D-01  0.752397D-03  0.807637D+00
      5 -0.311272D-01  0.252560D-01 -0.631640D-03  0.250356D+00  0.142128D+00
      6 -0.102633D-01  0.172256D-01 -0.178259D-01  0.127789D+00  0.431303D-01
      7 -0.271663D-01 -0.183555D-01 -0.593866D-02 -0.553837D+00 -0.156081D+00
      8  0.870717D-02 -0.122697D-01 -0.186203D-03 -0.134495D+00 -0.531591D-01
      9 -0.360561D-02 -0.396824D-02  0.315921D-02 -0.857628D-01 -0.244020D-01
     10 -0.266693D+00  0.303737D+00 -0.785445D-02 -0.179489D-01  0.227745D-01
     11  0.282152D+00 -0.354233D+00  0.108862D-01 -0.428811D-02 -0.219342D-01
     12 -0.971536D-02  0.139029D-01 -0.232809D-01 -0.343778D-02  0.946558D-03
     13 -0.747965D-02  0.302499D-01  0.305519D-02 -0.163736D+00 -0.859225D-01
     14  0.152552D+00 -0.256127D+00  0.159644D-03 -0.208225D+00 -0.922905D-01
     15  0.135988D-01 -0.169323D-01 -0.102401D-01 -0.393406D-01 -0.190433D-01
                6             7             8             9            10 
      6  0.692508D-01
      7 -0.876237D-01  0.603809D+00
      8 -0.213853D-01  0.149395D+00  0.543410D-01
      9 -0.372108D-01  0.956253D-01  0.245530D-01  0.271942D-01
     10 -0.110473D-02 -0.161792D-02 -0.443730D-03 -0.335937D-03  0.297627D+00
     11 -0.283548D-02  0.490834D-02  0.509252D-02  0.108081D-02 -0.317892D+00
     12  0.360636D-02  0.125460D-03  0.332855D-03  0.558402D-03  0.125515D-01
     13 -0.287970D-01 -0.211881D-01 -0.231638D-01 -0.592096D-02 -0.113674D-01
     14 -0.361352D-01  0.201327D-01  0.599521D-02  0.273638D-02 -0.817581D-02
     15 -0.178205D-01 -0.218841D-02 -0.331436D-02  0.629905D-02 -0.325641D-02
               11            12            13            14            15 
     11  0.375377D+00
     12 -0.130748D-01  0.123407D-01
     13  0.351208D-01  0.476149D-03  0.203771D+00
     14 -0.430185D-02 -0.210747D-02  0.437157D-01  0.346724D+00
     15  0.394328D-02  0.677547D-02  0.311866D-01  0.353466D-01  0.149861D-01
 Leave Link  716 at Thu Mar  7 09:04:35 2019, MaxMem=    33554432 cpu:         0.3
 (Enter /home/proyectos/fulerenos/M3C-v2.0/M3C-deps_CCC/g09-AM64L-G09RevC.01/l103.exe)

 GradGradGradGradGradGradGradGradGradGradGradGradGradGradGradGradGradGrad
 Berny optimization.
 Search for a local minimum.
 Step number   1 out of a maximum of    2
 All quantities printed in internal units (Hartrees-Bohrs-Radians)
 Second derivative matrix not updated -- analytic derivatives used.
 The second derivative matrix:
                          X1        Y1        Z1        X2        Y2
           X1           0.37345
           Y1          -0.41228   0.59737
           Z1           0.00999  -0.01023   0.04819
           X2          -0.07211   0.09665   0.00075   0.80764
           Y2          -0.03113   0.02526  -0.00063   0.25036   0.14213
           Z2          -0.01026   0.01723  -0.01783   0.12779   0.04313
           X3          -0.02717  -0.01836  -0.00594  -0.55384  -0.15608
           Y3           0.00871  -0.01227  -0.00019  -0.13449  -0.05316
           Z3          -0.00361  -0.00397   0.00316  -0.08576  -0.02440
           X4          -0.26669   0.30374  -0.00785  -0.01795   0.02277
           Y4           0.28215  -0.35423   0.01089  -0.00429  -0.02193
           Z4          -0.00972   0.01390  -0.02328  -0.00344   0.00095
           X5          -0.00748   0.03025   0.00306  -0.16374  -0.08592
           Y5           0.15255  -0.25613   0.00016  -0.20822  -0.09229
           Z5           0.01360  -0.01693  -0.01024  -0.03934  -0.01904
                          Z2        X3        Y3        Z3        X4
           Z2           0.06925
           X3          -0.08762   0.60381
           Y3          -0.02139   0.14940   0.05434
           Z3          -0.03721   0.09563   0.02455   0.02719
           X4          -0.00110  -0.00162  -0.00044  -0.00034   0.29763
           Y4          -0.00284   0.00491   0.00509   0.00108  -0.31789
           Z4           0.00361   0.00013   0.00033   0.00056   0.01255
           X5          -0.02880  -0.02119  -0.02316  -0.00592  -0.01137
           Y5          -0.03614   0.02013   0.00600   0.00274  -0.00818
           Z5          -0.01782  -0.00219  -0.00331   0.00630  -0.00326
                          Y4        Z4        X5        Y5        Z5
           Y4           0.37538
           Z4          -0.01307   0.01234
           X5           0.03512   0.00048   0.20377
           Y5          -0.00430  -0.00211   0.04372   0.34672
           Z5           0.00394   0.00678   0.03119   0.03535   0.01499
 ITU=  0
     Eigenvalues ---    0.02642   0.04960   0.07066   0.07193   0.07677
     Eigenvalues ---    0.30489   0.45777   1.33458   1.57854
 Angle between quadratic step and forces=  55.07 degrees.
 ClnCor:  largest displacement from symmetrization is 3.18D-11 for atom     2.
 Linear search not attempted -- first point.
 ClnCor:  largest displacement from symmetrization is 4.80D-15 for atom     4.
 B after Tr=     0.000001    0.000004    0.000001
         Rot=    1.000000    0.000000   -0.000000   -0.000000 Ang=   0.00 deg.
 Variable       Old X    -DE/DX   Delta X   Delta X   Delta X     New X
                                 (Linear)    (Quad)   (Total)
    X1        1.36645   0.00006   0.00000   0.00030   0.00030   1.36675
    Y1       -0.53051  -0.00006   0.00000   0.00006   0.00007  -0.53044
    Z1        0.13563   0.00000   0.00000   0.00005   0.00005   0.13568
    X2       -1.43137  -0.00008   0.00000  -0.00021  -0.00021  -1.43159
    Y2        0.34153  -0.00002   0.00000   0.00022   0.00022   0.34175
    Z2       -0.18019  -0.00001   0.00000  -0.00001  -0.00001  -0.18020
    X3       -3.76162  -0.00002   0.00000  -0.00010  -0.00010  -3.76172
    Y3       -0.20537  -0.00001   0.00000  -0.00021  -0.00021  -0.20558
    Z3       -0.55299  -0.00000   0.00000  -0.00003  -0.00003  -0.55302
    X4        3.00393   0.00001   0.00000  -0.00003  -0.00003   3.00390
    Y4       -2.31408  -0.00002   0.00000  -0.00023  -0.00023  -2.31431
    Z4        0.21071  -0.00000   0.00000  -0.00002  -0.00002   0.21069
    X5        0.58486   0.00003   0.00000   0.00004   0.00004   0.58490
    Y5        1.98220   0.00010   0.00000   0.00014   0.00015   1.98235
    Z5        0.24302   0.00001   0.00000   0.00002   0.00002   0.24304
         Item               Value     Threshold  Converged?
 Maximum Force            0.000104     0.000450     YES
 RMS     Force            0.000043     0.000300     YES
 Maximum Displacement     0.000297     0.001800     YES
 RMS     Displacement     0.000147     0.001200     YES
 Predicted change in Energy=-2.685474D-08
 Optimization completed.
    -- Stationary point found.
 GradGradGradGradGradGradGradGradGradGradGradGradGradGradGradGradGradGrad

 Leave Link  103 at Thu Mar  7 09:04:35 2019, MaxMem=    33554432 cpu:         0.2
 (Enter /home/proyectos/fulerenos/M3C-v2.0/M3C-deps_CCC/g09-AM64L-G09RevC.01/l9999.exe)

 Test job not archived.
 1\1\GINC-BERQUELIO\Freq\UB3LYP\6-311++G(3df,2p)\C4O1(1-,2)\NAGUIRRE\07
 -Mar-2019\0\\#p b3lyp/6-311++G(3df,2p) freq IOp(2/17=3) IOp(2/18=3)\\b
 3lyp opt\\-1,2\C,0.7230938877,-0.280732433,0.0717746255\C,-0.757450938
 7,0.1807283407,-0.0953512535\C,-1.9905613697,-0.1086786112,-0.29262951
 02\C,1.5896108921,-1.2245577337,0.1115051202\O,0.3094946983,1.04893734
 11,0.1286032795\\Version=EM64L-G09RevE.01\State=2-B2\HF=-227.4394357\S
 2=0.774657\S2-1=0.\S2A=0.750154\RMSD=1.949e-09\RMSF=4.267e-05\ZeroPoin
 t=0.0159724\Thermal=0.0207763\Dipole=0.4060924,1.3661081,0.1745229\Dip
 oleDeriv=0.1196947,0.2800496,0.0600561,0.4080099,0.2793324,0.0929361,0
 .0710874,0.0750535,-0.1208805,-0.1476242,0.0000349,-0.0014419,-0.12792
 54,0.5596195,0.0422018,-0.0124732,0.0600844,-0.1338487,-0.1564718,0.15
 49698,0.0516564,0.2144555,-0.6056719,0.0148695,0.0567846,0.0065563,-0.
 4220047,-0.4603163,-0.249264,-0.0256549,-0.3087496,-0.2870874,-0.03078
 42,-0.0307831,-0.022471,-0.4367448,-0.3552824,-0.1857903,-0.0846157,-0
 .1857903,-0.9461925,-0.1192233,-0.0846158,-0.1192232,0.1134787\Polar=1
 21.148602,-21.1342267,60.339822,8.8375898,-1.6201901,45.9688102\PG=C02
 V [C2(O1),SGV(C4)]\NImag=0\\0.37345379,-0.41228376,0.59737415,0.009985
 53,-0.01022800,0.04818765,-0.07211488,0.09665187,0.00075240,0.80763708
 ,-0.03112718,0.02525604,-0.00063164,0.25035584,0.14212773,-0.01026332,
 0.01722564,-0.01782585,0.12778877,0.04313032,0.06925078,-0.02716627,-0
 .01835550,-0.00593866,-0.55383716,-0.15608069,-0.08762373,0.60380944,0
 .00870717,-0.01226965,-0.00018620,-0.13449470,-0.05315906,-0.02138530,
 0.14939511,0.05434098,-0.00360561,-0.00396824,0.00315921,-0.08576282,-
 0.02440197,-0.03721084,0.09562534,0.02455301,0.02719419,-0.26669299,0.
 30373749,-0.00785445,-0.01794886,0.02277455,-0.00110473,-0.00161792,-0
 .00044373,-0.00033594,0.29762720,0.28215150,-0.35423318,0.01088620,-0.
 00428811,-0.02193422,-0.00283548,0.00490834,0.00509252,0.00108081,-0.3
 1789250,0.37537675,-0.00971536,0.01390287,-0.02328088,-0.00343778,0.00
 094656,0.00360636,0.00012546,0.00033286,0.00055840,0.01255153,-0.01307
 481,0.01234066,-0.00747965,0.03024990,0.00305519,-0.16373618,-0.085922
 54,-0.02879698,-0.02118808,-0.02316382,-0.00592096,-0.01136741,0.03512
 077,0.00047615,0.20377130,0.15255226,-0.25612736,0.00015964,-0.2082248
 9,-0.09229049,-0.03613518,0.02013274,0.00599521,0.00273638,-0.00817581
 ,-0.00430185,-0.00210747,0.04371569,0.34672450,0.01359877,-0.01693227,
 -0.01024014,-0.03934056,-0.01904328,-0.01782047,-0.00218841,-0.0033143
 6,0.00629905,-0.00325641,0.00394328,0.00677547,0.03118660,0.03534663,0
 .01498610\\-0.00005971,0.00005932,-0.00000323,0.00008186,0.00001519,0.
 00001275,0.00002053,0.00000997,0.00000373,-0.00001163,0.00001999,0.000
 00010,-0.00003106,-0.00010447,-0.00001335\\\@


 DEFINE YOUR TERMS, YOU WILL PERMIT ME AGAIN TO SAY, 
 OR WE SHALL NEVER UNDERSTAND ONE ANOTHER.

                                    -- VOLTAIRE
 Job cpu time:       0 days  0 hours 25 minutes  5.6 seconds.
 File lengths (MBytes):  RWF=     38 Int=      0 D2E=      0 Chk=      4 Scr=      1
 Normal termination of Gaussian 09 at Thu Mar  7 09:04:36 2019.
