 Entering Gaussian System, Link 0=g09
 Initial command:
 /usr/local/gaussian/gaussian09/g09/l1.exe "/scratch/sergio/H2C.q-1.m4-1.com-4919751/Gau-7999.inp" -scrdir="/scratch/sergio/H2C.q-1.m4-1.com-4919751/"
 Default is to use a total of   2 processors:
                                2 via shared-memory
                                1 via Linda
 Entering Link 1 = /usr/local/gaussian/gaussian09/g09/l1.exe PID=      8004.
  
 Copyright (c) 1988,1990,1992,1993,1995,1998,2003,2009,2015,
            Gaussian, Inc.  All Rights Reserved.
  
 This is part of the Gaussian(R) 09 program.  It is based on
 the Gaussian(R) 03 system (copyright 2003, Gaussian, Inc.),
 the Gaussian(R) 98 system (copyright 1998, Gaussian, Inc.),
 the Gaussian(R) 94 system (copyright 1995, Gaussian, Inc.),
 the Gaussian 92(TM) system (copyright 1992, Gaussian, Inc.),
 the Gaussian 90(TM) system (copyright 1990, Gaussian, Inc.),
 the Gaussian 88(TM) system (copyright 1988, Gaussian, Inc.),
 the Gaussian 86(TM) system (copyright 1986, Carnegie Mellon
 University), and the Gaussian 82(TM) system (copyright 1983,
 Carnegie Mellon University). Gaussian is a federally registered
 trademark of Gaussian, Inc.
  
 This software contains proprietary and confidential information,
 including trade secrets, belonging to Gaussian, Inc.
  
 This software is provided under written license and may be
 used, copied, transmitted, or stored only in accord with that
 written license.
  
 The following legend is applicable only to US Government
 contracts under FAR:
  
                    RESTRICTED RIGHTS LEGEND
  
 Use, reproduction and disclosure by the US Government is
 subject to restrictions as set forth in subparagraphs (a)
 and (c) of the Commercial Computer Software - Restricted
 Rights clause in FAR 52.227-19.
  
 Gaussian, Inc.
 340 Quinnipiac St., Bldg. 40, Wallingford CT 06492
  
  
 ---------------------------------------------------------------
 Warning -- This program may not be used in any manner that
 competes with the business of Gaussian, Inc. or will provide
 assistance to any competitor of Gaussian, Inc.  The licensee
 of this program is prohibited from giving any competitor of
 Gaussian, Inc. access to this program.  By using this program,
 the user acknowledges that Gaussian, Inc. is engaged in the
 business of creating and licensing software in the field of
 computational chemistry and represents and warrants to the
 licensee that it is not a competitor of Gaussian, Inc. and that
 it will not use this program in any manner prohibited above.
 ---------------------------------------------------------------
  

 Cite this work as:
 Gaussian 09, Revision E.01,
 M. J. Frisch, G. W. Trucks, H. B. Schlegel, G. E. Scuseria, 
 M. A. Robb, J. R. Cheeseman, G. Scalmani, V. Barone, B. Mennucci, 
 G. A. Petersson, H. Nakatsuji, M. Caricato, X. Li, H. P. Hratchian, 
 A. F. Izmaylov, J. Bloino, G. Zheng, J. L. Sonnenberg, M. Hada, 
 M. Ehara, K. Toyota, R. Fukuda, J. Hasegawa, M. Ishida, T. Nakajima, 
 Y. Honda, O. Kitao, H. Nakai, T. Vreven, J. A. Montgomery, Jr., 
 J. E. Peralta, F. Ogliaro, M. Bearpark, J. J. Heyd, E. Brothers, 
 K. N. Kudin, V. N. Staroverov, T. Keith, R. Kobayashi, J. Normand, 
 K. Raghavachari, A. Rendell, J. C. Burant, S. S. Iyengar, J. Tomasi, 
 M. Cossi, N. Rega, J. M. Millam, M. Klene, J. E. Knox, J. B. Cross, 
 V. Bakken, C. Adamo, J. Jaramillo, R. Gomperts, R. E. Stratmann, 
 O. Yazyev, A. J. Austin, R. Cammi, C. Pomelli, J. W. Ochterski, 
 R. L. Martin, K. Morokuma, V. G. Zakrzewski, G. A. Voth, 
 P. Salvador, J. J. Dannenberg, S. Dapprich, A. D. Daniels, 
 O. Farkas, J. B. Foresman, J. V. Ortiz, J. Cioslowski, 
 and D. J. Fox, Gaussian, Inc., Wallingford CT, 2013.
 
 ******************************************
 Gaussian 09:  EM64L-G09RevE.01 30-Nov-2015
                23-Jan-2019 
 ******************************************
 Default route:  MaxDisk=70000MB
 -------------------------------------------------
 #p b3lyp/6-311++G(3df,2p) opt freq symmetry=Loose
 -------------------------------------------------
 1/14=-1,18=20,19=15,26=3,38=1/1,3;
 2/9=110,12=2,17=4,18=3,40=1/2;
 3/5=4,6=6,7=1216,11=2,16=1,25=1,30=1,71=1,74=-5/1,2,3;
 4//1;
 5/5=2,38=5/2;
 6/7=2,8=2,9=2,10=2,28=1/1;
 7//1,2,3,16;
 1/14=-1,18=20,19=15,26=3/3(2);
 2/9=110/2;
 99//99;
 2/9=110/2;
 3/5=4,6=6,7=1216,11=2,16=1,25=1,30=1,71=1,74=-5/1,2,3;
 4/5=5,16=3,69=1/1;
 5/5=2,38=5/2;
 7//1,2,3,16;
 1/14=-1,18=20,19=15,26=3/3(-5);
 2/9=110/2;
 6/7=2,8=2,9=2,10=2,19=2,28=1/1;
 99/9=1/99;
 Leave Link    1 at Wed Jan 23 22:02:44 2019, MaxMem=           0 cpu:         0.2
 (Enter /usr/local/gaussian/gaussian09/g09/l101.exe)
 ---------
 b3lyp opt
 ---------
 Symbolic Z-matrix:
 Charge = -1 Multiplicity = 4
 C                     0.        0.        0.17479 
 H                     0.        0.86167  -0.52396 
 H                     0.       -0.86167  -0.52396 
 
 NAtoms=      3 NQM=        3 NQMF=       0 NMMI=      0 NMMIF=      0
                NMic=       0 NMicF=      0.
                    Isotopes and Nuclear Properties:
 (Nuclear quadrupole moments (NQMom) in fm**2, nuclear magnetic moments (NMagM)
  in nuclear magnetons)

  Atom         1           2           3
 IAtWgt=          12           1           1
 AtmWgt=  12.0000000   1.0078250   1.0078250
 NucSpn=           0           1           1
 AtZEff=   0.0000000   0.0000000   0.0000000
 NQMom=    0.0000000   0.0000000   0.0000000
 NMagM=    0.0000000   2.7928460   2.7928460
 AtZNuc=   6.0000000   1.0000000   1.0000000
 Leave Link  101 at Wed Jan 23 22:02:44 2019, MaxMem=   412876800 cpu:         0.3
 (Enter /usr/local/gaussian/gaussian09/g09/l103.exe)

 GradGradGradGradGradGradGradGradGradGradGradGradGradGradGradGradGradGrad
 Berny optimization.
 Initialization pass.
                           ----------------------------
                           !    Initial Parameters    !
                           ! (Angstroms and Degrees)  !
 --------------------------                            --------------------------
 ! Name  Definition              Value          Derivative Info.                !
 --------------------------------------------------------------------------------
 ! R1    R(1,2)                  1.1094         estimate D2E/DX2                !
 ! R2    R(1,3)                  1.1094         estimate D2E/DX2                !
 ! A1    A(2,1,3)              101.921          estimate D2E/DX2                !
 --------------------------------------------------------------------------------
 Trust Radius=3.00D-01 FncErr=1.00D-07 GrdErr=1.00D-06
 Number of steps in this run=     20 maximum allowed number of steps=    100.
 GradGradGradGradGradGradGradGradGradGradGradGradGradGradGradGradGradGrad

 Leave Link  103 at Wed Jan 23 22:02:44 2019, MaxMem=   412876800 cpu:         0.0
 (Enter /usr/local/gaussian/gaussian09/g09/l202.exe)
                          Input orientation:                          
 ---------------------------------------------------------------------
 Center     Atomic      Atomic             Coordinates (Angstroms)
 Number     Number       Type             X           Y           Z
 ---------------------------------------------------------------------
      1          6           0        0.000000    0.000000    0.174790
      2          1           0        0.000000    0.861670   -0.523961
      3          1           0        0.000000   -0.861670   -0.523961
 ---------------------------------------------------------------------
                    Distance matrix (angstroms):
                    1          2          3
     1  C    0.000000
     2  H    1.109382   0.000000
     3  H    1.109382   1.723340   0.000000
 Stoichiometry    CH2(1-,4)
 Framework group  C2V[C2(C),SGV(H2)]
 Deg. of freedom     2
 Full point group                 C2V     NOp   4
 Largest Abelian subgroup         C2V     NOp   4
 Largest concise Abelian subgroup C2      NOp   2
                         Standard orientation:                         
 ---------------------------------------------------------------------
 Center     Atomic      Atomic             Coordinates (Angstroms)
 Number     Number       Type             X           Y           Z
 ---------------------------------------------------------------------
      1          6           0        0.000000   -0.000000    0.174688
      2          1           0        0.000000    0.861670   -0.524063
      3          1           0       -0.000000   -0.861670   -0.524063
 ---------------------------------------------------------------------
 Rotational constants (GHZ):    599.7761227    337.6914864    216.0493743
 Leave Link  202 at Wed Jan 23 22:02:44 2019, MaxMem=   412876800 cpu:         0.0
 (Enter /usr/local/gaussian/gaussian09/g09/l301.exe)
 Standard basis: 6-311++G(3df,2p) (5D, 7F)
 Ernie: Thresh=  0.10000D-02 Tol=  0.10000D-05 Strict=F.
 There are    29 symmetry adapted cartesian basis functions of A1  symmetry.
 There are     6 symmetry adapted cartesian basis functions of A2  symmetry.
 There are    12 symmetry adapted cartesian basis functions of B1  symmetry.
 There are    18 symmetry adapted cartesian basis functions of B2  symmetry.
 There are    25 symmetry adapted basis functions of A1  symmetry.
 There are     6 symmetry adapted basis functions of A2  symmetry.
 There are    11 symmetry adapted basis functions of B1  symmetry.
 There are    17 symmetry adapted basis functions of B2  symmetry.
    59 basis functions,    82 primitive gaussians,    65 cartesian basis functions
     6 alpha electrons        3 beta electrons
       nuclear repulsion energy         6.0310871007 Hartrees.
 IExCor=  402 DFT=T Ex+Corr=B3LYP ExCW=0 ScaHFX=  0.200000
 ScaDFX=  0.800000  0.720000  1.000000  0.810000 ScalE2=  1.000000  1.000000
 IRadAn=      0 IRanWt=     -1 IRanGd=            0 ICorTp=0 IEmpDi=  4
 NAtoms=    3 NActive=    3 NUniq=    2 SFac= 2.25D+00 NAtFMM=   60 NAOKFM=F Big=F
 Integral buffers will be    131072 words long.
 Raffenetti 2 integral format.
 Two-electron integral symmetry is turned on.
 Leave Link  301 at Wed Jan 23 22:02:44 2019, MaxMem=   412876800 cpu:         0.2
 (Enter /usr/local/gaussian/gaussian09/g09/l302.exe)
 NPDir=0 NMtPBC=     1 NCelOv=     1 NCel=       1 NClECP=     1 NCelD=      1
         NCelK=      1 NCelE2=     1 NClLst=     1 CellRange=     0.0.
 One-electron integrals computed using PRISM.
 One-electron integral symmetry used in STVInt
 NBasis=    59 RedAO= T EigKep=  4.41D-03  NBF=    25     6    11    17
 NBsUse=    59 1.00D-06 EigRej= -1.00D+00 NBFU=    25     6    11    17
 Precomputing XC quadrature grid using
 IXCGrd= 4 IRadAn=           0 IRanWt=          -1 IRanGd=           0 AccXCQ= 0.00D+00.
 Generated NRdTot=       0 NPtTot=           0 NUsed=           0 NTot=          32
 NSgBfM=    65    65    65    65    65 MxSgAt=     3 MxSgA2=     3.
 Leave Link  302 at Wed Jan 23 22:02:44 2019, MaxMem=   412876800 cpu:         0.5
 (Enter /usr/local/gaussian/gaussian09/g09/l303.exe)
 DipDrv:  MaxL=1.
 Leave Link  303 at Wed Jan 23 22:02:44 2019, MaxMem=   412876800 cpu:         0.1
 (Enter /usr/local/gaussian/gaussian09/g09/l401.exe)
 ExpMin= 3.60D-02 ExpMax= 4.56D+03 ExpMxC= 6.82D+02 IAcc=3 IRadAn=         5 AccDes= 0.00D+00
 Harris functional with IExCor=  402 and IRadAn=       5 diagonalized for initial guess.
 HarFok:  IExCor=  402 AccDes= 0.00D+00 IRadAn=         5 IDoV= 1 UseB2=F ITyADJ=14
 ICtDFT=  3500011 ScaDFX=  1.000000  1.000000  1.000000  1.000000
 FoFCou: FMM=F IPFlag=           0 FMFlag=      100000 FMFlg1=           0
         NFxFlg=           0 DoJE=T BraDBF=F KetDBF=T FulRan=T
         wScrn=  0.000000 ICntrl=     500 IOpCl=  0 I1Cent=   200000004 NGrid=           0
         NMat0=    1 NMatS0=      1 NMatT0=    0 NMatD0=    1 NMtDS0=    0 NMtDT0=    0
 Petite list used in FoFCou.
 Harris En= -39.1171764760073    
 JPrj=0 DoOrth=F DoCkMO=F.
 Initial guess orbital symmetries:
 Alpha Orbitals:
       Occupied  (A1) (A1) (B2) (A1) (B1) (A1)
       Virtual   (B2) (A1) (B1) (B2) (A1) (A1) (B2) (A1) (A2) (B1)
                 (B2) (A1) (A1) (B1) (A1) (B2) (B2) (A1) (A2) (B2)
                 (B1) (A1) (B2) (A1) (A2) (B1) (A1) (A1) (B2) (A1)
                 (B2) (B1) (B1) (A1) (B2) (A2) (B1) (A1) (B2) (B2)
                 (A1) (B1) (A1) (A2) (B2) (A1) (B2) (B1) (A2) (A1)
                 (A1) (B2) (A1)
 Beta  Orbitals:
       Occupied  (A1) (A1) (B2)
       Virtual   (A1) (B1) (A1) (B2) (A1) (B1) (B2) (A1) (A1) (B2)
                 (A1) (A2) (B1) (B2) (A1) (A1) (B1) (A1) (B2) (B2)
                 (A1) (A2) (B2) (B1) (A1) (B2) (A1) (A2) (B1) (A1)
                 (A1) (B2) (A1) (B2) (B1) (B1) (A1) (B2) (A2) (B1)
                 (A1) (B2) (B2) (A1) (B1) (A1) (A2) (B2) (A1) (B2)
                 (B1) (A2) (A1) (A1) (B2) (A1)
 The electronic state of the initial guess is 4-B1.
 Initial guess <Sx>= 0.0000 <Sy>= 0.0000 <Sz>= 1.5000 <S**2>= 3.7500 S= 1.5000
 Leave Link  401 at Wed Jan 23 22:02:45 2019, MaxMem=   412876800 cpu:         0.7
 (Enter /usr/local/gaussian/gaussian09/g09/l502.exe)
 UHF open shell SCF:
 Using DIIS extrapolation, IDIIS=  1040.
 Integral symmetry usage will be decided dynamically.
 Keep R1 and R2 ints in memory in symmetry-blocked form, NReq=3562147.
 IVT=       32225 IEndB=       32225 NGot=   412876800 MDV=   412021517
 LenX=   412021517 LenY=   412016851
 Requested convergence on RMS density matrix=1.00D-08 within 128 cycles.
 Requested convergence on MAX density matrix=1.00D-06.
 Requested convergence on             energy=1.00D-06.
 No special actions if energy rises.
 FoFCou: FMM=F IPFlag=           0 FMFlag=           0 FMFlg1=           0
         NFxFlg=           0 DoJE=F BraDBF=F KetDBF=F FulRan=T
         wScrn=  0.000000 ICntrl=     600 IOpCl=  0 I1Cent=           0 NGrid=           0
         NMat0=    1 NMatS0=   1770 NMatT0=    0 NMatD0=    1 NMtDS0=    0 NMtDT0=    0
 Petite list used in FoFCou.

 Cycle   1  Pass 1  IDiag  1:
 E= -39.0743086903977    
 DIIS: error= 3.45D-02 at cycle   1 NSaved=   1.
 NSaved= 1 IEnMin= 1 EnMin= -39.0743086903977     IErMin= 1 ErrMin= 3.45D-02
 ErrMax= 3.45D-02  0.00D+00 EMaxC= 1.00D-01 BMatC= 1.05D-01 BMatP= 1.05D-01
 IDIUse=3 WtCom= 6.55D-01 WtEn= 3.45D-01
 Coeff-Com:  0.100D+01
 Coeff-En:   0.100D+01
 Coeff:      0.100D+01
 Gap=     0.054 Goal=   None    Shift=    0.000
 Gap=     0.233 Goal=   None    Shift=    0.000
 GapD=    0.054 DampG=0.500 DampE=0.500 DampFc=0.2500 IDamp=-1.
 Damping current iteration by 2.50D-01
 RMSDP=1.85D-01 MaxDP=8.85D+00              OVMax= 3.24D-01

 Cycle   2  Pass 1  IDiag  1:
 E= -39.0880060359530     Delta-E=       -0.013697345555 Rises=F Damp=T
 DIIS: error= 1.75D-02 at cycle   2 NSaved=   2.
 NSaved= 2 IEnMin= 2 EnMin= -39.0880060359530     IErMin= 2 ErrMin= 1.75D-02
 ErrMax= 1.75D-02  0.00D+00 EMaxC= 1.00D-01 BMatC= 3.50D-02 BMatP= 1.05D-01
 IDIUse=3 WtCom= 8.25D-01 WtEn= 1.75D-01
 Coeff-Com: -0.115D+01 0.215D+01
 Coeff-En:   0.000D+00 0.100D+01
 Coeff:     -0.946D+00 0.195D+01
 Gap=     0.050 Goal=   None    Shift=    0.000
 Gap=     0.234 Goal=   None    Shift=    0.000
 RMSDP=1.21D-01 MaxDP=5.74D+00 DE=-1.37D-02 OVMax= 9.82D-02

 Cycle   3  Pass 1  IDiag  1:
 E= -39.1178939546249     Delta-E=       -0.029887918672 Rises=F Damp=F
 DIIS: error= 4.96D-03 at cycle   3 NSaved=   3.
 NSaved= 3 IEnMin= 3 EnMin= -39.1178939546249     IErMin= 3 ErrMin= 4.96D-03
 ErrMax= 4.96D-03  0.00D+00 EMaxC= 1.00D-01 BMatC= 1.20D-03 BMatP= 3.50D-02
 IDIUse=3 WtCom= 9.50D-01 WtEn= 4.96D-02
 Coeff-Com: -0.201D+00 0.384D+00 0.817D+00
 Coeff-En:   0.000D+00 0.000D+00 0.100D+01
 Coeff:     -0.191D+00 0.365D+00 0.826D+00
 Gap=     0.050 Goal=   None    Shift=    0.000
 Gap=     0.243 Goal=   None    Shift=    0.000
 RMSDP=1.63D-02 MaxDP=8.37D-01 DE=-2.99D-02 OVMax= 2.27D-02

 Cycle   4  Pass 1  IDiag  1:
 E= -39.1184804534562     Delta-E=       -0.000586498831 Rises=F Damp=F
 DIIS: error= 2.06D-03 at cycle   4 NSaved=   4.
 NSaved= 4 IEnMin= 4 EnMin= -39.1184804534562     IErMin= 4 ErrMin= 2.06D-03
 ErrMax= 2.06D-03  0.00D+00 EMaxC= 1.00D-01 BMatC= 1.87D-04 BMatP= 1.20D-03
 IDIUse=3 WtCom= 9.79D-01 WtEn= 2.06D-02
 Coeff-Com:  0.667D-01-0.130D+00 0.208D+00 0.856D+00
 Coeff-En:   0.000D+00 0.000D+00 0.000D+00 0.100D+01
 Coeff:      0.653D-01-0.128D+00 0.203D+00 0.859D+00
 Gap=     0.049 Goal=   None    Shift=    0.000
 Gap=     0.243 Goal=   None    Shift=    0.000
 RMSDP=1.09D-02 MaxDP=5.32D-01 DE=-5.86D-04 OVMax= 1.40D-02

 Cycle   5  Pass 1  IDiag  1:
 E= -39.1185929685882     Delta-E=       -0.000112515132 Rises=F Damp=F
 DIIS: error= 3.97D-04 at cycle   5 NSaved=   5.
 NSaved= 5 IEnMin= 5 EnMin= -39.1185929685882     IErMin= 5 ErrMin= 3.97D-04
 ErrMax= 3.97D-04  0.00D+00 EMaxC= 1.00D-01 BMatC= 8.21D-06 BMatP= 1.87D-04
 IDIUse=3 WtCom= 9.96D-01 WtEn= 3.97D-03
 Coeff-Com: -0.174D-01 0.232D-01-0.766D-01-0.908D-01 0.116D+01
 Coeff-En:   0.000D+00 0.000D+00 0.000D+00 0.000D+00 0.100D+01
 Coeff:     -0.173D-01 0.231D-01-0.763D-01-0.904D-01 0.116D+01
 Gap=     0.049 Goal=   None    Shift=    0.000
 Gap=     0.243 Goal=   None    Shift=    0.000
 RMSDP=4.51D-03 MaxDP=2.29D-01 DE=-1.13D-04 OVMax= 4.49D-03

 Cycle   6  Pass 1  IDiag  1:
 E= -39.1186013002760     Delta-E=       -0.000008331688 Rises=F Damp=F
 DIIS: error= 7.14D-05 at cycle   6 NSaved=   6.
 NSaved= 6 IEnMin= 6 EnMin= -39.1186013002760     IErMin= 6 ErrMin= 7.14D-05
 ErrMax= 7.14D-05  0.00D+00 EMaxC= 1.00D-01 BMatC= 3.02D-07 BMatP= 8.21D-06
 IDIUse=1 WtCom= 1.00D+00 WtEn= 0.00D+00
 Coeff-Com:  0.131D-02 0.281D-03 0.447D-02-0.278D-01-0.191D+00 0.121D+01
 Coeff:      0.131D-02 0.281D-03 0.447D-02-0.278D-01-0.191D+00 0.121D+01
 Gap=     0.049 Goal=   None    Shift=    0.000
 Gap=     0.243 Goal=   None    Shift=    0.000
 RMSDP=8.19D-04 MaxDP=4.20D-02 DE=-8.33D-06 OVMax= 8.82D-04

 Cycle   7  Pass 1  IDiag  1:
 E= -39.1186016161944     Delta-E=       -0.000000315918 Rises=F Damp=F
 DIIS: error= 9.17D-06 at cycle   7 NSaved=   7.
 NSaved= 7 IEnMin= 7 EnMin= -39.1186016161944     IErMin= 7 ErrMin= 9.17D-06
 ErrMax= 9.17D-06  0.00D+00 EMaxC= 1.00D-01 BMatC= 7.46D-09 BMatP= 3.02D-07
 IDIUse=1 WtCom= 1.00D+00 WtEn= 0.00D+00
 Coeff-Com:  0.331D-03-0.752D-03 0.166D-02 0.706D-02-0.184D-02-0.224D+00
 Coeff-Com:  0.122D+01
 Coeff:      0.331D-03-0.752D-03 0.166D-02 0.706D-02-0.184D-02-0.224D+00
 Coeff:      0.122D+01
 Gap=     0.049 Goal=   None    Shift=    0.000
 Gap=     0.243 Goal=   None    Shift=    0.000
 RMSDP=4.78D-05 MaxDP=1.08D-03 DE=-3.16D-07 OVMax= 1.40D-04

 Cycle   8  Pass 1  IDiag  1:
 E= -39.1186016235565     Delta-E=       -0.000000007362 Rises=F Damp=F
 DIIS: error= 9.32D-07 at cycle   8 NSaved=   8.
 NSaved= 8 IEnMin= 8 EnMin= -39.1186016235565     IErMin= 8 ErrMin= 9.32D-07
 ErrMax= 9.32D-07  0.00D+00 EMaxC= 1.00D-01 BMatC= 1.18D-10 BMatP= 7.46D-09
 IDIUse=1 WtCom= 1.00D+00 WtEn= 0.00D+00
 Coeff-Com: -0.662D-04 0.109D-03-0.223D-03-0.438D-03 0.166D-02 0.246D-01
 Coeff-Com: -0.234D+00 0.121D+01
 Coeff:     -0.662D-04 0.109D-03-0.223D-03-0.438D-03 0.166D-02 0.246D-01
 Coeff:     -0.234D+00 0.121D+01
 Gap=     0.049 Goal=   None    Shift=    0.000
 Gap=     0.243 Goal=   None    Shift=    0.000
 RMSDP=2.35D-05 MaxDP=1.20D-03 DE=-7.36D-09 OVMax= 2.40D-05

 Cycle   9  Pass 1  IDiag  1:
 E= -39.1186016237124     Delta-E=       -0.000000000156 Rises=F Damp=F
 DIIS: error= 1.11D-07 at cycle   9 NSaved=   9.
 NSaved= 9 IEnMin= 9 EnMin= -39.1186016237124     IErMin= 9 ErrMin= 1.11D-07
 ErrMax= 1.11D-07  0.00D+00 EMaxC= 1.00D-01 BMatC= 1.85D-12 BMatP= 1.18D-10
 IDIUse=1 WtCom= 1.00D+00 WtEn= 0.00D+00
 Coeff-Com:  0.147D-04-0.217D-04 0.188D-04-0.781D-05-0.132D-03-0.280D-02
 Coeff-Com:  0.317D-01-0.242D+00 0.121D+01
 Coeff:      0.147D-04-0.217D-04 0.188D-04-0.781D-05-0.132D-03-0.280D-02
 Coeff:      0.317D-01-0.242D+00 0.121D+01
 Gap=     0.049 Goal=   None    Shift=    0.000
 Gap=     0.243 Goal=   None    Shift=    0.000
 RMSDP=4.07D-06 MaxDP=2.14D-04 DE=-1.56D-10 OVMax= 3.16D-06

 Cycle  10  Pass 1  IDiag  1:
 E= -39.1186016237147     Delta-E=       -0.000000000002 Rises=F Damp=F
 DIIS: error= 2.00D-08 at cycle  10 NSaved=  10.
 NSaved=10 IEnMin=10 EnMin= -39.1186016237147     IErMin=10 ErrMin= 2.00D-08
 ErrMax= 2.00D-08  0.00D+00 EMaxC= 1.00D-01 BMatC= 3.95D-14 BMatP= 1.85D-12
 IDIUse=1 WtCom= 1.00D+00 WtEn= 0.00D+00
 Coeff-Com: -0.363D-05 0.520D-05-0.592D-07 0.488D-05 0.262D-04 0.785D-04
 Coeff-Com: -0.229D-02 0.280D-01-0.246D+00 0.122D+01
 Coeff:     -0.363D-05 0.520D-05-0.592D-07 0.488D-05 0.262D-04 0.785D-04
 Coeff:     -0.229D-02 0.280D-01-0.246D+00 0.122D+01
 Gap=     0.049 Goal=   None    Shift=    0.000
 Gap=     0.243 Goal=   None    Shift=    0.000
 RMSDP=6.98D-07 MaxDP=3.55D-05 DE=-2.26D-12 OVMax= 7.57D-07

 Cycle  11  Pass 1  IDiag  1:
 E= -39.1186016237149     Delta-E=       -0.000000000000 Rises=F Damp=F
 DIIS: error= 2.52D-09 at cycle  11 NSaved=  11.
 NSaved=11 IEnMin=11 EnMin= -39.1186016237149     IErMin=11 ErrMin= 2.52D-09
 ErrMax= 2.52D-09  0.00D+00 EMaxC= 1.00D-01 BMatC= 7.89D-16 BMatP= 3.95D-14
 IDIUse=1 WtCom= 1.00D+00 WtEn= 0.00D+00
 Coeff-Com:  0.137D-06-0.165D-06-0.521D-06-0.607D-06-0.284D-05 0.475D-04
 Coeff-Com: -0.308D-03 0.851D-03 0.115D-01-0.195D+00 0.118D+01
 Coeff:      0.137D-06-0.165D-06-0.521D-06-0.607D-06-0.284D-05 0.475D-04
 Coeff:     -0.308D-03 0.851D-03 0.115D-01-0.195D+00 0.118D+01
 Gap=     0.049 Goal=   None    Shift=    0.000
 Gap=     0.243 Goal=   None    Shift=    0.000
 RMSDP=6.40D-08 MaxDP=2.93D-06 DE=-2.42D-13 OVMax= 1.37D-07

 Cycle  12  Pass 1  IDiag  1:
 E= -39.1186016237150     Delta-E=       -0.000000000000 Rises=F Damp=F
 DIIS: error= 6.00D-10 at cycle  12 NSaved=  12.
 NSaved=12 IEnMin=12 EnMin= -39.1186016237150     IErMin=12 ErrMin= 6.00D-10
 ErrMax= 6.00D-10  0.00D+00 EMaxC= 1.00D-01 BMatC= 2.72D-17 BMatP= 7.89D-16
 IDIUse=1 WtCom= 1.00D+00 WtEn= 0.00D+00
 Coeff-Com:  0.373D-07-0.455D-07 0.161D-07-0.382D-06 0.515D-06-0.537D-06
 Coeff-Com:  0.259D-04-0.409D-03 0.316D-02-0.133D-01-0.867D-01 0.110D+01
 Coeff:      0.373D-07-0.455D-07 0.161D-07-0.382D-06 0.515D-06-0.537D-06
 Coeff:      0.259D-04-0.409D-03 0.316D-02-0.133D-01-0.867D-01 0.110D+01
 Gap=     0.049 Goal=   None    Shift=    0.000
 Gap=     0.243 Goal=   None    Shift=    0.000
 RMSDP=5.93D-09 MaxDP=2.69D-07 DE=-4.97D-14 OVMax= 1.55D-08

 SCF Done:  E(UB3LYP) =  -39.1186016237     A.U. after   12 cycles
            NFock= 12  Conv=0.59D-08     -V/T= 2.0028
 <Sx>= 0.0000 <Sy>= 0.0000 <Sz>= 1.5000 <S**2>= 3.7536 S= 1.5009
 <L.S>= 0.000000000000E+00
 KE= 3.901031075961D+01 PE=-1.039766377907D+02 EE= 1.981663830674D+01
 Annihilation of the first spin contaminant:
 S**2 before annihilation     3.7536,   after     3.7500
 Leave Link  502 at Wed Jan 23 22:02:46 2019, MaxMem=   412876800 cpu:         3.2
 (Enter /usr/local/gaussian/gaussian09/g09/l601.exe)
 Copying SCF densities to generalized density rwf, IOpCl= 1 IROHF=0.

 **********************************************************************

            Population analysis using the SCF density.

 **********************************************************************

 Orbital symmetries:
 Alpha Orbitals:
       Occupied  (A1) (A1) (B2) (A1) (B1) (A1)
       Virtual   (B2) (A1) (B1) (B2) (A1) (A1) (B2) (A1) (A2) (B1)
                 (B2) (A1) (A1) (B1) (A1) (B2) (B2) (A1) (A2) (B2)
                 (B1) (A1) (B2) (A1) (B1) (A2) (A1) (A1) (B2) (A1)
                 (B2) (B1) (B1) (A1) (B2) (A2) (B1) (A1) (B2) (B2)
                 (A1) (B1) (A1) (A2) (B2) (A1) (B2) (B1) (A2) (A1)
                 (A1) (B2) (A1)
 Beta  Orbitals:
       Occupied  (A1) (A1) (B2)
       Virtual   (A1) (B1) (A1) (B2) (A1) (B2) (B1) (A1) (A1) (B2)
                 (A1) (A2) (B1) (B2) (A1) (A1) (B1) (A1) (B2) (B2)
                 (A1) (A2) (B2) (B1) (A1) (B2) (A1) (A2) (B1) (A1)
                 (A1) (B2) (A1) (B2) (B1) (B1) (A1) (B2) (A2) (B1)
                 (A1) (B2) (B2) (A1) (B1) (A1) (B2) (A2) (A1) (B2)
                 (A2) (B1) (A1) (A1) (B2) (A1)
 The electronic state is 4-B1.
 Alpha  occ. eigenvalues --  -10.06663  -0.52432  -0.24877  -0.17471  -0.09444
 Alpha  occ. eigenvalues --    0.07413
 Alpha virt. eigenvalues --    0.12286   0.16861   0.18480   0.20183   0.23933
 Alpha virt. eigenvalues --    0.29945   0.30730   0.44265   0.46065   0.46129
 Alpha virt. eigenvalues --    0.47494   0.53245   0.66261   0.66670   0.73133
 Alpha virt. eigenvalues --    0.75136   0.83414   0.89420   1.04801   1.09104
 Alpha virt. eigenvalues --    1.11063   1.13451   1.36712   1.47709   1.73655
 Alpha virt. eigenvalues --    1.75408   1.83955   1.96485   2.12847   2.57856
 Alpha virt. eigenvalues --    2.74863   2.80939   2.92048   2.99197   3.08022
 Alpha virt. eigenvalues --    3.11706   3.11713   3.17544   3.23898   3.58425
 Alpha virt. eigenvalues --    3.72651   4.24920   4.33559   4.34221   4.34462
 Alpha virt. eigenvalues --    5.11467   5.73793   7.08506   7.12960   7.14855
 Alpha virt. eigenvalues --    7.28722   7.86717  23.96761
  Beta  occ. eigenvalues --  -10.03605  -0.45148  -0.22395
  Beta virt. eigenvalues --    0.01911   0.07971   0.12080   0.15125   0.20184
  Beta virt. eigenvalues --    0.21416   0.22015   0.25451   0.32145   0.33031
  Beta virt. eigenvalues --    0.46550   0.47747   0.49600   0.49668   0.56491
  Beta virt. eigenvalues --    0.72292   0.74011   0.75547   0.77490   0.84511
  Beta virt. eigenvalues --    0.93344   1.06070   1.09924   1.13038   1.15623
  Beta virt. eigenvalues --    1.39685   1.51889   1.82377   1.84754   1.92524
  Beta virt. eigenvalues --    2.03023   2.17166   2.60663   2.78409   2.90001
  Beta virt. eigenvalues --    3.01106   3.09411   3.13145   3.17734   3.19103
  Beta virt. eigenvalues --    3.25025   3.26812   3.61318   3.76094   4.26906
  Beta virt. eigenvalues --    4.34943   4.36320   4.36466   5.14187   5.76584
  Beta virt. eigenvalues --    7.20977   7.21385   7.25744   7.37185   7.92656
  Beta virt. eigenvalues --   24.00216
          Condensed to atoms (all electrons):
               1          2          3
     1  C   19.262878  -7.602655  -7.602655
     2  H   -7.602655   5.808787   4.265084
     3  H   -7.602655   4.265084   5.808787
          Atomic-Atomic Spin Densities.
               1          2          3
     1  C   15.643246  -7.984185  -7.984185
     2  H   -7.984185   5.313943   4.332805
     3  H   -7.984185   4.332805   5.313943
 Mulliken charges and spin densities:
               1          2
     1  C    1.942432  -0.325125
     2  H   -1.471216   1.662563
     3  H   -1.471216   1.662563
 Sum of Mulliken charges =  -1.00000   3.00000
 Mulliken charges and spin densities with hydrogens summed into heavy atoms:
               1          2
     1  C   -1.000000   3.000000
 Electronic spatial extent (au):  <R**2>=             72.5767
 Charge=             -1.0000 electrons
 Dipole moment (field-independent basis, Debye):
    X=              0.0000    Y=              0.0000    Z=              3.4921  Tot=              3.4921
 Quadrupole moment (field-independent basis, Debye-Ang):
   XX=            -22.6382   YY=            -34.7428   ZZ=            -29.5869
   XY=             -0.0000   XZ=             -0.0000   YZ=             -0.0000
 Traceless Quadrupole moment (field-independent basis, Debye-Ang):
   XX=              6.3511   YY=             -5.7535   ZZ=             -0.5976
   XY=             -0.0000   XZ=             -0.0000   YZ=             -0.0000
 Octapole moment (field-independent basis, Debye-Ang**2):
  XXX=              0.0000  YYY=             -0.0000  ZZZ=             39.5145  XYY=              0.0000
  XXY=              0.0000  XXZ=             11.0218  XZZ=              0.0000  YZZ=             -0.0000
  YYZ=             19.1315  XYZ=              0.0000
 Hexadecapole moment (field-independent basis, Debye-Ang**3):
 XXXX=           -129.2184 YYYY=           -333.4840 ZZZZ=           -248.4477 XXXY=             -0.0000
 XXXZ=             -0.0000 YYYX=             -0.0000 YYYZ=              0.0000 ZZZX=             -0.0000
 ZZZY=              0.0000 XXYY=            -73.3667 XXZZ=            -61.7610 YYZZ=            -98.9079
 XXYZ=             -0.0000 YYXZ=             -0.0000 ZZXY=             -0.0000
 N-N= 6.031087100665D+00 E-N=-1.039766377973D+02  KE= 3.901031075961D+01
 Symmetry A1   KE= 3.588051092271D+01
 Symmetry A2   KE= 1.662492646532D-34
 Symmetry B1   KE= 1.150190714720D+00
 Symmetry B2   KE= 1.979609122183D+00
                          Isotropic Fermi Contact Couplings
        Atom                 a.u.       MegaHertz       Gauss      10(-4) cm-1
     1  C(13)              0.75611     283.33729     101.10179      94.51115
     2  H(1)               0.01157      17.24211       6.15241       5.75135
     3  H(1)               0.01157      17.24211       6.15241       5.75135
 --------------------------------------------------------
       Center         ----  Spin Dipole Couplings  ----
                      3XX-RR        3YY-RR        3ZZ-RR
 --------------------------------------------------------
     1   Atom        0.751398     -1.047327      0.295930
     2   Atom       -0.056814      0.069278     -0.012464
     3   Atom       -0.056814      0.069278     -0.012464
 --------------------------------------------------------
                        XY            XZ            YZ
 --------------------------------------------------------
     1   Atom        0.000000      0.000000     -0.000000
     2   Atom        0.000000      0.000000     -0.113088
     3   Atom        0.000000      0.000000      0.113088
 --------------------------------------------------------


 ---------------------------------------------------------------------------------
              Anisotropic Spin Dipole Couplings in Principal Axis System
 ---------------------------------------------------------------------------------

       Atom             a.u.   MegaHertz   Gauss  10(-4) cm-1        Axes

              Baa    -1.0473  -140.541   -50.149   -46.880  0.0000  1.0000 -0.0000
     1 C(13)  Bbb     0.2959    39.711    14.170    13.246  0.0000  0.0000  1.0000
              Bcc     0.7514   100.830    35.979    33.633  1.0000 -0.0000  0.0000
 
              Baa    -0.0918   -49.001   -17.485   -16.345 -0.0000  0.5745  0.8185
     2 H(1)   Bbb    -0.0568   -30.313   -10.817   -10.111  1.0000  0.0000  0.0000
              Bcc     0.1487    79.315    28.302    26.457 -0.0000  0.8185 -0.5745
 
              Baa    -0.0918   -49.001   -17.485   -16.345 -0.0000 -0.5745  0.8185
     3 H(1)   Bbb    -0.0568   -30.313   -10.817   -10.111  1.0000 -0.0000  0.0000
              Bcc     0.1487    79.315    28.302    26.457  0.0000  0.8185  0.5745
 

 ---------------------------------------------------------------------------------

 No NMR shielding tensors so no spin-rotation constants.
 Leave Link  601 at Wed Jan 23 22:02:47 2019, MaxMem=   412876800 cpu:         0.8
 (Enter /usr/local/gaussian/gaussian09/g09/l701.exe)
 Compute integral first derivatives.
 ... and contract with generalized density number  0.
 Leave Link  701 at Wed Jan 23 22:02:47 2019, MaxMem=   412876800 cpu:         0.5
 (Enter /usr/local/gaussian/gaussian09/g09/l702.exe)
 L702 exits ... SP integral derivatives will be done elsewhere.
 Leave Link  702 at Wed Jan 23 22:02:47 2019, MaxMem=   412876800 cpu:         0.0
 (Enter /usr/local/gaussian/gaussian09/g09/l703.exe)
 Compute integral first derivatives, UseDBF=F ICtDFT=           0.
 Integral derivatives from FoFJK, PRISM(SPDF).
 Calling FoFJK, ICntrl=      2127 FMM=F ISym2X=1 I1Cent= 0 IOpClX= 1 NMat=1 NMatS=1 NMatT=0.
 FoFJK:  IHMeth= 1 ICntrl=    2127 DoSepK=F KAlg= 0 I1Cent=   0 FoldK=F
 IRaf=         0 NMat=   1 IRICut=       1 DoRegI=T DoRafI=F ISym2E= 1.
 FoFCou: FMM=F IPFlag=           0 FMFlag=      100000 FMFlg1=         800
         NFxFlg=           0 DoJE=F BraDBF=F KetDBF=F FulRan=T
         wScrn=  0.000000 ICntrl=    2127 IOpCl=  1 I1Cent=           0 NGrid=           0
         NMat0=    1 NMatS0=      1 NMatT0=    0 NMatD0=    1 NMtDS0=    0 NMtDT0=    0
 Petite list used in FoFCou.
 Leave Link  703 at Wed Jan 23 22:02:48 2019, MaxMem=   412876800 cpu:         2.0
 (Enter /usr/local/gaussian/gaussian09/g09/l716.exe)
 Dipole        = 4.32406676D-16 1.77635684D-15 1.37391562D+00
 ***** Axes restored to original set *****
 -------------------------------------------------------------------
 Center     Atomic                   Forces (Hartrees/Bohr)
 Number     Number              X              Y              Z
 -------------------------------------------------------------------
      1        6           0.000000000    0.000000000   -0.057597763
      2        1          -0.000000000    0.014176687    0.028798881
      3        1          -0.000000000   -0.014176687    0.028798881
 -------------------------------------------------------------------
 Cartesian Forces:  Max     0.057597763 RMS     0.024445427
 Leave Link  716 at Wed Jan 23 22:02:48 2019, MaxMem=   412876800 cpu:         0.1
 (Enter /usr/local/gaussian/gaussian09/g09/l103.exe)

 GradGradGradGradGradGradGradGradGradGradGradGradGradGradGradGradGradGrad
 Berny optimization.
 FormGI is forming the generalized inverse of G from B-inverse, IUseBI=4.
 Internal  Forces:  Max     0.065613382 RMS     0.038326367
 Search for a local minimum.
 Step number   1 out of a maximum of   20
 All quantities printed in internal units (Hartrees-Bohrs-Radians)
 RMS Force = .38326D-01 SwitMx=.10000D-02 MixMth= 1
 Mixed Optimization -- RFO/linear search
 Second derivative matrix not updated -- first step.
 The second derivative matrix:
                          R1        R2        A1
           R1           0.32666
           R2           0.00000   0.32666
           A1           0.00000   0.00000   0.16000
 ITU=  0
     Eigenvalues ---    0.16000   0.32666   0.32666
 RFO step:  Lambda=-2.37226978D-02 EMin= 1.60000000D-01
 Linear search not attempted -- first point.
 Maximum step size (   0.300) exceeded in Quadratic search.
    -- Step size scaled by   0.837
 Iteration  1 RMS(Cart)=  0.12673145 RMS(Int)=  0.05743027
 Iteration  2 RMS(Cart)=  0.05812468 RMS(Int)=  0.00208625
 Iteration  3 RMS(Cart)=  0.00201088 RMS(Int)=  0.00000029
 Iteration  4 RMS(Cart)=  0.00000029 RMS(Int)=  0.00000000
 ITry= 1 IFail=0 DXMaxC= 1.77D-01 DCOld= 1.00D+10 DXMaxT= 3.00D-01 DXLimC= 3.00D+00 Rises=F
 ClnCor:  largest displacement from symmetrization is 1.91D-14 for atom     3.
 Variable       Old X    -DE/DX   Delta X   Delta X   Delta X     New X
                                 (Linear)    (Quad)   (Total)
    R1        2.09643  -0.00713   0.00000  -0.01703  -0.01703   2.07939
    R2        2.09643  -0.00713   0.00000  -0.01703  -0.01703   2.07939
    A1        1.77886   0.06561   0.00000   0.29903   0.29903   2.07789
         Item               Value     Threshold  Converged?
 Maximum Force            0.065613     0.000450     NO 
 RMS     Force            0.038326     0.000300     NO 
 Maximum Displacement     0.177282     0.001800     NO 
 RMS     Displacement     0.183334     0.001200     NO 
 Predicted change in Energy=-1.261493D-02
 Lowest energy point so far.  Saving SCF results.
 GradGradGradGradGradGradGradGradGradGradGradGradGradGradGradGradGradGrad

 Leave Link  103 at Wed Jan 23 22:02:48 2019, MaxMem=   412876800 cpu:         0.0
 (Enter /usr/local/gaussian/gaussian09/g09/l202.exe)
                          Input orientation:                          
 ---------------------------------------------------------------------
 Center     Atomic      Atomic             Coordinates (Angstroms)
 Number     Number       Type             X           Y           Z
 ---------------------------------------------------------------------
      1          6           0        0.000000    0.000000    0.080976
      2          1           0        0.000000    0.948373   -0.477054
      3          1           0       -0.000000   -0.948373   -0.477054
 ---------------------------------------------------------------------
                    Distance matrix (angstroms):
                    1          2          3
     1  C    0.000000
     2  H    1.100368   0.000000
     3  H    1.100368   1.896746   0.000000
 Stoichiometry    CH2(1-,4)
 Framework group  C2V[C2(C),SGV(H2)]
 Deg. of freedom     2
 Full point group                 C2V     NOp   4
 RotChk:  IX=0 Diff= 8.88D-16
 Largest Abelian subgroup         C2V     NOp   4
 Largest concise Abelian subgroup C2      NOp   2
                         Standard orientation:                         
 ---------------------------------------------------------------------
 Center     Atomic      Atomic             Coordinates (Angstroms)
 Number     Number       Type             X           Y           Z
 ---------------------------------------------------------------------
      1          6           0       -0.000000    0.000000    0.139508
      2          1           0        0.000000    0.948373   -0.418523
      3          1           0       -0.000000   -0.948373   -0.418523
 ---------------------------------------------------------------------
 Rotational constants (GHZ):    940.4125146    278.7684008    215.0273922
 Leave Link  202 at Wed Jan 23 22:02:48 2019, MaxMem=   412876800 cpu:         0.0
 (Enter /usr/local/gaussian/gaussian09/g09/l301.exe)
 Standard basis: 6-311++G(3df,2p) (5D, 7F)
 Ernie: Thresh=  0.10000D-02 Tol=  0.10000D-05 Strict=F.
 There are    29 symmetry adapted cartesian basis functions of A1  symmetry.
 There are     6 symmetry adapted cartesian basis functions of A2  symmetry.
 There are    12 symmetry adapted cartesian basis functions of B1  symmetry.
 There are    18 symmetry adapted cartesian basis functions of B2  symmetry.
 There are    25 symmetry adapted basis functions of A1  symmetry.
 There are     6 symmetry adapted basis functions of A2  symmetry.
 There are    11 symmetry adapted basis functions of B1  symmetry.
 There are    17 symmetry adapted basis functions of B2  symmetry.
    59 basis functions,    82 primitive gaussians,    65 cartesian basis functions
     6 alpha electrons        3 beta electrons
       nuclear repulsion energy         6.0499041818 Hartrees.
 IExCor=  402 DFT=T Ex+Corr=B3LYP ExCW=0 ScaHFX=  0.200000
 ScaDFX=  0.800000  0.720000  1.000000  0.810000 ScalE2=  1.000000  1.000000
 IRadAn=      0 IRanWt=     -1 IRanGd=            0 ICorTp=0 IEmpDi=  4
 NAtoms=    3 NActive=    3 NUniq=    2 SFac= 2.25D+00 NAtFMM=   60 NAOKFM=F Big=F
 Integral buffers will be    131072 words long.
 Raffenetti 2 integral format.
 Two-electron integral symmetry is turned on.
 Leave Link  301 at Wed Jan 23 22:02:48 2019, MaxMem=   412876800 cpu:         0.2
 (Enter /usr/local/gaussian/gaussian09/g09/l302.exe)
 NPDir=0 NMtPBC=     1 NCelOv=     1 NCel=       1 NClECP=     1 NCelD=      1
         NCelK=      1 NCelE2=     1 NClLst=     1 CellRange=     0.0.
 One-electron integrals computed using PRISM.
 One-electron integral symmetry used in STVInt
 NBasis=    59 RedAO= T EigKep=  5.12D-03  NBF=    25     6    11    17
 NBsUse=    59 1.00D-06 EigRej= -1.00D+00 NBFU=    25     6    11    17
 Precomputing XC quadrature grid using
 IXCGrd= 4 IRadAn=           0 IRanWt=          -1 IRanGd=           0 AccXCQ= 0.00D+00.
 Generated NRdTot=       0 NPtTot=           0 NUsed=           0 NTot=          32
 NSgBfM=    65    65    65    65    65 MxSgAt=     3 MxSgA2=     3.
 Leave Link  302 at Wed Jan 23 22:02:49 2019, MaxMem=   412876800 cpu:         0.5
 (Enter /usr/local/gaussian/gaussian09/g09/l303.exe)
 DipDrv:  MaxL=1.
 Leave Link  303 at Wed Jan 23 22:02:49 2019, MaxMem=   412876800 cpu:         0.1
 (Enter /usr/local/gaussian/gaussian09/g09/l401.exe)
 Initial guess from the checkpoint file:  "/scratch/sergio/H2C.q-1.m4-1.com-4919751/Gau-8004.chk"
 B after Tr=    -0.000000   -0.000000   -0.000000
         Rot=    1.000000    0.000000   -0.000000   -0.000000 Ang=   0.00 deg.
 Guess basis will be translated and rotated to current coordinates.
 JPrj=2 DoOrth=T DoCkMO=T.
 Initial guess orbital symmetries:
 Alpha Orbitals:
       Occupied  (A1) (A1) (B2) (A1) (B1) (A1)
       Virtual   (A1) (A1) (A1) (A1) (A1) (A1) (A1) (A1) (A1) (A1)
                 (A1) (A1) (A1) (A1) (A1) (A1) (A1) (A1) (A1) (A1)
                 (A1) (A2) (A2) (A2) (A2) (A2) (A2) (B1) (B1) (B1)
                 (B1) (B1) (B1) (B1) (B1) (B1) (B1) (B2) (B2) (B2)
                 (B2) (B2) (B2) (B2) (B2) (B2) (B2) (B2) (B2) (B2)
                 (B2) (B2) (B2)
 Beta  Orbitals:
       Occupied  (A1) (A1) (B2)
       Virtual   (A1) (A1) (A1) (A1) (A1) (A1) (A1) (A1) (A1) (A1)
                 (A1) (A1) (A1) (A1) (A1) (A1) (A1) (A1) (A1) (A1)
                 (A1) (A1) (A1) (A2) (A2) (A2) (A2) (A2) (A2) (B1)
                 (B1) (B1) (B1) (B1) (B1) (B1) (B1) (B1) (B1) (B1)
                 (B2) (B2) (B2) (B2) (B2) (B2) (B2) (B2) (B2) (B2)
                 (B2) (B2) (B2) (B2) (B2) (B2)
 The electronic state of the initial guess is 4-B1.
 Initial guess <Sx>= 0.0000 <Sy>= 0.0000 <Sz>= 1.5000 <S**2>= 3.7535 S= 1.5009
 Generating alternative initial guess.
 ExpMin= 3.60D-02 ExpMax= 4.56D+03 ExpMxC= 6.82D+02 IAcc=3 IRadAn=         5 AccDes= 0.00D+00
 Harris functional with IExCor=  402 and IRadAn=       5 diagonalized for initial guess.
 HarFok:  IExCor=  402 AccDes= 0.00D+00 IRadAn=         5 IDoV= 1 UseB2=F ITyADJ=14
 ICtDFT=  3500011 ScaDFX=  1.000000  1.000000  1.000000  1.000000
 FoFCou: FMM=F IPFlag=           0 FMFlag=      100000 FMFlg1=           0
         NFxFlg=           0 DoJE=T BraDBF=F KetDBF=T FulRan=T
         wScrn=  0.000000 ICntrl=     500 IOpCl=  0 I1Cent=   200000004 NGrid=           0
         NMat0=    1 NMatS0=      1 NMatT0=    0 NMatD0=    1 NMtDS0=    0 NMtDT0=    0
 Petite list used in FoFCou.
 Harris En= -39.1314005923851    
 Leave Link  401 at Wed Jan 23 22:02:49 2019, MaxMem=   412876800 cpu:         0.8
 (Enter /usr/local/gaussian/gaussian09/g09/l502.exe)
 UHF open shell SCF:
 Using DIIS extrapolation, IDIIS=  1040.
 Integral symmetry usage will be decided dynamically.
 Keep R1 and R2 ints in memory in symmetry-blocked form, NReq=3562147.
 IVT=       32225 IEndB=       32225 NGot=   412876800 MDV=   412021517
 LenX=   412021517 LenY=   412016851
 Requested convergence on RMS density matrix=1.00D-08 within 128 cycles.
 Requested convergence on MAX density matrix=1.00D-06.
 Requested convergence on             energy=1.00D-06.
 No special actions if energy rises.
 FoFCou: FMM=F IPFlag=           0 FMFlag=           0 FMFlg1=           0
         NFxFlg=           0 DoJE=F BraDBF=F KetDBF=F FulRan=T
         wScrn=  0.000000 ICntrl=     600 IOpCl=  0 I1Cent=           0 NGrid=           0
         NMat0=    1 NMatS0=   1770 NMatT0=    0 NMatD0=    1 NMtDS0=    0 NMtDT0=    0
 Petite list used in FoFCou.

 Cycle   1  Pass 1  IDiag  1:
 E= -39.1275979375919    
 DIIS: error= 7.75D-03 at cycle   1 NSaved=   1.
 NSaved= 1 IEnMin= 1 EnMin= -39.1275979375919     IErMin= 1 ErrMin= 7.75D-03
 ErrMax= 7.75D-03  0.00D+00 EMaxC= 1.00D-01 BMatC= 1.15D-02 BMatP= 1.15D-02
 IDIUse=3 WtCom= 9.23D-01 WtEn= 7.75D-02
 Coeff-Com:  0.100D+01
 Coeff-En:   0.100D+01
 Coeff:      0.100D+01
 Gap=     0.459 Goal=   None    Shift=    0.000
 Gap=     0.385 Goal=   None    Shift=    0.000
 GapD=    0.385 DampG=1.000 DampE=1.000 DampFc=1.0000 IDamp=-1.
 RMSDP=2.00D-02 MaxDP=7.15D-01              OVMax= 1.19D-01

 Cycle   2  Pass 1  IDiag  1:
 E= -39.1319716644064     Delta-E=       -0.004373726815 Rises=F Damp=F
 DIIS: error= 2.64D-03 at cycle   2 NSaved=   2.
 NSaved= 2 IEnMin= 2 EnMin= -39.1319716644064     IErMin= 2 ErrMin= 2.64D-03
 ErrMax= 2.64D-03  0.00D+00 EMaxC= 1.00D-01 BMatC= 2.35D-04 BMatP= 1.15D-02
 IDIUse=3 WtCom= 9.74D-01 WtEn= 2.64D-02
 Coeff-Com: -0.113D-01 0.101D+01
 Coeff-En:   0.000D+00 0.100D+01
 Coeff:     -0.110D-01 0.101D+01
 Gap=     0.043 Goal=   None    Shift=    0.000
 Gap=     0.291 Goal=   None    Shift=    0.000
 RMSDP=9.78D-03 MaxDP=4.70D-01 DE=-4.37D-03 OVMax= 2.61D-02

 Cycle   3  Pass 1  IDiag  1:
 E= -39.1322253451526     Delta-E=       -0.000253680746 Rises=F Damp=F
 DIIS: error= 7.49D-04 at cycle   3 NSaved=   3.
 NSaved= 3 IEnMin= 3 EnMin= -39.1322253451526     IErMin= 3 ErrMin= 7.49D-04
 ErrMax= 7.49D-04  0.00D+00 EMaxC= 1.00D-01 BMatC= 4.96D-05 BMatP= 2.35D-04
 IDIUse=3 WtCom= 9.93D-01 WtEn= 7.49D-03
 Coeff-Com: -0.128D-01 0.223D+00 0.790D+00
 Coeff-En:   0.000D+00 0.000D+00 0.100D+01
 Coeff:     -0.127D-01 0.221D+00 0.791D+00
 Gap=     0.044 Goal=   None    Shift=    0.000
 Gap=     0.292 Goal=   None    Shift=    0.000
 RMSDP=4.62D-03 MaxDP=2.23D-01 DE=-2.54D-04 OVMax= 1.13D-02

 Cycle   4  Pass 1  IDiag  1:
 E= -39.1322603320181     Delta-E=       -0.000034986866 Rises=F Damp=F
 DIIS: error= 3.51D-04 at cycle   4 NSaved=   4.
 NSaved= 4 IEnMin= 4 EnMin= -39.1322603320181     IErMin= 4 ErrMin= 3.51D-04
 ErrMax= 3.51D-04  0.00D+00 EMaxC= 1.00D-01 BMatC= 6.60D-06 BMatP= 4.96D-05
 IDIUse=3 WtCom= 9.96D-01 WtEn= 3.51D-03
 Coeff-Com:  0.242D-02-0.136D+00 0.654D-01 0.107D+01
 Coeff-En:   0.000D+00 0.000D+00 0.000D+00 0.100D+01
 Coeff:      0.241D-02-0.135D+00 0.652D-01 0.107D+01
 Gap=     0.044 Goal=   None    Shift=    0.000
 Gap=     0.292 Goal=   None    Shift=    0.000
 RMSDP=2.88D-03 MaxDP=1.40D-01 DE=-3.50D-05 OVMax= 6.89D-03

 Cycle   5  Pass 1  IDiag  1:
 E= -39.1322678845253     Delta-E=       -0.000007552507 Rises=F Damp=F
 DIIS: error= 1.17D-04 at cycle   5 NSaved=   5.
 NSaved= 5 IEnMin= 5 EnMin= -39.1322678845253     IErMin= 5 ErrMin= 1.17D-04
 ErrMax= 1.17D-04  0.00D+00 EMaxC= 1.00D-01 BMatC= 1.40D-06 BMatP= 6.60D-06
 IDIUse=3 WtCom= 9.99D-01 WtEn= 1.17D-03
 Coeff-Com:  0.187D-02-0.756D-01-0.178D-01 0.467D+00 0.625D+00
 Coeff-En:   0.000D+00 0.000D+00 0.000D+00 0.000D+00 0.100D+01
 Coeff:      0.187D-02-0.755D-01-0.177D-01 0.466D+00 0.625D+00
 Gap=     0.044 Goal=   None    Shift=    0.000
 Gap=     0.292 Goal=   None    Shift=    0.000
 RMSDP=5.99D-04 MaxDP=3.08D-02 DE=-7.55D-06 OVMax= 8.61D-04

 Cycle   6  Pass 1  IDiag  1:
 E= -39.1322684575432     Delta-E=       -0.000000573018 Rises=F Damp=F
 DIIS: error= 2.13D-05 at cycle   6 NSaved=   6.
 NSaved= 6 IEnMin= 6 EnMin= -39.1322684575432     IErMin= 6 ErrMin= 2.13D-05
 ErrMax= 2.13D-05  0.00D+00 EMaxC= 1.00D-01 BMatC= 3.65D-08 BMatP= 1.40D-06
 IDIUse=1 WtCom= 1.00D+00 WtEn= 0.00D+00
 Coeff-Com:  0.169D-03 0.143D-02-0.458D-02-0.531D-01 0.817D-01 0.974D+00
 Coeff:      0.169D-03 0.143D-02-0.458D-02-0.531D-01 0.817D-01 0.974D+00
 Gap=     0.044 Goal=   None    Shift=    0.000
 Gap=     0.292 Goal=   None    Shift=    0.000
 RMSDP=2.31D-04 MaxDP=1.18D-02 DE=-5.73D-07 OVMax= 3.76D-04

 Cycle   7  Pass 1  IDiag  1:
 E= -39.1322684839921     Delta-E=       -0.000000026449 Rises=F Damp=F
 DIIS: error= 2.27D-06 at cycle   7 NSaved=   7.
 NSaved= 7 IEnMin= 7 EnMin= -39.1322684839921     IErMin= 7 ErrMin= 2.27D-06
 ErrMax= 2.27D-06  0.00D+00 EMaxC= 1.00D-01 BMatC= 3.57D-10 BMatP= 3.65D-08
 IDIUse=1 WtCom= 1.00D+00 WtEn= 0.00D+00
 Coeff-Com: -0.538D-04 0.141D-02 0.429D-04-0.599D-03-0.215D-01-0.136D+00
 Coeff-Com:  0.116D+01
 Coeff:     -0.538D-04 0.141D-02 0.429D-04-0.599D-03-0.215D-01-0.136D+00
 Coeff:      0.116D+01
 Gap=     0.044 Goal=   None    Shift=    0.000
 Gap=     0.292 Goal=   None    Shift=    0.000
 RMSDP=4.15D-05 MaxDP=2.22D-03 DE=-2.64D-08 OVMax= 3.65D-05

 Cycle   8  Pass 1  IDiag  1:
 E= -39.1322684843320     Delta-E=       -0.000000000340 Rises=F Damp=F
 DIIS: error= 2.94D-07 at cycle   8 NSaved=   8.
 NSaved= 8 IEnMin= 8 EnMin= -39.1322684843320     IErMin= 8 ErrMin= 2.94D-07
 ErrMax= 2.94D-07  0.00D+00 EMaxC= 1.00D-01 BMatC= 6.78D-12 BMatP= 3.57D-10
 IDIUse=1 WtCom= 1.00D+00 WtEn= 0.00D+00
 Coeff-Com:  0.360D-05-0.181D-03 0.452D-04 0.130D-02 0.954D-03-0.609D-02
 Coeff-Com: -0.102D+00 0.111D+01
 Coeff:      0.360D-05-0.181D-03 0.452D-04 0.130D-02 0.954D-03-0.609D-02
 Coeff:     -0.102D+00 0.111D+01
 Gap=     0.044 Goal=   None    Shift=    0.000
 Gap=     0.292 Goal=   None    Shift=    0.000
 RMSDP=5.27D-06 MaxDP=2.85D-04 DE=-3.40D-10 OVMax= 4.24D-06

 Cycle   9  Pass 1  IDiag  1:
 E= -39.1322684843391     Delta-E=       -0.000000000007 Rises=F Damp=F
 DIIS: error= 1.17D-07 at cycle   9 NSaved=   9.
 NSaved= 9 IEnMin= 9 EnMin= -39.1322684843391     IErMin= 9 ErrMin= 1.17D-07
 ErrMax= 1.17D-07  0.00D+00 EMaxC= 1.00D-01 BMatC= 5.05D-13 BMatP= 6.78D-12
 IDIUse=1 WtCom= 1.00D+00 WtEn= 0.00D+00
 Coeff-Com:  0.579D-06-0.858D-05-0.451D-05-0.231D-03 0.115D-03 0.572D-02
 Coeff-Com: -0.219D-01-0.188D+00 0.120D+01
 Coeff:      0.579D-06-0.858D-05-0.451D-05-0.231D-03 0.115D-03 0.572D-02
 Coeff:     -0.219D-01-0.188D+00 0.120D+01
 Gap=     0.044 Goal=   None    Shift=    0.000
 Gap=     0.292 Goal=   None    Shift=    0.000
 RMSDP=1.29D-06 MaxDP=6.92D-05 DE=-7.11D-12 OVMax= 1.10D-06

 Cycle  10  Pass 1  IDiag  1:
 E= -39.1322684843397     Delta-E=       -0.000000000001 Rises=F Damp=F
 DIIS: error= 1.53D-08 at cycle  10 NSaved=  10.
 NSaved=10 IEnMin=10 EnMin= -39.1322684843397     IErMin=10 ErrMin= 1.53D-08
 ErrMax= 1.53D-08  0.00D+00 EMaxC= 1.00D-01 BMatC= 9.59D-15 BMatP= 5.05D-13
 IDIUse=1 WtCom= 1.00D+00 WtEn= 0.00D+00
 Coeff-Com: -0.137D-06 0.708D-05-0.888D-06-0.247D-04-0.478D-05-0.301D-03
 Coeff-Com:  0.510D-02-0.241D-01-0.957D-01 0.112D+01
 Coeff:     -0.137D-06 0.708D-05-0.888D-06-0.247D-04-0.478D-05-0.301D-03
 Coeff:      0.510D-02-0.241D-01-0.957D-01 0.112D+01
 Gap=     0.044 Goal=   None    Shift=    0.000
 Gap=     0.292 Goal=   None    Shift=    0.000
 RMSDP=1.03D-08 MaxDP=3.80D-07 DE=-6.25D-13 OVMax= 5.36D-08

 Cycle  11  Pass 1  IDiag  1:
 E= -39.1322684843394     Delta-E=        0.000000000000 Rises=F Damp=F
 DIIS: error= 1.33D-09 at cycle  11 NSaved=  11.
 NSaved=11 IEnMin=10 EnMin= -39.1322684843397     IErMin=11 ErrMin= 1.33D-09
 ErrMax= 1.33D-09  0.00D+00 EMaxC= 1.00D-01 BMatC= 1.40D-16 BMatP= 9.59D-15
 IDIUse=1 WtCom= 1.00D+00 WtEn= 0.00D+00
 Coeff-Com:  0.410D-08-0.804D-06 0.140D-06 0.675D-05-0.460D-05-0.405D-04
 Coeff-Com: -0.386D-03 0.526D-02 0.318D-02-0.200D+00 0.119D+01
 Coeff:      0.410D-08-0.804D-06 0.140D-06 0.675D-05-0.460D-05-0.405D-04
 Coeff:     -0.386D-03 0.526D-02 0.318D-02-0.200D+00 0.119D+01
 Gap=     0.044 Goal=   None    Shift=    0.000
 Gap=     0.292 Goal=   None    Shift=    0.000
 RMSDP=3.63D-08 MaxDP=1.96D-06 DE= 3.20D-13 OVMax= 3.12D-08

 Cycle  12  Pass 1  IDiag  1:
 E= -39.1322684843396     Delta-E=       -0.000000000000 Rises=F Damp=F
 DIIS: error= 2.54D-10 at cycle  12 NSaved=  12.
 NSaved=12 IEnMin=10 EnMin= -39.1322684843397     IErMin=12 ErrMin= 2.54D-10
 ErrMax= 2.54D-10  0.00D+00 EMaxC= 1.00D-01 BMatC= 5.62D-18 BMatP= 1.40D-16
 IDIUse=1 WtCom= 1.00D+00 WtEn= 0.00D+00
 Coeff-Com:  0.340D-08-0.825D-07 0.118D-07-0.492D-06 0.208D-05 0.147D-04
 Coeff-Com: -0.689D-04-0.448D-03 0.250D-02 0.821D-02-0.236D+00 0.123D+01
 Coeff:      0.340D-08-0.825D-07 0.118D-07-0.492D-06 0.208D-05 0.147D-04
 Coeff:     -0.689D-04-0.448D-03 0.250D-02 0.821D-02-0.236D+00 0.123D+01
 Gap=     0.044 Goal=   None    Shift=    0.000
 Gap=     0.292 Goal=   None    Shift=    0.000
 RMSDP=1.00D-08 MaxDP=5.40D-07 DE=-1.63D-13 OVMax= 8.22D-09

 SCF Done:  E(UB3LYP) =  -39.1322684843     A.U. after   12 cycles
            NFock= 12  Conv=0.10D-07     -V/T= 2.0027
 <Sx>= 0.0000 <Sy>= 0.0000 <Sz>= 1.5000 <S**2>= 3.7541 S= 1.5010
 <L.S>= 0.000000000000E+00
 KE= 3.902543835009D+01 PE=-1.040488792327D+02 EE= 1.984126821640D+01
 Annihilation of the first spin contaminant:
 S**2 before annihilation     3.7541,   after     3.7500
 Leave Link  502 at Wed Jan 23 22:02:51 2019, MaxMem=   412876800 cpu:         3.2
 (Enter /usr/local/gaussian/gaussian09/g09/l701.exe)
 Compute integral first derivatives.
 ... and contract with generalized density number  0.
 Leave Link  701 at Wed Jan 23 22:02:51 2019, MaxMem=   412876800 cpu:         0.5
 (Enter /usr/local/gaussian/gaussian09/g09/l702.exe)
 L702 exits ... SP integral derivatives will be done elsewhere.
 Leave Link  702 at Wed Jan 23 22:02:51 2019, MaxMem=   412876800 cpu:         0.0
 (Enter /usr/local/gaussian/gaussian09/g09/l703.exe)
 Compute integral first derivatives, UseDBF=F ICtDFT=           0.
 Integral derivatives from FoFJK, PRISM(SPDF).
 Calling FoFJK, ICntrl=      2127 FMM=F ISym2X=1 I1Cent= 0 IOpClX= 1 NMat=1 NMatS=1 NMatT=0.
 FoFJK:  IHMeth= 1 ICntrl=    2127 DoSepK=F KAlg= 0 I1Cent=   0 FoldK=F
 IRaf=         0 NMat=   1 IRICut=       1 DoRegI=T DoRafI=F ISym2E= 1.
 FoFCou: FMM=F IPFlag=           0 FMFlag=      100000 FMFlg1=         800
         NFxFlg=           0 DoJE=F BraDBF=F KetDBF=F FulRan=T
         wScrn=  0.000000 ICntrl=    2127 IOpCl=  1 I1Cent=           0 NGrid=           0
         NMat0=    1 NMatS0=      1 NMatT0=    0 NMatD0=    1 NMtDS0=    0 NMtDT0=    0
 Petite list used in FoFCou.
 Leave Link  703 at Wed Jan 23 22:02:52 2019, MaxMem=   412876800 cpu:         2.0
 (Enter /usr/local/gaussian/gaussian09/g09/l716.exe)
 Dipole        = 4.55051120D-16-1.77635684D-15 1.01669108D+00
 ***** Axes restored to original set *****
 -------------------------------------------------------------------
 Center     Atomic                   Forces (Hartrees/Bohr)
 Number     Number              X              Y              Z
 -------------------------------------------------------------------
      1        6           0.000000000    0.000000000   -0.028236578
      2        1          -0.000000000    0.000673262    0.014118289
      3        1           0.000000000   -0.000673262    0.014118289
 -------------------------------------------------------------------
 Cartesian Forces:  Max     0.028236578 RMS     0.011531903
 Leave Link  716 at Wed Jan 23 22:02:52 2019, MaxMem=   412876800 cpu:         0.1
 (Enter /usr/local/gaussian/gaussian09/g09/l103.exe)

 GradGradGradGradGradGradGradGradGradGradGradGradGradGradGradGradGradGrad
 Berny optimization.
 Using GEDIIS/GDIIS optimizer.
 FormGI is forming the generalized inverse of G from B-inverse, IUseBI=4.
 Internal  Forces:  Max     0.026012282 RMS     0.015950130
 Search for a local minimum.
 Step number   2 out of a maximum of   20
 All quantities printed in internal units (Hartrees-Bohrs-Radians)
 RMS Force = .15950D-01 SwitMx=.10000D-02 MixMth= 1
 Mixed Optimization -- RFO/linear search
 Update second derivatives using D2CorX and points    1    2
 DE= -1.37D-02 DEPred=-1.26D-02 R= 1.08D+00
 TightC=F SS=  1.41D+00  RLast= 3.00D-01 DXNew= 5.0454D-01 9.0000D-01
 Trust test= 1.08D+00 RLast= 3.00D-01 DXMaxT set to 5.05D-01
 The second derivative matrix:
                          R1        R2        A1
           R1           0.32455
           R2          -0.00211   0.32455
           A1           0.01653   0.01653   0.13431
 ITU=  1  0
 Use linear search instead of GDIIS.
     Eigenvalues ---    0.13145   0.32530   0.32666
 RFO step:  Lambda=-2.67324159D-04 EMin= 1.31452367D-01
 Quartic linear search produced a step of  0.88547.
 Iteration  1 RMS(Cart)=  0.11118321 RMS(Int)=  0.03661057
 Iteration  2 RMS(Cart)=  0.03226841 RMS(Int)=  0.00081867
 Iteration  3 RMS(Cart)=  0.00083559 RMS(Int)=  0.00000008
 Iteration  4 RMS(Cart)=  0.00000007 RMS(Int)=  0.00000000
 ITry= 1 IFail=0 DXMaxC= 1.73D-01 DCOld= 1.00D+10 DXMaxT= 5.05D-01 DXLimC= 3.00D+00 Rises=F
 ClnCor:  largest displacement from symmetrization is 6.85D-15 for atom     3.
 Variable       Old X    -DE/DX   Delta X   Delta X   Delta X     New X
                                 (Linear)    (Quad)   (Total)
    R1        2.07939  -0.00658  -0.01508  -0.02032  -0.03540   2.04399
    R2        2.07939  -0.00658  -0.01508  -0.02032  -0.03540   2.04399
    A1        2.07789   0.02601   0.26478  -0.00057   0.26422   2.34210
         Item               Value     Threshold  Converged?
 Maximum Force            0.026012     0.000450     NO 
 RMS     Force            0.015950     0.000300     NO 
 Maximum Displacement     0.172693     0.001800     NO 
 RMS     Displacement     0.142804     0.001200     NO 
 Predicted change in Energy=-2.555631D-03
 Lowest energy point so far.  Saving SCF results.
 GradGradGradGradGradGradGradGradGradGradGradGradGradGradGradGradGradGrad

 Leave Link  103 at Wed Jan 23 22:02:52 2019, MaxMem=   412876800 cpu:         0.0
 (Enter /usr/local/gaussian/gaussian09/g09/l202.exe)
                          Input orientation:                          
 ---------------------------------------------------------------------
 Center     Atomic      Atomic             Coordinates (Angstroms)
 Number     Number       Type             X           Y           Z
 ---------------------------------------------------------------------
      1          6           0       -0.000000   -0.000000   -0.010409
      2          1           0        0.000000    0.996358   -0.431362
      3          1           0       -0.000000   -0.996358   -0.431362
 ---------------------------------------------------------------------
                    Distance matrix (angstroms):
                    1          2          3
     1  C    0.000000
     2  H    1.081633   0.000000
     3  H    1.081633   1.992715   0.000000
 Stoichiometry    CH2(1-,4)
 Framework group  C2V[C2(C),SGV(H2)]
 Deg. of freedom     2
 Full point group                 C2V     NOp   4
 RotChk:  IX=0 Diff= 5.31D-16
 Largest Abelian subgroup         C2V     NOp   4
 Largest concise Abelian subgroup C2      NOp   2
                         Standard orientation:                         
 ---------------------------------------------------------------------
 Center     Atomic      Atomic             Coordinates (Angstroms)
 Number     Number       Type             X           Y           Z
 ---------------------------------------------------------------------
      1          6           0       -0.000000    0.000000    0.105238
      2          1           0       -0.000000    0.996358   -0.315714
      3          1           0       -0.000000   -0.996358   -0.315714
 ---------------------------------------------------------------------
 Rotational constants (GHZ):   1652.5997407    252.5640803    219.0821225
 Leave Link  202 at Wed Jan 23 22:02:52 2019, MaxMem=   412876800 cpu:         0.0
 (Enter /usr/local/gaussian/gaussian09/g09/l301.exe)
 Standard basis: 6-311++G(3df,2p) (5D, 7F)
 Ernie: Thresh=  0.10000D-02 Tol=  0.10000D-05 Strict=F.
 There are    29 symmetry adapted cartesian basis functions of A1  symmetry.
 There are     6 symmetry adapted cartesian basis functions of A2  symmetry.
 There are    12 symmetry adapted cartesian basis functions of B1  symmetry.
 There are    18 symmetry adapted cartesian basis functions of B2  symmetry.
 There are    25 symmetry adapted basis functions of A1  symmetry.
 There are     6 symmetry adapted basis functions of A2  symmetry.
 There are    11 symmetry adapted basis functions of B1  symmetry.
 There are    17 symmetry adapted basis functions of B2  symmetry.
    59 basis functions,    82 primitive gaussians,    65 cartesian basis functions
     6 alpha electrons        3 beta electrons
       nuclear repulsion energy         6.1364266672 Hartrees.
 IExCor=  402 DFT=T Ex+Corr=B3LYP ExCW=0 ScaHFX=  0.200000
 ScaDFX=  0.800000  0.720000  1.000000  0.810000 ScalE2=  1.000000  1.000000
 IRadAn=      0 IRanWt=     -1 IRanGd=            0 ICorTp=0 IEmpDi=  4
 NAtoms=    3 NActive=    3 NUniq=    2 SFac= 2.25D+00 NAtFMM=   60 NAOKFM=F Big=F
 Integral buffers will be    131072 words long.
 Raffenetti 2 integral format.
 Two-electron integral symmetry is turned on.
 Leave Link  301 at Wed Jan 23 22:02:52 2019, MaxMem=   412876800 cpu:         0.2
 (Enter /usr/local/gaussian/gaussian09/g09/l302.exe)
 NPDir=0 NMtPBC=     1 NCelOv=     1 NCel=       1 NClECP=     1 NCelD=      1
         NCelK=      1 NCelE2=     1 NClLst=     1 CellRange=     0.0.
 One-electron integrals computed using PRISM.
 One-electron integral symmetry used in STVInt
 NBasis=    59 RedAO= T EigKep=  4.65D-03  NBF=    25     6    11    17
 NBsUse=    59 1.00D-06 EigRej= -1.00D+00 NBFU=    25     6    11    17
 Precomputing XC quadrature grid using
 IXCGrd= 4 IRadAn=           0 IRanWt=          -1 IRanGd=           0 AccXCQ= 0.00D+00.
 Generated NRdTot=       0 NPtTot=           0 NUsed=           0 NTot=          32
 NSgBfM=    65    65    65    65    65 MxSgAt=     3 MxSgA2=     3.
 Leave Link  302 at Wed Jan 23 22:02:53 2019, MaxMem=   412876800 cpu:         0.5
 (Enter /usr/local/gaussian/gaussian09/g09/l303.exe)
 DipDrv:  MaxL=1.
 Leave Link  303 at Wed Jan 23 22:02:53 2019, MaxMem=   412876800 cpu:         0.0
 (Enter /usr/local/gaussian/gaussian09/g09/l401.exe)
 Initial guess from the checkpoint file:  "/scratch/sergio/H2C.q-1.m4-1.com-4919751/Gau-8004.chk"
 B after Tr=    -0.000000   -0.000000    0.000000
         Rot=    1.000000   -0.000000   -0.000000   -0.000000 Ang=   0.00 deg.
 Guess basis will be translated and rotated to current coordinates.
 JPrj=2 DoOrth=T DoCkMO=T.
 Initial guess orbital symmetries:
 Alpha Orbitals:
       Occupied  (A1) (A1) (B2) (A1) (B1) (A1)
       Virtual   (A1) (A1) (A1) (A1) (A1) (A1) (A1) (A1) (A1) (A1)
                 (A1) (A1) (A1) (A1) (A1) (A1) (A1) (A1) (A1) (A1)
                 (A1) (A2) (A2) (A2) (A2) (A2) (A2) (B1) (B1) (B1)
                 (B1) (B1) (B1) (B1) (B1) (B1) (B1) (B2) (B2) (B2)
                 (B2) (B2) (B2) (B2) (B2) (B2) (B2) (B2) (B2) (B2)
                 (B2) (B2) (B2)
 Beta  Orbitals:
       Occupied  (A1) (A1) (B2)
       Virtual   (A1) (A1) (A1) (A1) (A1) (A1) (A1) (A1) (A1) (A1)
                 (A1) (A1) (A1) (A1) (A1) (A1) (A1) (A1) (A1) (A1)
                 (A1) (A1) (A1) (A2) (A2) (A2) (A2) (A2) (A2) (B1)
                 (B1) (B1) (B1) (B1) (B1) (B1) (B1) (B1) (B1) (B1)
                 (B2) (B2) (B2) (B2) (B2) (B2) (B2) (B2) (B2) (B2)
                 (B2) (B2) (B2) (B2) (B2) (B2)
 The electronic state of the initial guess is 4-B1.
 Initial guess <Sx>= 0.0000 <Sy>= 0.0000 <Sz>= 1.5000 <S**2>= 3.7540 S= 1.5010
 Generating alternative initial guess.
 ExpMin= 3.60D-02 ExpMax= 4.56D+03 ExpMxC= 6.82D+02 IAcc=3 IRadAn=         5 AccDes= 0.00D+00
 Harris functional with IExCor=  402 and IRadAn=       5 diagonalized for initial guess.
 HarFok:  IExCor=  402 AccDes= 0.00D+00 IRadAn=         5 IDoV= 1 UseB2=F ITyADJ=14
 ICtDFT=  3500011 ScaDFX=  1.000000  1.000000  1.000000  1.000000
 FoFCou: FMM=F IPFlag=           0 FMFlag=      100000 FMFlg1=           0
         NFxFlg=           0 DoJE=T BraDBF=F KetDBF=T FulRan=T
         wScrn=  0.000000 ICntrl=     500 IOpCl=  0 I1Cent=   200000004 NGrid=           0
         NMat0=    1 NMatS0=      1 NMatT0=    0 NMatD0=    1 NMtDS0=    0 NMtDT0=    0
 Petite list used in FoFCou.
 Harris En= -39.1376898328946    
 Leave Link  401 at Wed Jan 23 22:02:53 2019, MaxMem=   412876800 cpu:         0.9
 (Enter /usr/local/gaussian/gaussian09/g09/l502.exe)
 UHF open shell SCF:
 Using DIIS extrapolation, IDIIS=  1040.
 Integral symmetry usage will be decided dynamically.
 Keep R1 and R2 ints in memory in symmetry-blocked form, NReq=3562133.
 IVT=       32225 IEndB=       32225 NGot=   412876800 MDV=   412021517
 LenX=   412021517 LenY=   412016851
 Requested convergence on RMS density matrix=1.00D-08 within 128 cycles.
 Requested convergence on MAX density matrix=1.00D-06.
 Requested convergence on             energy=1.00D-06.
 No special actions if energy rises.
 FoFCou: FMM=F IPFlag=           0 FMFlag=           0 FMFlg1=           0
         NFxFlg=           0 DoJE=F BraDBF=F KetDBF=F FulRan=T
         wScrn=  0.000000 ICntrl=     600 IOpCl=  0 I1Cent=           0 NGrid=           0
         NMat0=    1 NMatS0=   1770 NMatT0=    0 NMatD0=    1 NMtDS0=    0 NMtDT0=    0
 Petite list used in FoFCou.

 Cycle   1  Pass 1  IDiag  1:
 E= -39.1319313261528    
 DIIS: error= 9.89D-03 at cycle   1 NSaved=   1.
 NSaved= 1 IEnMin= 1 EnMin= -39.1319313261528     IErMin= 1 ErrMin= 9.89D-03
 ErrMax= 9.89D-03  0.00D+00 EMaxC= 1.00D-01 BMatC= 9.21D-03 BMatP= 9.21D-03
 IDIUse=3 WtCom= 9.01D-01 WtEn= 9.89D-02
 Coeff-Com:  0.100D+01
 Coeff-En:   0.100D+01
 Coeff:      0.100D+01
 Gap=     0.386 Goal=   None    Shift=    0.000
 Gap=     0.402 Goal=   None    Shift=    0.000
 GapD=    0.386 DampG=1.000 DampE=1.000 DampFc=1.0000 IDamp=-1.
 RMSDP=1.21D-02 MaxDP=4.49D-01              OVMax= 1.03D-01

 Cycle   2  Pass 1  IDiag  1:
 E= -39.1355686273859     Delta-E=       -0.003637301233 Rises=F Damp=F
 DIIS: error= 2.38D-03 at cycle   2 NSaved=   2.
 NSaved= 2 IEnMin= 2 EnMin= -39.1355686273859     IErMin= 2 ErrMin= 2.38D-03
 ErrMax= 2.38D-03  0.00D+00 EMaxC= 1.00D-01 BMatC= 2.05D-04 BMatP= 9.21D-03
 IDIUse=3 WtCom= 9.76D-01 WtEn= 2.38D-02
 Coeff-Com: -0.174D-01 0.102D+01
 Coeff-En:   0.000D+00 0.100D+01
 Coeff:     -0.170D-01 0.102D+01
 Gap=     0.040 Goal=   None    Shift=    0.000
 Gap=     0.331 Goal=   None    Shift=    0.000
 RMSDP=6.05D-03 MaxDP=2.72D-01 DE=-3.64D-03 OVMax= 2.46D-02

 Cycle   3  Pass 1  IDiag  1:
 E= -39.1357858907943     Delta-E=       -0.000217263408 Rises=F Damp=F
 DIIS: error= 7.47D-04 at cycle   3 NSaved=   3.
 NSaved= 3 IEnMin= 3 EnMin= -39.1357858907943     IErMin= 3 ErrMin= 7.47D-04
 ErrMax= 7.47D-04  0.00D+00 EMaxC= 1.00D-01 BMatC= 4.70D-05 BMatP= 2.05D-04
 IDIUse=3 WtCom= 9.93D-01 WtEn= 7.47D-03
 Coeff-Com: -0.160D-01 0.232D+00 0.784D+00
 Coeff-En:   0.000D+00 0.000D+00 0.100D+01
 Coeff:     -0.159D-01 0.230D+00 0.786D+00
 Gap=     0.040 Goal=   None    Shift=    0.000
 Gap=     0.332 Goal=   None    Shift=    0.000
 RMSDP=3.32D-03 MaxDP=1.61D-01 DE=-2.17D-04 OVMax= 9.66D-03

 Cycle   4  Pass 1  IDiag  1:
 E= -39.1358155542936     Delta-E=       -0.000029663499 Rises=F Damp=F
 DIIS: error= 3.16D-04 at cycle   4 NSaved=   4.
 NSaved= 4 IEnMin= 4 EnMin= -39.1358155542936     IErMin= 4 ErrMin= 3.16D-04
 ErrMax= 3.16D-04  0.00D+00 EMaxC= 1.00D-01 BMatC= 9.14D-06 BMatP= 4.70D-05
 IDIUse=3 WtCom= 9.97D-01 WtEn= 3.16D-03
 Coeff-Com:  0.109D-02-0.127D+00 0.173D+00 0.952D+00
 Coeff-En:   0.000D+00 0.000D+00 0.000D+00 0.100D+01
 Coeff:      0.109D-02-0.126D+00 0.173D+00 0.952D+00
 Gap=     0.040 Goal=   None    Shift=    0.000
 Gap=     0.332 Goal=   None    Shift=    0.000
 RMSDP=1.72D-03 MaxDP=8.10D-02 DE=-2.97D-05 OVMax= 5.91D-03

 Cycle   5  Pass 1  IDiag  1:
 E= -39.1358226659996     Delta-E=       -0.000007111706 Rises=F Damp=F
 DIIS: error= 1.24D-04 at cycle   5 NSaved=   5.
 NSaved= 5 IEnMin= 5 EnMin= -39.1358226659996     IErMin= 5 ErrMin= 1.24D-04
 ErrMax= 1.24D-04  0.00D+00 EMaxC= 1.00D-01 BMatC= 1.52D-06 BMatP= 9.14D-06
 IDIUse=3 WtCom= 9.99D-01 WtEn= 1.24D-03
 Coeff-Com:  0.208D-02-0.778D-01-0.763D-02 0.393D+00 0.690D+00
 Coeff-En:   0.000D+00 0.000D+00 0.000D+00 0.000D+00 0.100D+01
 Coeff:      0.208D-02-0.777D-01-0.762D-02 0.393D+00 0.690D+00
 Gap=     0.040 Goal=   None    Shift=    0.000
 Gap=     0.332 Goal=   None    Shift=    0.000
 RMSDP=5.81D-04 MaxDP=2.98D-02 DE=-7.11D-06 OVMax= 1.12D-03

 Cycle   6  Pass 1  IDiag  1:
 E= -39.1358233495115     Delta-E=       -0.000000683512 Rises=F Damp=F
 DIIS: error= 1.60D-05 at cycle   6 NSaved=   6.
 NSaved= 6 IEnMin= 6 EnMin= -39.1358233495115     IErMin= 6 ErrMin= 1.60D-05
 ErrMax= 1.60D-05  0.00D+00 EMaxC= 1.00D-01 BMatC= 1.56D-08 BMatP= 1.52D-06
 IDIUse=1 WtCom= 1.00D+00 WtEn= 0.00D+00
 Coeff-Com:  0.170D-03 0.304D-02-0.701D-02-0.405D-01 0.193D-01 0.102D+01
 Coeff:      0.170D-03 0.304D-02-0.701D-02-0.405D-01 0.193D-01 0.102D+01
 Gap=     0.040 Goal=   None    Shift=    0.000
 Gap=     0.332 Goal=   None    Shift=    0.000
 RMSDP=1.62D-04 MaxDP=8.44D-03 DE=-6.84D-07 OVMax= 2.85D-04

 Cycle   7  Pass 1  IDiag  1:
 E= -39.1358233641234     Delta-E=       -0.000000014612 Rises=F Damp=F
 DIIS: error= 1.56D-06 at cycle   7 NSaved=   7.
 NSaved= 7 IEnMin= 7 EnMin= -39.1358233641234     IErMin= 7 ErrMin= 1.56D-06
 ErrMax= 1.56D-06  0.00D+00 EMaxC= 1.00D-01 BMatC= 2.88D-10 BMatP= 1.56D-08
 IDIUse=1 WtCom= 1.00D+00 WtEn= 0.00D+00
 Coeff-Com: -0.585D-04 0.163D-02-0.367D-03-0.491D-02-0.139D-01-0.816D-01
 Coeff-Com:  0.110D+01
 Coeff:     -0.585D-04 0.163D-02-0.367D-03-0.491D-02-0.139D-01-0.816D-01
 Coeff:      0.110D+01
 Gap=     0.040 Goal=   None    Shift=    0.000
 Gap=     0.332 Goal=   None    Shift=    0.000
 RMSDP=3.73D-05 MaxDP=2.00D-03 DE=-1.46D-08 OVMax= 3.95D-05

 Cycle   8  Pass 1  IDiag  1:
 E= -39.1358233644486     Delta-E=       -0.000000000325 Rises=F Damp=F
 DIIS: error= 2.54D-07 at cycle   8 NSaved=   8.
 NSaved= 8 IEnMin= 8 EnMin= -39.1358233644486     IErMin= 8 ErrMin= 2.54D-07
 ErrMax= 2.54D-07  0.00D+00 EMaxC= 1.00D-01 BMatC= 4.73D-12 BMatP= 2.88D-10
 IDIUse=1 WtCom= 1.00D+00 WtEn= 0.00D+00
 Coeff-Com:  0.289D-05-0.145D-03 0.125D-03 0.968D-03 0.110D-02-0.142D-01
 Coeff-Com: -0.451D-01 0.106D+01
 Coeff:      0.289D-05-0.145D-03 0.125D-03 0.968D-03 0.110D-02-0.142D-01
 Coeff:     -0.451D-01 0.106D+01
 Gap=     0.040 Goal=   None    Shift=    0.000
 Gap=     0.332 Goal=   None    Shift=    0.000
 RMSDP=6.37D-06 MaxDP=3.44D-04 DE=-3.25D-10 OVMax= 6.40D-06

 Cycle   9  Pass 1  IDiag  1:
 E= -39.1358233644573     Delta-E=       -0.000000000009 Rises=F Damp=F
 DIIS: error= 6.67D-08 at cycle   9 NSaved=   9.
 NSaved= 9 IEnMin= 9 EnMin= -39.1358233644573     IErMin= 9 ErrMin= 6.67D-08
 ErrMax= 6.67D-08  0.00D+00 EMaxC= 1.00D-01 BMatC= 3.74D-13 BMatP= 4.73D-12
 IDIUse=1 WtCom= 1.00D+00 WtEn= 0.00D+00
 Coeff-Com:  0.808D-06-0.121D-04-0.970D-06-0.909D-04-0.221D-03 0.573D-02
 Coeff-Com: -0.251D-01-0.158D+00 0.118D+01
 Coeff:      0.808D-06-0.121D-04-0.970D-06-0.909D-04-0.221D-03 0.573D-02
 Coeff:     -0.251D-01-0.158D+00 0.118D+01
 Gap=     0.040 Goal=   None    Shift=    0.000
 Gap=     0.332 Goal=   None    Shift=    0.000
 RMSDP=1.99D-06 MaxDP=1.07D-04 DE=-8.63D-12 OVMax= 2.01D-06

 Cycle  10  Pass 1  IDiag  1:
 E= -39.1358233644579     Delta-E=       -0.000000000001 Rises=F Damp=F
 DIIS: error= 5.85D-09 at cycle  10 NSaved=  10.
 NSaved=10 IEnMin=10 EnMin= -39.1358233644579     IErMin=10 ErrMin= 5.85D-09
 ErrMax= 5.85D-09  0.00D+00 EMaxC= 1.00D-01 BMatC= 3.95D-15 BMatP= 3.74D-13
 IDIUse=1 WtCom= 1.00D+00 WtEn= 0.00D+00
 Coeff-Com: -0.978D-07 0.565D-05-0.362D-05-0.215D-04 0.553D-05-0.156D-03
 Coeff-Com:  0.362D-02-0.919D-02-0.154D+00 0.116D+01
 Coeff:     -0.978D-07 0.565D-05-0.362D-05-0.215D-04 0.553D-05-0.156D-03
 Coeff:      0.362D-02-0.919D-02-0.154D+00 0.116D+01
 Gap=     0.040 Goal=   None    Shift=    0.000
 Gap=     0.332 Goal=   None    Shift=    0.000
 RMSDP=2.80D-07 MaxDP=1.52D-05 DE=-6.25D-13 OVMax= 2.77D-07

 Cycle  11  Pass 1  IDiag  1:
 E= -39.1358233644578     Delta-E=        0.000000000000 Rises=F Damp=F
 DIIS: error= 8.34D-10 at cycle  11 NSaved=  11.
 NSaved=11 IEnMin=10 EnMin= -39.1358233644579     IErMin=11 ErrMin= 8.34D-10
 ErrMax= 8.34D-10  0.00D+00 EMaxC= 1.00D-01 BMatC= 4.22D-17 BMatP= 3.95D-15
 IDIUse=1 WtCom= 1.00D+00 WtEn= 0.00D+00
 Coeff-Com: -0.760D-09-0.302D-06 0.374D-06 0.270D-05-0.208D-05-0.384D-04
 Coeff-Com: -0.520D-04 0.219D-02 0.469D-02-0.128D+00 0.112D+01
 Coeff:     -0.760D-09-0.302D-06 0.374D-06 0.270D-05-0.208D-05-0.384D-04
 Coeff:     -0.520D-04 0.219D-02 0.469D-02-0.128D+00 0.112D+01
 Gap=     0.040 Goal=   None    Shift=    0.000
 Gap=     0.332 Goal=   None    Shift=    0.000
 RMSDP=1.29D-08 MaxDP=7.02D-07 DE= 8.53D-14 OVMax= 1.14D-08

 Cycle  12  Pass 1  IDiag  1:
 E= -39.1358233644579     Delta-E=       -0.000000000000 Rises=F Damp=F
 DIIS: error= 1.28D-10 at cycle  12 NSaved=  12.
 NSaved=12 IEnMin=10 EnMin= -39.1358233644579     IErMin=12 ErrMin= 1.28D-10
 ErrMax= 1.28D-10  0.00D+00 EMaxC= 1.00D-01 BMatC= 1.33D-18 BMatP= 4.22D-17
 IDIUse=1 WtCom= 1.00D+00 WtEn= 0.00D+00
 Coeff-Com:  0.247D-08-0.607D-07 0.500D-07-0.243D-06 0.326D-06 0.121D-04
 Coeff-Com: -0.578D-04-0.299D-03 0.191D-02 0.454D-02-0.226D+00 0.122D+01
 Coeff:      0.247D-08-0.607D-07 0.500D-07-0.243D-06 0.326D-06 0.121D-04
 Coeff:     -0.578D-04-0.299D-03 0.191D-02 0.454D-02-0.226D+00 0.122D+01
 Gap=     0.040 Goal=   None    Shift=    0.000
 Gap=     0.332 Goal=   None    Shift=    0.000
 RMSDP=2.60D-10 MaxDP=6.89D-09 DE=-7.11D-14 OVMax= 6.46D-10

 SCF Done:  E(UB3LYP) =  -39.1358233645     A.U. after   12 cycles
            NFock= 12  Conv=0.26D-09     -V/T= 2.0019
 <Sx>= 0.0000 <Sy>= 0.0000 <Sz>= 1.5000 <S**2>= 3.7549 S= 1.5012
 <L.S>= 0.000000000000E+00
 KE= 3.906275962387D+01 PE=-1.042537648743D+02 EE= 1.991875521873D+01
 Annihilation of the first spin contaminant:
 S**2 before annihilation     3.7549,   after     3.7500
 Leave Link  502 at Wed Jan 23 22:02:55 2019, MaxMem=   412876800 cpu:         3.2
 (Enter /usr/local/gaussian/gaussian09/g09/l701.exe)
 Compute integral first derivatives.
 ... and contract with generalized density number  0.
 Leave Link  701 at Wed Jan 23 22:02:55 2019, MaxMem=   412876800 cpu:         0.5
 (Enter /usr/local/gaussian/gaussian09/g09/l702.exe)
 L702 exits ... SP integral derivatives will be done elsewhere.
 Leave Link  702 at Wed Jan 23 22:02:55 2019, MaxMem=   412876800 cpu:         0.1
 (Enter /usr/local/gaussian/gaussian09/g09/l703.exe)
 Compute integral first derivatives, UseDBF=F ICtDFT=           0.
 Integral derivatives from FoFJK, PRISM(SPDF).
 Calling FoFJK, ICntrl=      2127 FMM=F ISym2X=1 I1Cent= 0 IOpClX= 1 NMat=1 NMatS=1 NMatT=0.
 FoFJK:  IHMeth= 1 ICntrl=    2127 DoSepK=F KAlg= 0 I1Cent=   0 FoldK=F
 IRaf=         0 NMat=   1 IRICut=       1 DoRegI=T DoRafI=F ISym2E= 1.
 FoFCou: FMM=F IPFlag=           0 FMFlag=      100000 FMFlg1=         800
         NFxFlg=           0 DoJE=F BraDBF=F KetDBF=F FulRan=T
         wScrn=  0.000000 ICntrl=    2127 IOpCl=  1 I1Cent=           0 NGrid=           0
         NMat0=    1 NMatS0=      1 NMatT0=    0 NMatD0=    1 NMtDS0=    0 NMtDT0=    0
 Petite list used in FoFCou.
 Leave Link  703 at Wed Jan 23 22:02:56 2019, MaxMem=   412876800 cpu:         2.0
 (Enter /usr/local/gaussian/gaussian09/g09/l716.exe)
 Dipole        = 4.63247897D-16 0.00000000D+00 7.09479772D-01
 ***** Axes restored to original set *****
 -------------------------------------------------------------------
 Center     Atomic                   Forces (Hartrees/Bohr)
 Number     Number              X              Y              Z
 -------------------------------------------------------------------
      1        6          -0.000000000    0.000000000    0.000504605
      2        1          -0.000000000    0.002219113   -0.000252302
      3        1           0.000000000   -0.002219113   -0.000252302
 -------------------------------------------------------------------
 Cartesian Forces:  Max     0.002219113 RMS     0.001066191
 Leave Link  716 at Wed Jan 23 22:02:56 2019, MaxMem=   412876800 cpu:         0.0
 (Enter /usr/local/gaussian/gaussian09/g09/l103.exe)

 GradGradGradGradGradGradGradGradGradGradGradGradGradGradGradGradGradGrad
 Berny optimization.
 Using GEDIIS/GDIIS optimizer.
 FormGI is forming the generalized inverse of G from B-inverse, IUseBI=4.
 Internal  Forces:  Max     0.002142351 RMS     0.001901230
 Search for a local minimum.
 Step number   3 out of a maximum of   20
 All quantities printed in internal units (Hartrees-Bohrs-Radians)
 RMS Force = .19012D-02 SwitMx=.10000D-02 MixMth= 1
 Mixed Optimization -- RFO/linear search
 Update second derivatives using D2CorX and points    1    2    3
 DE= -3.55D-03 DEPred=-2.56D-03 R= 1.39D+00
 TightC=F SS=  1.41D+00  RLast= 2.69D-01 DXNew= 8.4853D-01 8.0676D-01
 Trust test= 1.39D+00 RLast= 2.69D-01 DXMaxT set to 8.07D-01
 The second derivative matrix:
                          R1        R2        A1
           R1           0.32884
           R2           0.00218   0.32884
           A1           0.01134   0.01134   0.09661
 ITU=  1  1  0
 Use linear search instead of GDIIS.
     Eigenvalues ---    0.09551   0.32666   0.33211
 RFO step:  Lambda=-3.72724305D-05 EMin= 9.55146586D-02
 Quartic linear search produced a step of  0.03210.
 Iteration  1 RMS(Cart)=  0.01011205 RMS(Int)=  0.00004407
 Iteration  2 RMS(Cart)=  0.00003398 RMS(Int)=  0.00000000
 Iteration  3 RMS(Cart)=  0.00000000 RMS(Int)=  0.00000000
 ITry= 1 IFail=0 DXMaxC= 1.08D-02 DCOld= 1.00D+10 DXMaxT= 8.07D-01 DXLimC= 3.00D+00 Rises=F
 ClnCor:  largest displacement from symmetrization is 4.19D-16 for atom     1.
 Variable       Old X    -DE/DX   Delta X   Delta X   Delta X     New X
                                 (Linear)    (Quad)   (Total)
    R1        2.04399   0.00214  -0.00114   0.00709   0.00595   2.04994
    R2        2.04399   0.00214  -0.00114   0.00709   0.00595   2.04994
    A1        2.34210   0.00129   0.00848   0.00500   0.01348   2.35558
         Item               Value     Threshold  Converged?
 Maximum Force            0.002142     0.000450     NO 
 RMS     Force            0.001901     0.000300     NO 
 Maximum Displacement     0.010814     0.001800     NO 
 RMS     Displacement     0.010106     0.001200     NO 
 Predicted change in Energy=-2.057036D-05
 Lowest energy point so far.  Saving SCF results.
 GradGradGradGradGradGradGradGradGradGradGradGradGradGradGradGradGradGrad

 Leave Link  103 at Wed Jan 23 22:02:56 2019, MaxMem=   412876800 cpu:         0.0
 (Enter /usr/local/gaussian/gaussian09/g09/l202.exe)
                          Input orientation:                          
 ---------------------------------------------------------------------
 Center     Atomic      Atomic             Coordinates (Angstroms)
 Number     Number       Type             X           Y           Z
 ---------------------------------------------------------------------
      1          6           0       -0.000000   -0.000000   -0.014088
      2          1           0        0.000000    1.002080   -0.429522
      3          1           0       -0.000000   -1.002080   -0.429522
 ---------------------------------------------------------------------
                    Distance matrix (angstroms):
                    1          2          3
     1  C    0.000000
     2  H    1.084781   0.000000
     3  H    1.084781   2.004161   0.000000
 Stoichiometry    CH2(1-,4)
 Framework group  C2V[C2(C),SGV(H2)]
 Deg. of freedom     2
 Full point group                 C2V     NOp   4
 RotChk:  IX=0 Diff= 7.29D-16
 Largest Abelian subgroup         C2V     NOp   4
 Largest concise Abelian subgroup C2      NOp   2
                         Standard orientation:                         
 ---------------------------------------------------------------------
 Center     Atomic      Atomic             Coordinates (Angstroms)
 Number     Number       Type             X           Y           Z
 ---------------------------------------------------------------------
      1          6           0       -0.000000    0.000000    0.103859
      2          1           0        0.000000    1.002080   -0.311576
      3          1           0       -0.000000   -1.002080   -0.311576
 ---------------------------------------------------------------------
 Rotational constants (GHZ):   1696.7970919    249.6876129    217.6586410
 Leave Link  202 at Wed Jan 23 22:02:56 2019, MaxMem=   412876800 cpu:         0.0
 (Enter /usr/local/gaussian/gaussian09/g09/l301.exe)
 Standard basis: 6-311++G(3df,2p) (5D, 7F)
 Ernie: Thresh=  0.10000D-02 Tol=  0.10000D-05 Strict=F.
 There are    29 symmetry adapted cartesian basis functions of A1  symmetry.
 There are     6 symmetry adapted cartesian basis functions of A2  symmetry.
 There are    12 symmetry adapted cartesian basis functions of B1  symmetry.
 There are    18 symmetry adapted cartesian basis functions of B2  symmetry.
 There are    25 symmetry adapted basis functions of A1  symmetry.
 There are     6 symmetry adapted basis functions of A2  symmetry.
 There are    11 symmetry adapted basis functions of B1  symmetry.
 There are    17 symmetry adapted basis functions of B2  symmetry.
    59 basis functions,    82 primitive gaussians,    65 cartesian basis functions
     6 alpha electrons        3 beta electrons
       nuclear repulsion energy         6.1178706093 Hartrees.
 IExCor=  402 DFT=T Ex+Corr=B3LYP ExCW=0 ScaHFX=  0.200000
 ScaDFX=  0.800000  0.720000  1.000000  0.810000 ScalE2=  1.000000  1.000000
 IRadAn=      0 IRanWt=     -1 IRanGd=            0 ICorTp=0 IEmpDi=  4
 NAtoms=    3 NActive=    3 NUniq=    2 SFac= 2.25D+00 NAtFMM=   60 NAOKFM=F Big=F
[...]
     3  H   -6.120084   3.439363   4.991521
          Atomic-Atomic Spin Densities.
               1          2          3
     1  C   13.020613  -6.507518  -6.507518
     2  H   -6.507518   4.528600   3.476130
     3  H   -6.507518   3.476130   4.528600
 Mulliken charges and spin densities:
               1          2
     1  C    1.621602   0.005576
     2  H   -1.310801   1.497212
     3  H   -1.310801   1.497212
 Sum of Mulliken charges =  -1.00000   3.00000
 Mulliken charges and spin densities with hydrogens summed into heavy atoms:
               1          2
     1  C   -1.000000   3.000000
 APT charges:
               1
     1  C   -0.052927
     2  H   -0.473536
     3  H   -0.473536
 Sum of APT charges =  -1.00000
 APT charges with hydrogens summed into heavy atoms:
               1
     1  C   -1.000000
 Electronic spatial extent (au):  <R**2>=             72.2240
 Charge=             -1.0000 electrons
 Dipole moment (field-independent basis, Debye):
    X=              0.0000    Y=              0.0000    Z=              1.7520  Tot=              1.7520
 Quadrupole moment (field-independent basis, Debye-Ang):
   XX=            -22.9833   YY=            -38.2857   ZZ=            -24.9809
   XY=             -0.0000   XZ=             -0.0000   YZ=             -0.0000
 Traceless Quadrupole moment (field-independent basis, Debye-Ang):
   XX=              5.7667   YY=             -9.5358   ZZ=              3.7691
   XY=             -0.0000   XZ=             -0.0000   YZ=             -0.0000
 Octapole moment (field-independent basis, Debye-Ang**2):
  XXX=              0.0000  YYY=             -0.0000  ZZZ=             20.1175  XYY=              0.0000
  XXY=              0.0000  XXZ=              6.2691  XZZ=              0.0000  YZZ=              0.0000
  YYZ=             12.2589  XYZ=              0.0000
 Hexadecapole moment (field-independent basis, Debye-Ang**3):
 XXXX=           -132.0062 YYYY=           -408.3536 ZZZZ=           -167.6498 XXXY=             -0.0000
 XXXZ=             -0.0000 YYYX=             -0.0000 YYYZ=             -0.0000 ZZZX=             -0.0000
 ZZZY=             -0.0000 XXYY=            -84.1480 XXZZ=            -49.8234 YYZZ=            -92.8392
 XXYZ=             -0.0000 YYXZ=             -0.0000 ZZXY=             -0.0000
 N-N= 6.117251946860D+00 E-N=-1.042122535209D+02  KE= 3.905416512450D+01
 Symmetry A1   KE= 3.591275508599D+01
 Symmetry A2   KE= 1.378068892358D-33
 Symmetry B1   KE= 1.137455256861D+00
 Symmetry B2   KE= 2.003954781645D+00
  Exact polarizability: 170.516   0.0001022.861   0.000  -0.000 199.616
 Approx polarizability: 139.824   0.0001121.944   0.000   0.000 162.197
                          Isotropic Fermi Contact Couplings
        Atom                 a.u.       MegaHertz       Gauss      10(-4) cm-1
     1  C(13)              0.50780     190.28982      67.90014      63.47385
     2  H(1)              -0.00429      -6.38984      -2.28005      -2.13142
     3  H(1)              -0.00429      -6.38984      -2.28005      -2.13142
 --------------------------------------------------------
       Center         ----  Spin Dipole Couplings  ----
                      3XX-RR        3YY-RR        3ZZ-RR
 --------------------------------------------------------
     1   Atom        0.671850     -1.118856      0.447006
     2   Atom       -0.064580      0.125647     -0.061067
     3   Atom       -0.064580      0.125647     -0.061067
 --------------------------------------------------------
                        XY            XZ            YZ
 --------------------------------------------------------
     1   Atom        0.000000      0.000000      0.000000
     2   Atom        0.000000      0.000000     -0.074122
     3   Atom        0.000000     -0.000000      0.074122
 --------------------------------------------------------


 ---------------------------------------------------------------------------------
              Anisotropic Spin Dipole Couplings in Principal Axis System
 ---------------------------------------------------------------------------------

       Atom             a.u.   MegaHertz   Gauss  10(-4) cm-1        Axes

              Baa    -1.1189  -150.140   -53.574   -50.081  0.0000  1.0000 -0.0000
     1 C(13)  Bbb     0.4470    59.984    21.404    20.008  0.0000  0.0000  1.0000
              Bcc     0.6719    90.156    32.170    30.073  1.0000  0.0000  0.0000
 
              Baa    -0.0869   -46.373   -16.547   -15.468 -0.0000  0.3293  0.9442
     2 H(1)   Bbb    -0.0646   -34.457   -12.295   -11.494  1.0000  0.0000  0.0000
              Bcc     0.1515    80.830    28.842    26.962 -0.0000  0.9442 -0.3293
 
              Baa    -0.0869   -46.373   -16.547   -15.468  0.0000 -0.3293  0.9442
     3 H(1)   Bbb    -0.0646   -34.457   -12.295   -11.494  1.0000  0.0000  0.0000
              Bcc     0.1515    80.830    28.842    26.962 -0.0000  0.9442  0.3293
 

 ---------------------------------------------------------------------------------

 No NMR shielding tensors so no spin-rotation constants.
 Leave Link  601 at Wed Jan 23 22:03:14 2019, MaxMem=   412876800 cpu:         0.8
 (Enter /usr/local/gaussian/gaussian09/g09/l701.exe)
 Compute integral second derivatives.
 ... and contract with generalized density number  0.
 Leave Link  701 at Wed Jan 23 22:03:14 2019, MaxMem=   412876800 cpu:         0.7
 (Enter /usr/local/gaussian/gaussian09/g09/l702.exe)
 L702 exits ... SP integral derivatives will be done elsewhere.
 Leave Link  702 at Wed Jan 23 22:03:14 2019, MaxMem=   412876800 cpu:         0.0
 (Enter /usr/local/gaussian/gaussian09/g09/l703.exe)
 Compute integral second derivatives, UseDBF=F ICtDFT=           0.
 Integral derivatives from FoFJK, PRISM(SPDF).
 Calling FoFJK, ICntrl=    100127 FMM=F ISym2X=1 I1Cent= 0 IOpClX= 1 NMat=1 NMatS=1 NMatT=0.
 FoFJK:  IHMeth= 1 ICntrl=  100127 DoSepK=F KAlg= 0 I1Cent=   0 FoldK=F
 IRaf=         0 NMat=   1 IRICut=       1 DoRegI=T DoRafI=F ISym2E= 1.
 FoFCou: FMM=F IPFlag=           0 FMFlag=      100000 FMFlg1=         800
         NFxFlg=           0 DoJE=F BraDBF=F KetDBF=F FulRan=T
         wScrn=  0.000000 ICntrl=  100127 IOpCl=  1 I1Cent=           0 NGrid=           0
         NMat0=    1 NMatS0=      1 NMatT0=    0 NMatD0=    1 NMtDS0=    0 NMtDT0=    0
 Petite list used in FoFCou.
 Leave Link  703 at Wed Jan 23 22:03:18 2019, MaxMem=   412876800 cpu:         7.4
 (Enter /usr/local/gaussian/gaussian09/g09/l716.exe)
 Dipole        = 4.62566690D-16-1.32758388D-14 6.89295535D-01
 Polarizability= 1.70516127D+02 8.59785052D-08 1.02286066D+03
                 4.50291441D-08-5.86667181D-07 1.99616446D+02
 Full mass-weighted force constant matrix:
 Low frequencies ---  -13.7491   -9.7605   -0.0011   -0.0009   -0.0005   42.0932
 Low frequencies --- 1016.9504 2965.8454 3255.0412
 Diagonal vibrational polarizability:
        0.0000000       0.1208327      21.3604141
 Harmonic frequencies (cm**-1), IR intensities (KM/Mole), Raman scattering
 activities (A**4/AMU), depolarization ratios for plane and unpolarized
 incident light, reduced masses (AMU), force constants (mDyne/A),
 and normal coordinates:
                      1                      2                      3
                     A1                     A1                     B2
 Frequencies --   1016.9504              2965.8454              3255.0412
 Red. masses --      1.1347                 1.0283                 1.1387
 Frc consts  --      0.6914                 5.3294                 7.1084
 IR Inten    --    817.8445                25.7610                47.5734
  Atom  AN      X      Y      Z        X      Y      Z        X      Y      Z
     1   6    -0.00   0.00  -0.11     0.00  -0.00   0.04    -0.00  -0.11  -0.00
     2   1     0.00   0.29   0.64     0.00   0.66  -0.26     0.00   0.65  -0.27
     3   1     0.00  -0.29   0.64    -0.00  -0.66  -0.26     0.00   0.65   0.27

 -------------------
 - Thermochemistry -
 -------------------
 Temperature   298.150 Kelvin.  Pressure   1.00000 Atm.
 Atom     1 has atomic number  6 and mass  12.00000
 Atom     2 has atomic number  1 and mass   1.00783
 Atom     3 has atomic number  1 and mass   1.00783
 Molecular mass:    14.01565 amu.
 Principal axes and moments of inertia in atomic units:
                           1         2         3
     Eigenvalues --     1.05773   7.23623   8.29396
           X            0.00000   0.00000   1.00000
           Y            1.00000   0.00000  -0.00000
           Z            0.00000   1.00000   0.00000
 This molecule is an asymmetric top.
 Rotational symmetry number  2.
 Rotational temperatures (Kelvin)     81.88668    11.96947    10.44300
 Rotational constants (GHZ):        1706.24350   249.40352   217.59711
 Zero-point vibrational energy      43291.9 (Joules/Mol)
                                   10.34701 (Kcal/Mol)
 Vibrational temperatures:   1463.16  4267.18  4683.27
          (Kelvin)
 
 Zero-point correction=                           0.016489 (Hartree/Particle)
 Thermal correction to Energy=                    0.019356
 Thermal correction to Enthalpy=                  0.020300
 Thermal correction to Gibbs Free Energy=        -0.002151
 Sum of electronic and zero-point Energies=            -39.119358
 Sum of electronic and thermal Energies=               -39.116491
 Sum of electronic and thermal Enthalpies=             -39.115546
 Sum of electronic and thermal Free Energies=          -39.137998
 
                     E (Thermal)             CV                S
                      KCal/Mol        Cal/Mol-Kelvin    Cal/Mol-Kelvin
 Total                   12.146              6.321             47.253
 Electronic               0.000              0.000              2.755
 Translational            0.889              2.981             33.861
 Rotational               0.889              2.981             10.550
 Vibrational             10.369              0.359              0.087
                       Q            Log10(Q)             Ln(Q)
 Total Bot       0.975883D+01          0.989398          2.278172
 Total V=0       0.374798D+09          8.573798         19.741899
 Vib (Bot)       0.262314D-07         -7.581178        -17.456307
 Vib (V=0)       0.100745D+01          0.003222          0.007419
 Electronic      0.400000D+01          0.602060          1.386294
 Translational   0.206241D+07          6.314375         14.539386
 Rotational      0.450963D+02          1.654140          3.808799
 
                                                              b3lyp opt
                                                             IR Spectrum
 
     3           2                                                                           1                                       
     2           9                                                                           0                                       
     5           6                                                                           1                                       
     5           6                                                                           7                                       
 
     X           X                                                                           X                                       
                                                                                             X                                       
                                                                                             X                                       
                                                                                             X                                       
                                                                                             X                                       
                                                                                             X                                       
                                                                                             X                                       
                                                                                             X                                       
                                                                                             X                                       
                                                                                             X                                       
                                                                                             X                                       
                                                                                             X                                       
                                                                                             X                                       
                                                                                             X                                       
                                                                                             X                                       
                                                                                             X                                       
                                                                                             X                                       
                                                                                             X                                       
                                                                                             X                                       
                                                                                             X                                       
 
 ***** Axes restored to original set *****
 -------------------------------------------------------------------
 Center     Atomic                   Forces (Hartrees/Bohr)
 Number     Number              X              Y              Z
 -------------------------------------------------------------------
      1        6          -0.000000000   -0.000000000   -0.000022065
      2        1          -0.000000000   -0.000010202    0.000011032
      3        1           0.000000000    0.000010202    0.000011032
 -------------------------------------------------------------------
 Cartesian Forces:  Max     0.000022065 RMS     0.000010211
 Force constants in Cartesian coordinates: 
                1             2             3             4             5 
      1  0.115717D-03
      2  0.000000D+00  0.603690D+00
      3  0.000000D+00  0.000000D+00  0.144226D+00
      4 -0.578586D-04  0.000000D+00  0.000000D+00  0.253243D-04
      5  0.000000D+00 -0.301845D+00  0.981519D-01  0.000000D+00  0.296274D+00
      6  0.000000D+00  0.124746D+00 -0.721131D-01  0.000000D+00 -0.111449D+00
      7 -0.578586D-04  0.000000D+00  0.000000D+00  0.325342D-04  0.000000D+00
      8  0.000000D+00 -0.301845D+00 -0.981519D-01  0.000000D+00  0.557110D-02
      9  0.000000D+00 -0.124746D+00 -0.721131D-01  0.000000D+00  0.132970D-01
                6             7             8             9 
      6  0.618318D-01
      7  0.000000D+00  0.253243D-04
      8 -0.132970D-01  0.000000D+00  0.296274D+00
      9  0.102812D-01  0.000000D+00  0.111449D+00  0.618318D-01
 FormGI is forming the generalized inverse of G from B-inverse, IUseBI=4.
 Force constants in internal coordinates: 
                1             2             3 
      1  0.340746D+00
      2 -0.126374D-01  0.340746D+00
      3  0.781000D-02  0.780999D-02  0.729222D-01
 Leave Link  716 at Wed Jan 23 22:03:18 2019, MaxMem=   412876800 cpu:         0.1
 (Enter /usr/local/gaussian/gaussian09/g09/l103.exe)

 GradGradGradGradGradGradGradGradGradGradGradGradGradGradGradGradGradGrad
 Berny optimization.
 Red2BG is reusing G-inverse.
 Internal  Forces:  Max     0.000013642 RMS     0.000013404
 Search for a local minimum.
 Step number   1 out of a maximum of    2
 All quantities printed in internal units (Hartrees-Bohrs-Radians)
 Second derivative matrix not updated -- analytic derivatives used.
 The second derivative matrix:
                          R1        R2        A1
           R1           0.34075
           R2          -0.01264   0.34075
           A1           0.00781   0.00781   0.07292
 ITU=  0
     Eigenvalues ---    0.07245   0.32859   0.35338
 Angle between quadratic step and forces=  37.00 degrees.
 Linear search not attempted -- first point.
 Iteration  1 RMS(Cart)=  0.00009514 RMS(Int)=  0.00000001
 Iteration  2 RMS(Cart)=  0.00000001 RMS(Int)=  0.00000000
 ITry= 1 IFail=0 DXMaxC= 1.30D-04 DCOld= 1.00D+10 DXMaxT= 3.00D-01 DXLimC= 3.00D+00 Rises=F
 ClnCor:  largest displacement from symmetrization is 6.31D-14 for atom     3.
 Variable       Old X    -DE/DX   Delta X   Delta X   Delta X     New X
                                 (Linear)    (Quad)   (Total)
    R1        2.05010  -0.00001   0.00000  -0.00005  -0.00005   2.05006
    R2        2.05010  -0.00001   0.00000  -0.00005  -0.00005   2.05006
    A1        2.35795   0.00001   0.00000   0.00019   0.00019   2.35813
         Item               Value     Threshold  Converged?
 Maximum Force            0.000014     0.000450     YES
 RMS     Force            0.000013     0.000300     YES
 Maximum Displacement     0.000130     0.001800     YES
 RMS     Displacement     0.000095     0.001200     YES
 Predicted change in Energy=-1.835473D-09
 Optimization completed.
    -- Stationary point found.
                           ----------------------------
                           !   Optimized Parameters   !
                           ! (Angstroms and Degrees)  !
 --------------------------                            --------------------------
 ! Name  Definition              Value          Derivative Info.                !
 --------------------------------------------------------------------------------
 ! R1    R(1,2)                  1.0849         -DE/DX =    0.0                 !
 ! R2    R(1,3)                  1.0849         -DE/DX =    0.0                 !
 ! A1    A(2,1,3)              135.1004         -DE/DX =    0.0                 !
 --------------------------------------------------------------------------------
 GradGradGradGradGradGradGradGradGradGradGradGradGradGradGradGradGradGrad

 Leave Link  103 at Wed Jan 23 22:03:18 2019, MaxMem=   412876800 cpu:         0.0
 (Enter /usr/local/gaussian/gaussian09/g09/l9999.exe)
 1\1\GINC-PANORAMIX\Freq\UB3LYP\6-311++G(3df,2p)\C1H2(1-,4)\SERGIO\23-J
 an-2019\0\\#P Geom=AllCheck Guess=TCheck SCRF=Check GenChk UB3LYP/6-31
 1++G(3df,2p) Freq\\b3lyp opt\\-1,4\C,0.,0.,-0.0148557081\H,0.,1.002650
 8838,-0.429138146\H,0.,-1.0026508838,-0.429138146\\Version=EM64L-G09Re
 vE.01\State=4-B1\HF=-39.1358466\S2=3.755029\S2-1=0.\S2A=3.750004\RMSD=
 0.000e+00\RMSF=1.021e-05\ZeroPoint=0.016489\Thermal=0.0193561\Dipole=0
 .,0.,0.6892955\DipoleDeriv=0.1301638,0.,0.,0.,-0.458204,0.,0.,0.,0.169
 2582,-0.5650819,0.,0.,0.,-0.270898,-0.3591885,0.,-0.12338,-0.5846291,-
 0.5650819,0.,0.,0.,-0.270898,0.3591885,0.,0.12338,-0.5846291\Polar=170
 .5161272,0.,1022.8606553,0.,-0.0000006,199.6164456\PG=C02V [C2(C1),SGV
 (H2)]\NImag=0\\0.00011572,0.,0.60369042,0.,0.,0.14422611,-0.00005786,0
 .,0.,0.00002532,0.,-0.30184521,0.09815192,0.,0.29627411,0.,0.12474602,
 -0.07211305,0.,-0.11144897,0.06183184,-0.00005786,0.,0.,0.00003253,0.,
 0.,0.00002532,0.,-0.30184521,-0.09815192,0.,0.00557110,-0.01329705,0.,
 0.29627411,0.,-0.12474602,-0.07211305,0.,0.01329705,0.01028121,0.,0.11
 144897,0.06183184\\0.,0.,0.00002206,0.,0.00001020,-0.00001103,0.,-0.00
 001020,-0.00001103\\\@


 PERICLES, SOPHOCLES,
 PELOPONESIAN WAR,
 FRENCH VERBS, LATIN VERBS
 H2SO4.
 Job cpu time:       0 days  0 hours  0 minutes 28.6 seconds.
 File lengths (MBytes):  RWF=      5 Int=      0 D2E=      0 Chk=      1 Scr=      1
 Normal termination of Gaussian 09 at Wed Jan 23 22:03:18 2019.
