 Entering Gaussian System, Link 0=/home/proyectos/fulerenos/M3C-v2.0/M3C-deps_CCC/g09-AM64L-G09RevC.01/g09
 Initial command:
 /home/proyectos/fulerenos/M3C-v2.0/M3C-deps_CCC/g09-AM64L-G09RevC.01/l1.exe "/scratch/naguirre/gaussian/Gau-30232.inp" -scrdir="/scratch/naguirre/gaussian/"
 Entering Link 1 = /home/proyectos/fulerenos/M3C-v2.0/M3C-deps_CCC/g09-AM64L-G09RevC.01/l1.exe PID=     30236.
  
 Copyright (c) 1988,1990,1992,1993,1995,1998,2003,2009,2015,
            Gaussian, Inc.  All Rights Reserved.
  
 This is part of the Gaussian(R) 09 program.  It is based on
 the Gaussian(R) 03 system (copyright 2003, Gaussian, Inc.),
 the Gaussian(R) 98 system (copyright 1998, Gaussian, Inc.),
 the Gaussian(R) 94 system (copyright 1995, Gaussian, Inc.),
 the Gaussian 92(TM) system (copyright 1992, Gaussian, Inc.),
 the Gaussian 90(TM) system (copyright 1990, Gaussian, Inc.),
 the Gaussian 88(TM) system (copyright 1988, Gaussian, Inc.),
 the Gaussian 86(TM) system (copyright 1986, Carnegie Mellon
 University), and the Gaussian 82(TM) system (copyright 1983,
 Carnegie Mellon University). Gaussian is a federally registered
 trademark of Gaussian, Inc.
  
 This software contains proprietary and confidential information,
 including trade secrets, belonging to Gaussian, Inc.
  
 This software is provided under written license and may be
 used, copied, transmitted, or stored only in accord with that
 written license.
  
 The following legend is applicable only to US Government
 contracts under FAR:
  
                    RESTRICTED RIGHTS LEGEND
  
 Use, reproduction and disclosure by the US Government is
 subject to restrictions as set forth in subparagraphs (a)
 and (c) of the Commercial Computer Software - Restricted
 Rights clause in FAR 52.227-19.
  
 Gaussian, Inc.
 340 Quinnipiac St., Bldg. 40, Wallingford CT 06492
  
  
 ---------------------------------------------------------------
 Warning -- This program may not be used in any manner that
 competes with the business of Gaussian, Inc. or will provide
 assistance to any competitor of Gaussian, Inc.  The licensee
 of this program is prohibited from giving any competitor of
 Gaussian, Inc. access to this program.  By using this program,
 the user acknowledges that Gaussian, Inc. is engaged in the
 business of creating and licensing software in the field of
 computational chemistry and represents and warrants to the
 licensee that it is not a competitor of Gaussian, Inc. and that
 it will not use this program in any manner prohibited above.
 ---------------------------------------------------------------
  

 Cite this work as:
 Gaussian 09, Revision E.01,
 M. J. Frisch, G. W. Trucks, H. B. Schlegel, G. E. Scuseria, 
 M. A. Robb, J. R. Cheeseman, G. Scalmani, V. Barone, B. Mennucci, 
 G. A. Petersson, H. Nakatsuji, M. Caricato, X. Li, H. P. Hratchian, 
 A. F. Izmaylov, J. Bloino, G. Zheng, J. L. Sonnenberg, M. Hada, 
 M. Ehara, K. Toyota, R. Fukuda, J. Hasegawa, M. Ishida, T. Nakajima, 
 Y. Honda, O. Kitao, H. Nakai, T. Vreven, J. A. Montgomery, Jr., 
 J. E. Peralta, F. Ogliaro, M. Bearpark, J. J. Heyd, E. Brothers, 
 K. N. Kudin, V. N. Staroverov, T. Keith, R. Kobayashi, J. Normand, 
 K. Raghavachari, A. Rendell, J. C. Burant, S. S. Iyengar, J. Tomasi, 
 M. Cossi, N. Rega, J. M. Millam, M. Klene, J. E. Knox, J. B. Cross, 
 V. Bakken, C. Adamo, J. Jaramillo, R. Gomperts, R. E. Stratmann, 
 O. Yazyev, A. J. Austin, R. Cammi, C. Pomelli, J. W. Ochterski, 
 R. L. Martin, K. Morokuma, V. G. Zakrzewski, G. A. Voth, 
 P. Salvador, J. J. Dannenberg, S. Dapprich, A. D. Daniels, 
 O. Farkas, J. B. Foresman, J. V. Ortiz, J. Cioslowski, 
 and D. J. Fox, Gaussian, Inc., Wallingford CT, 2013.
 
 ******************************************
 Gaussian 09:  EM64L-G09RevE.01 30-Nov-2015
                 7-Mar-2019 
 ******************************************
 %NProcShared=2
 Will use up to    2 processors via shared memory.
 ------------------------------------------------------
 #p b3lyp/6-311++G(3df,2p) freq IOp(2/17=3) IOp(2/18=3)
 ------------------------------------------------------
 1/10=4,30=1,38=1/1,3;
 2/12=2,17=3,18=3,40=1/2;
 3/5=4,6=6,7=1216,11=2,16=1,25=1,30=1,71=2,74=-5,140=1/1,2,3;
 4//1;
 5/5=2,38=5,98=1/2;
 8/6=4,10=90,11=11/1;
 11/6=1,8=1,9=11,15=111,16=1/1,2,10;
 10/6=1/2;
 6/7=2,8=2,9=2,10=2,18=1,28=1/1;
 7/8=1,10=1,25=1/1,2,3,16;
 1/10=4,30=1/3;
 99//99;
 Leave Link    1 at Thu Mar  7 13:22:00 2019, MaxMem=           0 cpu:         0.1
 (Enter /home/proyectos/fulerenos/M3C-v2.0/M3C-deps_CCC/g09-AM64L-G09RevC.01/l101.exe)
 ---------
 b3lyp opt
 ---------
 Symbolic Z-matrix:
 Charge = -1 Multiplicity = 2
 C                     1.12653   0.11542   0.07578 
 H                    -0.7943   -0.92406  -0.39991 
 H                    -0.99009   0.63713  -0.41825 
 O                    -0.34778  -0.07832  -0.67142 
 
 NAtoms=      4 NQM=        4 NQMF=       0 NMMI=      0 NMMIF=      0
                NMic=       0 NMicF=      0.
                    Isotopes and Nuclear Properties:
 (Nuclear quadrupole moments (NQMom) in fm**2, nuclear magnetic moments (NMagM)
  in nuclear magnetons)

  Atom         1           2           3           4
 IAtWgt=          12           1           1          16
 AtmWgt=  12.0000000   1.0078250   1.0078250  15.9949146
 NucSpn=           0           1           1           0
 AtZEff=   0.0000000   0.0000000   0.0000000   0.0000000
 NQMom=    0.0000000   0.0000000   0.0000000   0.0000000
 NMagM=    0.0000000   2.7928460   2.7928460   0.0000000
 AtZNuc=   6.0000000   1.0000000   1.0000000   8.0000000
 Leave Link  101 at Thu Mar  7 13:22:01 2019, MaxMem=    33554432 cpu:         0.4
 (Enter /home/proyectos/fulerenos/M3C-v2.0/M3C-deps_CCC/g09-AM64L-G09RevC.01/l103.exe)

 GradGradGradGradGradGradGradGradGradGradGradGradGradGradGradGradGradGrad
 Berny optimization.
 Initialization pass.
 Trust Radius=3.00D-01 FncErr=1.00D-07 GrdErr=1.00D-07
 Number of steps in this run=      2 maximum allowed number of steps=      2.
 GradGradGradGradGradGradGradGradGradGradGradGradGradGradGradGradGradGrad

 Leave Link  103 at Thu Mar  7 13:22:01 2019, MaxMem=    33554432 cpu:         0.1
 (Enter /home/proyectos/fulerenos/M3C-v2.0/M3C-deps_CCC/g09-AM64L-G09RevC.01/l202.exe)
                          Input orientation:                          
 ---------------------------------------------------------------------
 Center     Atomic      Atomic             Coordinates (Angstroms)
 Number     Number       Type             X           Y           Z
 ---------------------------------------------------------------------
      1          6           0        1.126529    0.115416    0.075777
      2          1           0       -0.794297   -0.924060   -0.399910
      3          1           0       -0.990092    0.637125   -0.418247
      4          8           0       -0.347775   -0.078321   -0.671420
 ---------------------------------------------------------------------
                    Distance matrix (angstroms):
                    1          2          3          4
     1  C    0.000000
     2  H    2.235254   0.000000
     3  H    2.235246   1.573522   0.000000
     4  O    1.664154   0.994170   0.994249   0.000000
 Stoichiometry    CH2O(1-,2)
 Framework group  CS[SG(CO),X(H2)]
 Deg. of freedom     4
 Full point group                 CS      NOp   2
 Largest Abelian subgroup         CS      NOp   2
 Largest concise Abelian subgroup CS      NOp   2
                         Standard orientation:                         
 ---------------------------------------------------------------------
 Center     Atomic      Atomic             Coordinates (Angstroms)
 Number     Number       Type             X           Y           Z
 ---------------------------------------------------------------------
      1          6           0        0.060078   -1.086610   -0.000000
      2          1           0       -0.420584    0.949670   -0.786695
      3          1           0       -0.420584    0.949670    0.786695
      4          8           0        0.060078    0.577545    0.000000
 ---------------------------------------------------------------------
 Rotational constants (GHZ):    308.9796940     23.3566778     22.4645426
 Leave Link  202 at Thu Mar  7 13:22:01 2019, MaxMem=    33554432 cpu:         0.0
 (Enter /home/proyectos/fulerenos/M3C-v2.0/M3C-deps_CCC/g09-AM64L-G09RevC.01/l301.exe)
 Standard basis: 6-311++G(3df,2p) (5D, 7F)
 Ernie: Thresh=  0.10000D-02 Tol=  0.10000D-05 Strict=F.
 There are    72 symmetry adapted cartesian basis functions of A'  symmetry.
 There are    38 symmetry adapted cartesian basis functions of A"  symmetry.
 There are    62 symmetry adapted basis functions of A'  symmetry.
 There are    36 symmetry adapted basis functions of A"  symmetry.
    98 basis functions,   140 primitive gaussians,   110 cartesian basis functions
     9 alpha electrons        8 beta electrons
       nuclear repulsion energy        26.9569039926 Hartrees.
 IExCor=  402 DFT=T Ex+Corr=B3LYP ExCW=0 ScaHFX=  0.200000
 ScaDFX=  0.800000  0.720000  1.000000  0.810000 ScalE2=  1.000000  1.000000
 IRadAn=      0 IRanWt=     -1 IRanGd=            0 ICorTp=0 IEmpDi=  4
 NAtoms=    4 NActive=    4 NUniq=    3 SFac= 1.78D+00 NAtFMM=   60 NAOKFM=F Big=F
 Integral buffers will be    131072 words long.
 Raffenetti 2 integral format.
 Two-electron integral symmetry is turned on.
 Leave Link  301 at Thu Mar  7 13:22:01 2019, MaxMem=    33554432 cpu:         0.3
 (Enter /home/proyectos/fulerenos/M3C-v2.0/M3C-deps_CCC/g09-AM64L-G09RevC.01/l302.exe)
 NPDir=0 NMtPBC=     1 NCelOv=     1 NCel=       1 NClECP=     1 NCelD=      1
         NCelK=      1 NCelE2=     1 NClLst=     1 CellRange=     0.0.
 One-electron integrals computed using PRISM.
 One-electron integral symmetry used in STVInt
 NBasis=    98 RedAO= T EigKep=  8.67D-04  NBF=    62    36
 NBsUse=    98 1.00D-06 EigRej= -1.00D+00 NBFU=    62    36
 Precomputing XC quadrature grid using
 IXCGrd= 4 IRadAn=           0 IRanWt=          -1 IRanGd=           0 AccXCQ= 0.00D+00.
 Generated NRdTot=       0 NPtTot=           0 NUsed=           0 NTot=          32
 NSgBfM=   110   110   110   110   110 MxSgAt=     4 MxSgA2=     4.
 Leave Link  302 at Thu Mar  7 13:22:01 2019, MaxMem=    33554432 cpu:         0.6
 (Enter /home/proyectos/fulerenos/M3C-v2.0/M3C-deps_CCC/g09-AM64L-G09RevC.01/l303.exe)
 DipDrv:  MaxL=1.
 Leave Link  303 at Thu Mar  7 13:22:01 2019, MaxMem=    33554432 cpu:         0.1
 (Enter /home/proyectos/fulerenos/M3C-v2.0/M3C-deps_CCC/g09-AM64L-G09RevC.01/l401.exe)
 ExpMin= 3.60D-02 ExpMax= 8.59D+03 ExpMxC= 1.30D+03 IAcc=3 IRadAn=         5 AccDes= 0.00D+00
 Harris functional with IExCor=  402 and IRadAn=       5 diagonalized for initial guess.
 HarFok:  IExCor=  402 AccDes= 0.00D+00 IRadAn=         5 IDoV= 1 UseB2=F ITyADJ=14
 ICtDFT=  3500011 ScaDFX=  1.000000  1.000000  1.000000  1.000000
 FoFCou: FMM=F IPFlag=           0 FMFlag=      100000 FMFlg1=           0
         NFxFlg=           0 DoJE=T BraDBF=F KetDBF=T FulRan=T
         wScrn=  0.000000 ICntrl=     500 IOpCl=  0 I1Cent=   200000004 NGrid=           0
         NMat0=    1 NMatS0=      1 NMatT0=    0 NMatD0=    1 NMtDS0=    0 NMtDT0=    0
 Petite list used in FoFCou.
 Harris En= -114.469308923914    
 JPrj=0 DoOrth=F DoCkMO=F.
 Initial guess orbital symmetries:
 Alpha Orbitals:
       Occupied  (A') (A') (A') (A") (A') (A') (A') (A") (A')
       Virtual   (A') (A') (A") (A') (A') (A') (A") (A') (A") (A')
                 (A") (A') (A') (A") (A') (A") (A') (A") (A') (A')
                 (A') (A") (A') (A') (A") (A') (A") (A') (A') (A")
                 (A') (A") (A') (A") (A') (A') (A') (A") (A') (A")
                 (A') (A') (A") (A') (A") (A') (A') (A") (A") (A')
                 (A') (A') (A") (A') (A") (A') (A') (A") (A') (A")
                 (A') (A") (A") (A') (A') (A') (A") (A') (A') (A")
                 (A') (A') (A") (A") (A') (A") (A') (A') (A") (A')
                 (A") (A') (A") (A') (A') (A') (A") (A') (A')
 Beta  Orbitals:
       Occupied  (A') (A') (A') (A") (A') (A') (A') (A")
       Virtual   (A') (A') (A') (A") (A') (A') (A') (A") (A') (A")
                 (A') (A") (A') (A') (A") (A') (A") (A') (A") (A')
                 (A') (A') (A") (A') (A') (A") (A') (A") (A') (A')
                 (A") (A') (A") (A') (A") (A') (A') (A') (A") (A')
                 (A") (A') (A') (A") (A') (A") (A') (A') (A") (A")
                 (A') (A') (A') (A") (A') (A") (A') (A') (A") (A')
                 (A") (A') (A") (A") (A') (A') (A') (A") (A') (A')
                 (A") (A') (A') (A") (A") (A') (A") (A') (A') (A")
                 (A') (A") (A') (A") (A') (A') (A') (A") (A') (A')
 The electronic state of the initial guess is 2-A'.
 Initial guess <Sx>= 0.0000 <Sy>= 0.0000 <Sz>= 0.5000 <S**2>= 0.7500 S= 0.5000
 Leave Link  401 at Thu Mar  7 13:22:02 2019, MaxMem=    33554432 cpu:         1.4
 (Enter /home/proyectos/fulerenos/M3C-v2.0/M3C-deps_CCC/g09-AM64L-G09RevC.01/l502.exe)
 UHF open shell SCF:
 Using DIIS extrapolation, IDIIS=  1040.
 Integral symmetry usage will be decided dynamically.
 Keep R1 and R2 ints in memory in symmetry-blocked form, NReq=17836146.
 IVT=       56438 IEndB=       56438 NGot=    33554432 MDV=    21641303
 LenX=    21641303 LenY=    21628762
 Requested convergence on RMS density matrix=1.00D-08 within 128 cycles.
 Requested convergence on MAX density matrix=1.00D-06.
 Requested convergence on             energy=1.00D-06.
 No special actions if energy rises.
 FoFCou: FMM=F IPFlag=           0 FMFlag=           0 FMFlg1=           0
         NFxFlg=           0 DoJE=F BraDBF=F KetDBF=F FulRan=T
         wScrn=  0.000000 ICntrl=     600 IOpCl=  0 I1Cent=           0 NGrid=           0
         NMat0=    1 NMatS0=   4851 NMatT0=    0 NMatD0=    1 NMtDS0=    0 NMtDT0=    0
 Petite list used in FoFCou.

 Cycle   1  Pass 1  IDiag  1:
 E= -114.079005026310    
 DIIS: error= 4.90D-02 at cycle   1 NSaved=   1.
 NSaved= 1 IEnMin= 1 EnMin= -114.079005026310     IErMin= 1 ErrMin= 4.90D-02
 ErrMax= 4.90D-02  0.00D+00 EMaxC= 1.00D-01 BMatC= 6.02D-01 BMatP= 6.02D-01
 IDIUse=3 WtCom= 5.10D-01 WtEn= 4.90D-01
 Coeff-Com:  0.100D+01
 Coeff-En:   0.100D+01
 Coeff:      0.100D+01
 Gap=     0.119 Goal=   None    Shift=    0.000
 Gap=    -0.221 Goal=   None    Shift=    0.000
 GapD=   -0.221 DampG=0.250 DampE=0.500 DampFc=0.2500 IDamp=-1.
 Damping current iteration by 2.50D-01
 RMSDP=1.66D-01 MaxDP=8.74D+00              OVMax= 9.96D-01

 Cycle   2  Pass 1  IDiag  1:
 E= -114.143935457618     Delta-E=       -0.064930431308 Rises=F Damp=T
 DIIS: error= 1.24D-02 at cycle   2 NSaved=   2.
 NSaved= 2 IEnMin= 2 EnMin= -114.143935457618     IErMin= 2 ErrMin= 1.24D-02
 ErrMax= 1.24D-02  0.00D+00 EMaxC= 1.00D-01 BMatC= 4.47D-02 BMatP= 6.02D-01
 IDIUse=3 WtCom= 8.76D-01 WtEn= 1.24D-01
 Coeff-Com: -0.966D-01 0.110D+01
 Coeff-En:   0.341D+00 0.659D+00
 Coeff:     -0.425D-01 0.104D+01
 Gap=     0.001 Goal=   None    Shift=    0.000
 Gap=     0.185 Goal=   None    Shift=    0.000
 RMSDP=4.16D-02 MaxDP=2.18D+00 DE=-6.49D-02 OVMax= 7.82D-01

 Cycle   3  Pass 1  IDiag  1:
 E= -114.199405406264     Delta-E=       -0.055469948647 Rises=F Damp=F
 DIIS: error= 2.79D-02 at cycle   3 NSaved=   3.
 NSaved= 3 IEnMin= 3 EnMin= -114.199405406264     IErMin= 2 ErrMin= 1.24D-02
 ErrMax= 2.79D-02  0.00D+00 EMaxC= 1.00D-01 BMatC= 2.26D-01 BMatP= 4.47D-02
 IDIUse=2 WtCom= 0.00D+00 WtEn= 1.00D+00
 Coeff-En:   0.000D+00 0.269D+00 0.731D+00
 Coeff:      0.000D+00 0.269D+00 0.731D+00
 Gap=     0.110 Goal=   None    Shift=    0.000
 Gap=     0.121 Goal=   None    Shift=    0.000
 RMSDP=1.01D-01 MaxDP=7.13D+00 DE=-5.55D-02 OVMax= 4.23D-01

 Cycle   4  Pass 1  IDiag  1:
 E= -113.223720689134     Delta-E=        0.975684717131 Rises=F Damp=F
 DIIS: error= 7.31D-02 at cycle   4 NSaved=   4.
 NSaved= 4 IEnMin= 3 EnMin= -114.199405406264     IErMin= 2 ErrMin= 1.24D-02
 ErrMax= 7.31D-02  0.00D+00 EMaxC= 1.00D-01 BMatC= 1.26D+00 BMatP= 4.47D-02
 IDIUse=2 WtCom= 0.00D+00 WtEn= 1.00D+00
 Coeff-En:   0.000D+00 0.000D+00 0.810D+00 0.190D+00
 Coeff:      0.000D+00 0.000D+00 0.810D+00 0.190D+00
 Gap=     0.044 Goal=   None    Shift=    0.000
 Gap=     0.050 Goal=   None    Shift=    0.000
 RMSDP=9.29D-02 MaxDP=6.31D+00 DE= 9.76D-01 OVMax= 2.75D-01

 Cycle   5  Pass 1  IDiag  1:
 E= -113.992318634572     Delta-E=       -0.768597945438 Rises=F Damp=F
 DIIS: error= 4.24D-02 at cycle   5 NSaved=   5.
 NSaved= 5 IEnMin= 3 EnMin= -114.199405406264     IErMin= 2 ErrMin= 1.24D-02
 ErrMax= 4.24D-02  0.00D+00 EMaxC= 1.00D-01 BMatC= 4.73D-01 BMatP= 4.47D-02
 IDIUse=2 WtCom= 0.00D+00 WtEn= 1.00D+00
 Coeff-En:   0.000D+00 0.000D+00 0.655D+00 0.000D+00 0.345D+00
 Coeff:      0.000D+00 0.000D+00 0.655D+00 0.000D+00 0.345D+00
 Gap=     0.013 Goal=   None    Shift=    0.000
 Gap=     0.002 Goal=   None    Shift=    0.000
 RMSDP=2.99D-02 MaxDP=9.01D-01 DE=-7.69D-01 OVMax= 1.27D-01

 Cycle   6  Pass 1  IDiag  1:
 E= -114.276885526808     Delta-E=       -0.284566892236 Rises=F Damp=F
 DIIS: error= 1.03D-02 at cycle   6 NSaved=   6.
 NSaved= 6 IEnMin= 6 EnMin= -114.276885526808     IErMin= 6 ErrMin= 1.03D-02
 ErrMax= 1.03D-02  0.00D+00 EMaxC= 1.00D-01 BMatC= 2.80D-02 BMatP= 4.47D-02
 IDIUse=3 WtCom= 8.97D-01 WtEn= 1.03D-01
 Coeff-Com: -0.175D+00 0.376D+00-0.337D-03-0.178D-01 0.430D-01 0.774D+00
 Coeff-En:   0.000D+00 0.000D+00 0.000D+00 0.000D+00 0.173D+00 0.827D+00
 Coeff:     -0.157D+00 0.337D+00-0.303D-03-0.160D-01 0.564D-01 0.779D+00
 Gap=     0.017 Goal=   None    Shift=    0.000
 Gap=     0.003 Goal=   None    Shift=    0.000
 RMSDP=2.13D-03 MaxDP=6.46D-02 DE=-2.85D-01 OVMax= 5.84D-02

 Cycle   7  Pass 1  IDiag  1:
 E= -114.281295734218     Delta-E=       -0.004410207410 Rises=F Damp=F
 DIIS: error= 8.52D-03 at cycle   7 NSaved=   7.
 NSaved= 7 IEnMin= 7 EnMin= -114.281295734218     IErMin= 7 ErrMin= 8.52D-03
 ErrMax= 8.52D-03  0.00D+00 EMaxC= 1.00D-01 BMatC= 2.27D-02 BMatP= 2.80D-02
 IDIUse=3 WtCom= 9.15D-01 WtEn= 8.52D-02
 Coeff-Com: -0.161D+00 0.283D+00-0.104D+00-0.169D-01 0.152D-01 0.142D+00
 Coeff-Com:  0.841D+00
 Coeff-En:   0.000D+00 0.000D+00 0.000D+00 0.000D+00 0.154D+00 0.000D+00
 Coeff-En:   0.846D+00
 Coeff:     -0.147D+00 0.259D+00-0.947D-01-0.155D-01 0.270D-01 0.130D+00
 Coeff:      0.842D+00
 Gap=     0.011 Goal=   None    Shift=    0.000
 Gap=     0.004 Goal=   None    Shift=    0.000
 RMSDP=2.60D-02 MaxDP=1.17D+00 DE=-4.41D-03 OVMax= 4.46D-02

 Cycle   8  Pass 1  IDiag  1:
 E= -114.298870589705     Delta-E=       -0.017574855487 Rises=F Damp=F
 DIIS: error= 1.74D-02 at cycle   8 NSaved=   8.
 NSaved= 8 IEnMin= 8 EnMin= -114.298870589705     IErMin= 7 ErrMin= 8.52D-03
 ErrMax= 1.74D-02  0.00D+00 EMaxC= 1.00D-01 BMatC= 8.02D-02 BMatP= 2.27D-02
 IDIUse=2 WtCom= 0.00D+00 WtEn= 1.00D+00
 EnCoef did   100 forward-backward iterations
 Coeff-En:   0.000D+00 0.000D+00 0.224D+00 0.000D+00 0.000D+00 0.584D-02
 Coeff-En:   0.365D-02 0.767D+00
 Coeff:      0.000D+00 0.000D+00 0.224D+00 0.000D+00 0.000D+00 0.584D-02
 Coeff:      0.365D-02 0.767D+00
 Gap=     0.132 Goal=   None    Shift=    0.000
 Gap=     0.016 Goal=   None    Shift=    0.000
 RMSDP=7.02D-03 MaxDP=3.41D-01 DE=-1.76D-02 OVMax= 1.98D-01

 Cycle   9  Pass 1  IDiag  1:
 E= -114.335931832527     Delta-E=       -0.037061242821 Rises=F Damp=F
 DIIS: error= 3.06D-03 at cycle   9 NSaved=   9.
 NSaved= 9 IEnMin= 9 EnMin= -114.335931832527     IErMin= 9 ErrMin= 3.06D-03
 ErrMax= 3.06D-03  0.00D+00 EMaxC= 1.00D-01 BMatC= 6.01D-03 BMatP= 2.27D-02
 IDIUse=3 WtCom= 9.69D-01 WtEn= 3.06D-02
 Coeff-Com: -0.948D-01 0.148D+00-0.333D-01-0.601D-02 0.234D-01 0.255D+00
 Coeff-Com:  0.231D+00 0.525D-01 0.424D+00
 Coeff-En:   0.000D+00 0.000D+00 0.000D+00 0.000D+00 0.000D+00 0.000D+00
 Coeff-En:   0.000D+00 0.000D+00 0.100D+01
 Coeff:     -0.919D-01 0.143D+00-0.323D-01-0.583D-02 0.227D-01 0.248D+00
 Coeff:      0.224D+00 0.509D-01 0.442D+00
 Gap=     0.079 Goal=   None    Shift=    0.000
 Gap=     0.032 Goal=   None    Shift=    0.000
 RMSDP=1.87D-03 MaxDP=9.37D-02 DE=-3.71D-02 OVMax= 5.76D-02

 Cycle  10  Pass 1  IDiag  1:
 E= -114.331769913409     Delta-E=        0.004161919118 Rises=F Damp=F
 DIIS: error= 7.29D-03 at cycle  10 NSaved=  10.
 NSaved=10 IEnMin= 9 EnMin= -114.335931832527     IErMin= 9 ErrMin= 3.06D-03
 ErrMax= 7.29D-03  0.00D+00 EMaxC= 1.00D-01 BMatC= 1.35D-02 BMatP= 6.01D-03
 IDIUse=3 WtCom= 9.69D-01 WtEn= 3.06D-02
 Coeff-Com: -0.725D-01 0.117D+00 0.150D-01-0.256D-02 0.184D-01 0.234D+00
 Coeff-Com:  0.311D-01-0.187D+00 0.282D+00 0.565D+00
 Coeff-En:   0.000D+00 0.000D+00 0.000D+00 0.000D+00 0.000D+00 0.000D+00
 Coeff-En:   0.000D+00 0.000D+00 0.893D+00 0.107D+00
 Coeff:     -0.703D-01 0.113D+00 0.145D-01-0.248D-02 0.178D-01 0.227D+00
 Coeff:      0.302D-01-0.181D+00 0.301D+00 0.551D+00
 Gap=     0.102 Goal=   None    Shift=    0.000
 Gap=     0.041 Goal=   None    Shift=    0.000
 RMSDP=1.38D-03 MaxDP=4.87D-02 DE= 4.16D-03 OVMax= 3.58D-02

 Cycle  11  Pass 1  IDiag  1:
 E= -114.335776856265     Delta-E=       -0.004006942856 Rises=F Damp=F
 DIIS: error= 4.52D-03 at cycle  11 NSaved=  11.
 NSaved=11 IEnMin= 9 EnMin= -114.335931832527     IErMin= 9 ErrMin= 3.06D-03
 ErrMax= 4.52D-03  0.00D+00 EMaxC= 1.00D-01 BMatC= 4.82D-03 BMatP= 6.01D-03
 IDIUse=3 WtCom= 9.69D-01 WtEn= 3.06D-02
 Coeff-Com:  0.149D-01-0.858D-02-0.257D-01 0.717D-03-0.123D-02-0.140D+00
 Coeff-Com:  0.158D+00 0.206D+00-0.667D-01-0.261D+01 0.347D+01
 Coeff-En:   0.000D+00 0.000D+00 0.000D+00 0.000D+00 0.000D+00 0.000D+00
 Coeff-En:   0.000D+00 0.000D+00 0.529D+00 0.000D+00 0.471D+00
 Coeff:      0.145D-01-0.832D-02-0.249D-01 0.695D-03-0.119D-02-0.135D+00
 Coeff:      0.154D+00 0.200D+00-0.485D-01-0.253D+01 0.338D+01
 Gap=     0.132 Goal=   None    Shift=    0.000
 Gap=     0.066 Goal=   None    Shift=    0.000
 RMSDP=2.24D-03 MaxDP=7.44D-02 DE=-4.01D-03 OVMax= 5.03D-02

 Cycle  12  Pass 1  IDiag  1:
 E= -114.337988003532     Delta-E=       -0.002211147268 Rises=F Damp=F
 DIIS: error= 1.40D-04 at cycle  12 NSaved=  12.
 NSaved=12 IEnMin=12 EnMin= -114.337988003532     IErMin=12 ErrMin= 1.40D-04
 ErrMax= 1.40D-04  0.00D+00 EMaxC= 1.00D-01 BMatC= 5.16D-06 BMatP= 4.82D-03
 IDIUse=3 WtCom= 9.99D-01 WtEn= 1.40D-03
 Coeff-Com: -0.173D-03-0.152D-02-0.111D-02-0.551D-04-0.734D-03 0.525D-03
 Coeff-Com:  0.383D-02 0.219D-01 0.565D-04-0.132D+00 0.123D+00 0.986D+00
 Coeff-En:   0.000D+00 0.000D+00 0.000D+00 0.000D+00 0.000D+00 0.000D+00
 Coeff-En:   0.000D+00 0.000D+00 0.000D+00 0.000D+00 0.000D+00 0.100D+01
 Coeff:     -0.173D-03-0.152D-02-0.111D-02-0.550D-04-0.733D-03 0.524D-03
 Coeff:      0.383D-02 0.219D-01 0.564D-04-0.132D+00 0.123D+00 0.986D+00
 Gap=     0.132 Goal=   None    Shift=    0.000
 Gap=     0.062 Goal=   None    Shift=    0.000
 RMSDP=9.02D-05 MaxDP=3.58D-03 DE=-2.21D-03 OVMax= 1.33D-03

 Cycle  13  Pass 1  IDiag  1:
 E= -114.337990196427     Delta-E=       -0.000002192894 Rises=F Damp=F
 DIIS: error= 1.06D-04 at cycle  13 NSaved=  13.
 NSaved=13 IEnMin=13 EnMin= -114.337990196427     IErMin=13 ErrMin= 1.06D-04
 ErrMax= 1.06D-04  0.00D+00 EMaxC= 1.00D-01 BMatC= 2.04D-06 BMatP= 5.16D-06
 IDIUse=3 WtCom= 9.99D-01 WtEn= 1.06D-03
 Coeff-Com: -0.645D-03 0.878D-03 0.888D-03 0.186D-04-0.410D-03 0.630D-02
 Coeff-Com: -0.675D-02-0.450D-02 0.662D-02 0.580D-01-0.902D-01 0.110D-02
 Coeff-Com:  0.103D+01
 Coeff-En:   0.000D+00 0.000D+00 0.000D+00 0.000D+00 0.000D+00 0.000D+00
 Coeff-En:   0.000D+00 0.000D+00 0.000D+00 0.000D+00 0.000D+00 0.000D+00
 Coeff-En:   0.100D+01
 Coeff:     -0.644D-03 0.878D-03 0.887D-03 0.186D-04-0.409D-03 0.629D-02
 Coeff:     -0.674D-02-0.449D-02 0.661D-02 0.580D-01-0.901D-01 0.110D-02
 Coeff:      0.103D+01
 Gap=     0.132 Goal=   None    Shift=    0.000
 Gap=     0.062 Goal=   None    Shift=    0.000
 RMSDP=4.26D-05 MaxDP=2.36D-03 DE=-2.19D-06 OVMax= 8.05D-04

 Cycle  14  Pass 1  IDiag  1:
 E= -114.337991224387     Delta-E=       -0.000001027960 Rises=F Damp=F
 DIIS: error= 2.07D-05 at cycle  14 NSaved=  14.
 NSaved=14 IEnMin=14 EnMin= -114.337991224387     IErMin=14 ErrMin= 2.07D-05
 ErrMax= 2.07D-05  0.00D+00 EMaxC= 1.00D-01 BMatC= 8.50D-08 BMatP= 2.04D-06
 IDIUse=1 WtCom= 1.00D+00 WtEn= 0.00D+00
 Coeff-Com: -0.632D-04 0.436D-04-0.255D-03 0.181D-04-0.106D-03-0.246D-03
 Coeff-Com:  0.109D-02-0.207D-02 0.588D-03 0.178D-01-0.231D-01-0.108D+00
 Coeff-Com:  0.762D-01 0.104D+01
 Coeff:     -0.632D-04 0.436D-04-0.255D-03 0.181D-04-0.106D-03-0.246D-03
 Coeff:      0.109D-02-0.207D-02 0.588D-03 0.178D-01-0.231D-01-0.108D+00
 Coeff:      0.762D-01 0.104D+01
 Gap=     0.132 Goal=   None    Shift=    0.000
 Gap=     0.062 Goal=   None    Shift=    0.000
 RMSDP=1.17D-05 MaxDP=6.57D-04 DE=-1.03D-06 OVMax= 2.06D-04

 Cycle  15  Pass 1  IDiag  1:
 E= -114.337991271705     Delta-E=       -0.000000047319 Rises=F Damp=F
 DIIS: error= 1.28D-05 at cycle  15 NSaved=  15.
 NSaved=15 IEnMin=15 EnMin= -114.337991271705     IErMin=15 ErrMin= 1.28D-05
 ErrMax= 1.28D-05  0.00D+00 EMaxC= 1.00D-01 BMatC= 3.18D-08 BMatP= 8.50D-08
 IDIUse=1 WtCom= 1.00D+00 WtEn= 0.00D+00
 Coeff-Com:  0.430D-04-0.271D-04-0.525D-04-0.283D-06-0.129D-04-0.180D-04
 Coeff-Com:  0.153D-04 0.463D-03-0.551D-04-0.632D-02 0.728D-02 0.122D-01
 Coeff-Com: -0.686D-01-0.963D-01 0.115D+01
 Coeff:      0.430D-04-0.271D-04-0.525D-04-0.283D-06-0.129D-04-0.180D-04
 Coeff:      0.153D-04 0.463D-03-0.551D-04-0.632D-02 0.728D-02 0.122D-01
 Coeff:     -0.686D-01-0.963D-01 0.115D+01
 Gap=     0.132 Goal=   None    Shift=    0.000
 Gap=     0.062 Goal=   None    Shift=    0.000
 RMSDP=8.80D-06 MaxDP=4.60D-04 DE=-4.73D-08 OVMax= 9.91D-05

 Cycle  16  Pass 1  IDiag  1:
 E= -114.337991288242     Delta-E=       -0.000000016537 Rises=F Damp=F
 DIIS: error= 1.36D-06 at cycle  16 NSaved=  16.
 NSaved=16 IEnMin=16 EnMin= -114.337991288242     IErMin=16 ErrMin= 1.36D-06
 ErrMax= 1.36D-06  0.00D+00 EMaxC= 1.00D-01 BMatC= 3.01D-10 BMatP= 3.18D-08
 IDIUse=1 WtCom= 1.00D+00 WtEn= 0.00D+00
 Coeff-Com: -0.160D-04 0.242D-04 0.452D-04-0.176D-05-0.792D-06-0.175D-04
 Coeff-Com: -0.585D-04 0.121D-03-0.110D-04-0.917D-03 0.130D-02 0.652D-02
 Coeff-Com: -0.164D-02-0.545D-01-0.772D-01 0.113D+01
 Coeff:     -0.160D-04 0.242D-04 0.452D-04-0.176D-05-0.792D-06-0.175D-04
 Coeff:     -0.585D-04 0.121D-03-0.110D-04-0.917D-03 0.130D-02 0.652D-02
 Coeff:     -0.164D-02-0.545D-01-0.772D-01 0.113D+01
 Gap=     0.132 Goal=   None    Shift=    0.000
 Gap=     0.062 Goal=   None    Shift=    0.000
 RMSDP=1.29D-06 MaxDP=6.87D-05 DE=-1.65D-08 OVMax= 2.17D-05

 Cycle  17  Pass 1  IDiag  1:
 E= -114.337991288401     Delta-E=       -0.000000000159 Rises=F Damp=F
 DIIS: error= 9.12D-07 at cycle  17 NSaved=  17.
 NSaved=17 IEnMin=17 EnMin= -114.337991288401     IErMin=17 ErrMin= 9.12D-07
 ErrMax= 9.12D-07  0.00D+00 EMaxC= 1.00D-01 BMatC= 1.54D-10 BMatP= 3.01D-10
 IDIUse=1 WtCom= 1.00D+00 WtEn= 0.00D+00
 Coeff-Com: -0.706D-06-0.443D-05-0.342D-05-0.139D-06 0.263D-05-0.520D-05
 Coeff-Com:  0.158D-04-0.127D-04-0.137D-04 0.457D-03-0.502D-03 0.182D-03
 Coeff-Com:  0.323D-02-0.345D-02-0.588D-01 0.752D-01 0.984D+00
 Coeff:     -0.706D-06-0.443D-05-0.342D-05-0.139D-06 0.263D-05-0.520D-05
 Coeff:      0.158D-04-0.127D-04-0.137D-04 0.457D-03-0.502D-03 0.182D-03
 Coeff:      0.323D-02-0.345D-02-0.588D-01 0.752D-01 0.984D+00
 Gap=     0.132 Goal=   None    Shift=    0.000
 Gap=     0.062 Goal=   None    Shift=    0.000
 RMSDP=2.99D-07 MaxDP=9.75D-06 DE=-1.59D-10 OVMax= 7.90D-06

 Cycle  18  Pass 1  IDiag  1:
 E= -114.337991288480     Delta-E=       -0.000000000079 Rises=F Damp=F
 DIIS: error= 1.22D-07 at cycle  18 NSaved=  18.
 NSaved=18 IEnMin=18 EnMin= -114.337991288480     IErMin=18 ErrMin= 1.22D-07
 ErrMax= 1.22D-07  0.00D+00 EMaxC= 1.00D-01 BMatC= 3.33D-12 BMatP= 1.54D-10
 IDIUse=1 WtCom= 1.00D+00 WtEn= 0.00D+00
 Coeff-Com:  0.141D-05-0.887D-06-0.167D-05-0.144D-07 0.614D-06-0.573D-06
 Coeff-Com:  0.674D-06-0.194D-04-0.645D-05 0.184D-03-0.220D-03-0.643D-03
 Coeff-Com:  0.147D-02 0.363D-02-0.782D-02-0.884D-01 0.192D+00 0.900D+00
 Coeff:      0.141D-05-0.887D-06-0.167D-05-0.144D-07 0.614D-06-0.573D-06
 Coeff:      0.674D-06-0.194D-04-0.645D-05 0.184D-03-0.220D-03-0.643D-03
 Coeff:      0.147D-02 0.363D-02-0.782D-02-0.884D-01 0.192D+00 0.900D+00
 Gap=     0.132 Goal=   None    Shift=    0.000
 Gap=     0.062 Goal=   None    Shift=    0.000
 RMSDP=5.46D-08 MaxDP=1.78D-06 DE=-7.90D-11 OVMax= 2.42D-06

 Cycle  19  Pass 1  IDiag  1:
 E= -114.337991288483     Delta-E=       -0.000000000003 Rises=F Damp=F
 DIIS: error= 2.24D-08 at cycle  19 NSaved=  19.
 NSaved=19 IEnMin=19 EnMin= -114.337991288483     IErMin=19 ErrMin= 2.24D-08
 ErrMax= 2.24D-08  0.00D+00 EMaxC= 1.00D-01 BMatC= 2.00D-13 BMatP= 3.33D-12
 IDIUse=1 WtCom= 1.00D+00 WtEn= 0.00D+00
 Coeff-Com:  0.231D-06-0.178D-06-0.290D-06 0.702D-08 0.143D-06 0.192D-05
 Coeff-Com: -0.166D-05-0.335D-06 0.287D-05-0.161D-04 0.153D-04 0.993D-05
 Coeff-Com: -0.992D-04-0.455D-03 0.442D-02-0.753D-02-0.533D-01-0.276D-01
 Coeff-Com:  0.108D+01
 Coeff:      0.231D-06-0.178D-06-0.290D-06 0.702D-08 0.143D-06 0.192D-05
 Coeff:     -0.166D-05-0.335D-06 0.287D-05-0.161D-04 0.153D-04 0.993D-05
 Coeff:     -0.992D-04-0.455D-03 0.442D-02-0.753D-02-0.533D-01-0.276D-01
 Coeff:      0.108D+01
 Gap=     0.132 Goal=   None    Shift=    0.000
 Gap=     0.062 Goal=   None    Shift=    0.000
 RMSDP=4.99D-08 MaxDP=2.09D-06 DE=-2.59D-12 OVMax= 9.77D-07

 Cycle  20  Pass 1  IDiag  1:
 E= -114.337991288483     Delta-E=        0.000000000000 Rises=F Damp=F
 DIIS: error= 9.62D-09 at cycle  20 NSaved=  20.
 NSaved=20 IEnMin=19 EnMin= -114.337991288483     IErMin=20 ErrMin= 9.62D-09
 ErrMax= 9.62D-09  0.00D+00 EMaxC= 1.00D-01 BMatC= 2.92D-14 BMatP= 2.00D-13
 IDIUse=1 WtCom= 1.00D+00 WtEn= 0.00D+00
 Coeff-Com: -0.145D-06 0.115D-06 0.302D-06 0.432D-08-0.410D-07-0.424D-06
 Coeff-Com:  0.100D-06 0.158D-05-0.235D-06-0.170D-04 0.213D-04 0.163D-04
 Coeff-Com: -0.694D-04-0.102D-03 0.765D-03 0.378D-02-0.466D-02-0.771D-01
 Coeff-Com: -0.270D-01 0.110D+01
 Coeff:     -0.145D-06 0.115D-06 0.302D-06 0.432D-08-0.410D-07-0.424D-06
 Coeff:      0.100D-06 0.158D-05-0.235D-06-0.170D-04 0.213D-04 0.163D-04
 Coeff:     -0.694D-04-0.102D-03 0.765D-03 0.378D-02-0.466D-02-0.771D-01
 Coeff:     -0.270D-01 0.110D+01
 Gap=     0.132 Goal=   None    Shift=    0.000
 Gap=     0.062 Goal=   None    Shift=    0.000
 RMSDP=1.13D-08 MaxDP=4.06D-07 DE= 5.68D-14 OVMax= 3.72D-07

 Cycle  21  Pass 1  IDiag  1:
 E= -114.337991288483     Delta-E=        0.000000000000 Rises=F Damp=F
 DIIS: error= 4.25D-09 at cycle  21 NSaved=  20.
 NSaved=20 IEnMin=18 EnMin= -114.337991288483     IErMin=20 ErrMin= 4.25D-09
 ErrMax= 4.25D-09  0.00D+00 EMaxC= 1.00D-01 BMatC= 5.28D-15 BMatP= 2.92D-14
 IDIUse=1 WtCom= 1.00D+00 WtEn= 0.00D+00
 Large coefficients: NSaved= 20 BigCof=    0.00 CofMax=   10.00 Det=-3.89D-15
 Inversion failed.  Reducing to 19 matrices.
 Large coefficients: NSaved= 19 BigCof=    0.00 CofMax=   10.00 Det=-3.98D-15
 Inversion failed.  Reducing to 18 matrices.
 Large coefficients: NSaved= 18 BigCof=    0.00 CofMax=   10.00 Det=-4.51D-15
 Inversion failed.  Reducing to 17 matrices.
 Large coefficients: NSaved= 17 BigCof=    0.00 CofMax=   10.00 Det=-4.72D-15
 Inversion failed.  Reducing to 16 matrices.
 Large coefficients: NSaved= 16 BigCof=    0.00 CofMax=   10.00 Det=-5.47D-15
 Inversion failed.  Reducing to 15 matrices.
 Coeff-Com: -0.347D-07-0.384D-06-0.206D-06 0.544D-05-0.593D-05 0.620D-05
 Coeff-Com:  0.267D-04-0.104D-03-0.241D-03 0.879D-03 0.544D-02 0.551D-02
 Coeff-Com: -0.999D-01-0.145D+00 0.123D+01
 Coeff:     -0.347D-07-0.384D-06-0.206D-06 0.544D-05-0.593D-05 0.620D-05
 Coeff:      0.267D-04-0.104D-03-0.241D-03 0.879D-03 0.544D-02 0.551D-02
 Coeff:     -0.999D-01-0.145D+00 0.123D+01
 Gap=     0.132 Goal=   None    Shift=    0.000
 Gap=     0.062 Goal=   None    Shift=    0.000
 RMSDP=3.02D-09 MaxDP=7.82D-08 DE= 5.68D-14 OVMax= 1.51D-07

 SCF Done:  E(UB3LYP) =  -114.337991288     A.U. after   21 cycles
            NFock= 21  Conv=0.30D-08     -V/T= 2.0029
 <Sx>= 0.0000 <Sy>= 0.0000 <Sz>= 0.5000 <S**2>= 1.7595 S= 0.9176
 <L.S>= 0.000000000000E+00
 KE= 1.140114061500D+02 PE=-3.255244880533D+02 EE= 7.021818662227D+01
 Annihilation of the first spin contaminant:
 S**2 before annihilation     1.7595,   after     0.7819
 Leave Link  502 at Thu Mar  7 13:22:13 2019, MaxMem=    33554432 cpu:        21.0
 (Enter /home/proyectos/fulerenos/M3C-v2.0/M3C-deps_CCC/g09-AM64L-G09RevC.01/l801.exe)
 DoSCS=F DFT=T ScalE2(SS,OS)=  1.000000  1.000000
 Range of M.O.s used for correlation:     1    98
 NBasis=    98 NAE=     9 NBE=     8 NFC=     0 NFV=     0
 NROrb=     98 NOA=     9 NOB=     8 NVA=    89 NVB=    90

 **** Warning!!: The largest alpha MO coefficient is  0.12701444D+02


 **** Warning!!: The largest beta MO coefficient is  0.12815775D+02


 **** Warning!!: The smallest beta delta epsilon is  0.62086818D-01

 Leave Link  801 at Thu Mar  7 13:22:14 2019, MaxMem=    33554432 cpu:         0.1
 (Enter /home/proyectos/fulerenos/M3C-v2.0/M3C-deps_CCC/g09-AM64L-G09RevC.01/l1101.exe)
 Using compressed storage, NAtomX=     4.
 Will process      5 centers per pass.
 Leave Link 1101 at Thu Mar  7 13:22:14 2019, MaxMem=    33554432 cpu:         0.7
 (Enter /home/proyectos/fulerenos/M3C-v2.0/M3C-deps_CCC/g09-AM64L-G09RevC.01/l1102.exe)
 Symmetrizing basis deriv contribution to polar:
 IMax=3 JMax=2 DiffMx= 0.00D+00
 Leave Link 1102 at Thu Mar  7 13:22:14 2019, MaxMem=    33554432 cpu:         0.1
 (Enter /home/proyectos/fulerenos/M3C-v2.0/M3C-deps_CCC/g09-AM64L-G09RevC.01/l1110.exe)
 Forming Gx(P) for the SCF density, NAtomX=     4.
 Integral derivatives from FoFJK, PRISM(SPDF).
 Do as many integral derivatives as possible in FoFJK.
 G2DrvN: MDV=      33554296.
 G2DrvN: will do     5 centers at a time, making    1 passes.
 Calling FoFCou, ICntrl=  3107 FMM=F I1Cent=   0 AccDes= 0.00D+00.
 FoFJK:  IHMeth= 1 ICntrl=    3107 DoSepK=F KAlg= 0 I1Cent=   0 FoldK=F
 IRaf=         0 NMat=   1 IRICut=       1 DoRegI=T DoRafI=F ISym2E= 1.
 FoFCou: FMM=F IPFlag=           0 FMFlag=      100000 FMFlg1=           0
         NFxFlg=           0 DoJE=F BraDBF=F KetDBF=F FulRan=T
         wScrn=  0.000000 ICntrl=    3107 IOpCl=  1 I1Cent=           0 NGrid=           0
         NMat0=    1 NMatS0=      1 NMatT0=    0 NMatD0=    1 NMtDS0=    0 NMtDT0=    0
 Petite list used in FoFCou.
 End of G2Drv F.D. properties file   721 does not exist.
 End of G2Drv F.D. properties file   722 does not exist.
 End of G2Drv F.D. properties file   788 does not exist.
 Leave Link 1110 at Thu Mar  7 13:22:24 2019, MaxMem=    33554432 cpu:        19.3
 (Enter /home/proyectos/fulerenos/M3C-v2.0/M3C-deps_CCC/g09-AM64L-G09RevC.01/l1002.exe)
 Minotr:  UHF open shell wavefunction.
          IDoAtm=1111
          Direct CPHF calculation.
          Differentiating once with respect to electric field.
                with respect to dipole field.
          Differentiating once with respect to nuclear coordinates.
          Using symmetry in CPHF.
          Requested convergence is 1.0D-08 RMS, and 1.0D-07 maximum.
          Secondary convergence is 1.0D-12 RMS, and 1.0D-12 maximum.
          NewPWx=T KeepS1=F KeepF1=F KeepIn=T MapXYZ=F SortEE=F KeepMc=T.
          MDV=      33554192 using IRadAn=       2.
 Generate precomputed XC quadrature information.
 Keep R1 and R2 ints in memory in symmetry-blocked form, NReq=17781844.
 FoFCou: FMM=F IPFlag=           0 FMFlag=           0 FMFlg1=           0
         NFxFlg=           0 DoJE=F BraDBF=F KetDBF=F FulRan=T
         wScrn=  0.000000 ICntrl=     600 IOpCl=  0 I1Cent=           0 NGrid=           0
         NMat0=    1 NMatS0=   4851 NMatT0=    0 NMatD0=    1 NMtDS0=    0 NMtDT0=    0
 Petite list used in FoFCou.
          Solving linear equations simultaneously, MaxMat=       0.
          There are    12 degrees of freedom in the 1st order CPHF.  IDoFFX=4 NUNeed=    12.
     12 vectors produced by pass  0 Test12= 1.27D-14 8.33D-09 XBig12= 2.38D+03 4.16D+01.
 AX will form    12 AO Fock derivatives at one time.
     12 vectors produced by pass  1 Test12= 1.27D-14 8.33D-09 XBig12= 8.89D+01 3.69D+00.
     12 vectors produced by pass  2 Test12= 1.27D-14 8.33D-09 XBig12= 2.00D+00 4.85D-01.
     12 vectors produced by pass  3 Test12= 1.27D-14 8.33D-09 XBig12= 2.59D-02 5.64D-02.
     12 vectors produced by pass  4 Test12= 1.27D-14 8.33D-09 XBig12= 3.78D-04 6.75D-03.
     12 vectors produced by pass  5 Test12= 1.27D-14 8.33D-09 XBig12= 2.58D-06 4.59D-04.
     12 vectors produced by pass  6 Test12= 1.27D-14 8.33D-09 XBig12= 1.53D-08 3.07D-05.
      6 vectors produced by pass  7 Test12= 1.27D-14 8.33D-09 XBig12= 1.21D-10 2.49D-06.
      3 vectors produced by pass  8 Test12= 1.27D-14 8.33D-09 XBig12= 8.96D-13 2.32D-07.
      3 vectors produced by pass  9 Test12= 1.27D-14 8.33D-09 XBig12= 4.52D-15 1.65D-08.
 InvSVY:  IOpt=1 It=  1 EMax= 4.34D-15
 Solved reduced A of dimension    96 with    12 vectors.
 FullF1:  Do perturbations    1 to    12.
 Isotropic polarizability for W=    0.000000      181.42 Bohr**3.
 End of Minotr F.D. properties file   721 does not exist.
 End of Minotr F.D. properties file   722 does not exist.
 End of Minotr F.D. properties file   788 does not exist.
 Leave Link 1002 at Thu Mar  7 13:22:59 2019, MaxMem=    33554432 cpu:        69.9
 (Enter /home/proyectos/fulerenos/M3C-v2.0/M3C-deps_CCC/g09-AM64L-G09RevC.01/l601.exe)
 Copying SCF densities to generalized density rwf, IOpCl= 1 IROHF=0.

 **********************************************************************

            Population analysis using the SCF density.

 **********************************************************************

 Orbital symmetries:
 Alpha Orbitals:
       Occupied  (A') (A') (A') (A') (A") (A') (A') (A") (A')
       Virtual   (A') (A") (A') (A') (A') (A") (A') (A') (A") (A')
                 (A") (A') (A') (A") (A') (A") (A') (A") (A') (A')
                 (A') (A") (A') (A') (A") (A') (A") (A') (A') (A")
                 (A') (A") (A') (A") (A') (A') (A") (A') (A') (A")
                 (A') (A') (A") (A') (A') (A") (A') (A") (A") (A')
                 (A') (A') (A") (A") (A') (A') (A') (A") (A') (A")
                 (A") (A') (A") (A') (A') (A') (A") (A') (A') (A")
                 (A') (A') (A") (A") (A') (A") (A') (A') (A") (A')
                 (A") (A') (A") (A') (A') (A') (A") (A') (A')
 Beta  Orbitals:
       Occupied  (A') (A') (A') (A") (A') (A') (A') (A')
       Virtual   (A") (A') (A") (A') (A') (A') (A") (A') (A") (A')
                 (A') (A") (A') (A') (A") (A') (A") (A') (A") (A')
                 (A') (A') (A") (A') (A') (A") (A') (A") (A') (A")
                 (A') (A') (A") (A') (A") (A') (A') (A") (A') (A')
                 (A') (A") (A') (A") (A') (A') (A") (A') (A") (A')
                 (A") (A') (A') (A") (A') (A") (A') (A') (A") (A')
                 (A") (A") (A') (A") (A') (A') (A') (A") (A') (A')
                 (A") (A') (A') (A") (A") (A') (A") (A') (A') (A")
                 (A') (A") (A') (A") (A') (A') (A') (A") (A') (A')
 The electronic state is 2-A".
 Alpha  occ. eigenvalues --  -19.04136 -10.04189  -0.91587  -0.43767  -0.41924
 Alpha  occ. eigenvalues --   -0.27392  -0.19642  -0.03234  -0.02127
 Alpha virt. eigenvalues --    0.11100   0.14799   0.16606   0.19836   0.20819
 Alpha virt. eigenvalues --    0.22149   0.25452   0.27950   0.28768   0.31740
 Alpha virt. eigenvalues --    0.34821   0.35395   0.43199   0.52078   0.52683
 Alpha virt. eigenvalues --    0.58433   0.59348   0.63349   0.64245   0.66821
 Alpha virt. eigenvalues --    0.71417   0.71654   0.75186   0.86639   0.94441
 Alpha virt. eigenvalues --    1.00903   1.05525   1.08493   1.15116   1.16255
 Alpha virt. eigenvalues --    1.19260   1.29665   1.32120   1.36366   1.41927
 Alpha virt. eigenvalues --    1.54352   1.65051   1.67729   1.78427   1.83345
 Alpha virt. eigenvalues --    1.85045   1.97557   2.01925   2.25570   2.78154
 Alpha virt. eigenvalues --    2.79460   2.88678   2.99527   3.00498   3.02341
 Alpha virt. eigenvalues --    3.04585   3.07691   3.11218   3.20414   3.20747
 Alpha virt. eigenvalues --    3.24117   3.39663   3.41238   3.54511   3.64269
 Alpha virt. eigenvalues --    3.79773   3.81193   4.13138   4.14850   4.29343
 Alpha virt. eigenvalues --    4.59628   4.80947   5.23098   5.32848   5.38211
 Alpha virt. eigenvalues --    5.52552   5.67660   5.70147   5.78854   5.81206
 Alpha virt. eigenvalues --    6.97120   7.03144   7.09657   7.11067   7.27224
 Alpha virt. eigenvalues --    7.32510   7.73746  14.51144  14.52141  14.55111
 Alpha virt. eigenvalues --   14.76367  15.09436  23.61663  50.10589
  Beta  occ. eigenvalues --  -19.04288 -10.01572  -0.91805  -0.41858  -0.39830
  Beta  occ. eigenvalues --   -0.25700  -0.15005   0.05552
  Beta virt. eigenvalues --    0.11761   0.13271   0.13376   0.17374   0.20337
  Beta virt. eigenvalues --    0.22727   0.24630   0.25659   0.27534   0.28622
  Beta virt. eigenvalues --    0.31369   0.34598   0.34727   0.43043   0.54664
  Beta virt. eigenvalues --    0.55781   0.60047   0.60986   0.62962   0.64021
  Beta virt. eigenvalues --    0.67416   0.76279   0.77182   0.77720   0.86765
  Beta virt. eigenvalues --    0.95077   1.01052   1.05404   1.10158   1.15745
  Beta virt. eigenvalues --    1.16125   1.19861   1.30471   1.32518   1.36409
  Beta virt. eigenvalues --    1.41519   1.53858   1.66287   1.69672   1.86023
  Beta virt. eigenvalues --    1.88885   1.91860   2.01844   2.06691   2.27060
  Beta virt. eigenvalues --    2.79154   2.82153   2.96602   3.05649   3.05736
  Beta virt. eigenvalues --    3.09923   3.11213   3.13259   3.16218   3.24083
  Beta virt. eigenvalues --    3.24372   3.27740   3.40700   3.40898   3.54403
  Beta virt. eigenvalues --    3.65479   3.79900   3.81673   4.13396   4.14891
  Beta virt. eigenvalues --    4.29113   4.59170   4.80723   5.23269   5.33089
  Beta virt. eigenvalues --    5.38367   5.52603   5.68034   5.70228   5.78893
  Beta virt. eigenvalues --    5.81322   6.96814   7.03054   7.22361   7.23692
  Beta virt. eigenvalues --    7.33366   7.38674   7.77193  14.51285  14.51810
  Beta virt. eigenvalues --   14.54959  14.76355  15.09172  23.64504  50.10399
          Condensed to atoms (all electrons):
               1          2          3          4
     1  C    7.632745  -0.934668  -0.934668   0.195020
     2  H   -0.934668   1.830531   1.075751  -0.431652
     3  H   -0.934668   1.075751   1.830531  -0.431652
     4  O    0.195020  -0.431652  -0.431652   8.629931
          Atomic-Atomic Spin Densities.
               1          2          3          4
     1  C    1.168956   0.899783   0.899783  -0.525030
     2  H    0.899783  -1.361305  -1.108584   0.700978
     3  H    0.899783  -1.108584  -1.361305   0.700978
     4  O   -0.525030   0.700978   0.700978  -0.582165
 Mulliken charges and spin densities:
               1          2
     1  C    0.041572   2.443492
     2  H   -0.539962  -0.869127
     3  H   -0.539962  -0.869127
     4  O    0.038353   0.294762
 Sum of Mulliken charges =  -1.00000   1.00000
 Mulliken charges and spin densities with hydrogens summed into heavy atoms:
               1          2
     1  C    0.041572   2.443492
     4  O   -1.041572  -1.443492
 APT charges:
               1
     1  C   -0.035474
     2  H   -0.475489
     3  H   -0.475489
     4  O   -0.013547
 Sum of APT charges =  -1.00000
 APT charges with hydrogens summed into heavy atoms:
               1
     1  C   -0.035474
     4  O   -0.964526
 Electronic spatial extent (au):  <R**2>=            115.0202
 Charge=             -1.0000 electrons
 Dipole moment (field-independent basis, Debye):
    X=              1.6138    Y=             -2.0520    Z=             -0.0000  Tot=              2.6106
 Quadrupole moment (field-independent basis, Debye-Ang):
   XX=            -27.1462   YY=            -37.1673   ZZ=            -26.9969
   XY=              3.8021   XZ=              0.0000   YZ=             -0.0000
 Traceless Quadrupole moment (field-independent basis, Debye-Ang):
   XX=              3.2906   YY=             -6.7305   ZZ=              3.4399
   XY=              3.8021   XZ=              0.0000   YZ=             -0.0000
 Octapole moment (field-independent basis, Debye-Ang**2):
  XXX=             20.3045  YYY=            -39.2289  ZZZ=              0.0000  XYY=             10.9896
  XXY=            -13.1041  XXZ=             -0.0000  XZZ=              7.7925  YZZ=            -13.9587
  YYZ=             -0.0000  XYZ=              0.0000
 Hexadecapole moment (field-independent basis, Debye-Ang**3):
 XXXX=           -117.9294 YYYY=           -310.0421 ZZZZ=           -142.2435 XXXY=             34.4411
 XXXZ=              0.0000 YYYX=             37.7642 YYYZ=             -0.0000 ZZZX=              0.0000
 ZZZY=             -0.0000 XXYY=            -74.0048 XXZZ=            -43.5835 YYZZ=            -78.8578
 XXYZ=             -0.0000 YYXZ=              0.0000 ZZXY=             12.9317
 N-N= 2.695690399255D+01 E-N=-3.255244880233D+02  KE= 1.140114061500D+02
 Symmetry A'   KE= 1.090828544638D+02
 Symmetry A"   KE= 4.928551686163D+00
  Exact polarizability:  67.977 -11.471 101.469  -0.000   0.000 374.801
 Approx polarizability:  67.839  -7.718  93.324  -0.000   0.000 343.000
                          Isotropic Fermi Contact Couplings
        Atom                 a.u.       MegaHertz       Gauss      10(-4) cm-1
     1  C(13)              0.10228     114.98044      41.02788      38.35335
     2  H(1)               0.00437      19.51447       6.96325       6.50933
     3  H(1)               0.00437      19.51447       6.96325       6.50933
     4  O(17)             -0.36189     219.37390      78.27806      73.17526
 --------------------------------------------------------
       Center         ----  Spin Dipole Couplings  ----
                      3XX-RR        3YY-RR        3ZZ-RR
 --------------------------------------------------------
     1   Atom        0.665765     -1.325293      0.659528
     2   Atom       -0.008752      0.037249     -0.028497
     3   Atom       -0.008752      0.037249     -0.028497
     4   Atom        0.035778     -0.083028      0.047250
 --------------------------------------------------------
                        XY            XZ            YZ
 --------------------------------------------------------
     1   Atom        0.059938     -0.000000     -0.000000
     2   Atom       -0.007033     -0.002864     -0.011086
     3   Atom       -0.007033      0.002864      0.011086
     4   Atom        0.179771      0.000000      0.000000
 --------------------------------------------------------


 ---------------------------------------------------------------------------------
              Anisotropic Spin Dipole Couplings in Principal Axis System
 ---------------------------------------------------------------------------------

       Atom             a.u.   MegaHertz   Gauss  10(-4) cm-1        Axes

              Baa    -1.3271  -178.084   -63.545   -59.402 -0.0301  0.9995  0.0000
     1 C(13)  Bbb     0.6595    88.502    31.580    29.521  0.0000  0.0000  1.0000
              Bcc     0.6676    89.581    31.965    29.881  0.9995  0.0301 -0.0000
 
              Baa    -0.0310   -16.562    -5.910    -5.524  0.1798  0.1756  0.9679
     2 H(1)   Bbb    -0.0089    -4.745    -1.693    -1.583  0.9747  0.1007 -0.1993
              Bcc     0.0399    21.307     7.603     7.107 -0.1325  0.9793 -0.1531
 
              Baa    -0.0310   -16.562    -5.910    -5.524 -0.1798 -0.1756  0.9679
     3 H(1)   Bbb    -0.0089    -4.745    -1.693    -1.583  0.9747  0.1007  0.1993
              Bcc     0.0399    21.307     7.603     7.107 -0.1325  0.9793  0.1531
 
              Baa    -0.2130    15.409     5.498     5.140 -0.5858  0.8105 -0.0000
     4 O(17)  Bbb     0.0473    -3.419    -1.220    -1.140 -0.0000 -0.0000  1.0000
              Bcc     0.1657   -11.990    -4.278    -4.000  0.8105  0.5858  0.0000
 

 ---------------------------------------------------------------------------------

 No NMR shielding tensors so no spin-rotation constants.
 Leave Link  601 at Thu Mar  7 13:23:00 2019, MaxMem=    33554432 cpu:         1.3
 (Enter /home/proyectos/fulerenos/M3C-v2.0/M3C-deps_CCC/g09-AM64L-G09RevC.01/l701.exe)
 Compute integral second derivatives.
 ... and contract with generalized density number  0.
 Leave Link  701 at Thu Mar  7 13:23:01 2019, MaxMem=    33554432 cpu:         1.8
 (Enter /home/proyectos/fulerenos/M3C-v2.0/M3C-deps_CCC/g09-AM64L-G09RevC.01/l702.exe)
 L702 exits ... SP integral derivatives will be done elsewhere.
 Leave Link  702 at Thu Mar  7 13:23:01 2019, MaxMem=    33554432 cpu:         0.2
 (Enter /home/proyectos/fulerenos/M3C-v2.0/M3C-deps_CCC/g09-AM64L-G09RevC.01/l703.exe)
 Compute integral second derivatives, UseDBF=F ICtDFT=           0.
 Integral derivatives from FoFJK, PRISM(SPDF).
 Calling FoFJK, ICntrl=    100127 FMM=F ISym2X=1 I1Cent= 0 IOpClX= 1 NMat=1 NMatS=1 NMatT=0.
 FoFJK:  IHMeth= 1 ICntrl=  100127 DoSepK=F KAlg= 0 I1Cent=   0 FoldK=F
 IRaf=         0 NMat=   1 IRICut=       1 DoRegI=T DoRafI=F ISym2E= 1.
 FoFCou: FMM=F IPFlag=           0 FMFlag=      100000 FMFlg1=         800
         NFxFlg=           0 DoJE=F BraDBF=F KetDBF=F FulRan=T
         wScrn=  0.000000 ICntrl=  100127 IOpCl=  1 I1Cent=           0 NGrid=           0
         NMat0=    1 NMatS0=      1 NMatT0=    0 NMatD0=    1 NMtDS0=    0 NMtDT0=    0
 Petite list used in FoFCou.
 Leave Link  703 at Thu Mar  7 13:23:46 2019, MaxMem=    33554432 cpu:        90.3
 (Enter /home/proyectos/fulerenos/M3C-v2.0/M3C-deps_CCC/g09-AM64L-G09RevC.01/l716.exe)
 Dipole        = 6.34906726D-01-8.07329887D-01 3.50209081D-15
 Polarizability= 6.79772119D+01-1.14707504D+01 1.01469016D+02
                -1.66856602D-06 2.00430496D-06 3.74800848D+02
 Full mass-weighted force constant matrix:
 Low frequencies ---  -66.8516  -32.4629  -27.6988    0.0007    0.0010    0.0013
 Low frequencies ---  423.4654  629.0450  692.2969
 Diagonal vibrational polarizability:
       18.6474106      15.5923638      13.7287203
 Harmonic frequencies (cm**-1), IR intensities (KM/Mole), Raman scattering
 activities (A**4/AMU), depolarization ratios for plane and unpolarized
 incident light, reduced masses (AMU), force constants (mDyne/A),
 and normal coordinates:
                      1                      2                      3
                     A'                     A'                     A"
 Frequencies --    423.4652               629.0450               692.2830
 Red. masses --     10.3168                 1.1922                 1.1082
 Frc consts  --      1.0900                 0.2779                 0.3129
 IR Inten    --     71.6473               273.0616                36.0094
  Atom  AN      X      Y      Z        X      Y      Z        X      Y      Z
     1   6     0.01   0.70   0.00     0.04  -0.06   0.00    -0.00  -0.00   0.06
     2   1     0.33  -0.08  -0.08     0.45   0.54  -0.06     0.09   0.68   0.15
     3   1     0.33  -0.08   0.08     0.45   0.54   0.06    -0.09  -0.68   0.15
     4   8    -0.05  -0.51  -0.00    -0.09  -0.02  -0.00     0.00   0.00  -0.06
                      4                      5                      6
                     A'                     A"                     A'
 Frequencies --   1465.2647              3048.5256              3182.1647
 Red. masses --      1.0785                 1.0902                 1.0437
 Frc consts  --      1.3643                 5.9697                 6.2271
 IR Inten    --    100.5653              4042.7961              1375.7793
  Atom  AN      X      Y      Z        X      Y      Z        X      Y      Z
     1   6     0.01   0.00  -0.00    -0.00  -0.00   0.00     0.00   0.00   0.00
     2   1    -0.39   0.41   0.43     0.35  -0.23   0.57     0.32  -0.25   0.58
     3   1    -0.39   0.41  -0.43    -0.35   0.23   0.57     0.32  -0.25  -0.58
     4   8     0.04  -0.05   0.00     0.00   0.00  -0.07    -0.04   0.03  -0.00

 -------------------
 - Thermochemistry -
 -------------------
 Temperature   298.150 Kelvin.  Pressure   1.00000 Atm.
 Atom     1 has atomic number  6 and mass  12.00000
 Atom     2 has atomic number  1 and mass   1.00783
 Atom     3 has atomic number  1 and mass   1.00783
 Atom     4 has atomic number  8 and mass  15.99491
 Molecular mass:    30.01056 amu.
 Principal axes and moments of inertia in atomic units:
                           1         2         3
     Eigenvalues --     5.84097  77.26875  80.33732
           X           -0.04708  -0.00000   0.99889
           Y            0.99889  -0.00000   0.04708
           Z            0.00000   1.00000   0.00000
 This molecule is an asymmetric top.
 Rotational symmetry number  1.
 Rotational temperatures (Kelvin)     14.82867     1.12094     1.07813
 Rotational constants (GHZ):         308.97969    23.35668    22.46454
 Zero-point vibrational energy      56468.2 (Joules/Mol)
                                   13.49623 (Kcal/Mol)
 Warning -- explicit consideration of   1 degrees of freedom as
           vibrations may cause significant error
 Vibrational temperatures:    609.27   905.05   996.04  2108.19  4386.14
          (Kelvin)           4578.42
 
 Zero-point correction=                           0.021508 (Hartree/Particle)
 Thermal correction to Energy=                    0.024894
 Thermal correction to Enthalpy=                  0.025838
 Thermal correction to Gibbs Free Energy=        -0.001413
 Sum of electronic and zero-point Energies=           -114.316484
 Sum of electronic and thermal Energies=              -114.313098
 Sum of electronic and thermal Enthalpies=            -114.312154
 Sum of electronic and thermal Free Energies=         -114.339404
 
                     E (Thermal)             CV                S
                      KCal/Mol        Cal/Mol-Kelvin    Cal/Mol-Kelvin
 Total                   15.621              9.281             57.354
 Electronic               0.000              0.000              1.377
 Translational            0.889              2.981             36.130
 Rotational               0.889              2.981             18.234
 Vibrational             13.843              3.319              1.612
 Vibration     1          0.786              1.419              0.880
                       Q            Log10(Q)             Ln(Q)
 Total Bot       0.446513D+01          0.649834          1.496299
 Total V=0       0.348840D+11         10.542626         24.275293
 Vib (Bot)       0.160283D-09         -9.795112        -22.554078
 Vib (Bot)    1  0.413548D+00         -0.383474         -0.882981
 Vib (V=0)       0.125222D+01          0.097680          0.224916
 Vib (V=0)    1  0.114886D+01          0.060268          0.138772
 Electronic      0.200000D+01          0.301030          0.693147
 Translational   0.646199D+07          6.810366         15.681448
 Rotational      0.215551D+04          3.333550          7.675781
 
                                                              b3lyp opt
                                                             IR Spectrum
 
     3     3                                                              1                                                          
     1     0                                                              4                              6 6        4                
     8     4                                                              6                              9 2        2                
     2     9                                                              5                              2 9        3                
 
     X     X                                                              X                              X X        X                
     X     X                                                                                                                         
     X     X                                                                                                                         
     X     X                                                                                                                         
     X     X                                                                                                                         
     X     X                                                                                                                         
     X     X                                                                                                                         
           X                                                                                                                         
           X                                                                                                                         
           X                                                                                                                         
           X                                                                                                                         
           X                                                                                                                         
           X                                                                                                                         
           X                                                                                                                         
           X                                                                                                                         
           X                                                                                                                         
           X                                                                                                                         
           X                                                                                                                         
           X                                                                                                                         
           X                                                                                                                         
 
 ***** Axes restored to original set *****
 -------------------------------------------------------------------
 Center     Atomic                   Forces (Hartrees/Bohr)
 Number     Number              X              Y              Z
 -------------------------------------------------------------------
      1        6           0.000008352    0.000001183    0.000011573
      2        1           0.000002843   -0.000030381    0.000006340
      3        1          -0.000004767    0.000030279    0.000005630
      4        8          -0.000006427   -0.000001082   -0.000023542
 -------------------------------------------------------------------
 Cartesian Forces:  Max     0.000030381 RMS     0.000015123
 Z-matrix is all fixed cartesians, so copy forces.
 Force constants in Cartesian coordinates: 
                1             2             3             4             5 
      1  0.455795D-01
      2  0.482318D-02  0.939775D-02
      3  0.174736D-01  0.221048D-02  0.103236D-01
      4 -0.914482D-02 -0.457040D-02  0.206642D-03  0.907524D-01
      5 -0.114468D-01  0.700187D-02 -0.663605D-02  0.107053D+00  0.273909D+00
      6 -0.156189D-02 -0.754811D-02  0.273538D-02 -0.407298D-01 -0.797499D-01
      7 -0.119793D-01 -0.325578D-03 -0.147431D-02  0.230968D-01  0.222564D-02
      8  0.650559D-02  0.101562D-01  0.632909D-02  0.117759D-01 -0.324882D-01
      9 -0.357138D-02  0.675617D-02  0.241560D-02 -0.807708D-02  0.735571D-02
     10 -0.244554D-01  0.727962D-04 -0.162060D-01 -0.104704D+00 -0.978317D-01
     11  0.118066D-03 -0.265558D-01 -0.190352D-02 -0.114258D+00 -0.248423D+00
     12 -0.123404D-01 -0.141854D-02 -0.154746D-01  0.486002D-01  0.790302D-01
                6             7             8             9            10 
      6  0.368832D-01
      7 -0.600201D-02  0.153514D+00
      8 -0.829245D-02 -0.139342D+00  0.214477D+00
      9  0.206037D-02 -0.556308D-01  0.627161D-01  0.335546D-01
     10  0.482937D-01 -0.164631D+00  0.121061D+00  0.672793D-01  0.293791D+00
     11  0.955904D-01  0.137442D+00 -0.192145D+00 -0.768280D-01 -0.233016D-01
     12 -0.416790D-01  0.631071D-01 -0.607527D-01 -0.380305D-01 -0.993670D-01
               11            12 
     11  0.467124D+00
     12 -0.168589D-01  0.951841D-01
 Leave Link  716 at Thu Mar  7 13:23:46 2019, MaxMem=    33554432 cpu:         0.3
 (Enter /home/proyectos/fulerenos/M3C-v2.0/M3C-deps_CCC/g09-AM64L-G09RevC.01/l103.exe)

 GradGradGradGradGradGradGradGradGradGradGradGradGradGradGradGradGradGrad
 Berny optimization.
 Search for a local minimum.
 Step number   1 out of a maximum of    2
 All quantities printed in internal units (Hartrees-Bohrs-Radians)
 Second derivative matrix not updated -- analytic derivatives used.
 The second derivative matrix:
                          X1        Y1        Z1        X2        Y2
           X1           0.04558
           Y1           0.00482   0.00940
           Z1           0.01747   0.00221   0.01032
           X2          -0.00914  -0.00457   0.00021   0.09075
           Y2          -0.01145   0.00700  -0.00664   0.10705   0.27391
           Z2          -0.00156  -0.00755   0.00274  -0.04073  -0.07975
           X3          -0.01198  -0.00033  -0.00147   0.02310   0.00223
           Y3           0.00651   0.01016   0.00633   0.01178  -0.03249
           Z3          -0.00357   0.00676   0.00242  -0.00808   0.00736
           X4          -0.02446   0.00007  -0.01621  -0.10470  -0.09783
           Y4           0.00012  -0.02656  -0.00190  -0.11426  -0.24842
           Z4          -0.01234  -0.00142  -0.01547   0.04860   0.07903
                          Z2        X3        Y3        Z3        X4
           Z2           0.03688
           X3          -0.00600   0.15351
           Y3          -0.00829  -0.13934   0.21448
           Z3           0.00206  -0.05563   0.06272   0.03355
           X4           0.04829  -0.16463   0.12106   0.06728   0.29379
           Y4           0.09559   0.13744  -0.19214  -0.07683  -0.02330
           Z4          -0.04168   0.06311  -0.06075  -0.03803  -0.09937
                          Y4        Z4
           Y4           0.46712
           Z4          -0.01686   0.09518
 ITU=  0
     Eigenvalues ---    0.02920   0.03596   0.06799   0.14151   0.55828
     Eigenvalues ---    0.64180
 Angle between quadratic step and forces=  39.70 degrees.
 ClnCor:  largest displacement from symmetrization is 6.10D-12 for atom     3.
 Linear search not attempted -- first point.
 ClnCor:  largest displacement from symmetrization is 2.41D-15 for atom     1.
 B after Tr=    -0.000048   -0.000007   -0.000040
         Rot=    1.000000   -0.000001    0.000008   -0.000000 Ang=  -0.00 deg.
 Variable       Old X    -DE/DX   Delta X   Delta X   Delta X     New X
                                 (Linear)    (Quad)   (Total)
    X1        2.12883   0.00001   0.00000   0.00006   0.00001   2.12884
    Y1        0.21810   0.00000   0.00000   0.00001   0.00000   0.21810
    Z1        0.14320   0.00001   0.00000   0.00009   0.00009   0.14328
    X2       -1.50100   0.00000   0.00000   0.00012   0.00009  -1.50091
    Y2       -1.74622  -0.00003   0.00000  -0.00011  -0.00012  -1.74634
    Z2       -0.75572   0.00001   0.00000   0.00014   0.00007  -0.75565
    X3       -1.87111  -0.00000   0.00000   0.00009   0.00006  -1.87105
    Y3        1.20373   0.00003   0.00000   0.00014   0.00014   1.20387
    Z3       -0.79027   0.00001   0.00000   0.00014   0.00007  -0.79020
    X4       -0.65720  -0.00001   0.00000  -0.00013  -0.00016  -0.65736
    Y4       -0.14797  -0.00000   0.00000  -0.00002  -0.00002  -0.14799
    Z4       -1.26880  -0.00002   0.00000  -0.00018  -0.00023  -1.26903
         Item               Value     Threshold  Converged?
 Maximum Force            0.000030     0.000450     YES
 RMS     Force            0.000015     0.000300     YES
 Maximum Displacement     0.000229     0.001800     YES
 RMS     Displacement     0.000108     0.001200     YES
 Predicted change in Energy=-8.184754D-09
 Optimization completed.
    -- Stationary point found.
 GradGradGradGradGradGradGradGradGradGradGradGradGradGradGradGradGradGrad

 Leave Link  103 at Thu Mar  7 13:23:46 2019, MaxMem=    33554432 cpu:         0.1
 (Enter /home/proyectos/fulerenos/M3C-v2.0/M3C-deps_CCC/g09-AM64L-G09RevC.01/l9999.exe)

 Test job not archived.
 1\1\GINC-BERQUELIO\Freq\UB3LYP\6-311++G(3df,2p)\C1H2O1(1-,2)\NAGUIRRE\
 07-Mar-2019\0\\#p b3lyp/6-311++G(3df,2p) freq IOp(2/17=3) IOp(2/18=3)\
 \b3lyp opt\\-1,2\C,1.1265292238,0.1154142158,0.0757770209\H,-0.794297,
 -0.92406,-0.39991\H,-0.9901465546,0.6369860037,-0.4181912862\O,-0.3477
 77218,-0.0783033208,-0.671420207\\Version=EM64L-G09RevE.01\State=2-A"\
 HF=-114.3379913\S2=1.759476\S2-1=0.\S2A=0.781939\RMSD=3.025e-09\RMSF=1
 .512e-05\ZeroPoint=0.0215076\Thermal=0.0248935\Dipole=0.9989214,0.1229
 27,-0.2047757\DipoleDeriv=0.1271158,0.0325579,0.2961807,0.0330395,-0.1
 001686,0.0368237,0.3373076,0.0419836,-0.1333707,0.2082508,-0.5493773,0
 .0254011,0.9711932,-1.1997492,0.0000366,-0.1596854,0.1840717,-0.434968
 9,0.2235497,0.9131077,0.0054769,-0.6107871,-1.2192507,0.0225602,-0.093
 3096,-0.1970898,-0.4307663,-1.5589164,-0.3962884,-0.3270588,-0.3934456
 ,1.5191684,-0.0594205,-0.0843125,-0.0289654,-0.0008941\Polar=108.09879
 39,-33.378733,370.5809932,6.9877277,-2.7447256,65.5672887\PG=CS [SG(C1
 O1),X(H2)]\NImag=0\\0.04557953,0.00482318,0.00939775,0.01747363,0.0022
 1048,0.01032359,-0.00914482,-0.00457040,0.00020664,0.09075235,-0.01144
 684,0.00700187,-0.00663605,0.10705294,0.27390928,-0.00156189,-0.007548
 11,0.00273538,-0.04072980,-0.07974988,0.03688322,-0.01197935,-0.000325
 58,-0.00147431,0.02309679,0.00222564,-0.00600201,0.15351351,0.00650559
 ,0.01015618,0.00632909,0.01177593,-0.03248818,-0.00829245,-0.13934211,
 0.21447678,-0.00357138,0.00675617,0.00241560,-0.00807708,0.00735571,0.
 00206037,-0.05563081,0.06271610,0.03355456,-0.02445537,0.00007280,-0.0
 1620596,-0.10470433,-0.09783173,0.04829370,-0.16463096,0.12106059,0.06
 727927,0.29379066,0.00011807,-0.02655580,-0.00190352,-0.11425846,-0.24
 842297,0.09559044,0.13744205,-0.19214479,-0.07682798,-0.02330165,0.467
 12356,-0.01234036,-0.00141854,-0.01547458,0.04860024,0.07903022,-0.041
 67898,0.06310714,-0.06075274,-0.03803053,-0.09936701,-0.01685893,0.095
 18409\\-0.00000835,-0.00000118,-0.00001157,-0.00000284,0.00003038,-0.0
 0000634,0.00000477,-0.00003028,-0.00000563,0.00000643,0.00000108,0.000
 02354\\\@


 NOTHING MAKES A PERSON MORE PRODUCTIVE THAN THE LAST MINUTE.
 Job cpu time:       0 days  0 hours  3 minutes 29.9 seconds.
 File lengths (MBytes):  RWF=     10 Int=      0 D2E=      0 Chk=      2 Scr=      1
 Normal termination of Gaussian 09 at Thu Mar  7 13:23:47 2019.
