 Entering Gaussian System, Link 0=/home/proyectos/fulerenos/M3C-v2.0/M3C-deps_CCC/g09-AM64L-G09RevC.01/g09
 Initial command:
 /home/proyectos/fulerenos/M3C-v2.0/M3C-deps_CCC/g09-AM64L-G09RevC.01/l1.exe "/scratch/naguirre/gaussian/Gau-31337.inp" -scrdir="/scratch/naguirre/gaussian/"
 Entering Link 1 = /home/proyectos/fulerenos/M3C-v2.0/M3C-deps_CCC/g09-AM64L-G09RevC.01/l1.exe PID=     31341.
  
 Copyright (c) 1988,1990,1992,1993,1995,1998,2003,2009,2015,
            Gaussian, Inc.  All Rights Reserved.
  
 This is part of the Gaussian(R) 09 program.  It is based on
 the Gaussian(R) 03 system (copyright 2003, Gaussian, Inc.),
 the Gaussian(R) 98 system (copyright 1998, Gaussian, Inc.),
 the Gaussian(R) 94 system (copyright 1995, Gaussian, Inc.),
 the Gaussian 92(TM) system (copyright 1992, Gaussian, Inc.),
 the Gaussian 90(TM) system (copyright 1990, Gaussian, Inc.),
 the Gaussian 88(TM) system (copyright 1988, Gaussian, Inc.),
 the Gaussian 86(TM) system (copyright 1986, Carnegie Mellon
 University), and the Gaussian 82(TM) system (copyright 1983,
 Carnegie Mellon University). Gaussian is a federally registered
 trademark of Gaussian, Inc.
  
 This software contains proprietary and confidential information,
 including trade secrets, belonging to Gaussian, Inc.
  
 This software is provided under written license and may be
 used, copied, transmitted, or stored only in accord with that
 written license.
  
 The following legend is applicable only to US Government
 contracts under FAR:
  
                    RESTRICTED RIGHTS LEGEND
  
 Use, reproduction and disclosure by the US Government is
 subject to restrictions as set forth in subparagraphs (a)
 and (c) of the Commercial Computer Software - Restricted
 Rights clause in FAR 52.227-19.
  
 Gaussian, Inc.
 340 Quinnipiac St., Bldg. 40, Wallingford CT 06492
  
  
 ---------------------------------------------------------------
 Warning -- This program may not be used in any manner that
 competes with the business of Gaussian, Inc. or will provide
 assistance to any competitor of Gaussian, Inc.  The licensee
 of this program is prohibited from giving any competitor of
 Gaussian, Inc. access to this program.  By using this program,
 the user acknowledges that Gaussian, Inc. is engaged in the
 business of creating and licensing software in the field of
 computational chemistry and represents and warrants to the
 licensee that it is not a competitor of Gaussian, Inc. and that
 it will not use this program in any manner prohibited above.
 ---------------------------------------------------------------
  

 Cite this work as:
 Gaussian 09, Revision E.01,
 M. J. Frisch, G. W. Trucks, H. B. Schlegel, G. E. Scuseria, 
 M. A. Robb, J. R. Cheeseman, G. Scalmani, V. Barone, B. Mennucci, 
 G. A. Petersson, H. Nakatsuji, M. Caricato, X. Li, H. P. Hratchian, 
 A. F. Izmaylov, J. Bloino, G. Zheng, J. L. Sonnenberg, M. Hada, 
 M. Ehara, K. Toyota, R. Fukuda, J. Hasegawa, M. Ishida, T. Nakajima, 
 Y. Honda, O. Kitao, H. Nakai, T. Vreven, J. A. Montgomery, Jr., 
 J. E. Peralta, F. Ogliaro, M. Bearpark, J. J. Heyd, E. Brothers, 
 K. N. Kudin, V. N. Staroverov, T. Keith, R. Kobayashi, J. Normand, 
 K. Raghavachari, A. Rendell, J. C. Burant, S. S. Iyengar, J. Tomasi, 
 M. Cossi, N. Rega, J. M. Millam, M. Klene, J. E. Knox, J. B. Cross, 
 V. Bakken, C. Adamo, J. Jaramillo, R. Gomperts, R. E. Stratmann, 
 O. Yazyev, A. J. Austin, R. Cammi, C. Pomelli, J. W. Ochterski, 
 R. L. Martin, K. Morokuma, V. G. Zakrzewski, G. A. Voth, 
 P. Salvador, J. J. Dannenberg, S. Dapprich, A. D. Daniels, 
 O. Farkas, J. B. Foresman, J. V. Ortiz, J. Cioslowski, 
 and D. J. Fox, Gaussian, Inc., Wallingford CT, 2013.
 
 ******************************************
 Gaussian 09:  EM64L-G09RevE.01 30-Nov-2015
                 7-Mar-2019 
 ******************************************
 %NProcShared=2
 Will use up to    2 processors via shared memory.
 ------------------------------------------------------
 #p b3lyp/6-311++G(3df,2p) freq IOp(2/17=3) IOp(2/18=3)
 ------------------------------------------------------
 1/10=4,30=1,38=1/1,3;
 2/12=2,17=3,18=3,40=1/2;
 3/5=4,6=6,7=1216,11=2,16=1,25=1,30=1,71=2,74=-5,140=1/1,2,3;
 4//1;
 5/5=2,38=5,98=1/2;
 8/6=4,10=90,11=11/1;
 11/6=1,8=1,9=11,15=111,16=1/1,2,10;
 10/6=1/2;
 6/7=2,8=2,9=2,10=2,18=1,28=1/1;
 7/8=1,10=1,25=1/1,2,3,16;
 1/10=4,30=1/3;
 99//99;
 Leave Link    1 at Thu Mar  7 13:30:42 2019, MaxMem=           0 cpu:         0.1
 (Enter /home/proyectos/fulerenos/M3C-v2.0/M3C-deps_CCC/g09-AM64L-G09RevC.01/l101.exe)
 ---------
 b3lyp opt
 ---------
 Symbolic Z-matrix:
 Charge = -1 Multiplicity = 2
 H                    -0.71852   0.78835   0. 
 H                    -1.0101   -0.70732   0. 
 O                    -0.26687  -0.07597   0. 
 
 NAtoms=      3 NQM=        3 NQMF=       0 NMMI=      0 NMMIF=      0
                NMic=       0 NMicF=      0.
                    Isotopes and Nuclear Properties:
 (Nuclear quadrupole moments (NQMom) in fm**2, nuclear magnetic moments (NMagM)
  in nuclear magnetons)

  Atom         1           2           3
 IAtWgt=           1           1          16
 AtmWgt=   1.0078250   1.0078250  15.9949146
 NucSpn=           1           1           0
 AtZEff=   0.0000000   0.0000000   0.0000000
 NQMom=    0.0000000   0.0000000   0.0000000
 NMagM=    2.7928460   2.7928460   0.0000000
 AtZNuc=   1.0000000   1.0000000   8.0000000
 Leave Link  101 at Thu Mar  7 13:30:42 2019, MaxMem=    33554432 cpu:         0.4
 (Enter /home/proyectos/fulerenos/M3C-v2.0/M3C-deps_CCC/g09-AM64L-G09RevC.01/l103.exe)

 GradGradGradGradGradGradGradGradGradGradGradGradGradGradGradGradGradGrad
 Berny optimization.
 Initialization pass.
 Trust Radius=3.00D-01 FncErr=1.00D-07 GrdErr=1.00D-07
 Number of steps in this run=      2 maximum allowed number of steps=      2.
 GradGradGradGradGradGradGradGradGradGradGradGradGradGradGradGradGradGrad

 Leave Link  103 at Thu Mar  7 13:30:42 2019, MaxMem=    33554432 cpu:         0.1
 (Enter /home/proyectos/fulerenos/M3C-v2.0/M3C-deps_CCC/g09-AM64L-G09RevC.01/l202.exe)
                          Input orientation:                          
 ---------------------------------------------------------------------
 Center     Atomic      Atomic             Coordinates (Angstroms)
 Number     Number       Type             X           Y           Z
 ---------------------------------------------------------------------
      1          1           0       -0.718523    0.788348    0.000000
      2          1           0       -1.010103   -0.707324    0.000000
      3          8           0       -0.266865   -0.075966    0.000000
 ---------------------------------------------------------------------
                    Distance matrix (angstroms):
                    1          2          3
     1  H    0.000000
     2  H    1.523829   0.000000
     3  O    0.975210   0.975200   0.000000
 Stoichiometry    H2O(1-,2)
 Framework group  C2V[C2(O),SGV(H2)]
 Deg. of freedom     2
 Full point group                 C2V     NOp   4
 Largest Abelian subgroup         C2V     NOp   4
 Largest concise Abelian subgroup C2      NOp   2
                         Standard orientation:                         
 ---------------------------------------------------------------------
 Center     Atomic      Atomic             Coordinates (Angstroms)
 Number     Number       Type             X           Y           Z
 ---------------------------------------------------------------------
      1          1           0       -0.000000    0.761924   -0.486949
      2          1           0       -0.000000   -0.761924   -0.486949
      3          8           0        0.000000    0.000000    0.121739
 ---------------------------------------------------------------------
 Rotational constants (GHZ):    762.0036950    431.8956227    275.6564607
 Leave Link  202 at Thu Mar  7 13:30:43 2019, MaxMem=    33554432 cpu:         0.0
 (Enter /home/proyectos/fulerenos/M3C-v2.0/M3C-deps_CCC/g09-AM64L-G09RevC.01/l301.exe)
 Standard basis: 6-311++G(3df,2p) (5D, 7F)
 Ernie: Thresh=  0.10000D-02 Tol=  0.10000D-05 Strict=F.
 There are    29 symmetry adapted cartesian basis functions of A1  symmetry.
 There are     6 symmetry adapted cartesian basis functions of A2  symmetry.
 There are    12 symmetry adapted cartesian basis functions of B1  symmetry.
 There are    18 symmetry adapted cartesian basis functions of B2  symmetry.
 There are    25 symmetry adapted basis functions of A1  symmetry.
 There are     6 symmetry adapted basis functions of A2  symmetry.
 There are    11 symmetry adapted basis functions of B1  symmetry.
 There are    17 symmetry adapted basis functions of B2  symmetry.
    59 basis functions,    82 primitive gaussians,    65 cartesian basis functions
     6 alpha electrons        5 beta electrons
       nuclear repulsion energy         9.0293484009 Hartrees.
 IExCor=  402 DFT=T Ex+Corr=B3LYP ExCW=0 ScaHFX=  0.200000
 ScaDFX=  0.800000  0.720000  1.000000  0.810000 ScalE2=  1.000000  1.000000
 IRadAn=      0 IRanWt=     -1 IRanGd=            0 ICorTp=0 IEmpDi=  4
 NAtoms=    3 NActive=    3 NUniq=    2 SFac= 2.25D+00 NAtFMM=   60 NAOKFM=F Big=F
 Integral buffers will be    131072 words long.
 Raffenetti 2 integral format.
 Two-electron integral symmetry is turned on.
 Leave Link  301 at Thu Mar  7 13:30:43 2019, MaxMem=    33554432 cpu:         0.4
 (Enter /home/proyectos/fulerenos/M3C-v2.0/M3C-deps_CCC/g09-AM64L-G09RevC.01/l302.exe)
 NPDir=0 NMtPBC=     1 NCelOv=     1 NCel=       1 NClECP=     1 NCelD=      1
         NCelK=      1 NCelE2=     1 NClLst=     1 CellRange=     0.0.
 One-electron integrals computed using PRISM.
 One-electron integral symmetry used in STVInt
 NBasis=    59 RedAO= T EigKep=  1.43D-03  NBF=    25     6    11    17
 NBsUse=    59 1.00D-06 EigRej= -1.00D+00 NBFU=    25     6    11    17
 Precomputing XC quadrature grid using
 IXCGrd= 4 IRadAn=           0 IRanWt=          -1 IRanGd=           0 AccXCQ= 0.00D+00.
 Generated NRdTot=       0 NPtTot=           0 NUsed=           0 NTot=          32
 NSgBfM=    65    65    65    65    65 MxSgAt=     3 MxSgA2=     3.
 Leave Link  302 at Thu Mar  7 13:30:43 2019, MaxMem=    33554432 cpu:         0.7
 (Enter /home/proyectos/fulerenos/M3C-v2.0/M3C-deps_CCC/g09-AM64L-G09RevC.01/l303.exe)
 DipDrv:  MaxL=1.
 Leave Link  303 at Thu Mar  7 13:30:43 2019, MaxMem=    33554432 cpu:         0.1
 (Enter /home/proyectos/fulerenos/M3C-v2.0/M3C-deps_CCC/g09-AM64L-G09RevC.01/l401.exe)
 ExpMin= 3.60D-02 ExpMax= 8.59D+03 ExpMxC= 1.30D+03 IAcc=3 IRadAn=         5 AccDes= 0.00D+00
 Harris functional with IExCor=  402 and IRadAn=       5 diagonalized for initial guess.
 HarFok:  IExCor=  402 AccDes= 0.00D+00 IRadAn=         5 IDoV= 1 UseB2=F ITyADJ=14
 ICtDFT=  3500011 ScaDFX=  1.000000  1.000000  1.000000  1.000000
 FoFCou: FMM=F IPFlag=           0 FMFlag=      100000 FMFlg1=           0
         NFxFlg=           0 DoJE=T BraDBF=F KetDBF=T FulRan=T
         wScrn=  0.000000 ICntrl=     500 IOpCl=  0 I1Cent=   200000004 NGrid=           0
         NMat0=    1 NMatS0=      1 NMatT0=    0 NMatD0=    1 NMtDS0=    0 NMtDT0=    0
 Petite list used in FoFCou.
 Harris En= -76.5517014457211    
 JPrj=0 DoOrth=F DoCkMO=F.
 Initial guess orbital symmetries:
 Alpha Orbitals:
       Occupied  (A1) (A1) (B2) (A1) (B1) (A1)
       Virtual   (B2) (A1) (B2) (B1) (A1) (B2) (A1) (B2) (A1) (A1)
                 (A2) (B1) (A1) (B2) (B1) (A1) (B2) (A2) (B1) (B2)
                 (A1) (A1) (B2) (A1) (A1) (B2) (A2) (A1) (B1) (B2)
                 (A1) (B2) (B1) (A2) (A1) (A1) (B2) (B1) (B1) (A1)
                 (B2) (A1) (B1) (A2) (B2) (A1) (B2) (B1) (A2) (A1)
                 (A1) (B2) (A1)
 Beta  Orbitals:
       Occupied  (A1) (A1) (B2) (A1) (B1)
       Virtual   (A1) (B2) (A1) (B2) (B1) (A1) (B2) (A1) (B2) (A1)
                 (A1) (A2) (B1) (A1) (B2) (B1) (A1) (B2) (A2) (B1)
                 (B2) (A1) (A1) (B2) (A1) (A1) (B2) (A2) (A1) (B1)
                 (B2) (A1) (B2) (B1) (A2) (A1) (A1) (B2) (B1) (B1)
                 (A1) (B2) (A1) (B1) (A2) (B2) (A1) (B2) (B1) (A2)
                 (A1) (A1) (B2) (A1)
 The electronic state of the initial guess is 2-A1.
 Initial guess <Sx>= 0.0000 <Sy>= 0.0000 <Sz>= 0.5000 <S**2>= 0.7500 S= 0.5000
 Leave Link  401 at Thu Mar  7 13:30:44 2019, MaxMem=    33554432 cpu:         0.8
 (Enter /home/proyectos/fulerenos/M3C-v2.0/M3C-deps_CCC/g09-AM64L-G09RevC.01/l502.exe)
 UHF open shell SCF:
 Using DIIS extrapolation, IDIIS=  1040.
 Integral symmetry usage will be decided dynamically.
 Keep R1 and R2 ints in memory in symmetry-blocked form, NReq=3562147.
 IVT=       32225 IEndB=       32225 NGot=    33554432 MDV=    32699149
 LenX=    32699149 LenY=    32694483
 Requested convergence on RMS density matrix=1.00D-08 within 128 cycles.
 Requested convergence on MAX density matrix=1.00D-06.
 Requested convergence on             energy=1.00D-06.
 No special actions if energy rises.
 FoFCou: FMM=F IPFlag=           0 FMFlag=           0 FMFlg1=           0
         NFxFlg=           0 DoJE=F BraDBF=F KetDBF=F FulRan=T
         wScrn=  0.000000 ICntrl=     600 IOpCl=  0 I1Cent=           0 NGrid=           0
         NMat0=    1 NMatS0=   1770 NMatT0=    0 NMatD0=    1 NMtDS0=    0 NMtDT0=    0
 Petite list used in FoFCou.

 Cycle   1  Pass 1  IDiag  1:
 E= -76.3056291582669    
 DIIS: error= 8.60D-02 at cycle   1 NSaved=   1.
 NSaved= 1 IEnMin= 1 EnMin= -76.3056291582669     IErMin= 1 ErrMin= 8.60D-02
 ErrMax= 8.60D-02  0.00D+00 EMaxC= 1.00D-01 BMatC= 6.30D-01 BMatP= 6.30D-01
 IDIUse=3 WtCom= 1.40D-01 WtEn= 8.60D-01
 Coeff-Com:  0.100D+01
 Coeff-En:   0.100D+01
 Coeff:      0.100D+01
 Gap=     0.054 Goal=   None    Shift=    0.000
 Gap=     0.050 Goal=   None    Shift=    0.000
 GapD=    0.050 DampG=0.500 DampE=0.500 DampFc=0.2500 IDamp=-1.
 Damping current iteration by 2.50D-01
 RMSDP=2.44D-02 MaxDP=8.53D-01              OVMax= 4.23D-01

 Cycle   2  Pass 1  IDiag  1:
 E= -76.3476826078148     Delta-E=       -0.042053449548 Rises=F Damp=T
 DIIS: error= 2.02D-02 at cycle   2 NSaved=   2.
 NSaved= 2 IEnMin= 2 EnMin= -76.3476826078148     IErMin= 2 ErrMin= 2.02D-02
 ErrMax= 2.02D-02  0.00D+00 EMaxC= 1.00D-01 BMatC= 4.60D-02 BMatP= 6.30D-01
 IDIUse=3 WtCom= 7.98D-01 WtEn= 2.02D-01
 Coeff-Com: -0.330D+00 0.133D+01
 Coeff-En:   0.367D-01 0.963D+00
 Coeff:     -0.256D+00 0.126D+01
 Gap=     0.061 Goal=   None    Shift=    0.000
 Gap=     0.206 Goal=   None    Shift=    0.000
 RMSDP=1.09D-02 MaxDP=3.00D-01 DE=-4.21D-02 OVMax= 2.53D-01

 Cycle   3  Pass 1  IDiag  1:
 E= -76.4362389331149     Delta-E=       -0.088556325300 Rises=F Damp=F
 DIIS: error= 3.63D-03 at cycle   3 NSaved=   3.
 NSaved= 3 IEnMin= 3 EnMin= -76.4362389331149     IErMin= 3 ErrMin= 3.63D-03
 ErrMax= 3.63D-03  0.00D+00 EMaxC= 1.00D-01 BMatC= 1.28D-03 BMatP= 4.60D-02
 IDIUse=3 WtCom= 9.64D-01 WtEn= 3.63D-02
 Coeff-Com:  0.234D-01 0.126D-01 0.964D+00
 Coeff-En:   0.000D+00 0.000D+00 0.100D+01
 Coeff:      0.226D-01 0.122D-01 0.965D+00
 Gap=     0.057 Goal=   None    Shift=    0.000
 Gap=     0.249 Goal=   None    Shift=    0.000
 RMSDP=1.80D-03 MaxDP=3.57D-02 DE=-8.86D-02 OVMax= 2.75D-02

 Cycle   4  Pass 1  IDiag  1:
 E= -76.4367149913417     Delta-E=       -0.000476058227 Rises=F Damp=F
 DIIS: error= 1.03D-03 at cycle   4 NSaved=   4.
 NSaved= 4 IEnMin= 4 EnMin= -76.4367149913417     IErMin= 4 ErrMin= 1.03D-03
 ErrMax= 1.03D-03  0.00D+00 EMaxC= 1.00D-01 BMatC= 8.13D-05 BMatP= 1.28D-03
 IDIUse=3 WtCom= 9.90D-01 WtEn= 1.03D-02
 Coeff-Com:  0.193D-01-0.426D-01 0.159D+00 0.865D+00
 Coeff-En:   0.000D+00 0.000D+00 0.000D+00 0.100D+01
 Coeff:      0.191D-01-0.422D-01 0.157D+00 0.866D+00
 Gap=     0.056 Goal=   None    Shift=    0.000
 Gap=     0.251 Goal=   None    Shift=    0.000
 RMSDP=6.54D-04 MaxDP=1.59D-02 DE=-4.76D-04 OVMax= 8.91D-03

 Cycle   5  Pass 1  IDiag  1:
 E= -76.4367546805453     Delta-E=       -0.000039689204 Rises=F Damp=F
 DIIS: error= 3.18D-04 at cycle   5 NSaved=   5.
 NSaved= 5 IEnMin= 5 EnMin= -76.4367546805453     IErMin= 5 ErrMin= 3.18D-04
 ErrMax= 3.18D-04  0.00D+00 EMaxC= 1.00D-01 BMatC= 7.20D-06 BMatP= 8.13D-05
 IDIUse=3 WtCom= 9.97D-01 WtEn= 3.18D-03
 Coeff-Com:  0.748D-03-0.237D-02-0.535D-01 0.895D-01 0.966D+00
 Coeff-En:   0.000D+00 0.000D+00 0.000D+00 0.000D+00 0.100D+01
 Coeff:      0.746D-03-0.236D-02-0.534D-01 0.892D-01 0.966D+00
 Gap=     0.056 Goal=   None    Shift=    0.000
 Gap=     0.252 Goal=   None    Shift=    0.000
 RMSDP=2.85D-04 MaxDP=1.01D-02 DE=-3.97D-05 OVMax= 1.98D-03

 Cycle   6  Pass 1  IDiag  1:
 E= -76.4367575557872     Delta-E=       -0.000002875242 Rises=F Damp=F
 DIIS: error= 1.29D-04 at cycle   6 NSaved=   6.
 NSaved= 6 IEnMin= 6 EnMin= -76.4367575557872     IErMin= 6 ErrMin= 1.29D-04
 ErrMax= 1.29D-04  0.00D+00 EMaxC= 1.00D-01 BMatC= 7.16D-07 BMatP= 7.20D-06
 IDIUse=3 WtCom= 9.99D-01 WtEn= 1.29D-03
 Coeff-Com: -0.227D-02 0.408D-02-0.648D-02-0.206D-01 0.113D-01 0.101D+01
 Coeff-En:   0.000D+00 0.000D+00 0.000D+00 0.000D+00 0.000D+00 0.100D+01
 Coeff:     -0.227D-02 0.408D-02-0.647D-02-0.206D-01 0.113D-01 0.101D+01
 Gap=     0.056 Goal=   None    Shift=    0.000
 Gap=     0.252 Goal=   None    Shift=    0.000
 RMSDP=7.42D-05 MaxDP=3.16D-03 DE=-2.88D-06 OVMax= 3.76D-04

 Cycle   7  Pass 1  IDiag  1:
 E= -76.4367577535767     Delta-E=       -0.000000197789 Rises=F Damp=F
 DIIS: error= 2.88D-05 at cycle   7 NSaved=   7.
 NSaved= 7 IEnMin= 7 EnMin= -76.4367577535767     IErMin= 7 ErrMin= 2.88D-05
 ErrMax= 2.88D-05  0.00D+00 EMaxC= 1.00D-01 BMatC= 2.89D-08 BMatP= 7.16D-07
 IDIUse=1 WtCom= 1.00D+00 WtEn= 0.00D+00
 Coeff-Com:  0.228D-03-0.481D-03 0.616D-03 0.291D-02-0.621D-02-0.319D+00
 Coeff-Com:  0.132D+01
 Coeff:      0.228D-03-0.481D-03 0.616D-03 0.291D-02-0.621D-02-0.319D+00
 Coeff:      0.132D+01
 Gap=     0.056 Goal=   None    Shift=    0.000
 Gap=     0.252 Goal=   None    Shift=    0.000
 RMSDP=1.87D-05 MaxDP=7.83D-04 DE=-1.98D-07 OVMax= 1.04D-04

 Cycle   8  Pass 1  IDiag  1:
 E= -76.4367577653117     Delta-E=       -0.000000011735 Rises=F Damp=F
 DIIS: error= 6.08D-06 at cycle   8 NSaved=   8.
 NSaved= 8 IEnMin= 8 EnMin= -76.4367577653117     IErMin= 8 ErrMin= 6.08D-06
 ErrMax= 6.08D-06  0.00D+00 EMaxC= 1.00D-01 BMatC= 1.71D-09 BMatP= 2.89D-08
 IDIUse=1 WtCom= 1.00D+00 WtEn= 0.00D+00
 Coeff-Com:  0.145D-03-0.239D-03 0.508D-03 0.747D-03-0.448D-02-0.388D-02
 Coeff-Com: -0.115D+00 0.112D+01
 Coeff:      0.145D-03-0.239D-03 0.508D-03 0.747D-03-0.448D-02-0.388D-02
 Coeff:     -0.115D+00 0.112D+01
 Gap=     0.056 Goal=   None    Shift=    0.000
 Gap=     0.252 Goal=   None    Shift=    0.000
 RMSDP=7.18D-07 MaxDP=1.33D-05 DE=-1.17D-08 OVMax= 1.18D-05

 Cycle   9  Pass 1  IDiag  1:
 E= -76.4367577658423     Delta-E=       -0.000000000531 Rises=F Damp=F
 DIIS: error= 1.07D-06 at cycle   9 NSaved=   9.
 NSaved= 9 IEnMin= 9 EnMin= -76.4367577658423     IErMin= 9 ErrMin= 1.07D-06
 ErrMax= 1.07D-06  0.00D+00 EMaxC= 1.00D-01 BMatC= 8.07D-11 BMatP= 1.71D-09
 IDIUse=1 WtCom= 1.00D+00 WtEn= 0.00D+00
 Coeff-Com: -0.551D-05 0.798D-05 0.723D-04-0.324D-03 0.514D-03 0.141D-01
 Coeff-Com: -0.388D-01-0.180D+00 0.120D+01
 Coeff:     -0.551D-05 0.798D-05 0.723D-04-0.324D-03 0.514D-03 0.141D-01
 Coeff:     -0.388D-01-0.180D+00 0.120D+01
 Gap=     0.056 Goal=   None    Shift=    0.000
 Gap=     0.252 Goal=   None    Shift=    0.000
 RMSDP=8.91D-07 MaxDP=3.55D-05 DE=-5.31D-10 OVMax= 5.31D-06

 Cycle  10  Pass 1  IDiag  1:
 E= -76.4367577658697     Delta-E=       -0.000000000027 Rises=F Damp=F
 DIIS: error= 1.27D-07 at cycle  10 NSaved=  10.
 NSaved=10 IEnMin=10 EnMin= -76.4367577658697     IErMin=10 ErrMin= 1.27D-07
 ErrMax= 1.27D-07  0.00D+00 EMaxC= 1.00D-01 BMatC= 6.52D-13 BMatP= 8.07D-11
 IDIUse=1 WtCom= 1.00D+00 WtEn= 0.00D+00
 Coeff-Com: -0.243D-05 0.407D-05-0.210D-04 0.367D-04 0.795D-04-0.114D-02
 Coeff-Com:  0.302D-02 0.903D-02-0.129D+00 0.112D+01
 Coeff:     -0.243D-05 0.407D-05-0.210D-04 0.367D-04 0.795D-04-0.114D-02
 Coeff:      0.302D-02 0.903D-02-0.129D+00 0.112D+01
 Gap=     0.056 Goal=   None    Shift=    0.000
 Gap=     0.252 Goal=   None    Shift=    0.000
 RMSDP=1.01D-07 MaxDP=5.11D-06 DE=-2.74D-11 OVMax= 2.71D-07

 Cycle  11  Pass 1  IDiag  1:
 E= -76.4367577658698     Delta-E=       -0.000000000000 Rises=F Damp=F
 DIIS: error= 2.74D-08 at cycle  11 NSaved=  11.
 NSaved=11 IEnMin=11 EnMin= -76.4367577658698     IErMin=11 ErrMin= 2.74D-08
 ErrMax= 2.74D-08  0.00D+00 EMaxC= 1.00D-01 BMatC= 3.70D-14 BMatP= 6.52D-13
 IDIUse=1 WtCom= 1.00D+00 WtEn= 0.00D+00
 Coeff-Com:  0.115D-06-0.266D-06 0.922D-07-0.291D-06-0.999D-05-0.272D-04
 Coeff-Com: -0.206D-03 0.237D-02-0.114D-02-0.197D+00 0.120D+01
 Coeff:      0.115D-06-0.266D-06 0.922D-07-0.291D-06-0.999D-05-0.272D-04
 Coeff:     -0.206D-03 0.237D-02-0.114D-02-0.197D+00 0.120D+01
 Gap=     0.056 Goal=   None    Shift=    0.000
 Gap=     0.252 Goal=   None    Shift=    0.000
 RMSDP=9.81D-09 MaxDP=4.82D-07 DE=-1.42D-13 OVMax= 9.81D-08

 SCF Done:  E(UB3LYP) =  -76.4367577659     A.U. after   11 cycles
            NFock= 11  Conv=0.98D-08     -V/T= 2.0023
 <Sx>= 0.0000 <Sy>= 0.0000 <Sz>= 0.5000 <S**2>= 0.7501 S= 0.5001
 <L.S>= 0.000000000000E+00
 KE= 7.626289305577D+01 PE=-2.009984098113D+02 EE= 3.926941058873D+01
 Annihilation of the first spin contaminant:
 S**2 before annihilation     0.7501,   after     0.7500
 Leave Link  502 at Thu Mar  7 13:30:45 2019, MaxMem=    33554432 cpu:         3.2
 (Enter /home/proyectos/fulerenos/M3C-v2.0/M3C-deps_CCC/g09-AM64L-G09RevC.01/l801.exe)
 DoSCS=F DFT=T ScalE2(SS,OS)=  1.000000  1.000000
 Range of M.O.s used for correlation:     1    59
 NBasis=    59 NAE=     6 NBE=     5 NFC=     0 NFV=     0
 NROrb=     59 NOA=     6 NOB=     5 NVA=    53 NVB=    54

 **** Warning!!: The largest alpha MO coefficient is  0.14463138D+02


 **** Warning!!: The smallest alpha delta epsilon is  0.56055248D-01


 **** Warning!!: The largest beta MO coefficient is  0.14505134D+02

 Leave Link  801 at Thu Mar  7 13:30:45 2019, MaxMem=    33554432 cpu:         0.1
 (Enter /home/proyectos/fulerenos/M3C-v2.0/M3C-deps_CCC/g09-AM64L-G09RevC.01/l1101.exe)
 Using compressed storage, NAtomX=     3.
 Will process      4 centers per pass.
 Leave Link 1101 at Thu Mar  7 13:30:46 2019, MaxMem=    33554432 cpu:         0.6
 (Enter /home/proyectos/fulerenos/M3C-v2.0/M3C-deps_CCC/g09-AM64L-G09RevC.01/l1102.exe)
 Symmetrizing basis deriv contribution to polar:
 IMax=3 JMax=2 DiffMx= 0.00D+00
 Leave Link 1102 at Thu Mar  7 13:30:46 2019, MaxMem=    33554432 cpu:         0.1
 (Enter /home/proyectos/fulerenos/M3C-v2.0/M3C-deps_CCC/g09-AM64L-G09RevC.01/l1110.exe)
 Forming Gx(P) for the SCF density, NAtomX=     3.
 Integral derivatives from FoFJK, PRISM(SPDF).
 Do as many integral derivatives as possible in FoFJK.
 G2DrvN: MDV=      33554304.
 G2DrvN: will do     4 centers at a time, making    1 passes.
 Calling FoFCou, ICntrl=  3107 FMM=F I1Cent=   0 AccDes= 0.00D+00.
 FoFJK:  IHMeth= 1 ICntrl=    3107 DoSepK=F KAlg= 0 I1Cent=   0 FoldK=F
 IRaf=         0 NMat=   1 IRICut=       1 DoRegI=T DoRafI=F ISym2E= 1.
 FoFCou: FMM=F IPFlag=           0 FMFlag=      100000 FMFlg1=           0
         NFxFlg=           0 DoJE=F BraDBF=F KetDBF=F FulRan=T
         wScrn=  0.000000 ICntrl=    3107 IOpCl=  1 I1Cent=           0 NGrid=           0
         NMat0=    1 NMatS0=      1 NMatT0=    0 NMatD0=    1 NMtDS0=    0 NMtDT0=    0
 Petite list used in FoFCou.
 End of G2Drv F.D. properties file   721 does not exist.
 End of G2Drv F.D. properties file   722 does not exist.
 End of G2Drv F.D. properties file   788 does not exist.
 Leave Link 1110 at Thu Mar  7 13:30:48 2019, MaxMem=    33554432 cpu:         3.9
 (Enter /home/proyectos/fulerenos/M3C-v2.0/M3C-deps_CCC/g09-AM64L-G09RevC.01/l1002.exe)
 Minotr:  UHF open shell wavefunction.
          IDoAtm=111
          Direct CPHF calculation.
          Differentiating once with respect to electric field.
                with respect to dipole field.
          Differentiating once with respect to nuclear coordinates.
          Using symmetry in CPHF.
          Requested convergence is 1.0D-08 RMS, and 1.0D-07 maximum.
          Secondary convergence is 1.0D-12 RMS, and 1.0D-12 maximum.
          NewPWx=T KeepS1=F KeepF1=F KeepIn=T MapXYZ=F SortEE=F KeepMc=T.
          MDV=      33554280 using IRadAn=       2.
 Generate precomputed XC quadrature information.
 Keep R1 and R2 ints in memory in symmetry-blocked form, NReq=3540330.
 FoFCou: FMM=F IPFlag=           0 FMFlag=           0 FMFlg1=           0
         NFxFlg=           0 DoJE=F BraDBF=F KetDBF=F FulRan=T
         wScrn=  0.000000 ICntrl=     600 IOpCl=  0 I1Cent=           0 NGrid=           0
         NMat0=    1 NMatS0=   1770 NMatT0=    0 NMatD0=    1 NMtDS0=    0 NMtDT0=    0
 Petite list used in FoFCou.
          Solving linear equations simultaneously, MaxMat=       0.
          There are     9 degrees of freedom in the 1st order CPHF.  IDoFFX=4 NUNeed=     9.
      9 vectors produced by pass  0 Test12= 6.53D-15 1.11D-08 XBig12= 3.72D+03 6.09D+01.
 AX will form     9 AO Fock derivatives at one time.
      9 vectors produced by pass  1 Test12= 6.53D-15 1.11D-08 XBig12= 8.81D+01 4.01D+00.
      9 vectors produced by pass  2 Test12= 6.53D-15 1.11D-08 XBig12= 3.27D-01 2.42D-01.
      9 vectors produced by pass  3 Test12= 6.53D-15 1.11D-08 XBig12= 1.16D-03 1.55D-02.
      9 vectors produced by pass  4 Test12= 6.53D-15 1.11D-08 XBig12= 1.35D-05 1.22D-03.
      9 vectors produced by pass  5 Test12= 6.53D-15 1.11D-08 XBig12= 1.70D-07 1.51D-04.
      6 vectors produced by pass  6 Test12= 6.53D-15 1.11D-08 XBig12= 1.66D-09 2.27D-05.
      3 vectors produced by pass  7 Test12= 6.53D-15 1.11D-08 XBig12= 3.31D-12 5.83D-07.
      1 vectors produced by pass  8 Test12= 6.53D-15 1.11D-08 XBig12= 7.29D-15 1.87D-08.
 InvSVY:  IOpt=1 It=  1 EMax= 1.42D-14
 Solved reduced A of dimension    64 with     9 vectors.
 FullF1:  Do perturbations    1 to     9.
 Isotropic polarizability for W=    0.000000      216.33 Bohr**3.
 End of Minotr F.D. properties file   721 does not exist.
 End of Minotr F.D. properties file   722 does not exist.
 End of Minotr F.D. properties file   788 does not exist.
 Leave Link 1002 at Thu Mar  7 13:30:54 2019, MaxMem=    33554432 cpu:        12.3
 (Enter /home/proyectos/fulerenos/M3C-v2.0/M3C-deps_CCC/g09-AM64L-G09RevC.01/l601.exe)
 Copying SCF densities to generalized density rwf, IOpCl= 1 IROHF=0.

 **********************************************************************

            Population analysis using the SCF density.

 **********************************************************************

 Orbital symmetries:
 Alpha Orbitals:
       Occupied  (A1) (A1) (B2) (A1) (B1) (A1)
       Virtual   (B2) (A1) (A1) (B1) (B2) (B2) (A1) (B2) (A1) (A1)
                 (A2) (B1) (A1) (B2) (B1) (B2) (A1) (A2) (B1) (B2)
                 (A1) (A1) (B2) (A1) (A1) (B2) (A2) (A1) (B1) (B2)
                 (A1) (B2) (B1) (A2) (A1) (A1) (B2) (B1) (B1) (A1)
                 (B2) (A1) (B1) (A2) (B2) (A1) (B2) (B1) (A2) (A1)
                 (A1) (B2) (A1)
 Beta  Orbitals:
       Occupied  (A1) (A1) (B2) (A1) (B1)
       Virtual   (A1) (B2) (A1) (A1) (B1) (B2) (B2) (A1) (B2) (A1)
                 (A1) (A2) (B1) (A1) (B2) (B1) (A1) (B2) (A2) (B1)
                 (B2) (A1) (A1) (B2) (A1) (A1) (B2) (A2) (A1) (B1)
                 (B2) (A1) (B2) (B1) (A2) (A1) (A1) (B2) (B1) (B1)
                 (A1) (B2) (A1) (B1) (A2) (B2) (A1) (B2) (B1) (A2)
                 (A1) (A1) (B2) (A1)
 The electronic state is 2-A1.
 Alpha  occ. eigenvalues --  -18.93228  -0.81430  -0.32889  -0.20535  -0.12430
 Alpha  occ. eigenvalues --    0.08062
 Alpha virt. eigenvalues --    0.13667   0.28779   0.29681   0.30690   0.30924
 Alpha virt. eigenvalues --    0.36285   0.38269   0.65616   0.70476   0.78623
 Alpha virt. eigenvalues --    0.82352   0.86735   1.06396   1.07144   1.16963
 Alpha virt. eigenvalues --    1.18672   1.19091   1.30718   1.35404   1.37603
 Alpha virt. eigenvalues --    1.45395   1.58533   1.76167   1.92982   2.82590
 Alpha virt. eigenvalues --    2.83574   3.26426   3.27903   3.35621   3.53151
 Alpha virt. eigenvalues --    3.56661   3.83216   4.13513   4.17742   4.37913
 Alpha virt. eigenvalues --    4.70895   4.93642   5.17818   5.19254   5.33317
 Alpha virt. eigenvalues --    5.43712   5.55446   5.63855   5.77776   5.87256
 Alpha virt. eigenvalues --    7.04791   7.15206  14.50197  14.52153  14.57278
 Alpha virt. eigenvalues --   14.78968  15.25658  50.14394
  Beta  occ. eigenvalues --  -18.93046  -0.80942  -0.32648  -0.20246  -0.12240
  Beta virt. eigenvalues --    0.12948   0.15965   0.29995   0.30656   0.31346
  Beta virt. eigenvalues --    0.32088   0.36848   0.39060   0.66555   0.71452
  Beta virt. eigenvalues --    0.79006   0.82661   0.86972   1.06852   1.07676
  Beta virt. eigenvalues --    1.17318   1.19214   1.19241   1.31112   1.35795
  Beta virt. eigenvalues --    1.37981   1.45929   1.59352   1.76808   1.93273
  Beta virt. eigenvalues --    2.82817   2.83837   3.26590   3.28149   3.35877
  Beta virt. eigenvalues --    3.53575   3.56958   3.83386   4.13750   4.17868
  Beta virt. eigenvalues --    4.38181   4.71340   4.93922   5.17978   5.19398
  Beta virt. eigenvalues --    5.33512   5.43801   5.55805   5.63979   5.77977
  Beta virt. eigenvalues --    5.87406   7.05063   7.15599  14.50613  14.52277
  Beta virt. eigenvalues --   14.57767  14.79085  15.26025  50.14604
          Condensed to atoms (all electrons):
               1          2          3
     1  H    1.502853   0.740579  -0.743930
     2  H    0.740579   1.502853  -0.743930
     3  O   -0.743930  -0.743930   9.488858
          Atomic-Atomic Spin Densities.
               1          2          3
     1  H    0.956851   0.759246  -0.953519
     2  H    0.759246   0.956851  -0.953519
     3  O   -0.953519  -0.953519   1.381881
 Mulliken charges and spin densities:
               1          2
     1  H   -0.499501   0.762578
     2  H   -0.499501   0.762578
     3  O   -0.000998  -0.525156
 Sum of Mulliken charges =  -1.00000   1.00000
 Mulliken charges and spin densities with hydrogens summed into heavy atoms:
               1          2
     3  O   -1.000000   1.000000
 APT charges:
               1
     1  H   -0.686591
     2  H   -0.686591
     3  O    0.373182
 Sum of APT charges =  -1.00000
 APT charges with hydrogens summed into heavy atoms:
               1
     3  O   -1.000000
 Electronic spatial extent (au):  <R**2>=             52.9544
 Charge=             -1.0000 electrons
 Dipole moment (field-independent basis, Debye):
    X=              0.0000    Y=              0.0000    Z=              1.9002  Tot=              1.9002
 Quadrupole moment (field-independent basis, Debye-Ang):
   XX=            -20.2273   YY=            -20.8295   ZZ=            -21.7445
   XY=             -0.0000   XZ=             -0.0000   YZ=             -0.0000
 Traceless Quadrupole moment (field-independent basis, Debye-Ang):
   XX=              0.7065   YY=              0.1042   ZZ=             -0.8107
   XY=             -0.0000   XZ=             -0.0000   YZ=             -0.0000
 Octapole moment (field-independent basis, Debye-Ang**2):
  XXX=              0.0000  YYY=              0.0000  ZZZ=             25.3580  XYY=              0.0000
  XXY=              0.0000  XXZ=              7.9749  XZZ=              0.0000  YZZ=              0.0000
  YYZ=              9.2185  XYZ=              0.0000
 Hexadecapole moment (field-independent basis, Debye-Ang**3):
 XXXX=            -94.3481 YYYY=           -137.0713 ZZZZ=           -126.7564 XXXY=             -0.0000
 XXXZ=             -0.0000 YYYX=             -0.0000 YYYZ=             -0.0000 ZZZX=             -0.0000
 ZZZY=             -0.0000 XXYY=            -38.3870 XXZZ=            -36.7608 YYZZ=            -44.2226
 XXYZ=             -0.0000 YYXZ=             -0.0000 ZZXY=             -0.0000
 N-N= 9.029348400949D+00 E-N=-2.009984090613D+02  KE= 7.626289305577D+01
 Symmetry A1   KE= 6.816616386476D+01
 Symmetry A2   KE= 1.905284880965D-34
 Symmetry B1   KE= 4.453116435675D+00
 Symmetry B2   KE= 3.643612755332D+00
  Exact polarizability:  43.054   0.000 560.133   0.000  -0.000  45.818
 Approx polarizability:  43.117   0.000 428.435   0.000   0.000  46.117
                          Isotropic Fermi Contact Couplings
        Atom                 a.u.       MegaHertz       Gauss      10(-4) cm-1
     1  H(1)              -0.00004      -0.15766      -0.05626      -0.05259
     2  H(1)              -0.00004      -0.15766      -0.05626      -0.05259
     3  O(17)              0.25377    -153.83491     -54.89212     -51.31380
 --------------------------------------------------------
       Center         ----  Spin Dipole Couplings  ----
                      3XX-RR        3YY-RR        3ZZ-RR
 --------------------------------------------------------
     1   Atom       -0.011999      0.016147     -0.004149
     2   Atom       -0.011999      0.016147     -0.004149
     3   Atom       -0.047727     -0.077784      0.125511
 --------------------------------------------------------
                        XY            XZ            YZ
 --------------------------------------------------------
     1   Atom        0.000000      0.000000     -0.012533
     2   Atom        0.000000      0.000000      0.012533
     3   Atom        0.000000      0.000000      0.000000
 --------------------------------------------------------


 ---------------------------------------------------------------------------------
              Anisotropic Spin Dipole Couplings in Principal Axis System
 ---------------------------------------------------------------------------------

       Atom             a.u.   MegaHertz   Gauss  10(-4) cm-1        Axes

              Baa    -0.0120    -6.402    -2.284    -2.135  1.0000  0.0000  0.0000
     1 H(1)   Bbb    -0.0101    -5.403    -1.928    -1.802 -0.0000  0.4305  0.9026
              Bcc     0.0221    11.805     4.212     3.938 -0.0000  0.9026 -0.4305
 
              Baa    -0.0120    -6.402    -2.284    -2.135  1.0000 -0.0000  0.0000
     2 H(1)   Bbb    -0.0101    -5.403    -1.928    -1.802 -0.0000 -0.4305  0.9026
              Bcc     0.0221    11.805     4.212     3.938  0.0000  0.9026  0.4305
 
              Baa    -0.0778     5.628     2.008     1.877 -0.0000  1.0000 -0.0000
     3 O(17)  Bbb    -0.0477     3.453     1.232     1.152  1.0000  0.0000 -0.0000
              Bcc     0.1255    -9.082    -3.241    -3.029  0.0000  0.0000  1.0000
 

 ---------------------------------------------------------------------------------

 No NMR shielding tensors so no spin-rotation constants.
 Leave Link  601 at Thu Mar  7 13:30:55 2019, MaxMem=    33554432 cpu:         0.9
 (Enter /home/proyectos/fulerenos/M3C-v2.0/M3C-deps_CCC/g09-AM64L-G09RevC.01/l701.exe)
 Compute integral second derivatives.
 ... and contract with generalized density number  0.
 Leave Link  701 at Thu Mar  7 13:30:55 2019, MaxMem=    33554432 cpu:         1.0
 (Enter /home/proyectos/fulerenos/M3C-v2.0/M3C-deps_CCC/g09-AM64L-G09RevC.01/l702.exe)
 L702 exits ... SP integral derivatives will be done elsewhere.
 Leave Link  702 at Thu Mar  7 13:30:55 2019, MaxMem=    33554432 cpu:         0.1
 (Enter /home/proyectos/fulerenos/M3C-v2.0/M3C-deps_CCC/g09-AM64L-G09RevC.01/l703.exe)
 Compute integral second derivatives, UseDBF=F ICtDFT=           0.
 Integral derivatives from FoFJK, PRISM(SPDF).
 Calling FoFJK, ICntrl=    100127 FMM=F ISym2X=1 I1Cent= 0 IOpClX= 1 NMat=1 NMatS=1 NMatT=0.
 FoFJK:  IHMeth= 1 ICntrl=  100127 DoSepK=F KAlg= 0 I1Cent=   0 FoldK=F
 IRaf=         0 NMat=   1 IRICut=       1 DoRegI=T DoRafI=F ISym2E= 1.
 FoFCou: FMM=F IPFlag=           0 FMFlag=      100000 FMFlg1=         800
         NFxFlg=           0 DoJE=F BraDBF=F KetDBF=F FulRan=T
         wScrn=  0.000000 ICntrl=  100127 IOpCl=  1 I1Cent=           0 NGrid=           0
         NMat0=    1 NMatS0=      1 NMatT0=    0 NMatD0=    1 NMtDS0=    0 NMtDT0=    0
 Petite list used in FoFCou.
 Leave Link  703 at Thu Mar  7 13:31:02 2019, MaxMem=    33554432 cpu:        14.1
 (Enter /home/proyectos/fulerenos/M3C-v2.0/M3C-deps_CCC/g09-AM64L-G09RevC.01/l716.exe)
 Dipole        = 1.30076084D-16 4.45462986D-16 7.47588676D-01
 Polarizability= 4.30539733D+01 4.80203208D-08 5.60132949D+02
                 2.46406770D-08-4.50914962D-06 4.58177516D+01
 Full mass-weighted force constant matrix:
 Low frequencies ---  -62.7908  -47.2598  -36.5614   -0.0015   -0.0014   -0.0009
 Low frequencies --- 1556.3356 3548.3264 3579.0765
 Diagonal vibrational polarizability:
        0.0000000       8.0783111       3.7531422
 Harmonic frequencies (cm**-1), IR intensities (KM/Mole), Raman scattering
 activities (A**4/AMU), depolarization ratios for plane and unpolarized
 incident light, reduced masses (AMU), force constants (mDyne/A),
 and normal coordinates:
                      1                      2                      3
                     A1                     A1                     B2
 Frequencies --   1556.3356              3548.3264              3579.0762
 Red. masses --      1.0804                 1.0473                 1.0801
 Frc consts  --      1.5418                 7.7690                 8.1520
 IR Inten    --    337.6140                 1.0026              3845.2924
  Atom  AN      X      Y      Z        X      Y      Z        X      Y      Z
     1   1     0.00   0.44   0.55     0.00   0.58  -0.41    -0.00   0.55  -0.44
     2   1     0.00  -0.44   0.55    -0.00  -0.58  -0.41     0.00   0.55   0.44
     3   8    -0.00  -0.00  -0.07     0.00   0.00   0.05    -0.00  -0.07   0.00

 -------------------
 - Thermochemistry -
 -------------------
 Temperature   298.150 Kelvin.  Pressure   1.00000 Atm.
 Atom     1 has atomic number  1 and mass   1.00783
 Atom     2 has atomic number  1 and mass   1.00783
 Atom     3 has atomic number  8 and mass  15.99491
 Molecular mass:    18.01056 amu.
 Principal axes and moments of inertia in atomic units:
                           1         2         3
     Eigenvalues --     2.36842   4.17865   6.54707
           X            0.00000   0.00000   1.00000
           Y            1.00000  -0.00000  -0.00000
           Z            0.00000   1.00000  -0.00000
 This molecule is an asymmetric top.
 Rotational symmetry number  2.
 Rotational temperatures (Kelvin)     36.57037    20.72770    13.22941
 Rotational constants (GHZ):         762.00370   431.89562   275.65646
 Zero-point vibrational energy      51940.3 (Joules/Mol)
                                   12.41403 (Kcal/Mol)
 Vibrational temperatures:   2239.22  5105.24  5149.49
          (Kelvin)
 
 Zero-point correction=                           0.019783 (Hartree/Particle)
 Thermal correction to Energy=                    0.022619
 Thermal correction to Enthalpy=                  0.023564
 Thermal correction to Gibbs Free Energy=         0.001439
 Sum of electronic and zero-point Energies=            -76.416975
 Sum of electronic and thermal Energies=               -76.414138
 Sum of electronic and thermal Enthalpies=             -76.413194
 Sum of electronic and thermal Free Energies=          -76.435319
 
                     E (Thermal)             CV                S
                      KCal/Mol        Cal/Mol-Kelvin    Cal/Mol-Kelvin
 Total                   14.194              6.023             46.565
 Electronic               0.000              0.000              1.377
 Translational            0.889              2.981             34.608
 Rotational               0.889              2.981             10.570
 Vibrational             12.416              0.061              0.009
                       Q            Log10(Q)             Ln(Q)
 Total Bot       0.217804D+00         -0.661933         -1.524158
 Total V=0       0.273906D+09          8.437601         19.428294
 Vib (Bot)       0.795616D-09         -9.099296        -20.951904
 Vib (V=0)       0.100055D+01          0.000238          0.000548
 Electronic      0.200000D+01          0.301030          0.693147
 Translational   0.300432D+07          6.477746         14.915562
 Rotational      0.455603D+02          1.658587          3.819037
 
                                                              b3lyp opt
                                                             IR Spectrum
 
     3 3                                                                     1                                                       
     5 5                                                                     5                                                       
     7 4                                                                     5                                                       
     9 8                                                                     6                                                       
 
     X X                                                                     X                                                       
     X                                                                       X                                                       
     X                                                                                                                               
     X                                                                                                                               
     X                                                                                                                               
     X                                                                                                                               
     X                                                                                                                               
     X                                                                                                                               
     X                                                                                                                               
     X                                                                                                                               
     X                                                                                                                               
     X                                                                                                                               
     X                                                                                                                               
     X                                                                                                                               
     X                                                                                                                               
     X                                                                                                                               
     X                                                                                                                               
     X                                                                                                                               
     X                                                                                                                               
     X                                                                                                                               
 
 ***** Axes restored to original set *****
 -------------------------------------------------------------------
 Center     Atomic                   Forces (Hartrees/Bohr)
 Number     Number              X              Y              Z
 -------------------------------------------------------------------
      1        1          -0.000111782    0.000070651    0.000000000
      2        1          -0.000130134   -0.000023492   -0.000000000
      3        8           0.000241916   -0.000047159    0.000000000
 -------------------------------------------------------------------
 Cartesian Forces:  Max     0.000241916 RMS     0.000103129
 Z-matrix is all fixed cartesians, so copy forces.
 Force constants in Cartesian coordinates: 
                1             2             3             4             5 
      1  0.121159D+00
      2 -0.161758D+00  0.378979D+00
      3  0.000000D+00  0.000000D+00 -0.109364D-03
      4  0.127747D-01  0.142336D-01  0.000000D+00  0.270149D+00
      5 -0.317012D-01 -0.303255D-01  0.000000D+00  0.205865D+00  0.229990D+00
      6  0.000000D+00  0.000000D+00 -0.241796D-04  0.000000D+00  0.000000D+00
      7 -0.133934D+00  0.147525D+00  0.000000D+00 -0.282924D+00 -0.174164D+00
      8  0.193459D+00 -0.348654D+00  0.000000D+00 -0.220098D+00 -0.199664D+00
      9  0.000000D+00  0.000000D+00  0.133544D-03  0.000000D+00  0.000000D+00
                6             7             8             9 
      6 -0.109364D-03
      7  0.000000D+00  0.416858D+00
      8  0.000000D+00  0.266390D-01  0.548318D+00
      9  0.133544D-03  0.000000D+00  0.000000D+00 -0.267087D-03
 Leave Link  716 at Thu Mar  7 13:31:03 2019, MaxMem=    33554432 cpu:         0.3
 (Enter /home/proyectos/fulerenos/M3C-v2.0/M3C-deps_CCC/g09-AM64L-G09RevC.01/l103.exe)

 GradGradGradGradGradGradGradGradGradGradGradGradGradGradGradGradGradGrad
 Berny optimization.
 Search for a local minimum.
 Step number   1 out of a maximum of    2
 All quantities printed in internal units (Hartrees-Bohrs-Radians)
 Second derivative matrix not updated -- analytic derivatives used.
 The second derivative matrix:
                          X1        Y1        Z1        X2        Y2
           X1           0.12116
           Y1          -0.16176   0.37898
           Z1           0.00000  -0.00000  -0.00011
           X2           0.01277   0.01423   0.00000   0.27015
           Y2          -0.03170  -0.03033   0.00000   0.20586   0.22999
           Z2          -0.00000   0.00000  -0.00002  -0.00000   0.00000
           X3          -0.13393   0.14752  -0.00000  -0.28292  -0.17416
           Y3           0.19346  -0.34865  -0.00000  -0.22010  -0.19966
           Z3           0.00000  -0.00000   0.00013   0.00000   0.00000
                          Z2        X3        Y3        Z3
           Z2          -0.00011
           X3           0.00000   0.41686
           Y3          -0.00000   0.02664   0.54832
           Z3           0.00013  -0.00000   0.00000  -0.00027
 ITU=  0
     Eigenvalues ---    0.13370   0.68699   0.80659
 Angle between quadratic step and forces=  49.03 degrees.
 ClnCor:  largest displacement from symmetrization is 5.60D-13 for atom     2.
 Linear search not attempted -- first point.
 ClnCor:  largest displacement from symmetrization is 1.40D-15 for atom     1.
 B after Tr=     0.000211   -0.000041    0.000000
         Rot=    1.000000   -0.000000    0.000000    0.000000 Ang=   0.00 deg.
 Variable       Old X    -DE/DX   Delta X   Delta X   Delta X     New X
                                 (Linear)    (Quad)   (Total)
    X1       -1.35781  -0.00011   0.00000  -0.00055  -0.00034  -1.35815
    Y1        1.48976   0.00007   0.00000  -0.00020  -0.00024   1.48952
    Z1       -0.00000   0.00000   0.00000   0.00000   0.00000  -0.00000
    X2       -1.90880  -0.00013   0.00000  -0.00043  -0.00022  -1.90902
    Y2       -1.33669  -0.00002   0.00000   0.00039   0.00035  -1.33634
    Z2        0.00000  -0.00000   0.00000  -0.00000  -0.00000   0.00000
    X3       -0.50430   0.00024   0.00000   0.00035   0.00056  -0.50374
    Y3       -0.14355  -0.00005   0.00000  -0.00007  -0.00011  -0.14366
    Z3       -0.00000   0.00000   0.00000  -0.00000   0.00000   0.00000
         Item               Value     Threshold  Converged?
 Maximum Force            0.000242     0.000450     YES
 RMS     Force            0.000103     0.000300     YES
 Maximum Displacement     0.000558     0.001800     YES
 RMS     Displacement     0.000271     0.001200     YES
 Predicted change in Energy=-9.077892D-08
 Optimization completed.
    -- Stationary point found.
 GradGradGradGradGradGradGradGradGradGradGradGradGradGradGradGradGradGrad

 Leave Link  103 at Thu Mar  7 13:31:03 2019, MaxMem=    33554432 cpu:         0.2
 (Enter /home/proyectos/fulerenos/M3C-v2.0/M3C-deps_CCC/g09-AM64L-G09RevC.01/l9999.exe)

 Test job not archived.
 1\1\GINC-BERQUELIO\Freq\UB3LYP\6-311++G(3df,2p)\H2O1(1-,2)\NAGUIRRE\07
 -Mar-2019\0\\#p b3lyp/6-311++G(3df,2p) freq IOp(2/17=3) IOp(2/18=3)\\b
 3lyp opt\\-1,2\H,-0.718523,0.788348,0.\H,-1.0100915594,-0.7073458926,0
 .\O,-0.2668645384,-0.0759636322,0.\\Version=EM64L-G09RevE.01\State=2-A
 1\HF=-76.4367578\S2=0.750109\S2-1=0.\S2A=0.75\RMSD=9.810e-09\RMSF=1.03
 1e-04\ZeroPoint=0.019783\Thermal=0.0226195\Dipole=0.7337765,-0.1430414
 ,0.\DipoleDeriv=-0.3353275,0.4814081,0.,-0.4106902,-1.299395,0.,0.,0.,
 -0.4250499,-0.4959536,-0.8070255,0.,0.0850727,-1.1387689,0.,0.,0.,-0.4
 250499,-0.168719,0.3256173,0.,0.3256174,1.438164,0.,0.,0.,-0.1499002\P
 olar=64.6467602,96.5894079,541.3039405,0.,0.,43.0539733\PG=C02V [C2(O1
 ),SGV(H2)]\NImag=0\\0.12115937,-0.16175826,0.37897947,0.,0.,-0.0001093
 6,0.01277473,0.01423357,0.,0.27014906,-0.03170116,-0.03032551,0.,0.205
 86486,0.22998978,0.,0.,-0.00002418,0.,0.,-0.00010936,-0.13393411,0.147
 52468,0.,-0.28292379,-0.17416370,0.,0.41685789,0.19345942,-0.34865396,
 0.,-0.22009844,-0.19966428,0.,0.02663901,0.54831824,0.,0.,0.00013354,0
 .,0.,0.00013354,0.,0.,-0.00026709\\0.00011178,-0.00007065,0.,0.0001301
 3,0.00002349,0.,-0.00024192,0.00004716,0.\\\@


 I DO NOT KNOW WHAT I MAY APPEAR TO THE WORLD; BUT TO MYSELF
 I SEEM TO HAVE BEEN ONLY LIKE A BOY PLAYING ON THE SEASHORE,
 AND DIVERTING MYSELF IN NOW AND THEN FINDING A SMOOTHER PEBBLE
 OR A PRETTIER SHELL THAN ORDINARY, WHILST THE GREAT OCEAN OF
 TRUTH LAY ALL UNDISCOVERED BEFORE ME.
                                          -- NEWTON (1642-1726)
 Job cpu time:       0 days  0 hours  0 minutes 40.7 seconds.
 File lengths (MBytes):  RWF=      5 Int=      0 D2E=      0 Chk=      1 Scr=      1
 Normal termination of Gaussian 09 at Thu Mar  7 13:31:03 2019.
