 Entering Gaussian System, Link 0=g09
 Initial command:
 /usr/local/gaussian/gaussian09/g09/l1.exe "/scratch/sergio/H3C.q-1.m3-2.com-4919758/Gau-9014.inp" -scrdir="/scratch/sergio/H3C.q-1.m3-2.com-4919758/"
 Default is to use a total of   2 processors:
                                2 via shared-memory
                                1 via Linda
 Entering Link 1 = /usr/local/gaussian/gaussian09/g09/l1.exe PID=      9015.
  
 Copyright (c) 1988,1990,1992,1993,1995,1998,2003,2009,2015,
            Gaussian, Inc.  All Rights Reserved.
  
 This is part of the Gaussian(R) 09 program.  It is based on
 the Gaussian(R) 03 system (copyright 2003, Gaussian, Inc.),
 the Gaussian(R) 98 system (copyright 1998, Gaussian, Inc.),
 the Gaussian(R) 94 system (copyright 1995, Gaussian, Inc.),
 the Gaussian 92(TM) system (copyright 1992, Gaussian, Inc.),
 the Gaussian 90(TM) system (copyright 1990, Gaussian, Inc.),
 the Gaussian 88(TM) system (copyright 1988, Gaussian, Inc.),
 the Gaussian 86(TM) system (copyright 1986, Carnegie Mellon
 University), and the Gaussian 82(TM) system (copyright 1983,
 Carnegie Mellon University). Gaussian is a federally registered
 trademark of Gaussian, Inc.
  
 This software contains proprietary and confidential information,
 including trade secrets, belonging to Gaussian, Inc.
  
 This software is provided under written license and may be
 used, copied, transmitted, or stored only in accord with that
 written license.
  
 The following legend is applicable only to US Government
 contracts under FAR:
  
                    RESTRICTED RIGHTS LEGEND
  
 Use, reproduction and disclosure by the US Government is
 subject to restrictions as set forth in subparagraphs (a)
 and (c) of the Commercial Computer Software - Restricted
 Rights clause in FAR 52.227-19.
  
 Gaussian, Inc.
 340 Quinnipiac St., Bldg. 40, Wallingford CT 06492
  
  
 ---------------------------------------------------------------
 Warning -- This program may not be used in any manner that
 competes with the business of Gaussian, Inc. or will provide
 assistance to any competitor of Gaussian, Inc.  The licensee
 of this program is prohibited from giving any competitor of
 Gaussian, Inc. access to this program.  By using this program,
 the user acknowledges that Gaussian, Inc. is engaged in the
 business of creating and licensing software in the field of
 computational chemistry and represents and warrants to the
 licensee that it is not a competitor of Gaussian, Inc. and that
 it will not use this program in any manner prohibited above.
 ---------------------------------------------------------------
  

 Cite this work as:
 Gaussian 09, Revision E.01,
 M. J. Frisch, G. W. Trucks, H. B. Schlegel, G. E. Scuseria, 
 M. A. Robb, J. R. Cheeseman, G. Scalmani, V. Barone, B. Mennucci, 
 G. A. Petersson, H. Nakatsuji, M. Caricato, X. Li, H. P. Hratchian, 
 A. F. Izmaylov, J. Bloino, G. Zheng, J. L. Sonnenberg, M. Hada, 
 M. Ehara, K. Toyota, R. Fukuda, J. Hasegawa, M. Ishida, T. Nakajima, 
 Y. Honda, O. Kitao, H. Nakai, T. Vreven, J. A. Montgomery, Jr., 
 J. E. Peralta, F. Ogliaro, M. Bearpark, J. J. Heyd, E. Brothers, 
 K. N. Kudin, V. N. Staroverov, T. Keith, R. Kobayashi, J. Normand, 
 K. Raghavachari, A. Rendell, J. C. Burant, S. S. Iyengar, J. Tomasi, 
 M. Cossi, N. Rega, J. M. Millam, M. Klene, J. E. Knox, J. B. Cross, 
 V. Bakken, C. Adamo, J. Jaramillo, R. Gomperts, R. E. Stratmann, 
 O. Yazyev, A. J. Austin, R. Cammi, C. Pomelli, J. W. Ochterski, 
 R. L. Martin, K. Morokuma, V. G. Zakrzewski, G. A. Voth, 
 P. Salvador, J. J. Dannenberg, S. Dapprich, A. D. Daniels, 
 O. Farkas, J. B. Foresman, J. V. Ortiz, J. Cioslowski, 
 and D. J. Fox, Gaussian, Inc., Wallingford CT, 2013.
 
 ******************************************
 Gaussian 09:  EM64L-G09RevE.01 30-Nov-2015
                23-Jan-2019 
 ******************************************
 Default route:  MaxDisk=70000MB
 -------------------------------------------------
 #p b3lyp/6-311++G(3df,2p) opt freq symmetry=Loose
 -------------------------------------------------
 1/14=-1,18=20,19=15,26=3,38=1/1,3;
 2/9=110,12=2,17=4,18=3,40=1/2;
 3/5=4,6=6,7=1216,11=2,16=1,25=1,30=1,71=1,74=-5/1,2,3;
 4//1;
 5/5=2,38=5/2;
 6/7=2,8=2,9=2,10=2,28=1/1;
 7//1,2,3,16;
 1/14=-1,18=20,19=15,26=3/3(2);
 2/9=110/2;
 99//99;
 2/9=110/2;
 3/5=4,6=6,7=1216,11=2,16=1,25=1,30=1,71=1,74=-5/1,2,3;
 4/5=5,16=3,69=1/1;
 5/5=2,38=5/2;
 7//1,2,3,16;
 1/14=-1,18=20,19=15,26=3/3(-5);
 2/9=110/2;
 6/7=2,8=2,9=2,10=2,19=2,28=1/1;
 99/9=1/99;
 Leave Link    1 at Wed Jan 23 22:07:43 2019, MaxMem=           0 cpu:         0.2
 (Enter /usr/local/gaussian/gaussian09/g09/l101.exe)
 ---------
 b3lyp opt
 ---------
 Symbolic Z-matrix:
 Charge = -1 Multiplicity = 3
 C                     0.        0.        0. 
 H                     0.        1.09088   0. 
 H                     0.94473  -0.54544   0. 
 H                    -0.94473  -0.54544   0. 
 
 NAtoms=      4 NQM=        4 NQMF=       0 NMMI=      0 NMMIF=      0
                NMic=       0 NMicF=      0.
                    Isotopes and Nuclear Properties:
 (Nuclear quadrupole moments (NQMom) in fm**2, nuclear magnetic moments (NMagM)
  in nuclear magnetons)

  Atom         1           2           3           4
 IAtWgt=          12           1           1           1
 AtmWgt=  12.0000000   1.0078250   1.0078250   1.0078250
 NucSpn=           0           1           1           1
 AtZEff=   0.0000000   0.0000000   0.0000000   0.0000000
 NQMom=    0.0000000   0.0000000   0.0000000   0.0000000
 NMagM=    0.0000000   2.7928460   2.7928460   2.7928460
 AtZNuc=   6.0000000   1.0000000   1.0000000   1.0000000
 Leave Link  101 at Wed Jan 23 22:07:44 2019, MaxMem=   412876800 cpu:         0.3
 (Enter /usr/local/gaussian/gaussian09/g09/l103.exe)

 GradGradGradGradGradGradGradGradGradGradGradGradGradGradGradGradGradGrad
 Berny optimization.
 Initialization pass.
                           ----------------------------
                           !    Initial Parameters    !
                           ! (Angstroms and Degrees)  !
 --------------------------                            --------------------------
 ! Name  Definition              Value          Derivative Info.                !
 --------------------------------------------------------------------------------
 ! R1    R(1,2)                  1.0909         estimate D2E/DX2                !
 ! R2    R(1,3)                  1.0909         estimate D2E/DX2                !
 ! R3    R(1,4)                  1.0909         estimate D2E/DX2                !
 ! A1    A(2,1,3)              120.0            estimate D2E/DX2                !
 ! A2    A(2,1,4)              120.0            estimate D2E/DX2                !
 ! A3    A(3,1,4)              120.0            estimate D2E/DX2                !
 ! D1    D(2,1,4,3)            180.0            estimate D2E/DX2                !
 --------------------------------------------------------------------------------
 Trust Radius=3.00D-01 FncErr=1.00D-07 GrdErr=1.00D-06
 Number of steps in this run=     20 maximum allowed number of steps=    100.
 GradGradGradGradGradGradGradGradGradGradGradGradGradGradGradGradGradGrad

 Leave Link  103 at Wed Jan 23 22:07:44 2019, MaxMem=   412876800 cpu:         0.0
 (Enter /usr/local/gaussian/gaussian09/g09/l202.exe)
                          Input orientation:                          
 ---------------------------------------------------------------------
 Center     Atomic      Atomic             Coordinates (Angstroms)
 Number     Number       Type             X           Y           Z
 ---------------------------------------------------------------------
      1          6           0        0.000000    0.000000    0.000000
      2          1           0        0.000000    1.090878    0.000000
      3          1           0        0.944728   -0.545439    0.000000
      4          1           0       -0.944728   -0.545439    0.000000
 ---------------------------------------------------------------------
                    Distance matrix (angstroms):
                    1          2          3          4
     1  C    0.000000
     2  H    1.090878   0.000000
     3  H    1.090878   1.889456   0.000000
     4  H    1.090878   1.889456   1.889456   0.000000
 Stoichiometry    CH3(1-,3)
 Framework group  D3H[O(C),3C2(H)]
 Deg. of freedom     1
 Full point group                 D3H     NOp  12
 Largest Abelian subgroup         C2V     NOp   4
 Largest concise Abelian subgroup C2      NOp   2
                         Standard orientation:                         
 ---------------------------------------------------------------------
 Center     Atomic      Atomic             Coordinates (Angstroms)
 Number     Number       Type             X           Y           Z
 ---------------------------------------------------------------------
      1          6           0        0.000000    0.000000    0.000000
      2          1           0       -0.000000    1.090878    0.000000
      3          1           0       -0.944728   -0.545439    0.000000
      4          1           0        0.944728   -0.545439    0.000000
 ---------------------------------------------------------------------
 Rotational constants (GHZ):    280.9237306    280.9237306    140.4618653
 Leave Link  202 at Wed Jan 23 22:07:44 2019, MaxMem=   412876800 cpu:         0.0
 (Enter /usr/local/gaussian/gaussian09/g09/l301.exe)
 Standard basis: 6-311++G(3df,2p) (5D, 7F)
 Ernie: Thresh=  0.10000D-02 Tol=  0.10000D-05 Strict=F.
 There are    35 symmetry adapted cartesian basis functions of A1  symmetry.
 There are     6 symmetry adapted cartesian basis functions of A2  symmetry.
 There are    20 symmetry adapted cartesian basis functions of B1  symmetry.
 There are    14 symmetry adapted cartesian basis functions of B2  symmetry.
 There are    31 symmetry adapted basis functions of A1  symmetry.
 There are     6 symmetry adapted basis functions of A2  symmetry.
 There are    19 symmetry adapted basis functions of B1  symmetry.
 There are    13 symmetry adapted basis functions of B2  symmetry.
    69 basis functions,    94 primitive gaussians,    75 cartesian basis functions
     6 alpha electrons        4 beta electrons
       nuclear repulsion energy         9.5718784008 Hartrees.
 IExCor=  402 DFT=T Ex+Corr=B3LYP ExCW=0 ScaHFX=  0.200000
 ScaDFX=  0.800000  0.720000  1.000000  0.810000 ScalE2=  1.000000  1.000000
 IRadAn=      0 IRanWt=     -1 IRanGd=            0 ICorTp=0 IEmpDi=  4
 NAtoms=    4 NActive=    4 NUniq=    2 SFac= 4.00D+00 NAtFMM=   60 NAOKFM=F Big=F
 Integral buffers will be    131072 words long.
 Raffenetti 2 integral format.
 Two-electron integral symmetry is turned on.
 Leave Link  301 at Wed Jan 23 22:07:44 2019, MaxMem=   412876800 cpu:         0.2
 (Enter /usr/local/gaussian/gaussian09/g09/l302.exe)
 NPDir=0 NMtPBC=     1 NCelOv=     1 NCel=       1 NClECP=     1 NCelD=      1
         NCelK=      1 NCelE2=     1 NClLst=     1 CellRange=     0.0.
 One-electron integrals computed using PRISM.
 One-electron integral symmetry used in STVInt
 NBasis=    69 RedAO= T EigKep=  4.51D-03  NBF=    31     6    19    13
 NBsUse=    69 1.00D-06 EigRej= -1.00D+00 NBFU=    31     6    19    13
 Precomputing XC quadrature grid using
 IXCGrd= 4 IRadAn=           0 IRanWt=          -1 IRanGd=           0 AccXCQ= 0.00D+00.
 Generated NRdTot=       0 NPtTot=           0 NUsed=           0 NTot=          32
 NSgBfM=    75    75    75    75    75 MxSgAt=     4 MxSgA2=     4.
 Leave Link  302 at Wed Jan 23 22:07:44 2019, MaxMem=   412876800 cpu:         0.5
 (Enter /usr/local/gaussian/gaussian09/g09/l303.exe)
 DipDrv:  MaxL=1.
 Leave Link  303 at Wed Jan 23 22:07:44 2019, MaxMem=   412876800 cpu:         0.1
 (Enter /usr/local/gaussian/gaussian09/g09/l401.exe)
 ExpMin= 3.60D-02 ExpMax= 4.56D+03 ExpMxC= 6.82D+02 IAcc=3 IRadAn=         5 AccDes= 0.00D+00
 Harris functional with IExCor=  402 and IRadAn=       5 diagonalized for initial guess.
 HarFok:  IExCor=  402 AccDes= 0.00D+00 IRadAn=         5 IDoV= 1 UseB2=F ITyADJ=14
 ICtDFT=  3500011 ScaDFX=  1.000000  1.000000  1.000000  1.000000
 FoFCou: FMM=F IPFlag=           0 FMFlag=      100000 FMFlg1=           0
         NFxFlg=           0 DoJE=T BraDBF=F KetDBF=T FulRan=T
         wScrn=  0.000000 ICntrl=     500 IOpCl=  0 I1Cent=   200000004 NGrid=           0
         NMat0=    1 NMatS0=      1 NMatT0=    0 NMatD0=    1 NMtDS0=    0 NMtDT0=    0
 Petite list used in FoFCou.
 Harris En= -39.8895663256581    
 JPrj=0 DoOrth=F DoCkMO=F.
 Initial guess orbital symmetries:
 Alpha Orbitals:
       Occupied  (A1') (A1') (E') (E') (A2") (A1')
       Virtual   (E') (E') (A2") (E') (E') (A1') (A1') (E') (E')
                 (E") (E") (E') (E') (A1') (A2") (A1') (E') (E')
                 (A1') (E') (E') (A2') (E") (E") (A2") (E') (E')
                 (A1') (E') (E') (E") (E") (A1') (E') (E') (A1')
                 (E') (E') (A2") (A2') (E") (E") (A2") (E') (E')
                 (E') (E') (A1') (E') (E') (A2") (E") (E") (A2')
                 (A1') (E') (E') (E") (E") (A1') (E') (E') (A1')
 Beta  Orbitals:
       Occupied  (A1') (A1') (E') (E')
       Virtual   (A2") (A1') (E') (E') (A2") (E') (E') (A1') (A1')
                 (E') (E') (E") (E") (E') (E') (A1') (A2") (A1')
                 (E') (E') (A1') (E') (E') (A2') (E") (E") (A2")
                 (E') (E') (A1') (E') (E') (E") (E") (A1') (E')
                 (E') (A1') (E') (E') (A2") (A2') (E") (E") (A2")
                 (E') (E') (E') (E') (A1') (E') (E') (A2") (E")
                 (E") (A2') (A1') (E') (E') (E") (E") (A1') (E')
                 (E') (A1')
 The electronic state of the initial guess is 3-A2".
 Initial guess <Sx>= 0.0000 <Sy>= 0.0000 <Sz>= 1.0000 <S**2>= 2.0000 S= 1.0000
 Leave Link  401 at Wed Jan 23 22:07:44 2019, MaxMem=   412876800 cpu:         0.7
 (Enter /usr/local/gaussian/gaussian09/g09/l502.exe)
 UHF open shell SCF:
 Using DIIS extrapolation, IDIIS=  1040.
 Integral symmetry usage will be decided dynamically.
 Keep R1 and R2 ints in memory in symmetry-blocked form, NReq=4924553.
 IVT=       36807 IEndB=       36807 NGot=   412876800 MDV=   411294183
 LenX=   411294183 LenY=   411288117
 Requested convergence on RMS density matrix=1.00D-08 within 128 cycles.
 Requested convergence on MAX density matrix=1.00D-06.
 Requested convergence on             energy=1.00D-06.
 No special actions if energy rises.
 FoFCou: FMM=F IPFlag=           0 FMFlag=           0 FMFlg1=           0
         NFxFlg=           0 DoJE=F BraDBF=F KetDBF=F FulRan=T
         wScrn=  0.000000 ICntrl=     600 IOpCl=  0 I1Cent=           0 NGrid=           0
         NMat0=    1 NMatS0=   2415 NMatT0=    0 NMatD0=    1 NMtDS0=    0 NMtDT0=    0
 Petite list used in FoFCou.

 Cycle   1  Pass 1  IDiag  1:
 E= -39.7363591768190    
 DIIS: error= 4.13D-02 at cycle   1 NSaved=   1.
 NSaved= 1 IEnMin= 1 EnMin= -39.7363591768190     IErMin= 1 ErrMin= 4.13D-02
 ErrMax= 4.13D-02  0.00D+00 EMaxC= 1.00D-01 BMatC= 2.58D-01 BMatP= 2.58D-01
 IDIUse=3 WtCom= 5.87D-01 WtEn= 4.13D-01
 Coeff-Com:  0.100D+01
 Coeff-En:   0.100D+01
 Coeff:      0.100D+01
 Gap=     0.049 Goal=   None    Shift=    0.000
 Gap=     0.267 Goal=   None    Shift=    0.000
 GapD=    0.049 DampG=0.250 DampE=0.500 DampFc=0.2500 IDamp=-1.
 Damping current iteration by 2.50D-01
 RMSDP=1.89D-01 MaxDP=1.27D+01              OVMax= 3.94D-01

 Cycle   2  Pass 1  IDiag  1:
 E= -39.7673834303139     Delta-E=       -0.031024253495 Rises=F Damp=T
 DIIS: error= 1.78D-02 at cycle   2 NSaved=   2.
 NSaved= 2 IEnMin= 2 EnMin= -39.7673834303139     IErMin= 2 ErrMin= 1.78D-02
 ErrMax= 1.78D-02  0.00D+00 EMaxC= 1.00D-01 BMatC= 5.75D-02 BMatP= 2.58D-01
 IDIUse=3 WtCom= 8.22D-01 WtEn= 1.78D-01
 Coeff-Com: -0.780D+00 0.178D+01
 Coeff-En:   0.000D+00 0.100D+01
 Coeff:     -0.640D+00 0.164D+01
 Gap=     0.049 Goal=   None    Shift=    0.000
 Gap=     0.335 Goal=   None    Shift=    0.000
 RMSDP=9.86D-02 MaxDP=6.45D+00 DE=-3.10D-02 OVMax= 2.19D-01

 Cycle   3  Pass 1  IDiag  1:
 E= -39.8262433295051     Delta-E=       -0.058859899191 Rises=F Damp=F
 DIIS: error= 3.99D-03 at cycle   3 NSaved=   3.
 NSaved= 3 IEnMin= 3 EnMin= -39.8262433295051     IErMin= 3 ErrMin= 3.99D-03
 ErrMax= 3.99D-03  0.00D+00 EMaxC= 1.00D-01 BMatC= 9.90D-04 BMatP= 5.75D-02
 IDIUse=3 WtCom= 9.60D-01 WtEn= 3.99D-02
 Coeff-Com:  0.112D+00-0.141D+00 0.103D+01
 Coeff-En:   0.000D+00 0.000D+00 0.100D+01
 Coeff:      0.107D+00-0.135D+00 0.103D+01
 Gap=     0.049 Goal=   None    Shift=    0.000
 Gap=     0.325 Goal=   None    Shift=    0.000
 RMSDP=1.98D-02 MaxDP=1.37D+00 DE=-5.89D-02 OVMax= 2.54D-02

 Cycle   4  Pass 1  IDiag  1:
 E= -39.8269000552292     Delta-E=       -0.000656725724 Rises=F Damp=F
 DIIS: error= 5.80D-04 at cycle   4 NSaved=   4.
 NSaved= 4 IEnMin= 4 EnMin= -39.8269000552292     IErMin= 4 ErrMin= 5.80D-04
 ErrMax= 5.80D-04  0.00D+00 EMaxC= 1.00D-01 BMatC= 4.02D-05 BMatP= 9.90D-04
 IDIUse=3 WtCom= 9.94D-01 WtEn= 5.80D-03
 Coeff-Com: -0.255D-01 0.200D-01-0.139D+00 0.114D+01
 Coeff-En:   0.000D+00 0.000D+00 0.000D+00 0.100D+01
 Coeff:     -0.254D-01 0.199D-01-0.138D+00 0.114D+01
 Gap=     0.049 Goal=   None    Shift=    0.000
 Gap=     0.325 Goal=   None    Shift=    0.000
 RMSDP=9.40D-03 MaxDP=6.61D-01 DE=-6.57D-04 OVMax= 1.10D-02

 Cycle   5  Pass 1  IDiag  1:
 E= -39.8269430649233     Delta-E=       -0.000043009694 Rises=F Damp=F
 DIIS: error= 1.39D-04 at cycle   5 NSaved=   5.
 NSaved= 5 IEnMin= 5 EnMin= -39.8269430649233     IErMin= 5 ErrMin= 1.39D-04
 ErrMax= 1.39D-04  0.00D+00 EMaxC= 1.00D-01 BMatC= 1.99D-06 BMatP= 4.02D-05
 IDIUse=3 WtCom= 9.99D-01 WtEn= 1.39D-03
 Coeff-Com: -0.148D-02 0.495D-02-0.908D-03-0.300D+00 0.130D+01
 Coeff-En:   0.000D+00 0.000D+00 0.000D+00 0.000D+00 0.100D+01
 Coeff:     -0.148D-02 0.494D-02-0.907D-03-0.300D+00 0.130D+01
 Gap=     0.048 Goal=   None    Shift=    0.000
 Gap=     0.326 Goal=   None    Shift=    0.000
 RMSDP=2.67D-03 MaxDP=1.94D-01 DE=-4.30D-05 OVMax= 2.52D-03

 Cycle   6  Pass 1  IDiag  1:
 E= -39.8269452866461     Delta-E=       -0.000002221723 Rises=F Damp=F
 DIIS: error= 1.53D-05 at cycle   6 NSaved=   6.
 NSaved= 6 IEnMin= 6 EnMin= -39.8269452866461     IErMin= 6 ErrMin= 1.53D-05
 ErrMax= 1.53D-05  0.00D+00 EMaxC= 1.00D-01 BMatC= 3.73D-08 BMatP= 1.99D-06
 IDIUse=1 WtCom= 1.00D+00 WtEn= 0.00D+00
 Coeff-Com:  0.133D-02-0.218D-02 0.338D-02 0.439D-01-0.314D+00 0.127D+01
 Coeff:      0.133D-02-0.218D-02 0.338D-02 0.439D-01-0.314D+00 0.127D+01
 Gap=     0.048 Goal=   None    Shift=    0.000
 Gap=     0.326 Goal=   None    Shift=    0.000
 RMSDP=1.80D-04 MaxDP=1.28D-02 DE=-2.22D-06 OVMax= 1.74D-04

 Cycle   7  Pass 1  IDiag  1:
 E= -39.8269453164800     Delta-E=       -0.000000029834 Rises=F Damp=F
 DIIS: error= 1.84D-06 at cycle   7 NSaved=   7.
 NSaved= 7 IEnMin= 7 EnMin= -39.8269453164800     IErMin= 7 ErrMin= 1.84D-06
 ErrMax= 1.84D-06  0.00D+00 EMaxC= 1.00D-01 BMatC= 6.46D-10 BMatP= 3.73D-08
 IDIUse=1 WtCom= 1.00D+00 WtEn= 0.00D+00
 Coeff-Com: -0.165D-03 0.256D-03-0.403D-03-0.150D-02 0.302D-01-0.232D+00
 Coeff-Com:  0.120D+01
 Coeff:     -0.165D-03 0.256D-03-0.403D-03-0.150D-02 0.302D-01-0.232D+00
 Coeff:      0.120D+01
 Gap=     0.048 Goal=   None    Shift=    0.000
 Gap=     0.326 Goal=   None    Shift=    0.000
 RMSDP=5.04D-05 MaxDP=3.48D-03 DE=-2.98D-08 OVMax= 5.89D-05

 Cycle   8  Pass 1  IDiag  1:
 E= -39.8269453173575     Delta-E=       -0.000000000878 Rises=F Damp=F
 DIIS: error= 4.27D-07 at cycle   8 NSaved=   8.
 NSaved= 8 IEnMin= 8 EnMin= -39.8269453173575     IErMin= 8 ErrMin= 4.27D-07
 ErrMax= 4.27D-07  0.00D+00 EMaxC= 1.00D-01 BMatC= 1.24D-11 BMatP= 6.46D-10
 IDIUse=1 WtCom= 1.00D+00 WtEn= 0.00D+00
 Coeff-Com:  0.147D-04-0.259D-04 0.704D-04-0.148D-03-0.242D-02 0.247D-01
 Coeff-Com: -0.185D+00 0.116D+01
 Coeff:      0.147D-04-0.259D-04 0.704D-04-0.148D-03-0.242D-02 0.247D-01
 Coeff:     -0.185D+00 0.116D+01
 Gap=     0.048 Goal=   None    Shift=    0.000
 Gap=     0.326 Goal=   None    Shift=    0.000
 RMSDP=1.02D-05 MaxDP=7.55D-04 DE=-8.78D-10 OVMax= 8.22D-06

 Cycle   9  Pass 1  IDiag  1:
 E= -39.8269453173766     Delta-E=       -0.000000000019 Rises=F Damp=F
 DIIS: error= 9.80D-08 at cycle   9 NSaved=   9.
 NSaved= 9 IEnMin= 9 EnMin= -39.8269453173766     IErMin= 9 ErrMin= 9.80D-08
 ErrMax= 9.80D-08  0.00D+00 EMaxC= 1.00D-01 BMatC= 1.28D-12 BMatP= 1.24D-11
 IDIUse=1 WtCom= 1.00D+00 WtEn= 0.00D+00
 Coeff-Com:  0.445D-05-0.521D-05-0.198D-05-0.266D-04-0.453D-05 0.217D-02
 Coeff-Com: -0.223D-01-0.359D-01 0.106D+01
 Coeff:      0.445D-05-0.521D-05-0.198D-05-0.266D-04-0.453D-05 0.217D-02
 Coeff:     -0.223D-01-0.359D-01 0.106D+01
 Gap=     0.048 Goal=   None    Shift=    0.000
 Gap=     0.326 Goal=   None    Shift=    0.000
 RMSDP=2.49D-06 MaxDP=1.83D-04 DE=-1.91D-11 OVMax= 1.93D-06

 Cycle  10  Pass 1  IDiag  1:
 E= -39.8269453173774     Delta-E=       -0.000000000001 Rises=F Damp=F
 DIIS: error= 7.87D-09 at cycle  10 NSaved=  10.
 NSaved=10 IEnMin=10 EnMin= -39.8269453173774     IErMin=10 ErrMin= 7.87D-09
 ErrMax= 7.87D-09  0.00D+00 EMaxC= 1.00D-01 BMatC= 1.03D-14 BMatP= 1.28D-12
 IDIUse=1 WtCom= 1.00D+00 WtEn= 0.00D+00
 Coeff-Com: -0.219D-06 0.182D-06 0.228D-06 0.252D-04-0.143D-03 0.327D-03
 Coeff-Com:  0.173D-02-0.561D-02-0.172D+00 0.118D+01
 Coeff:     -0.219D-06 0.182D-06 0.228D-06 0.252D-04-0.143D-03 0.327D-03
 Coeff:      0.173D-02-0.561D-02-0.172D+00 0.118D+01
 Gap=     0.048 Goal=   None    Shift=    0.000
 Gap=     0.326 Goal=   None    Shift=    0.000
 RMSDP=3.97D-07 MaxDP=2.89D-05 DE=-8.38D-13 OVMax= 3.11D-07

 Cycle  11  Pass 1  IDiag  1:
 E= -39.8269453173777     Delta-E=       -0.000000000000 Rises=F Damp=F
 DIIS: error= 1.31D-09 at cycle  11 NSaved=  11.
 NSaved=11 IEnMin=11 EnMin= -39.8269453173777     IErMin=11 ErrMin= 1.31D-09
 ErrMax= 1.31D-09  0.00D+00 EMaxC= 1.00D-01 BMatC= 1.23D-16 BMatP= 1.03D-14
 IDIUse=1 WtCom= 1.00D+00 WtEn= 0.00D+00
 Coeff-Com: -0.418D-07 0.808D-07 0.111D-07-0.404D-05 0.264D-04-0.111D-03
 Coeff-Com:  0.150D-03 0.750D-04 0.196D-01-0.184D+00 0.116D+01
 Coeff:     -0.418D-07 0.808D-07 0.111D-07-0.404D-05 0.264D-04-0.111D-03
 Coeff:      0.150D-03 0.750D-04 0.196D-01-0.184D+00 0.116D+01
 Gap=     0.048 Goal=   None    Shift=    0.000
 Gap=     0.326 Goal=   None    Shift=    0.000
 RMSDP=2.48D-08 MaxDP=1.81D-06 DE=-2.77D-13 OVMax= 2.09D-08

 Cycle  12  Pass 1  IDiag  1:
 E= -39.8269453173779     Delta-E=       -0.000000000000 Rises=F Damp=F
 DIIS: error= 1.10D-10 at cycle  12 NSaved=  12.
 NSaved=12 IEnMin=12 EnMin= -39.8269453173779     IErMin=12 ErrMin= 1.10D-10
 ErrMax= 1.10D-10  0.00D+00 EMaxC= 1.00D-01 BMatC= 9.75D-19 BMatP= 1.23D-16
 IDIUse=1 WtCom= 1.00D+00 WtEn= 0.00D+00
 Coeff-Com:  0.815D-08-0.130D-07-0.229D-07 0.300D-06-0.195D-05 0.102D-04
 Coeff-Com: -0.311D-04-0.118D-04-0.788D-03 0.137D-01-0.178D+00 0.117D+01
 Coeff:      0.815D-08-0.130D-07-0.229D-07 0.300D-06-0.195D-05 0.102D-04
 Coeff:     -0.311D-04-0.118D-04-0.788D-03 0.137D-01-0.178D+00 0.117D+01
 Gap=     0.048 Goal=   None    Shift=    0.000
 Gap=     0.326 Goal=   None    Shift=    0.000
 RMSDP=1.66D-09 MaxDP=1.22D-07 DE=-1.78D-13 OVMax= 1.58D-09

 SCF Done:  E(UB3LYP) =  -39.8269453174     A.U. after   12 cycles
            NFock= 12  Conv=0.17D-08     -V/T= 2.0039
 <Sx>= 0.0000 <Sy>= 0.0000 <Sz>= 1.0000 <S**2>= 2.0034 S= 1.0011
 <L.S>= 0.000000000000E+00
 KE= 3.967364155371D+01 PE=-1.125516030939D+02 EE= 2.347913782199D+01
 Annihilation of the first spin contaminant:
 S**2 before annihilation     2.0034,   after     2.0000
 Leave Link  502 at Wed Jan 23 22:07:47 2019, MaxMem=   412876800 cpu:         4.1
 (Enter /usr/local/gaussian/gaussian09/g09/l601.exe)
 Copying SCF densities to generalized density rwf, IOpCl= 1 IROHF=0.

 **********************************************************************

            Population analysis using the SCF density.

 **********************************************************************

 Orbital symmetries:
 Alpha Orbitals:
       Occupied  (A1') (A1') (E') (E') (A2") (A1')
       Virtual   (E') (E') (A2") (E') (E') (A1') (A1') (E') (E')
                 (E") (E") (E') (E') (A1') (A2") (A1') (E') (E')
                 (E') (E') (A1') (A2') (E") (E") (A2") (E') (E')
                 (A1') (E') (E') (E") (E") (A1') (E') (E') (A1')
                 (E') (E') (A2") (A2') (E") (E") (A2") (E') (E')
                 (E') (E') (A1') (E') (E') (A2") (E") (E") (A2')
                 (A1') (E') (E') (E") (E") (A1') (E') (E') (A1')
 Beta  Orbitals:
       Occupied  (A1') (A1') (E') (E')
       Virtual   (A2") (A1') (E') (E') (E') (E') (A2") (A1') (A1')
                 (E') (E') (E") (E") (E') (E') (A1') (A1') (A2")
                 (E') (E') (E') (E') (A1') (A2') (E") (E") (A2")
                 (E') (E') (A1') (E') (E') (E") (E") (A1') (E')
                 (E') (A1') (E') (E') (A2") (A2') (E") (E") (A2")
                 (E') (E') (E') (E') (A1') (E') (E') (A2") (E")
                 (E") (A2') (A1') (E') (E') (E") (E") (A1') (E')
                 (E') (A1')
 The electronic state is 3-A2".
 Alpha  occ. eigenvalues --  -10.02434  -0.52783  -0.26332  -0.26332  -0.07882
 Alpha  occ. eigenvalues --    0.07166
 Alpha virt. eigenvalues --    0.12016   0.12016   0.18618   0.20384   0.20384
 Alpha virt. eigenvalues --    0.23897   0.28072   0.31820   0.31820   0.45445
 Alpha virt. eigenvalues --    0.45445   0.47548   0.47548   0.52827   0.67400
 Alpha virt. eigenvalues --    0.70886   0.75218   0.75218   0.86957   0.86957
 Alpha virt. eigenvalues --    0.87710   0.97438   1.07274   1.07274   1.11488
 Alpha virt. eigenvalues --    1.23967   1.23967   1.47769   1.53616   1.53616
 Alpha virt. eigenvalues --    1.79386   1.79386   2.10080   2.16887   2.16887
 Alpha virt. eigenvalues --    2.59387   2.77992   2.77992   2.83398   3.06400
 Alpha virt. eigenvalues --    3.13256   3.13256   3.13943   3.21601   3.21601
 Alpha virt. eigenvalues --    3.70501   3.70501   3.97484   4.30215   4.30215
 Alpha virt. eigenvalues --    4.30248   4.34629   4.34629   4.93168   5.35596
 Alpha virt. eigenvalues --    5.68689   5.68689   7.17961   7.17961   7.31145
 Alpha virt. eigenvalues --    7.77263   7.77263  24.32730
  Beta  occ. eigenvalues --  -10.00916  -0.48694  -0.25295  -0.25295
  Beta virt. eigenvalues --    0.07265   0.11345   0.14273   0.14273   0.21557
  Beta virt. eigenvalues --    0.21557   0.21742   0.25001   0.29969   0.32706
  Beta virt. eigenvalues --    0.32706   0.47057   0.47057   0.48121   0.48121
  Beta virt. eigenvalues --    0.55801   0.71679   0.73712   0.76400   0.76400
  Beta virt. eigenvalues --    0.87904   0.87904   0.89450   0.97382   1.08165
  Beta virt. eigenvalues --    1.08165   1.13026   1.24040   1.24040   1.51701
  Beta virt. eigenvalues --    1.54267   1.54267   1.84808   1.84808   2.15055
  Beta virt. eigenvalues --    2.17810   2.17810   2.59659   2.79643   2.79643
  Beta virt. eigenvalues --    2.91147   3.06469   3.16405   3.16405   3.19628
  Beta virt. eigenvalues --    3.25741   3.25741   3.71380   3.71380   3.97869
  Beta virt. eigenvalues --    4.29716   4.29716   4.31357   4.35474   4.35474
  Beta virt. eigenvalues --    4.93161   5.36804   5.69200   5.69200   7.24821
  Beta virt. eigenvalues --    7.24821   7.41168   7.78335   7.78335  24.34409
          Condensed to atoms (all electrons):
               1          2          3          4
     1  C   20.894912  -5.611458  -5.611458  -5.611458
     2  H   -5.611458   3.297151   2.147064   2.147064
     3  H   -5.611458   2.147064   3.297151   2.147064
     4  H   -5.611458   2.147064   2.147064   3.297151
          Atomic-Atomic Spin Densities.
               1          2          3          4
     1  C   16.749491  -6.009987  -6.009987  -6.009987
     2  H   -6.009987   2.745825   2.178826   2.178826
     3  H   -6.009987   2.178826   2.745825   2.178826
     4  H   -6.009987   2.178826   2.178826   2.745825
 Mulliken charges and spin densities:
               1          2
     1  C    1.939462  -1.280470
     2  H   -0.979821   1.093490
     3  H   -0.979821   1.093490
     4  H   -0.979821   1.093490
 Sum of Mulliken charges =  -1.00000   2.00000
 Mulliken charges and spin densities with hydrogens summed into heavy atoms:
               1          2
     1  C   -1.000000   2.000000
 Electronic spatial extent (au):  <R**2>=             78.9801
 Charge=             -1.0000 electrons
 Dipole moment (field-independent basis, Debye):
    X=              0.0000    Y=             -0.0000    Z=             -0.0000  Tot=              0.0000
 Quadrupole moment (field-independent basis, Debye-Ang):
   XX=            -32.7611   YY=            -32.7611   ZZ=            -23.5611
   XY=              0.0000   XZ=              0.0000   YZ=             -0.0000
 Traceless Quadrupole moment (field-independent basis, Debye-Ang):
   XX=             -3.0667   YY=             -3.0667   ZZ=              6.1334
   XY=              0.0000   XZ=              0.0000   YZ=             -0.0000
 Octapole moment (field-independent basis, Debye-Ang**2):
  XXX=              0.0000  YYY=             -4.2842  ZZZ=             -0.0000  XYY=              0.0000
  XXY=              4.2842  XXZ=             -0.0000  XZZ=              0.0000  YZZ=              0.0000
  YYZ=             -0.0000  XYZ=             -0.0000
 Hexadecapole moment (field-independent basis, Debye-Ang**3):
 XXXX=           -300.9204 YYYY=           -300.9204 ZZZZ=           -133.1299 XXXY=              0.0000
 XXXZ=              0.0000 YYYX=              0.0000 YYYZ=             -0.0000 ZZZX=              0.0000
 ZZZY=             -0.0000 XXYY=           -100.3068 XXZZ=            -69.5510 YYZZ=            -69.5510
 XXYZ=              0.0000 YYXZ=              0.0000 ZZXY=              0.0000
 N-N= 9.571878400798D+00 E-N=-1.125516030943D+02  KE= 3.967364155371D+01
 Symmetry A1   KE= 3.662654861376D+01
 Symmetry A2   KE=-2.612118881576D-19
 Symmetry B1   KE= 1.963093636699D+00
 Symmetry B2   KE= 1.083999303251D+00
                          Isotropic Fermi Contact Couplings
        Atom                 a.u.       MegaHertz       Gauss      10(-4) cm-1
     1  C(13)              0.21972     123.50381      44.06923      41.19644
     2  H(1)              -0.01324     -29.58038     -10.55501      -9.86695
     3  H(1)              -0.01324     -29.58038     -10.55501      -9.86695
     4  H(1)              -0.01324     -29.58038     -10.55501      -9.86695
 --------------------------------------------------------
       Center         ----  Spin Dipole Couplings  ----
                      3XX-RR        3YY-RR        3ZZ-RR
 --------------------------------------------------------
     1   Atom       -0.570578     -0.570578      1.141156
     2   Atom       -0.075187      0.078547     -0.003360
     3   Atom        0.040113     -0.036753     -0.003360
     4   Atom        0.040113     -0.036753     -0.003360
 --------------------------------------------------------
                        XY            XZ            YZ
 --------------------------------------------------------
     1   Atom        0.000000      0.000000      0.000000
     2   Atom       -0.000000      0.000000     -0.000000
     3   Atom        0.066569      0.000000      0.000000
     4   Atom       -0.066569     -0.000000      0.000000
 --------------------------------------------------------


 ---------------------------------------------------------------------------------
              Anisotropic Spin Dipole Couplings in Principal Axis System
 ---------------------------------------------------------------------------------

       Atom             a.u.   MegaHertz   Gauss  10(-4) cm-1        Axes

              Baa    -0.5706   -76.566   -27.321   -25.540  0.9849 -0.1730 -0.0000
     1 C(13)  Bbb    -0.5706   -76.566   -27.321   -25.540  0.1730  0.9849 -0.0000
              Bcc     1.1412   153.132    54.641    51.079  0.0000  0.0000  1.0000
 
              Baa    -0.0752   -40.116   -14.314   -13.381  1.0000  0.0000  0.0000
     2 H(1)   Bbb    -0.0034    -1.793    -0.640    -0.598  0.0000  0.0000  1.0000
              Bcc     0.0785    41.909    14.954    13.979 -0.0000  1.0000 -0.0000
 
              Baa    -0.0752   -40.116   -14.314   -13.381 -0.5000  0.8660  0.0000
     3 H(1)   Bbb    -0.0034    -1.793    -0.640    -0.598  0.0000  0.0000  1.0000
              Bcc     0.0785    41.909    14.954    13.979  0.8660  0.5000 -0.0000
 
              Baa    -0.0752   -40.116   -14.314   -13.381  0.5000  0.8660 -0.0000
     4 H(1)   Bbb    -0.0034    -1.793    -0.640    -0.598  0.0000  0.0000  1.0000
              Bcc     0.0785    41.909    14.954    13.979  0.8660 -0.5000  0.0000
 

 ---------------------------------------------------------------------------------

 No NMR shielding tensors so no spin-rotation constants.
 Leave Link  601 at Wed Jan 23 22:07:47 2019, MaxMem=   412876800 cpu:         0.8
 (Enter /usr/local/gaussian/gaussian09/g09/l701.exe)
 Compute integral first derivatives.
 ... and contract with generalized density number  0.
 Leave Link  701 at Wed Jan 23 22:07:47 2019, MaxMem=   412876800 cpu:         0.6
 (Enter /usr/local/gaussian/gaussian09/g09/l702.exe)
 L702 exits ... SP integral derivatives will be done elsewhere.
 Leave Link  702 at Wed Jan 23 22:07:47 2019, MaxMem=   412876800 cpu:         0.1
 (Enter /usr/local/gaussian/gaussian09/g09/l703.exe)
 Compute integral first derivatives, UseDBF=F ICtDFT=           0.
 Integral derivatives from FoFJK, PRISM(SPDF).
 Calling FoFJK, ICntrl=      2127 FMM=F ISym2X=1 I1Cent= 0 IOpClX= 1 NMat=1 NMatS=1 NMatT=0.
 FoFJK:  IHMeth= 1 ICntrl=    2127 DoSepK=F KAlg= 0 I1Cent=   0 FoldK=F
 IRaf=         0 NMat=   1 IRICut=       1 DoRegI=T DoRafI=F ISym2E= 1.
 FoFCou: FMM=F IPFlag=           0 FMFlag=      100000 FMFlg1=         800
         NFxFlg=           0 DoJE=F BraDBF=F KetDBF=F FulRan=T
         wScrn=  0.000000 ICntrl=    2127 IOpCl=  1 I1Cent=           0 NGrid=           0
         NMat0=    1 NMatS0=      1 NMatT0=    0 NMatD0=    1 NMtDS0=    0 NMtDT0=    0
 Petite list used in FoFCou.
 Leave Link  703 at Wed Jan 23 22:07:48 2019, MaxMem=   412876800 cpu:         2.1
 (Enter /usr/local/gaussian/gaussian09/g09/l716.exe)
 Dipole        = 2.88657986D-15-2.66453526D-15-7.87147902D-24
 ***** Axes restored to original set *****
 -------------------------------------------------------------------
 Center     Atomic                   Forces (Hartrees/Bohr)
 Number     Number              X              Y              Z
 -------------------------------------------------------------------
      1        6           0.000000000    0.000000000   -0.000000000
      2        1           0.000000000   -0.004733241    0.000000000
      3        1          -0.004099107    0.002366620    0.000000000
      4        1           0.004099107    0.002366620   -0.000000000
 -------------------------------------------------------------------
 Cartesian Forces:  Max     0.004733241 RMS     0.002366620
 Leave Link  716 at Wed Jan 23 22:07:48 2019, MaxMem=   412876800 cpu:         0.1
 (Enter /usr/local/gaussian/gaussian09/g09/l103.exe)

 GradGradGradGradGradGradGradGradGradGradGradGradGradGradGradGradGradGrad
 Berny optimization.
 FormGI is forming the generalized inverse of G from B-inverse, IUseBI=4.
 Internal  Forces:  Max     0.004733241 RMS     0.003098633
 Search for a local minimum.
 Step number   1 out of a maximum of   20
 All quantities printed in internal units (Hartrees-Bohrs-Radians)
 RMS Force = .30986D-02 SwitMx=.10000D-02 MixMth= 1
 Mixed Optimization -- RFO/linear search
 Second derivative matrix not updated -- first step.
 The second derivative matrix:
                          R1        R2        R3        A1        A2
           R1           0.34711
           R2           0.00000   0.34711
           R3           0.00000   0.00000   0.34711
           A1           0.00000   0.00000   0.00000   0.16000
           A2           0.00000   0.00000   0.00000   0.00000   0.16000
           A3           0.00000   0.00000   0.00000   0.00000   0.00000
           D1           0.00000   0.00000   0.00000   0.00000   0.00000
                          A3        D1
           A3           0.16000
           D1           0.00000   0.00230
 ITU=  0
     Eigenvalues ---    0.00230   0.16000   0.16000   0.34711   0.34711
     Eigenvalues ---    0.34711
 RFO step:  Lambda=-1.93519385D-04 EMin= 2.30000000D-03
 Linear search not attempted -- first point.
 Iteration  1 RMS(Cart)=  0.00892188 RMS(Int)=  0.00000000
 Iteration  2 RMS(Cart)=  0.00000000 RMS(Int)=  0.00000000
 ITry= 1 IFail=0 DXMaxC= 1.36D-02 DCOld= 1.00D+10 DXMaxT= 3.00D-01 DXLimC= 3.00D+00 Rises=F
 ClnCor:  largest displacement from symmetrization is 4.36D-13 for atom     1.
 Variable       Old X    -DE/DX   Delta X   Delta X   Delta X     New X
                                 (Linear)    (Quad)   (Total)
    R1        2.06146  -0.00473   0.00000  -0.01363  -0.01363   2.04783
    R2        2.06146  -0.00473   0.00000  -0.01363  -0.01363   2.04783
    R3        2.06146  -0.00473   0.00000  -0.01363  -0.01363   2.04783
    A1        2.09440   0.00000   0.00000   0.00000   0.00000   2.09440
    A2        2.09440  -0.00000   0.00000  -0.00000  -0.00000   2.09440
    A3        2.09440   0.00000   0.00000   0.00000   0.00000   2.09440
    D1        3.14159   0.00000   0.00000   0.00000   0.00000   3.14159
         Item               Value     Threshold  Converged?
 Maximum Force            0.004733     0.000450     NO 
 RMS     Force            0.003099     0.000300     NO 
 Maximum Displacement     0.013628     0.001800     NO 
 RMS     Displacement     0.008922     0.001200     NO 
 Predicted change in Energy=-9.681364D-05
 Lowest energy point so far.  Saving SCF results.
 GradGradGradGradGradGradGradGradGradGradGradGradGradGradGradGradGradGrad

 Leave Link  103 at Wed Jan 23 22:07:49 2019, MaxMem=   412876800 cpu:         0.0
 (Enter /usr/local/gaussian/gaussian09/g09/l202.exe)
                          Input orientation:                          
 ---------------------------------------------------------------------
 Center     Atomic      Atomic             Coordinates (Angstroms)
 Number     Number       Type             X           Y           Z
 ---------------------------------------------------------------------
      1          6           0       -0.000000   -0.000000   -0.000000
      2          1           0       -0.000000    1.083666    0.000000
      3          1           0        0.938482   -0.541833    0.000000
      4          1           0       -0.938482   -0.541833   -0.000000
 ---------------------------------------------------------------------
                    Distance matrix (angstroms):
                    1          2          3          4
     1  C    0.000000
     2  H    1.083666   0.000000
     3  H    1.083666   1.876965   0.000000
     4  H    1.083666   1.876965   1.876965   0.000000
 Stoichiometry    CH3(1-,3)
 Framework group  D3H[O(C),3C2(H)]
 Deg. of freedom     1
 Full point group                 D3H     NOp  12
 RotChk:  IX=2 Diff= 3.91D-16
 Largest Abelian subgroup         C2V     NOp   4
 Largest concise Abelian subgroup C2      NOp   2
                         Standard orientation:                         
 ---------------------------------------------------------------------
 Center     Atomic      Atomic             Coordinates (Angstroms)
 Number     Number       Type             X           Y           Z
 ---------------------------------------------------------------------
      1          6           0        0.000000    0.000000    0.000000
      2          1           0       -0.000000    1.083666    0.000000
      3          1           0       -0.938482   -0.541833    0.000000
      4          1           0        0.938482   -0.541833    0.000000
 ---------------------------------------------------------------------
 Rotational constants (GHZ):    284.6752875    284.6752875    142.3376438
 Leave Link  202 at Wed Jan 23 22:07:49 2019, MaxMem=   412876800 cpu:         0.0
 (Enter /usr/local/gaussian/gaussian09/g09/l301.exe)
 Standard basis: 6-311++G(3df,2p) (5D, 7F)
 Ernie: Thresh=  0.10000D-02 Tol=  0.10000D-05 Strict=F.
 There are    35 symmetry adapted cartesian basis functions of A1  symmetry.
 There are     6 symmetry adapted cartesian basis functions of A2  symmetry.
 There are    20 symmetry adapted cartesian basis functions of B1  symmetry.
 There are    14 symmetry adapted cartesian basis functions of B2  symmetry.
 There are    31 symmetry adapted basis functions of A1  symmetry.
 There are     6 symmetry adapted basis functions of A2  symmetry.
 There are    19 symmetry adapted basis functions of B1  symmetry.
 There are    13 symmetry adapted basis functions of B2  symmetry.
    69 basis functions,    94 primitive gaussians,    75 cartesian basis functions
     6 alpha electrons        4 beta electrons
       nuclear repulsion energy         9.6355795932 Hartrees.
 IExCor=  402 DFT=T Ex+Corr=B3LYP ExCW=0 ScaHFX=  0.200000
 ScaDFX=  0.800000  0.720000  1.000000  0.810000 ScalE2=  1.000000  1.000000
 IRadAn=      0 IRanWt=     -1 IRanGd=            0 ICorTp=0 IEmpDi=  4
 NAtoms=    4 NActive=    4 NUniq=    2 SFac= 4.00D+00 NAtFMM=   60 NAOKFM=F Big=F
 Integral buffers will be    131072 words long.
 Raffenetti 2 integral format.
 Two-electron integral symmetry is turned on.
 Leave Link  301 at Wed Jan 23 22:07:49 2019, MaxMem=   412876800 cpu:         0.2
 (Enter /usr/local/gaussian/gaussian09/g09/l302.exe)
 NPDir=0 NMtPBC=     1 NCelOv=     1 NCel=       1 NClECP=     1 NCelD=      1
         NCelK=      1 NCelE2=     1 NClLst=     1 CellRange=     0.0.
 One-electron integrals computed using PRISM.
 One-electron integral symmetry used in STVInt
 NBasis=    69 RedAO= T EigKep=  4.39D-03  NBF=    31     6    19    13
 NBsUse=    69 1.00D-06 EigRej= -1.00D+00 NBFU=    31     6    19    13
 Precomputing XC quadrature grid using
 IXCGrd= 4 IRadAn=           0 IRanWt=          -1 IRanGd=           0 AccXCQ= 0.00D+00.
 Generated NRdTot=       0 NPtTot=           0 NUsed=           0 NTot=          32
 NSgBfM=    75    75    75    75    75 MxSgAt=     4 MxSgA2=     4.
 Leave Link  302 at Wed Jan 23 22:07:49 2019, MaxMem=   412876800 cpu:         0.5
 (Enter /usr/local/gaussian/gaussian09/g09/l303.exe)
 DipDrv:  MaxL=1.
 Leave Link  303 at Wed Jan 23 22:07:49 2019, MaxMem=   412876800 cpu:         0.1
 (Enter /usr/local/gaussian/gaussian09/g09/l401.exe)
 Initial guess from the checkpoint file:  "/scratch/sergio/H3C.q-1.m3-2.com-4919758/Gau-9015.chk"
 B after Tr=     0.000000    0.000000   -0.000000
         Rot=    1.000000    0.000000   -0.000000   -0.000000 Ang=   0.00 deg.
 Guess basis will be translated and rotated to current coordinates.
 JPrj=2 DoOrth=T DoCkMO=T.
 Initial guess orbital symmetries:
 Alpha Orbitals:
       Occupied  (?A) (?A) (?A) (?A) (A2") (?A)
       Virtual   (?A) (?A) (?A) (?A) (?A) (?A) (?A) (?A) (?A) (?A)
                 (?A) (?A) (?A) (?A) (?A) (?A) (?A) (?A) (?A) (?A)
                 (?A) (?A) (?A) (?A) (?A) (?A) (?A) (?B) (?B) (?B)
                 (?B) (?B) (?B) (?A) (?A) (?A) (?A) (?A) (?A) (?A)
                 (?A) (?A) (?A) (?A) (?A) (?A) (?A) (?A) (?A) (?A)
                 (?A) (?B) (?B) (?B) (?B) (?B) (?B) (?B) (?B) (?B)
                 (?B) (?B) (?B)
 Beta  Orbitals:
       Occupied  (?A) (?A) (?A) (?A)
       Virtual   (?A) (?A) (?A) (?A) (?A) (?A) (?A) (?A) (?A) (?A)
                 (?A) (?A) (?A) (?A) (?A) (?A) (?A) (?A) (?A) (?A)
                 (?A) (?A) (?A) (?A) (?A) (?A) (?A) (?A) (?B) (?B)
                 (?B) (?B) (?B) (?B) (?A) (?A) (?A) (?A) (?A) (?A)
                 (?A) (?A) (?A) (?A) (?A) (?A) (?A) (?A) (?A) (?A)
                 (?A) (?A) (?B) (?B) (?B) (?B) (?B) (?B) (?B) (?B)
                 (?B) (?B) (?B) (?B) (?B)
 Initial guess <Sx>= 0.0000 <Sy>= 0.0000 <Sz>= 1.0000 <S**2>= 2.0034 S= 1.0011
 Leave Link  401 at Wed Jan 23 22:07:49 2019, MaxMem=   412876800 cpu:         0.3
 (Enter /usr/local/gaussian/gaussian09/g09/l502.exe)
 UHF open shell SCF:
 Using DIIS extrapolation, IDIIS=  1040.
 Integral symmetry usage will be decided dynamically.
 Keep R1 and R2 ints in memory in symmetry-blocked form, NReq=4924553.
 IVT=       36807 IEndB=       36807 NGot=   412876800 MDV=   411294183
 LenX=   411294183 LenY=   411288117
 Requested convergence on RMS density matrix=1.00D-08 within 128 cycles.
 Requested convergence on MAX density matrix=1.00D-06.
 Requested convergence on             energy=1.00D-06.
 No special actions if energy rises.
 FoFCou: FMM=F IPFlag=           0 FMFlag=           0 FMFlg1=           0
         NFxFlg=           0 DoJE=F BraDBF=F KetDBF=F FulRan=T
         wScrn=  0.000000 ICntrl=     600 IOpCl=  0 I1Cent=           0 NGrid=           0
         NMat0=    1 NMatS0=   2415 NMatT0=    0 NMatD0=    1 NMtDS0=    0 NMtDT0=    0
 Petite list used in FoFCou.

 Cycle   1  Pass 1  IDiag  1:
 E= -39.8270159331246    
 DIIS: error= 6.75D-04 at cycle   1 NSaved=   1.
 NSaved= 1 IEnMin= 1 EnMin= -39.8270159331246     IErMin= 1 ErrMin= 6.75D-04
 ErrMax= 6.75D-04  0.00D+00 EMaxC= 1.00D-01 BMatC= 1.32D-04 BMatP= 1.32D-04
 IDIUse=3 WtCom= 9.93D-01 WtEn= 6.75D-03
 Coeff-Com:  0.100D+01
 Coeff-En:   0.100D+01
 Coeff:      0.100D+01
 Gap=     0.408 Goal=   None    Shift=    0.000
 Gap=     0.525 Goal=   None    Shift=    0.000
 RMSDP=3.07D-03 MaxDP=2.21D-01              OVMax= 4.25D-03

 Cycle   2  Pass 1  IDiag  1:
 E= -39.8270400224618     Delta-E=       -0.000024089337 Rises=F Damp=F
 DIIS: error= 4.98D-04 at cycle   2 NSaved=   2.
 NSaved= 2 IEnMin= 2 EnMin= -39.8270400224618     IErMin= 2 ErrMin= 4.98D-04
 ErrMax= 4.98D-04  0.00D+00 EMaxC= 1.00D-01 BMatC= 2.30D-05 BMatP= 1.32D-04
 IDIUse=3 WtCom= 9.95D-01 WtEn= 4.98D-03
 Coeff-Com:  0.216D+00 0.784D+00
 Coeff-En:   0.000D+00 0.100D+01
 Coeff:      0.215D+00 0.785D+00
 Gap=     0.048 Goal=   None    Shift=    0.000
 Gap=     0.327 Goal=   None    Shift=    0.000
 RMSDP=1.39D-03 MaxDP=9.86D-02 DE=-2.41D-05 OVMax= 2.15D-03

 Cycle   3  Pass 1  IDiag  1:
 E= -39.8270437146317     Delta-E=       -0.000003692170 Rises=F Damp=F
 DIIS: error= 3.06D-04 at cycle   3 NSaved=   3.
 NSaved= 3 IEnMin= 3 EnMin= -39.8270437146317     IErMin= 3 ErrMin= 3.06D-04
 ErrMax= 3.06D-04  0.00D+00 EMaxC= 1.00D-01 BMatC= 1.12D-05 BMatP= 2.30D-05
 IDIUse=3 WtCom= 9.97D-01 WtEn= 3.06D-03
 Coeff-Com:  0.134D-03 0.410D+00 0.590D+00
 Coeff-En:   0.000D+00 0.304D+00 0.696D+00
 Coeff:      0.134D-03 0.409D+00 0.591D+00
 Gap=     0.048 Goal=   None    Shift=    0.000
 Gap=     0.327 Goal=   None    Shift=    0.000
 RMSDP=8.32D-05 MaxDP=5.57D-03 DE=-3.69D-06 OVMax= 7.97D-04

 Cycle   4  Pass 1  IDiag  1:
 E= -39.8270467271713     Delta-E=       -0.000003012540 Rises=F Damp=F
 DIIS: error= 6.38D-06 at cycle   4 NSaved=   4.
 NSaved= 4 IEnMin= 4 EnMin= -39.8270467271713     IErMin= 4 ErrMin= 6.38D-06
 ErrMax= 6.38D-06  0.00D+00 EMaxC= 1.00D-01 BMatC= 9.29D-09 BMatP= 1.12D-05
 IDIUse=1 WtCom= 1.00D+00 WtEn= 0.00D+00
 Coeff-Com: -0.339D-02-0.279D-01-0.345D-01 0.107D+01
 Coeff:     -0.339D-02-0.279D-01-0.345D-01 0.107D+01
 Gap=     0.048 Goal=   None    Shift=    0.000
 Gap=     0.327 Goal=   None    Shift=    0.000
 RMSDP=1.99D-04 MaxDP=1.44D-02 DE=-3.01D-06 OVMax= 1.95D-04

 Cycle   5  Pass 1  IDiag  1:
 E= -39.8270467394714     Delta-E=       -0.000000012300 Rises=F Damp=F
 DIIS: error= 1.67D-06 at cycle   5 NSaved=   5.
 NSaved= 5 IEnMin= 5 EnMin= -39.8270467394714     IErMin= 5 ErrMin= 1.67D-06
 ErrMax= 1.67D-06  0.00D+00 EMaxC= 1.00D-01 BMatC= 5.65D-10 BMatP= 9.29D-09
 IDIUse=1 WtCom= 1.00D+00 WtEn= 0.00D+00
 Coeff-Com:  0.747D-03-0.109D-01-0.119D-01-0.110D+00 0.113D+01
 Coeff:      0.747D-03-0.109D-01-0.119D-01-0.110D+00 0.113D+01
 Gap=     0.048 Goal=   None    Shift=    0.000
 Gap=     0.327 Goal=   None    Shift=    0.000
 RMSDP=6.27D-05 MaxDP=4.55D-03 DE=-1.23D-08 OVMax= 5.86D-05

 Cycle   6  Pass 1  IDiag  1:
 E= -39.8270467401780     Delta-E=       -0.000000000707 Rises=F Damp=F
 DIIS: error= 3.70D-07 at cycle   6 NSaved=   6.
 NSaved= 6 IEnMin= 6 EnMin= -39.8270467401780     IErMin= 6 ErrMin= 3.70D-07
 ErrMax= 3.70D-07  0.00D+00 EMaxC= 1.00D-01 BMatC= 1.12D-11 BMatP= 5.65D-10
 IDIUse=1 WtCom= 1.00D+00 WtEn= 0.00D+00
 Coeff-Com: -0.954D-04 0.260D-02 0.244D-02 0.142D-02-0.203D+00 0.120D+01
 Coeff:     -0.954D-04 0.260D-02 0.244D-02 0.142D-02-0.203D+00 0.120D+01
 Gap=     0.048 Goal=   None    Shift=    0.000
 Gap=     0.327 Goal=   None    Shift=    0.000
 RMSDP=9.61D-06 MaxDP=7.10D-04 DE=-7.07D-10 OVMax= 7.66D-06

 Cycle   7  Pass 1  IDiag  1:
 E= -39.8270467401933     Delta-E=       -0.000000000015 Rises=F Damp=F
 DIIS: error= 1.01D-07 at cycle   7 NSaved=   7.
 NSaved= 7 IEnMin= 7 EnMin= -39.8270467401933     IErMin= 7 ErrMin= 1.01D-07
 ErrMax= 1.01D-07  0.00D+00 EMaxC= 1.00D-01 BMatC= 7.31D-13 BMatP= 1.12D-11
 IDIUse=1 WtCom= 1.00D+00 WtEn= 0.00D+00
 Coeff-Com:  0.302D-06-0.298D-03-0.351D-04 0.371D-02 0.661D-02-0.256D+00
 Coeff-Com:  0.125D+01
 Coeff:      0.302D-06-0.298D-03-0.351D-04 0.371D-02 0.661D-02-0.256D+00
 Coeff:      0.125D+01
 Gap=     0.048 Goal=   None    Shift=    0.000
 Gap=     0.327 Goal=   None    Shift=    0.000
 RMSDP=1.44D-06 MaxDP=1.06D-04 DE=-1.53D-11 OVMax= 1.13D-06

 Cycle   8  Pass 1  IDiag  1:
 E= -39.8270467401939     Delta-E=       -0.000000000001 Rises=F Damp=F
 DIIS: error= 9.12D-09 at cycle   8 NSaved=   8.
 NSaved= 8 IEnMin= 8 EnMin= -39.8270467401939     IErMin= 8 ErrMin= 9.12D-09
 ErrMax= 9.12D-09  0.00D+00 EMaxC= 1.00D-01 BMatC= 5.52D-15 BMatP= 7.31D-13
 IDIUse=1 WtCom= 1.00D+00 WtEn= 0.00D+00
 Coeff-Com: -0.324D-06 0.425D-05-0.282D-04-0.756D-04 0.435D-03 0.550D-02
 Coeff-Com: -0.945D-01 0.109D+01
 Coeff:     -0.324D-06 0.425D-05-0.282D-04-0.756D-04 0.435D-03 0.550D-02
 Coeff:     -0.945D-01 0.109D+01
 Gap=     0.048 Goal=   None    Shift=    0.000
 Gap=     0.327 Goal=   None    Shift=    0.000
 RMSDP=2.74D-08 MaxDP=1.12D-06 DE=-6.11D-13 OVMax= 5.06D-08

 Cycle   9  Pass 1  IDiag  1:
 E= -39.8270467401940     Delta-E=       -0.000000000000 Rises=F Damp=F
 DIIS: error= 1.73D-09 at cycle   9 NSaved=   9.
 NSaved= 9 IEnMin= 9 EnMin= -39.8270467401940     IErMin= 9 ErrMin= 1.73D-09
 ErrMax= 1.73D-09  0.00D+00 EMaxC= 1.00D-01 BMatC= 2.02D-16 BMatP= 5.52D-15
 IDIUse=1 WtCom= 1.00D+00 WtEn= 0.00D+00
 Coeff-Com: -0.146D-07 0.494D-05 0.564D-05-0.821D-04-0.248D-03 0.493D-02
 Coeff-Com: -0.869D-02-0.267D+00 0.127D+01
 Coeff:     -0.146D-07 0.494D-05 0.564D-05-0.821D-04-0.248D-03 0.493D-02
 Coeff:     -0.869D-02-0.267D+00 0.127D+01
 Gap=     0.048 Goal=   None    Shift=    0.000
 Gap=     0.327 Goal=   None    Shift=    0.000
 RMSDP=3.47D-08 MaxDP=2.56D-06 DE=-1.56D-13 OVMax= 2.91D-08

 Cycle  10  Pass 1  IDiag  1:
 E= -39.8270467401939     Delta-E=        0.000000000000 Rises=F Damp=F
 DIIS: error= 2.56D-10 at cycle  10 NSaved=  10.
 NSaved=10 IEnMin= 9 EnMin= -39.8270467401940     IErMin=10 ErrMin= 2.56D-10
 ErrMax= 2.56D-10  0.00D+00 EMaxC= 1.00D-01 BMatC= 8.76D-18 BMatP= 2.02D-16
 IDIUse=1 WtCom= 1.00D+00 WtEn= 0.00D+00
 Coeff-Com: -0.275D-07 0.699D-07 0.662D-06 0.211D-04-0.501D-04-0.813D-03
 Coeff-Com:  0.498D-02-0.186D-02-0.199D+00 0.120D+01
 Coeff:     -0.275D-07 0.699D-07 0.662D-06 0.211D-04-0.501D-04-0.813D-03
 Coeff:      0.498D-02-0.186D-02-0.199D+00 0.120D+01
 Gap=     0.048 Goal=   None    Shift=    0.000
 Gap=     0.327 Goal=   None    Shift=    0.000
 RMSDP=8.57D-09 MaxDP=6.33D-07 DE= 1.49D-13 OVMax= 6.74D-09

 SCF Done:  E(UB3LYP) =  -39.8270467402     A.U. after   10 cycles
            NFock= 10  Conv=0.86D-08     -V/T= 2.0032
 <Sx>= 0.0000 <Sy>= 0.0000 <Sz>= 1.0000 <S**2>= 2.0034 S= 1.0011
 <L.S>= 0.000000000000E+00
 KE= 3.970106953884D+01 PE=-1.126942418408D+02 EE= 2.353054596858D+01
 Annihilation of the first spin contaminant:
 S**2 before annihilation     2.0034,   after     2.0000
 Leave Link  502 at Wed Jan 23 22:07:51 2019, MaxMem=   412876800 cpu:         3.6
 (Enter /usr/local/gaussian/gaussian09/g09/l701.exe)
 Compute integral first derivatives.
 ... and contract with generalized density number  0.
 Leave Link  701 at Wed Jan 23 22:07:51 2019, MaxMem=   412876800 cpu:         0.6
 (Enter /usr/local/gaussian/gaussian09/g09/l702.exe)
 L702 exits ... SP integral derivatives will be done elsewhere.
 Leave Link  702 at Wed Jan 23 22:07:51 2019, MaxMem=   412876800 cpu:         0.1
 (Enter /usr/local/gaussian/gaussian09/g09/l703.exe)
 Compute integral first derivatives, UseDBF=F ICtDFT=           0.
 Integral derivatives from FoFJK, PRISM(SPDF).
 Calling FoFJK, ICntrl=      2127 FMM=F ISym2X=1 I1Cent= 0 IOpClX= 1 NMat=1 NMatS=1 NMatT=0.
 FoFJK:  IHMeth= 1 ICntrl=    2127 DoSepK=F KAlg= 0 I1Cent=   0 FoldK=F
 IRaf=         0 NMat=   1 IRICut=       1 DoRegI=T DoRafI=F ISym2E= 1.
 FoFCou: FMM=F IPFlag=           0 FMFlag=      100000 FMFlg1=         800
         NFxFlg=           0 DoJE=F BraDBF=F KetDBF=F FulRan=T
         wScrn=  0.000000 ICntrl=    2127 IOpCl=  1 I1Cent=           0 NGrid=           0
         NMat0=    1 NMatS0=      1 NMatT0=    0 NMatD0=    1 NMtDS0=    0 NMtDT0=    0
 Petite list used in FoFCou.
 Leave Link  703 at Wed Jan 23 22:07:52 2019, MaxMem=   412876800 cpu:         2.1
 (Enter /usr/local/gaussian/gaussian09/g09/l716.exe)
 Dipole        =-1.11022302D-15 1.11022302D-15-2.44382494D-34
 ***** Axes restored to original set *****
 -------------------------------------------------------------------
 Center     Atomic                   Forces (Hartrees/Bohr)
 Number     Number              X              Y              Z
 -------------------------------------------------------------------
      1        6           0.000000000    0.000000000   -0.000000000
      2        1           0.000000000   -0.000194231    0.000000000
      3        1          -0.000168209    0.000097115    0.000000000
      4        1           0.000168209    0.000097115   -0.000000000
 -------------------------------------------------------------------
 Cartesian Forces:  Max     0.000194231 RMS     0.000097115
 Leave Link  716 at Wed Jan 23 22:07:52 2019, MaxMem=   412876800 cpu:         0.1
 (Enter /usr/local/gaussian/gaussian09/g09/l103.exe)

 GradGradGradGradGradGradGradGradGradGradGradGradGradGradGradGradGradGrad
 Berny optimization.
 Using GEDIIS/GDIIS optimizer.
 FormGI is forming the generalized inverse of G from B-inverse, IUseBI=4.
 Internal  Forces:  Max     0.000194231 RMS     0.000127154
 Search for a local minimum.
 Step number   2 out of a maximum of   20
 All quantities printed in internal units (Hartrees-Bohrs-Radians)
 RMS Force = .12715D-03 SwitMx=.10000D-02 MixMth= 2
 Mixed Optimization -- En-DIIS/RFO-DIIS
 Update second derivatives using D2CorX and points    1    2
 DE= -1.01D-04 DEPred=-9.68D-05 R= 1.05D+00
 TightC=F SS=  1.41D+00  RLast= 2.36D-02 DXNew= 5.0454D-01 7.0815D-02
 Trust test= 1.05D+00 RLast= 2.36D-02 DXMaxT set to 3.00D-01
 The second derivative matrix:
                          R1        R2        R3        A1        A2
           R1           0.34243
           R2          -0.00469   0.34243
           R3          -0.00469  -0.00469   0.34243
           A1          -0.00000  -0.00000  -0.00000   0.16000
           A2           0.00000   0.00000   0.00000  -0.00000   0.16000
           A3           0.00000   0.00000   0.00000  -0.00000   0.00000
           D1           0.00000   0.00000   0.00000  -0.00000   0.00000
                          A3        D1
           A3           0.16000
           D1           0.00000   0.00230
 ITU=  1  0
 Use linear search instead of GDIIS.
     Eigenvalues ---    0.00230   0.16000   0.16000   0.33306   0.34711
     Eigenvalues ---    0.34711
 RFO step:  Lambda= 0.00000000D+00 EMin= 2.30000000D-03
 Quartic linear search produced a step of  0.04181.
 Iteration  1 RMS(Cart)=  0.00037304 RMS(Int)=  0.00000000
 Iteration  2 RMS(Cart)=  0.00000000 RMS(Int)=  0.00000000
 ITry= 1 IFail=0 DXMaxC= 5.70D-04 DCOld= 1.00D+10 DXMaxT= 3.00D-01 DXLimC= 3.00D+00 Rises=F
 ClnCor:  largest displacement from symmetrization is 3.21D-14 for atom     4.
 Variable       Old X    -DE/DX   Delta X   Delta X   Delta X     New X
                                 (Linear)    (Quad)   (Total)
    R1        2.04783  -0.00019  -0.00057  -0.00000  -0.00057   2.04726
    R2        2.04783  -0.00019  -0.00057   0.00000  -0.00057   2.04726
    R3        2.04783  -0.00019  -0.00057   0.00000  -0.00057   2.04726
    A1        2.09440  -0.00000   0.00000  -0.00000  -0.00000   2.09440
    A2        2.09440  -0.00000  -0.00000  -0.00000   0.00000   2.09440
    A3        2.09440   0.00000  -0.00000   0.00000   0.00000   2.09440
    D1        3.14159   0.00000   0.00000   0.00000   0.00000   3.14159
         Item               Value     Threshold  Converged?
 Maximum Force            0.000194     0.000450     YES
 RMS     Force            0.000127     0.000300     YES
 Maximum Displacement     0.000570     0.001800     YES
 RMS     Displacement     0.000373     0.001200     YES
 Predicted change in Energy=-1.698176D-07
 Optimization completed.
    -- Stationary point found.
                           ----------------------------
                           !   Optimized Parameters   !
                           ! (Angstroms and Degrees)  !
 --------------------------                            --------------------------
 ! Name  Definition              Value          Derivative Info.                !
 --------------------------------------------------------------------------------
 ! R1    R(1,2)                  1.0837         -DE/DX =   -0.0002              !
 ! R2    R(1,3)                  1.0837         -DE/DX =   -0.0002              !
 ! R3    R(1,4)                  1.0837         -DE/DX =   -0.0002              !
 ! A1    A(2,1,3)              120.0            -DE/DX =    0.0                 !
 ! A2    A(2,1,4)              120.0            -DE/DX =    0.0                 !
 ! A3    A(3,1,4)              120.0            -DE/DX =    0.0                 !
 ! D1    D(2,1,4,3)            180.0            -DE/DX =    0.0                 !
 --------------------------------------------------------------------------------
 Lowest energy point so far.  Saving SCF results.
 GradGradGradGradGradGradGradGradGradGradGradGradGradGradGradGradGradGrad

 Largest change from initial coordinates is atom    4       0.007 Angstoms.
 Leave Link  103 at Wed Jan 23 22:07:53 2019, MaxMem=   412876800 cpu:         0.0
 (Enter /usr/local/gaussian/gaussian09/g09/l202.exe)
                          Input orientation:                          
 ---------------------------------------------------------------------
 Center     Atomic      Atomic             Coordinates (Angstroms)
 Number     Number       Type             X           Y           Z
 ---------------------------------------------------------------------
      1          6           0        0.000000   -0.000000    0.000000
      2          1           0       -0.000000    1.083666    0.000000
      3          1           0        0.938482   -0.541833    0.000000
      4          1           0       -0.938482   -0.541833    0.000000
 ---------------------------------------------------------------------
                    Distance matrix (angstroms):
                    1          2          3          4
     1  C    0.000000
     2  H    1.083666   0.000000
     3  H    1.083666   1.876965   0.000000
     4  H    1.083666   1.876965   1.876965   0.000000
 Stoichiometry    CH3(1-,3)
 Framework group  D3H[O(C),3C2(H)]
 Deg. of freedom     1
 Full point group                 D3H     NOp  12
 RotChk:  IX=2 Diff= 2.83D-16
 Largest Abelian subgroup         C2V     NOp   4
 Largest concise Abelian subgroup C2      NOp   2
                         Standard orientation:                         
 ---------------------------------------------------------------------
 Center     Atomic      Atomic             Coordinates (Angstroms)
 Number     Number       Type             X           Y           Z
 ---------------------------------------------------------------------
      1          6           0        0.000000    0.000000    0.000000
      2          1           0       -0.000000    1.083666    0.000000
      3          1           0       -0.938482   -0.541833    0.000000
      4          1           0        0.938482   -0.541833    0.000000
 ---------------------------------------------------------------------
 Rotational constants (GHZ):    284.6752875    284.6752875    142.3376438
 Leave Link  202 at Wed Jan 23 22:07:53 2019, MaxMem=   412876800 cpu:         0.0
 (Enter /usr/local/gaussian/gaussian09/g09/l601.exe)
 Copying SCF densities to generalized density rwf, IOpCl= 1 IROHF=0.

 **********************************************************************

            Population analysis using the SCF density.

 **********************************************************************

 Orbital symmetries:
 Alpha Orbitals:
       Occupied  (?A) (?A) (?B) (?B) (A2") (?A)
       Virtual   (?B) (?B) (A2") (?B) (?B) (?A) (?A) (?B) (?B)
                 (?C) (?C) (?B) (?B) (?A) (A2") (?A) (?B) (?B)
                 (?B) (?B) (?A) (?A) (?C) (?C) (A2") (?B) (?B)
                 (?A) (?B) (?B) (?C) (?C) (?A) (?B) (?B) (?A) (?B)
                 (?B) (A2") (?A) (?C) (?C) (A2") (?B) (?B) (?B)
                 (?B) (?A) (?B) (?B) (A2") (?C) (?C) (?A) (?A)
                 (?B) (?B) (?C) (?C) (?A) (?B) (?B) (?A)
 Beta  Orbitals:
       Occupied  (?A) (?A) (?B) (?B)
       Virtual   (A2") (?A) (?B) (?B) (?B) (?B) (A2") (?A) (?A)
                 (?B) (?B) (?C) (?C) (?B) (?B) (?A) (?A) (A2")
                 (?B) (?B) (?B) (?B) (?A) (?A) (?C) (?C) (A2")
                 (?B) (?B) (?A) (?B) (?B) (?C) (?C) (?A) (?B) (?B)
                 (?A) (?B) (?B) (A2") (?A) (?C) (?C) (A2") (?B)
                 (?B) (?B) (?B) (?A) (?B) (?B) (A2") (?C) (?C)
                 (?A) (?A) (?B) (?B) (?C) (?C) (?A) (?B) (?B) (?A)
 Unable to determine electronic state:  an orbital has unidentified symmetry.
 Alpha  occ. eigenvalues --  -10.02257  -0.53000  -0.26511  -0.26511  -0.07902
 Alpha  occ. eigenvalues --    0.07172
 Alpha virt. eigenvalues --    0.12006   0.12006   0.18606   0.20388   0.20388
 Alpha virt. eigenvalues --    0.23875   0.28290   0.31932   0.31932   0.45432
 Alpha virt. eigenvalues --    0.45432   0.47554   0.47554   0.52873   0.67372
 Alpha virt. eigenvalues --    0.71241   0.75365   0.75365   0.87125   0.87125
 Alpha virt. eigenvalues --    0.87499   0.97800   1.07386   1.07386   1.11826
 Alpha virt. eigenvalues --    1.24002   1.24002   1.48259   1.54182   1.54182
 Alpha virt. eigenvalues --    1.79651   1.79651   2.10411   2.17233   2.17233
 Alpha virt. eigenvalues --    2.58456   2.77838   2.77838   2.83528   3.06665
 Alpha virt. eigenvalues --    3.13395   3.13395   3.14250   3.22131   3.22131
 Alpha virt. eigenvalues --    3.72658   3.72658   3.99805   4.30575   4.30575
 Alpha virt. eigenvalues --    4.31024   4.35709   4.35709   4.95869   5.36227
 Alpha virt. eigenvalues --    5.71985   5.71985   7.18218   7.18218   7.30900
 Alpha virt. eigenvalues --    7.77307   7.77307  24.37002
  Beta  occ. eigenvalues --  -10.00746  -0.48923  -0.25471  -0.25471
  Beta virt. eigenvalues --    0.07237   0.11353   0.14274   0.14274   0.21568
  Beta virt. eigenvalues --    0.21568   0.21729   0.24976   0.30166   0.32798
  Beta virt. eigenvalues --    0.32798   0.47041   0.47041   0.48129   0.48129
  Beta virt. eigenvalues --    0.55870   0.72036   0.73671   0.76551   0.76551
  Beta virt. eigenvalues --    0.88060   0.88060   0.89218   0.97743   1.08293
  Beta virt. eigenvalues --    1.08293   1.13382   1.24074   1.24074   1.52239
  Beta virt. eigenvalues --    1.54834   1.54834   1.85049   1.85049   2.15337
  Beta virt. eigenvalues --    2.18139   2.18139   2.58728   2.79532   2.79532
  Beta virt. eigenvalues --    2.91300   3.06731   3.16530   3.16530   3.19889
  Beta virt. eigenvalues --    3.26254   3.26254   3.73517   3.73517   4.00208
  Beta virt. eigenvalues --    4.30078   4.30078   4.32158   4.36586   4.36586
  Beta virt. eigenvalues --    4.95871   5.37473   5.72500   5.72500   7.25061
  Beta virt. eigenvalues --    7.25061   7.40893   7.78375   7.78375  24.38675
          Condensed to atoms (all electrons):
               1          2          3          4
     1  C   21.198544  -5.720258  -5.720258  -5.720258
     2  H   -5.720258   3.334954   2.186357   2.186357
     3  H   -5.720258   2.186357   3.334954   2.186357
     4  H   -5.720258   2.186357   2.186357   3.334954
          Atomic-Atomic Spin Densities.
               1          2          3          4
     1  C   17.048443  -6.119471  -6.119471  -6.119471
     2  H   -6.119471   2.786449   2.218173   2.218173
     3  H   -6.119471   2.218173   2.786449   2.218173
     4  H   -6.119471   2.218173   2.218173   2.786449
 Mulliken charges and spin densities:
               1          2
     1  C    1.962230  -1.309971
     2  H   -0.987410   1.103324
     3  H   -0.987410   1.103324
     4  H   -0.987410   1.103324
 Sum of Mulliken charges =  -1.00000   2.00000
 Mulliken charges and spin densities with hydrogens summed into heavy atoms:
               1          2
     1  C   -1.000000   2.000000
 Electronic spatial extent (au):  <R**2>=             78.8688
 Charge=             -1.0000 electrons
 Dipole moment (field-independent basis, Debye):
    X=             -0.0000    Y=              0.0000    Z=             -0.0000  Tot=              0.0000
 Quadrupole moment (field-independent basis, Debye-Ang):
   XX=            -32.7770   YY=            -32.7770   ZZ=            -23.6057
   XY=              0.0000   XZ=              0.0000   YZ=              0.0000
 Traceless Quadrupole moment (field-independent basis, Debye-Ang):
   XX=             -3.0571   YY=             -3.0571   ZZ=              6.1142
   XY=              0.0000   XZ=              0.0000   YZ=              0.0000
 Octapole moment (field-independent basis, Debye-Ang**2):
  XXX=             -0.0000  YYY=             -4.2452  ZZZ=             -0.0000  XYY=             -0.0000
  XXY=              4.2452  XXZ=             -0.0000  XZZ=             -0.0000  YZZ=              0.0000
  YYZ=              0.0000  XYZ=              0.0000
 Hexadecapole moment (field-independent basis, Debye-Ang**3):
 XXXX=           -301.1493 YYYY=           -301.1493 ZZZZ=           -134.0341 XXXY=             -0.0000
 XXXZ=              0.0000 YYYX=             -0.0000 YYYZ=              0.0000 ZZZX=              0.0000
 ZZZY=              0.0000 XXYY=           -100.3831 XXZZ=            -69.7696 YYZZ=            -69.7696
 XXYZ=              0.0000 YYXZ=              0.0000 ZZXY=              0.0000
 N-N= 9.635579593185D+00 E-N=-1.126942418469D+02  KE= 3.970106953884D+01
 Symmetry A1   KE= 3.664211944705D+01
 Symmetry A2   KE=-2.542406396954D-19
 Symmetry B1   KE= 1.975523768853D+00
 Symmetry B2   KE= 1.083426322941D+00
                          Isotropic Fermi Contact Couplings
        Atom                 a.u.       MegaHertz       Gauss      10(-4) cm-1
     1  C(13)              0.21378     120.16543      42.87801      40.08287
     2  H(1)              -0.01317     -29.44270     -10.50589      -9.82103
     3  H(1)              -0.01317     -29.44270     -10.50589      -9.82103
     4  H(1)              -0.01317     -29.44270     -10.50589      -9.82103
 --------------------------------------------------------
       Center         ----  Spin Dipole Couplings  ----
                      3XX-RR        3YY-RR        3ZZ-RR
 --------------------------------------------------------
     1   Atom       -0.570098     -0.570098      1.140195
     2   Atom       -0.076103      0.078798     -0.002695
     3   Atom        0.040073     -0.037378     -0.002695
     4   Atom        0.040073     -0.037378     -0.002695
 --------------------------------------------------------
                        XY            XZ            YZ
 --------------------------------------------------------
     1   Atom        0.000000      0.000000      0.000000
     2   Atom        0.000000      0.000000      0.000000
     3   Atom        0.067074      0.000000      0.000000
     4   Atom       -0.067074      0.000000      0.000000
 --------------------------------------------------------


 ---------------------------------------------------------------------------------
              Anisotropic Spin Dipole Couplings in Principal Axis System
 ---------------------------------------------------------------------------------

       Atom             a.u.   MegaHertz   Gauss  10(-4) cm-1        Axes

              Baa    -0.5701   -76.502   -27.298   -25.518 -0.0226  0.9997  0.0000
     1 C(13)  Bbb    -0.5701   -76.502   -27.298   -25.518  0.9997  0.0226  0.0000
              Bcc     1.1402   153.003    54.595    51.036  0.0000  0.0000  1.0000
 
              Baa    -0.0761   -40.605   -14.489   -13.544  1.0000 -0.0000 -0.0000
     2 H(1)   Bbb    -0.0027    -1.438    -0.513    -0.480  0.0000  0.0000  1.0000
              Bcc     0.0788    42.043    15.002    14.024  0.0000  1.0000  0.0000
 
              Baa    -0.0761   -40.605   -14.489   -13.544 -0.5000  0.8660 -0.0000
     3 H(1)   Bbb    -0.0027    -1.438    -0.513    -0.480  0.0000  0.0000  1.0000
              Bcc     0.0788    42.043    15.002    14.024  0.8660  0.5000  0.0000
 
              Baa    -0.0761   -40.605   -14.489   -13.544  0.5000  0.8660  0.0000
     4 H(1)   Bbb    -0.0027    -1.438    -0.513    -0.480  0.0000  0.0000  1.0000
              Bcc     0.0788    42.043    15.002    14.024  0.8660 -0.5000 -0.0000
 

 ---------------------------------------------------------------------------------

 No NMR shielding tensors so no spin-rotation constants.
 Leave Link  601 at Wed Jan 23 22:07:53 2019, MaxMem=   412876800 cpu:         0.9
 (Enter /usr/local/gaussian/gaussian09/g09/l9999.exe)
 1\1\GINC-PANORAMIX\FOpt\UB3LYP\6-311++G(3df,2p)\C1H3(1-,3)\SERGIO\23-J
 an-2019\0\\#p b3lyp/6-311++G(3df,2p) opt freq symmetry=Loose\\b3lyp op
 t\\-1,3\C,0.,0.,0.\H,-0.00000003,1.083666163,0.\H,0.9384824414,-0.5418
 330555,0.\H,-0.9384824114,-0.5418331075,0.\\Version=EM64L-G09RevE.01\H
 F=-39.8270467\S2=2.003371\S2-1=0.\S2A=2.000004\RMSD=8.572e-09\RMSF=9.7
 12e-05\Dipole=0.,0.,0.\Quadrupole=-2.2728746,-2.2728746,4.5457492,0.,0
 .,0.\PG=D03H [O(C1),3C2(H1)]\\@


 TOWERING GENIUS DISDAINS A BEATEN PATH.  IT SEEKS 
 REGIONS HITHERTO UNEXPLORED.

                                -- ABRAHAM LINCOLN
 Leave Link 9999 at Wed Jan 23 22:07:53 2019, MaxMem=   412876800 cpu:         0.1
 Job cpu time:       0 days  0 hours  0 minutes 18.7 seconds.
 File lengths (MBytes):  RWF=      6 Int=      0 D2E=      0 Chk=      2 Scr=      1
 Normal termination of Gaussian 09 at Wed Jan 23 22:07:53 2019.
 (Enter /usr/local/gaussian/gaussian09/g09/l1.exe)
 Link1:  Proceeding to internal job step number  2.
 ----------------------------------------------------------------------
 #P Geom=AllCheck Guess=TCheck SCRF=Check GenChk UB3LYP/6-311++G(3df,2p
 ) Freq
 ----------------------------------------------------------------------
 1/10=4,29=7,30=1,38=1,40=1/1,3;
 2/12=2,17=4,18=3,40=1/2;
 3/5=4,6=6,7=1216,11=2,14=-4,16=1,25=1,30=1,70=2,71=2,74=-5,116=2,140=1/1,2,3;
 4/5=101/1;
 5/5=2,38=6,98=1/2;
 8/6=4,10=90,11=11/1;
 11/6=1,8=1,9=11,15=111,16=1/1,2,10;
 10/6=1/2;
 6/7=2,8=2,9=2,10=2,18=1,28=1/1;
 7/8=1,10=1,25=1/1,2,3,16;
 1/10=4,30=1/3;
 99//99;
 Leave Link    1 at Wed Jan 23 22:07:53 2019, MaxMem=   412876800 cpu:         0.1
 (Enter /usr/local/gaussian/gaussian09/g09/l101.exe)
 Structure from the checkpoint file:  "/scratch/sergio/H3C.q-1.m3-2.com-4919758/Gau-9015.chk"
 ---------
 b3lyp opt
 ---------
 Charge = -1 Multiplicity = 3
 Redundant internal coordinates found in file.
 C,0,0.,0.,0.
 H,0,-0.00000003,1.083666163,0.
 H,0,0.9384824414,-0.5418330555,0.
 H,0,-0.9384824114,-0.5418331075,0.
 Recover connectivity data from disk.
 NAtoms=      4 NQM=        4 NQMF=       0 NMMI=      0 NMMIF=      0
                NMic=       0 NMicF=      0.
                    Isotopes and Nuclear Properties:
 (Nuclear quadrupole moments (NQMom) in fm**2, nuclear magnetic moments (NMagM)
  in nuclear magnetons)

  Atom         1           2           3           4
 IAtWgt=          12           1           1           1
 AtmWgt=  12.0000000   1.0078250   1.0078250   1.0078250
 NucSpn=           0           1           1           1
 AtZEff=  -3.6000000  -1.0000000  -1.0000000  -1.0000000
 NQMom=    0.0000000   0.0000000   0.0000000   0.0000000
 NMagM=    0.0000000   2.7928460   2.7928460   2.7928460
 AtZNuc=   6.0000000   1.0000000   1.0000000   1.0000000
 Leave Link  101 at Wed Jan 23 22:07:53 2019, MaxMem=   412876800 cpu:         0.3
 (Enter /usr/local/gaussian/gaussian09/g09/l103.exe)

 GradGradGradGradGradGradGradGradGradGradGradGradGradGradGradGradGradGrad
 Berny optimization.
 Initialization pass.
                           ----------------------------
                           !    Initial Parameters    !
                           ! (Angstroms and Degrees)  !
 --------------------------                            --------------------------
 ! Name  Definition              Value          Derivative Info.                !
 --------------------------------------------------------------------------------
 ! R1    R(1,2)                  1.0837         calculate D2E/DX2 analytically  !
 ! R2    R(1,3)                  1.0837         calculate D2E/DX2 analytically  !
 ! R3    R(1,4)                  1.0837         calculate D2E/DX2 analytically  !
 ! A1    A(2,1,3)              120.0            calculate D2E/DX2 analytically  !
 ! A2    A(2,1,4)              120.0            calculate D2E/DX2 analytically  !
 ! A3    A(3,1,4)              120.0            calculate D2E/DX2 analytically  !
 ! D1    D(2,1,4,3)            180.0            calculate D2E/DX2 analytically  !
 --------------------------------------------------------------------------------
 Trust Radius=3.00D-01 FncErr=1.00D-07 GrdErr=1.00D-07
 Number of steps in this run=      2 maximum allowed number of steps=      2.
 GradGradGradGradGradGradGradGradGradGradGradGradGradGradGradGradGradGrad

 Leave Link  103 at Wed Jan 23 22:07:53 2019, MaxMem=   412876800 cpu:         0.0
 (Enter /usr/local/gaussian/gaussian09/g09/l202.exe)
                          Input orientation:                          
 ---------------------------------------------------------------------
 Center     Atomic      Atomic             Coordinates (Angstroms)
 Number     Number       Type             X           Y           Z
 ---------------------------------------------------------------------
      1          6           0       -0.000000    0.000000    0.000000
      2          1           0       -0.000000    1.083666    0.000000
      3          1           0        0.938482   -0.541833    0.000000
      4          1           0       -0.938482   -0.541833    0.000000
 ---------------------------------------------------------------------
                    Distance matrix (angstroms):
                    1          2          3          4
     1  C    0.000000
     2  H    1.083666   0.000000
     3  H    1.083666   1.876965   0.000000
     4  H    1.083666   1.876965   1.876965   0.000000
 Stoichiometry    CH3(1-,3)
 Framework group  D3H[O(C),3C2(H)]
 Deg. of freedom     1
 Full point group                 D3H     NOp  12
 RotChk:  IX=2 Diff= 1.57D-16
 Largest Abelian subgroup         C2V     NOp   4
 Largest concise Abelian subgroup C2      NOp   2
                         Standard orientation:                         
 ---------------------------------------------------------------------
 Center     Atomic      Atomic             Coordinates (Angstroms)
 Number     Number       Type             X           Y           Z
 ---------------------------------------------------------------------
      1          6           0        0.000000    0.000000    0.000000
      2          1           0       -0.000000    1.083666    0.000000
      3          1           0       -0.938482   -0.541833    0.000000
      4          1           0        0.938482   -0.541833    0.000000
 ---------------------------------------------------------------------
 Rotational constants (GHZ):    284.6752875    284.6752875    142.3376438
 Leave Link  202 at Wed Jan 23 22:07:53 2019, MaxMem=   412876800 cpu:         0.0
 (Enter /usr/local/gaussian/gaussian09/g09/l301.exe)
 Standard basis: 6-311++G(3df,2p) (5D, 7F)
 Ernie: Thresh=  0.10000D-02 Tol=  0.10000D-05 Strict=F.
 There are    35 symmetry adapted cartesian basis functions of A1  symmetry.
 There are     6 symmetry adapted cartesian basis functions of A2  symmetry.
 There are    20 symmetry adapted cartesian basis functions of B1  symmetry.
 There are    14 symmetry adapted cartesian basis functions of B2  symmetry.
 There are    31 symmetry adapted basis functions of A1  symmetry.
 There are     6 symmetry adapted basis functions of A2  symmetry.
 There are    19 symmetry adapted basis functions of B1  symmetry.
 There are    13 symmetry adapted basis functions of B2  symmetry.
    69 basis functions,    94 primitive gaussians,    75 cartesian basis functions
     6 alpha electrons        4 beta electrons
       nuclear repulsion energy         9.6355795932 Hartrees.
 IExCor=  402 DFT=T Ex+Corr=B3LYP ExCW=0 ScaHFX=  0.200000
 ScaDFX=  0.800000  0.720000  1.000000  0.810000 ScalE2=  1.000000  1.000000
 IRadAn=      0 IRanWt=     -1 IRanGd=            0 ICorTp=0 IEmpDi=  4
 NAtoms=    4 NActive=    4 NUniq=    2 SFac= 4.00D+00 NAtFMM=   60 NAOKFM=F Big=F
 Integral buffers will be    131072 words long.
 Raffenetti 2 integral format.
 Two-electron integral symmetry is turned on.
 Leave Link  301 at Wed Jan 23 22:07:53 2019, MaxMem=   412876800 cpu:         0.2
 (Enter /usr/local/gaussian/gaussian09/g09/l302.exe)
 NPDir=0 NMtPBC=     1 NCelOv=     1 NCel=       1 NClECP=     1 NCelD=      1
         NCelK=      1 NCelE2=     1 NClLst=     1 CellRange=     0.0.
 One-electron integrals computed using PRISM.
 One-electron integral symmetry used in STVInt
 NBasis=    69 RedAO= T EigKep=  4.39D-03  NBF=    31     6    19    13
 NBsUse=    69 1.00D-06 EigRej= -1.00D+00 NBFU=    31     6    19    13
 Precomputing XC quadrature grid using
 IXCGrd= 4 IRadAn=           0 IRanWt=          -1 IRanGd=           0 AccXCQ= 0.00D+00.
 Generated NRdTot=       0 NPtTot=           0 NUsed=           0 NTot=          32
 NSgBfM=    75    75    75    75    75 MxSgAt=     4 MxSgA2=     4.
 Leave Link  302 at Wed Jan 23 22:07:54 2019, MaxMem=   412876800 cpu:         0.5
 (Enter /usr/local/gaussian/gaussian09/g09/l303.exe)
 DipDrv:  MaxL=1.
 Leave Link  303 at Wed Jan 23 22:07:54 2019, MaxMem=   412876800 cpu:         0.1
 (Enter /usr/local/gaussian/gaussian09/g09/l401.exe)
 Initial guess from the checkpoint file:  "/scratch/sergio/H3C.q-1.m3-2.com-4919758/Gau-9015.chk"
 B after Tr=     0.000000    0.000000    0.000000
         Rot=    1.000000    0.000000   -0.000000   -0.000000 Ang=   0.00 deg.
 Guess basis will be translated and rotated to current coordinates.
 JPrj=2 DoOrth=T DoCkMO=T.
 Initial guess orbital symmetries:
 Alpha Orbitals:
       Occupied  (?A) (?A) (?B) (?B) (A2") (?A)
       Virtual   (?B) (?B) (A2") (?B) (?B) (?A) (?A) (?B) (?B)
                 (?C) (?C) (?B) (?B) (?A) (A2") (?A) (?B) (?B)
                 (?B) (?B) (?A) (?A) (?C) (?C) (A2") (?B) (?B)
                 (?A) (?B) (?B) (?C) (?C) (?A) (?B) (?B) (?A) (?B)
                 (?B) (A2") (?A) (?C) (?C) (A2") (?B) (?B) (?B)
                 (?B) (?A) (?B) (?B) (A2") (?C) (?C) (?A) (?A)
                 (?B) (?B) (?C) (?C) (?A) (?B) (?B) (?A)
 Beta  Orbitals:
       Occupied  (?A) (?A) (?B) (?B)
       Virtual   (A2") (?A) (?B) (?B) (?B) (?B) (A2") (?A) (?A)
                 (?B) (?B) (?C) (?C) (?B) (?B) (?A) (?A) (A2")
                 (?B) (?B) (?B) (?B) (?A) (?A) (?C) (?C) (A2")
                 (?B) (?B) (?A) (?B) (?B) (?C) (?C) (?A) (?B) (?B)
[...]
              Bcc     1.1402   153.003    54.595    51.036  0.0000  0.0000  1.0000
 
              Baa    -0.0761   -40.605   -14.489   -13.544  1.0000  0.0000  0.0000
     2 H(1)   Bbb    -0.0027    -1.438    -0.513    -0.480  0.0000  0.0000  1.0000
              Bcc     0.0788    42.043    15.002    14.024 -0.0000  1.0000  0.0000
 
              Baa    -0.0761   -40.605   -14.489   -13.544 -0.5000  0.8660 -0.0000
     3 H(1)   Bbb    -0.0027    -1.438    -0.513    -0.480  0.0000  0.0000  1.0000
              Bcc     0.0788    42.043    15.002    14.024  0.8660  0.5000  0.0000
 
              Baa    -0.0761   -40.605   -14.489   -13.544  0.5000  0.8660  0.0000
     4 H(1)   Bbb    -0.0027    -1.438    -0.513    -0.480  0.0000  0.0000  1.0000
              Bcc     0.0788    42.043    15.002    14.024  0.8660 -0.5000 -0.0000
 

 ---------------------------------------------------------------------------------

 No NMR shielding tensors so no spin-rotation constants.
 Leave Link  601 at Wed Jan 23 22:08:08 2019, MaxMem=   412876800 cpu:         0.9
 (Enter /usr/local/gaussian/gaussian09/g09/l701.exe)
 Compute integral second derivatives.
 ... and contract with generalized density number  0.
 Leave Link  701 at Wed Jan 23 22:08:08 2019, MaxMem=   412876800 cpu:         0.8
 (Enter /usr/local/gaussian/gaussian09/g09/l702.exe)
 L702 exits ... SP integral derivatives will be done elsewhere.
 Leave Link  702 at Wed Jan 23 22:08:09 2019, MaxMem=   412876800 cpu:         0.0
 (Enter /usr/local/gaussian/gaussian09/g09/l703.exe)
 Compute integral second derivatives, UseDBF=F ICtDFT=           0.
 Integral derivatives from FoFJK, PRISM(SPDF).
 Calling FoFJK, ICntrl=    100127 FMM=F ISym2X=1 I1Cent= 0 IOpClX= 1 NMat=1 NMatS=1 NMatT=0.
 FoFJK:  IHMeth= 1 ICntrl=  100127 DoSepK=F KAlg= 0 I1Cent=   0 FoldK=F
 IRaf=         0 NMat=   1 IRICut=       1 DoRegI=T DoRafI=F ISym2E= 1.
 FoFCou: FMM=F IPFlag=           0 FMFlag=      100000 FMFlg1=         800
         NFxFlg=           0 DoJE=F BraDBF=F KetDBF=F FulRan=T
         wScrn=  0.000000 ICntrl=  100127 IOpCl=  1 I1Cent=           0 NGrid=           0
         NMat0=    1 NMatS0=      1 NMatT0=    0 NMatD0=    1 NMtDS0=    0 NMtDT0=    0
 Petite list used in FoFCou.
 Leave Link  703 at Wed Jan 23 22:08:13 2019, MaxMem=   412876800 cpu:         7.9
 (Enter /usr/local/gaussian/gaussian09/g09/l716.exe)
 Dipole        =-1.56153302D-14 1.21992802D-14 9.02700184D-35
 Polarizability= 8.97307424D+02-1.30827394D-07 8.95222960D+02
                -1.65088673D-07-6.69097034D-08 1.62805036D+02
 Full mass-weighted force constant matrix:
 Low frequencies ---   -0.3517   -0.0979   -0.0216   46.5402   47.9798   47.9811
 Low frequencies ---  500.1189 1379.7764 1379.7876
 Diagonal vibrational polarizability:
        3.9374730       3.9559424      25.7714887
 Harmonic frequencies (cm**-1), IR intensities (KM/Mole), Raman scattering
 activities (A**4/AMU), depolarization ratios for plane and unpolarized
 incident light, reduced masses (AMU), force constants (mDyne/A),
 and normal coordinates:
                      1                      2                      3
                     A2"                    ?A                     ?A
 Frequencies --    500.1189              1379.7764              1379.7876
 Red. masses --      1.2356                 1.1010                 1.1010
 Frc consts  --      0.1821                 1.2349                 1.2350
 IR Inten    --    239.5261               278.2323               279.5171
  Atom  AN      X      Y      Z        X      Y      Z        X      Y      Z
     1   6    -0.00  -0.00  -0.14    -0.09  -0.00   0.00     0.00  -0.09   0.00
     2   1     0.00   0.00   0.57     0.81  -0.00  -0.00    -0.00  -0.08  -0.00
     3   1    -0.00  -0.00   0.57     0.14  -0.38  -0.00    -0.38   0.59  -0.00
     4   1     0.00  -0.00   0.57     0.14   0.38  -0.00     0.38   0.59  -0.00
                      4                      5                      6
                     ?B                     ?A                     ?A
 Frequencies --   2988.2641              3206.1072              3206.1179
 Red. masses --      1.0078                 1.1195                 1.1195
 Frc consts  --      5.3024                 6.7799                 6.7799
 IR Inten    --      0.0001                 1.7108                 1.8530
  Atom  AN      X      Y      Z        X      Y      Z        X      Y      Z
     1   6    -0.00   0.00   0.00    -0.10  -0.00   0.00     0.00  -0.10   0.00
     2   1    -0.00   0.58  -0.00    -0.01   0.00  -0.00     0.00   0.81  -0.00
     3   1    -0.50  -0.29  -0.00     0.61   0.36  -0.00     0.36   0.19  -0.00
     4   1     0.50  -0.29  -0.00     0.61  -0.36  -0.00    -0.36   0.19  -0.00

 -------------------
 - Thermochemistry -
 -------------------
 Temperature   298.150 Kelvin.  Pressure   1.00000 Atm.
 Atom     1 has atomic number  6 and mass  12.00000
 Atom     2 has atomic number  1 and mass   1.00783
 Atom     3 has atomic number  1 and mass   1.00783
 Atom     4 has atomic number  1 and mass   1.00783
 Molecular mass:    15.02348 amu.
 Principal axes and moments of inertia in atomic units:
                           1         2         3
     Eigenvalues --     6.33965   6.33965  12.67930
           X           -0.00000   1.00000   0.00000
           Y            1.00000   0.00000   0.00000
           Z            0.00000   0.00000   1.00000
 This molecule is an oblate symmetric top.
 Rotational symmetry number  6.
 Rotational temperatures (Kelvin)     13.66224    13.66224     6.83112
 Rotational constants (GHZ):         284.67529   284.67529   142.33764
 Zero-point vibrational energy      75724.6 (Joules/Mol)
                                   18.09862 (Kcal/Mol)
 Warning -- explicit consideration of   1 degrees of freedom as
           vibrations may cause significant error
 Vibrational temperatures:    719.56  1985.19  1985.20  4299.44  4612.87
          (Kelvin)           4612.88
 
 Zero-point correction=                           0.028842 (Hartree/Particle)
 Thermal correction to Energy=                    0.031915
 Thermal correction to Enthalpy=                  0.032859
 Thermal correction to Gibbs Free Energy=         0.010345
 Sum of electronic and zero-point Energies=            -39.798205
 Sum of electronic and thermal Energies=               -39.795132
 Sum of electronic and thermal Enthalpies=             -39.794188
 Sum of electronic and thermal Free Energies=          -39.816701
 
                     E (Thermal)             CV                S
                      KCal/Mol        Cal/Mol-Kelvin    Cal/Mol-Kelvin
 Total                   20.027              7.438             47.384
 Electronic               0.000              0.000              2.183
 Translational            0.889              2.981             34.068
 Rotational               0.889              2.981             10.436
 Vibrational             18.249              1.477              0.697
 Vibration     1          0.856              1.250              0.658
                       Q            Log10(Q)             Ln(Q)
 Total Bot       0.174386D-04         -4.758488        -10.956823
 Total V=0       0.322018D+09          8.507880         19.590118
 Vib (Bot)       0.596310D-13        -13.224528        -30.450601
 Vib (Bot)    1  0.328593D+00         -0.483341         -1.112934
 Vib (V=0)       0.110113D+01          0.041840          0.096341
 Vib (V=0)    1  0.109831D+01          0.040725          0.093772
 Electronic      0.300000D+01          0.477121          1.098612
 Translational   0.228882D+07          6.359611         14.643545
 Rotational      0.425900D+02          1.629308          3.751620
 
                                                              b3lyp opt
                                                             IR Spectrum
 
     33       2                                                              11                                                      
     22       9                                                              33                                  5                   
     00       8                                                              88                                  0                   
     66       8                                                              00                                  0                   
 
     XX                                                                      XX                                  X                   
                                                                             XX                                  X                   
                                                                             XX                                  X                   
                                                                             XX                                  X                   
                                                                             XX                                  X                   
                                                                             XX                                  X                   
                                                                             XX                                  X                   
                                                                             XX                                  X                   
                                                                             XX                                  X                   
                                                                             XX                                  X                   
                                                                             XX                                  X                   
                                                                             XX                                  X                   
                                                                             XX                                  X                   
                                                                             XX                                  X                   
                                                                             XX                                  X                   
                                                                             XX                                  X                   
                                                                             XX                                  X                   
                                                                             XX                                                      
                                                                             XX                                                      
                                                                             XX                                                      
 
 ***** Axes restored to original set *****
 -------------------------------------------------------------------
 Center     Atomic                   Forces (Hartrees/Bohr)
 Number     Number              X              Y              Z
 -------------------------------------------------------------------
      1        6          -0.000000000    0.000000000   -0.000000000
      2        1           0.000000000   -0.000194231   -0.000000000
      3        1          -0.000168209    0.000097115    0.000000000
      4        1           0.000168209    0.000097115   -0.000000000
 -------------------------------------------------------------------
 Cartesian Forces:  Max     0.000194231 RMS     0.000097115
 Force constants in Cartesian coordinates: 
                1             2             3             4             5 
      1  0.588062D+00
      2  0.000000D+00  0.588108D+00
      3  0.000000D+00  0.000000D+00  0.228685D-01
      4 -0.537690D-01  0.000000D+00  0.000000D+00  0.436069D-01
      5  0.000000D+00 -0.338304D+00  0.000000D+00  0.000000D+00  0.346788D+00
      6  0.000000D+00  0.000000D+00 -0.761882D-02  0.000000D+00  0.000000D+00
      7 -0.267159D+00  0.123198D+00  0.000000D+00  0.508364D-02 -0.603689D-02
      8  0.123201D+00 -0.124902D+00  0.000000D+00  0.221937D-01 -0.424450D-02
      9  0.000000D+00  0.000000D+00 -0.762183D-02  0.000000D+00  0.000000D+00
     10 -0.267159D+00 -0.123198D+00  0.000000D+00  0.508364D-02  0.603689D-02
     11 -0.123201D+00 -0.124902D+00  0.000000D+00 -0.221937D-01 -0.424451D-02
     12  0.000000D+00  0.000000D+00 -0.762183D-02  0.000000D+00  0.000000D+00
                6             7             8             9            10 
      6  0.259814D-02
      7  0.000000D+00  0.270993D+00
      8  0.000000D+00 -0.131281D+00  0.119402D+00
      9  0.251034D-02  0.000000D+00  0.000000D+00  0.259814D-02
     10  0.000000D+00 -0.890858D-02 -0.141153D-01  0.000000D+00  0.270993D+00
     11  0.000000D+00  0.141153D-01  0.974771D-02  0.000000D+00  0.131281D+00
     12  0.251034D-02  0.000000D+00  0.000000D+00  0.251034D-02  0.000000D+00
               11            12 
     11  0.119402D+00
     12  0.000000D+00  0.259814D-02
 FormGI is forming the generalized inverse of G from B-inverse, IUseBI=4.
 Force constants in internal coordinates: 
                1             2             3             4             5 
      1  0.346791D+00
      2 -0.310511D-02  0.346783D+00
      3 -0.310511D-02 -0.310338D-02  0.346783D+00
      4  0.456891D-02  0.457225D-02 -0.914356D-02  0.608270D-01
      5  0.456891D-02 -0.914356D-02  0.457225D-02 -0.304122D-01  0.608270D-01
      6 -0.913782D-02  0.457131D-02  0.457131D-02 -0.304148D-01 -0.304148D-01
      7  0.000000D+00  0.000000D+00  0.000000D+00  0.000000D+00  0.000000D+00
                6             7 
      6  0.608296D-01
      7  0.000000D+00  0.789132D-02
 Leave Link  716 at Wed Jan 23 22:08:13 2019, MaxMem=   412876800 cpu:         0.1
 (Enter /usr/local/gaussian/gaussian09/g09/l103.exe)

 GradGradGradGradGradGradGradGradGradGradGradGradGradGradGradGradGradGrad
 Berny optimization.
 Red2BG is reusing G-inverse.
 Internal  Forces:  Max     0.000194231 RMS     0.000127154
 Search for a local minimum.
 Step number   1 out of a maximum of    2
 All quantities printed in internal units (Hartrees-Bohrs-Radians)
 Second derivative matrix not updated -- analytic derivatives used.
 The second derivative matrix:
                          R1        R2        R3        A1        A2
           R1           0.34679
           R2          -0.00311   0.34678
           R3          -0.00311  -0.00310   0.34678
           A1           0.00457   0.00457  -0.00914   0.06083
           A2           0.00457  -0.00914   0.00457  -0.03041   0.06083
           A3          -0.00914   0.00457   0.00457  -0.03041  -0.03041
           D1           0.00000   0.00000   0.00000   0.00000  -0.00000
                          A3        D1
           A3           0.06083
           D1           0.00000   0.00789
 ITU=  0
     Eigenvalues ---    0.00789   0.09051   0.09052   0.34058   0.35061
     Eigenvalues ---    0.35062
 Angle between quadratic step and forces=   0.00 degrees.
 Linear search not attempted -- first point.
 Iteration  1 RMS(Cart)=  0.00037335 RMS(Int)=  0.00000000
 Iteration  2 RMS(Cart)=  0.00000000 RMS(Int)=  0.00000000
 ITry= 1 IFail=0 DXMaxC= 5.70D-04 DCOld= 1.00D+10 DXMaxT= 3.00D-01 DXLimC= 3.00D+00 Rises=F
 ClnCor:  largest displacement from symmetrization is 2.20D-08 for atom     3.
 Variable       Old X    -DE/DX   Delta X   Delta X   Delta X     New X
                                 (Linear)    (Quad)   (Total)
    R1        2.04783  -0.00019   0.00000  -0.00057  -0.00057   2.04726
    R2        2.04783  -0.00019   0.00000  -0.00057  -0.00057   2.04726
    R3        2.04783  -0.00019   0.00000  -0.00057  -0.00057   2.04726
    A1        2.09440   0.00000   0.00000  -0.00000   0.00000   2.09440
    A2        2.09440   0.00000   0.00000  -0.00000  -0.00000   2.09440
    A3        2.09440  -0.00000   0.00000   0.00000  -0.00000   2.09440
    D1        3.14159  -0.00000   0.00000   0.00000   0.00000   3.14159
         Item               Value     Threshold  Converged?
 Maximum Force            0.000194     0.000450     YES
 RMS     Force            0.000127     0.000300     YES
 Maximum Displacement     0.000570     0.001800     YES
 RMS     Displacement     0.000373     0.001200     YES
 Predicted change in Energy=-1.661545D-07
 Optimization completed.
    -- Stationary point found.
                           ----------------------------
                           !   Optimized Parameters   !
                           ! (Angstroms and Degrees)  !
 --------------------------                            --------------------------
 ! Name  Definition              Value          Derivative Info.                !
 --------------------------------------------------------------------------------
 ! R1    R(1,2)                  1.0837         -DE/DX =   -0.0002              !
 ! R2    R(1,3)                  1.0837         -DE/DX =   -0.0002              !
 ! R3    R(1,4)                  1.0837         -DE/DX =   -0.0002              !
 ! A1    A(2,1,3)              120.0            -DE/DX =    0.0                 !
 ! A2    A(2,1,4)              120.0            -DE/DX =    0.0                 !
 ! A3    A(3,1,4)              120.0            -DE/DX =    0.0                 !
 ! D1    D(2,1,4,3)            180.0            -DE/DX =    0.0                 !
 --------------------------------------------------------------------------------
 GradGradGradGradGradGradGradGradGradGradGradGradGradGradGradGradGradGrad

 Leave Link  103 at Wed Jan 23 22:08:13 2019, MaxMem=   412876800 cpu:         0.0
 (Enter /usr/local/gaussian/gaussian09/g09/l9999.exe)
 1\1\GINC-PANORAMIX\Freq\UB3LYP\6-311++G(3df,2p)\C1H3(1-,3)\SERGIO\23-J
 an-2019\0\\#P Geom=AllCheck Guess=TCheck SCRF=Check GenChk UB3LYP/6-31
 1++G(3df,2p) Freq\\b3lyp opt\\-1,3\C,0.,0.,0.\H,-0.00000003,1.08366616
 3,0.\H,0.9384824414,-0.5418330555,0.\H,-0.9384824114,-0.5418331075,0.\
 \Version=EM64L-G09RevE.01\HF=-39.8270467\S2=2.003371\S2-1=0.\S2A=2.000
 004\RMSD=0.000e+00\RMSF=9.712e-05\ZeroPoint=0.028842\Thermal=0.0319147
 \Dipole=0.,0.,0.\DipoleDeriv=-0.1894146,0.,0.,0.,-0.1840141,0.,0.,0.,-
 0.0277946,-0.4819347,0.,0.,-0.0000003,-0.0601329,0.,0.,0.,-0.3235208,-
 0.1649544,-0.1826755,0.,-0.1829775,-0.3772058,0.,0.,0.,-0.3239315,-0.1
 649547,0.182676,0.,0.1829773,-0.3772054,0.,0.,0.,-0.3239315\Polar=897.
 3074237,0.0000002,895.2229595,-0.0000002,0.,162.8050357\PG=D03H [O(C1)
 ,3C2(H1)]\NImag=0\\0.58806247,0.,0.58810765,0.,0.,0.02286851,-0.053768
 99,0.,0.,0.04360689,0.,-0.33830428,0.,0.,0.34678810,0.,0.,-0.00761882,
 0.,0.,0.00259814,-0.26715860,0.12319832,0.,0.00508364,-0.00603689,0.,0
 .27099281,0.12320113,-0.12490224,0.,0.02219372,-0.00424450,0.,-0.13128
 131,0.11940219,0.,0.,-0.00762183,0.,0.,0.00251034,0.,0.,0.00259814,-0.
 26715859,-0.12319833,0.,0.00508364,0.00603689,0.,-0.00890858,-0.014115
 31,0.,0.27099279,-0.12320114,-0.12490226,0.,-0.02219372,-0.00424451,0.
 ,0.01411530,0.00974771,0.,0.13128132,0.11940220,0.,0.,-0.00762183,0.,0
 .,0.00251034,0.,0.,0.00251034,0.,0.,0.00259814\\0.,0.,0.,0.,0.00019423
 ,0.,0.00016821,-0.00009712,0.,-0.00016821,-0.00009712,0.\\\@


 TIME IS IN FACT THE HERO OF THE PLOT. THE TIME
 WITH WHICH WE HAVE TO DEAL IS OF THE ORDER OF TWO
 BILLION YEARS...GIVEN SO MUCH TIME, THE "IMPOSSIBLE"
 BECOMES POSSIBLE, THE POSSIBLE PROBABLE, THE PROBABLE
 VIRTUALLY CERTAIN.  ONE HAS ONLY TO WAIT, TIME
 ITSELF PERFORMS THE MIRACLES.
 "ORIGIN OF LIFE" LECTURES, GEORGE WALD, 1954
 Job cpu time:       0 days  0 hours  0 minutes 38.6 seconds.
 File lengths (MBytes):  RWF=      6 Int=      0 D2E=      0 Chk=      2 Scr=      1
 Normal termination of Gaussian 09 at Wed Jan 23 22:08:13 2019.
