 Entering Gaussian System, Link 0=g09
 Initial command:
 /usr/local/gaussian/gaussian09/g09/l1.exe "/scratch/sergio/H3C2.q-1.m1-3.com-4935936/Gau-494.inp" -scrdir="/scratch/sergio/H3C2.q-1.m1-3.com-4935936/"
 Default is to use a total of   2 processors:
                                2 via shared-memory
                                1 via Linda
 Entering Link 1 = /usr/local/gaussian/gaussian09/g09/l1.exe PID=       497.
  
 Copyright (c) 1988,1990,1992,1993,1995,1998,2003,2009,2015,
            Gaussian, Inc.  All Rights Reserved.
  
 This is part of the Gaussian(R) 09 program.  It is based on
 the Gaussian(R) 03 system (copyright 2003, Gaussian, Inc.),
 the Gaussian(R) 98 system (copyright 1998, Gaussian, Inc.),
 the Gaussian(R) 94 system (copyright 1995, Gaussian, Inc.),
 the Gaussian 92(TM) system (copyright 1992, Gaussian, Inc.),
 the Gaussian 90(TM) system (copyright 1990, Gaussian, Inc.),
 the Gaussian 88(TM) system (copyright 1988, Gaussian, Inc.),
 the Gaussian 86(TM) system (copyright 1986, Carnegie Mellon
 University), and the Gaussian 82(TM) system (copyright 1983,
 Carnegie Mellon University). Gaussian is a federally registered
 trademark of Gaussian, Inc.
  
 This software contains proprietary and confidential information,
 including trade secrets, belonging to Gaussian, Inc.
  
 This software is provided under written license and may be
 used, copied, transmitted, or stored only in accord with that
 written license.
  
 The following legend is applicable only to US Government
 contracts under FAR:
  
                    RESTRICTED RIGHTS LEGEND
  
 Use, reproduction and disclosure by the US Government is
 subject to restrictions as set forth in subparagraphs (a)
 and (c) of the Commercial Computer Software - Restricted
 Rights clause in FAR 52.227-19.
  
 Gaussian, Inc.
 340 Quinnipiac St., Bldg. 40, Wallingford CT 06492
  
  
 ---------------------------------------------------------------
 Warning -- This program may not be used in any manner that
 competes with the business of Gaussian, Inc. or will provide
 assistance to any competitor of Gaussian, Inc.  The licensee
 of this program is prohibited from giving any competitor of
 Gaussian, Inc. access to this program.  By using this program,
 the user acknowledges that Gaussian, Inc. is engaged in the
 business of creating and licensing software in the field of
 computational chemistry and represents and warrants to the
 licensee that it is not a competitor of Gaussian, Inc. and that
 it will not use this program in any manner prohibited above.
 ---------------------------------------------------------------
  

 Cite this work as:
 Gaussian 09, Revision E.01,
 M. J. Frisch, G. W. Trucks, H. B. Schlegel, G. E. Scuseria, 
 M. A. Robb, J. R. Cheeseman, G. Scalmani, V. Barone, B. Mennucci, 
 G. A. Petersson, H. Nakatsuji, M. Caricato, X. Li, H. P. Hratchian, 
 A. F. Izmaylov, J. Bloino, G. Zheng, J. L. Sonnenberg, M. Hada, 
 M. Ehara, K. Toyota, R. Fukuda, J. Hasegawa, M. Ishida, T. Nakajima, 
 Y. Honda, O. Kitao, H. Nakai, T. Vreven, J. A. Montgomery, Jr., 
 J. E. Peralta, F. Ogliaro, M. Bearpark, J. J. Heyd, E. Brothers, 
 K. N. Kudin, V. N. Staroverov, T. Keith, R. Kobayashi, J. Normand, 
 K. Raghavachari, A. Rendell, J. C. Burant, S. S. Iyengar, J. Tomasi, 
 M. Cossi, N. Rega, J. M. Millam, M. Klene, J. E. Knox, J. B. Cross, 
 V. Bakken, C. Adamo, J. Jaramillo, R. Gomperts, R. E. Stratmann, 
 O. Yazyev, A. J. Austin, R. Cammi, C. Pomelli, J. W. Ochterski, 
 R. L. Martin, K. Morokuma, V. G. Zakrzewski, G. A. Voth, 
 P. Salvador, J. J. Dannenberg, S. Dapprich, A. D. Daniels, 
 O. Farkas, J. B. Foresman, J. V. Ortiz, J. Cioslowski, 
 and D. J. Fox, Gaussian, Inc., Wallingford CT, 2013.
 
 ******************************************
 Gaussian 09:  EM64L-G09RevE.01 30-Nov-2015
                 3-Feb-2019 
 ******************************************
 Default route:  MaxDisk=70000MB
 -------------------------------------------------
 #p b3lyp/6-311++G(3df,2p) opt freq symmetry=Loose
 -------------------------------------------------
 1/14=-1,18=20,19=15,26=3,38=1/1,3;
 2/9=110,12=2,17=4,18=3,40=1/2;
 3/5=4,6=6,7=1216,11=2,16=1,25=1,30=1,71=1,74=-5/1,2,3;
 4//1;
 5/5=2,38=5/2;
 6/7=2,8=2,9=2,10=2,28=1/1;
 7//1,2,3,16;
 1/14=-1,18=20,19=15,26=3/3(2);
 2/9=110/2;
 99//99;
 2/9=110/2;
 3/5=4,6=6,7=1216,11=2,16=1,25=1,30=1,71=1,74=-5/1,2,3;
 4/5=5,16=3,69=1/1;
 5/5=2,38=5/2;
 7//1,2,3,16;
 1/14=-1,18=20,19=15,26=3/3(-5);
 2/9=110/2;
 6/7=2,8=2,9=2,10=2,19=2,28=1/1;
 99/9=1/99;
 Leave Link    1 at Sun Feb  3 22:47:15 2019, MaxMem=           0 cpu:         0.2
 (Enter /usr/local/gaussian/gaussian09/g09/l101.exe)
 ---------
 b3lyp opt
 ---------
 Symbolic Z-matrix:
 Charge = -1 Multiplicity = 1
 C                    -0.00019  -0.57929   0. 
 H                     0.93885  -1.15269   0. 
 H                    -0.93704  -1.15613   0. 
 C                    -0.00019   0.67194   0. 
 H                     0.00049   1.75296   0. 
 
 NAtoms=      5 NQM=        5 NQMF=       0 NMMI=      0 NMMIF=      0
                NMic=       0 NMicF=      0.
                    Isotopes and Nuclear Properties:
 (Nuclear quadrupole moments (NQMom) in fm**2, nuclear magnetic moments (NMagM)
  in nuclear magnetons)

  Atom         1           2           3           4           5
 IAtWgt=          12           1           1          12           1
 AtmWgt=  12.0000000   1.0078250   1.0078250  12.0000000   1.0078250
 NucSpn=           0           1           1           0           1
 AtZEff=   0.0000000   0.0000000   0.0000000   0.0000000   0.0000000
 NQMom=    0.0000000   0.0000000   0.0000000   0.0000000   0.0000000
 NMagM=    0.0000000   2.7928460   2.7928460   0.0000000   2.7928460
 AtZNuc=   6.0000000   1.0000000   1.0000000   6.0000000   1.0000000
 Leave Link  101 at Sun Feb  3 22:47:15 2019, MaxMem=   412876800 cpu:         0.3
 (Enter /usr/local/gaussian/gaussian09/g09/l103.exe)

 GradGradGradGradGradGradGradGradGradGradGradGradGradGradGradGradGradGrad
 Berny optimization.
 Initialization pass.
                           ----------------------------
                           !    Initial Parameters    !
                           ! (Angstroms and Degrees)  !
 --------------------------                            --------------------------
 ! Name  Definition              Value          Derivative Info.                !
 --------------------------------------------------------------------------------
 ! R1    R(1,2)                  1.1003         estimate D2E/DX2                !
 ! R2    R(1,3)                  1.1002         estimate D2E/DX2                !
 ! R3    R(1,4)                  1.2512         estimate D2E/DX2                !
 ! R4    R(4,5)                  1.081          estimate D2E/DX2                !
 ! A1    A(2,1,3)              116.9694         estimate D2E/DX2                !
 ! A2    A(2,1,4)              121.4091         estimate D2E/DX2                !
 ! A3    A(3,1,4)              121.6216         estimate D2E/DX2                !
 ! A4    L(1,4,5,2,-1)         179.9639         estimate D2E/DX2                !
 ! A5    L(1,4,5,2,-2)         180.0            estimate D2E/DX2                !
 ! D1    D(2,1,4,3)            180.0            estimate D2E/DX2                !
 --------------------------------------------------------------------------------
 Trust Radius=3.00D-01 FncErr=1.00D-07 GrdErr=1.00D-06
 Number of steps in this run=     20 maximum allowed number of steps=    100.
 GradGradGradGradGradGradGradGradGradGradGradGradGradGradGradGradGradGrad

 Leave Link  103 at Sun Feb  3 22:47:15 2019, MaxMem=   412876800 cpu:         0.0
 (Enter /usr/local/gaussian/gaussian09/g09/l202.exe)
                          Input orientation:                          
 ---------------------------------------------------------------------
 Center     Atomic      Atomic             Coordinates (Angstroms)
 Number     Number       Type             X           Y           Z
 ---------------------------------------------------------------------
      1          6           0       -0.000192   -0.579293    0.000000
      2          1           0        0.938849   -1.152690    0.000000
      3          1           0       -0.937035   -1.156129    0.000000
      4          6           0       -0.000192    0.671937    0.000000
      5          1           0        0.000489    1.752959    0.000000
 ---------------------------------------------------------------------
                    Distance matrix (angstroms):
                    1          2          3          4          5
     1  C    0.000000
     2  H    1.100265   0.000000
     3  H    1.100188   1.875887   0.000000
     4  C    1.251230   2.052087   2.054142   0.000000
     5  H    2.332252   3.053410   3.056427   1.081022   0.000000
 Stoichiometry    C2H3(1-)
 Framework group  CS[SG(C2H3)]
 Deg. of freedom     7
 Full point group                 CS      NOp   2
 Largest Abelian subgroup         CS      NOp   2
 Largest concise Abelian subgroup C1      NOp   1
                         Standard orientation:                         
 ---------------------------------------------------------------------
 Center     Atomic      Atomic             Coordinates (Angstroms)
 Number     Number       Type             X           Y           Z
 ---------------------------------------------------------------------
      1          6           0       -0.000192   -0.579293    0.000000
      2          1           0        0.938849   -1.152690    0.000000
      3          1           0       -0.937035   -1.156129    0.000000
      4          6           0       -0.000192    0.671937    0.000000
      5          1           0        0.000489    1.752959    0.000000
 ---------------------------------------------------------------------
 Rotational constants (GHZ):    285.0030563     33.2119190     29.7456096
 Leave Link  202 at Sun Feb  3 22:47:15 2019, MaxMem=   412876800 cpu:         0.0
 (Enter /usr/local/gaussian/gaussian09/g09/l301.exe)
 Standard basis: 6-311++G(3df,2p) (5D, 7F)
 Ernie: Thresh=  0.10000D-02 Tol=  0.10000D-05 Strict=F.
 There are    86 symmetry adapted cartesian basis functions of A'  symmetry.
 There are    34 symmetry adapted cartesian basis functions of A"  symmetry.
 There are    76 symmetry adapted basis functions of A'  symmetry.
 There are    32 symmetry adapted basis functions of A"  symmetry.
   108 basis functions,   152 primitive gaussians,   120 cartesian basis functions
     8 alpha electrons        8 beta electrons
       nuclear repulsion energy        29.0169028552 Hartrees.
 IExCor=  402 DFT=T Ex+Corr=B3LYP ExCW=0 ScaHFX=  0.200000
 ScaDFX=  0.800000  0.720000  1.000000  0.810000 ScalE2=  1.000000  1.000000
 IRadAn=      0 IRanWt=     -1 IRanGd=            0 ICorTp=0 IEmpDi=  4
 NAtoms=    5 NActive=    5 NUniq=    5 SFac= 1.00D+00 NAtFMM=   60 NAOKFM=F Big=F
 Integral buffers will be    131072 words long.
 Raffenetti 2 integral format.
 Two-electron integral symmetry is turned on.
 Leave Link  301 at Sun Feb  3 22:47:15 2019, MaxMem=   412876800 cpu:         0.1
 (Enter /usr/local/gaussian/gaussian09/g09/l302.exe)
 NPDir=0 NMtPBC=     1 NCelOv=     1 NCel=       1 NClECP=     1 NCelD=      1
         NCelK=      1 NCelE2=     1 NClLst=     1 CellRange=     0.0.
 One-electron integrals computed using PRISM.
 NBasis=   108 RedAO= T EigKep=  3.83D-05  NBF=    76    32
 NBsUse=   108 1.00D-06 EigRej= -1.00D+00 NBFU=    76    32
 Precomputing XC quadrature grid using
 IXCGrd= 4 IRadAn=           0 IRanWt=          -1 IRanGd=           0 AccXCQ= 0.00D+00.
 Generated NRdTot=       0 NPtTot=           0 NUsed=           0 NTot=          32
 NSgBfM=   120   120   120   120   120 MxSgAt=     5 MxSgA2=     5.
 Leave Link  302 at Sun Feb  3 22:47:16 2019, MaxMem=   412876800 cpu:         0.5
 (Enter /usr/local/gaussian/gaussian09/g09/l303.exe)
 DipDrv:  MaxL=1.
 Leave Link  303 at Sun Feb  3 22:47:16 2019, MaxMem=   412876800 cpu:         0.1
 (Enter /usr/local/gaussian/gaussian09/g09/l401.exe)
 ExpMin= 3.60D-02 ExpMax= 4.56D+03 ExpMxC= 6.82D+02 IAcc=3 IRadAn=         5 AccDes= 0.00D+00
 Harris functional with IExCor=  402 and IRadAn=       5 diagonalized for initial guess.
 HarFok:  IExCor=  402 AccDes= 0.00D+00 IRadAn=         5 IDoV= 1 UseB2=F ITyADJ=14
 ICtDFT=  3500011 ScaDFX=  1.000000  1.000000  1.000000  1.000000
 FoFCou: FMM=F IPFlag=           0 FMFlag=      100000 FMFlg1=           0
         NFxFlg=           0 DoJE=T BraDBF=F KetDBF=T FulRan=T
         wScrn=  0.000000 ICntrl=     500 IOpCl=  0 I1Cent=   200000004 NGrid=           0
         NMat0=    1 NMatS0=      1 NMatT0=    0 NMatD0=    1 NMtDS0=    0 NMtDT0=    0
 Petite list used in FoFCou.
 Harris En= -78.1762293493197    
 JPrj=0 DoOrth=F DoCkMO=F.
 Initial guess orbital symmetries:
       Occupied  (A') (A') (A') (A') (A') (A') (A") (A')
       Virtual   (A") (A') (A') (A') (A') (A") (A') (A') (A') (A")
                 (A') (A') (A') (A') (A') (A") (A') (A') (A") (A')
                 (A') (A') (A") (A') (A") (A') (A") (A') (A') (A')
                 (A') (A") (A') (A') (A') (A") (A') (A") (A') (A')
                 (A") (A') (A') (A') (A') (A") (A") (A') (A') (A')
                 (A") (A') (A') (A") (A') (A') (A") (A') (A') (A')
                 (A") (A") (A') (A') (A") (A') (A") (A') (A') (A')
                 (A") (A') (A") (A') (A') (A") (A') (A') (A") (A')
                 (A') (A") (A') (A") (A') (A') (A') (A') (A") (A')
                 (A") (A") (A') (A') (A") (A') (A') (A') (A') (A')
 The electronic state of the initial guess is 1-A'.
 Leave Link  401 at Sun Feb  3 22:47:17 2019, MaxMem=   412876800 cpu:         1.9
 (Enter /usr/local/gaussian/gaussian09/g09/l502.exe)
 Closed shell SCF:
 Using DIIS extrapolation, IDIIS=  1040.
 Integral symmetry usage will be decided dynamically.
 Keep R1 ints in memory in symmetry-blocked form, NReq=26327422.
 IVT=       63384 IEndB=       63384 NGot=   412876800 MDV=   403874928
 LenX=   403874928 LenY=   403860087
 Requested convergence on RMS density matrix=1.00D-08 within 128 cycles.
 Requested convergence on MAX density matrix=1.00D-06.
 Requested convergence on             energy=1.00D-06.
 No special actions if energy rises.
 FoFCou: FMM=F IPFlag=           0 FMFlag=           0 FMFlg1=           0
         NFxFlg=           0 DoJE=F BraDBF=F KetDBF=F FulRan=T
         wScrn=  0.000000 ICntrl=     600 IOpCl=  0 I1Cent=           0 NGrid=           0
         NMat0=    1 NMatS0=   5886 NMatT0=    0 NMatD0=    1 NMtDS0=    0 NMtDT0=    0
 Petite list used in FoFCou.

 Cycle   1  Pass 1  IDiag  1:
 E= -77.6155277213297    
 DIIS: error= 7.56D-02 at cycle   1 NSaved=   1.
 NSaved= 1 IEnMin= 1 EnMin= -77.6155277213297     IErMin= 1 ErrMin= 7.56D-02
 ErrMax= 7.56D-02  0.00D+00 EMaxC= 1.00D-01 BMatC= 2.44D-01 BMatP= 2.44D-01
 IDIUse=3 WtCom= 2.44D-01 WtEn= 7.56D-01
 Coeff-Com:  0.100D+01
 Coeff-En:   0.100D+01
 Coeff:      0.100D+01
 Gap=    -0.152 Goal=   None    Shift=    0.000
 GapD=   -0.152 DampG=0.250 DampE=0.500 DampFc=0.2500 IDamp=-1.
 Damping current iteration by 2.50D-01
 RMSDP=1.05D+01 MaxDP=6.66D+02              OVMax= 9.86D-01

 Cycle   2  Pass 1  IDiag  1:
 E= -77.6612876208929     Delta-E=       -0.045759899563 Rises=F Damp=T
 DIIS: error= 1.67D-02 at cycle   2 NSaved=   2.
 NSaved= 2 IEnMin= 2 EnMin= -77.6612876208929     IErMin= 2 ErrMin= 1.67D-02
 ErrMax= 1.67D-02  0.00D+00 EMaxC= 1.00D-01 BMatC= 1.72D-02 BMatP= 2.44D-01
 IDIUse=3 WtCom= 8.33D-01 WtEn= 1.67D-01
 Coeff-Com: -0.230D+00 0.123D+01
 Coeff-En:   0.395D+00 0.605D+00
 Coeff:     -0.125D+00 0.113D+01
 Gap=     0.009 Goal=   None    Shift=    0.000
 RMSDP=2.63D+00 MaxDP=1.66D+02 DE=-4.58D-02 OVMax= 9.82D-01

 Cycle   3  Pass 1  IDiag  1:
 E= -77.8486359488175     Delta-E=       -0.187348327925 Rises=F Damp=F
 DIIS: error= 3.04D-02 at cycle   3 NSaved=   3.
 NSaved= 3 IEnMin= 3 EnMin= -77.8486359488175     IErMin= 2 ErrMin= 1.67D-02
 ErrMax= 3.04D-02  0.00D+00 EMaxC= 1.00D-01 BMatC= 3.38D-02 BMatP= 1.72D-02
 IDIUse=2 WtCom= 0.00D+00 WtEn= 1.00D+00
 Coeff-En:   0.000D+00 0.000D+00 0.100D+01
 Coeff:      0.000D+00 0.000D+00 0.100D+01
 Gap=    -0.073 Goal=   None    Shift=    0.000
 RMSDP=7.06D+00 MaxDP=4.80D+02 DE=-1.87D-01 OVMax= 9.98D-01

 Cycle   4  Pass 1  IDiag  1:
 E= -77.2495317856821     Delta-E=        0.599104163135 Rises=F Damp=F
 DIIS: error= 1.10D-01 at cycle   4 NSaved=   4.
 NSaved= 4 IEnMin= 3 EnMin= -77.8486359488175     IErMin= 2 ErrMin= 1.67D-02
 ErrMax= 1.10D-01  0.00D+00 EMaxC= 1.00D-01 BMatC= 3.14D-01 BMatP= 1.72D-02
 IDIUse=2 WtCom= 0.00D+00 WtEn= 1.00D+00
 Coeff-En:   0.000D+00 0.000D+00 0.851D+00 0.149D+00
 Coeff:      0.000D+00 0.000D+00 0.851D+00 0.149D+00
 Gap=     0.012 Goal=   None    Shift=    0.000
 RMSDP=7.06D+00 MaxDP=4.80D+02 DE= 5.99D-01 OVMax= 9.98D-01

 Cycle   5  Pass 1  IDiag  1:
 E= -77.8958890771014     Delta-E=       -0.646357291419 Rises=F Damp=F
 DIIS: error= 1.92D-02 at cycle   5 NSaved=   5.
 NSaved= 5 IEnMin= 5 EnMin= -77.8958890771014     IErMin= 2 ErrMin= 1.67D-02
 ErrMax= 1.92D-02  0.00D+00 EMaxC= 1.00D-01 BMatC= 1.18D-02 BMatP= 1.72D-02
 IDIUse=3 WtCom= 8.08D-01 WtEn= 1.92D-01
 Coeff-Com:  0.972D-01-0.281D-01 0.192D+00-0.106D-02 0.740D+00
 Coeff-En:   0.000D+00 0.000D+00 0.179D+00 0.000D+00 0.821D+00
 Coeff:      0.785D-01-0.227D-01 0.189D+00-0.856D-03 0.756D+00
 Gap=     0.037 Goal=   None    Shift=    0.000
 RMSDP=1.19D-03 MaxDP=5.12D-02 DE=-6.46D-01 OVMax= 3.73D-02

 Cycle   6  Pass 1  IDiag  1:
 E= -77.9081283814093     Delta-E=       -0.012239304308 Rises=F Damp=F
 DIIS: error= 4.05D-03 at cycle   6 NSaved=   6.
 NSaved= 6 IEnMin= 6 EnMin= -77.9081283814093     IErMin= 6 ErrMin= 4.05D-03
 ErrMax= 4.05D-03  0.00D+00 EMaxC= 1.00D-01 BMatC= 5.46D-04 BMatP= 1.18D-02
 IDIUse=3 WtCom= 9.60D-01 WtEn= 4.05D-02
 Coeff-Com: -0.937D-03 0.400D-01 0.150D+00-0.127D-01 0.313D+00 0.511D+00
 Coeff-En:   0.000D+00 0.000D+00 0.000D+00 0.000D+00 0.000D+00 0.100D+01
 Coeff:     -0.899D-03 0.384D-01 0.144D+00-0.122D-01 0.300D+00 0.531D+00
 Gap=     0.040 Goal=   None    Shift=    0.000
 RMSDP=5.61D-04 MaxDP=1.70D-02 DE=-1.22D-02 OVMax= 1.31D-02

 Cycle   7  Pass 1  IDiag  1:
 E= -77.9086907504849     Delta-E=       -0.000562369076 Rises=F Damp=F
 DIIS: error= 9.05D-04 at cycle   7 NSaved=   7.
 NSaved= 7 IEnMin= 7 EnMin= -77.9086907504849     IErMin= 7 ErrMin= 9.05D-04
 ErrMax= 9.05D-04  0.00D+00 EMaxC= 1.00D-01 BMatC= 3.90D-05 BMatP= 5.46D-04
 IDIUse=3 WtCom= 9.91D-01 WtEn= 9.05D-03
 Coeff-Com:  0.180D-02 0.526D-02 0.130D-01-0.258D-02-0.212D-02 0.128D+00
 Coeff-Com:  0.857D+00
 Coeff-En:   0.000D+00 0.000D+00 0.000D+00 0.000D+00 0.000D+00 0.000D+00
 Coeff-En:   0.100D+01
 Coeff:      0.178D-02 0.521D-02 0.129D-01-0.256D-02-0.210D-02 0.126D+00
 Coeff:      0.858D+00
 Gap=     0.042 Goal=   None    Shift=    0.000
 RMSDP=4.25D-04 MaxDP=1.58D-02 DE=-5.62D-04 OVMax= 3.34D-03

 Cycle   8  Pass 1  IDiag  1:
 E= -77.9087333170099     Delta-E=       -0.000042566525 Rises=F Damp=F
 DIIS: error= 3.36D-04 at cycle   8 NSaved=   8.
 NSaved= 8 IEnMin= 8 EnMin= -77.9087333170099     IErMin= 8 ErrMin= 3.36D-04
 ErrMax= 3.36D-04  0.00D+00 EMaxC= 1.00D-01 BMatC= 4.92D-06 BMatP= 3.90D-05
 IDIUse=3 WtCom= 9.97D-01 WtEn= 3.36D-03
 Coeff-Com:  0.160D-03 0.107D-02 0.589D-03-0.713D-03-0.161D-01-0.275D-01
 Coeff-Com:  0.221D+00 0.822D+00
 Coeff-En:   0.000D+00 0.000D+00 0.000D+00 0.000D+00 0.000D+00 0.000D+00
 Coeff-En:   0.000D+00 0.100D+01
 Coeff:      0.159D-03 0.107D-02 0.587D-03-0.711D-03-0.160D-01-0.274D-01
 Coeff:      0.220D+00 0.822D+00
 Gap=     0.042 Goal=   None    Shift=    0.000
 RMSDP=1.38D-04 MaxDP=4.15D-03 DE=-4.26D-05 OVMax= 9.70D-04

 Cycle   9  Pass 1  IDiag  1:
 E= -77.9087380754893     Delta-E=       -0.000004758479 Rises=F Damp=F
 DIIS: error= 1.05D-04 at cycle   9 NSaved=   9.
 NSaved= 9 IEnMin= 9 EnMin= -77.9087380754893     IErMin= 9 ErrMin= 1.05D-04
 ErrMax= 1.05D-04  0.00D+00 EMaxC= 1.00D-01 BMatC= 4.86D-07 BMatP= 4.92D-06
 IDIUse=3 WtCom= 9.99D-01 WtEn= 1.05D-03
 Coeff-Com:  0.174D-03-0.872D-04-0.377D-04-0.124D-03-0.420D-02-0.199D-01
 Coeff-Com:  0.148D-01 0.355D-01 0.974D+00
 Coeff-En:   0.000D+00 0.000D+00 0.000D+00 0.000D+00 0.000D+00 0.000D+00
 Coeff-En:   0.000D+00 0.000D+00 0.100D+01
 Coeff:      0.174D-03-0.871D-04-0.377D-04-0.123D-03-0.419D-02-0.198D-01
 Coeff:      0.148D-01 0.355D-01 0.974D+00
 Gap=     0.042 Goal=   None    Shift=    0.000
 RMSDP=1.13D-04 MaxDP=3.12D-03 DE=-4.76D-06 OVMax= 9.22D-04

 Cycle  10  Pass 1  IDiag  1:
 E= -77.9087387783643     Delta-E=       -0.000000702875 Rises=F Damp=F
 DIIS: error= 2.54D-05 at cycle  10 NSaved=  10.
 NSaved=10 IEnMin=10 EnMin= -77.9087387783643     IErMin=10 ErrMin= 2.54D-05
 ErrMax= 2.54D-05  0.00D+00 EMaxC= 1.00D-01 BMatC= 2.14D-08 BMatP= 4.86D-07
 IDIUse=1 WtCom= 1.00D+00 WtEn= 0.00D+00
 Coeff-Com: -0.153D-03 0.222D-03 0.398D-03 0.185D-05 0.218D-03 0.380D-02
 Coeff-Com: -0.442D-02-0.709D-01-0.705D-01 0.114D+01
 Coeff:     -0.153D-03 0.222D-03 0.398D-03 0.185D-05 0.218D-03 0.380D-02
 Coeff:     -0.442D-02-0.709D-01-0.705D-01 0.114D+01
 Gap=     0.042 Goal=   None    Shift=    0.000
 RMSDP=6.04D-05 MaxDP=1.86D-03 DE=-7.03D-07 OVMax= 5.69D-04

 Cycle  11  Pass 1  IDiag  1:
 E= -77.9087388372493     Delta-E=       -0.000000058885 Rises=F Damp=F
 DIIS: error= 1.25D-05 at cycle  11 NSaved=  11.
 NSaved=11 IEnMin=11 EnMin= -77.9087388372493     IErMin=11 ErrMin= 1.25D-05
 ErrMax= 1.25D-05  0.00D+00 EMaxC= 1.00D-01 BMatC= 6.49D-09 BMatP= 2.14D-08
 IDIUse=1 WtCom= 1.00D+00 WtEn= 0.00D+00
 Coeff-Com:  0.496D-04-0.718D-04-0.221D-03 0.174D-04 0.590D-03 0.238D-02
 Coeff-Com:  0.346D-03-0.252D-01-0.475D-01 0.199D+00 0.871D+00
 Coeff:      0.496D-04-0.718D-04-0.221D-03 0.174D-04 0.590D-03 0.238D-02
 Coeff:      0.346D-03-0.252D-01-0.475D-01 0.199D+00 0.871D+00
 Gap=     0.042 Goal=   None    Shift=    0.000
 RMSDP=2.12D-05 MaxDP=6.60D-04 DE=-5.89D-08 OVMax= 2.16D-04

 Cycle  12  Pass 1  IDiag  1:
 E= -77.9087388543594     Delta-E=       -0.000000017110 Rises=F Damp=F
 DIIS: error= 2.04D-06 at cycle  12 NSaved=  12.
 NSaved=12 IEnMin=12 EnMin= -77.9087388543594     IErMin=12 ErrMin= 2.04D-06
 ErrMax= 2.04D-06  0.00D+00 EMaxC= 1.00D-01 BMatC= 2.22D-10 BMatP= 6.49D-09
 IDIUse=1 WtCom= 1.00D+00 WtEn= 0.00D+00
 Coeff-Com:  0.116D-04-0.229D-04-0.465D-04 0.706D-05-0.612D-04-0.278D-03
 Coeff-Com:  0.699D-04 0.119D-01 0.119D-01-0.311D+00-0.116D-01 0.130D+01
 Coeff:      0.116D-04-0.229D-04-0.465D-04 0.706D-05-0.612D-04-0.278D-03
 Coeff:      0.699D-04 0.119D-01 0.119D-01-0.311D+00-0.116D-01 0.130D+01
 Gap=     0.042 Goal=   None    Shift=    0.000
 RMSDP=2.01D-05 MaxDP=5.96D-04 DE=-1.71D-08 OVMax= 1.91D-04

 Cycle  13  Pass 1  IDiag  1:
 E= -77.9087388570670     Delta-E=       -0.000000002708 Rises=F Damp=F
 DIIS: error= 2.38D-07 at cycle  13 NSaved=  13.
 NSaved=13 IEnMin=13 EnMin= -77.9087388570670     IErMin=13 ErrMin= 2.38D-07
 ErrMax= 2.38D-07  0.00D+00 EMaxC= 1.00D-01 BMatC= 3.18D-12 BMatP= 2.22D-10
 IDIUse=1 WtCom= 1.00D+00 WtEn= 0.00D+00
 Coeff-Com: -0.256D-05 0.118D-05 0.172D-04 0.124D-06-0.301D-04-0.733D-04
 Coeff-Com:  0.146D-03 0.234D-02 0.379D-02-0.375D-01-0.224D-01 0.128D+00
 Coeff-Com:  0.926D+00
 Coeff:     -0.256D-05 0.118D-05 0.172D-04 0.124D-06-0.301D-04-0.733D-04
 Coeff:      0.146D-03 0.234D-02 0.379D-02-0.375D-01-0.224D-01 0.128D+00
 Coeff:      0.926D+00
 Gap=     0.042 Goal=   None    Shift=    0.000
 RMSDP=7.30D-07 MaxDP=2.35D-05 DE=-2.71D-09 OVMax= 7.68D-06

 Cycle  14  Pass 1  IDiag  1:
 E= -77.9087388570766     Delta-E=       -0.000000000010 Rises=F Damp=F
 DIIS: error= 5.81D-08 at cycle  14 NSaved=  14.
 NSaved=14 IEnMin=14 EnMin= -77.9087388570766     IErMin=14 ErrMin= 5.81D-08
 ErrMax= 5.81D-08  0.00D+00 EMaxC= 1.00D-01 BMatC= 1.45D-13 BMatP= 3.18D-12
 IDIUse=1 WtCom= 1.00D+00 WtEn= 0.00D+00
 Coeff-Com: -0.557D-08-0.379D-06 0.640D-06 0.474D-07-0.311D-05-0.102D-04
 Coeff-Com:  0.384D-05-0.102D-03 0.426D-03 0.307D-02-0.462D-02-0.145D-01
 Coeff-Com:  0.685D-01 0.947D+00
 Coeff:     -0.557D-08-0.379D-06 0.640D-06 0.474D-07-0.311D-05-0.102D-04
 Coeff:      0.384D-05-0.102D-03 0.426D-03 0.307D-02-0.462D-02-0.145D-01
 Coeff:      0.685D-01 0.947D+00
 Gap=     0.042 Goal=   None    Shift=    0.000
 RMSDP=2.72D-07 MaxDP=9.90D-06 DE=-9.63D-12 OVMax= 1.52D-06

 Cycle  15  Pass 1  IDiag  1:
 E= -77.9087388570772     Delta-E=       -0.000000000001 Rises=F Damp=F
 DIIS: error= 1.33D-08 at cycle  15 NSaved=  15.
 NSaved=15 IEnMin=15 EnMin= -77.9087388570772     IErMin=15 ErrMin= 1.33D-08
 ErrMax= 1.33D-08  0.00D+00 EMaxC= 1.00D-01 BMatC= 7.32D-15 BMatP= 1.45D-13
 IDIUse=1 WtCom= 1.00D+00 WtEn= 0.00D+00
 Coeff-Com:  0.391D-07 0.355D-07-0.229D-06-0.903D-08 0.616D-06 0.144D-05
 Coeff-Com:  0.252D-06-0.392D-04-0.877D-04 0.373D-03 0.105D-02-0.234D-02
 Coeff-Com: -0.221D-01-0.633D-01 0.109D+01
 Coeff:      0.391D-07 0.355D-07-0.229D-06-0.903D-08 0.616D-06 0.144D-05
 Coeff:      0.252D-06-0.392D-04-0.877D-04 0.373D-03 0.105D-02-0.234D-02
 Coeff:     -0.221D-01-0.633D-01 0.109D+01
 Gap=     0.042 Goal=   None    Shift=    0.000
 RMSDP=2.23D-07 MaxDP=8.99D-06 DE=-5.83D-13 OVMax= 8.77D-07

 Cycle  16  Pass 1  IDiag  1:
 E= -77.9087388570774     Delta-E=       -0.000000000000 Rises=F Damp=F
 DIIS: error= 4.58D-09 at cycle  16 NSaved=  16.
 NSaved=16 IEnMin=16 EnMin= -77.9087388570774     IErMin=16 ErrMin= 4.58D-09
 ErrMax= 4.58D-09  0.00D+00 EMaxC= 1.00D-01 BMatC= 8.31D-16 BMatP= 7.32D-15
 IDIUse=1 WtCom= 1.00D+00 WtEn= 0.00D+00
 Large coefficients: NSaved= 16 BigCof=    0.00 CofMax=   10.00 Det=-1.57D-16
 Inversion failed.  Reducing to 15 matrices.
 Coeff-Com: -0.559D-07 0.190D-07 0.191D-06-0.363D-06-0.561D-06-0.606D-06
 Coeff-Com:  0.638D-04 0.508D-04-0.916D-03-0.708D-03 0.550D-02 0.189D-01
 Coeff-Com: -0.580D-01-0.140D+01 0.244D+01
 Coeff:     -0.559D-07 0.190D-07 0.191D-06-0.363D-06-0.561D-06-0.606D-06
 Coeff:      0.638D-04 0.508D-04-0.916D-03-0.708D-03 0.550D-02 0.189D-01
 Coeff:     -0.580D-01-0.140D+01 0.244D+01
 Gap=     0.042 Goal=   None    Shift=    0.000
 RMSDP=4.00D-07 MaxDP=1.62D-05 DE=-1.85D-13 OVMax= 1.52D-06

 Cycle  17  Pass 1  IDiag  1:
 E= -77.9087388570776     Delta-E=       -0.000000000000 Rises=F Damp=F
 DIIS: error= 1.69D-09 at cycle  17 NSaved=  16.
 NSaved=16 IEnMin=16 EnMin= -77.9087388570776     IErMin=16 ErrMin= 1.69D-09
 ErrMax= 1.69D-09  0.00D+00 EMaxC= 1.00D-01 BMatC= 2.67D-16 BMatP= 8.31D-16
 IDIUse=1 WtCom= 1.00D+00 WtEn= 0.00D+00
 Large coefficients: NSaved= 16 BigCof=    0.00 CofMax=   10.00 Det=-4.29D-17
 Inversion failed.  Reducing to 15 matrices.
 Coeff-Com: -0.177D-07 0.581D-07-0.148D-06-0.298D-06-0.136D-06 0.135D-04
 Coeff-Com:  0.271D-04-0.763D-04-0.343D-03 0.306D-03 0.598D-02 0.188D-01
 Coeff-Com: -0.236D+00-0.209D+00 0.142D+01
 Coeff:     -0.177D-07 0.581D-07-0.148D-06-0.298D-06-0.136D-06 0.135D-04
 Coeff:      0.271D-04-0.763D-04-0.343D-03 0.306D-03 0.598D-02 0.188D-01
 Coeff:     -0.236D+00-0.209D+00 0.142D+01
 Gap=     0.042 Goal=   None    Shift=    0.000
 RMSDP=2.25D-07 MaxDP=9.07D-06 DE=-1.85D-13 OVMax= 8.37D-07

 Cycle  18  Pass 1  IDiag  1:
 E= -77.9087388570777     Delta-E=       -0.000000000000 Rises=F Damp=F
 DIIS: error= 9.70D-10 at cycle  18 NSaved=  16.
 NSaved=16 IEnMin=16 EnMin= -77.9087388570777     IErMin=16 ErrMin= 9.70D-10
 ErrMax= 9.70D-10  0.00D+00 EMaxC= 1.00D-01 BMatC= 4.95D-17 BMatP= 2.67D-16
 IDIUse=1 WtCom= 1.00D+00 WtEn= 0.00D+00
 Large coefficients: NSaved= 16 BigCof=    0.00 CofMax=   10.00 Det=-3.41D-17
 Inversion failed.  Reducing to 15 matrices.
 Coeff-Com:  0.135D-07-0.262D-07-0.137D-07-0.719D-07-0.571D-06 0.317D-05
 Coeff-Com:  0.463D-04-0.375D-04-0.372D-03 0.484D-03 0.108D-01 0.305D-01
 Coeff-Com: -0.294D+00 0.492D+00 0.761D+00
 Coeff:      0.135D-07-0.262D-07-0.137D-07-0.719D-07-0.571D-06 0.317D-05
 Coeff:      0.463D-04-0.375D-04-0.372D-03 0.484D-03 0.108D-01 0.305D-01
 Coeff:     -0.294D+00 0.492D+00 0.761D+00
 Gap=     0.042 Goal=   None    Shift=    0.000
 RMSDP=4.00D-08 MaxDP=1.61D-06 DE=-1.28D-13 OVMax= 1.44D-07

 Cycle  19  Pass 1  IDiag  1:
 E= -77.9087388570780     Delta-E=       -0.000000000000 Rises=F Damp=F
 DIIS: error= 1.35D-10 at cycle  19 NSaved=  16.
 NSaved=16 IEnMin=16 EnMin= -77.9087388570780     IErMin=16 ErrMin= 1.35D-10
 ErrMax= 1.35D-10  0.00D+00 EMaxC= 1.00D-01 BMatC= 1.81D-18 BMatP= 4.95D-17
 IDIUse=1 WtCom= 1.00D+00 WtEn= 0.00D+00
 Large coefficients: NSaved= 16 BigCof=    0.00 CofMax=   10.00 Det=-3.89D-18
 Inversion failed.  Reducing to 15 matrices.
 Coeff-Com:  0.912D-08 0.100D-08 0.664D-08-0.101D-05-0.139D-05 0.116D-06
 Coeff-Com:  0.227D-04 0.229D-04-0.239D-03-0.182D-02 0.754D-02 0.591D-01
 Coeff-Com: -0.172D+00-0.202D-01 0.113D+01
 Coeff:      0.912D-08 0.100D-08 0.664D-08-0.101D-05-0.139D-05 0.116D-06
 Coeff:      0.227D-04 0.229D-04-0.239D-03-0.182D-02 0.754D-02 0.591D-01
 Coeff:     -0.172D+00-0.202D-01 0.113D+01
 Gap=     0.042 Goal=   None    Shift=    0.000
 RMSDP=5.28D-09 MaxDP=1.88D-07 DE=-2.56D-13 OVMax= 1.94D-08

 SCF Done:  E(RB3LYP) =  -77.9087388571     A.U. after   19 cycles
            NFock= 19  Conv=0.53D-08     -V/T= 2.0020
 KE= 7.775111280984D+01 PE=-2.424245891075D+02 EE= 5.774783458536D+01
 Leave Link  502 at Sun Feb  3 22:47:27 2019, MaxMem=   412876800 cpu:        19.8
 (Enter /usr/local/gaussian/gaussian09/g09/l601.exe)
 Copying SCF densities to generalized density rwf, IOpCl= 0 IROHF=0.

 **********************************************************************

            Population analysis using the SCF density.

 **********************************************************************

 Orbital symmetries:
       Occupied  (A') (A') (A') (A') (A') (A') (A") (A')
       Virtual   (A') (A') (A') (A") (A") (A') (A') (A') (A') (A')
                 (A') (A") (A') (A') (A') (A") (A') (A') (A') (A")
                 (A') (A') (A") (A') (A') (A") (A") (A') (A') (A')
                 (A') (A") (A') (A') (A') (A") (A") (A') (A') (A')
                 (A") (A') (A') (A') (A') (A") (A") (A') (A') (A')
                 (A") (A') (A") (A') (A') (A') (A') (A") (A') (A')
                 (A") (A") (A') (A') (A") (A') (A") (A') (A') (A')
                 (A") (A") (A') (A') (A') (A") (A') (A") (A') (A')
                 (A') (A") (A') (A") (A') (A') (A') (A') (A") (A')
                 (A") (A") (A') (A') (A") (A') (A') (A') (A') (A')
 The electronic state is 1-A'.
 Alpha  occ. eigenvalues --   -9.94043  -9.89740  -0.51762  -0.31791  -0.21692
 Alpha  occ. eigenvalues --   -0.20525  -0.05206   0.08739
 Alpha virt. eigenvalues --    0.12977   0.13930   0.14626   0.20133   0.21939
 Alpha virt. eigenvalues --    0.22435   0.24127   0.26035   0.26758   0.29039
 Alpha virt. eigenvalues --    0.29965   0.30767   0.32560   0.40453   0.43265
 Alpha virt. eigenvalues --    0.49826   0.52230   0.56517   0.59414   0.60244
 Alpha virt. eigenvalues --    0.62036   0.63438   0.65837   0.69434   0.72098
 Alpha virt. eigenvalues --    0.74151   0.77409   0.82128   0.85630   0.88776
 Alpha virt. eigenvalues --    0.93439   0.93536   0.94948   1.03611   1.06963
 Alpha virt. eigenvalues --    1.17026   1.23586   1.26159   1.37848   1.38549
 Alpha virt. eigenvalues --    1.38794   1.45379   1.52607   1.53881   1.59494
 Alpha virt. eigenvalues --    1.73578   1.73587   1.75158   1.84401   1.94134
 Alpha virt. eigenvalues --    2.02715   2.29950   2.38300   2.38738   2.58747
 Alpha virt. eigenvalues --    2.74331   2.86617   2.94019   2.94377   3.00232
 Alpha virt. eigenvalues --    3.01288   3.03979   3.05583   3.09771   3.12499
 Alpha virt. eigenvalues --    3.22418   3.34165   3.39008   3.44986   3.45524
 Alpha virt. eigenvalues --    3.51813   3.78759   3.79799   3.94834   4.15207
 Alpha virt. eigenvalues --    4.35372   4.36983   4.39573   4.41166   4.48080
 Alpha virt. eigenvalues --    4.56528   4.60689   4.85591   5.38910   5.70885
 Alpha virt. eigenvalues --    5.77869   5.84658   6.44003   7.24131   7.29287
 Alpha virt. eigenvalues --    7.36016   7.45680   7.61189   7.68939   7.73696
 Alpha virt. eigenvalues --    7.81166   8.24514   8.57842  24.13025  26.69230
          Condensed to atoms (all electrons):
               1          2          3          4          5
     1  C    6.247602   0.598783   0.618124  -0.656088  -0.115701
     2  H    0.598783   1.078847  -0.354556  -0.359689   0.004109
     3  H    0.618124  -0.354556   1.071140  -0.367664  -0.000867
     4  C   -0.656088  -0.359689  -0.367664   7.546108   0.449942
     5  H   -0.115701   0.004109  -0.000867   0.449942   0.423518
 Mulliken charges:
               1
     1  C   -0.692720
     2  H    0.032506
     3  H    0.033823
     4  C   -0.612609
     5  H    0.238999
 Sum of Mulliken charges =  -1.00000
 Mulliken charges with hydrogens summed into heavy atoms:
               1
     1  C   -0.626390
     4  C   -0.373610
 Electronic spatial extent (au):  <R**2>=             93.9265
 Charge=             -1.0000 electrons
 Dipole moment (field-independent basis, Debye):
    X=              0.0074    Y=             -1.1776    Z=              0.0000  Tot=              1.1776
 Quadrupole moment (field-independent basis, Debye-Ang):
   XX=            -24.5098   YY=            -23.4579   ZZ=            -19.6707
   XY=              0.0405   XZ=              0.0000   YZ=              0.0000
 Traceless Quadrupole moment (field-independent basis, Debye-Ang):
   XX=             -1.9637   YY=             -0.9117   ZZ=              2.8754
   XY=              0.0405   XZ=              0.0000   YZ=              0.0000
 Octapole moment (field-independent basis, Debye-Ang**2):
  XXX=              0.0413  YYY=             -0.4419  ZZZ=              0.0000  XYY=              0.0198
  XXY=             -6.1303  XXZ=              0.0000  XZZ=              0.0149  YZZ=             -1.4234
  YYZ=              0.0000  XYZ=              0.0000
 Hexadecapole moment (field-independent basis, Debye-Ang**3):
 XXXX=            -86.5097 YYYY=           -132.3548 ZZZZ=            -38.4698 XXXY=              0.2567
 XXXZ=              0.0000 YYYX=              0.2700 YYYZ=              0.0000 ZZZX=              0.0000
 ZZZY=              0.0000 XXYY=            -53.1087 XXZZ=            -20.9506 YYZZ=            -28.9931
 XXYZ=              0.0000 YYXZ=              0.0000 ZZXY=              0.0701
 N-N= 2.901690285522D+01 E-N=-2.424245891131D+02  KE= 7.775111280984D+01
 Symmetry A'   KE= 7.574547714854D+01
 Symmetry A"   KE= 2.005635661301D+00
 No NMR shielding tensors so no spin-rotation constants.
 Leave Link  601 at Sun Feb  3 22:47:27 2019, MaxMem=   412876800 cpu:         0.5
 (Enter /usr/local/gaussian/gaussian09/g09/l701.exe)
 Compute integral first derivatives.
 ... and contract with generalized density number  0.
 Leave Link  701 at Sun Feb  3 22:47:27 2019, MaxMem=   412876800 cpu:         0.6
 (Enter /usr/local/gaussian/gaussian09/g09/l702.exe)
 L702 exits ... SP integral derivatives will be done elsewhere.
 Leave Link  702 at Sun Feb  3 22:47:27 2019, MaxMem=   412876800 cpu:         0.0
 (Enter /usr/local/gaussian/gaussian09/g09/l703.exe)
 Compute integral first derivatives, UseDBF=F ICtDFT=           0.
 Integral derivatives from FoFJK, PRISM(SPDF).
 Calling FoFJK, ICntrl=      2127 FMM=F ISym2X=1 I1Cent= 0 IOpClX= 0 NMat=1 NMatS=1 NMatT=0.
 FoFJK:  IHMeth= 1 ICntrl=    2127 DoSepK=F KAlg= 0 I1Cent=   0 FoldK=F
 IRaf=         0 NMat=   1 IRICut=       1 DoRegI=T DoRafI=F ISym2E= 1.
 FoFCou: FMM=F IPFlag=           0 FMFlag=      100000 FMFlg1=         800
         NFxFlg=           0 DoJE=F BraDBF=F KetDBF=F FulRan=T
         wScrn=  0.000000 ICntrl=    2127 IOpCl=  0 I1Cent=           0 NGrid=           0
         NMat0=    1 NMatS0=      1 NMatT0=    0 NMatD0=    1 NMtDS0=    0 NMtDT0=    0
 Petite list used in FoFCou.
 Leave Link  703 at Sun Feb  3 22:47:32 2019, MaxMem=   412876800 cpu:         9.2
 (Enter /usr/local/gaussian/gaussian09/g09/l716.exe)
 Dipole        = 2.92485831D-03-4.63302203D-01 0.00000000D+00
 ***** Axes restored to original set *****
 -------------------------------------------------------------------
 Center     Atomic                   Forces (Hartrees/Bohr)
 Number     Number              X              Y              Z
 -------------------------------------------------------------------
      1        6           0.000290910   -0.050047558   -0.000000000
      2        1           0.003606536   -0.019675749   -0.000000000
      3        1          -0.003613171   -0.019385024   -0.000000000
      4        6          -0.000297758    0.104334965   -0.000000000
      5        1           0.000013483   -0.015226634   -0.000000000
 -------------------------------------------------------------------
 Cartesian Forces:  Max     0.104334965 RMS     0.030996283
 Leave Link  716 at Sun Feb  3 22:47:32 2019, MaxMem=   412876800 cpu:         0.1
 (Enter /usr/local/gaussian/gaussian09/g09/l103.exe)

 GradGradGradGradGradGradGradGradGradGradGradGradGradGradGradGradGradGrad
 Berny optimization.
 FormGI is forming the generalized inverse of G from B-inverse, IUseBI=4.
 Internal  Forces:  Max     0.089108331 RMS     0.030254693
 Search for a local minimum.
 Step number   1 out of a maximum of   20
 All quantities printed in internal units (Hartrees-Bohrs-Radians)
 RMS Force = .30255D-01 SwitMx=.10000D-02 MixMth= 1
 Mixed Optimization -- RFO/linear search
 Second derivative matrix not updated -- first step.
 The second derivative matrix:
                          R1        R2        R3        R4        A1
           R1           0.33653
           R2           0.00000   0.33661
           R3           0.00000   0.00000   0.82784
           R4           0.00000   0.00000   0.00000   0.35871
           A1           0.00000   0.00000   0.00000   0.00000   0.16000
           A2           0.00000   0.00000   0.00000   0.00000   0.00000
           A3           0.00000   0.00000   0.00000   0.00000   0.00000
           A4           0.00000   0.00000   0.00000   0.00000   0.00000
           A5           0.00000   0.00000   0.00000   0.00000   0.00000
           D1           0.00000   0.00000   0.00000   0.00000   0.00000
                          A2        A3        A4        A5        D1
           A2           0.16000
           A3           0.00000   0.16000
           A4           0.00000   0.00000   0.00354
           A5           0.00000   0.00000   0.00000   0.00354
           D1           0.00000   0.00000   0.00000   0.00000   0.04057
 ITU=  0
     Eigenvalues ---    0.00354   0.00354   0.04057   0.16000   0.16000
     Eigenvalues ---    0.33653   0.33661   0.35871   0.82784
 RFO step:  Lambda=-1.46484526D-02 EMin= 3.53588951D-03
 Linear search not attempted -- first point.
 Iteration  1 RMS(Cart)=  0.06839676 RMS(Int)=  0.00178697
 Iteration  2 RMS(Cart)=  0.00188682 RMS(Int)=  0.00000153
 Iteration  3 RMS(Cart)=  0.00000141 RMS(Int)=  0.00000000
 Iteration  4 RMS(Cart)=  0.00000000 RMS(Int)=  0.00000000
 ITry= 1 IFail=0 DXMaxC= 1.21D-01 DCOld= 1.00D+10 DXMaxT= 3.00D-01 DXLimC= 3.00D+00 Rises=F
 ClnCor:  largest displacement from symmetrization is 7.15D-11 for atom     1.
 Variable       Old X    -DE/DX   Delta X   Delta X   Delta X     New X
                                 (Linear)    (Quad)   (Total)
    R1        2.07920   0.01333   0.00000   0.03796   0.03796   2.11716
    R2        2.07905   0.01324   0.00000   0.03769   0.03769   2.11675
    R3        2.36448   0.08911   0.00000   0.10577   0.10577   2.47025
    R4        2.04284  -0.01523   0.00000  -0.04078  -0.04078   2.00205
    A1        2.04150  -0.02046   0.00000  -0.11716  -0.11716   1.92434
    A2        2.11899   0.01054   0.00000   0.06038   0.06038   2.17936
    A3        2.12270   0.00992   0.00000   0.05679   0.05679   2.17949
    A4        3.14096  -0.00005   0.00000  -0.00256  -0.00256   3.13840
    A5        3.14159   0.00000   0.00000   0.00000   0.00000   3.14159
    D1        3.14159  -0.00000   0.00000   0.00000   0.00000   3.14159
         Item               Value     Threshold  Converged?
 Maximum Force            0.089108     0.000450     NO 
 RMS     Force            0.030255     0.000300     NO 
 Maximum Displacement     0.121033     0.001800     NO 
 RMS     Displacement     0.068786     0.001200     NO 
 Predicted change in Energy=-7.590214D-03
 Lowest energy point so far.  Saving SCF results.
 GradGradGradGradGradGradGradGradGradGradGradGradGradGradGradGradGradGrad

 Leave Link  103 at Sun Feb  3 22:47:32 2019, MaxMem=   412876800 cpu:         0.0
 (Enter /usr/local/gaussian/gaussian09/g09/l202.exe)
                          Input orientation:                          
 ---------------------------------------------------------------------
 Center     Atomic      Atomic             Coordinates (Angstroms)
 Number     Number       Type             X           Y           Z
 ---------------------------------------------------------------------
      1          6           0        0.000240   -0.571214    0.000000
      2          1           0        0.920236   -1.210589    0.000000
      3          1           0       -0.917934   -1.212821    0.000000
      4          6           0       -0.001357    0.735985    0.000000
      5          1           0        0.000734    1.795424    0.000000
 ---------------------------------------------------------------------
                    Distance matrix (angstroms):
                    1          2          3          4          5
     1  C    0.000000
     2  H    1.120354   0.000000
     3  H    1.120135   1.838172   0.000000
     4  C    1.307200   2.153714   2.153592   0.000000
     5  H    2.366638   3.143500   3.145392   1.059441   0.000000
 Stoichiometry    C2H3(1-)
 Framework group  CS[SG(C2H3)]
 Deg. of freedom     7
 Full point group                 CS      NOp   2
 RotChk:  IX=2 Diff= 1.73D-03
 Largest Abelian subgroup         CS      NOp   2
 Largest concise Abelian subgroup C1      NOp   1
                         Standard orientation:                         
 ---------------------------------------------------------------------
 Center     Atomic      Atomic             Coordinates (Angstroms)
 Number     Number       Type             X           Y           Z
 ---------------------------------------------------------------------
      1          6           0       -0.000243   -0.595257    0.000000
      2          1           0        0.918972   -1.235754    0.000000
      3          1           0       -0.919200   -1.235742    0.000000
      4          6           0       -0.000243    0.711943   -0.000000
      5          1           0        0.003142    1.771379   -0.000000
 ---------------------------------------------------------------------
 Rotational constants (GHZ):    296.8161871     30.5238557     27.6775624
 Leave Link  202 at Sun Feb  3 22:47:32 2019, MaxMem=   412876800 cpu:         0.0
 (Enter /usr/local/gaussian/gaussian09/g09/l301.exe)
 Standard basis: 6-311++G(3df,2p) (5D, 7F)
 Ernie: Thresh=  0.10000D-02 Tol=  0.10000D-05 Strict=F.
 There are    86 symmetry adapted cartesian basis functions of A'  symmetry.
 There are    34 symmetry adapted cartesian basis functions of A"  symmetry.
 There are    76 symmetry adapted basis functions of A'  symmetry.
 There are    32 symmetry adapted basis functions of A"  symmetry.
   108 basis functions,   152 primitive gaussians,   120 cartesian basis functions
     8 alpha electrons        8 beta electrons
       nuclear repulsion energy        28.1534560778 Hartrees.
 IExCor=  402 DFT=T Ex+Corr=B3LYP ExCW=0 ScaHFX=  0.200000
 ScaDFX=  0.800000  0.720000  1.000000  0.810000 ScalE2=  1.000000  1.000000
 IRadAn=      0 IRanWt=     -1 IRanGd=            0 ICorTp=0 IEmpDi=  4
 NAtoms=    5 NActive=    5 NUniq=    5 SFac= 1.00D+00 NAtFMM=   60 NAOKFM=F Big=F
 Integral buffers will be    131072 words long.
 Raffenetti 2 integral format.
 Two-electron integral symmetry is turned on.
 Leave Link  301 at Sun Feb  3 22:47:32 2019, MaxMem=   412876800 cpu:         0.2
 (Enter /usr/local/gaussian/gaussian09/g09/l302.exe)
 NPDir=0 NMtPBC=     1 NCelOv=     1 NCel=       1 NClECP=     1 NCelD=      1
         NCelK=      1 NCelE2=     1 NClLst=     1 CellRange=     0.0.
 One-electron integrals computed using PRISM.
 NBasis=   108 RedAO= T EigKep=  5.11D-05  NBF=    76    32
 NBsUse=   108 1.00D-06 EigRej= -1.00D+00 NBFU=    76    32
 Precomputing XC quadrature grid using
 IXCGrd= 4 IRadAn=           0 IRanWt=          -1 IRanGd=           0 AccXCQ= 0.00D+00.
 Generated NRdTot=       0 NPtTot=           0 NUsed=           0 NTot=          32
 NSgBfM=   120   120   120   120   120 MxSgAt=     5 MxSgA2=     5.
 Leave Link  302 at Sun Feb  3 22:47:32 2019, MaxMem=   412876800 cpu:         0.5
 (Enter /usr/local/gaussian/gaussian09/g09/l303.exe)
 DipDrv:  MaxL=1.
 Leave Link  303 at Sun Feb  3 22:47:32 2019, MaxMem=   412876800 cpu:         0.1
 (Enter /usr/local/gaussian/gaussian09/g09/l401.exe)
 Initial guess from the checkpoint file:  "/scratch/sergio/H3C2.q-1.m1-3.com-4935936/Gau-497.chk"
 B after Tr=     0.000000    0.000000   -0.000000
         Rot=    1.000000    0.000000    0.000000    0.000409 Ang=   0.05 deg.
 Guess basis will be translated and rotated to current coordinates.
 JPrj=2 DoOrth=T DoCkMO=T.
 Initial guess orbital symmetries:
       Occupied  (A') (A') (A') (A') (A') (A') (A") (A')
       Virtual   (A') (A') (A') (A') (A') (A') (A') (A') (A') (A')
                 (A') (A') (A') (A') (A') (A') (A') (A') (A') (A')
                 (A') (A') (A') (A') (A') (A') (A') (A') (A') (A')
                 (A') (A') (A') (A') (A') (A') (A') (A') (A') (A')
                 (A') (A') (A') (A') (A') (A') (A') (A') (A') (A')
                 (A') (A') (A') (A') (A') (A') (A') (A') (A') (A')
                 (A') (A') (A') (A') (A') (A') (A') (A') (A') (A")
                 (A") (A") (A") (A") (A") (A") (A") (A") (A") (A")
                 (A") (A") (A") (A") (A") (A") (A") (A") (A") (A")
                 (A") (A") (A") (A") (A") (A") (A") (A") (A") (A")
 The electronic state of the initial guess is 1-A'.
 Generating alternative initial guess.
 ExpMin= 3.60D-02 ExpMax= 4.56D+03 ExpMxC= 6.82D+02 IAcc=3 IRadAn=         5 AccDes= 0.00D+00
 Harris functional with IExCor=  402 and IRadAn=       5 diagonalized for initial guess.
 HarFok:  IExCor=  402 AccDes= 0.00D+00 IRadAn=         5 IDoV= 1 UseB2=F ITyADJ=14
 ICtDFT=  3500011 ScaDFX=  1.000000  1.000000  1.000000  1.000000
 FoFCou: FMM=F IPFlag=           0 FMFlag=      100000 FMFlg1=           0
         NFxFlg=           0 DoJE=T BraDBF=F KetDBF=T FulRan=T
         wScrn=  0.000000 ICntrl=     500 IOpCl=  0 I1Cent=   200000004 NGrid=           0
         NMat0=    1 NMatS0=      1 NMatT0=    0 NMatD0=    1 NMtDS0=    0 NMtDT0=    0
 Petite list used in FoFCou.
 Harris En= -78.1613125725855    
 Leave Link  401 at Sun Feb  3 22:47:33 2019, MaxMem=   412876800 cpu:         2.1
 (Enter /usr/local/gaussian/gaussian09/g09/l502.exe)
 Closed shell SCF:
 Using DIIS extrapolation, IDIIS=  1040.
 Integral symmetry usage will be decided dynamically.
 Keep R1 ints in memory in symmetry-blocked form, NReq=26327422.
 IVT=       63384 IEndB=       63384 NGot=   412876800 MDV=   403874928
 LenX=   403874928 LenY=   403860087
 Requested convergence on RMS density matrix=1.00D-08 within 128 cycles.
 Requested convergence on MAX density matrix=1.00D-06.
 Requested convergence on             energy=1.00D-06.
 No special actions if energy rises.
 FoFCou: FMM=F IPFlag=           0 FMFlag=           0 FMFlg1=           0
         NFxFlg=           0 DoJE=F BraDBF=F KetDBF=F FulRan=T
         wScrn=  0.000000 ICntrl=     600 IOpCl=  0 I1Cent=           0 NGrid=           0
         NMat0=    1 NMatS0=   5886 NMatT0=    0 NMatD0=    1 NMtDS0=    0 NMtDT0=    0
 Petite list used in FoFCou.

 Cycle   1  Pass 1  IDiag  1:
 E= -77.9137440949232    
 DIIS: error= 8.52D-03 at cycle   1 NSaved=   1.
 NSaved= 1 IEnMin= 1 EnMin= -77.9137440949232     IErMin= 1 ErrMin= 8.52D-03
 ErrMax= 8.52D-03  0.00D+00 EMaxC= 1.00D-01 BMatC= 4.80D-03 BMatP= 4.80D-03
 IDIUse=3 WtCom= 9.15D-01 WtEn= 8.52D-02
 Coeff-Com:  0.100D+01
 Coeff-En:   0.100D+01
 Coeff:      0.100D+01
 Gap=     0.231 Goal=   None    Shift=    0.000
 GapD=    0.231 DampG=1.000 DampE=1.000 DampFc=1.0000 IDamp=-1.
 RMSDP=1.88D-03 MaxDP=6.32D-02              OVMax= 2.69D-02

 Cycle   2  Pass 1  IDiag  1:
 E= -77.9156140092920     Delta-E=       -0.001869914369 Rises=F Damp=F
 DIIS: error= 3.44D-03 at cycle   2 NSaved=   2.
 NSaved= 2 IEnMin= 2 EnMin= -77.9156140092920     IErMin= 2 ErrMin= 3.44D-03
 ErrMax= 3.44D-03  0.00D+00 EMaxC= 1.00D-01 BMatC= 5.54D-04 BMatP= 4.80D-03
 IDIUse=3 WtCom= 9.66D-01 WtEn= 3.44D-02
 Coeff-Com:  0.158D+00 0.842D+00
 Coeff-En:   0.000D+00 0.100D+01
 Coeff:      0.152D+00 0.848D+00
 Gap=     0.047 Goal=   None    Shift=    0.000
 RMSDP=5.21D-04 MaxDP=1.43D-02 DE=-1.87D-03 OVMax= 2.62D-02

 Cycle   3  Pass 1  IDiag  1:
 E= -77.9152200764294     Delta-E=        0.000393932863 Rises=F Damp=F
 DIIS: error= 4.60D-03 at cycle   3 NSaved=   3.
 NSaved= 3 IEnMin= 2 EnMin= -77.9156140092920     IErMin= 2 ErrMin= 3.44D-03
 ErrMax= 4.60D-03  0.00D+00 EMaxC= 1.00D-01 BMatC= 8.75D-04 BMatP= 5.54D-04
 IDIUse=3 WtCom= 1.29D-01 WtEn= 8.71D-01
 Coeff-Com:  0.229D-01 0.553D+00 0.424D+00
 Coeff-En:   0.000D+00 0.613D+00 0.387D+00
 Coeff:      0.295D-02 0.605D+00 0.392D+00
 Gap=     0.048 Goal=   None    Shift=    0.000
 RMSDP=3.88D-04 MaxDP=1.09D-02 DE= 3.94D-04 OVMax= 1.53D-02

 Cycle   4  Pass 1  IDiag  1:
 E= -77.9161273375214     Delta-E=       -0.000907261092 Rises=F Damp=F
 DIIS: error= 7.48D-04 at cycle   4 NSaved=   4.
 NSaved= 4 IEnMin= 4 EnMin= -77.9161273375214     IErMin= 4 ErrMin= 7.48D-04
 ErrMax= 7.48D-04  0.00D+00 EMaxC= 1.00D-01 BMatC= 1.54D-05 BMatP= 5.54D-04
 IDIUse=3 WtCom= 9.93D-01 WtEn= 7.48D-03
 Coeff-Com:  0.111D-03 0.227D+00 0.145D+00 0.627D+00
 Coeff-En:   0.000D+00 0.000D+00 0.000D+00 0.100D+01
 Coeff:      0.110D-03 0.226D+00 0.144D+00 0.630D+00
 Gap=     0.047 Goal=   None    Shift=    0.000
 RMSDP=1.09D-04 MaxDP=6.73D-03 DE=-9.07D-04 OVMax= 3.22D-03

 Cycle   5  Pass 1  IDiag  1:
 E= -77.9161359679466     Delta-E=       -0.000008630425 Rises=F Damp=F
 DIIS: error= 4.20D-04 at cycle   5 NSaved=   5.
 NSaved= 5 IEnMin= 5 EnMin= -77.9161359679466     IErMin= 5 ErrMin= 4.20D-04
 ErrMax= 4.20D-04  0.00D+00 EMaxC= 1.00D-01 BMatC= 6.24D-06 BMatP= 1.54D-05
 IDIUse=3 WtCom= 9.96D-01 WtEn= 4.20D-03
 Coeff-Com: -0.170D-02 0.759D-01 0.415D-01 0.421D+00 0.463D+00
 Coeff-En:   0.000D+00 0.000D+00 0.000D+00 0.339D+00 0.661D+00
 Coeff:     -0.169D-02 0.756D-01 0.413D-01 0.421D+00 0.464D+00
 Gap=     0.048 Goal=   None    Shift=    0.000
 RMSDP=8.75D-05 MaxDP=3.77D-03 DE=-8.63D-06 OVMax= 2.05D-03

 Cycle   6  Pass 1  IDiag  1:
 E= -77.9161439572553     Delta-E=       -0.000007989309 Rises=F Damp=F
 DIIS: error= 2.91D-05 at cycle   6 NSaved=   6.
 NSaved= 6 IEnMin= 6 EnMin= -77.9161439572553     IErMin= 6 ErrMin= 2.91D-05
 ErrMax= 2.91D-05  0.00D+00 EMaxC= 1.00D-01 BMatC= 3.26D-08 BMatP= 6.24D-06
 IDIUse=1 WtCom= 1.00D+00 WtEn= 0.00D+00
 Coeff-Com:  0.999D-06-0.117D-01-0.662D-02-0.615D-02 0.544D-01 0.970D+00
 Coeff:      0.999D-06-0.117D-01-0.662D-02-0.615D-02 0.544D-01 0.970D+00
 Gap=     0.048 Goal=   None    Shift=    0.000
 RMSDP=5.03D-05 MaxDP=1.56D-03 DE=-7.99D-06 OVMax= 6.33D-04

 Cycle   7  Pass 1  IDiag  1:
 E= -77.9161440891094     Delta-E=       -0.000000131854 Rises=F Damp=F
 DIIS: error= 3.98D-06 at cycle   7 NSaved=   7.
 NSaved= 7 IEnMin= 7 EnMin= -77.9161440891094     IErMin= 7 ErrMin= 3.98D-06
 ErrMax= 3.98D-06  0.00D+00 EMaxC= 1.00D-01 BMatC= 8.82D-10 BMatP= 3.26D-08
 IDIUse=1 WtCom= 1.00D+00 WtEn= 0.00D+00
 Coeff-Com:  0.503D-04-0.202D-02-0.165D-02-0.142D-01-0.183D-01-0.113D+00
 Coeff-Com:  0.115D+01
 Coeff:      0.503D-04-0.202D-02-0.165D-02-0.142D-01-0.183D-01-0.113D+00
 Coeff:      0.115D+01
 Gap=     0.048 Goal=   None    Shift=    0.000
 RMSDP=3.04D-05 MaxDP=9.25D-04 DE=-1.32D-07 OVMax= 3.46D-04

 Cycle   8  Pass 1  IDiag  1:
 E= -77.9161441079616     Delta-E=       -0.000000018852 Rises=F Damp=F
 DIIS: error= 1.59D-06 at cycle   8 NSaved=   8.
 NSaved= 8 IEnMin= 8 EnMin= -77.9161441079616     IErMin= 8 ErrMin= 1.59D-06
 ErrMax= 1.59D-06  0.00D+00 EMaxC= 1.00D-01 BMatC= 1.62D-10 BMatP= 8.82D-10
 IDIUse=1 WtCom= 1.00D+00 WtEn= 0.00D+00
 Coeff-Com:  0.253D-05 0.802D-03 0.336D-03 0.161D-02-0.540D-02-0.700D-01
 Coeff-Com:  0.608D-02 0.107D+01
 Coeff:      0.253D-05 0.802D-03 0.336D-03 0.161D-02-0.540D-02-0.700D-01
 Coeff:      0.608D-02 0.107D+01
 Gap=     0.048 Goal=   None    Shift=    0.000
 RMSDP=1.12D-05 MaxDP=3.42D-04 DE=-1.89D-08 OVMax= 1.22D-04

 Cycle   9  Pass 1  IDiag  1:
 E= -77.9161441101781     Delta-E=       -0.000000002217 Rises=F Damp=F
 DIIS: error= 8.36D-07 at cycle   9 NSaved=   9.
 NSaved= 9 IEnMin= 9 EnMin= -77.9161441101781     IErMin= 9 ErrMin= 8.36D-07
 ErrMax= 8.36D-07  0.00D+00 EMaxC= 1.00D-01 BMatC= 3.36D-11 BMatP= 1.62D-10
 IDIUse=1 WtCom= 1.00D+00 WtEn= 0.00D+00
 Coeff-Com: -0.759D-05 0.405D-03 0.134D-03 0.257D-02 0.944D-03 0.333D-02
 Coeff-Com: -0.131D+00 0.902D-01 0.103D+01
 Coeff:     -0.759D-05 0.405D-03 0.134D-03 0.257D-02 0.944D-03 0.333D-02
 Coeff:     -0.131D+00 0.902D-01 0.103D+01
 Gap=     0.048 Goal=   None    Shift=    0.000
 RMSDP=4.39D-06 MaxDP=1.33D-04 DE=-2.22D-09 OVMax= 4.60D-05

 Cycle  10  Pass 1  IDiag  1:
 E= -77.9161441104255     Delta-E=       -0.000000000247 Rises=F Damp=F
 DIIS: error= 1.08D-07 at cycle  10 NSaved=  10.
 NSaved=10 IEnMin=10 EnMin= -77.9161441104255     IErMin=10 ErrMin= 1.08D-07
 ErrMax= 1.08D-07  0.00D+00 EMaxC= 1.00D-01 BMatC= 8.44D-13 BMatP= 3.36D-11
 IDIUse=1 WtCom= 1.00D+00 WtEn= 0.00D+00
 Coeff-Com: -0.159D-05 0.252D-04 0.455D-05 0.368D-03 0.447D-03 0.390D-02
 Coeff-Com: -0.214D-01-0.652D-01 0.202D+00 0.880D+00
 Coeff:     -0.159D-05 0.252D-04 0.455D-05 0.368D-03 0.447D-03 0.390D-02
 Coeff:     -0.214D-01-0.652D-01 0.202D+00 0.880D+00
 Gap=     0.048 Goal=   None    Shift=    0.000
 RMSDP=7.78D-07 MaxDP=2.43D-05 DE=-2.47D-10 OVMax= 8.24D-06

 Cycle  11  Pass 1  IDiag  1:
 E= -77.9161441104340     Delta-E=       -0.000000000009 Rises=F Damp=F
 DIIS: error= 2.83D-08 at cycle  11 NSaved=  11.
 NSaved=11 IEnMin=11 EnMin= -77.9161441104340     IErMin=11 ErrMin= 2.83D-08
 ErrMax= 2.83D-08  0.00D+00 EMaxC= 1.00D-01 BMatC= 5.83D-14 BMatP= 8.44D-13
 IDIUse=1 WtCom= 1.00D+00 WtEn= 0.00D+00
 Coeff-Com: -0.823D-07-0.131D-04-0.352D-05-0.146D-04 0.887D-04 0.982D-03
 Coeff-Com:  0.191D-03-0.244D-01 0.986D-02 0.203D+00 0.811D+00
 Coeff:     -0.823D-07-0.131D-04-0.352D-05-0.146D-04 0.887D-04 0.982D-03
 Coeff:      0.191D-03-0.244D-01 0.986D-02 0.203D+00 0.811D+00
 Gap=     0.048 Goal=   None    Shift=    0.000
 RMSDP=3.09D-07 MaxDP=1.20D-05 DE=-8.51D-12 OVMax= 2.27D-06

 Cycle  12  Pass 1  IDiag  1:
 E= -77.9161441104349     Delta-E=       -0.000000000001 Rises=F Damp=F
 DIIS: error= 1.21D-08 at cycle  12 NSaved=  12.
 NSaved=12 IEnMin=12 EnMin= -77.9161441104349     IErMin=12 ErrMin= 1.21D-08
 ErrMax= 1.21D-08  0.00D+00 EMaxC= 1.00D-01 BMatC= 1.28D-14 BMatP= 5.83D-14
 IDIUse=1 WtCom= 1.00D+00 WtEn= 0.00D+00
 Coeff-Com:  0.248D-06 0.839D-06 0.189D-06-0.452D-04-0.102D-03-0.933D-03
 Coeff-Com:  0.336D-02 0.176D-01-0.282D-01-0.224D+00-0.880D-01 0.132D+01
 Coeff:      0.248D-06 0.839D-06 0.189D-06-0.452D-04-0.102D-03-0.933D-03
 Coeff:      0.336D-02 0.176D-01-0.282D-01-0.224D+00-0.880D-01 0.132D+01
 Gap=     0.048 Goal=   None    Shift=    0.000
 RMSDP=3.68D-07 MaxDP=1.48D-05 DE=-8.95D-13 OVMax= 2.50D-06

 Cycle  13  Pass 1  IDiag  1:
 E= -77.9161441104356     Delta-E=       -0.000000000001 Rises=F Damp=F
 DIIS: error= 5.74D-09 at cycle  13 NSaved=  13.
 NSaved=13 IEnMin=13 EnMin= -77.9161441104356     IErMin=13 ErrMin= 5.74D-09
 ErrMax= 5.74D-09  0.00D+00 EMaxC= 1.00D-01 BMatC= 2.13D-15 BMatP= 1.28D-14
 IDIUse=1 WtCom= 1.00D+00 WtEn= 0.00D+00
 Coeff-Com: -0.638D-07 0.272D-05 0.107D-05 0.161D-04 0.214D-04 0.143D-03
 Coeff-Com: -0.141D-02-0.157D-02 0.862D-02 0.337D-01-0.865D-01-0.729D+00
 Coeff-Com:  0.178D+01
 Coeff:     -0.638D-07 0.272D-05 0.107D-05 0.161D-04 0.214D-04 0.143D-03
 Coeff:     -0.141D-02-0.157D-02 0.862D-02 0.337D-01-0.865D-01-0.729D+00
 Coeff:      0.178D+01
 Gap=     0.048 Goal=   None    Shift=    0.000
 RMSDP=3.36D-07 MaxDP=1.35D-05 DE=-6.96D-13 OVMax= 2.01D-06

 Cycle  14  Pass 1  IDiag  1:
 E= -77.9161441104360     Delta-E=       -0.000000000000 Rises=F Damp=F
 DIIS: error= 1.51D-09 at cycle  14 NSaved=  14.
 NSaved=14 IEnMin=14 EnMin= -77.9161441104360     IErMin=14 ErrMin= 1.51D-09
 ErrMax= 1.51D-09  0.00D+00 EMaxC= 1.00D-01 BMatC= 8.79D-17 BMatP= 2.13D-15
 IDIUse=1 WtCom= 1.00D+00 WtEn= 0.00D+00
 Coeff-Com:  0.237D-07-0.141D-05-0.682D-06-0.624D-05-0.793D-05-0.427D-04
 Coeff-Com:  0.625D-03 0.326D-03-0.369D-02-0.981D-02 0.441D-01 0.342D+00
 Coeff-Com: -0.937D+00 0.156D+01
 Coeff:      0.237D-07-0.141D-05-0.682D-06-0.624D-05-0.793D-05-0.427D-04
 Coeff:      0.625D-03 0.326D-03-0.369D-02-0.981D-02 0.441D-01 0.342D+00
 Coeff:     -0.937D+00 0.156D+01
 Gap=     0.048 Goal=   None    Shift=    0.000
 RMSDP=6.96D-08 MaxDP=2.63D-06 DE=-4.26D-13 OVMax= 2.86D-07

 Cycle  15  Pass 1  IDiag  1:
 E= -77.9161441104361     Delta-E=       -0.000000000000 Rises=F Damp=F
 DIIS: error= 5.93D-10 at cycle  15 NSaved=  15.
 NSaved=15 IEnMin=15 EnMin= -77.9161441104361     IErMin=15 ErrMin= 5.93D-10
 ErrMax= 5.93D-10  0.00D+00 EMaxC= 1.00D-01 BMatC= 1.55D-17 BMatP= 8.79D-17
 IDIUse=1 WtCom= 1.00D+00 WtEn= 0.00D+00
 Coeff-Com:  0.697D-08-0.188D-06 0.269D-07-0.171D-05-0.213D-05-0.167D-04
 Coeff-Com:  0.106D-03 0.190D-03-0.651D-03-0.385D-02 0.264D-02 0.615D-01
 Coeff-Com: -0.103D+00-0.494D+00 0.154D+01
 Coeff:      0.697D-08-0.188D-06 0.269D-07-0.171D-05-0.213D-05-0.167D-04
 Coeff:      0.106D-03 0.190D-03-0.651D-03-0.385D-02 0.264D-02 0.615D-01
 Coeff:     -0.103D+00-0.494D+00 0.154D+01
 Gap=     0.048 Goal=   None    Shift=    0.000
 RMSDP=3.39D-08 MaxDP=1.24D-06 DE=-7.11D-14 OVMax= 1.39D-07

 Cycle  16  Pass 1  IDiag  1:
 E= -77.9161441104366     Delta-E=       -0.000000000001 Rises=F Damp=F
 DIIS: error= 4.43D-11 at cycle  16 NSaved=  16.
 NSaved=16 IEnMin=16 EnMin= -77.9161441104366     IErMin=16 ErrMin= 4.43D-11
 ErrMax= 4.43D-11  0.00D+00 EMaxC= 1.00D-01 BMatC= 1.56D-19 BMatP= 1.55D-17
 IDIUse=1 WtCom= 1.00D+00 WtEn= 0.00D+00
 Large coefficients: NSaved= 16 BigCof=    0.00 CofMax=   10.00 Det=-1.04D-18
 Inversion failed.  Reducing to 15 matrices.
 Coeff-Com:  0.568D-07 0.267D-07 0.158D-06 0.170D-06 0.336D-06-0.187D-04
 Coeff-Com:  0.121D-04 0.950D-04 0.188D-03-0.208D-02-0.114D-01 0.324D-01
 Coeff-Com: -0.715D-01 0.520D-01 0.100D+01
 Coeff:      0.568D-07 0.267D-07 0.158D-06 0.170D-06 0.336D-06-0.187D-04
 Coeff:      0.121D-04 0.950D-04 0.188D-03-0.208D-02-0.114D-01 0.324D-01
 Coeff:     -0.715D-01 0.520D-01 0.100D+01
 Gap=     0.048 Goal=   None    Shift=    0.000
 RMSDP=2.47D-09 MaxDP=9.31D-08 DE=-5.54D-13 OVMax= 1.02D-08

 SCF Done:  E(RB3LYP) =  -77.9161441104     A.U. after   16 cycles
            NFock= 16  Conv=0.25D-08     -V/T= 2.0049
 KE= 7.753358533799D+01 PE=-2.405149025681D+02 EE= 5.691171704186D+01
 Leave Link  502 at Sun Feb  3 22:47:42 2019, MaxMem=   412876800 cpu:        17.7
 (Enter /usr/local/gaussian/gaussian09/g09/l701.exe)
 Compute integral first derivatives.
 ... and contract with generalized density number  0.
 Leave Link  701 at Sun Feb  3 22:47:43 2019, MaxMem=   412876800 cpu:         0.6
 (Enter /usr/local/gaussian/gaussian09/g09/l702.exe)
 L702 exits ... SP integral derivatives will be done elsewhere.
 Leave Link  702 at Sun Feb  3 22:47:43 2019, MaxMem=   412876800 cpu:         0.0
 (Enter /usr/local/gaussian/gaussian09/g09/l703.exe)
 Compute integral first derivatives, UseDBF=F ICtDFT=           0.
 Integral derivatives from FoFJK, PRISM(SPDF).
 Calling FoFJK, ICntrl=      2127 FMM=F ISym2X=1 I1Cent= 0 IOpClX= 0 NMat=1 NMatS=1 NMatT=0.
 FoFJK:  IHMeth= 1 ICntrl=    2127 DoSepK=F KAlg= 0 I1Cent=   0 FoldK=F
 IRaf=         0 NMat=   1 IRICut=       1 DoRegI=T DoRafI=F ISym2E= 1.
 FoFCou: FMM=F IPFlag=           0 FMFlag=      100000 FMFlg1=         800
         NFxFlg=           0 DoJE=F BraDBF=F KetDBF=F FulRan=T
         wScrn=  0.000000 ICntrl=    2127 IOpCl=  0 I1Cent=           0 NGrid=           0
         NMat0=    1 NMatS0=      1 NMatT0=    0 NMatD0=    1 NMtDS0=    0 NMtDT0=    0
 Petite list used in FoFCou.
 Leave Link  703 at Sun Feb  3 22:47:47 2019, MaxMem=   412876800 cpu:         9.1
 (Enter /usr/local/gaussian/gaussian09/g09/l716.exe)
 Dipole        = 3.72003171D-03-4.90400890D-01-4.37801599D-33
 ***** Axes restored to original set *****
 -------------------------------------------------------------------
 Center     Atomic                   Forces (Hartrees/Bohr)
 Number     Number              X              Y              Z
 -------------------------------------------------------------------
      1        6           0.000173342    0.004494067   -0.000000000
      2        1          -0.000913622   -0.002396215    0.000000000
      3        1           0.000968155   -0.002294519    0.000000000
      4        6          -0.000448113   -0.000876152    0.000000000
      5        1           0.000220238    0.001072819   -0.000000000
 -------------------------------------------------------------------
 Cartesian Forces:  Max     0.004494067 RMS     0.001531302
 Leave Link  716 at Sun Feb  3 22:47:47 2019, MaxMem=   412876800 cpu:         0.1
 (Enter /usr/local/gaussian/gaussian09/g09/l103.exe)

 GradGradGradGradGradGradGradGradGradGradGradGradGradGradGradGradGradGrad
 Berny optimization.
 Using GEDIIS/GDIIS optimizer.
 FormGI is forming the generalized inverse of G from B-inverse, IUseBI=4.
 Internal  Forces:  Max     0.003474954 RMS     0.001419705
 Search for a local minimum.
 Step number   2 out of a maximum of   20
 All quantities printed in internal units (Hartrees-Bohrs-Radians)
 RMS Force = .14197D-02 SwitMx=.10000D-02 MixMth= 1
 Mixed Optimization -- RFO/linear search
 Update second derivatives using D2CorX and points    1    2
 DE= -7.41D-03 DEPred=-7.59D-03 R= 9.76D-01
 TightC=F SS=  1.41D+00  RLast= 1.91D-01 DXNew= 5.0454D-01 5.7170D-01
 Trust test= 9.76D-01 RLast= 1.91D-01 DXMaxT set to 5.05D-01
 The second derivative matrix:
                          R1        R2        R3        R4        A1
           R1           0.33650
           R2           0.00006   0.33675
           R3           0.00141   0.00198   0.84875
           R4          -0.00155  -0.00164  -0.01266   0.36251
           A1           0.00156   0.00143   0.00852   0.00033   0.15569
           A2          -0.00081  -0.00074  -0.00443  -0.00016   0.00223
           A3          -0.00075  -0.00069  -0.00409  -0.00017   0.00208
           A4           0.00036   0.00036   0.00255  -0.00047  -0.00049
           A5           0.00000   0.00000   0.00000  -0.00000  -0.00000
           D1          -0.00000  -0.00000  -0.00000   0.00000   0.00000
                          A2        A3        A4        A5        D1
           A2           0.15885
           A3          -0.00108   0.15900
           A4           0.00025   0.00024   0.00355
           A5           0.00000   0.00000   0.00000   0.00354
           D1          -0.00000  -0.00000  -0.00000  -0.00000   0.04057
 ITU=  1  0
 Use linear search instead of GDIIS.
     Eigenvalues ---    0.00354   0.00354   0.04057   0.15335   0.16000
     Eigenvalues ---    0.33643   0.33666   0.36237   0.84926
 RFO step:  Lambda=-1.63753549D-04 EMin= 3.53526258D-03
 Quartic linear search produced a step of  0.05032.
 Iteration  1 RMS(Cart)=  0.05027902 RMS(Int)=  0.00299759
 Iteration  2 RMS(Cart)=  0.00299670 RMS(Int)=  0.00000122
 Iteration  3 RMS(Cart)=  0.00000152 RMS(Int)=  0.00000000
 Iteration  4 RMS(Cart)=  0.00000000 RMS(Int)=  0.00000000
 ITry= 1 IFail=0 DXMaxC= 9.72D-02 DCOld= 1.00D+10 DXMaxT= 5.05D-01 DXLimC= 3.00D+00 Rises=F
 ClnCor:  largest displacement from symmetrization is 7.10D-12 for atom     1.
 Variable       Old X    -DE/DX   Delta X   Delta X   Delta X     New X
                                 (Linear)    (Quad)   (Total)
    R1        2.11716   0.00062   0.00191   0.00046   0.00237   2.11954
    R2        2.11675   0.00052   0.00190   0.00017   0.00207   2.11882
    R3        2.47025   0.00020   0.00532  -0.00406   0.00126   2.47151
    R4        2.00205   0.00107  -0.00205   0.00472   0.00267   2.00472
    A1        1.92434  -0.00347  -0.00590  -0.01877  -0.02467   1.89967
    A2        2.17936   0.00180   0.00304   0.00971   0.01275   2.19211
    A3        2.17949   0.00168   0.00286   0.00906   0.01192   2.19140
    A4        3.13840  -0.00044  -0.00013  -0.12547  -0.12560   3.01280
    A5        3.14159   0.00000   0.00000   0.00000   0.00000   3.14159
    D1        3.14159   0.00000   0.00000   0.00000   0.00000   3.14159
         Item               Value     Threshold  Converged?
 Maximum Force            0.003475     0.000450     NO 
 RMS     Force            0.001420     0.000300     NO 
 Maximum Displacement     0.097249     0.001800     NO 
 RMS     Displacement     0.050252     0.001200     NO 
 Predicted change in Energy=-9.118372D-05
 Lowest energy point so far.  Saving SCF results.
 GradGradGradGradGradGradGradGradGradGradGradGradGradGradGradGradGradGrad

 Leave Link  103 at Sun Feb  3 22:47:47 2019, MaxMem=   412876800 cpu:         0.0
 (Enter /usr/local/gaussian/gaussian09/g09/l202.exe)
                          Input orientation:                          
 ---------------------------------------------------------------------
 Center     Atomic      Atomic             Coordinates (Angstroms)
 Number     Number       Type             X           Y           Z
 ---------------------------------------------------------------------
      1          6           0       -0.012508   -0.565826    0.000000
      2          1           0        0.918845   -1.190800    0.000000
      3          1           0       -0.904490   -1.245184    0.000000
      4          6           0       -0.052124    0.741442   -0.000000
      5          1           0        0.052196    1.797153   -0.000000
 ---------------------------------------------------------------------
                    Distance matrix (angstroms):
                    1          2          3          4          5
     1  C    0.000000
     2  H    1.121611   0.000000
     3  H    1.121231   1.824146   0.000000
     4  C    1.307868   2.162485   2.161761   0.000000
     5  H    2.363865   3.111100   3.189210   1.060853   0.000000
 Stoichiometry    C2H3(1-)
 Framework group  CS[SG(C2H3)]
 Deg. of freedom     7
 Full point group                 CS      NOp   2
 RotChk:  IX=2 Diff= 4.11D-02
 Largest Abelian subgroup         CS      NOp   2
 Largest concise Abelian subgroup C1      NOp   1
                         Standard orientation:                         
 ---------------------------------------------------------------------
 Center     Atomic      Atomic             Coordinates (Angstroms)
 Number     Number       Type             X           Y           Z
 ---------------------------------------------------------------------
      1          6           0       -0.009073   -0.593481    0.000000
      2          1           0        0.902922   -1.246380   -0.000000
      3          1           0       -0.921224   -1.245508    0.000000
      4          6           0       -0.009073    0.714387    0.000000
      5          1           0        0.127177    1.766454   -0.000000
 ---------------------------------------------------------------------
 Rotational constants (GHZ):    298.8677919     30.4274919     27.6159355
 Leave Link  202 at Sun Feb  3 22:47:47 2019, MaxMem=   412876800 cpu:         0.0
 (Enter /usr/local/gaussian/gaussian09/g09/l301.exe)
 Standard basis: 6-311++G(3df,2p) (5D, 7F)
 Ernie: Thresh=  0.10000D-02 Tol=  0.10000D-05 Strict=F.
 There are    86 symmetry adapted cartesian basis functions of A'  symmetry.
 There are    34 symmetry adapted cartesian basis functions of A"  symmetry.
 There are    76 symmetry adapted basis functions of A'  symmetry.
 There are    32 symmetry adapted basis functions of A"  symmetry.
   108 basis functions,   152 primitive gaussians,   120 cartesian basis functions
     8 alpha electrons        8 beta electrons
       nuclear repulsion energy        28.1277530506 Hartrees.
 IExCor=  402 DFT=T Ex+Corr=B3LYP ExCW=0 ScaHFX=  0.200000
 ScaDFX=  0.800000  0.720000  1.000000  0.810000 ScalE2=  1.000000  1.000000
 IRadAn=      0 IRanWt=     -1 IRanGd=            0 ICorTp=0 IEmpDi=  4
 NAtoms=    5 NActive=    5 NUniq=    5 SFac= 1.00D+00 NAtFMM=   60 NAOKFM=F Big=F
 Integral buffers will be    131072 words long.
 Raffenetti 2 integral format.
 Two-electron integral symmetry is turned on.
 Leave Link  301 at Sun Feb  3 22:47:47 2019, MaxMem=   412876800 cpu:         0.2
 (Enter /usr/local/gaussian/gaussian09/g09/l302.exe)
 NPDir=0 NMtPBC=     1 NCelOv=     1 NCel=       1 NClECP=     1 NCelD=      1
         NCelK=      1 NCelE2=     1 NClLst=     1 CellRange=     0.0.
 One-electron integrals computed using PRISM.
 NBasis=   108 RedAO= T EigKep=  5.29D-05  NBF=    76    32
 NBsUse=   108 1.00D-06 EigRej= -1.00D+00 NBFU=    76    32
 Precomputing XC quadrature grid using
 IXCGrd= 4 IRadAn=           0 IRanWt=          -1 IRanGd=           0 AccXCQ= 0.00D+00.
 Generated NRdTot=       0 NPtTot=           0 NUsed=           0 NTot=          32
 NSgBfM=   120   120   120   120   120 MxSgAt=     5 MxSgA2=     5.
 Leave Link  302 at Sun Feb  3 22:47:48 2019, MaxMem=   412876800 cpu:         0.5
 (Enter /usr/local/gaussian/gaussian09/g09/l303.exe)
 DipDrv:  MaxL=1.
 Leave Link  303 at Sun Feb  3 22:47:48 2019, MaxMem=   412876800 cpu:         0.1
 (Enter /usr/local/gaussian/gaussian09/g09/l401.exe)
 Initial guess from the checkpoint file:  "/scratch/sergio/H3C2.q-1.m1-3.com-4935936/Gau-497.chk"
 B after Tr=     0.000000   -0.000000   -0.000000
         Rot=    0.999959    0.000000    0.000000    0.009062 Ang=   1.04 deg.
 Guess basis will be translated and rotated to current coordinates.
 JPrj=2 DoOrth=T DoCkMO=T.
 Initial guess orbital symmetries:
       Occupied  (A') (A') (A') (A') (A') (A') (A") (A')
       Virtual   (A') (A') (A') (A') (A') (A') (A') (A') (A') (A')
                 (A') (A') (A') (A') (A') (A') (A') (A') (A') (A')
                 (A') (A') (A') (A') (A') (A') (A') (A') (A') (A')
                 (A') (A') (A') (A') (A') (A') (A') (A') (A') (A')
                 (A') (A') (A') (A') (A') (A') (A') (A') (A') (A')
                 (A') (A') (A') (A') (A') (A') (A') (A') (A') (A')
                 (A') (A') (A') (A') (A') (A') (A') (A') (A') (A")
                 (A") (A") (A") (A") (A") (A") (A") (A") (A") (A")
                 (A") (A") (A") (A") (A") (A") (A") (A") (A") (A")
                 (A") (A") (A") (A") (A") (A") (A") (A") (A") (A")
 The electronic state of the initial guess is 1-A'.
 Generating alternative initial guess.
 ExpMin= 3.60D-02 ExpMax= 4.56D+03 ExpMxC= 6.82D+02 IAcc=3 IRadAn=         5 AccDes= 0.00D+00
 Harris functional with IExCor=  402 and IRadAn=       5 diagonalized for initial guess.
 HarFok:  IExCor=  402 AccDes= 0.00D+00 IRadAn=         5 IDoV= 1 UseB2=F ITyADJ=14
 ICtDFT=  3500011 ScaDFX=  1.000000  1.000000  1.000000  1.000000
 FoFCou: FMM=F IPFlag=           0 FMFlag=      100000 FMFlg1=           0
         NFxFlg=           0 DoJE=T BraDBF=F KetDBF=T FulRan=T
         wScrn=  0.000000 ICntrl=     500 IOpCl=  0 I1Cent=   200000004 NGrid=           0
         NMat0=    1 NMatS0=      1 NMatT0=    0 NMatD0=    1 NMtDS0=    0 NMtDT0=    0
 Petite list used in FoFCou.
 Harris En= -78.1617939554191    
 Leave Link  401 at Sun Feb  3 22:47:49 2019, MaxMem=   412876800 cpu:         2.1
 (Enter /usr/local/gaussian/gaussian09/g09/l502.exe)
 Closed shell SCF:
 Using DIIS extrapolation, IDIIS=  1040.
 Integral symmetry usage will be decided dynamically.
 Keep R1 ints in memory in symmetry-blocked form, NReq=26327422.
 IVT=       63384 IEndB=       63384 NGot=   412876800 MDV=   403874928
 LenX=   403874928 LenY=   403860087
 Requested convergence on RMS density matrix=1.00D-08 within 128 cycles.
 Requested convergence on MAX density matrix=1.00D-06.
 Requested convergence on             energy=1.00D-06.
 No special actions if energy rises.
 FoFCou: FMM=F IPFlag=           0 FMFlag=           0 FMFlg1=           0
         NFxFlg=           0 DoJE=F BraDBF=F KetDBF=F FulRan=T
         wScrn=  0.000000 ICntrl=     600 IOpCl=  0 I1Cent=           0 NGrid=           0
         NMat0=    1 NMatS0=   5886 NMatT0=    0 NMatD0=    1 NMtDS0=    0 NMtDT0=    0
 Petite list used in FoFCou.

 Cycle   1  Pass 1  IDiag  1:
 E= -77.9153596823651    
 DIIS: error= 4.27D-03 at cycle   1 NSaved=   1.
 NSaved= 1 IEnMin= 1 EnMin= -77.9153596823651     IErMin= 1 ErrMin= 4.27D-03
 ErrMax= 4.27D-03  0.00D+00 EMaxC= 1.00D-01 BMatC= 1.23D-03 BMatP= 1.23D-03
 IDIUse=3 WtCom= 9.57D-01 WtEn= 4.27D-02
 Coeff-Com:  0.100D+01
 Coeff-En:   0.100D+01
 Coeff:      0.100D+01
 Gap=     0.228 Goal=   None    Shift=    0.000
 GapD=    0.228 DampG=1.000 DampE=1.000 DampFc=1.0000 IDamp=-1.
 RMSDP=5.30D-03 MaxDP=1.63D-01              OVMax= 4.03D-02

 Cycle   2  Pass 1  IDiag  1:
 E= -77.9172395723964     Delta-E=       -0.001879890031 Rises=F Damp=F
 DIIS: error= 6.12D-04 at cycle   2 NSaved=   2.
 NSaved= 2 IEnMin= 2 EnMin= -77.9172395723964     IErMin= 2 ErrMin= 6.12D-04
 ErrMax= 6.12D-04  0.00D+00 EMaxC= 1.00D-01 BMatC= 2.40D-05 BMatP= 1.23D-03
 IDIUse=3 WtCom= 9.94D-01 WtEn= 6.12D-03
 Coeff-Com: -0.429D-01 0.104D+01
 Coeff-En:   0.000D+00 0.100D+01
 Coeff:     -0.426D-01 0.104D+01
 Gap=     0.048 Goal=   None    Shift=    0.000
 RMSDP=7.59D-04 MaxDP=1.69D-02 DE=-1.88D-03 OVMax= 1.26D-02

 Cycle   3  Pass 1  IDiag  1:
 E= -77.9172774327909     Delta-E=       -0.000037860395 Rises=F Damp=F
 DIIS: error= 7.94D-04 at cycle   3 NSaved=   3.
 NSaved= 3 IEnMin= 3 EnMin= -77.9172774327909     IErMin= 2 ErrMin= 6.12D-04
 ErrMax= 7.94D-04  0.00D+00 EMaxC= 1.00D-01 BMatC= 2.45D-05 BMatP= 2.40D-05
 IDIUse=3 WtCom= 9.92D-01 WtEn= 7.94D-03
 Coeff-Com: -0.293D-01 0.544D+00 0.485D+00
 Coeff-En:   0.000D+00 0.000D+00 0.100D+01
 Coeff:     -0.291D-01 0.540D+00 0.489D+00
 Gap=     0.049 Goal=   None    Shift=    0.000
 RMSDP=7.20D-04 MaxDP=2.33D-02 DE=-3.79D-05 OVMax= 4.48D-03

 Cycle   4  Pass 1  IDiag  1:
 E= -77.9173037566052     Delta-E=       -0.000026323814 Rises=F Damp=F
 DIIS: error= 3.93D-04 at cycle   4 NSaved=   4.
 NSaved= 4 IEnMin= 4 EnMin= -77.9173037566052     IErMin= 4 ErrMin= 3.93D-04
 ErrMax= 3.93D-04  0.00D+00 EMaxC= 1.00D-01 BMatC= 6.11D-06 BMatP= 2.40D-05
 IDIUse=3 WtCom= 9.96D-01 WtEn= 3.93D-03
 Coeff-Com: -0.860D-02 0.137D+00 0.329D+00 0.543D+00
 Coeff-En:   0.000D+00 0.000D+00 0.141D+00 0.859D+00
 Coeff:     -0.856D-02 0.136D+00 0.329D+00 0.544D+00
 Gap=     0.049 Goal=   None    Shift=    0.000
 RMSDP=7.17D-04 MaxDP=2.41D-02 DE=-2.63D-05 OVMax= 4.57D-03

 Cycle   5  Pass 1  IDiag  1:
 E= -77.9173147643891     Delta-E=       -0.000011007784 Rises=F Damp=F
 DIIS: error= 7.55D-05 at cycle   5 NSaved=   5.
 NSaved= 5 IEnMin= 5 EnMin= -77.9173147643891     IErMin= 5 ErrMin= 7.55D-05
 ErrMax= 7.55D-05  0.00D+00 EMaxC= 1.00D-01 BMatC= 3.71D-07 BMatP= 6.11D-06
 IDIUse=1 WtCom= 1.00D+00 WtEn= 0.00D+00
 Coeff-Com:  0.251D-03-0.242D-01 0.855D-01 0.246D+00 0.692D+00
 Coeff:      0.251D-03-0.242D-01 0.855D-01 0.246D+00 0.692D+00
 Gap=     0.049 Goal=   None    Shift=    0.000
 RMSDP=6.66D-04 MaxDP=2.34D-02 DE=-1.10D-05 OVMax= 3.86D-03

 Cycle   6  Pass 1  IDiag  1:
 E= -77.9173182748930     Delta-E=       -0.000003510504 Rises=F Damp=F
 DIIS: error= 3.59D-05 at cycle   6 NSaved=   6.
 NSaved= 6 IEnMin= 6 EnMin= -77.9173182748930     IErMin= 6 ErrMin= 3.59D-05
 ErrMax= 3.59D-05  0.00D+00 EMaxC= 1.00D-01 BMatC= 1.01D-07 BMatP= 3.71D-07
 IDIUse=1 WtCom= 1.00D+00 WtEn= 0.00D+00
 Coeff-Com:  0.225D-02-0.517D-01-0.224D-01 0.349D-01 0.348D+00 0.689D+00
 Coeff:      0.225D-02-0.517D-01-0.224D-01 0.349D-01 0.348D+00 0.689D+00
 Gap=     0.049 Goal=   None    Shift=    0.000
 RMSDP=5.80D-04 MaxDP=2.07D-02 DE=-3.51D-06 OVMax= 3.26D-03

 Cycle   7  Pass 1  IDiag  1:
 E= -77.9173202313614     Delta-E=       -0.000001956468 Rises=F Damp=F
 DIIS: error= 2.10D-05 at cycle   7 NSaved=   7.
 NSaved= 7 IEnMin= 7 EnMin= -77.9173202313614     IErMin= 7 ErrMin= 2.10D-05
 ErrMax= 2.10D-05  0.00D+00 EMaxC= 1.00D-01 BMatC= 3.51D-08 BMatP= 1.01D-07
 IDIUse=1 WtCom= 1.00D+00 WtEn= 0.00D+00
 Coeff-Com:  0.710D-03-0.726D-03-0.438D-01-0.900D-01-0.343D+00 0.248D+00
 Coeff-Com:  0.123D+01
 Coeff:      0.710D-03-0.726D-03-0.438D-01-0.900D-01-0.343D+00 0.248D+00
 Coeff:      0.123D+01
 Gap=     0.049 Goal=   None    Shift=    0.000
 RMSDP=8.72D-04 MaxDP=3.16D-02 DE=-1.96D-06 OVMax= 4.53D-03

 Cycle   8  Pass 1  IDiag  1:
 E= -77.9173217186848     Delta-E=       -0.000001487323 Rises=F Damp=F
 DIIS: error= 6.62D-06 at cycle   8 NSaved=   8.
 NSaved= 8 IEnMin= 8 EnMin= -77.9173217186848     IErMin= 8 ErrMin= 6.62D-06
 ErrMax= 6.62D-06  0.00D+00 EMaxC= 1.00D-01 BMatC= 4.52D-09 BMatP= 3.51D-08
 IDIUse=1 WtCom= 1.00D+00 WtEn= 0.00D+00
 Coeff-Com: -0.430D-03 0.146D-01-0.682D-02-0.269D-01-0.187D+00-0.744D-01
 Coeff-Com:  0.181D+00 0.110D+01
 Coeff:     -0.430D-03 0.146D-01-0.682D-02-0.269D-01-0.187D+00-0.744D-01
 Coeff:      0.181D+00 0.110D+01
 Gap=     0.049 Goal=   None    Shift=    0.000
 RMSDP=4.44D-04 MaxDP=1.63D-02 DE=-1.49D-06 OVMax= 2.23D-03

 Cycle   9  Pass 1  IDiag  1:
 E= -77.9173219401383     Delta-E=       -0.000000221454 Rises=F Damp=F
 DIIS: error= 1.71D-06 at cycle   9 NSaved=   9.
 NSaved= 9 IEnMin= 9 EnMin= -77.9173219401383     IErMin= 9 ErrMin= 1.71D-06
 ErrMax= 1.71D-06  0.00D+00 EMaxC= 1.00D-01 BMatC= 2.32D-10 BMatP= 4.52D-09
 IDIUse=1 WtCom= 1.00D+00 WtEn= 0.00D+00
 Coeff-Com:  0.612D-04-0.281D-02 0.129D-02 0.828D-02 0.607D-01 0.204D-01
 Coeff-Com: -0.141D+00-0.201D+00 0.125D+01
 Coeff:      0.612D-04-0.281D-02 0.129D-02 0.828D-02 0.607D-01 0.204D-01
 Coeff:     -0.141D+00-0.201D+00 0.125D+01
 Gap=     0.049 Goal=   None    Shift=    0.000
 RMSDP=7.94D-05 MaxDP=2.80D-03 DE=-2.21D-07 OVMax= 3.35D-04

 Cycle  10  Pass 1  IDiag  1:
 E= -77.9173219477421     Delta-E=       -0.000000007604 Rises=F Damp=F
 DIIS: error= 6.59D-07 at cycle  10 NSaved=  10.
 NSaved=10 IEnMin=10 EnMin= -77.9173219477421     IErMin=10 ErrMin= 6.59D-07
 ErrMax= 6.59D-07  0.00D+00 EMaxC= 1.00D-01 BMatC= 2.87D-11 BMatP= 2.32D-10
 IDIUse=1 WtCom= 1.00D+00 WtEn= 0.00D+00
 Coeff-Com:  0.385D-04-0.815D-03-0.415D-04-0.290D-03 0.561D-02 0.939D-03
 Coeff-Com:  0.239D-01-0.876D-01-0.153D+00 0.121D+01
 Coeff:      0.385D-04-0.815D-03-0.415D-04-0.290D-03 0.561D-02 0.939D-03
 Coeff:      0.239D-01-0.876D-01-0.153D+00 0.121D+01
 Gap=     0.049 Goal=   None    Shift=    0.000
 RMSDP=2.10D-05 MaxDP=6.73D-04 DE=-7.60D-09 OVMax= 9.34D-05

 Cycle  11  Pass 1  IDiag  1:
 E= -77.9173219486103     Delta-E=       -0.000000000868 Rises=F Damp=F
 DIIS: error= 2.22D-07 at cycle  11 NSaved=  11.
 NSaved=11 IEnMin=11 EnMin= -77.9173219486103     IErMin=11 ErrMin= 2.22D-07
 ErrMax= 2.22D-07  0.00D+00 EMaxC= 1.00D-01 BMatC= 4.71D-12 BMatP= 2.87D-11
 IDIUse=1 WtCom= 1.00D+00 WtEn= 0.00D+00
 Coeff-Com: -0.913D-06 0.197D-03-0.354D-03-0.909D-03-0.535D-02 0.389D-02
 Coeff-Com:  0.784D-02 0.920D-02-0.114D+00-0.170D+00 0.127D+01
 Coeff:     -0.913D-06 0.197D-03-0.354D-03-0.909D-03-0.535D-02 0.389D-02
 Coeff:      0.784D-02 0.920D-02-0.114D+00-0.170D+00 0.127D+01
 Gap=     0.049 Goal=   None    Shift=    0.000
 RMSDP=1.06D-05 MaxDP=3.36D-04 DE=-8.68D-10 OVMax= 4.49D-05

 Cycle  12  Pass 1  IDiag  1:
 E= -77.9173219487378     Delta-E=       -0.000000000128 Rises=F Damp=F
 DIIS: error= 8.07D-08 at cycle  12 NSaved=  12.
 NSaved=12 IEnMin=12 EnMin= -77.9173219487378     IErMin=12 ErrMin= 8.07D-08
 ErrMax= 8.07D-08  0.00D+00 EMaxC= 1.00D-01 BMatC= 2.50D-13 BMatP= 4.71D-12
 IDIUse=1 WtCom= 1.00D+00 WtEn= 0.00D+00
 Coeff-Com: -0.319D-06-0.497D-05-0.761D-04 0.499D-04 0.511D-03 0.727D-03
 Coeff-Com: -0.203D-02-0.662D-03 0.186D-01-0.762D-01 0.445D-01 0.101D+01
 Coeff:     -0.319D-06-0.497D-05-0.761D-04 0.499D-04 0.511D-03 0.727D-03
[...]
 Frc consts  --      0.5950                 0.5411                 0.7374
 IR Inten    --     57.0177                29.8294                 2.9902
  Atom  AN      X      Y      Z        X      Y      Z        X      Y      Z
     1   6     0.00  -0.00  -0.17     0.06  -0.02   0.00     0.00   0.00   0.00
     2   1    -0.00  -0.00   0.72    -0.26  -0.48  -0.00    -0.00  -0.00  -0.37
     3   1    -0.00   0.00   0.67    -0.21   0.42  -0.00     0.00  -0.00   0.52
     4   6    -0.00  -0.00   0.06     0.00  -0.03  -0.00    -0.00   0.00  -0.08
     5   1    -0.00   0.00  -0.03    -0.25   0.65   0.00    -0.00  -0.00   0.77
                      4                      5                      6
                     A'                     A'                     A'
 Frequencies --   1204.6946              1383.5519              1529.3643
 Red. masses --      1.4527                 1.7570                 2.0066
 Frc consts  --      1.2422                 1.9816                 2.7653
 IR Inten    --      9.1908                 6.5736                25.9676
  Atom  AN      X      Y      Z        X      Y      Z        X      Y      Z
     1   6    -0.14   0.00  -0.00    -0.02  -0.13  -0.00     0.01   0.25  -0.00
     2   1     0.20   0.42  -0.00    -0.26  -0.54   0.00    -0.44  -0.50   0.00
     3   1     0.13  -0.40   0.00     0.29  -0.68  -0.00     0.43  -0.50  -0.00
     4   6     0.13  -0.07  -0.00     0.01   0.22   0.00    -0.00  -0.16   0.00
     5   1    -0.22   0.72   0.00     0.06   0.15  -0.00    -0.07  -0.12  -0.00
                      7                      8                      9
                     A'                     A'                     A'
 Frequencies --   2742.5848              2829.2047              2957.1656
 Red. masses --      1.0711                 1.0874                 1.0757
 Frc consts  --      4.7470                 5.1282                 5.5425
 IR Inten    --    383.4170               726.8945               121.1577
  Atom  AN      X      Y      Z        X      Y      Z        X      Y      Z
     1   6     0.04  -0.02   0.00    -0.06   0.04   0.00    -0.07  -0.04  -0.00
     2   1    -0.53   0.36  -0.00     0.64  -0.43  -0.00    -0.06   0.00   0.00
     3   1     0.02  -0.05   0.00     0.01   0.03   0.00     0.86   0.51   0.00
     4   6    -0.05  -0.03  -0.00    -0.05  -0.02  -0.00    -0.00   0.00   0.00
     5   1     0.71   0.29   0.00     0.60   0.22   0.00    -0.00  -0.01   0.00

 -------------------
 - Thermochemistry -
 -------------------
 Temperature   298.150 Kelvin.  Pressure   1.00000 Atm.
 Atom     1 has atomic number  6 and mass  12.00000
 Atom     2 has atomic number  1 and mass   1.00783
 Atom     3 has atomic number  1 and mass   1.00783
 Atom     4 has atomic number  6 and mass  12.00000
 Atom     5 has atomic number  1 and mass   1.00783
 Molecular mass:    27.02348 amu.
 Principal axes and moments of inertia in atomic units:
                           1         2         3
     Eigenvalues --     9.47513  55.03497  64.51010
           X            0.08967   0.99597   0.00000
           Y            0.99597  -0.08967   0.00000
           Z           -0.00000  -0.00000   1.00000
 This molecule is an asymmetric top.
 Rotational symmetry number  1.
 Rotational temperatures (Kelvin)      9.14117     1.57380     1.34264
 Rotational constants (GHZ):         190.47138    32.79263    27.97610
 Zero-point vibrational energy      92805.3 (Joules/Mol)
                                   22.18100 (Kcal/Mol)
 Vibrational temperatures:   1238.50  1338.03  1551.71  1733.28  1990.62
          (Kelvin)           2200.41  3945.96  4070.59  4254.70
 
 Zero-point correction=                           0.035348 (Hartree/Particle)
 Thermal correction to Energy=                    0.038347
 Thermal correction to Enthalpy=                  0.039291
 Thermal correction to Gibbs Free Energy=         0.013443
 Sum of electronic and zero-point Energies=            -77.923266
 Sum of electronic and thermal Energies=               -77.920267
 Sum of electronic and thermal Enthalpies=             -77.919323
 Sum of electronic and thermal Free Energies=          -77.945172
 
                     E (Thermal)             CV                S
                      KCal/Mol        Cal/Mol-Kelvin    Cal/Mol-Kelvin
 Total                   24.063              7.659             54.403
 Electronic               0.000              0.000              0.000
 Translational            0.889              2.981             35.818
 Rotational               0.889              2.981             18.160
 Vibrational             22.286              1.698              0.425
                       Q            Log10(Q)             Ln(Q)
 Total Bot       0.655942D-06         -6.183135        -14.237194
 Total V=0       0.119024D+11         10.075635         23.200008
 Vib (Bot)       0.572171D-16        -16.242474        -37.399678
 Vib (V=0)       0.103824D+01          0.016296          0.037523
 Electronic      0.100000D+01          0.000000          0.000000
 Translational   0.552163D+07          6.742067         15.524183
 Rotational      0.207621D+04          3.317272          7.638302
 
                                                              b3lyp opt
                                                             IR Spectrum
 
     2     2   2                                                   1     1       1    1                                              
     9     8   7                                                   5     3       2    0      9  8                                    
     5     2   4                                                   2     8       0    7      3  6                                    
     7     9   3                                                   9     4       5    8      0  1                                    
 
     X     X   X                                                   X     X       X    X      X  X                                    
     X     X   X                                                                                X                                    
     X     X   X                                                                                                                     
           X   X                                                                                                                     
           X   X                                                                                                                     
           X   X                                                                                                                     
           X   X                                                                                                                     
           X   X                                                                                                                     
           X   X                                                                                                                     
           X   X                                                                                                                     
           X   X                                                                                                                     
           X                                                                                                                         
           X                                                                                                                         
           X                                                                                                                         
           X                                                                                                                         
           X                                                                                                                         
           X                                                                                                                         
           X                                                                                                                         
           X                                                                                                                         
           X                                                                                                                         
 
 ***** Axes restored to original set *****
 -------------------------------------------------------------------
 Center     Atomic                   Forces (Hartrees/Bohr)
 Number     Number              X              Y              Z
 -------------------------------------------------------------------
      1        6           0.000044728   -0.000055181    0.000000000
      2        1          -0.000031350    0.000011121   -0.000000000
      3        1          -0.000008547    0.000012911   -0.000000000
      4        6          -0.000018046    0.000038632   -0.000000000
      5        1           0.000013215   -0.000007483    0.000000000
 -------------------------------------------------------------------
 Cartesian Forces:  Max     0.000055181 RMS     0.000023721
 Force constants in Cartesian coordinates: 
                1             2             3             4             5 
      1  0.487839D+00
      2 -0.164875D-01  0.678773D+00
      3  0.000000D+00  0.000000D+00  0.863840D-01
      4 -0.226235D+00  0.471576D-01  0.000000D+00  0.256351D+00
      5  0.532902D-01 -0.663836D-01  0.000000D+00 -0.666508D-01  0.740078D-01
      6  0.000000D+00  0.000000D+00 -0.310236D-01  0.000000D+00  0.000000D+00
      7 -0.161325D+00 -0.114506D+00  0.000000D+00 -0.249102D-01 -0.183530D-01
      8 -0.112486D+00 -0.162366D+00  0.000000D+00  0.388227D-02  0.530889D-02
      9  0.000000D+00  0.000000D+00 -0.278533D-01  0.000000D+00  0.000000D+00
     10 -0.884343D-01  0.658283D-01  0.000000D+00 -0.142472D-01  0.326562D-01
     11  0.109392D+00 -0.424030D+00  0.000000D+00  0.149597D-01 -0.157501D-01
     12  0.000000D+00  0.000000D+00 -0.292793D-01  0.000000D+00  0.000000D+00
     13 -0.118447D-01  0.180079D-01  0.000000D+00  0.904186D-02 -0.942521D-03
     14 -0.337090D-01 -0.259937D-01  0.000000D+00  0.651209D-03  0.281705D-02
     15  0.000000D+00  0.000000D+00  0.177217D-02  0.000000D+00  0.000000D+00
                6             7             8             9            10 
      6  0.165168D-01
      7  0.000000D+00  0.173823D+00
      8  0.000000D+00  0.127312D+00  0.192557D+00
      9  0.224857D-02  0.000000D+00  0.000000D+00  0.202448D-01
     10  0.000000D+00  0.823271D-02 -0.174150D-01  0.000000D+00  0.278504D+00
     11  0.000000D+00  0.410358D-02 -0.269030D-01  0.000000D+00  0.178166D-02
     12  0.244524D-01  0.000000D+00  0.000000D+00 -0.107791D-01  0.000000D+00
     13  0.000000D+00  0.417916D-02 -0.129348D-02  0.000000D+00 -0.184055D+00
     14  0.000000D+00  0.144357D-02 -0.859666D-02  0.000000D+00 -0.828512D-01
     15 -0.121941D-01  0.000000D+00  0.000000D+00  0.161391D-01  0.000000D+00
               11            12            13            14            15 
     11  0.563043D+00
     12  0.000000D+00  0.459889D-01
     13 -0.130237D+00  0.000000D+00  0.182679D+00
     14 -0.963605D-01  0.000000D+00  0.114465D+00  0.128134D+00
     15  0.000000D+00 -0.303830D-01  0.000000D+00  0.000000D+00  0.246659D-01
 FormGI is forming the generalized inverse of G from B-inverse, IUseBI=4.
 Force constants in internal coordinates: 
                1             2             3             4             5 
      1  0.277874D+00
      2  0.101209D-01  0.310778D+00
      3  0.226975D-01  0.202261D-01  0.518801D+00
      4  0.698597D-02  0.163753D-02  0.629930D-03  0.272490D+00
      5  0.147797D-01  0.114939D-01 -0.243445D-01 -0.255606D-02  0.746642D-01
      6 -0.598421D-03 -0.148339D-01  0.582211D-02 -0.985448D-02 -0.360032D-01
      7 -0.141813D-01  0.333997D-02  0.185224D-01  0.124105D-01 -0.386611D-01
      8 -0.113626D-01  0.115537D-01  0.551947D-01  0.239339D-01 -0.317423D-02
      9  0.000000D+00  0.000000D+00  0.000000D+00  0.000000D+00  0.000000D+00
     10  0.000000D+00  0.000000D+00  0.000000D+00  0.000000D+00  0.000000D+00
                6             7             8             9            10 
      6  0.838546D-01
      7 -0.478514D-01  0.865125D-01
      8 -0.793639D-02  0.111106D-01  0.169607D+00
      9  0.000000D+00  0.000000D+00  0.000000D+00  0.108403D+00
     10  0.000000D+00  0.000000D+00  0.000000D+00  0.594281D-01  0.628441D-01
 Leave Link  716 at Sun Feb  3 22:50:56 2019, MaxMem=   412876800 cpu:         0.1
 (Enter /usr/local/gaussian/gaussian09/g09/l103.exe)

 GradGradGradGradGradGradGradGradGradGradGradGradGradGradGradGradGradGrad
 Berny optimization.
 Red2BG is reusing G-inverse.
 Internal  Forces:  Max     0.000034510 RMS     0.000016032
 Search for a local minimum.
 Step number   1 out of a maximum of    2
 All quantities printed in internal units (Hartrees-Bohrs-Radians)
 Second derivative matrix not updated -- analytic derivatives used.
 The second derivative matrix:
                          R1        R2        R3        R4        A1
           R1           0.27787
           R2           0.01012   0.31078
           R3           0.02270   0.02023   0.51880
           R4           0.00699   0.00164   0.00063   0.27249
           A1           0.01478   0.01149  -0.02434  -0.00256   0.07466
           A2          -0.00060  -0.01483   0.00582  -0.00985  -0.03600
           A3          -0.01418   0.00334   0.01852   0.01241  -0.03866
           A4          -0.01136   0.01155   0.05519   0.02393  -0.00317
           A5          -0.00000   0.00000   0.00000   0.00000   0.00000
           D1          -0.00000  -0.00000  -0.00000   0.00000   0.00000
                          A2        A3        A4        A5        D1
           A2           0.08385
           A3          -0.04785   0.08651
           A4          -0.00794   0.01111   0.16961
           A5          -0.00000  -0.00000  -0.00000   0.10840
           D1          -0.00000  -0.00000   0.00000   0.05943   0.06284
 ITU=  0
     Eigenvalues ---    0.02198   0.10629   0.12737   0.14927   0.15543
     Eigenvalues ---    0.27830   0.27994   0.31376   0.53349
 Angle between quadratic step and forces=  29.74 degrees.
 Linear search not attempted -- first point.
 Iteration  1 RMS(Cart)=  0.00007418 RMS(Int)=  0.00000000
 Iteration  2 RMS(Cart)=  0.00000000 RMS(Int)=  0.00000000
 ITry= 1 IFail=0 DXMaxC= 1.48D-04 DCOld= 1.00D+10 DXMaxT= 3.00D-01 DXLimC= 3.00D+00 Rises=F
 ClnCor:  largest displacement from symmetrization is 5.99D-14 for atom     4.
 Variable       Old X    -DE/DX   Delta X   Delta X   Delta X     New X
                                 (Linear)    (Quad)   (Total)
    R1        2.09632  -0.00003   0.00000  -0.00014  -0.00014   2.09618
    R2        2.07138  -0.00000   0.00000  -0.00002  -0.00002   2.07137
    R3        2.55136   0.00003   0.00000   0.00010   0.00010   2.55145
    R4        2.10307   0.00000   0.00000   0.00002   0.00002   2.10309
    A1        1.95578   0.00001   0.00000   0.00012   0.00012   1.95590
    A2        2.20111  -0.00000   0.00000  -0.00004  -0.00004   2.20106
    A3        2.12630  -0.00001   0.00000  -0.00008  -0.00008   2.12622
    A4        1.90867  -0.00002   0.00000  -0.00013  -0.00013   1.90854
    A5        3.14159  -0.00000   0.00000  -0.00000   0.00000   3.14159
    D1        3.14159   0.00000   0.00000  -0.00000   0.00000   3.14159
         Item               Value     Threshold  Converged?
 Maximum Force            0.000035     0.000450     YES
 RMS     Force            0.000016     0.000300     YES
 Maximum Displacement     0.000148     0.001800     YES
 RMS     Displacement     0.000074     0.001200     YES
 Predicted change in Energy=-5.697216D-09
 Optimization completed.
    -- Stationary point found.
                           ----------------------------
                           !   Optimized Parameters   !
                           ! (Angstroms and Degrees)  !
 --------------------------                            --------------------------
 ! Name  Definition              Value          Derivative Info.                !
 --------------------------------------------------------------------------------
 ! R1    R(1,2)                  1.1093         -DE/DX =    0.0                 !
 ! R2    R(1,3)                  1.0961         -DE/DX =    0.0                 !
 ! R3    R(1,4)                  1.3501         -DE/DX =    0.0                 !
 ! R4    R(4,5)                  1.1129         -DE/DX =    0.0                 !
 ! A1    A(2,1,3)              112.0581         -DE/DX =    0.0                 !
 ! A2    A(2,1,4)              126.1141         -DE/DX =    0.0                 !
 ! A3    A(3,1,4)              121.8278         -DE/DX =    0.0                 !
 ! A4    L(1,4,5,2,-1)         109.3589         -DE/DX =    0.0                 !
 ! A5    L(1,4,5,2,-2)         180.0            -DE/DX =    0.0                 !
 ! D1    D(2,1,4,3)            180.0            -DE/DX =    0.0                 !
 --------------------------------------------------------------------------------
 GradGradGradGradGradGradGradGradGradGradGradGradGradGradGradGradGradGrad

 Leave Link  103 at Sun Feb  3 22:50:56 2019, MaxMem=   412876800 cpu:         0.0
 (Enter /usr/local/gaussian/gaussian09/g09/l9999.exe)
 1\1\GINC-PANORAMIX\Freq\RB3LYP\6-311++G(3df,2p)\C2H3(1-)\SERGIO\03-Feb
 -2019\0\\#P Geom=AllCheck Guess=TCheck SCRF=Check GenChk RB3LYP/6-311+
 +G(3df,2p) Freq\\b3lyp opt\\-1,1\C,-0.0922511829,-0.5020737662,0.\H,0.
 9505130196,-0.8805451913,0.\H,-0.8257971952,-1.3165733143,0.\C,-0.4681
 465972,0.794662579,0.\H,0.4376009558,1.4413136928,0.\\Version=EM64L-G0
 9RevE.01\State=1-A'\HF=-77.9586141\RMSD=1.078e-09\RMSF=2.372e-05\ZeroP
 oint=0.0353477\Thermal=0.0383469\Dipole=0.9222389,-0.9102703,0.\Dipole
 Deriv=0.4250174,-0.1151304,0.,-0.158701,0.1178942,0.,0.,0.,-0.5866936,
 -0.6106333,0.4911057,0.,0.3329999,-0.3084899,0.,0.,0.,0.2646238,-0.151
 7695,-0.1547782,0.,-0.133279,-0.2613707,0.,0.,0.,0.0582299,-0.2010257,
 0.1848934,0.,0.1935212,-0.4341918,0.,0.,0.,-0.8157354,-0.4615889,-0.40
 60905,0.,-0.2345411,-0.1138418,0.,0.,0.,0.0795752\Polar=71.6233837,-24
 .0493347,74.592978,0.,0.,42.8649088\PG=CS [SG(C2H3)]\NImag=0\\0.487839
 11,-0.01648753,0.67877288,0.,0.,0.08638401,-0.22623510,0.04715764,0.,0
 .25635057,0.05329016,-0.06638358,0.,-0.06665085,0.07400778,0.,0.,-0.03
 102360,0.,0.,0.01651677,-0.16132498,-0.11450631,0.,-0.02491016,-0.0183
 5299,0.,0.17382327,-0.11248595,-0.16236608,0.,0.00388227,0.00530889,0.
 ,0.12731216,0.19255688,0.,0.,-0.02785331,0.,0.,0.00224857,0.,0.,0.0202
 4476,-0.08843429,0.06582834,0.,-0.01424716,0.03265621,0.,0.00823271,-0
 .01741499,0.,0.27850396,0.10939234,-0.42402956,0.,0.01495973,-0.015750
 14,0.,0.00410358,-0.02690303,0.,0.00178166,0.56304324,0.,0.,-0.0292792
 7,0.,0.,0.02445241,0.,0.,-0.01077907,0.,0.,0.04598889,-0.01184474,0.01
 800786,0.,0.00904186,-0.00094252,0.,0.00417916,-0.00129348,0.,-0.18405
 522,-0.13023731,0.,0.18267894,-0.03370902,-0.02599367,0.,0.00065121,0.
 00281705,0.,0.00144357,-0.00859666,0.,-0.08285121,-0.09636051,0.,0.114
 46545,0.12813379,0.,0.,0.00177217,0.,0.,-0.01219415,0.,0.,0.01613905,0
 .,0.,-0.03038296,0.,0.,0.02466588\\-0.00004473,0.00005518,0.,0.0000313
 5,-0.00001112,0.,0.00000855,-0.00001291,0.,0.00001805,-0.00003863,0.,-
 0.00001321,0.00000748,0.\\\@


 SEE YOU NOW,
 YOUR BAIT OF FALSEHOOD TAKES THIS CARP OF TRUTH.
 AND THUS DO WE OF WISDOM AND OF REACH...
 BY INDIRECTIONS FIND DIRECTIONS OUT.    -- HAMLET, II, 1
 Job cpu time:       0 days  0 hours  2 minutes 10.7 seconds.
 File lengths (MBytes):  RWF=      8 Int=      0 D2E=      0 Chk=      2 Scr=      1
 Normal termination of Gaussian 09 at Sun Feb  3 22:50:56 2019.
