 Entering Gaussian System, Link 0=/home/proyectos/fulerenos/M3C-v2.0/M3C-deps_CCC/g09-AM64L-G09RevC.01/g09
 Initial command:
 /home/proyectos/fulerenos/M3C-v2.0/M3C-deps_CCC/g09-AM64L-G09RevC.01/l1.exe "/scratch/naguirre/gaussian/Gau-17060.inp" -scrdir="/scratch/naguirre/gaussian/"
 Entering Link 1 = /home/proyectos/fulerenos/M3C-v2.0/M3C-deps_CCC/g09-AM64L-G09RevC.01/l1.exe PID=     17062.
  
 Copyright (c) 1988,1990,1992,1993,1995,1998,2003,2009,2015,
            Gaussian, Inc.  All Rights Reserved.
  
 This is part of the Gaussian(R) 09 program.  It is based on
 the Gaussian(R) 03 system (copyright 2003, Gaussian, Inc.),
 the Gaussian(R) 98 system (copyright 1998, Gaussian, Inc.),
 the Gaussian(R) 94 system (copyright 1995, Gaussian, Inc.),
 the Gaussian 92(TM) system (copyright 1992, Gaussian, Inc.),
 the Gaussian 90(TM) system (copyright 1990, Gaussian, Inc.),
 the Gaussian 88(TM) system (copyright 1988, Gaussian, Inc.),
 the Gaussian 86(TM) system (copyright 1986, Carnegie Mellon
 University), and the Gaussian 82(TM) system (copyright 1983,
 Carnegie Mellon University). Gaussian is a federally registered
 trademark of Gaussian, Inc.
  
 This software contains proprietary and confidential information,
 including trade secrets, belonging to Gaussian, Inc.
  
 This software is provided under written license and may be
 used, copied, transmitted, or stored only in accord with that
 written license.
  
 The following legend is applicable only to US Government
 contracts under FAR:
  
                    RESTRICTED RIGHTS LEGEND
  
 Use, reproduction and disclosure by the US Government is
 subject to restrictions as set forth in subparagraphs (a)
 and (c) of the Commercial Computer Software - Restricted
 Rights clause in FAR 52.227-19.
  
 Gaussian, Inc.
 340 Quinnipiac St., Bldg. 40, Wallingford CT 06492
  
  
 ---------------------------------------------------------------
 Warning -- This program may not be used in any manner that
 competes with the business of Gaussian, Inc. or will provide
 assistance to any competitor of Gaussian, Inc.  The licensee
 of this program is prohibited from giving any competitor of
 Gaussian, Inc. access to this program.  By using this program,
 the user acknowledges that Gaussian, Inc. is engaged in the
 business of creating and licensing software in the field of
 computational chemistry and represents and warrants to the
 licensee that it is not a competitor of Gaussian, Inc. and that
 it will not use this program in any manner prohibited above.
 ---------------------------------------------------------------
  

 Cite this work as:
 Gaussian 09, Revision E.01,
 M. J. Frisch, G. W. Trucks, H. B. Schlegel, G. E. Scuseria, 
 M. A. Robb, J. R. Cheeseman, G. Scalmani, V. Barone, B. Mennucci, 
 G. A. Petersson, H. Nakatsuji, M. Caricato, X. Li, H. P. Hratchian, 
 A. F. Izmaylov, J. Bloino, G. Zheng, J. L. Sonnenberg, M. Hada, 
 M. Ehara, K. Toyota, R. Fukuda, J. Hasegawa, M. Ishida, T. Nakajima, 
 Y. Honda, O. Kitao, H. Nakai, T. Vreven, J. A. Montgomery, Jr., 
 J. E. Peralta, F. Ogliaro, M. Bearpark, J. J. Heyd, E. Brothers, 
 K. N. Kudin, V. N. Staroverov, T. Keith, R. Kobayashi, J. Normand, 
 K. Raghavachari, A. Rendell, J. C. Burant, S. S. Iyengar, J. Tomasi, 
 M. Cossi, N. Rega, J. M. Millam, M. Klene, J. E. Knox, J. B. Cross, 
 V. Bakken, C. Adamo, J. Jaramillo, R. Gomperts, R. E. Stratmann, 
 O. Yazyev, A. J. Austin, R. Cammi, C. Pomelli, J. W. Ochterski, 
 R. L. Martin, K. Morokuma, V. G. Zakrzewski, G. A. Voth, 
 P. Salvador, J. J. Dannenberg, S. Dapprich, A. D. Daniels, 
 O. Farkas, J. B. Foresman, J. V. Ortiz, J. Cioslowski, 
 and D. J. Fox, Gaussian, Inc., Wallingford CT, 2013.
 
 ******************************************
 Gaussian 09:  EM64L-G09RevE.01 30-Nov-2015
                 7-Mar-2019 
 ******************************************
 %NProcShared=4
 Will use up to    4 processors via shared memory.
 ------------------------------------------------------
 #p b3lyp/6-311++G(3df,2p) freq IOp(2/17=3) IOp(2/18=3)
 ------------------------------------------------------
 1/10=4,30=1,38=1/1,3;
 2/12=2,17=3,18=3,40=1/2;
 3/5=4,6=6,7=1216,11=2,16=1,25=1,30=1,71=2,74=-5,140=1/1,2,3;
 4//1;
 5/5=2,38=5,98=1/2;
 8/6=4,10=90,11=11/1;
 11/6=1,8=1,9=11,15=111,16=1/1,2,10;
 10/6=1/2;
 6/7=2,8=2,9=2,10=2,18=1,28=1/1;
 7/8=1,10=1,25=1/1,2,3,16;
 1/10=4,30=1/3;
 99//99;
 Leave Link    1 at Thu Mar  7 12:45:29 2019, MaxMem=           0 cpu:         0.2
 (Enter /home/proyectos/fulerenos/M3C-v2.0/M3C-deps_CCC/g09-AM64L-G09RevC.01/l101.exe)
 ---------
 b3lyp opt
 ---------
 Symbolic Z-matrix:
 Charge = -1 Multiplicity = 2
 C                     3.08628   3.31772   0.903 
 C                     3.16876   1.79274   0.8669 
 O                     4.32347   1.25713   0.86914 
 C                     1.96482   1.09751   0.84294 
 C                     0.88079   0.5029    0.6464 
 H                     3.62209   3.73522   0.04185 
 H                     3.58354   3.70152   1.80159 
 H                     2.05712   3.68166   0.88751 
 H                     0.09945   0.0393    1.23021 
 
 NAtoms=      9 NQM=        9 NQMF=       0 NMMI=      0 NMMIF=      0
                NMic=       0 NMicF=      0.
                    Isotopes and Nuclear Properties:
 (Nuclear quadrupole moments (NQMom) in fm**2, nuclear magnetic moments (NMagM)
  in nuclear magnetons)

  Atom         1           2           3           4           5           6           7           8           9
 IAtWgt=          12          12          16          12          12           1           1           1           1
 AtmWgt=  12.0000000  12.0000000  15.9949146  12.0000000  12.0000000   1.0078250   1.0078250   1.0078250   1.0078250
 NucSpn=           0           0           0           0           0           1           1           1           1
 AtZEff=   0.0000000   0.0000000   0.0000000   0.0000000   0.0000000   0.0000000   0.0000000   0.0000000   0.0000000
 NQMom=    0.0000000   0.0000000   0.0000000   0.0000000   0.0000000   0.0000000   0.0000000   0.0000000   0.0000000
 NMagM=    0.0000000   0.0000000   0.0000000   0.0000000   0.0000000   2.7928460   2.7928460   2.7928460   2.7928460
 AtZNuc=   6.0000000   6.0000000   8.0000000   6.0000000   6.0000000   1.0000000   1.0000000   1.0000000   1.0000000
 Leave Link  101 at Thu Mar  7 12:45:29 2019, MaxMem=    33554432 cpu:         0.2
 (Enter /home/proyectos/fulerenos/M3C-v2.0/M3C-deps_CCC/g09-AM64L-G09RevC.01/l103.exe)

 GradGradGradGradGradGradGradGradGradGradGradGradGradGradGradGradGradGrad
 Berny optimization.
 Initialization pass.
 Trust Radius=3.00D-01 FncErr=1.00D-07 GrdErr=1.00D-07
 Number of steps in this run=      2 maximum allowed number of steps=      2.
 GradGradGradGradGradGradGradGradGradGradGradGradGradGradGradGradGradGrad

 Leave Link  103 at Thu Mar  7 12:45:29 2019, MaxMem=    33554432 cpu:         0.1
 (Enter /home/proyectos/fulerenos/M3C-v2.0/M3C-deps_CCC/g09-AM64L-G09RevC.01/l202.exe)
                          Input orientation:                          
 ---------------------------------------------------------------------
 Center     Atomic      Atomic             Coordinates (Angstroms)
 Number     Number       Type             X           Y           Z
 ---------------------------------------------------------------------
      1          6           0        3.086275    3.317723    0.902995
      2          6           0        3.168756    1.792741    0.866896
      3          8           0        4.323472    1.257126    0.869140
      4          6           0        1.964818    1.097511    0.842935
      5          6           0        0.880788    0.502904    0.646400
      6          1           0        3.622092    3.735217    0.041847
      7          1           0        3.583541    3.701518    1.801589
      8          1           0        2.057123    3.681659    0.887511
      9          1           0        0.099445    0.039296    1.230214
 ---------------------------------------------------------------------
                    Distance matrix (angstroms):
                    1          2          3          4          5
     1  C    0.000000
     2  C    1.527638   0.000000
     3  O    2.403718   1.272893   0.000000
     4  C    2.488095   1.390462   2.364194   0.000000
     5  C    3.585139   2.635734   3.531365   1.251920   0.000000
     6  H    1.096803   2.158572   2.705048   3.216488   4.281131
     7  H    1.096377   2.165439   2.718825   3.212497   4.344015
     8  H    1.091716   2.191840   3.318891   2.586180   3.397997
     9  H    4.447056   3.553483   4.410883   2.179317   1.079939
                    6          7          8          9
     6  H    0.000000
     7  H    1.760487   0.000000
     8  H    1.779647   1.779293   0.000000
     9  H    5.242241   5.086970   4.149308   0.000000
 Stoichiometry    C4H4O(1-,2)
 Framework group  C1[X(C4H4O)]
 Deg. of freedom    21
 Full point group                 C1      NOp   1
 Largest Abelian subgroup         C1      NOp   1
 Largest concise Abelian subgroup C1      NOp   1
                         Standard orientation:                         
 ---------------------------------------------------------------------
 Center     Atomic      Atomic             Coordinates (Angstroms)
 Number     Number       Type             X           Y           Z
 ---------------------------------------------------------------------
      1          6           0        1.244279    1.080957    0.002007
      2          6           0        0.396698   -0.189963    0.008669
      3          8           0        1.000725   -1.310390    0.001500
      4          6           0       -0.983868   -0.025898    0.031142
      5          6           0       -2.214260    0.145137   -0.124384
      6          1           0        1.892975    1.085423   -0.882385
      7          1           0        1.903295    1.099818    0.878013
      8          1           0        0.637598    1.988573   -0.001766
      9          1           0       -3.096765    0.247906    0.489531
 ---------------------------------------------------------------------
 Rotational constants (GHZ):     10.0988544      3.9940074      2.9277239
 Leave Link  202 at Thu Mar  7 12:45:29 2019, MaxMem=    33554432 cpu:         0.0
 (Enter /home/proyectos/fulerenos/M3C-v2.0/M3C-deps_CCC/g09-AM64L-G09RevC.01/l301.exe)
 Standard basis: 6-311++G(3df,2p) (5D, 7F)
 Ernie: Thresh=  0.10000D-02 Tol=  0.10000D-05 Strict=F.
 There are   265 symmetry adapted cartesian basis functions of A   symmetry.
 There are   235 symmetry adapted basis functions of A   symmetry.
   235 basis functions,   338 primitive gaussians,   265 cartesian basis functions
    19 alpha electrons       18 beta electrons
       nuclear repulsion energy       141.3296278180 Hartrees.
 IExCor=  402 DFT=T Ex+Corr=B3LYP ExCW=0 ScaHFX=  0.200000
 ScaDFX=  0.800000  0.720000  1.000000  0.810000 ScalE2=  1.000000  1.000000
 IRadAn=      0 IRanWt=     -1 IRanGd=            0 ICorTp=0 IEmpDi=  4
 NAtoms=    9 NActive=    9 NUniq=    9 SFac= 1.00D+00 NAtFMM=   60 NAOKFM=F Big=F
 Integral buffers will be    131072 words long.
 Raffenetti 2 integral format.
 Two-electron integral symmetry is turned on.
 Leave Link  301 at Thu Mar  7 12:45:29 2019, MaxMem=    33554432 cpu:         0.1
 (Enter /home/proyectos/fulerenos/M3C-v2.0/M3C-deps_CCC/g09-AM64L-G09RevC.01/l302.exe)
 NPDir=0 NMtPBC=     1 NCelOv=     1 NCel=       1 NClECP=     1 NCelD=      1
         NCelK=      1 NCelE2=     1 NClLst=     1 CellRange=     0.0.
 One-electron integrals computed using PRISM.
 NBasis=   235 RedAO= T EigKep=  2.93D-06  NBF=   235
 NBsUse=   235 1.00D-06 EigRej= -1.00D+00 NBFU=   235
 Precomputing XC quadrature grid using
 IXCGrd= 4 IRadAn=           0 IRanWt=          -1 IRanGd=           0 AccXCQ= 0.00D+00.
 Generated NRdTot=       0 NPtTot=           0 NUsed=           0 NTot=          32
 NSgBfM=   265   265   265   265   265 MxSgAt=     9 MxSgA2=     9.
 Leave Link  302 at Thu Mar  7 12:45:30 2019, MaxMem=    33554432 cpu:         1.3
 (Enter /home/proyectos/fulerenos/M3C-v2.0/M3C-deps_CCC/g09-AM64L-G09RevC.01/l303.exe)
 DipDrv:  MaxL=1.
 Leave Link  303 at Thu Mar  7 12:45:30 2019, MaxMem=    33554432 cpu:         0.1
 (Enter /home/proyectos/fulerenos/M3C-v2.0/M3C-deps_CCC/g09-AM64L-G09RevC.01/l401.exe)
 ExpMin= 3.60D-02 ExpMax= 8.59D+03 ExpMxC= 1.30D+03 IAcc=3 IRadAn=         5 AccDes= 0.00D+00
 Harris functional with IExCor=  402 and IRadAn=       5 diagonalized for initial guess.
 HarFok:  IExCor=  402 AccDes= 0.00D+00 IRadAn=         5 IDoV= 1 UseB2=F ITyADJ=14
 ICtDFT=  3500011 ScaDFX=  1.000000  1.000000  1.000000  1.000000
 FoFCou: FMM=F IPFlag=           0 FMFlag=      100000 FMFlg1=           0
         NFxFlg=           0 DoJE=T BraDBF=F KetDBF=T FulRan=T
         wScrn=  0.000000 ICntrl=     500 IOpCl=  0 I1Cent=   200000004 NGrid=           0
         NMat0=    1 NMatS0=      1 NMatT0=    0 NMatD0=    1 NMtDS0=    0 NMtDT0=    0
 Petite list used in FoFCou.
 Harris En= -230.296281859986    
 JPrj=0 DoOrth=F DoCkMO=F.
 Initial guess <Sx>= 0.0000 <Sy>= 0.0000 <Sz>= 0.5000 <S**2>= 0.7500 S= 0.5000
 Leave Link  401 at Thu Mar  7 12:45:33 2019, MaxMem=    33554432 cpu:        10.1
 (Enter /home/proyectos/fulerenos/M3C-v2.0/M3C-deps_CCC/g09-AM64L-G09RevC.01/l502.exe)
 UHF open shell SCF:
 Using DIIS extrapolation, IDIIS=  1040.
 Integral symmetry usage will be decided dynamically.
 IVT=      232727 IEndB=      232727 NGot=    33554432 MDV=    33408836
 LenX=    33408836 LenY=    33338170
 Requested convergence on RMS density matrix=1.00D-08 within 128 cycles.
 Requested convergence on MAX density matrix=1.00D-06.
 Requested convergence on             energy=1.00D-06.
 No special actions if energy rises.
 Fock matrices will be formed incrementally for  20 cycles.

 Cycle   1  Pass 1  IDiag  1:
 FoFJK:  IHMeth= 1 ICntrl=       0 DoSepK=F KAlg= 0 I1Cent=   0 FoldK=F
 IRaf= 980000000 NMat=   1 IRICut=       1 DoRegI=T DoRafI=F ISym2E= 0.
 FoFCou: FMM=F IPFlag=           0 FMFlag=      100000 FMFlg1=           0
         NFxFlg=           0 DoJE=F BraDBF=F KetDBF=F FulRan=T
         wScrn=  0.000000 ICntrl=       0 IOpCl=  1 I1Cent=           0 NGrid=           0
         NMat0=    1 NMatS0=      1 NMatT0=    0 NMatD0=    1 NMtDS0=    0 NMtDT0=    0
 Symmetry not used in FoFCou.
 E= -229.806907943927    
 DIIS: error= 2.77D-02 at cycle   1 NSaved=   1.
 NSaved= 1 IEnMin= 1 EnMin= -229.806907943927     IErMin= 1 ErrMin= 2.77D-02
 ErrMax= 2.77D-02  0.00D+00 EMaxC= 1.00D-01 BMatC= 1.11D+00 BMatP= 1.11D+00
 IDIUse=3 WtCom= 7.23D-01 WtEn= 2.77D-01
 Coeff-Com:  0.100D+01
 Coeff-En:   0.100D+01
 Coeff:      0.100D+01
 Gap=     0.176 Goal=   None    Shift=    0.000
 Gap=     0.093 Goal=   None    Shift=    0.000
 GapD=    0.093 DampG=0.500 DampE=0.500 DampFc=0.2500 IDamp=-1.
 Damping current iteration by 2.50D-01
 RMSDP=2.72D+00 MaxDP=4.94D+02              OVMax= 9.94D-01

 Cycle   2  Pass 1  IDiag  1:
 RMSU=  6.60D-01    CP:  3.00D+00
 E= -229.791202024850     Delta-E=        0.015705919077 Rises=F Damp=T
 DIIS: error= 1.06D-02 at cycle   2 NSaved=   2.
 NSaved= 2 IEnMin= 1 EnMin= -229.806907943927     IErMin= 2 ErrMin= 1.06D-02
 ErrMax= 1.06D-02  0.00D+00 EMaxC= 1.00D-01 BMatC= 1.98D-01 BMatP= 1.11D+00
 IDIUse=3 WtCom= 8.94D-01 WtEn= 1.06D-01
 Coeff-Com: -0.585D-01 0.106D+01
 Coeff-En:   0.538D+00 0.462D+00
 Coeff:      0.451D-02 0.995D+00
 Gap=     0.007 Goal=   None    Shift=    0.000
 Gap=     0.040 Goal=   None    Shift=    0.000
 RMSDP=6.78D-01 MaxDP=1.23D+02 DE= 1.57D-02 OVMax= 8.35D-01

 Cycle   3  Pass 1  IDiag  1:
 RMSU=  7.44D-03    CP:  9.36D-01  4.50D-03
 E= -229.788319540267     Delta-E=        0.002882484583 Rises=F Damp=F
 DIIS: error= 3.09D-02 at cycle   3 NSaved=   3.
 NSaved= 3 IEnMin= 1 EnMin= -229.806907943927     IErMin= 2 ErrMin= 1.06D-02
 ErrMax= 3.09D-02  0.00D+00 EMaxC= 1.00D-01 BMatC= 1.12D+00 BMatP= 1.98D-01
 IDIUse=2 WtCom= 0.00D+00 WtEn= 1.00D+00
 EnCoef did     2 forward-backward iterations
 Coeff-En:   0.155D+00 0.417D+00 0.428D+00
 Coeff:      0.155D+00 0.417D+00 0.428D+00
 Gap=     0.074 Goal=   None    Shift=    0.000
 Gap=     0.225 Goal=   None    Shift=    0.000
 RMSDP=1.10D-01 MaxDP=1.17D+01 DE= 2.88D-03 OVMax= 4.52D-01

 Cycle   4  Pass 1  IDiag  1:
 RMSU=  8.26D-02    CP:  2.97D+00  8.71D-02  3.00D+00
 E= -229.879881581049     Delta-E=       -0.091562040782 Rises=F Damp=F
 DIIS: error= 2.58D-02 at cycle   4 NSaved=   4.
 NSaved= 4 IEnMin= 4 EnMin= -229.879881581049     IErMin= 2 ErrMin= 1.06D-02
 ErrMax= 2.58D-02  0.00D+00 EMaxC= 1.00D-01 BMatC= 8.69D-01 BMatP= 1.98D-01
 IDIUse=2 WtCom= 0.00D+00 WtEn= 1.00D+00
 Coeff-En:   0.000D+00 0.000D+00 0.430D+00 0.570D+00
 Coeff:      0.000D+00 0.000D+00 0.430D+00 0.570D+00
 Gap=     0.095 Goal=   None    Shift=    0.000
 Gap=     0.183 Goal=   None    Shift=    0.000
 RMSDP=9.62D-02 MaxDP=1.03D+01 DE=-9.16D-02 OVMax= 2.25D-01

 Cycle   5  Pass 1  IDiag  1:
 RMSU=  6.80D-03    CP:  1.12D+00  1.68D-02  1.83D+00  1.25D-01
 E= -230.055037542659     Delta-E=       -0.175155961611 Rises=F Damp=F
 DIIS: error= 8.05D-03 at cycle   5 NSaved=   5.
 NSaved= 5 IEnMin= 5 EnMin= -230.055037542659     IErMin= 5 ErrMin= 8.05D-03
 ErrMax= 8.05D-03  0.00D+00 EMaxC= 1.00D-01 BMatC= 9.01D-02 BMatP= 1.98D-01
 IDIUse=3 WtCom= 9.19D-01 WtEn= 8.05D-02
 Coeff-Com: -0.126D+00 0.204D+00 0.161D+00 0.186D+00 0.575D+00
 Coeff-En:   0.000D+00 0.000D+00 0.000D+00 0.781D-01 0.922D+00
 Coeff:     -0.116D+00 0.188D+00 0.148D+00 0.178D+00 0.603D+00
 Gap=     0.082 Goal=   None    Shift=    0.000
 Gap=     0.176 Goal=   None    Shift=    0.000
 RMSDP=3.92D-03 MaxDP=4.89D-01 DE=-1.75D-01 OVMax= 3.18D-02

 Cycle   6  Pass 1  IDiag  1:
 RMSU=  1.89D-03    CP:  1.04D+00  1.34D-02  1.65D+00  1.10D-01  9.01D-01
 E= -230.069349195389     Delta-E=       -0.014311652729 Rises=F Damp=F
 DIIS: error= 3.35D-03 at cycle   6 NSaved=   6.
 NSaved= 6 IEnMin= 6 EnMin= -230.069349195389     IErMin= 6 ErrMin= 3.35D-03
 ErrMax= 3.35D-03  0.00D+00 EMaxC= 1.00D-01 BMatC= 1.65D-02 BMatP= 9.01D-02
 IDIUse=3 WtCom= 9.66D-01 WtEn= 3.35D-02
 Coeff-Com: -0.141D+00 0.157D+00-0.540D-02 0.176D-01 0.375D+00 0.597D+00
 Coeff-En:   0.000D+00 0.000D+00 0.000D+00 0.000D+00 0.000D+00 0.100D+01
 Coeff:     -0.137D+00 0.151D+00-0.522D-02 0.170D-01 0.363D+00 0.611D+00
 Gap=     0.077 Goal=   None    Shift=    0.000
 Gap=     0.176 Goal=   None    Shift=    0.000
 RMSDP=3.57D-03 MaxDP=5.00D-01 DE=-1.43D-02 OVMax= 1.76D-02

 Cycle   7  Pass 1  IDiag  1:
 RMSU=  6.60D-04    CP:  1.11D+00  1.68D-02  1.83D+00  1.29D-01  9.71D-01
                    CP:  6.38D-01
 E= -230.071758214393     Delta-E=       -0.002409019004 Rises=F Damp=F
 DIIS: error= 2.63D-03 at cycle   7 NSaved=   7.
 NSaved= 7 IEnMin= 7 EnMin= -230.071758214393     IErMin= 7 ErrMin= 2.63D-03
 ErrMax= 2.63D-03  0.00D+00 EMaxC= 1.00D-01 BMatC= 6.84D-03 BMatP= 1.65D-02
 IDIUse=3 WtCom= 9.74D-01 WtEn= 2.63D-02
 Coeff-Com: -0.933D-01 0.984D-01-0.177D-01 0.218D-01 0.214D+00 0.346D+00
 Coeff-Com:  0.431D+00
 Coeff-En:   0.000D+00 0.000D+00 0.000D+00 0.000D+00 0.000D+00 0.000D+00
 Coeff-En:   0.100D+01
 Coeff:     -0.909D-01 0.959D-01-0.172D-01 0.212D-01 0.209D+00 0.337D+00
 Coeff:      0.446D+00
 Gap=     0.073 Goal=   None    Shift=    0.000
 Gap=     0.166 Goal=   None    Shift=    0.000
 RMSDP=5.01D-03 MaxDP=6.60D-01 DE=-2.41D-03 OVMax= 1.44D-02

 Cycle   8  Pass 1  IDiag  1:
 RMSU=  4.90D-04    CP:  1.22D+00  2.14D-02  2.05D+00  1.59D-01  1.05D+00
                    CP:  1.97D-01  1.79D+00
 E= -230.073243278048     Delta-E=       -0.001485063655 Rises=F Damp=F
 DIIS: error= 1.75D-03 at cycle   8 NSaved=   8.
 NSaved= 8 IEnMin= 8 EnMin= -230.073243278048     IErMin= 8 ErrMin= 1.75D-03
 ErrMax= 1.75D-03  0.00D+00 EMaxC= 1.00D-01 BMatC= 2.23D-03 BMatP= 6.84D-03
 IDIUse=3 WtCom= 9.82D-01 WtEn= 1.75D-02
 Coeff-Com: -0.193D-01 0.336D-01-0.130D-01 0.118D-01-0.347D-01-0.119D+00
 Coeff-Com:  0.205D+00 0.935D+00
 Coeff-En:   0.000D+00 0.000D+00 0.000D+00 0.000D+00 0.000D+00 0.000D+00
 Coeff-En:   0.000D+00 0.100D+01
 Coeff:     -0.189D-01 0.330D-01-0.128D-01 0.116D-01-0.341D-01-0.117D+00
 Coeff:      0.202D+00 0.936D+00
 Gap=     0.071 Goal=   None    Shift=    0.000
 Gap=     0.161 Goal=   None    Shift=    0.000
 RMSDP=4.44D-03 MaxDP=6.00D-01 DE=-1.49D-03 OVMax= 1.19D-02

 Cycle   9  Pass 1  IDiag  1:
 RMSU=  1.75D-04    CP:  1.31D+00  2.55D-02  2.24D+00  1.86D-01  1.12D+00
                    CP: -1.23D-01  2.69D+00  1.64D+00
 E= -230.073808304687     Delta-E=       -0.000565026640 Rises=F Damp=F
 DIIS: error= 4.30D-04 at cycle   9 NSaved=   9.
 NSaved= 9 IEnMin= 9 EnMin= -230.073808304687     IErMin= 9 ErrMin= 4.30D-04
 ErrMax= 4.30D-04  0.00D+00 EMaxC= 1.00D-01 BMatC= 1.37D-04 BMatP= 2.23D-03
 IDIUse=3 WtCom= 9.96D-01 WtEn= 4.30D-03
 Coeff-Com:  0.240D-02 0.391D-03 0.815D-03 0.199D-03-0.170D-01-0.731D-01
 Coeff-Com: -0.130D+00 0.160D+00 0.106D+01
 Coeff-En:   0.000D+00 0.000D+00 0.000D+00 0.000D+00 0.000D+00 0.000D+00
 Coeff-En:   0.000D+00 0.000D+00 0.100D+01
 Coeff:      0.239D-02 0.389D-03 0.811D-03 0.198D-03-0.169D-01-0.728D-01
 Coeff:     -0.129D+00 0.159D+00 0.106D+01
 Gap=     0.071 Goal=   None    Shift=    0.000
 Gap=     0.160 Goal=   None    Shift=    0.000
 RMSDP=3.47D-03 MaxDP=4.87D-01 DE=-5.65D-04 OVMax= 5.66D-03

 Cycle  10  Pass 1  IDiag  1:
 RMSU=  2.47D-04    CP:  1.39D+00  2.88D-02  2.38D+00  2.04D-01  1.16D+00
                    CP: -5.09D-01  3.00D+00  2.36D+00  1.42D+00
 E= -230.073860373815     Delta-E=       -0.000052069128 Rises=F Damp=F
 DIIS: error= 7.91D-05 at cycle  10 NSaved=  10.
 NSaved=10 IEnMin=10 EnMin= -230.073860373815     IErMin=10 ErrMin= 7.91D-05
 ErrMax= 7.91D-05  0.00D+00 EMaxC= 1.00D-01 BMatC= 4.76D-06 BMatP= 1.37D-04
 IDIUse=1 WtCom= 1.00D+00 WtEn= 0.00D+00
 Coeff-Com: -0.112D-02 0.211D-02 0.124D-02-0.210D-02 0.462D-02 0.388D-02
 Coeff-Com: -0.304D-01-0.273D-01 0.135D+00 0.914D+00
 Coeff:     -0.112D-02 0.211D-02 0.124D-02-0.210D-02 0.462D-02 0.388D-02
 Coeff:     -0.304D-01-0.273D-01 0.135D+00 0.914D+00
 Gap=     0.071 Goal=   None    Shift=    0.000
 Gap=     0.160 Goal=   None    Shift=    0.000
 RMSDP=2.73D-04 MaxDP=4.17D-02 DE=-5.21D-05 OVMax= 9.44D-04

 Cycle  11  Pass 1  IDiag  1:
 RMSU=  4.34D-05    CP:  1.39D+00  2.91D-02  2.40D+00  2.04D-01  1.17D+00
                    CP: -5.75D-01  3.00D+00  2.48D+00  1.41D+00  1.21D+00
 E= -230.073862004623     Delta-E=       -0.000001630808 Rises=F Damp=F
 DIIS: error= 6.50D-05 at cycle  11 NSaved=  11.
 NSaved=11 IEnMin=11 EnMin= -230.073862004623     IErMin=11 ErrMin= 6.50D-05
 ErrMax= 6.50D-05  0.00D+00 EMaxC= 1.00D-01 BMatC= 2.53D-06 BMatP= 4.76D-06
 IDIUse=1 WtCom= 1.00D+00 WtEn= 0.00D+00
 Coeff-Com: -0.118D-02 0.794D-03 0.556D-03-0.882D-03 0.614D-02 0.171D-01
 Coeff-Com:  0.127D-01-0.477D-01-0.208D+00 0.482D+00 0.738D+00
 Coeff:     -0.118D-02 0.794D-03 0.556D-03-0.882D-03 0.614D-02 0.171D-01
 Coeff:      0.127D-01-0.477D-01-0.208D+00 0.482D+00 0.738D+00
 Gap=     0.071 Goal=   None    Shift=    0.000
 Gap=     0.160 Goal=   None    Shift=    0.000
 RMSDP=4.71D-04 MaxDP=6.92D-02 DE=-1.63D-06 OVMax= 8.34D-04

 Cycle  12  Pass 1  IDiag  1:
 RMSU=  1.55D-05    CP:  1.40D+00  2.95D-02  2.42D+00  2.06D-01  1.17D+00
                    CP: -6.47D-01  3.00D+00  2.61D+00  1.47D+00  1.44D+00
                    CP:  1.38D+00
 E= -230.073863099511     Delta-E=       -0.000001094888 Rises=F Damp=F
 DIIS: error= 2.57D-05 at cycle  12 NSaved=  12.
 NSaved=12 IEnMin=12 EnMin= -230.073863099511     IErMin=12 ErrMin= 2.57D-05
 ErrMax= 2.57D-05  0.00D+00 EMaxC= 1.00D-01 BMatC= 4.10D-07 BMatP= 2.53D-06
 IDIUse=1 WtCom= 1.00D+00 WtEn= 0.00D+00
 Coeff-Com: -0.408D-03 0.388D-03 0.926D-04-0.198D-03 0.635D-03 0.400D-02
 Coeff-Com:  0.851D-02-0.127D-01-0.107D+00-0.306D-02 0.292D+00 0.818D+00
 Coeff:     -0.408D-03 0.388D-03 0.926D-04-0.198D-03 0.635D-03 0.400D-02
 Coeff:      0.851D-02-0.127D-01-0.107D+00-0.306D-02 0.292D+00 0.818D+00
 Gap=     0.071 Goal=   None    Shift=    0.000
 Gap=     0.160 Goal=   None    Shift=    0.000
 RMSDP=1.50D-04 MaxDP=2.24D-02 DE=-1.09D-06 OVMax= 3.75D-04

 Cycle  13  Pass 1  IDiag  1:
 RMSU=  5.46D-06    CP:  1.41D+00  2.97D-02  2.42D+00  2.07D-01  1.17D+00
                    CP: -6.71D-01  3.00D+00  2.66D+00  1.48D+00  1.53D+00
                    CP:  1.53D+00  1.25D+00
 E= -230.073863262093     Delta-E=       -0.000000162581 Rises=F Damp=F
 DIIS: error= 8.26D-06 at cycle  13 NSaved=  13.
 NSaved=13 IEnMin=13 EnMin= -230.073863262093     IErMin=13 ErrMin= 8.26D-06
 ErrMax= 8.26D-06  0.00D+00 EMaxC= 1.00D-01 BMatC= 5.89D-08 BMatP= 4.10D-07
 IDIUse=1 WtCom= 1.00D+00 WtEn= 0.00D+00
 Coeff-Com: -0.578D-04 0.105D-03 0.272D-04 0.188D-04-0.273D-03-0.699D-03
 Coeff-Com:  0.680D-03-0.189D-02-0.915D-02-0.302D-01 0.935D-02 0.182D+00
 Coeff-Com:  0.850D+00
 Coeff:     -0.578D-04 0.105D-03 0.272D-04 0.188D-04-0.273D-03-0.699D-03
 Coeff:      0.680D-03-0.189D-02-0.915D-02-0.302D-01 0.935D-02 0.182D+00
 Coeff:      0.850D+00
 Gap=     0.071 Goal=   None    Shift=    0.000
 Gap=     0.160 Goal=   None    Shift=    0.000
 RMSDP=2.16D-05 MaxDP=3.05D-03 DE=-1.63D-07 OVMax= 1.41D-04

 Cycle  14  Pass 1  IDiag  1:
 RMSU=  2.39D-06    CP:  1.41D+00  2.97D-02  2.43D+00  2.07D-01  1.17D+00
                    CP: -6.73D-01  3.00D+00  2.66D+00  1.49D+00  1.54D+00
                    CP:  1.52D+00  1.40D+00  1.54D+00
 E= -230.073863284227     Delta-E=       -0.000000022134 Rises=F Damp=F
 DIIS: error= 2.21D-06 at cycle  14 NSaved=  14.
 NSaved=14 IEnMin=14 EnMin= -230.073863284227     IErMin=14 ErrMin= 2.21D-06
 ErrMax= 2.21D-06  0.00D+00 EMaxC= 1.00D-01 BMatC= 4.42D-09 BMatP= 5.89D-08
 IDIUse=1 WtCom= 1.00D+00 WtEn= 0.00D+00
 Coeff-Com: -0.137D-04 0.258D-04-0.259D-05 0.269D-04 0.655D-04-0.429D-03
 Coeff-Com: -0.626D-03 0.276D-03 0.117D-01 0.335D-02-0.384D-01-0.988D-01
 Coeff-Com:  0.342D-01 0.109D+01
 Coeff:     -0.137D-04 0.258D-04-0.259D-05 0.269D-04 0.655D-04-0.429D-03
 Coeff:     -0.626D-03 0.276D-03 0.117D-01 0.335D-02-0.384D-01-0.988D-01
 Coeff:      0.342D-01 0.109D+01
 Gap=     0.071 Goal=   None    Shift=    0.000
 Gap=     0.160 Goal=   None    Shift=    0.000
 RMSDP=2.89D-06 MaxDP=2.61D-04 DE=-2.21D-08 OVMax= 6.00D-05

 Cycle  15  Pass 1  IDiag  1:
 RMSU=  6.99D-07    CP:  1.41D+00  2.97D-02  2.43D+00  2.07D-01  1.17D+00
                    CP: -6.73D-01  3.00D+00  2.66D+00  1.49D+00  1.54D+00
                    CP:  1.50D+00  1.46D+00  1.85D+00  1.39D+00
 E= -230.073863287346     Delta-E=       -0.000000003119 Rises=F Damp=F
 DIIS: error= 8.23D-07 at cycle  15 NSaved=  15.
 NSaved=15 IEnMin=15 EnMin= -230.073863287346     IErMin=15 ErrMin= 8.23D-07
 ErrMax= 8.23D-07  0.00D+00 EMaxC= 1.00D-01 BMatC= 4.94D-10 BMatP= 4.42D-09
 IDIUse=1 WtCom= 1.00D+00 WtEn= 0.00D+00
 Coeff-Com: -0.442D-05 0.736D-06-0.479D-05-0.126D-06 0.653D-04 0.277D-03
 Coeff-Com:  0.264D-03-0.144D-03-0.211D-02 0.501D-02 0.754D-02 0.937D-03
 Coeff-Com: -0.153D+00-0.253D+00 0.139D+01
 Coeff:     -0.442D-05 0.736D-06-0.479D-05-0.126D-06 0.653D-04 0.277D-03
 Coeff:      0.264D-03-0.144D-03-0.211D-02 0.501D-02 0.754D-02 0.937D-03
 Coeff:     -0.153D+00-0.253D+00 0.139D+01
 Gap=     0.071 Goal=   None    Shift=    0.000
 Gap=     0.160 Goal=   None    Shift=    0.000
 RMSDP=2.18D-06 MaxDP=3.13D-04 DE=-3.12D-09 OVMax= 3.29D-05

 Cycle  16  Pass 1  IDiag  1:
 RMSU=  5.03D-07    CP:  1.41D+00  2.97D-02  2.43D+00  2.07D-01  1.17D+00
                    CP: -6.73D-01  3.00D+00  2.66D+00  1.49D+00  1.54D+00
                    CP:  1.49D+00  1.51D+00  1.95D+00  1.65D+00  1.68D+00
 E= -230.073863288044     Delta-E=       -0.000000000698 Rises=F Damp=F
 DIIS: error= 2.92D-07 at cycle  16 NSaved=  16.
 NSaved=16 IEnMin=16 EnMin= -230.073863288044     IErMin=16 ErrMin= 2.92D-07
 ErrMax= 2.92D-07  0.00D+00 EMaxC= 1.00D-01 BMatC= 4.70D-11 BMatP= 4.94D-10
 IDIUse=1 WtCom= 1.00D+00 WtEn= 0.00D+00
 Coeff-Com: -0.131D-05 0.572D-06 0.156D-05-0.443D-05-0.356D-05 0.578D-04
 Coeff-Com:  0.860D-04 0.443D-05-0.146D-02-0.618D-03 0.516D-02 0.120D-01
 Coeff-Com: -0.136D-01-0.149D+00 0.798D-01 0.107D+01
 Coeff:     -0.131D-05 0.572D-06 0.156D-05-0.443D-05-0.356D-05 0.578D-04
 Coeff:      0.860D-04 0.443D-05-0.146D-02-0.618D-03 0.516D-02 0.120D-01
 Coeff:     -0.136D-01-0.149D+00 0.798D-01 0.107D+01
 Gap=     0.071 Goal=   None    Shift=    0.000
 Gap=     0.160 Goal=   None    Shift=    0.000
 RMSDP=4.01D-06 MaxDP=6.26D-04 DE=-6.98D-10 OVMax= 9.99D-06

 Cycle  17  Pass 1  IDiag  1:
 RMSU=  1.25D-07    CP:  1.41D+00  2.97D-02  2.43D+00  2.07D-01  1.17D+00
                    CP: -6.74D-01  3.00D+00  2.66D+00  1.49D+00  1.54D+00
                    CP:  1.50D+00  1.52D+00  1.95D+00  1.64D+00  1.77D+00
                    CP:  1.44D+00
 E= -230.073863288110     Delta-E=       -0.000000000066 Rises=F Damp=F
 DIIS: error= 1.17D-07 at cycle  17 NSaved=  17.
 NSaved=17 IEnMin=17 EnMin= -230.073863288110     IErMin=17 ErrMin= 1.17D-07
 ErrMax= 1.17D-07  0.00D+00 EMaxC= 1.00D-01 BMatC= 8.34D-12 BMatP= 4.70D-11
 IDIUse=1 WtCom= 1.00D+00 WtEn= 0.00D+00
 Coeff-Com: -0.190D-06 0.104D-05 0.157D-05-0.145D-05-0.114D-04-0.350D-04
 Coeff-Com: -0.430D-04 0.232D-04 0.114D-03-0.109D-02-0.280D-03 0.178D-02
 Coeff-Com:  0.274D-01 0.209D-01-0.260D+00 0.216D+00 0.995D+00
 Coeff:     -0.190D-06 0.104D-05 0.157D-05-0.145D-05-0.114D-04-0.350D-04
 Coeff:     -0.430D-04 0.232D-04 0.114D-03-0.109D-02-0.280D-03 0.178D-02
 Coeff:      0.274D-01 0.209D-01-0.260D+00 0.216D+00 0.995D+00
 Gap=     0.071 Goal=   None    Shift=    0.000
 Gap=     0.160 Goal=   None    Shift=    0.000
 RMSDP=1.95D-06 MaxDP=3.06D-04 DE=-6.58D-11 OVMax= 3.90D-06

 Cycle  18  Pass 1  IDiag  1:
 RMSU=  4.28D-08    CP:  1.41D+00  2.97D-02  2.43D+00  2.07D-01  1.17D+00
                    CP: -6.74D-01  3.00D+00  2.66D+00  1.49D+00  1.54D+00
                    CP:  1.50D+00  1.52D+00  1.93D+00  1.63D+00  1.76D+00
                    CP:  1.69D+00  1.30D+00
 E= -230.073863288124     Delta-E=       -0.000000000014 Rises=F Damp=F
 DIIS: error= 3.82D-08 at cycle  18 NSaved=  18.
 NSaved=18 IEnMin=18 EnMin= -230.073863288124     IErMin=18 ErrMin= 3.82D-08
 ErrMax= 3.82D-08  0.00D+00 EMaxC= 1.00D-01 BMatC= 1.82D-12 BMatP= 8.34D-12
 IDIUse=1 WtCom= 1.00D+00 WtEn= 0.00D+00
 Coeff-Com:  0.373D-06-0.205D-06-0.114D-06 0.626D-06-0.969D-06-0.840D-05
 Coeff-Com: -0.252D-04-0.896D-05 0.207D-03-0.143D-04-0.641D-03-0.154D-02
 Coeff-Com:  0.653D-02 0.244D-01-0.534D-01-0.109D+00 0.168D+00 0.965D+00
 Coeff:      0.373D-06-0.205D-06-0.114D-06 0.626D-06-0.969D-06-0.840D-05
 Coeff:     -0.252D-04-0.896D-05 0.207D-03-0.143D-04-0.641D-03-0.154D-02
 Coeff:      0.653D-02 0.244D-01-0.534D-01-0.109D+00 0.168D+00 0.965D+00
 Gap=     0.071 Goal=   None    Shift=    0.000
 Gap=     0.160 Goal=   None    Shift=    0.000
 RMSDP=4.51D-07 MaxDP=6.38D-05 DE=-1.36D-11 OVMax= 1.10D-06

 Cycle  19  Pass 1  IDiag  1:
 RMSU=  1.58D-08    CP:  1.41D+00  2.97D-02  2.43D+00  2.07D-01  1.17D+00
                    CP: -6.74D-01  3.00D+00  2.66D+00  1.49D+00  1.54D+00
                    CP:  1.50D+00  1.52D+00  1.92D+00  1.62D+00  1.72D+00
                    CP:  1.68D+00  1.42D+00  1.14D+00
 E= -230.073863288120     Delta-E=        0.000000000004 Rises=F Damp=F
 DIIS: error= 1.11D-08 at cycle  19 NSaved=  19.
 NSaved=19 IEnMin=18 EnMin= -230.073863288124     IErMin=19 ErrMin= 1.11D-08
 ErrMax= 1.11D-08  0.00D+00 EMaxC= 1.00D-01 BMatC= 8.94D-14 BMatP= 1.82D-12
 IDIUse=1 WtCom= 1.00D+00 WtEn= 0.00D+00
 Coeff-Com: -0.134D-07 0.103D-07-0.191D-06 0.863D-07 0.982D-06 0.418D-05
 Coeff-Com:  0.282D-05 0.154D-05-0.131D-04 0.931D-04 0.663D-04-0.186D-03
 Coeff-Com: -0.274D-02-0.277D-02 0.266D-01-0.158D-01-0.101D+00-0.369D-01
 Coeff-Com:  0.113D+01
 Coeff:     -0.134D-07 0.103D-07-0.191D-06 0.863D-07 0.982D-06 0.418D-05
 Coeff:      0.282D-05 0.154D-05-0.131D-04 0.931D-04 0.663D-04-0.186D-03
 Coeff:     -0.274D-02-0.277D-02 0.266D-01-0.158D-01-0.101D+00-0.369D-01
 Coeff:      0.113D+01
 Gap=     0.071 Goal=   None    Shift=    0.000
 Gap=     0.160 Goal=   None    Shift=    0.000
 RMSDP=1.67D-07 MaxDP=2.67D-05 DE= 3.87D-12 OVMax= 2.90D-07

 Cycle  20  Pass 1  IDiag  1:
 RMSU=  3.84D-09    CP:  1.41D+00  2.97D-02  2.43D+00  2.07D-01  1.17D+00
                    CP: -6.74D-01  3.00D+00  2.66D+00  1.49D+00  1.54D+00
                    CP:  1.50D+00  1.52D+00  1.92D+00  1.61D+00  1.71D+00
                    CP:  1.64D+00  1.40D+00  1.19D+00  1.44D+00
 E= -230.073863288122     Delta-E=       -0.000000000002 Rises=F Damp=F
 DIIS: error= 2.44D-09 at cycle  20 NSaved=  20.
 NSaved=20 IEnMin=18 EnMin= -230.073863288124     IErMin=20 ErrMin= 2.44D-09
 ErrMax= 2.44D-09  0.00D+00 EMaxC= 1.00D-01 BMatC= 9.25D-15 BMatP= 8.94D-14
 IDIUse=1 WtCom= 1.00D+00 WtEn= 0.00D+00
 Coeff-Com: -0.327D-07-0.122D-07-0.208D-08-0.503D-07 0.171D-06 0.972D-06
 Coeff-Com:  0.227D-05 0.191D-05-0.187D-04 0.748D-05 0.771D-04 0.114D-03
 Coeff-Com: -0.102D-02-0.298D-02 0.921D-02 0.104D-01-0.313D-01-0.119D+00
 Coeff-Com:  0.142D+00 0.993D+00
 Coeff:     -0.327D-07-0.122D-07-0.208D-08-0.503D-07 0.171D-06 0.972D-06
 Coeff:      0.227D-05 0.191D-05-0.187D-04 0.748D-05 0.771D-04 0.114D-03
 Coeff:     -0.102D-02-0.298D-02 0.921D-02 0.104D-01-0.313D-01-0.119D+00
 Coeff:      0.142D+00 0.993D+00
 Gap=     0.071 Goal=   None    Shift=    0.000
 Gap=     0.160 Goal=   None    Shift=    0.000
 RMSDP=6.62D-08 MaxDP=1.07D-05 DE=-1.88D-12 OVMax= 9.47D-08

 Cycle  21  Pass 1  IDiag  1:
 Restarting incremental Fock formation.
 E= -230.073863288120     Delta-E=        0.000000000002 Rises=F Damp=F
 DIIS: error= 9.03D-10 at cycle  21 NSaved=  20.
 NSaved=20 IEnMin=17 EnMin= -230.073863288124     IErMin=20 ErrMin= 9.03D-10
 ErrMax= 9.03D-10  0.00D+00 EMaxC= 1.00D-01 BMatC= 6.73D-16 BMatP= 9.25D-15
 IDIUse=1 WtCom= 1.00D+00 WtEn= 0.00D+00
 Large coefficients: NSaved= 20 BigCof=    0.00 CofMax=   10.00 Det=-3.25D-15
 Inversion failed.  Reducing to 19 matrices.
 Large coefficients: NSaved= 19 BigCof=    0.00 CofMax=   10.00 Det=-3.48D-15
 Inversion failed.  Reducing to 18 matrices.
 Large coefficients: NSaved= 18 BigCof=    0.00 CofMax=   10.00 Det=-3.62D-15
 Inversion failed.  Reducing to 17 matrices.
 Large coefficients: NSaved= 17 BigCof=    0.00 CofMax=   10.00 Det=-3.75D-15
 Inversion failed.  Reducing to 16 matrices.
 Large coefficients: NSaved= 16 BigCof=    0.00 CofMax=   10.00 Det=-3.75D-15
 Inversion failed.  Reducing to 15 matrices.
 Coeff-Com:  0.327D-06 0.369D-06-0.117D-05-0.997D-06 0.353D-05 0.134D-04
 Coeff-Com: -0.868D-04-0.335D-03 0.775D-03 0.122D-02-0.121D-02-0.104D-01
 Coeff-Com: -0.373D-01 0.106D+00 0.942D+00
 Coeff:      0.327D-06 0.369D-06-0.117D-05-0.997D-06 0.353D-05 0.134D-04
 Coeff:     -0.868D-04-0.335D-03 0.775D-03 0.122D-02-0.121D-02-0.104D-01
 Coeff:     -0.373D-01 0.106D+00 0.942D+00
 Gap=     0.071 Goal=   None    Shift=    0.000
 Gap=     0.160 Goal=   None    Shift=    0.000
 RMSDP=4.12D-09 MaxDP=5.02D-07 DE= 2.10D-12 OVMax= 1.81D-08

 SCF Done:  E(UB3LYP) =  -230.073863288     A.U. after   21 cycles
            NFock= 21  Conv=0.41D-08     -V/T= 2.0043
 <Sx>= 0.0000 <Sy>= 0.0000 <Sz>= 0.5000 <S**2>= 0.7597 S= 0.5048
 <L.S>= 0.000000000000E+00
 KE= 2.290868343744D+02 PE=-8.274812238564D+02 EE= 2.269908983758D+02
 Annihilation of the first spin contaminant:
 S**2 before annihilation     0.7597,   after     0.7500
 Leave Link  502 at Thu Mar  7 12:49:28 2019, MaxMem=    33554432 cpu:       940.8
 (Enter /home/proyectos/fulerenos/M3C-v2.0/M3C-deps_CCC/g09-AM64L-G09RevC.01/l801.exe)
 DoSCS=F DFT=T ScalE2(SS,OS)=  1.000000  1.000000
 Range of M.O.s used for correlation:     1   235
 NBasis=   235 NAE=    19 NBE=    18 NFC=     0 NFV=     0
 NROrb=    235 NOA=    19 NOB=    18 NVA=   216 NVB=   217

 **** Warning!!: The largest alpha MO coefficient is  0.17528437D+03


 **** Warning!!: The smallest alpha delta epsilon is  0.70584179D-01


 **** Warning!!: The largest beta MO coefficient is  0.15812537D+03

 Leave Link  801 at Thu Mar  7 12:49:29 2019, MaxMem=    33554432 cpu:         0.1
 (Enter /home/proyectos/fulerenos/M3C-v2.0/M3C-deps_CCC/g09-AM64L-G09RevC.01/l1101.exe)
 Using compressed storage, NAtomX=     9.
 Will process     10 centers per pass.
 Leave Link 1101 at Thu Mar  7 12:49:29 2019, MaxMem=    33554432 cpu:         1.3
 (Enter /home/proyectos/fulerenos/M3C-v2.0/M3C-deps_CCC/g09-AM64L-G09RevC.01/l1102.exe)
 Symmetrizing basis deriv contribution to polar:
 IMax=3 JMax=2 DiffMx= 0.00D+00
 Leave Link 1102 at Thu Mar  7 12:49:29 2019, MaxMem=    33554432 cpu:         0.1
 (Enter /home/proyectos/fulerenos/M3C-v2.0/M3C-deps_CCC/g09-AM64L-G09RevC.01/l1110.exe)
 Forming Gx(P) for the SCF density, NAtomX=     9.
 Integral derivatives from FoFJK, PRISM(SPDF).
 Do as many integral derivatives as possible in FoFJK.
 G2DrvN: MDV=      33554256.
 G2DrvN: will do    10 centers at a time, making    1 passes.
 Calling FoFCou, ICntrl=  3107 FMM=F I1Cent=   0 AccDes= 0.00D+00.
 FoFJK:  IHMeth= 1 ICntrl=    3107 DoSepK=F KAlg= 0 I1Cent=   0 FoldK=F
 IRaf=         0 NMat=   1 IRICut=       1 DoRegI=T DoRafI=F ISym2E= 0.
 FoFCou: FMM=F IPFlag=           0 FMFlag=      100000 FMFlg1=           0
         NFxFlg=           0 DoJE=F BraDBF=F KetDBF=F FulRan=T
         wScrn=  0.000000 ICntrl=    3107 IOpCl=  1 I1Cent=           0 NGrid=           0
         NMat0=    1 NMatS0=      1 NMatT0=    0 NMatD0=    1 NMtDS0=    0 NMtDT0=    0
 Symmetry not used in FoFCou.
 End of G2Drv F.D. properties file   721 does not exist.
 End of G2Drv F.D. properties file   722 does not exist.
 End of G2Drv F.D. properties file   788 does not exist.
 Leave Link 1110 at Thu Mar  7 12:51:32 2019, MaxMem=    33554432 cpu:       494.4
 (Enter /home/proyectos/fulerenos/M3C-v2.0/M3C-deps_CCC/g09-AM64L-G09RevC.01/l1002.exe)
 Minotr:  UHF open shell wavefunction.
          IDoAtm=111111111
          Direct CPHF calculation.
          Differentiating once with respect to electric field.
                with respect to dipole field.
          Differentiating once with respect to nuclear coordinates.
          Requested convergence is 1.0D-08 RMS, and 1.0D-07 maximum.
          Secondary convergence is 1.0D-12 RMS, and 1.0D-12 maximum.
          NewPWx=T KeepS1=F KeepF1=F KeepIn=T MapXYZ=F SortEE=F KeepMc=T.
          MDV=      33553868 using IRadAn=       2.
 Generate precomputed XC quadrature information.
          Solving linear equations simultaneously, MaxMat=       0.
 FoFJK:  IHMeth= 1 ICntrl=       0 DoSepK=F KAlg= 0 I1Cent=   0 FoldK=F
 IRaf= 980000000 NMat=  30 IRICut=      75 DoRegI=T DoRafI=T ISym2E= 2.
 FoFCou: FMM=F IPFlag=           0 FMFlag=      100000 FMFlg1=           0
         NFxFlg=           0 DoJE=F BraDBF=F KetDBF=F FulRan=T
         wScrn=  0.000000 ICntrl=       0 IOpCl=  1 I1Cent=           0 NGrid=           0
         NMat0=   30 NMatS0=     30 NMatT0=    0 NMatD0=   30 NMtDS0=    0 NMtDT0=    0
 Integrals replicated using symmetry in FoFCou.
          There are    30 degrees of freedom in the 1st order CPHF.  IDoFFX=6 NUNeed=     3.
     27 vectors produced by pass  0 Test12= 2.67D-14 3.33D-09 XBig12= 4.43D+02 9.85D+00.
 AX will form    27 AO Fock derivatives at one time.
     27 vectors produced by pass  1 Test12= 2.67D-14 3.33D-09 XBig12= 1.84D+02 3.74D+00.
     27 vectors produced by pass  2 Test12= 2.67D-14 3.33D-09 XBig12= 1.02D+01 7.67D-01.
     27 vectors produced by pass  3 Test12= 2.67D-14 3.33D-09 XBig12= 2.29D-01 7.43D-02.
     27 vectors produced by pass  4 Test12= 2.67D-14 3.33D-09 XBig12= 3.16D-03 8.07D-03.
     27 vectors produced by pass  5 Test12= 2.67D-14 3.33D-09 XBig12= 2.60D-05 5.66D-04.
     25 vectors produced by pass  6 Test12= 2.67D-14 3.33D-09 XBig12= 1.83D-07 5.18D-05.
     14 vectors produced by pass  7 Test12= 2.67D-14 3.33D-09 XBig12= 9.02D-10 3.99D-06.
      4 vectors produced by pass  8 Test12= 2.67D-14 3.33D-09 XBig12= 1.78D-11 1.69D-06.
      3 vectors produced by pass  9 Test12= 2.67D-14 3.33D-09 XBig12= 8.18D-13 1.79D-07.
      3 vectors produced by pass 10 Test12= 2.67D-14 3.33D-09 XBig12= 1.72D-13 6.51D-08.
      3 vectors produced by pass 11 Test12= 2.67D-14 3.33D-09 XBig12= 1.33D-14 2.34D-08.
      1 vectors produced by pass 12 Test12= 2.67D-14 3.33D-09 XBig12= 1.07D-15 7.81D-09.
 InvSVY:  IOpt=1 It=  1 EMax= 5.33D-15
 Solved reduced A of dimension   215 with    30 vectors.
 FullF1:  Do perturbations    1 to     3.
 Isotropic polarizability for W=    0.000000       90.22 Bohr**3.
 End of Minotr F.D. properties file   721 does not exist.
 End of Minotr F.D. properties file   722 does not exist.
 End of Minotr F.D. properties file   788 does not exist.
 Leave Link 1002 at Thu Mar  7 13:00:01 2019, MaxMem=    33554432 cpu:      2034.9
 (Enter /home/proyectos/fulerenos/M3C-v2.0/M3C-deps_CCC/g09-AM64L-G09RevC.01/l601.exe)
 Copying SCF densities to generalized density rwf, IOpCl= 1 IROHF=0.

 **********************************************************************

            Population analysis using the SCF density.

 **********************************************************************

 Orbital symmetries:
 Alpha Orbitals:
       Occupied  (A) (A) (A) (A) (A) (A) (A) (A) (A) (A) (A) (A)
                 (A) (A) (A) (A) (A) (A) (A)
       Virtual   (A) (A) (A) (A) (A) (A) (A) (A) (A) (A) (A) (A)
                 (A) (A) (A) (A) (A) (A) (A) (A) (A) (A) (A) (A)
                 (A) (A) (A) (A) (A) (A) (A) (A) (A) (A) (A) (A)
                 (A) (A) (A) (A) (A) (A) (A) (A) (A) (A) (A) (A)
                 (A) (A) (A) (A) (A) (A) (A) (A) (A) (A) (A) (A)
                 (A) (A) (A) (A) (A) (A) (A) (A) (A) (A) (A) (A)
                 (A) (A) (A) (A) (A) (A) (A) (A) (A) (A) (A) (A)
                 (A) (A) (A) (A) (A) (A) (A) (A) (A) (A) (A) (A)
                 (A) (A) (A) (A) (A) (A) (A) (A) (A) (A) (A) (A)
                 (A) (A) (A) (A) (A) (A) (A) (A) (A) (A) (A) (A)
                 (A) (A) (A) (A) (A) (A) (A) (A) (A) (A) (A) (A)
                 (A) (A) (A) (A) (A) (A) (A) (A) (A) (A) (A) (A)
                 (A) (A) (A) (A) (A) (A) (A) (A) (A) (A) (A) (A)
                 (A) (A) (A) (A) (A) (A) (A) (A) (A) (A) (A) (A)
                 (A) (A) (A) (A) (A) (A) (A) (A) (A) (A) (A) (A)
                 (A) (A) (A) (A) (A) (A) (A) (A) (A) (A) (A) (A)
                 (A) (A) (A) (A) (A) (A) (A) (A) (A) (A) (A) (A)
                 (A) (A) (A) (A) (A) (A) (A) (A) (A) (A) (A) (A)
 Beta  Orbitals:
       Occupied  (A) (A) (A) (A) (A) (A) (A) (A) (A) (A) (A) (A)
                 (A) (A) (A) (A) (A) (A)
       Virtual   (A) (A) (A) (A) (A) (A) (A) (A) (A) (A) (A) (A)
                 (A) (A) (A) (A) (A) (A) (A) (A) (A) (A) (A) (A)
                 (A) (A) (A) (A) (A) (A) (A) (A) (A) (A) (A) (A)
                 (A) (A) (A) (A) (A) (A) (A) (A) (A) (A) (A) (A)
                 (A) (A) (A) (A) (A) (A) (A) (A) (A) (A) (A) (A)
                 (A) (A) (A) (A) (A) (A) (A) (A) (A) (A) (A) (A)
                 (A) (A) (A) (A) (A) (A) (A) (A) (A) (A) (A) (A)
                 (A) (A) (A) (A) (A) (A) (A) (A) (A) (A) (A) (A)
                 (A) (A) (A) (A) (A) (A) (A) (A) (A) (A) (A) (A)
                 (A) (A) (A) (A) (A) (A) (A) (A) (A) (A) (A) (A)
                 (A) (A) (A) (A) (A) (A) (A) (A) (A) (A) (A) (A)
                 (A) (A) (A) (A) (A) (A) (A) (A) (A) (A) (A) (A)
                 (A) (A) (A) (A) (A) (A) (A) (A) (A) (A) (A) (A)
                 (A) (A) (A) (A) (A) (A) (A) (A) (A) (A) (A) (A)
                 (A) (A) (A) (A) (A) (A) (A) (A) (A) (A) (A) (A)
                 (A) (A) (A) (A) (A) (A) (A) (A) (A) (A) (A) (A)
                 (A) (A) (A) (A) (A) (A) (A) (A) (A) (A) (A) (A)
                 (A) (A) (A) (A) (A) (A) (A) (A) (A) (A) (A) (A)
                 (A)
 The electronic state is 2-A.
 Alpha  occ. eigenvalues --  -18.88930 -10.04228 -10.00360  -9.98031  -9.97379
 Alpha  occ. eigenvalues --   -0.80356  -0.58670  -0.54554  -0.44425  -0.31243
 Alpha  occ. eigenvalues --   -0.27944  -0.26474  -0.24649  -0.21222  -0.17477
 Alpha  occ. eigenvalues --   -0.10499  -0.08724  -0.05754   0.03869
 Alpha virt. eigenvalues --    0.10927   0.11911   0.14108   0.14387   0.17256
 Alpha virt. eigenvalues --    0.18014   0.18431   0.20734   0.21712   0.22027
 Alpha virt. eigenvalues --    0.22660   0.23577   0.24254   0.24444   0.25816
 Alpha virt. eigenvalues --    0.26480   0.26948   0.28177   0.29603   0.29773
 Alpha virt. eigenvalues --    0.31459   0.33136   0.34926   0.35320   0.38183
 Alpha virt. eigenvalues --    0.40196   0.42859   0.43272   0.43692   0.46267
 Alpha virt. eigenvalues --    0.47652   0.48607   0.49219   0.49841   0.53924
 Alpha virt. eigenvalues --    0.54177   0.55546   0.57686   0.58432   0.59795
 Alpha virt. eigenvalues --    0.62179   0.62809   0.66887   0.67469   0.69194
 Alpha virt. eigenvalues --    0.69643   0.73242   0.73923   0.74259   0.76079
 Alpha virt. eigenvalues --    0.76755   0.77001   0.78325   0.80737   0.82305
 Alpha virt. eigenvalues --    0.83633   0.87465   0.88214   0.93239   0.94619
 Alpha virt. eigenvalues --    0.95826   0.99412   1.01709   1.03102   1.06714
 Alpha virt. eigenvalues --    1.09498   1.11145   1.13344   1.17014   1.18963
 Alpha virt. eigenvalues --    1.22408   1.23103   1.24379   1.25084   1.27882
 Alpha virt. eigenvalues --    1.28815   1.32139   1.35383   1.37017   1.37545
 Alpha virt. eigenvalues --    1.38906   1.41729   1.43003   1.46598   1.47811
 Alpha virt. eigenvalues --    1.48722   1.51956   1.57037   1.58513   1.61357
 Alpha virt. eigenvalues --    1.63404   1.65280   1.70906   1.75584   1.77689
 Alpha virt. eigenvalues --    1.79952   1.81849   1.87121   1.90294   1.97272
 Alpha virt. eigenvalues --    2.00061   2.05645   2.09944   2.13466   2.18018
 Alpha virt. eigenvalues --    2.20678   2.23592   2.26908   2.32028   2.37155
 Alpha virt. eigenvalues --    2.40565   2.52168   2.63622   2.70740   2.80473
 Alpha virt. eigenvalues --    2.83643   2.86648   2.89607   2.89924   2.92291
 Alpha virt. eigenvalues --    2.94885   2.98131   3.04059   3.05431   3.06045
 Alpha virt. eigenvalues --    3.08447   3.12712   3.15737   3.19202   3.20596
 Alpha virt. eigenvalues --    3.21799   3.24362   3.28082   3.29061   3.34118
 Alpha virt. eigenvalues --    3.36457   3.39096   3.41194   3.44843   3.46280
 Alpha virt. eigenvalues --    3.50824   3.62385   3.70298   3.73016   3.78169
 Alpha virt. eigenvalues --    3.81479   3.84004   3.89282   3.90017   3.94206
 Alpha virt. eigenvalues --    4.04519   4.13891   4.15443   4.20365   4.21534
 Alpha virt. eigenvalues --    4.32620   4.37235   4.44911   4.47303   4.48924
 Alpha virt. eigenvalues --    4.51992   4.57815   4.61485   4.65355   4.67996
 Alpha virt. eigenvalues --    4.72156   4.74782   4.80210   4.92060   5.29213
 Alpha virt. eigenvalues --    5.29694   5.40917   5.46804   5.54088   5.57873
 Alpha virt. eigenvalues --    5.69857   5.76612   5.82238   5.89986   5.91642
 Alpha virt. eigenvalues --    5.93693   6.07579   6.19025   6.38509   6.79096
 Alpha virt. eigenvalues --    7.08902   7.19096   7.22811   7.27625   7.32269
 Alpha virt. eigenvalues --    7.33932   7.44913   7.52578   7.55875   7.60773
 Alpha virt. eigenvalues --    7.65424   7.72269   7.73200   7.88206   7.94420
 Alpha virt. eigenvalues --    8.06029   8.17595   8.20027   8.41368   8.56925
 Alpha virt. eigenvalues --    8.76911  14.59478  14.60901  14.81640  14.94641
 Alpha virt. eigenvalues --   15.24608  24.28923  24.53868  25.55635  26.65671
 Alpha virt. eigenvalues --   50.54653
  Beta  occ. eigenvalues --  -18.88211 -10.03848 -10.00400  -9.97987  -9.96831
  Beta  occ. eigenvalues --   -0.79033  -0.57893  -0.54181  -0.43133  -0.30437
  Beta  occ. eigenvalues --   -0.27563  -0.25765  -0.24327  -0.20655  -0.14636
  Beta  occ. eigenvalues --   -0.08385  -0.07046  -0.05093
  Beta virt. eigenvalues --    0.10902   0.11967   0.12108   0.14358   0.14385
  Beta virt. eigenvalues --    0.17320   0.18396   0.18758   0.20772   0.21805
  Beta virt. eigenvalues --    0.22130   0.22717   0.23842   0.24379   0.25115
  Beta virt. eigenvalues --    0.26287   0.26729   0.27519   0.28693   0.29625
  Beta virt. eigenvalues --    0.29929   0.31501   0.33477   0.35184   0.35303
  Beta virt. eigenvalues --    0.38825   0.40604   0.43002   0.43877   0.43944
  Beta virt. eigenvalues --    0.46319   0.47869   0.48736   0.49374   0.50187
  Beta virt. eigenvalues --    0.54190   0.54597   0.56115   0.57804   0.58769
  Beta virt. eigenvalues --    0.60557   0.62431   0.64002   0.67661   0.68056
  Beta virt. eigenvalues --    0.69592   0.70049   0.73515   0.74289   0.74516
  Beta virt. eigenvalues --    0.76495   0.77073   0.77408   0.78798   0.80993
  Beta virt. eigenvalues --    0.82596   0.83791   0.87952   0.88479   0.93588
  Beta virt. eigenvalues --    0.94761   0.96268   0.99690   1.02381   1.03382
  Beta virt. eigenvalues --    1.06988   1.09881   1.11562   1.13879   1.17525
  Beta virt. eigenvalues --    1.19128   1.22799   1.23483   1.25120   1.25691
  Beta virt. eigenvalues --    1.28264   1.29095   1.32319   1.35805   1.37257
  Beta virt. eigenvalues --    1.37945   1.39184   1.42030   1.43334   1.47232
  Beta virt. eigenvalues --    1.48675   1.49416   1.52310   1.57308   1.59519
  Beta virt. eigenvalues --    1.62330   1.64035   1.65491   1.71585   1.76314
  Beta virt. eigenvalues --    1.78363   1.80390   1.82305   1.87545   1.91732
  Beta virt. eigenvalues --    1.98464   2.01030   2.05906   2.10279   2.14046
  Beta virt. eigenvalues --    2.18728   2.21496   2.24007   2.27468   2.32644
  Beta virt. eigenvalues --    2.38147   2.41143   2.52779   2.64586   2.71069
  Beta virt. eigenvalues --    2.80703   2.84749   2.87523   2.90131   2.90763
  Beta virt. eigenvalues --    2.92777   2.95425   2.98781   3.04609   3.06099
  Beta virt. eigenvalues --    3.06653   3.09031   3.14048   3.16376   3.19733
  Beta virt. eigenvalues --    3.21332   3.22715   3.24904   3.29181   3.29877
  Beta virt. eigenvalues --    3.34576   3.38010   3.39732   3.42256   3.45274
  Beta virt. eigenvalues --    3.46591   3.51520   3.63169   3.71579   3.73504
  Beta virt. eigenvalues --    3.79279   3.81988   3.85175   3.90369   3.91258
  Beta virt. eigenvalues --    3.95066   4.05040   4.14281   4.16058   4.21249
  Beta virt. eigenvalues --    4.22617   4.33311   4.38030   4.45253   4.47986
  Beta virt. eigenvalues --    4.49149   4.52427   4.58314   4.61886   4.65962
  Beta virt. eigenvalues --    4.68338   4.72583   4.75429   4.80578   4.92337
  Beta virt. eigenvalues --    5.30754   5.31388   5.41554   5.49540   5.54922
  Beta virt. eigenvalues --    5.58478   5.70929   5.77455   5.83303   5.90213
  Beta virt. eigenvalues --    5.91854   5.94022   6.08299   6.19980   6.39991
  Beta virt. eigenvalues --    6.79311   7.09405   7.20341   7.24287   7.28770
  Beta virt. eigenvalues --    7.32918   7.35122   7.44882   7.53932   7.56499
  Beta virt. eigenvalues --    7.61689   7.66789   7.72610   7.74625   7.89380
  Beta virt. eigenvalues --    7.95065   8.06681   8.17858   8.20214   8.41596
  Beta virt. eigenvalues --    8.57113   8.77263  14.62294  14.63776  14.84418
  Beta virt. eigenvalues --   14.95035  15.25821  24.29248  24.53864  25.56023
  Beta virt. eigenvalues --   26.66089  50.55371
          Condensed to atoms (all electrons):
               1          2          3          4          5          6
     1  C    6.683726   0.820258  -0.286457  -2.058215   0.045321   0.407651
     2  C    0.820258  12.523769   0.259822  -2.275107  -4.651283   0.446134
     3  O   -0.286457   0.259822   8.894263  -0.137444   0.083737   0.010985
     4  C   -2.058215  -2.275107  -0.137444  13.920553  -3.359391  -0.217625
     5  C    0.045321  -4.651283   0.083737  -3.359391  13.300914  -0.317386
     6  H    0.407651   0.446134   0.010985  -0.217625  -0.317386   0.786092
     7  H    0.328488  -0.582874   0.021826   0.248617   0.323604  -0.190125
     8  H    0.291550   0.115949   0.003644   0.113643  -0.152708   0.016001
     9  H   -0.023826  -0.397041   0.001753  -0.658792   1.238782  -0.015588
               7          8          9
     1  C    0.328488   0.291550  -0.023826
     2  C   -0.582874   0.115949  -0.397041
     3  O    0.021826   0.003644   0.001753
     4  C    0.248617   0.113643  -0.658792
     5  C    0.323604  -0.152708   1.238782
     6  H   -0.190125   0.016001  -0.015588
     7  H    0.802415  -0.062749   0.017770
     8  H   -0.062749   0.593578  -0.011292
     9  H    0.017770  -0.011292   0.699426
          Atomic-Atomic Spin Densities.
               1          2          3          4          5          6
     1  C   -0.056102   0.249952  -0.021160   0.036504  -0.183466   0.025807
     2  C    0.249952   3.724633  -0.155595   0.186283  -3.324590   0.415004
     3  O   -0.021160  -0.155595   0.392992  -0.024634   0.036297   0.010025
     4  C    0.036504   0.186283  -0.024634   1.943607  -1.492440  -0.216708
     5  C   -0.183466  -3.324590   0.036297  -1.492440   4.561387  -0.277669
     6  H    0.025807   0.415004   0.010025  -0.216708  -0.277669   0.197795
     7  H   -0.074263  -0.465764   0.019909   0.191856   0.293927  -0.142049
     8  H    0.018298   0.140365  -0.001793  -0.024289  -0.125398   0.036003
     9  H   -0.016552  -0.347755   0.003054  -0.514729   0.681398  -0.015811
               7          8          9
     1  C   -0.074263   0.018298  -0.016552
     2  C   -0.465764   0.140365  -0.347755
     3  O    0.019909  -0.001793   0.003054
     4  C    0.191856  -0.024289  -0.514729
     5  C    0.293927  -0.125398   0.681398
     6  H   -0.142049   0.036003  -0.015811
     7  H    0.211563  -0.038635   0.017958
     8  H   -0.038635   0.012175  -0.011296
     9  H    0.017958  -0.011296   0.235858
 Mulliken charges and spin densities:
               1          2
     1  C   -0.208496  -0.020981
     2  C   -0.259628   0.422534
     3  O   -0.852128   0.259097
     4  C    0.423760   0.085449
     5  C   -0.511591   0.169447
     6  H    0.073861   0.032397
     7  H    0.093028   0.014501
     8  H    0.092384   0.005431
     9  H    0.148811   0.032125
 Sum of Mulliken charges =  -1.00000   1.00000
 Mulliken charges and spin densities with hydrogens summed into heavy atoms:
               1          2
     1  C    0.050776   0.031348
     2  C   -0.259628   0.422534
     3  O   -0.852128   0.259097
     4  C    0.423760   0.085449
     5  C   -0.362781   0.201572
 APT charges:
               1
     1  C    0.156039
     2  C    0.693938
     3  O   -0.999614
     4  C    0.012859
     5  C   -0.614556
     6  H   -0.118518
     7  H   -0.123182
     8  H   -0.034596
     9  H    0.027631
 Sum of APT charges =  -1.00000
 APT charges with hydrogens summed into heavy atoms:
               1
     1  C   -0.120259
     2  C    0.693938
     3  O   -0.999614
     4  C    0.012859
     5  C   -0.586925
 Electronic spatial extent (au):  <R**2>=            450.1538
 Charge=             -1.0000 electrons
 Dipole moment (field-independent basis, Debye):
    X=              1.4075    Y=              2.9099    Z=              0.9789  Tot=              3.3774
 Quadrupole moment (field-independent basis, Debye-Ang):
   XX=            -47.6399   YY=            -41.6830   ZZ=            -35.5415
   XY=              3.8714   XZ=             -3.1223   YZ=              0.2574
 Traceless Quadrupole moment (field-independent basis, Debye-Ang):
   XX=             -6.0184   YY=             -0.0615   ZZ=              6.0800
   XY=              3.8714   XZ=             -3.1223   YZ=              0.2574
 Octapole moment (field-independent basis, Debye-Ang**2):
  XXX=             24.8469  YYY=              1.3997  ZZZ=              2.7258  XYY=             -1.6433
  XXY=              0.2995  XXZ=              9.9370  XZZ=              9.0493  YZZ=             -2.1000
  YYZ=              0.9291  XYZ=             -0.7029
 Hexadecapole moment (field-independent basis, Debye-Ang**3):
 XXXX=           -528.7474 YYYY=           -208.6236 ZZZZ=            -62.9481 XXXY=              0.8645
 XXXZ=            -31.8066 YYYX=              1.0790 YYYZ=              0.7567 ZZZX=             -7.6179
 ZZZY=              0.8295 XXYY=           -128.1565 XXZZ=           -102.1005 YYZZ=            -43.8043
 XXYZ=              2.4139 YYXZ=             -2.4604 ZZXY=              0.1754
 N-N= 1.413296278180D+02 E-N=-8.274812238993D+02  KE= 2.290868343744D+02
  Exact polarizability: 138.034  -3.770  66.683   4.803  -1.570  65.941
 Approx polarizability: 189.288 -18.002  91.797   9.188  -2.249  80.856
                          Isotropic Fermi Contact Couplings
        Atom                 a.u.       MegaHertz       Gauss      10(-4) cm-1
     1  C(13)             -0.01359     -15.28066      -5.45252      -5.09708
     2  C(13)              0.00375       4.21440       1.50380       1.40577
     3  O(17)              0.02804     -16.99955      -6.06586      -5.67044
     4  C(13)             -0.00953     -10.71683      -3.82403      -3.57475
     5  C(13)              0.11300     127.03861      45.33053      42.37552
     6  H(1)               0.00605      27.02320       9.64255       9.01397
     7  H(1)               0.00605      27.04064       9.64877       9.01979
     8  H(1)              -0.00001      -0.03467      -0.01237      -0.01157
     9  H(1)               0.01548      69.18945      24.68852      23.07912
 --------------------------------------------------------
       Center         ----  Spin Dipole Couplings  ----
                      3XX-RR        3YY-RR        3ZZ-RR
 --------------------------------------------------------
     1   Atom        0.002486      0.004270     -0.006756
     2   Atom       -0.169376     -0.167115      0.336491
     3   Atom       -0.565272     -0.575097      1.140369
     4   Atom        0.007664     -0.094991      0.087327
     5   Atom       -0.155293     -0.168353      0.323646
     6   Atom        0.002444      0.001660     -0.004104
     7   Atom        0.002297      0.001698     -0.003995
     8   Atom       -0.002759      0.006879     -0.004120
     9   Atom        0.016464     -0.023883      0.007420
 --------------------------------------------------------
                        XY            XZ            YZ
 --------------------------------------------------------
     1   Atom        0.005291      0.000631      0.000462
     2   Atom       -0.011850      0.015610     -0.002924
     3   Atom        0.013970      0.016563      0.000681
     4   Atom       -0.014605      0.047404     -0.013053
     5   Atom       -0.002925      0.178657     -0.023013
     6   Atom        0.005479     -0.001856     -0.002860
     7   Atom        0.005424      0.002049      0.002556
     8   Atom        0.004342      0.000341      0.000103
     9   Atom       -0.004989     -0.013731      0.001513
 --------------------------------------------------------


 ---------------------------------------------------------------------------------
              Anisotropic Spin Dipole Couplings in Principal Axis System
 ---------------------------------------------------------------------------------

       Atom             a.u.   MegaHertz   Gauss  10(-4) cm-1        Axes

              Baa    -0.0068    -0.913    -0.326    -0.304 -0.0606 -0.0127  0.9981
     1 C(13)  Bbb    -0.0020    -0.266    -0.095    -0.089  0.7613 -0.6473  0.0380
              Bcc     0.0088     1.178     0.420     0.393  0.6455  0.7622  0.0489
 
              Baa    -0.1803   -24.198    -8.635    -8.072  0.7464  0.6652 -0.0188
     2 C(13)  Bbb    -0.1567   -21.023    -7.501    -7.012 -0.6648  0.7466  0.0255
              Bcc     0.3370    45.221    16.136    15.084  0.0310 -0.0065  0.9995
 
              Baa    -0.5850    42.333    15.106    14.121 -0.5800  0.8146  0.0052
     3 O(17)  Bbb    -0.5555    40.195    14.343    13.408  0.8145  0.5801 -0.0082
              Bcc     1.1405   -82.528   -29.448   -27.528  0.0097  0.0005  1.0000
 
              Baa    -0.0973   -13.054    -4.658    -4.354  0.1203  0.9920  0.0392
     4 C(13)  Bbb    -0.0137    -1.840    -0.656    -0.614  0.8969 -0.0917 -0.4326
              Bcc     0.1110    14.894     5.314     4.968  0.4256 -0.0873  0.9007
 
              Baa    -0.2150   -28.855   -10.296    -9.625  0.9434 -0.0972 -0.3170
     5 C(13)  Bbb    -0.1689   -22.659    -8.085    -7.558  0.1052  0.9944  0.0083
              Bcc     0.3839    51.514    18.381    17.183  0.3145 -0.0412  0.9484
 
              Baa    -0.0053    -2.838    -1.013    -0.947 -0.1001  0.4436  0.8906
     6 H(1)   Bbb    -0.0031    -1.655    -0.591    -0.552  0.7119 -0.5934  0.3756
              Bcc     0.0084     4.494     1.603     1.499  0.6951  0.6716 -0.2564
 
              Baa    -0.0050    -2.654    -0.947    -0.885  0.0094 -0.3643  0.9312
     7 H(1)   Bbb    -0.0033    -1.768    -0.631    -0.590  0.7186 -0.6452 -0.2597
              Bcc     0.0083     4.422     1.578     1.475  0.6954  0.6716  0.2557
 
              Baa    -0.0046    -2.452    -0.875    -0.818  0.8044 -0.2998 -0.5129
     8 H(1)   Bbb    -0.0040    -2.111    -0.753    -0.704  0.4735 -0.1979  0.8583
              Bcc     0.0086     4.562     1.628     1.522  0.3588  0.9332  0.0173
 
              Baa    -0.0245   -13.068    -4.663    -4.359  0.1228  0.9924  0.0058
     9 H(1)   Bbb    -0.0024    -1.273    -0.454    -0.425  0.5739 -0.0758  0.8154
              Bcc     0.0269    14.341     5.117     4.784  0.8096 -0.0968 -0.5789
 

 ---------------------------------------------------------------------------------

 No NMR shielding tensors so no spin-rotation constants.
 Leave Link  601 at Thu Mar  7 13:00:01 2019, MaxMem=    33554432 cpu:         2.1
 (Enter /home/proyectos/fulerenos/M3C-v2.0/M3C-deps_CCC/g09-AM64L-G09RevC.01/l701.exe)
 Compute integral second derivatives.
 ... and contract with generalized density number  0.
 Leave Link  701 at Thu Mar  7 13:00:02 2019, MaxMem=    33554432 cpu:         1.5
 (Enter /home/proyectos/fulerenos/M3C-v2.0/M3C-deps_CCC/g09-AM64L-G09RevC.01/l702.exe)
 L702 exits ... SP integral derivatives will be done elsewhere.
 Leave Link  702 at Thu Mar  7 13:00:02 2019, MaxMem=    33554432 cpu:         0.1
 (Enter /home/proyectos/fulerenos/M3C-v2.0/M3C-deps_CCC/g09-AM64L-G09RevC.01/l703.exe)
 Compute integral second derivatives, UseDBF=F ICtDFT=           0.
 Integral derivatives from FoFJK, PRISM(SPDF).
 Calling FoFJK, ICntrl=    100127 FMM=F ISym2X=0 I1Cent= 0 IOpClX= 1 NMat=1 NMatS=1 NMatT=0.
 FoFJK:  IHMeth= 1 ICntrl=  100127 DoSepK=F KAlg= 0 I1Cent=   0 FoldK=F
 IRaf=         0 NMat=   1 IRICut=       1 DoRegI=T DoRafI=F ISym2E= 0.
 FoFCou: FMM=F IPFlag=           0 FMFlag=      100000 FMFlg1=         800
         NFxFlg=           0 DoJE=F BraDBF=F KetDBF=F FulRan=T
         wScrn=  0.000000 ICntrl=  100127 IOpCl=  1 I1Cent=           0 NGrid=           0
         NMat0=    1 NMatS0=      1 NMatT0=    0 NMatD0=    1 NMtDS0=    0 NMtDT0=    0
 Symmetry not used in FoFCou.
 Leave Link  703 at Thu Mar  7 13:02:22 2019, MaxMem=    33554432 cpu:       562.4
 (Enter /home/proyectos/fulerenos/M3C-v2.0/M3C-deps_CCC/g09-AM64L-G09RevC.01/l716.exe)
 Dipole        = 5.53767124D-01 1.14484959D+00 3.85110261D-01
 Polarizability= 1.38034177D+02-3.77006980D+00 6.66834578D+01
                 4.80307003D+00-1.56967186D+00 6.59414357D+01
 Full mass-weighted force constant matrix:
 Low frequencies ---   -7.4963   -4.7549   -0.0005   -0.0001    0.0004    7.3424
 Low frequencies ---  118.9298  193.8774  268.5753
 Diagonal vibrational polarizability:
       30.5058121       8.0047092       2.7025805
 Harmonic frequencies (cm**-1), IR intensities (KM/Mole), Raman scattering
 activities (A**4/AMU), depolarization ratios for plane and unpolarized
 incident light, reduced masses (AMU), force constants (mDyne/A),
 and normal coordinates:
                      1                      2                      3
                      A                      A                      A
 Frequencies --    118.8996               193.8772               268.5744
 Red. masses --      1.0520                 4.0008                 3.8413
 Frc consts  --      0.0088                 0.0886                 0.1633
 IR Inten    --      0.2076                 2.7362                 2.3178
  Atom  AN      X      Y      Z        X      Y      Z        X      Y      Z
     1   6     0.00  -0.00  -0.01    -0.25   0.02  -0.01    -0.00   0.00  -0.06
     2   6    -0.00   0.00   0.04     0.00  -0.15   0.01    -0.00   0.00   0.16
     3   8    -0.00   0.00   0.02     0.19  -0.05   0.00    -0.02   0.00  -0.15
     4   6    -0.00   0.00   0.01    -0.00  -0.19   0.01    -0.00   0.01   0.39
     5   6     0.00  -0.00  -0.04     0.07   0.31  -0.01     0.06  -0.01  -0.20
     6   1    -0.42   0.27  -0.33    -0.27   0.16  -0.03    -0.02  -0.24  -0.07
     7   1     0.42  -0.27  -0.33    -0.23   0.17  -0.02     0.01   0.25  -0.08
     8   1     0.01   0.00   0.53    -0.45  -0.12  -0.00    -0.01  -0.00  -0.29
     9   1    -0.02  -0.02  -0.08     0.10   0.58  -0.00    -0.27  -0.00  -0.68
                      4                      5                      6
                      A                      A                      A
 Frequencies --    425.9902               506.7923               615.4895
 Red. masses --      3.5358                 3.1330                 1.4514
 Frc consts  --      0.3780                 0.4741                 0.3240
 IR Inten    --      2.3745                10.7626                36.9160
  Atom  AN      X      Y      Z        X      Y      Z        X      Y      Z
     1   6     0.12  -0.16  -0.00     0.01  -0.00  -0.01    -0.02  -0.02   0.01
     2   6    -0.11   0.02   0.00     0.00   0.00   0.36     0.00  -0.01   0.08
     3   8     0.20   0.20  -0.00     0.00   0.00  -0.10     0.02  -0.00  -0.04
     4   6    -0.17  -0.12   0.02    -0.00  -0.02  -0.21     0.01   0.09  -0.04
     5   6    -0.16   0.05  -0.02    -0.01   0.06   0.02    -0.03  -0.14  -0.00
     6   1     0.13  -0.48   0.01    -0.20  -0.39  -0.16    -0.04  -0.04  -0.01
     7   1     0.13  -0.47  -0.01     0.21   0.38  -0.17     0.01   0.04  -0.01
     8   1     0.51   0.11  -0.01     0.01  -0.00  -0.29    -0.03  -0.03  -0.01
     9   1    -0.14   0.15   0.00     0.06  -0.48   0.22     0.16   0.96   0.08
                      7                      8                      9
                      A                      A                      A
 Frequencies --    622.3218               639.2548               764.1349
 Red. masses --      3.7583                 1.4013                 4.9480
 Frc consts  --      0.8576                 0.3374                 1.7023
 IR Inten    --     70.0258               286.6288                11.3061
  Atom  AN      X      Y      Z        X      Y      Z        X      Y      Z
     1   6    -0.14  -0.17  -0.00    -0.04  -0.05   0.00    -0.22  -0.24   0.00
     2   6     0.01  -0.09  -0.02    -0.02  -0.02  -0.01    -0.06   0.16   0.00
     3   8     0.18  -0.02   0.01     0.01   0.02   0.00    -0.14   0.20   0.00
     4   6     0.01   0.38  -0.03     0.02   0.06   0.08     0.19  -0.08  -0.05
     5   6    -0.04  -0.01   0.07    -0.00   0.00  -0.14     0.30  -0.04   0.07
     6   1    -0.13  -0.08  -0.00    -0.05  -0.07  -0.00    -0.19  -0.48   0.02
     7   1    -0.15  -0.10   0.01    -0.05  -0.07   0.00    -0.20  -0.50  -0.00
     8   1    -0.25  -0.25   0.00    -0.05  -0.06   0.00     0.03  -0.07   0.00
     9   1    -0.40  -0.51  -0.41     0.55  -0.22   0.77     0.10   0.09  -0.28
                     10                     11                     12
                      A                      A                      A
 Frequencies --    977.3304              1007.4948              1202.6338
 Red. masses --      1.6673                 1.4608                 5.2776
 Frc consts  --      0.9383                 0.8736                 4.4973
 IR Inten    --     14.4559                 0.2474                66.8439
  Atom  AN      X      Y      Z        X      Y      Z        X      Y      Z
     1   6    -0.09   0.15  -0.00    -0.00   0.00   0.15    -0.20  -0.03  -0.00
     2   6    -0.09  -0.08   0.00    -0.00  -0.00  -0.13     0.42   0.31  -0.00
     3   8     0.03  -0.07  -0.00    -0.00  -0.00   0.02     0.01  -0.15  -0.00
     4   6     0.03   0.05  -0.01     0.00   0.00   0.01    -0.05  -0.04   0.02
     5   6     0.05  -0.01   0.01     0.00  -0.01   0.01    -0.19   0.03  -0.03
     6   1     0.00  -0.35   0.06    -0.43  -0.48  -0.18    -0.01  -0.49   0.12
     7   1    -0.01  -0.37  -0.05     0.43   0.46  -0.19    -0.02  -0.50  -0.11
     8   1     0.57   0.59  -0.00     0.01   0.01  -0.29     0.18   0.19   0.00
     9   1     0.04  -0.04  -0.02    -0.00   0.05  -0.02    -0.11   0.07   0.12
                     13                     14                     15
                      A                      A                      A
 Frequencies --   1356.1617              1451.7771              1464.7690
 Red. masses --      1.2406                 2.1373                 1.0513
 Frc consts  --      1.3443                 2.6541                 1.3289
 IR Inten    --     16.0948               266.2027                 3.2018
  Atom  AN      X      Y      Z        X      Y      Z        X      Y      Z
     1   6    -0.08  -0.12   0.00     0.07  -0.05   0.00     0.00  -0.00  -0.06
     2   6    -0.01   0.02   0.00    -0.13   0.21  -0.00    -0.01   0.01  -0.02
     3   8     0.01  -0.01  -0.00     0.08  -0.14  -0.00     0.00  -0.00   0.00
     4   6    -0.01  -0.00   0.00    -0.02  -0.01   0.00    -0.00  -0.00  -0.00
     5   6     0.01  -0.00  -0.00     0.05  -0.01  -0.00     0.00  -0.00   0.00
     6   1     0.23   0.49   0.20    -0.51   0.19  -0.39     0.13  -0.45   0.06
     7   1     0.23   0.48  -0.21    -0.49   0.16   0.38    -0.13   0.46   0.06
     8   1     0.49   0.29  -0.01     0.20   0.07  -0.04     0.00   0.01   0.74
     9   1     0.02  -0.00   0.01     0.08   0.00   0.01     0.00   0.00  -0.00
                     16                     17                     18
                      A                      A                      A
 Frequencies --   1495.4003              1960.1044              2962.5776
 Red. masses --      1.7054                 7.7473                 1.0367
 Frc consts  --      2.2470                17.5371                 5.3609
 IR Inten    --    191.9151                72.2618               192.8787
  Atom  AN      X      Y      Z        X      Y      Z        X      Y      Z
     1   6    -0.01   0.03   0.00     0.00  -0.01  -0.00     0.05   0.02  -0.01
     2   6    -0.14   0.14   0.00    -0.18   0.06   0.01     0.00  -0.00  -0.00
     3   8     0.06  -0.09  -0.00     0.01  -0.02  -0.00    -0.00   0.00   0.00
     4   6    -0.03  -0.00  -0.00     0.63  -0.08   0.03    -0.00   0.00  -0.00
     5   6     0.06  -0.01   0.00    -0.41   0.06  -0.04     0.00  -0.00   0.00
     6   1     0.46  -0.11   0.34     0.03   0.05   0.06    -0.40   0.01   0.58
     7   1     0.47  -0.14  -0.34     0.03   0.06  -0.06    -0.36   0.00  -0.51
     8   1    -0.41  -0.25  -0.02    -0.03  -0.03   0.00     0.20  -0.28  -0.00
     9   1     0.08  -0.00  -0.00    -0.59   0.08   0.11    -0.01   0.00   0.00
                     19                     20                     21
                      A                      A                      A
 Frequencies --   2991.1046              3061.8534              3159.6016
 Red. masses --      1.0997                 1.0966                 1.1160
 Frc consts  --      5.7970                 6.0572                 6.5640
 IR Inten    --    112.4008                50.1075               151.3686
  Atom  AN      X      Y      Z        X      Y      Z        X      Y      Z
     1   6    -0.00  -0.00  -0.09     0.06  -0.06   0.00     0.00   0.00  -0.00
     2   6     0.00  -0.00  -0.00     0.00  -0.00  -0.00    -0.00  -0.00   0.00
     3   8    -0.00   0.00   0.00    -0.00   0.00   0.00    -0.00   0.00  -0.00
     4   6    -0.00   0.00  -0.00    -0.00   0.00   0.00     0.02  -0.00   0.00
     5   6     0.00  -0.00  -0.00    -0.00   0.00   0.00    -0.09   0.01   0.04
     6   1    -0.40   0.01   0.53    -0.12  -0.01   0.19    -0.00   0.00   0.01
     7   1     0.45   0.00   0.59    -0.13  -0.01  -0.19    -0.00  -0.00  -0.00
     8   1    -0.01   0.02  -0.02    -0.53   0.78  -0.00     0.00  -0.01  -0.00
     9   1    -0.00   0.00   0.00     0.00  -0.00  -0.00     0.83  -0.10  -0.54

 -------------------
 - Thermochemistry -
 -------------------
 Temperature   298.150 Kelvin.  Pressure   1.00000 Atm.
 Atom     1 has atomic number  6 and mass  12.00000
 Atom     2 has atomic number  6 and mass  12.00000
 Atom     3 has atomic number  8 and mass  15.99491
 Atom     4 has atomic number  6 and mass  12.00000
 Atom     5 has atomic number  6 and mass  12.00000
 Atom     6 has atomic number  1 and mass   1.00783
 Atom     7 has atomic number  1 and mass   1.00783
 Atom     8 has atomic number  1 and mass   1.00783
 Atom     9 has atomic number  1 and mass   1.00783
 Molecular mass:    68.02621 amu.
 Principal axes and moments of inertia in atomic units:
                           1         2         3
     Eigenvalues --   178.70752 451.86226 616.43148
           X            0.99803   0.06148  -0.01215
           Y           -0.06146   0.99811   0.00213
           Z            0.01225  -0.00138   0.99992
 This molecule is an asymmetric top.
 Rotational symmetry number  1.
 Rotational temperatures (Kelvin)      0.48467     0.19168     0.14051
 Rotational constants (GHZ):          10.09885     3.99401     2.92772
 Zero-point vibrational energy     162968.1 (Joules/Mol)
                                   38.95032 (Kcal/Mol)
 Warning -- explicit consideration of   6 degrees of freedom as
           vibrations may cause significant error
 Vibrational temperatures:    171.07   278.95   386.42   612.90   729.16
          (Kelvin)            885.55   895.38   919.74  1099.42  1406.16
                             1449.56  1730.32  1951.21  2088.78  2107.47
                             2151.54  2820.15  4262.48  4303.53  4405.32
                             4545.96
 
 Zero-point correction=                           0.062071 (Hartree/Particle)
 Thermal correction to Energy=                    0.067786
 Thermal correction to Enthalpy=                  0.068730
 Thermal correction to Gibbs Free Energy=         0.032836
 Sum of electronic and zero-point Energies=           -230.011792
 Sum of electronic and thermal Energies=              -230.006077
 Sum of electronic and thermal Enthalpies=            -230.005133
 Sum of electronic and thermal Free Energies=         -230.041028
 
                     E (Thermal)             CV                S
                      KCal/Mol        Cal/Mol-Kelvin    Cal/Mol-Kelvin
 Total                   42.536             19.130             75.546
 Electronic               0.000              0.000              1.377
 Translational            0.889              2.981             38.570
 Rotational               0.889              2.981             25.413
 Vibrational             40.759             13.169             10.187
 Vibration     1          0.609              1.934              3.118
 Vibration     2          0.635              1.848              2.190
 Vibration     3          0.673              1.731              1.605
 Vibration     4          0.788              1.414              0.872
 Vibration     5          0.862              1.235              0.641
 Vibration     6          0.975              0.999              0.424
                       Q            Log10(Q)             Ln(Q)
 Total Bot       0.788352D-15        -15.103280        -34.776587
 Total V=0       0.280199D+14         13.447467         30.963937
 Vib (Bot)       0.223799D-27        -27.650143        -63.666806
 Vib (Bot)    1  0.171918D+01          0.235320          0.541845
 Vib (Bot)    2  0.103084D+01          0.013190          0.030370
 Vib (Bot)    3  0.720105D+00         -0.142604         -0.328359
 Vib (Bot)    4  0.410297D+00         -0.386902         -0.890874
 Vib (Bot)    5  0.322341D+00         -0.491685         -1.132147
 Vib (Bot)    6  0.238731D+00         -0.622091         -1.432419
 Vib (V=0)       0.795434D+01          0.900604          2.073718
 Vib (V=0)    1  0.229041D+01          0.359913          0.828731
 Vib (V=0)    2  0.164570D+01          0.216350          0.498164
 Vib (V=0)    3  0.137667D+01          0.138830          0.319668
 Vib (V=0)    4  0.114679D+01          0.059486          0.136971
 Vib (V=0)    5  0.109490D+01          0.039374          0.090661
 Vib (V=0)    6  0.105407D+01          0.022869          0.052658
 Electronic      0.200000D+01          0.301030          0.693147
 Translational   0.220531D+08          7.343470         16.908964
 Rotational      0.798662D+05          4.902363         11.288109
 
                                                              b3lyp opt
                                                             IR Spectrum
 
     3   3  22                                        1                 111   1     1       1                                        
     1   0  99                                        9                 444   3     2       09        7   666   5  4      2  1  1    
     6   6  96                                        6                 965   5     0       07        6   321   0  2      6  9  1    
     0   2  13                                        0                 552   6     3       77        4   925   7  6      9  4  9    
 
     X   X  XX                                        X                 XXX   X     X       XX        X   XXX   X  X      X  X  X    
     X   X  XX                                        X                 X X         X                     XXX                        
     X   X  XX                                        X                 X X         X                     XXX                        
     X      XX                                        X                 X X         X                     XX                         
     X      XX                                        X                 X X         X                     XX                         
     X      XX                                                          X X                               X                          
     X      XX                                                          X X                               X                          
     X      XX                                                          X X                               X                          
     X       X                                                          X X                               X                          
     X       X                                                          X X                               X                          
     X       X                                                          X X                               X                          
             X                                                          X X                               X                          
             X                                                          X X                               X                          
                                                                          X                               X                          
                                                                          X                               X                          
                                                                          X                               X                          
                                                                          X                               X                          
                                                                          X                               X                          
                                                                          X                               X                          
                                                                                                          X                          
 
 ***** Axes restored to original set *****
 -------------------------------------------------------------------
 Center     Atomic                   Forces (Hartrees/Bohr)
 Number     Number              X              Y              Z
 -------------------------------------------------------------------
      1        6           0.000002925    0.000031900   -0.000019190
      2        6          -0.000044327    0.000012811   -0.000011331
      3        8           0.000020528   -0.000028893   -0.000004933
      4        6          -0.000002771   -0.000031068    0.000033322
      5        6          -0.000002488   -0.000005850   -0.000007824
      6        1          -0.000011988   -0.000015982    0.000005995
      7        1           0.000006454   -0.000007598    0.000011892
      8        1           0.000005437    0.000022145   -0.000000208
      9        1           0.000026230    0.000022535   -0.000007721
 -------------------------------------------------------------------
 Cartesian Forces:  Max     0.000044327 RMS     0.000018825
 Z-matrix is all fixed cartesians, so copy forces.
 Force constants in Cartesian coordinates: 
                1             2             3             4             5 
      1  0.562805D+00
      2 -0.900551D-02  0.416662D+00
      3  0.159323D-02 -0.246911D-03  0.496464D+00
      4 -0.717865D-01 -0.862292D-02 -0.185495D-02  0.725463D+00
      5 -0.867442D-02 -0.148545D+00 -0.236467D-02 -0.320234D-02  0.483699D+00
      6 -0.422134D-03 -0.220334D-02 -0.663444D-01  0.103055D-01  0.776145D-02
      7 -0.144662D-01  0.253070D-01  0.711081D-03 -0.393712D+00  0.151509D+00
      8  0.462456D-01 -0.277860D-01 -0.514576D-03  0.136197D+00 -0.149797D+00
      9  0.102788D-02 -0.728650D-03  0.115388D-01 -0.608122D-03 -0.925433D-03
     10 -0.438587D-03 -0.214890D-01 -0.301051D-03 -0.248380D+00 -0.993377D-01
     11 -0.279678D-01 -0.319071D-01  0.110709D-02 -0.113315D+00 -0.144955D+00
     12 -0.165332D-02 -0.470799D-02  0.685338D-02 -0.145664D-01  0.464053D-02
     13 -0.146308D-02  0.861924D-02  0.296247D-02 -0.888941D-02 -0.279042D-01
     14  0.131756D-02  0.350096D-02 -0.449003D-02 -0.761513D-02 -0.676451D-02
     15  0.132422D-02  0.602381D-02  0.271966D-02  0.105181D-01 -0.155622D-01
     16 -0.103618D+00 -0.401299D-01  0.949743D-01 -0.308067D-02 -0.297150D-02
     17 -0.420189D-01 -0.721984D-01  0.740689D-01 -0.185662D-01 -0.193447D-01
     18  0.941071D-01  0.690519D-01 -0.195164D+00  0.214348D-02  0.816228D-03
     19 -0.954111D-01 -0.337069D-01 -0.922679D-01 -0.241350D-02 -0.269737D-02
     20 -0.353034D-01 -0.667211D-01 -0.709992D-01 -0.176393D-01 -0.180422D-01
     21 -0.915445D-01 -0.658882D-01 -0.209329D+00 -0.192529D-02 -0.143007D-02
     22 -0.274953D+00  0.792711D-01 -0.352779D-02 -0.307402D-02 -0.315927D-02
     23  0.749969D-01 -0.732094D-01  0.112376D-02  0.323655D-01 -0.707873D-03
     24 -0.374285D-02  0.124844D-02 -0.470639D-01  0.664323D-03 -0.739159D-04
     25 -0.668559D-03 -0.242996D-03 -0.228945D-02  0.587309D-02 -0.356213D-02
     26  0.410001D-03  0.203217D-03  0.231566D-02  0.398965D-03  0.445722D-02
     27 -0.689663D-03 -0.254906D-02  0.325321D-03 -0.467673D-02  0.713810D-02
                6             7             8             9            10 
      6  0.142794D+00
      7 -0.194965D-02  0.477873D+00
      8  0.488754D-03 -0.183393D+00  0.158934D+00
      9 -0.437016D-01  0.828098D-03  0.114260D-02  0.181314D-01
     10  0.174108D-02 -0.619116D-01 -0.135106D-01 -0.374499D-03  0.896702D+00
     11  0.981575D-03  0.155627D-01  0.155540D-01 -0.184684D-02  0.434591D+00
     12 -0.389595D-01  0.103010D-01 -0.691357D-02  0.876064D-02  0.720546D-01
     13 -0.108018D-01 -0.102983D-01  0.806246D-02 -0.195304D-02 -0.574206D+00
     14 -0.883573D-02 -0.745632D-02  0.420245D-02  0.631442D-02 -0.304679D+00
     15 -0.173655D-02 -0.169066D-01  0.107883D-01  0.322526D-02 -0.467404D-01
     16 -0.154280D-02  0.204873D-02  0.575942D-03 -0.142175D-03  0.237009D-02
     17  0.240224D-01  0.309986D-03  0.462148D-02 -0.328820D-02  0.474217D-02
     18  0.458547D-02 -0.245226D-02  0.738430D-04  0.721994D-04 -0.252587D-02
     19  0.164028D-02  0.153518D-02  0.575465D-03  0.127523D-04  0.149783D-02
     20 -0.253780D-01  0.605884D-04  0.436768D-02  0.340736D-02  0.485554D-02
     21  0.365974D-02  0.171382D-02  0.184975D-03  0.141881D-03  0.206076D-02
     22  0.135243D-03  0.165397D-02  0.317683D-02 -0.179878D-03 -0.106790D-02
     23  0.771446D-03  0.134371D-02 -0.102886D-01 -0.360843D-03  0.255383D-03
     24 -0.243447D-02  0.621693D-04 -0.279708D-03  0.229943D-02  0.661937D-04
     25  0.894294D-03 -0.272243D-02  0.207009D-02  0.138898D-02 -0.145663D-01
     26  0.239143D-02 -0.324409D-02  0.191712D-03 -0.371441D-02 -0.542742D-02
     27  0.213697D-02  0.769232D-02 -0.497066D-02 -0.468008D-03 -0.259808D-01
               11            12            13            14            15 
     11  0.362470D+00
     12  0.401361D-01  0.595297D-01
     13 -0.299465D+00 -0.782893D-01  0.780138D+00
     14 -0.194165D+00 -0.412205D-01  0.419224D+00  0.271540D+00
     15 -0.260336D-01 -0.314109D-01 -0.617626D-01 -0.379835D-01  0.124710D+00
     16 -0.793956D-04  0.351538D-03 -0.143827D-02 -0.278675D-03 -0.832105D-03
     17 -0.208919D-02  0.204548D-02 -0.366371D-02  0.358020D-03 -0.280906D-02
     18 -0.601490D-03 -0.129091D-02  0.168540D-02  0.509322D-03  0.142366D-02
     19 -0.212086D-03  0.436519D-03 -0.407291D-03 -0.977360D-03 -0.598230D-03
     20 -0.743324D-03 -0.902592D-05 -0.215437D-02 -0.248406D-02 -0.706183D-03
     21  0.279965D-03  0.245292D-03 -0.107562D-02 -0.976635D-03 -0.124370D-02
     22 -0.173320D-02 -0.596412D-03  0.162252D-02  0.339767D-04  0.106880D-02
     23  0.112157D-02  0.756448D-03 -0.127140D-02 -0.335261D-03 -0.124885D-02
     24 -0.392033D-04 -0.309555D-03 -0.281067D-05  0.640042D-04  0.716680D-04
     25 -0.738073D-02  0.119618D-01 -0.185058D+00 -0.995684D-01  0.113929D+00
     26 -0.528490D-02  0.527250D-02 -0.101446D+00 -0.758519D-01  0.675313D-01
     27 -0.139836D-01 -0.341820D-02  0.149237D+00  0.866186D-01 -0.977593D-01
               16            17            18            19            20 
     16  0.109255D+00
     17  0.489314D-01  0.823682D-01
     18 -0.105479D+00 -0.775475D-01  0.214176D+00
     19  0.737391D-02  0.544645D-02  0.132462D-01  0.100307D+00
     20  0.554597D-02  0.361984D-02  0.900695D-02  0.415476D-01  0.763404D-01
     21 -0.116441D-01 -0.777838D-02 -0.243185D-01  0.102279D+00  0.742310D-01
     22 -0.129899D-01  0.440778D-02 -0.712087D-03 -0.123137D-01  0.406489D-02
     23 -0.112459D-01  0.339315D-02 -0.157876D-02 -0.103279D-01  0.298963D-02
     24  0.239039D-01 -0.934960D-02  0.128385D-02 -0.249390D-01  0.963714D-02
     25  0.798539D-04  0.411076D-03 -0.129882D-04 -0.168028D-03 -0.977531D-03
     26 -0.347857D-03 -0.728412D-03  0.269429D-03  0.352091D-03  0.673152D-03
     27  0.410431D-03  0.635871D-03 -0.767942D-03  0.189957D-03  0.810030D-03
               21            22            23            24            25 
     21  0.229712D+00
     22  0.295400D-03  0.301059D+00
     23  0.118137D-02 -0.861062D-01  0.771675D-01
     24  0.620819D-03  0.399119D-02 -0.120416D-02  0.455170D-01
     25 -0.159903D-03  0.626673D-04 -0.100050D-04 -0.308512D-05  0.197168D+00
     26  0.196018D-03  0.441650D-04 -0.130718D-03 -0.299671D-05  0.109261D+00
     27  0.512157D-03 -0.474474D-03  0.559583D-03  0.151483D-04 -0.125708D+00
               26            27 
     26  0.764707D-01
     27 -0.742589D-01  0.994239D-01
 Leave Link  716 at Thu Mar  7 13:02:22 2019, MaxMem=    33554432 cpu:         0.1
 (Enter /home/proyectos/fulerenos/M3C-v2.0/M3C-deps_CCC/g09-AM64L-G09RevC.01/l103.exe)

 GradGradGradGradGradGradGradGradGradGradGradGradGradGradGradGradGradGrad
 Berny optimization.
 Search for a local minimum.
 Step number   1 out of a maximum of    2
 All quantities printed in internal units (Hartrees-Bohrs-Radians)
 Second derivative matrix not updated -- analytic derivatives used.
 ITU=  0
     Eigenvalues ---    0.00065   0.00545   0.01185   0.02536   0.03289
     Eigenvalues ---    0.04501   0.06508   0.07486   0.09144   0.10190
     Eigenvalues ---    0.13198   0.18989   0.19739   0.24582   0.41643
     Eigenvalues ---    0.58630   0.66907   0.73109   0.76839   1.09654
     Eigenvalues ---    1.89264
 Angle between quadratic step and forces=  77.82 degrees.
 Linear search not attempted -- first point.
 B after Tr=     0.000183   -0.000223   -0.000225
         Rot=    1.000000    0.000039    0.000068   -0.000007 Ang=   0.01 deg.
 Variable       Old X    -DE/DX   Delta X   Delta X   Delta X     New X
                                 (Linear)    (Quad)   (Total)
    X1        5.83221   0.00000   0.00000   0.00016   0.00001   5.83223
    Y1        6.26959   0.00003   0.00000   0.00030   0.00030   6.26988
    Z1        1.70641  -0.00002   0.00000  -0.00006   0.00001   1.70643
    X2        5.98808  -0.00004   0.00000  -0.00039  -0.00048   5.98760
    Y2        3.38779   0.00001   0.00000   0.00017   0.00016   3.38795
    Z2        1.63820  -0.00001   0.00000   0.00036   0.00069   1.63888
    X3        8.17018   0.00002   0.00000  -0.00040  -0.00048   8.16970
    Y3        2.37562  -0.00003   0.00000  -0.00001   0.00001   2.37564
    Z3        1.64244  -0.00000   0.00000   0.00043   0.00114   1.64357
    X4        3.71297  -0.00000   0.00000  -0.00019  -0.00026   3.71271
    Y4        2.07400  -0.00003   0.00000  -0.00007  -0.00011   2.07388
    Z4        1.59292   0.00003   0.00000   0.00055   0.00066   1.59358
    X5        1.66445  -0.00000   0.00000   0.00025   0.00025   1.66470
    Y5        0.95035  -0.00001   0.00000  -0.00050  -0.00060   0.94975
    Z5        1.22152  -0.00001   0.00000  -0.00069  -0.00077   1.22075
    X6        6.84476  -0.00001   0.00000  -0.00142  -0.00135   6.84341
    Y6        7.05854  -0.00002   0.00000  -0.00051  -0.00062   7.05792
    Z6        0.07908   0.00001   0.00000  -0.00137  -0.00121   0.07786
    X7        6.77191   0.00001   0.00000   0.00236   0.00197   6.77388
    Y7        6.99486  -0.00001   0.00000   0.00010   0.00025   6.99510
    Z7        3.40451   0.00001   0.00000  -0.00119  -0.00104   3.40347
    X8        3.88740   0.00001   0.00000   0.00044   0.00029   3.88768
    Y8        6.95733   0.00002   0.00000   0.00121   0.00117   6.95850
    Z8        1.67715  -0.00000   0.00000   0.00190   0.00166   1.67881
    X9        0.18792   0.00003   0.00000   0.00018   0.00004   0.18796
    Y9        0.07426   0.00002   0.00000  -0.00052  -0.00056   0.07370
    Z9        2.32477  -0.00001   0.00000  -0.00093  -0.00114   2.32363
         Item               Value     Threshold  Converged?
 Maximum Force            0.000044     0.000450     YES
 RMS     Force            0.000019     0.000300     YES
 Maximum Displacement     0.001973     0.001800     NO 
 RMS     Displacement     0.000826     0.001200     YES
 Predicted change in Energy=-4.028883D-08
 GradGradGradGradGradGradGradGradGradGradGradGradGradGradGradGradGradGrad

 Leave Link  103 at Thu Mar  7 13:02:22 2019, MaxMem=    33554432 cpu:         0.1
 (Enter /home/proyectos/fulerenos/M3C-v2.0/M3C-deps_CCC/g09-AM64L-G09RevC.01/l9999.exe)

 Test job not archived.
 1\1\GINC-BELVIS21\Freq\UB3LYP\6-311++G(3df,2p)\C4H4O1(1-,2)\ROOT\07-Ma
 r-2019\0\\#p b3lyp/6-311++G(3df,2p) freq IOp(2/17=3) IOp(2/18=3)\\b3ly
 p opt\\-1,2\C,3.086275,3.317723,0.902995\C,3.168756,1.792741,0.866896\
 O,4.323472,1.257126,0.86914\C,1.964818,1.097511,0.842935\C,0.880788,0.
 502904,0.6464\H,3.622092,3.735217,0.041847\H,3.583541,3.701518,1.80158
 9\H,2.057123,3.681659,0.887511\H,0.099445,0.039296,1.230214\\Version=E
 M64L-G09RevE.01\State=2-A\HF=-230.0738633\S2=0.759697\S2-1=0.\S2A=0.75
 0041\RMSD=4.118e-09\RMSF=1.883e-05\ZeroPoint=0.0620713\Thermal=0.06778
 59\Dipole=-0.2506855,1.2368103,0.4160595\DipoleDeriv=0.2043962,0.03428
 46,-0.0039991,0.2761667,-0.0538374,-0.0099266,0.0130562,-0.0508768,0.3
 175568,1.4923998,0.0253188,0.0908875,-0.5925671,0.5674523,0.0210983,0.
 0111596,-0.0168064,0.0219607,-1.8665221,-0.0912845,-0.1164713,0.556363
 8,-0.6455543,0.019267,-0.0280661,0.0275405,-0.4867642,0.3131865,0.5356
 271,-0.0072381,0.2149258,-0.071727,-0.0316358,0.3424689,0.2235336,-0.2
 028826,-0.8591869,-0.2654046,-0.1894871,-0.1320519,-0.6478199,-0.13128
 81,-0.8482749,-0.5327565,-0.3366606,-0.0694382,-0.1402221,0.1195705,-0
 .1098023,-0.1161197,0.0577347,0.1596646,0.2047524,-0.1699971,-0.062402
 ,-0.1125619,-0.1313302,-0.093217,-0.1110588,-0.0745124,-0.1563152,-0.1
 818625,-0.1960866,-0.135474,0.162649,0.0054097,0.0196543,-0.0190669,-0
 .0040408,-0.0073501,0.0027336,0.050752,-0.0169594,-0.1484063,0.2326581
 ,-0.1394723,0.0977316,0.1533038,0.5136571,0.3237422,0.0021216\Polar=11
 5.816153,32.9312743,88.5145105,6.833143,2.9920905,66.3284066\PG=C01 [X
 (C4H4O1)]\NImag=0\\0.56280496,-0.00900551,0.41666248,0.00159323,-0.000
 24691,0.49646406,-0.07178652,-0.00862292,-0.00185495,0.72546278,-0.008
 67442,-0.14854470,-0.00236467,-0.00320234,0.48369881,-0.00042213,-0.00
 220334,-0.06634442,0.01030553,0.00776145,0.14279438,-0.01446620,0.0253
 0700,0.00071108,-0.39371194,0.15150897,-0.00194965,0.47787265,0.046245
 63,-0.02778598,-0.00051458,0.13619671,-0.14979667,0.00048875,-0.183392
 57,0.15893395,0.00102788,-0.00072865,0.01153875,-0.00060812,-0.0009254
 3,-0.04370160,0.00082810,0.00114260,0.01813144,-0.00043859,-0.02148900
 ,-0.00030105,-0.24837980,-0.09933774,0.00174108,-0.06191162,-0.0135105
 7,-0.00037450,0.89670193,-0.02796780,-0.03190713,0.00110709,-0.1133152
 8,-0.14495535,0.00098157,0.01556273,0.01555399,-0.00184684,0.43459084,
 0.36246972,-0.00165332,-0.00470799,0.00685338,-0.01456637,0.00464053,-
 0.03895952,0.01030101,-0.00691357,0.00876064,0.07205457,0.04013611,0.0
 5952974,-0.00146308,0.00861924,0.00296247,-0.00888941,-0.02790420,-0.0
 1080185,-0.01029832,0.00806246,-0.00195304,-0.57420568,-0.29946508,-0.
 07828929,0.78013751,0.00131756,0.00350096,-0.00449003,-0.00761513,-0.0
 0676451,-0.00883573,-0.00745632,0.00420245,0.00631442,-0.30467920,-0.1
 9416537,-0.04122048,0.41922355,0.27153971,0.00132422,0.00602381,0.0027
 1966,0.01051813,-0.01556221,-0.00173655,-0.01690659,0.01078835,0.00322
 526,-0.04674042,-0.02603362,-0.03141086,-0.06176261,-0.03798351,0.1247
 1020,-0.10361828,-0.04012994,0.09497431,-0.00308067,-0.00297150,-0.001
 54280,0.00204873,0.00057594,-0.00014218,0.00237009,-0.00007940,0.00035
 154,-0.00143827,-0.00027867,-0.00083210,0.10925452,-0.04201894,-0.0721
 9836,0.07406891,-0.01856620,-0.01934470,0.02402243,0.00030999,0.004621
 48,-0.00328820,0.00474217,-0.00208919,0.00204548,-0.00366371,0.0003580
 2,-0.00280906,0.04893139,0.08236817,0.09410711,0.06905193,-0.19516350,
 0.00214348,0.00081623,0.00458547,-0.00245226,0.00007384,0.00007220,-0.
 00252587,-0.00060149,-0.00129091,0.00168540,0.00050932,0.00142366,-0.1
 0547894,-0.07754745,0.21417571,-0.09541111,-0.03370694,-0.09226785,-0.
 00241350,-0.00269737,0.00164028,0.00153518,0.00057547,0.00001275,0.001
 49783,-0.00021209,0.00043652,-0.00040729,-0.00097736,-0.00059823,0.007
 37391,0.00544645,0.01324615,0.10030671,-0.03530343,-0.06672109,-0.0709
 9924,-0.01763926,-0.01804222,-0.02537801,0.00006059,0.00436768,0.00340
 736,0.00485554,-0.00074332,-0.00000903,-0.00215437,-0.00248406,-0.0007
 0618,0.00554597,0.00361984,0.00900695,0.04154761,0.07634039,-0.0915444
 6,-0.06588823,-0.20932938,-0.00192529,-0.00143007,0.00365974,0.0017138
 2,0.00018498,0.00014188,0.00206076,0.00027996,0.00024529,-0.00107562,-
 0.00097663,-0.00124370,-0.01164411,-0.00777838,-0.02431853,0.10227940,
 0.07423099,0.22971171,-0.27495262,0.07927107,-0.00352779,-0.00307402,-
 0.00315927,0.00013524,0.00165397,0.00317683,-0.00017988,-0.00106790,-0
 .00173320,-0.00059641,0.00162252,0.00003398,0.00106880,-0.01298987,0.0
 0440778,-0.00071209,-0.01231370,0.00406489,0.00029540,0.30105896,0.074
 99690,-0.07320939,0.00112376,0.03236546,-0.00070787,0.00077145,0.00134
 371,-0.01028861,-0.00036084,0.00025538,0.00112157,0.00075645,-0.001271
 40,-0.00033526,-0.00124885,-0.01124593,0.00339315,-0.00157876,-0.01032
 787,0.00298963,0.00118137,-0.08610625,0.07716751,-0.00374285,0.0012484
 4,-0.04706388,0.00066432,-0.00007392,-0.00243447,0.00006217,-0.0002797
 1,0.00229943,0.00006619,-0.00003920,-0.00030955,-0.00000281,0.00006400
 ,0.00007167,0.02390385,-0.00934960,0.00128385,-0.02493898,0.00963714,0
 .00062082,0.00399119,-0.00120416,0.04551698,-0.00066856,-0.00024300,-0
 .00228945,0.00587309,-0.00356213,0.00089429,-0.00272243,0.00207009,0.0
 0138898,-0.01456627,-0.00738073,0.01196176,-0.18505798,-0.09956840,0.1
 1392880,0.00007985,0.00041108,-0.00001299,-0.00016803,-0.00097753,-0.0
 0015990,0.00006267,-0.00001000,-0.00000309,0.19716766,0.00041000,0.000
 20322,0.00231566,0.00039896,0.00445722,0.00239143,-0.00324409,0.000191
 71,-0.00371441,-0.00542742,-0.00528490,0.00527250,-0.10144649,-0.07585
 194,0.06753128,-0.00034786,-0.00072841,0.00026943,0.00035209,0.0006731
 5,0.00019602,0.00004417,-0.00013072,-0.00000300,0.10926063,0.07647067,
 -0.00068966,-0.00254906,0.00032532,-0.00467673,0.00713810,0.00213697,0
 .00769232,-0.00497066,-0.00046801,-0.02598077,-0.01398359,-0.00341820,
 0.14923735,0.08661864,-0.09775935,0.00041043,0.00063587,-0.00076794,0.
 00018996,0.00081003,0.00051216,-0.00047447,0.00055958,0.00001515,-0.12
 570841,-0.07425892,0.09942390\\-0.00000293,-0.00003190,0.00001919,0.00
 004433,-0.00001281,0.00001133,-0.00002053,0.00002889,0.00000493,0.0000
 0277,0.00003107,-0.00003332,0.00000249,0.00000585,0.00000782,0.0000119
 9,0.00001598,-0.00000599,-0.00000645,0.00000760,-0.00001189,-0.0000054
 4,-0.00002215,0.00000021,-0.00002623,-0.00002253,0.00000772\\\@


 SOME PHYSICISTS WOULD PREFER TO COME BACK TO THE IDEA OF AN OBJECTIVE
 REAL WORLD WHOSE SMALLEST PARTS EXIST OBJECTIVELY IN THE SAME SENSE AS
 STONES OR TREES EXIST INDEPENDENTLY OF WHETHER WE OBSERVE THEM.
 THIS, HOWEVER, IS IMPOSSIBLE.  -- WERNER HEISENBERG
 Job cpu time:       0 days  1 hours  7 minutes 30.5 seconds.
 File lengths (MBytes):  RWF=     82 Int=      0 D2E=      0 Chk=      5 Scr=      1
 Normal termination of Gaussian 09 at Thu Mar  7 13:02:23 2019.
