 Entering Gaussian System, Link 0=/home/proyectos/fulerenos/M3C-v2.0/M3C-deps_CCC/g09-AM64L-G09RevC.01/g09
 Initial command:
 /home/proyectos/fulerenos/M3C-v2.0/M3C-deps_CCC/g09-AM64L-G09RevC.01/l1.exe "/scratch/naguirre/gaussian/Gau-20371.inp" -scrdir="/scratch/naguirre/gaussian/"
 Entering Link 1 = /home/proyectos/fulerenos/M3C-v2.0/M3C-deps_CCC/g09-AM64L-G09RevC.01/l1.exe PID=     20373.
  
 Copyright (c) 1988,1990,1992,1993,1995,1998,2003,2009,2015,
            Gaussian, Inc.  All Rights Reserved.
  
 This is part of the Gaussian(R) 09 program.  It is based on
 the Gaussian(R) 03 system (copyright 2003, Gaussian, Inc.),
 the Gaussian(R) 98 system (copyright 1998, Gaussian, Inc.),
 the Gaussian(R) 94 system (copyright 1995, Gaussian, Inc.),
 the Gaussian 92(TM) system (copyright 1992, Gaussian, Inc.),
 the Gaussian 90(TM) system (copyright 1990, Gaussian, Inc.),
 the Gaussian 88(TM) system (copyright 1988, Gaussian, Inc.),
 the Gaussian 86(TM) system (copyright 1986, Carnegie Mellon
 University), and the Gaussian 82(TM) system (copyright 1983,
 Carnegie Mellon University). Gaussian is a federally registered
 trademark of Gaussian, Inc.
  
 This software contains proprietary and confidential information,
 including trade secrets, belonging to Gaussian, Inc.
  
 This software is provided under written license and may be
 used, copied, transmitted, or stored only in accord with that
 written license.
  
 The following legend is applicable only to US Government
 contracts under FAR:
  
                    RESTRICTED RIGHTS LEGEND
  
 Use, reproduction and disclosure by the US Government is
 subject to restrictions as set forth in subparagraphs (a)
 and (c) of the Commercial Computer Software - Restricted
 Rights clause in FAR 52.227-19.
  
 Gaussian, Inc.
 340 Quinnipiac St., Bldg. 40, Wallingford CT 06492
  
  
 ---------------------------------------------------------------
 Warning -- This program may not be used in any manner that
 competes with the business of Gaussian, Inc. or will provide
 assistance to any competitor of Gaussian, Inc.  The licensee
 of this program is prohibited from giving any competitor of
 Gaussian, Inc. access to this program.  By using this program,
 the user acknowledges that Gaussian, Inc. is engaged in the
 business of creating and licensing software in the field of
 computational chemistry and represents and warrants to the
 licensee that it is not a competitor of Gaussian, Inc. and that
 it will not use this program in any manner prohibited above.
 ---------------------------------------------------------------
  

 Cite this work as:
 Gaussian 09, Revision E.01,
 M. J. Frisch, G. W. Trucks, H. B. Schlegel, G. E. Scuseria, 
 M. A. Robb, J. R. Cheeseman, G. Scalmani, V. Barone, B. Mennucci, 
 G. A. Petersson, H. Nakatsuji, M. Caricato, X. Li, H. P. Hratchian, 
 A. F. Izmaylov, J. Bloino, G. Zheng, J. L. Sonnenberg, M. Hada, 
 M. Ehara, K. Toyota, R. Fukuda, J. Hasegawa, M. Ishida, T. Nakajima, 
 Y. Honda, O. Kitao, H. Nakai, T. Vreven, J. A. Montgomery, Jr., 
 J. E. Peralta, F. Ogliaro, M. Bearpark, J. J. Heyd, E. Brothers, 
 K. N. Kudin, V. N. Staroverov, T. Keith, R. Kobayashi, J. Normand, 
 K. Raghavachari, A. Rendell, J. C. Burant, S. S. Iyengar, J. Tomasi, 
 M. Cossi, N. Rega, J. M. Millam, M. Klene, J. E. Knox, J. B. Cross, 
 V. Bakken, C. Adamo, J. Jaramillo, R. Gomperts, R. E. Stratmann, 
 O. Yazyev, A. J. Austin, R. Cammi, C. Pomelli, J. W. Ochterski, 
 R. L. Martin, K. Morokuma, V. G. Zakrzewski, G. A. Voth, 
 P. Salvador, J. J. Dannenberg, S. Dapprich, A. D. Daniels, 
 O. Farkas, J. B. Foresman, J. V. Ortiz, J. Cioslowski, 
 and D. J. Fox, Gaussian, Inc., Wallingford CT, 2013.
 
 ******************************************
 Gaussian 09:  EM64L-G09RevE.01 30-Nov-2015
                 7-Mar-2019 
 ******************************************
 %NProcShared=4
 Will use up to    4 processors via shared memory.
 ------------------------------------------------------
 #p b3lyp/6-311++G(3df,2p) freq IOp(2/17=3) IOp(2/18=3)
 ------------------------------------------------------
 1/10=4,30=1,38=1/1,3;
 2/12=2,17=3,18=3,40=1/2;
 3/5=4,6=6,7=1216,11=2,16=1,25=1,30=1,71=2,74=-5,140=1/1,2,3;
 4//1;
 5/5=2,38=5,98=1/2;
 8/6=4,10=90,11=11/1;
 11/6=1,8=1,9=11,15=111,16=1/1,2,10;
 10/6=1/2;
 6/7=2,8=2,9=2,10=2,18=1,28=1/1;
 7/8=1,10=1,25=1/1,2,3,16;
 1/10=4,30=1/3;
 99//99;
 Leave Link    1 at Thu Mar  7 15:49:40 2019, MaxMem=           0 cpu:         0.2
 (Enter /home/proyectos/fulerenos/M3C-v2.0/M3C-deps_CCC/g09-AM64L-G09RevC.01/l101.exe)
 ---------
 b3lyp opt
 ---------
 Symbolic Z-matrix:
 Charge = -1 Multiplicity = 2
 O                    -2.95143   1.0692    0.18561 
 C                     1.771    -0.04311  -0.04788 
 C                     0.36517  -0.02002  -0.49765 
 C                    -0.82574   0.03979  -0.13932 
 C                    -2.19991   0.05339   0.08671 
 H                     1.8655   -0.07696   1.05518 
 H                     2.31517   0.8417   -0.39159 
 H                     2.31014  -0.90807  -0.44465 
 H                    -2.64998  -0.95591   0.19358 
 
 NAtoms=      9 NQM=        9 NQMF=       0 NMMI=      0 NMMIF=      0
                NMic=       0 NMicF=      0.
                    Isotopes and Nuclear Properties:
 (Nuclear quadrupole moments (NQMom) in fm**2, nuclear magnetic moments (NMagM)
  in nuclear magnetons)

  Atom         1           2           3           4           5           6           7           8           9
 IAtWgt=          16          12          12          12          12           1           1           1           1
 AtmWgt=  15.9949146  12.0000000  12.0000000  12.0000000  12.0000000   1.0078250   1.0078250   1.0078250   1.0078250
 NucSpn=           0           0           0           0           0           1           1           1           1
 AtZEff=   0.0000000   0.0000000   0.0000000   0.0000000   0.0000000   0.0000000   0.0000000   0.0000000   0.0000000
 NQMom=    0.0000000   0.0000000   0.0000000   0.0000000   0.0000000   0.0000000   0.0000000   0.0000000   0.0000000
 NMagM=    0.0000000   0.0000000   0.0000000   0.0000000   0.0000000   2.7928460   2.7928460   2.7928460   2.7928460
 AtZNuc=   8.0000000   6.0000000   6.0000000   6.0000000   6.0000000   1.0000000   1.0000000   1.0000000   1.0000000
 Leave Link  101 at Thu Mar  7 15:49:41 2019, MaxMem=    33554432 cpu:         0.3
 (Enter /home/proyectos/fulerenos/M3C-v2.0/M3C-deps_CCC/g09-AM64L-G09RevC.01/l103.exe)

 GradGradGradGradGradGradGradGradGradGradGradGradGradGradGradGradGradGrad
 Berny optimization.
 Initialization pass.
 Trust Radius=3.00D-01 FncErr=1.00D-07 GrdErr=1.00D-07
 Number of steps in this run=      2 maximum allowed number of steps=      2.
 GradGradGradGradGradGradGradGradGradGradGradGradGradGradGradGradGradGrad

 Leave Link  103 at Thu Mar  7 15:49:41 2019, MaxMem=    33554432 cpu:         0.1
 (Enter /home/proyectos/fulerenos/M3C-v2.0/M3C-deps_CCC/g09-AM64L-G09RevC.01/l202.exe)
                          Input orientation:                          
 ---------------------------------------------------------------------
 Center     Atomic      Atomic             Coordinates (Angstroms)
 Number     Number       Type             X           Y           Z
 ---------------------------------------------------------------------
      1          8           0       -2.951434    1.069203    0.185614
      2          6           0        1.771000   -0.043114   -0.047883
      3          6           0        0.365166   -0.020019   -0.497653
      4          6           0       -0.825744    0.039790   -0.139315
      5          6           0       -2.199915    0.053386    0.086707
      6          1           0        1.865496   -0.076961    1.055179
      7          1           0        2.315173    0.841700   -0.391585
      8          1           0        2.310139   -0.908072   -0.444646
      9          1           0       -2.649980   -0.955914    0.193579
 ---------------------------------------------------------------------
                    Distance matrix (angstroms):
                    1          2          3          4          5
     1  O    0.000000
     2  C    4.857278   0.000000
     3  C    3.557119   1.476210   0.000000
     4  C    2.384078   2.599675   1.245090   0.000000
     5  C    1.267457   3.974367   2.631825   1.392701   0.000000
     6  H    5.027191   1.107619   2.159981   2.946730   4.181207
     7  H    5.303024   1.094144   2.134558   3.251470   4.608278
     8  H    5.656058   1.093729   2.138777   3.290202   4.641910
     9  H    2.047446   4.520683   3.231843   2.104776   1.110255
                    6          7          8          9
     6  H    0.000000
     7  H    1.771800   0.000000
     8  H    1.771420   1.750584   0.000000
     9  H    4.680218   5.312869   5.001240   0.000000
 Stoichiometry    C4H4O(1-,2)
 Framework group  C1[X(C4H4O)]
 Deg. of freedom    21
 Full point group                 C1      NOp   1
 Largest Abelian subgroup         C1      NOp   1
 Largest concise Abelian subgroup C1      NOp   1
                         Standard orientation:                         
 ---------------------------------------------------------------------
 Center     Atomic      Atomic             Coordinates (Angstroms)
 Number     Number       Type             X           Y           Z
 ---------------------------------------------------------------------
      1          8           0        2.371475   -0.495068    0.017495
      2          6           0       -2.472446   -0.157664    0.142963
      3          6           0       -1.113092    0.106532   -0.368461
      4          6           0        0.093149    0.201035   -0.074689
      5          6           0        1.463993    0.387116    0.085864
      6          1           0       -2.498773   -0.274282    1.244112
      7          1           0       -2.891206   -1.071721   -0.288651
      8          1           0       -3.166308    0.648154   -0.112884
      9          1           0        1.754868    1.436278    0.303390
 ---------------------------------------------------------------------
 Rotational constants (GHZ):     35.9858076      2.1497588      2.0913753
 Leave Link  202 at Thu Mar  7 15:49:41 2019, MaxMem=    33554432 cpu:         0.0
 (Enter /home/proyectos/fulerenos/M3C-v2.0/M3C-deps_CCC/g09-AM64L-G09RevC.01/l301.exe)
 Standard basis: 6-311++G(3df,2p) (5D, 7F)
 Ernie: Thresh=  0.10000D-02 Tol=  0.10000D-05 Strict=F.
 There are   265 symmetry adapted cartesian basis functions of A   symmetry.
 There are   235 symmetry adapted basis functions of A   symmetry.
   235 basis functions,   338 primitive gaussians,   265 cartesian basis functions
    19 alpha electrons       18 beta electrons
       nuclear repulsion energy       134.3011078768 Hartrees.
 IExCor=  402 DFT=T Ex+Corr=B3LYP ExCW=0 ScaHFX=  0.200000
 ScaDFX=  0.800000  0.720000  1.000000  0.810000 ScalE2=  1.000000  1.000000
 IRadAn=      0 IRanWt=     -1 IRanGd=            0 ICorTp=0 IEmpDi=  4
 NAtoms=    9 NActive=    9 NUniq=    9 SFac= 1.00D+00 NAtFMM=   60 NAOKFM=F Big=F
 Integral buffers will be    131072 words long.
 Raffenetti 2 integral format.
 Two-electron integral symmetry is turned on.
 Leave Link  301 at Thu Mar  7 15:49:41 2019, MaxMem=    33554432 cpu:         0.2
 (Enter /home/proyectos/fulerenos/M3C-v2.0/M3C-deps_CCC/g09-AM64L-G09RevC.01/l302.exe)
 NPDir=0 NMtPBC=     1 NCelOv=     1 NCel=       1 NClECP=     1 NCelD=      1
         NCelK=      1 NCelE2=     1 NClLst=     1 CellRange=     0.0.
 One-electron integrals computed using PRISM.
 NBasis=   235 RedAO= T EigKep=  1.38D-06  NBF=   235
 NBsUse=   235 1.00D-06 EigRej= -1.00D+00 NBFU=   235
 Precomputing XC quadrature grid using
 IXCGrd= 4 IRadAn=           0 IRanWt=          -1 IRanGd=           0 AccXCQ= 0.00D+00.
 Generated NRdTot=       0 NPtTot=           0 NUsed=           0 NTot=          32
 NSgBfM=   265   265   265   265   265 MxSgAt=     9 MxSgA2=     9.
 Leave Link  302 at Thu Mar  7 15:49:41 2019, MaxMem=    33554432 cpu:         1.3
 (Enter /home/proyectos/fulerenos/M3C-v2.0/M3C-deps_CCC/g09-AM64L-G09RevC.01/l303.exe)
 DipDrv:  MaxL=1.
 Leave Link  303 at Thu Mar  7 15:49:41 2019, MaxMem=    33554432 cpu:         0.1
 (Enter /home/proyectos/fulerenos/M3C-v2.0/M3C-deps_CCC/g09-AM64L-G09RevC.01/l401.exe)
 ExpMin= 3.60D-02 ExpMax= 8.59D+03 ExpMxC= 1.30D+03 IAcc=3 IRadAn=         5 AccDes= 0.00D+00
 Harris functional with IExCor=  402 and IRadAn=       5 diagonalized for initial guess.
 HarFok:  IExCor=  402 AccDes= 0.00D+00 IRadAn=         5 IDoV= 1 UseB2=F ITyADJ=14
 ICtDFT=  3500011 ScaDFX=  1.000000  1.000000  1.000000  1.000000
 FoFCou: FMM=F IPFlag=           0 FMFlag=      100000 FMFlg1=           0
         NFxFlg=           0 DoJE=T BraDBF=F KetDBF=T FulRan=T
         wScrn=  0.000000 ICntrl=     500 IOpCl=  0 I1Cent=   200000004 NGrid=           0
         NMat0=    1 NMatS0=      1 NMatT0=    0 NMatD0=    1 NMtDS0=    0 NMtDT0=    0
 Petite list used in FoFCou.
 Harris En= -230.292458119246    
 JPrj=0 DoOrth=F DoCkMO=F.
 Initial guess <Sx>= 0.0000 <Sy>= 0.0000 <Sz>= 0.5000 <S**2>= 0.7500 S= 0.5000
 Leave Link  401 at Thu Mar  7 15:49:44 2019, MaxMem=    33554432 cpu:        10.1
 (Enter /home/proyectos/fulerenos/M3C-v2.0/M3C-deps_CCC/g09-AM64L-G09RevC.01/l502.exe)
 UHF open shell SCF:
 Using DIIS extrapolation, IDIIS=  1040.
 Integral symmetry usage will be decided dynamically.
 IVT=      232727 IEndB=      232727 NGot=    33554432 MDV=    33408836
 LenX=    33408836 LenY=    33338170
 Requested convergence on RMS density matrix=1.00D-08 within 128 cycles.
 Requested convergence on MAX density matrix=1.00D-06.
 Requested convergence on             energy=1.00D-06.
 No special actions if energy rises.
 Fock matrices will be formed incrementally for  20 cycles.

 Cycle   1  Pass 1  IDiag  1:
 FoFJK:  IHMeth= 1 ICntrl=       0 DoSepK=F KAlg= 0 I1Cent=   0 FoldK=F
 IRaf= 950000000 NMat=   1 IRICut=       1 DoRegI=T DoRafI=F ISym2E= 0.
 FoFCou: FMM=F IPFlag=           0 FMFlag=      100000 FMFlg1=           0
         NFxFlg=           0 DoJE=F BraDBF=F KetDBF=F FulRan=T
         wScrn=  0.000000 ICntrl=       0 IOpCl=  1 I1Cent=           0 NGrid=           0
         NMat0=    1 NMatS0=      1 NMatT0=    0 NMatD0=    1 NMtDS0=    0 NMtDT0=    0
 Symmetry not used in FoFCou.
 E= -229.811777076463    
 DIIS: error= 2.90D-02 at cycle   1 NSaved=   1.
 NSaved= 1 IEnMin= 1 EnMin= -229.811777076463     IErMin= 1 ErrMin= 2.90D-02
 ErrMax= 2.90D-02  0.00D+00 EMaxC= 1.00D-01 BMatC= 1.06D+00 BMatP= 1.06D+00
 IDIUse=3 WtCom= 7.10D-01 WtEn= 2.90D-01
 Coeff-Com:  0.100D+01
 Coeff-En:   0.100D+01
 Coeff:      0.100D+01
 Gap=     0.158 Goal=   None    Shift=    0.000
 Gap=     0.124 Goal=   None    Shift=    0.000
 GapD=    0.124 DampG=1.000 DampE=0.500 DampFc=0.5000 IDamp=-1.
 Damping current iteration by 5.00D-01
 RMSDP=1.28D+00 MaxDP=1.87D+02              OVMax= 9.94D-01

 Cycle   2  Pass 1  IDiag  1:
 RMSU=  6.23D-01    CP:  3.00D+00
 E= -229.258514050232     Delta-E=        0.553263026231 Rises=F Damp=T
 DIIS: error= 3.75D-02 at cycle   2 NSaved=   2.
 NSaved= 2 IEnMin= 1 EnMin= -229.811777076463     IErMin= 1 ErrMin= 2.90D-02
 ErrMax= 3.75D-02  0.00D+00 EMaxC= 1.00D-01 BMatC= 9.22D-01 BMatP= 1.06D+00
 IDIUse=3 WtCom= 6.25D-01 WtEn= 3.75D-01
 Coeff-Com:  0.477D+00 0.523D+00
 Coeff-En:   0.788D+00 0.212D+00
 Coeff:      0.594D+00 0.406D+00
 Gap=    -0.001 Goal=   None    Shift=    0.000
 Gap=     0.085 Goal=   None    Shift=    0.000
 RMSDP=6.41D-01 MaxDP=9.41D+01 DE= 5.53D-01 OVMax= 8.88D-01

 Cycle   3  Pass 1  IDiag  1:
 RMSU=  7.15D-03    CP:  7.15D-01  1.20D-04
 E= -229.862630510906     Delta-E=       -0.604116460674 Rises=F Damp=F
 DIIS: error= 2.61D-02 at cycle   3 NSaved=   3.
 NSaved= 3 IEnMin= 3 EnMin= -229.862630510906     IErMin= 3 ErrMin= 2.61D-02
 ErrMax= 2.61D-02  0.00D+00 EMaxC= 1.00D-01 BMatC= 7.03D-01 BMatP= 9.22D-01
 IDIUse=3 WtCom= 7.39D-01 WtEn= 2.61D-01
 EnCoef did     3 forward-backward iterations
 Coeff-Com:  0.247D+00 0.399D+00 0.354D+00
 Coeff-En:   0.318D+00 0.149D+00 0.533D+00
 Coeff:      0.265D+00 0.334D+00 0.401D+00
 Gap=     0.120 Goal=   None    Shift=    0.000
 Gap=     0.203 Goal=   None    Shift=    0.000
 RMSDP=3.94D-03 MaxDP=1.76D-01 DE=-6.04D-01 OVMax= 2.58D-01

 Cycle   4  Pass 1  IDiag  1:
 RMSU=  3.89D-03    CP:  6.96D-01  4.04D-04  1.04D+00
 E= -230.049177218692     Delta-E=       -0.186546707787 Rises=F Damp=F
 DIIS: error= 7.09D-03 at cycle   4 NSaved=   4.
 NSaved= 4 IEnMin= 4 EnMin= -230.049177218692     IErMin= 4 ErrMin= 7.09D-03
 ErrMax= 7.09D-03  0.00D+00 EMaxC= 1.00D-01 BMatC= 7.45D-02 BMatP= 7.03D-01
 IDIUse=3 WtCom= 9.29D-01 WtEn= 7.09D-02
 Coeff-Com:  0.329D-01 0.214D+00 0.181D+00 0.572D+00
 Coeff-En:   0.000D+00 0.000D+00 0.000D+00 0.100D+01
 Coeff:      0.305D-01 0.199D+00 0.168D+00 0.603D+00
 Gap=     0.078 Goal=   None    Shift=    0.000
 Gap=     0.183 Goal=   None    Shift=    0.000
 RMSDP=3.61D-03 MaxDP=2.77D-01 DE=-1.87D-01 OVMax= 6.79D-02

 Cycle   5  Pass 1  IDiag  1:
 RMSU=  2.85D-03    CP:  6.50D-01  2.46D-03  1.22D+00  1.02D+00
 E= -230.050166382493     Delta-E=       -0.000989163801 Rises=F Damp=F
 DIIS: error= 9.05D-03 at cycle   5 NSaved=   5.
 NSaved= 5 IEnMin= 5 EnMin= -230.050166382493     IErMin= 4 ErrMin= 7.09D-03
 ErrMax= 9.05D-03  0.00D+00 EMaxC= 1.00D-01 BMatC= 6.55D-02 BMatP= 7.45D-02
 IDIUse=3 WtCom= 9.09D-01 WtEn= 9.05D-02
 Coeff-Com: -0.707D-01 0.102D+00-0.301D-01 0.440D+00 0.559D+00
 Coeff-En:   0.000D+00 0.000D+00 0.000D+00 0.482D+00 0.518D+00
 Coeff:     -0.643D-01 0.925D-01-0.273D-01 0.444D+00 0.555D+00
 Gap=     0.056 Goal=   None    Shift=    0.000
 Gap=     0.152 Goal=   None    Shift=    0.000
 RMSDP=6.55D-03 MaxDP=1.10D+00 DE=-9.89D-04 OVMax= 9.74D-02

 Cycle   6  Pass 1  IDiag  1:
 RMSU=  5.95D-03    CP:  6.52D-01  5.62D-03  1.39D+00  1.26D+00  1.40D+00
 E= -230.070114214089     Delta-E=       -0.019947831596 Rises=F Damp=F
 DIIS: error= 2.27D-03 at cycle   6 NSaved=   6.
 NSaved= 6 IEnMin= 6 EnMin= -230.070114214089     IErMin= 6 ErrMin= 2.27D-03
 ErrMax= 2.27D-03  0.00D+00 EMaxC= 1.00D-01 BMatC= 5.44D-03 BMatP= 6.55D-02
 IDIUse=3 WtCom= 9.77D-01 WtEn= 2.27D-02
 Coeff-Com: -0.360D-01 0.297D-01-0.690D-01 0.446D-01 0.283D+00 0.748D+00
 Coeff-En:   0.000D+00 0.000D+00 0.000D+00 0.000D+00 0.000D+00 0.100D+01
 Coeff:     -0.351D-01 0.290D-01-0.675D-01 0.436D-01 0.276D+00 0.754D+00
 Gap=     0.056 Goal=   None    Shift=    0.000
 Gap=     0.144 Goal=   None    Shift=    0.000
 RMSDP=4.38D-03 MaxDP=8.41D-01 DE=-1.99D-02 OVMax= 4.00D-02

 Cycle   7  Pass 1  IDiag  1:
 RMSU=  1.47D-03    CP:  6.86D-01  8.00D-03  1.42D+00  1.17D+00  1.64D+00
                    CP:  1.61D+00
 E= -230.071530428753     Delta-E=       -0.001416214664 Rises=F Damp=F
 DIIS: error= 1.01D-03 at cycle   7 NSaved=   7.
 NSaved= 7 IEnMin= 7 EnMin= -230.071530428753     IErMin= 7 ErrMin= 1.01D-03
 ErrMax= 1.01D-03  0.00D+00 EMaxC= 1.00D-01 BMatC= 9.50D-04 BMatP= 5.44D-03
 IDIUse=3 WtCom= 9.90D-01 WtEn= 1.01D-02
 Coeff-Com: -0.647D-02 0.796D-02-0.325D-01-0.440D-01 0.493D-01 0.408D+00
 Coeff-Com:  0.618D+00
 Coeff-En:   0.000D+00 0.000D+00 0.000D+00 0.000D+00 0.000D+00 0.000D+00
 Coeff-En:   0.100D+01
 Coeff:     -0.641D-02 0.787D-02-0.321D-01-0.435D-01 0.488D-01 0.404D+00
 Coeff:      0.621D+00
 Gap=     0.055 Goal=   None    Shift=    0.000
 Gap=     0.143 Goal=   None    Shift=    0.000
 RMSDP=3.71D-03 MaxDP=7.28D-01 DE=-1.42D-03 OVMax= 2.45D-02

 Cycle   8  Pass 1  IDiag  1:
 RMSU=  4.75D-04    CP:  7.07D-01  9.91D-03  1.45D+00  1.03D+00  1.75D+00
                    CP:  2.12D+00  2.01D+00
 E= -230.071876553079     Delta-E=       -0.000346124327 Rises=F Damp=F
 DIIS: error= 3.04D-04 at cycle   8 NSaved=   8.
 NSaved= 8 IEnMin= 8 EnMin= -230.071876553079     IErMin= 8 ErrMin= 3.04D-04
 ErrMax= 3.04D-04  0.00D+00 EMaxC= 1.00D-01 BMatC= 6.85D-05 BMatP= 9.50D-04
 IDIUse=3 WtCom= 9.97D-01 WtEn= 3.04D-03
 Coeff-Com:  0.395D-02 0.949D-03 0.405D-02-0.611D-02-0.345D-01-0.212D-01
 Coeff-Com:  0.164D+00 0.889D+00
 Coeff-En:   0.000D+00 0.000D+00 0.000D+00 0.000D+00 0.000D+00 0.000D+00
 Coeff-En:   0.000D+00 0.100D+01
 Coeff:      0.393D-02 0.946D-03 0.403D-02-0.609D-02-0.344D-01-0.211D-01
 Coeff:      0.164D+00 0.889D+00
 Gap=     0.055 Goal=   None    Shift=    0.000
 Gap=     0.144 Goal=   None    Shift=    0.000
 RMSDP=2.95D-03 MaxDP=6.06D-01 DE=-3.46D-04 OVMax= 1.82D-02

 Cycle   9  Pass 1  IDiag  1:
 RMSU=  2.26D-04    CP:  7.23D-01  1.15D-02  1.46D+00  9.20D-01  1.83D+00
                    CP:  2.50D+00  2.94D+00  1.83D+00
 E= -230.071936921487     Delta-E=       -0.000060368407 Rises=F Damp=F
 DIIS: error= 1.29D-04 at cycle   9 NSaved=   9.
 NSaved= 9 IEnMin= 9 EnMin= -230.071936921487     IErMin= 9 ErrMin= 1.29D-04
 ErrMax= 1.29D-04  0.00D+00 EMaxC= 1.00D-01 BMatC= 1.34D-05 BMatP= 6.85D-05
 IDIUse=3 WtCom= 9.99D-01 WtEn= 1.29D-03
 Coeff-Com:  0.637D-03-0.355D-03 0.542D-02 0.133D-01 0.222D-02-0.472D-01
 Coeff-Com: -0.108D+00-0.192D-01 0.115D+01
 Coeff-En:   0.000D+00 0.000D+00 0.000D+00 0.000D+00 0.000D+00 0.000D+00
 Coeff-En:   0.000D+00 0.000D+00 0.100D+01
 Coeff:      0.636D-03-0.354D-03 0.541D-02 0.132D-01 0.222D-02-0.471D-01
 Coeff:     -0.108D+00-0.192D-01 0.115D+01
 Gap=     0.055 Goal=   None    Shift=    0.000
 Gap=     0.145 Goal=   None    Shift=    0.000
 RMSDP=1.58D-03 MaxDP=3.52D-01 DE=-6.04D-05 OVMax= 9.36D-03

 Cycle  10  Pass 1  IDiag  1:
 RMSU=  7.08D-04    CP:  7.28D-01  1.26D-02  1.47D+00  8.74D-01  1.90D+00
                    CP:  2.68D+00  3.00D+00  2.31D+00  2.58D+00
 E= -230.071949018053     Delta-E=       -0.000012096567 Rises=F Damp=F
 DIIS: error= 5.83D-05 at cycle  10 NSaved=  10.
 NSaved=10 IEnMin=10 EnMin= -230.071949018053     IErMin=10 ErrMin= 5.83D-05
 ErrMax= 5.83D-05  0.00D+00 EMaxC= 1.00D-01 BMatC= 5.61D-06 BMatP= 1.34D-05
 IDIUse=1 WtCom= 1.00D+00 WtEn= 0.00D+00
 Coeff-Com:  0.366D-04-0.356D-03 0.149D-02 0.513D-02 0.846D-02-0.442D-02
 Coeff-Com: -0.523D-01-0.131D+00 0.309D+00 0.863D+00
 Coeff:      0.366D-04-0.356D-03 0.149D-02 0.513D-02 0.846D-02-0.442D-02
 Coeff:     -0.523D-01-0.131D+00 0.309D+00 0.863D+00
 Gap=     0.055 Goal=   None    Shift=    0.000
 Gap=     0.145 Goal=   None    Shift=    0.000
 RMSDP=4.76D-04 MaxDP=1.10D-01 DE=-1.21D-05 OVMax= 2.78D-03

 Cycle  11  Pass 1  IDiag  1:
 RMSU=  8.07D-05    CP:  7.29D-01  1.29D-02  1.47D+00  8.68D-01  1.93D+00
                    CP:  2.73D+00  3.00D+00  2.46D+00  3.00D+00  1.33D+00
 E= -230.071950781066     Delta-E=       -0.000001763013 Rises=F Damp=F
 DIIS: error= 3.16D-05 at cycle  11 NSaved=  11.
 NSaved=11 IEnMin=11 EnMin= -230.071950781066     IErMin=11 ErrMin= 3.16D-05
 ErrMax= 3.16D-05  0.00D+00 EMaxC= 1.00D-01 BMatC= 1.29D-06 BMatP= 5.61D-06
 IDIUse=1 WtCom= 1.00D+00 WtEn= 0.00D+00
 Coeff-Com:  0.354D-04-0.527D-04-0.142D-03 0.336D-03 0.533D-02 0.788D-02
 Coeff-Com: -0.728D-02-0.669D-01-0.899D-01 0.411D+00 0.740D+00
 Coeff:      0.354D-04-0.527D-04-0.142D-03 0.336D-03 0.533D-02 0.788D-02
 Coeff:     -0.728D-02-0.669D-01-0.899D-01 0.411D+00 0.740D+00
 Gap=     0.055 Goal=   None    Shift=    0.000
 Gap=     0.146 Goal=   None    Shift=    0.000
 RMSDP=9.13D-05 MaxDP=1.09D-02 DE=-1.76D-06 OVMax= 3.77D-04

 Cycle  12  Pass 1  IDiag  1:
 RMSU=  2.30D-05    CP:  7.28D-01  1.30D-02  1.48D+00  8.71D-01  1.94D+00
                    CP:  2.73D+00  3.00D+00  2.48D+00  3.00D+00  1.36D+00
                    CP:  1.86D+00
 E= -230.071951223924     Delta-E=       -0.000000442858 Rises=F Damp=F
 DIIS: error= 1.01D-05 at cycle  12 NSaved=  12.
 NSaved=12 IEnMin=12 EnMin= -230.071951223924     IErMin=12 ErrMin= 1.01D-05
 ErrMax= 1.01D-05  0.00D+00 EMaxC= 1.00D-01 BMatC= 9.70D-08 BMatP= 1.29D-06
 IDIUse=1 WtCom= 1.00D+00 WtEn= 0.00D+00
 Coeff-Com:  0.447D-04 0.302D-05-0.176D-03-0.420D-03 0.105D-02 0.317D-02
 Coeff-Com:  0.245D-02-0.710D-02-0.623D-01 0.545D-01 0.350D+00 0.659D+00
 Coeff:      0.447D-04 0.302D-05-0.176D-03-0.420D-03 0.105D-02 0.317D-02
 Coeff:      0.245D-02-0.710D-02-0.623D-01 0.545D-01 0.350D+00 0.659D+00
 Gap=     0.055 Goal=   None    Shift=    0.000
 Gap=     0.146 Goal=   None    Shift=    0.000
 RMSDP=3.58D-05 MaxDP=3.70D-03 DE=-4.43D-07 OVMax= 8.51D-05

 Cycle  13  Pass 1  IDiag  1:
 RMSU=  8.60D-06    CP:  7.28D-01  1.30D-02  1.48D+00  8.74D-01  1.94D+00
                    CP:  2.72D+00  3.00D+00  2.47D+00  3.00D+00  1.35D+00
                    CP:  2.06D+00  1.16D+00
 E= -230.071951257438     Delta-E=       -0.000000033514 Rises=F Damp=F
 DIIS: error= 4.44D-06 at cycle  13 NSaved=  13.
 NSaved=13 IEnMin=13 EnMin= -230.071951257438     IErMin=13 ErrMin= 4.44D-06
 ErrMax= 4.44D-06  0.00D+00 EMaxC= 1.00D-01 BMatC= 1.44D-08 BMatP= 9.70D-08
 IDIUse=1 WtCom= 1.00D+00 WtEn= 0.00D+00
 Coeff-Com: -0.197D-04 0.274D-04 0.206D-05-0.799D-04-0.529D-03-0.130D-02
 Coeff-Com:  0.430D-03 0.677D-02 0.952D-02-0.512D-01-0.245D-01 0.158D-01
 Coeff-Com:  0.105D+01
 Coeff:     -0.197D-04 0.274D-04 0.206D-05-0.799D-04-0.529D-03-0.130D-02
 Coeff:      0.430D-03 0.677D-02 0.952D-02-0.512D-01-0.245D-01 0.158D-01
 Coeff:      0.105D+01
 Gap=     0.055 Goal=   None    Shift=    0.000
 Gap=     0.146 Goal=   None    Shift=    0.000
 RMSDP=2.99D-05 MaxDP=6.79D-03 DE=-3.35D-08 OVMax= 1.61D-04

 Cycle  14  Pass 1  IDiag  1:
 RMSU=  4.07D-06    CP:  7.27D-01  1.30D-02  1.48D+00  8.75D-01  1.94D+00
                    CP:  2.72D+00  3.00D+00  2.46D+00  3.00D+00  1.33D+00
                    CP:  2.01D+00  1.19D+00  1.42D+00
 E= -230.071951267554     Delta-E=       -0.000000010117 Rises=F Damp=F
 DIIS: error= 3.19D-06 at cycle  14 NSaved=  14.
 NSaved=14 IEnMin=14 EnMin= -230.071951267554     IErMin=14 ErrMin= 3.19D-06
 ErrMax= 3.19D-06  0.00D+00 EMaxC= 1.00D-01 BMatC= 4.97D-09 BMatP= 1.44D-08
 IDIUse=1 WtCom= 1.00D+00 WtEn= 0.00D+00
 Coeff-Com: -0.205D-04 0.890D-05 0.298D-04 0.224D-04-0.152D-03-0.681D-03
 Coeff-Com: -0.301D-03-0.314D-03 0.951D-02-0.425D-02-0.324D-01-0.181D+00
 Coeff-Com: -0.145D+00 0.135D+01
 Coeff:     -0.205D-04 0.890D-05 0.298D-04 0.224D-04-0.152D-03-0.681D-03
 Coeff:     -0.301D-03-0.314D-03 0.951D-02-0.425D-02-0.324D-01-0.181D+00
 Coeff:     -0.145D+00 0.135D+01
 Gap=     0.055 Goal=   None    Shift=    0.000
 Gap=     0.146 Goal=   None    Shift=    0.000
 RMSDP=1.33D-05 MaxDP=3.14D-03 DE=-1.01D-08 OVMax= 7.37D-05

 Cycle  15  Pass 1  IDiag  1:
 RMSU=  8.28D-07    CP:  7.27D-01  1.30D-02  1.48D+00  8.75D-01  1.94D+00
                    CP:  2.72D+00  3.00D+00  2.45D+00  3.00D+00  1.32D+00
                    CP:  1.96D+00  1.16D+00  1.64D+00  1.48D+00
 E= -230.071951271295     Delta-E=       -0.000000003740 Rises=F Damp=F
 DIIS: error= 6.00D-07 at cycle  15 NSaved=  15.
 NSaved=15 IEnMin=15 EnMin= -230.071951271295     IErMin=15 ErrMin= 6.00D-07
 ErrMax= 6.00D-07  0.00D+00 EMaxC= 1.00D-01 BMatC= 1.81D-10 BMatP= 4.97D-09
 IDIUse=1 WtCom= 1.00D+00 WtEn= 0.00D+00
 Coeff-Com:  0.216D-05 0.510D-06-0.103D-05 0.154D-05 0.479D-04 0.132D-03
 Coeff-Com:  0.626D-04-0.793D-03-0.194D-02 0.529D-02 0.536D-02-0.160D-01
 Coeff-Com: -0.155D+00 0.839D-01 0.108D+01
 Coeff:      0.216D-05 0.510D-06-0.103D-05 0.154D-05 0.479D-04 0.132D-03
 Coeff:      0.626D-04-0.793D-03-0.194D-02 0.529D-02 0.536D-02-0.160D-01
 Coeff:     -0.155D+00 0.839D-01 0.108D+01
 Gap=     0.055 Goal=   None    Shift=    0.000
 Gap=     0.146 Goal=   None    Shift=    0.000
 RMSDP=2.67D-06 MaxDP=3.68D-04 DE=-3.74D-09 OVMax= 1.95D-05

 Cycle  16  Pass 1  IDiag  1:
 RMSU=  3.60D-07    CP:  7.27D-01  1.30D-02  1.48D+00  8.75D-01  1.94D+00
                    CP:  2.72D+00  3.00D+00  2.45D+00  3.00D+00  1.32D+00
                    CP:  1.94D+00  1.15D+00  1.60D+00  1.52D+00  1.43D+00
 E= -230.071951271550     Delta-E=       -0.000000000256 Rises=F Damp=F
 DIIS: error= 1.87D-07 at cycle  16 NSaved=  16.
 NSaved=16 IEnMin=16 EnMin= -230.071951271550     IErMin=16 ErrMin= 1.87D-07
 ErrMax= 1.87D-07  0.00D+00 EMaxC= 1.00D-01 BMatC= 2.49D-11 BMatP= 1.81D-10
 IDIUse=1 WtCom= 1.00D+00 WtEn= 0.00D+00
 Coeff-Com:  0.248D-05-0.524D-06-0.351D-05 0.489D-05 0.194D-04 0.751D-04
 Coeff-Com:  0.273D-04 0.120D-03-0.105D-02 0.170D-03 0.239D-02 0.249D-01
 Coeff-Com:  0.216D-01-0.158D+00-0.538D-01 0.116D+01
 Coeff:      0.248D-05-0.524D-06-0.351D-05 0.489D-05 0.194D-04 0.751D-04
 Coeff:      0.273D-04 0.120D-03-0.105D-02 0.170D-03 0.239D-02 0.249D-01
 Coeff:      0.216D-01-0.158D+00-0.538D-01 0.116D+01
 Gap=     0.055 Goal=   None    Shift=    0.000
 Gap=     0.146 Goal=   None    Shift=    0.000
 RMSDP=2.27D-06 MaxDP=3.96D-04 DE=-2.56D-10 OVMax= 7.09D-06

 Cycle  17  Pass 1  IDiag  1:
 RMSU=  1.69D-07    CP:  7.27D-01  1.30D-02  1.48D+00  8.75D-01  1.94D+00
                    CP:  2.72D+00  3.00D+00  2.46D+00  3.00D+00  1.32D+00
                    CP:  1.93D+00  1.14D+00  1.56D+00  1.46D+00  1.54D+00
                    CP:  1.49D+00
 E= -230.071951271583     Delta-E=       -0.000000000033 Rises=F Damp=F
 DIIS: error= 8.53D-08 at cycle  17 NSaved=  17.
 NSaved=17 IEnMin=17 EnMin= -230.071951271583     IErMin=17 ErrMin= 8.53D-08
 ErrMax= 8.53D-08  0.00D+00 EMaxC= 1.00D-01 BMatC= 6.61D-12 BMatP= 2.49D-11
 IDIUse=1 WtCom= 1.00D+00 WtEn= 0.00D+00
 Coeff-Com: -0.241D-06-0.289D-06 0.379D-07 0.213D-05-0.168D-05-0.116D-04
 Coeff-Com: -0.882D-05 0.897D-04 0.237D-03-0.479D-03-0.172D-02 0.313D-02
 Coeff-Com:  0.152D-01-0.379D-02-0.128D+00 0.143D-01 0.110D+01
 Coeff:     -0.241D-06-0.289D-06 0.379D-07 0.213D-05-0.168D-05-0.116D-04
 Coeff:     -0.882D-05 0.897D-04 0.237D-03-0.479D-03-0.172D-02 0.313D-02
 Coeff:      0.152D-01-0.379D-02-0.128D+00 0.143D-01 0.110D+01
 Gap=     0.055 Goal=   None    Shift=    0.000
 Gap=     0.146 Goal=   None    Shift=    0.000
 RMSDP=9.91D-07 MaxDP=2.19D-04 DE=-3.29D-11 OVMax= 4.16D-06

 Cycle  18  Pass 1  IDiag  1:
 RMSU=  2.72D-08    CP:  7.27D-01  1.30D-02  1.48D+00  8.75D-01  1.94D+00
                    CP:  2.72D+00  3.00D+00  2.46D+00  3.00D+00  1.32D+00
                    CP:  1.93D+00  1.13D+00  1.54D+00  1.43D+00  1.53D+00
                    CP:  1.67D+00  1.36D+00
 E= -230.071951271585     Delta-E=       -0.000000000001 Rises=F Damp=F
 DIIS: error= 4.86D-08 at cycle  18 NSaved=  18.
 NSaved=18 IEnMin=18 EnMin= -230.071951271585     IErMin=18 ErrMin= 4.86D-08
 ErrMax= 4.86D-08  0.00D+00 EMaxC= 1.00D-01 BMatC= 1.27D-12 BMatP= 6.61D-12
 IDIUse=1 WtCom= 1.00D+00 WtEn= 0.00D+00
 Coeff-Com: -0.172D-06-0.234D-07 0.274D-06-0.653D-06-0.153D-05-0.585D-05
 Coeff-Com: -0.125D-05 0.122D-05 0.911D-04-0.512D-05-0.778D-03-0.192D-02
 Coeff-Com: -0.256D-02 0.197D-01 0.234D-02-0.137D+00 0.506D-02 0.111D+01
 Coeff:     -0.172D-06-0.234D-07 0.274D-06-0.653D-06-0.153D-05-0.585D-05
 Coeff:     -0.125D-05 0.122D-05 0.911D-04-0.512D-05-0.778D-03-0.192D-02
 Coeff:     -0.256D-02 0.197D-01 0.234D-02-0.137D+00 0.506D-02 0.111D+01
 Gap=     0.055 Goal=   None    Shift=    0.000
 Gap=     0.146 Goal=   None    Shift=    0.000
 RMSDP=2.32D-07 MaxDP=5.38D-05 DE=-1.31D-12 OVMax= 1.24D-06

 Cycle  19  Pass 1  IDiag  1:
 RMSU=  1.12D-08    CP:  7.27D-01  1.30D-02  1.48D+00  8.75D-01  1.94D+00
                    CP:  2.72D+00  3.00D+00  2.46D+00  3.00D+00  1.32D+00
                    CP:  1.93D+00  1.14D+00  1.54D+00  1.43D+00  1.51D+00
                    CP:  1.66D+00  1.40D+00  1.36D+00
 E= -230.071951271590     Delta-E=       -0.000000000006 Rises=F Damp=F
 DIIS: error= 7.20D-09 at cycle  19 NSaved=  19.
 NSaved=19 IEnMin=19 EnMin= -230.071951271590     IErMin=19 ErrMin= 7.20D-09
 ErrMax= 7.20D-09  0.00D+00 EMaxC= 1.00D-01 BMatC= 4.12D-14 BMatP= 1.27D-12
 IDIUse=1 WtCom= 1.00D+00 WtEn= 0.00D+00
 Coeff-Com:  0.543D-07-0.194D-08 0.887D-09-0.280D-06-0.541D-07 0.283D-05
 Coeff-Com:  0.598D-06-0.796D-05-0.290D-04 0.819D-04 0.114D-03-0.291D-03
 Coeff-Com: -0.221D-02 0.105D-02 0.154D-01-0.692D-02-0.130D+00 0.892D-01
 Coeff-Com:  0.103D+01
 Coeff:      0.543D-07-0.194D-08 0.887D-09-0.280D-06-0.541D-07 0.283D-05
 Coeff:      0.598D-06-0.796D-05-0.290D-04 0.819D-04 0.114D-03-0.291D-03
 Coeff:     -0.221D-02 0.105D-02 0.154D-01-0.692D-02-0.130D+00 0.892D-01
 Coeff:      0.103D+01
 Gap=     0.055 Goal=   None    Shift=    0.000
 Gap=     0.146 Goal=   None    Shift=    0.000
 RMSDP=2.59D-08 MaxDP=3.54D-06 DE=-5.68D-12 OVMax= 2.02D-07

 Cycle  20  Pass 1  IDiag  1:
 RMSU=  2.62D-09    CP:  7.27D-01  1.30D-02  1.48D+00  8.75D-01  1.94D+00
                    CP:  2.72D+00  3.00D+00  2.46D+00  3.00D+00  1.32D+00
                    CP:  1.93D+00  1.14D+00  1.54D+00  1.43D+00  1.51D+00
                    CP:  1.64D+00  1.35D+00  1.47D+00  1.48D+00
 E= -230.071951271583     Delta-E=        0.000000000008 Rises=F Damp=F
 DIIS: error= 1.52D-09 at cycle  20 NSaved=  20.
 NSaved=20 IEnMin=19 EnMin= -230.071951271590     IErMin=20 ErrMin= 1.52D-09
 ErrMax= 1.52D-09  0.00D+00 EMaxC= 1.00D-01 BMatC= 2.66D-15 BMatP= 4.12D-14
 IDIUse=1 WtCom= 1.00D+00 WtEn= 0.00D+00
 Large coefficients: NSaved= 20 BigCof=    0.00 CofMax=   10.00 Det=-1.20D-14
 Inversion failed.  Reducing to 19 matrices.
 Coeff-Com:  0.192D-07-0.665D-08-0.186D-07 0.207D-07 0.976D-06 0.214D-06
 Coeff-Com: -0.123D-05-0.876D-05 0.117D-04 0.654D-04 0.932D-04-0.132D-03
 Coeff-Com: -0.124D-02 0.196D-02 0.855D-02-0.163D-01-0.675D-01 0.148D+00
 Coeff-Com:  0.926D+00
 Coeff:      0.192D-07-0.665D-08-0.186D-07 0.207D-07 0.976D-06 0.214D-06
 Coeff:     -0.123D-05-0.876D-05 0.117D-04 0.654D-04 0.932D-04-0.132D-03
 Coeff:     -0.124D-02 0.196D-02 0.855D-02-0.163D-01-0.675D-01 0.148D+00
 Coeff:      0.926D+00
 Gap=     0.055 Goal=   None    Shift=    0.000
 Gap=     0.146 Goal=   None    Shift=    0.000
 RMSDP=2.07D-08 MaxDP=4.39D-06 DE= 7.62D-12 OVMax= 5.62D-08

 Cycle  21  Pass 1  IDiag  1:
 Restarting incremental Fock formation.
 E= -230.071951271597     Delta-E=       -0.000000000015 Rises=F Damp=F
 DIIS: error= 6.58D-10 at cycle  21 NSaved=  20.
 NSaved=20 IEnMin=20 EnMin= -230.071951271597     IErMin=20 ErrMin= 6.58D-10
 ErrMax= 6.58D-10  0.00D+00 EMaxC= 1.00D-01 BMatC= 4.18D-16 BMatP= 2.66D-15
 IDIUse=1 WtCom= 1.00D+00 WtEn= 0.00D+00
 Large coefficients: NSaved= 20 BigCof=    0.00 CofMax=   10.00 Det=-1.92D-15
 Inversion failed.  Reducing to 19 matrices.
 Large coefficients: NSaved= 19 BigCof=    0.00 CofMax=   10.00 Det=-1.97D-15
 Inversion failed.  Reducing to 18 matrices.
 Large coefficients: NSaved= 18 BigCof=    0.00 CofMax=   10.00 Det=-1.98D-15
 Inversion failed.  Reducing to 17 matrices.
 Large coefficients: NSaved= 17 BigCof=    0.00 CofMax=   10.00 Det=-2.00D-15
 Inversion failed.  Reducing to 16 matrices.
 Large coefficients: NSaved= 16 BigCof=    0.00 CofMax=   10.00 Det=-2.01D-15
 Inversion failed.  Reducing to 15 matrices.
 Coeff-Com:  0.386D-07 0.338D-06 0.630D-06-0.452D-05 0.326D-05 0.469D-04
 Coeff-Com:  0.171D-03-0.347D-03-0.966D-03 0.250D-02 0.874D-02-0.238D-01
 Coeff-Com: -0.758D-01 0.222D+00 0.868D+00
 Coeff:      0.386D-07 0.338D-06 0.630D-06-0.452D-05 0.326D-05 0.469D-04
 Coeff:      0.171D-03-0.347D-03-0.966D-03 0.250D-02 0.874D-02-0.238D-01
 Coeff:     -0.758D-01 0.222D+00 0.868D+00
 Gap=     0.055 Goal=   None    Shift=    0.000
 Gap=     0.146 Goal=   None    Shift=    0.000
 RMSDP=3.07D-08 MaxDP=3.22D-06 DE=-1.46D-11 OVMax= 1.79D-08

 Cycle  22  Pass 1  IDiag  1:
 RMSU=  2.81D-08    CP:  1.00D+00
 E= -230.071951271599     Delta-E=       -0.000000000001 Rises=F Damp=F
 DIIS: error= 2.19D-10 at cycle  22 NSaved=  16.
 NSaved=16 IEnMin=16 EnMin= -230.071951271599     IErMin=16 ErrMin= 2.19D-10
 ErrMax= 2.19D-10  0.00D+00 EMaxC= 1.00D-01 BMatC= 3.91D-17 BMatP= 4.18D-16
 IDIUse=1 WtCom= 1.00D+00 WtEn= 0.00D+00
 Large coefficients: NSaved= 16 BigCof=    0.00 CofMax=   10.00 Det=-2.17D-16
 Inversion failed.  Reducing to 15 matrices.
 Coeff-Com:  0.101D-06-0.120D-06 0.326D-06-0.261D-05 0.146D-05-0.982D-06
 Coeff-Com:  0.249D-04-0.406D-04-0.258D-03 0.830D-03 0.397D-02-0.121D-01
 Coeff-Com: -0.781D-01-0.218D-02 0.109D+01
 Coeff:      0.101D-06-0.120D-06 0.326D-06-0.261D-05 0.146D-05-0.982D-06
 Coeff:      0.249D-04-0.406D-04-0.258D-03 0.830D-03 0.397D-02-0.121D-01
 Coeff:     -0.781D-01-0.218D-02 0.109D+01
 Gap=     0.055 Goal=   None    Shift=    0.000
 Gap=     0.146 Goal=   None    Shift=    0.000
 RMSDP=1.05D-08 MaxDP=1.15D-06 DE=-1.36D-12 OVMax= 6.53D-09

 Cycle  23  Pass 1  IDiag  1:
 RMSU=  9.10D-10    CP:  1.00D+00  1.34D+00
 E= -230.071951271600     Delta-E=       -0.000000000002 Rises=F Damp=F
 DIIS: error= 9.24D-11 at cycle  23 NSaved=  16.
 NSaved=16 IEnMin=16 EnMin= -230.071951271600     IErMin=16 ErrMin= 9.24D-11
 ErrMax= 9.24D-11  0.00D+00 EMaxC= 1.00D-01 BMatC= 9.92D-18 BMatP= 3.91D-17
 IDIUse=1 WtCom= 1.00D+00 WtEn= 0.00D+00
 Large coefficients: NSaved= 16 BigCof=    0.00 CofMax=   10.00 Det=-2.37D-17
 Inversion failed.  Reducing to 15 matrices.
 Coeff-Com: -0.131D-06 0.189D-06-0.119D-05-0.234D-06 0.297D-05 0.372D-04
 Coeff-Com: -0.445D-04-0.328D-03 0.389D-03 0.302D-02-0.433D-02-0.420D-01
 Coeff-Com: -0.461D-01 0.321D+00 0.768D+00
 Coeff:     -0.131D-06 0.189D-06-0.119D-05-0.234D-06 0.297D-05 0.372D-04
 Coeff:     -0.445D-04-0.328D-03 0.389D-03 0.302D-02-0.433D-02-0.420D-01
 Coeff:     -0.461D-01 0.321D+00 0.768D+00
 Gap=     0.055 Goal=   None    Shift=    0.000
 Gap=     0.146 Goal=   None    Shift=    0.000
 RMSDP=8.02D-10 MaxDP=1.07D-07 DE=-1.59D-12 OVMax= 3.08D-09

 SCF Done:  E(UB3LYP) =  -230.071951272     A.U. after   23 cycles
            NFock= 23  Conv=0.80D-09     -V/T= 2.0043
 <Sx>= 0.0000 <Sy>= 0.0000 <Sz>= 0.5000 <S**2>= 0.7601 S= 0.5051
 <L.S>= 0.000000000000E+00
 KE= 2.290851608793D+02 PE=-8.131389208439D+02 EE= 2.196807008162D+02
 Annihilation of the first spin contaminant:
 S**2 before annihilation     0.7601,   after     0.7500
 Leave Link  502 at Thu Mar  7 15:53:34 2019, MaxMem=    33554432 cpu:       920.6
 (Enter /home/proyectos/fulerenos/M3C-v2.0/M3C-deps_CCC/g09-AM64L-G09RevC.01/l801.exe)
 DoSCS=F DFT=T ScalE2(SS,OS)=  1.000000  1.000000
 Range of M.O.s used for correlation:     1   235
 NBasis=   235 NAE=    19 NBE=    18 NFC=     0 NFV=     0
 NROrb=    235 NOA=    19 NOB=    18 NVA=   216 NVB=   217

 **** Warning!!: The largest alpha MO coefficient is  0.26948738D+03


 **** Warning!!: The smallest alpha delta epsilon is  0.54896454D-01


 **** Warning!!: The largest beta MO coefficient is  0.27345558D+03

 Leave Link  801 at Thu Mar  7 15:53:34 2019, MaxMem=    33554432 cpu:         0.1
 (Enter /home/proyectos/fulerenos/M3C-v2.0/M3C-deps_CCC/g09-AM64L-G09RevC.01/l1101.exe)
 Using compressed storage, NAtomX=     9.
 Will process     10 centers per pass.
 Leave Link 1101 at Thu Mar  7 15:53:34 2019, MaxMem=    33554432 cpu:         1.3
 (Enter /home/proyectos/fulerenos/M3C-v2.0/M3C-deps_CCC/g09-AM64L-G09RevC.01/l1102.exe)
 Symmetrizing basis deriv contribution to polar:
 IMax=3 JMax=2 DiffMx= 0.00D+00
 Leave Link 1102 at Thu Mar  7 15:53:34 2019, MaxMem=    33554432 cpu:         0.1
 (Enter /home/proyectos/fulerenos/M3C-v2.0/M3C-deps_CCC/g09-AM64L-G09RevC.01/l1110.exe)
 Forming Gx(P) for the SCF density, NAtomX=     9.
 Integral derivatives from FoFJK, PRISM(SPDF).
 Do as many integral derivatives as possible in FoFJK.
 G2DrvN: MDV=      33554256.
 G2DrvN: will do    10 centers at a time, making    1 passes.
 Calling FoFCou, ICntrl=  3107 FMM=F I1Cent=   0 AccDes= 0.00D+00.
 FoFJK:  IHMeth= 1 ICntrl=    3107 DoSepK=F KAlg= 0 I1Cent=   0 FoldK=F
 IRaf=         0 NMat=   1 IRICut=       1 DoRegI=T DoRafI=F ISym2E= 0.
 FoFCou: FMM=F IPFlag=           0 FMFlag=      100000 FMFlg1=           0
         NFxFlg=           0 DoJE=F BraDBF=F KetDBF=F FulRan=T
         wScrn=  0.000000 ICntrl=    3107 IOpCl=  1 I1Cent=           0 NGrid=           0
         NMat0=    1 NMatS0=      1 NMatT0=    0 NMatD0=    1 NMtDS0=    0 NMtDT0=    0
 Symmetry not used in FoFCou.
 End of G2Drv F.D. properties file   721 does not exist.
 End of G2Drv F.D. properties file   722 does not exist.
 End of G2Drv F.D. properties file   788 does not exist.
 Leave Link 1110 at Thu Mar  7 15:55:30 2019, MaxMem=    33554432 cpu:       462.4
 (Enter /home/proyectos/fulerenos/M3C-v2.0/M3C-deps_CCC/g09-AM64L-G09RevC.01/l1002.exe)
 Minotr:  UHF open shell wavefunction.
          IDoAtm=111111111
          Direct CPHF calculation.
          Differentiating once with respect to electric field.
                with respect to dipole field.
          Differentiating once with respect to nuclear coordinates.
          Requested convergence is 1.0D-08 RMS, and 1.0D-07 maximum.
          Secondary convergence is 1.0D-12 RMS, and 1.0D-12 maximum.
          NewPWx=T KeepS1=F KeepF1=F KeepIn=T MapXYZ=F SortEE=F KeepMc=T.
          MDV=      33553868 using IRadAn=       2.
 Generate precomputed XC quadrature information.
          Solving linear equations simultaneously, MaxMat=       0.
 FoFJK:  IHMeth= 1 ICntrl=       0 DoSepK=F KAlg= 0 I1Cent=   0 FoldK=F
 IRaf= 950000000 NMat=  30 IRICut=      75 DoRegI=T DoRafI=T ISym2E= 2.
 FoFCou: FMM=F IPFlag=           0 FMFlag=      100000 FMFlg1=           0
         NFxFlg=           0 DoJE=F BraDBF=F KetDBF=F FulRan=T
         wScrn=  0.000000 ICntrl=       0 IOpCl=  1 I1Cent=           0 NGrid=           0
         NMat0=   30 NMatS0=     30 NMatT0=    0 NMatD0=   30 NMtDS0=    0 NMtDT0=    0
 Integrals replicated using symmetry in FoFCou.
          There are    30 degrees of freedom in the 1st order CPHF.  IDoFFX=6 NUNeed=     3.
     27 vectors produced by pass  0 Test12= 2.67D-14 3.33D-09 XBig12= 1.71D+03 3.69D+01.
 AX will form    27 AO Fock derivatives at one time.
     27 vectors produced by pass  1 Test12= 2.67D-14 3.33D-09 XBig12= 4.42D+02 4.73D+00.
     27 vectors produced by pass  2 Test12= 2.67D-14 3.33D-09 XBig12= 1.13D+01 6.40D-01.
     27 vectors produced by pass  3 Test12= 2.67D-14 3.33D-09 XBig12= 2.70D-01 8.80D-02.
     27 vectors produced by pass  4 Test12= 2.67D-14 3.33D-09 XBig12= 2.44D-03 6.29D-03.
     27 vectors produced by pass  5 Test12= 2.67D-14 3.33D-09 XBig12= 1.89D-05 5.71D-04.
     26 vectors produced by pass  6 Test12= 2.67D-14 3.33D-09 XBig12= 1.39D-07 4.35D-05.
     16 vectors produced by pass  7 Test12= 2.67D-14 3.33D-09 XBig12= 7.43D-10 3.17D-06.
      3 vectors produced by pass  8 Test12= 2.67D-14 3.33D-09 XBig12= 5.95D-12 3.26D-07.
      3 vectors produced by pass  9 Test12= 2.67D-14 3.33D-09 XBig12= 4.80D-12 7.02D-07.
      3 vectors produced by pass 10 Test12= 2.67D-14 3.33D-09 XBig12= 1.30D-12 2.55D-07.
      3 vectors produced by pass 11 Test12= 2.67D-14 3.33D-09 XBig12= 1.51D-13 7.51D-08.
      3 vectors produced by pass 12 Test12= 2.67D-14 3.33D-09 XBig12= 4.86D-15 1.36D-08.
      3 vectors produced by pass 13 Test12= 2.67D-14 3.33D-09 XBig12= 1.73D-15 9.25D-09.
      2 vectors produced by pass 14 Test12= 2.67D-14 3.33D-09 XBig12= 4.73D-16 4.29D-09.
      1 vectors produced by pass 15 Test12= 2.67D-14 3.33D-09 XBig12= 2.10D-15 9.53D-09.
 InvSVY:  IOpt=1 It=  1 EMax= 1.78D-14
 Solved reduced A of dimension   225 with    30 vectors.
 FullF1:  Do perturbations    1 to     3.
 Isotropic polarizability for W=    0.000000      159.44 Bohr**3.
 End of Minotr F.D. properties file   721 does not exist.
 End of Minotr F.D. properties file   722 does not exist.
 End of Minotr F.D. properties file   788 does not exist.
 Leave Link 1002 at Thu Mar  7 16:04:11 2019, MaxMem=    33554432 cpu:      2085.4
 (Enter /home/proyectos/fulerenos/M3C-v2.0/M3C-deps_CCC/g09-AM64L-G09RevC.01/l601.exe)
 Copying SCF densities to generalized density rwf, IOpCl= 1 IROHF=0.

 **********************************************************************

            Population analysis using the SCF density.

 **********************************************************************

 Orbital symmetries:
 Alpha Orbitals:
       Occupied  (A) (A) (A) (A) (A) (A) (A) (A) (A) (A) (A) (A)
                 (A) (A) (A) (A) (A) (A) (A)
       Virtual   (A) (A) (A) (A) (A) (A) (A) (A) (A) (A) (A) (A)
                 (A) (A) (A) (A) (A) (A) (A) (A) (A) (A) (A) (A)
                 (A) (A) (A) (A) (A) (A) (A) (A) (A) (A) (A) (A)
                 (A) (A) (A) (A) (A) (A) (A) (A) (A) (A) (A) (A)
                 (A) (A) (A) (A) (A) (A) (A) (A) (A) (A) (A) (A)
                 (A) (A) (A) (A) (A) (A) (A) (A) (A) (A) (A) (A)
                 (A) (A) (A) (A) (A) (A) (A) (A) (A) (A) (A) (A)
                 (A) (A) (A) (A) (A) (A) (A) (A) (A) (A) (A) (A)
                 (A) (A) (A) (A) (A) (A) (A) (A) (A) (A) (A) (A)
                 (A) (A) (A) (A) (A) (A) (A) (A) (A) (A) (A) (A)
                 (A) (A) (A) (A) (A) (A) (A) (A) (A) (A) (A) (A)
                 (A) (A) (A) (A) (A) (A) (A) (A) (A) (A) (A) (A)
                 (A) (A) (A) (A) (A) (A) (A) (A) (A) (A) (A) (A)
                 (A) (A) (A) (A) (A) (A) (A) (A) (A) (A) (A) (A)
                 (A) (A) (A) (A) (A) (A) (A) (A) (A) (A) (A) (A)
                 (A) (A) (A) (A) (A) (A) (A) (A) (A) (A) (A) (A)
                 (A) (A) (A) (A) (A) (A) (A) (A) (A) (A) (A) (A)
                 (A) (A) (A) (A) (A) (A) (A) (A) (A) (A) (A) (A)
 Beta  Orbitals:
       Occupied  (A) (A) (A) (A) (A) (A) (A) (A) (A) (A) (A) (A)
                 (A) (A) (A) (A) (A) (A)
       Virtual   (A) (A) (A) (A) (A) (A) (A) (A) (A) (A) (A) (A)
                 (A) (A) (A) (A) (A) (A) (A) (A) (A) (A) (A) (A)
                 (A) (A) (A) (A) (A) (A) (A) (A) (A) (A) (A) (A)
                 (A) (A) (A) (A) (A) (A) (A) (A) (A) (A) (A) (A)
                 (A) (A) (A) (A) (A) (A) (A) (A) (A) (A) (A) (A)
                 (A) (A) (A) (A) (A) (A) (A) (A) (A) (A) (A) (A)
                 (A) (A) (A) (A) (A) (A) (A) (A) (A) (A) (A) (A)
                 (A) (A) (A) (A) (A) (A) (A) (A) (A) (A) (A) (A)
                 (A) (A) (A) (A) (A) (A) (A) (A) (A) (A) (A) (A)
                 (A) (A) (A) (A) (A) (A) (A) (A) (A) (A) (A) (A)
                 (A) (A) (A) (A) (A) (A) (A) (A) (A) (A) (A) (A)
                 (A) (A) (A) (A) (A) (A) (A) (A) (A) (A) (A) (A)
                 (A) (A) (A) (A) (A) (A) (A) (A) (A) (A) (A) (A)
                 (A) (A) (A) (A) (A) (A) (A) (A) (A) (A) (A) (A)
                 (A) (A) (A) (A) (A) (A) (A) (A) (A) (A) (A) (A)
                 (A) (A) (A) (A) (A) (A) (A) (A) (A) (A) (A) (A)
                 (A) (A) (A) (A) (A) (A) (A) (A) (A) (A) (A) (A)
                 (A) (A) (A) (A) (A) (A) (A) (A) (A) (A) (A) (A)
                 (A)
 The electronic state is 2-A.
 Alpha  occ. eigenvalues --  -18.89478 -10.03979 -10.03358  -9.98560  -9.97767
 Alpha  occ. eigenvalues --   -0.80490  -0.61265  -0.54354  -0.45169  -0.31251
 Alpha  occ. eigenvalues --   -0.28249  -0.27388  -0.26774  -0.23120  -0.19395
 Alpha  occ. eigenvalues --   -0.09868  -0.08296  -0.06018   0.04152
 Alpha virt. eigenvalues --    0.09642   0.12514   0.12693   0.13209   0.16714
 Alpha virt. eigenvalues --    0.18204   0.19108   0.20044   0.20256   0.21519
 Alpha virt. eigenvalues --    0.21981   0.22072   0.22604   0.24807   0.25224
 Alpha virt. eigenvalues --    0.25737   0.26622   0.28790   0.29203   0.30301
 Alpha virt. eigenvalues --    0.31497   0.33054   0.34481   0.36717   0.38147
 Alpha virt. eigenvalues --    0.38680   0.40707   0.41688   0.42930   0.43510
 Alpha virt. eigenvalues --    0.46196   0.47353   0.48033   0.50545   0.50883
 Alpha virt. eigenvalues --    0.53119   0.55685   0.56659   0.58871   0.60723
 Alpha virt. eigenvalues --    0.61148   0.63397   0.66441   0.67167   0.69490
 Alpha virt. eigenvalues --    0.70126   0.71383   0.73227   0.73824   0.74788
 Alpha virt. eigenvalues --    0.77314   0.78004   0.78971   0.80648   0.81466
 Alpha virt. eigenvalues --    0.83588   0.86441   0.88095   0.88561   0.93884
 Alpha virt. eigenvalues --    0.97262   0.98649   0.99106   1.03403   1.05061
 Alpha virt. eigenvalues --    1.08765   1.09809   1.13723   1.16885   1.18079
 Alpha virt. eigenvalues --    1.19844   1.21113   1.23430   1.26938   1.29150
 Alpha virt. eigenvalues --    1.30148   1.31443   1.32912   1.33529   1.34851
 Alpha virt. eigenvalues --    1.37262   1.38228   1.40939   1.43046   1.43998
 Alpha virt. eigenvalues --    1.48315   1.50341   1.52720   1.54984   1.56569
 Alpha virt. eigenvalues --    1.63120   1.65070   1.70117   1.70335   1.73686
 Alpha virt. eigenvalues --    1.79105   1.83368   1.86552   1.88792   1.92381
 Alpha virt. eigenvalues --    1.95576   2.00050   2.04067   2.08195   2.18140
 Alpha virt. eigenvalues --    2.20023   2.21480   2.27508   2.33124   2.40250
 Alpha virt. eigenvalues --    2.43763   2.53454   2.69472   2.74416   2.81919
 Alpha virt. eigenvalues --    2.82680   2.84460   2.88050   2.89301   2.91058
 Alpha virt. eigenvalues --    2.94086   2.97799   3.02811   3.03080   3.05627
 Alpha virt. eigenvalues --    3.06840   3.10354   3.12057   3.14851   3.18224
 Alpha virt. eigenvalues --    3.21127   3.23754   3.25393   3.27378   3.32641
 Alpha virt. eigenvalues --    3.34372   3.38312   3.39607   3.43121   3.46012
 Alpha virt. eigenvalues --    3.53845   3.62346   3.66723   3.72079   3.74541
 Alpha virt. eigenvalues --    3.78818   3.81310   3.88534   3.90748   3.95106
 Alpha virt. eigenvalues --    4.00933   4.09524   4.17712   4.24750   4.27301
 Alpha virt. eigenvalues --    4.30365   4.38883   4.42679   4.43995   4.45568
 Alpha virt. eigenvalues --    4.47599   4.50946   4.51862   4.58655   4.74047
 Alpha virt. eigenvalues --    4.81185   4.85199   4.95882   5.01049   5.23045
 Alpha virt. eigenvalues --    5.28508   5.36781   5.38108   5.52158   5.58063
 Alpha virt. eigenvalues --    5.67045   5.72816   5.79742   5.83936   5.85831
 Alpha virt. eigenvalues --    5.97433   6.11350   6.16309   6.38254   6.74554
 Alpha virt. eigenvalues --    7.09508   7.20594   7.21410   7.31139   7.32275
 Alpha virt. eigenvalues --    7.34873   7.39645   7.42896   7.55585   7.62340
 Alpha virt. eigenvalues --    7.66707   7.75506   7.77534   7.88764   7.95378
 Alpha virt. eigenvalues --    8.14785   8.21610   8.27109   8.30513   8.38638
 Alpha virt. eigenvalues --    8.72663  14.55356  14.57623  14.80396  14.93251
 Alpha virt. eigenvalues --   15.20474  24.28675  24.73214  25.54165  26.77761
 Alpha virt. eigenvalues --   50.52975
  Beta  occ. eigenvalues --  -18.88748 -10.03647 -10.03296  -9.98033  -9.97765
  Beta  occ. eigenvalues --   -0.79148  -0.60627  -0.53795  -0.44051  -0.30707
  Beta  occ. eigenvalues --   -0.27719  -0.27202  -0.26354  -0.22346  -0.16280
  Beta  occ. eigenvalues --   -0.08023  -0.06893  -0.05366
  Beta virt. eigenvalues --    0.09203   0.12273   0.12597   0.13037   0.13324
  Beta virt. eigenvalues --    0.17020   0.18230   0.19292   0.20159   0.20202
  Beta virt. eigenvalues --    0.21580   0.22012   0.22378   0.22826   0.24933
  Beta virt. eigenvalues --    0.25230   0.26742   0.26904   0.28750   0.29617
  Beta virt. eigenvalues --    0.30851   0.31590   0.33302   0.34679   0.36985
  Beta virt. eigenvalues --    0.38250   0.39362   0.40796   0.41936   0.43222
  Beta virt. eigenvalues --    0.43669   0.46217   0.47402   0.48132   0.50948
  Beta virt. eigenvalues --    0.51282   0.53356   0.55951   0.56957   0.59530
  Beta virt. eigenvalues --    0.61280   0.61567   0.64086   0.66793   0.67508
  Beta virt. eigenvalues --    0.69707   0.70629   0.71944   0.73385   0.74271
  Beta virt. eigenvalues --    0.75512   0.77732   0.78147   0.79211   0.80990
  Beta virt. eigenvalues --    0.81852   0.83802   0.86556   0.88454   0.89108
  Beta virt. eigenvalues --    0.94027   0.97521   0.98996   0.99601   1.03885
  Beta virt. eigenvalues --    1.05591   1.09058   1.10062   1.14001   1.17336
  Beta virt. eigenvalues --    1.18628   1.20401   1.21467   1.24240   1.27152
  Beta virt. eigenvalues --    1.29484   1.30528   1.31728   1.33160   1.33762
  Beta virt. eigenvalues --    1.35278   1.37664   1.38708   1.41179   1.43283
  Beta virt. eigenvalues --    1.44643   1.49431   1.50919   1.53028   1.55698
  Beta virt. eigenvalues --    1.56914   1.63580   1.65274   1.70613   1.70930
  Beta virt. eigenvalues --    1.74218   1.79479   1.84078   1.87123   1.89472
  Beta virt. eigenvalues --    1.93571   1.96669   2.00380   2.04506   2.08874
  Beta virt. eigenvalues --    2.18510   2.20621   2.22107   2.27985   2.33802
  Beta virt. eigenvalues --    2.40626   2.44361   2.54458   2.69890   2.75159
  Beta virt. eigenvalues --    2.82339   2.83013   2.84861   2.89160   2.90310
  Beta virt. eigenvalues --    2.91645   2.94377   2.98411   3.03138   3.04152
  Beta virt. eigenvalues --    3.06066   3.07371   3.11372   3.13117   3.15565
  Beta virt. eigenvalues --    3.18585   3.21859   3.24638   3.26098   3.28381
  Beta virt. eigenvalues --    3.32881   3.34874   3.39232   3.40248   3.43522
  Beta virt. eigenvalues --    3.46562   3.54888   3.62934   3.67177   3.73244
  Beta virt. eigenvalues --    3.75235   3.80139   3.82458   3.89051   3.91448
  Beta virt. eigenvalues --    3.95775   4.01658   4.09967   4.18226   4.25361
  Beta virt. eigenvalues --    4.28441   4.31091   4.39342   4.43021   4.44248
  Beta virt. eigenvalues --    4.45987   4.48028   4.51412   4.52148   4.58862
  Beta virt. eigenvalues --    4.74356   4.81392   4.85920   4.96235   5.01489
  Beta virt. eigenvalues --    5.24181   5.30261   5.37794   5.40953   5.53172
  Beta virt. eigenvalues --    5.58530   5.68339   5.73497   5.80480   5.84308
  Beta virt. eigenvalues --    5.86207   5.97696   6.11857   6.16764   6.39703
  Beta virt. eigenvalues --    6.74800   7.09937   7.21409   7.22588   7.31841
  Beta virt. eigenvalues --    7.33957   7.36156   7.39780   7.43900   7.56811
  Beta virt. eigenvalues --    7.62816   7.67833   7.76477   7.77726   7.89816
  Beta virt. eigenvalues --    7.95780   8.15331   8.21822   8.27327   8.30945
  Beta virt. eigenvalues --    8.39149   8.73029  14.58209  14.60518  14.83206
  Beta virt. eigenvalues --   14.93657  15.21759  24.28931  24.73374  25.54494
  Beta virt. eigenvalues --   26.78136  50.53701
          Condensed to atoms (all electrons):
               1          2          3          4          5          6
     1  O    8.824080   0.001734   0.034218  -0.114433   0.163788  -0.007368
     2  C    0.001734  11.362690  -1.823623  -1.301698  -0.992207  -1.416069
     3  C    0.034218  -1.823623  13.421192  -3.128949  -2.210939   0.540814
     4  C   -0.114433  -1.301698  -3.128949  12.005352  -1.806855   0.251945
     5  C    0.163788  -0.992207  -2.210939  -1.806855   9.896317   0.212414
     6  H   -0.007368  -1.416069   0.540814   0.251945   0.212414   1.299592
     7  H    0.000503  -0.064205  -0.056921   0.148205   0.085872   0.133839
     8  H   -0.000857   0.168432  -0.167011   0.147065   0.052760   0.079020
     9  H   -0.133895  -0.083803   0.118354  -0.880099   0.942000   0.020104
               7          8          9
     1  O    0.000503  -0.000857  -0.133895
     2  C   -0.064205   0.168432  -0.083803
     3  C   -0.056921  -0.167011   0.118354
     4  C    0.148205   0.147065  -0.880099
     5  C    0.085872   0.052760   0.942000
     6  H    0.133839   0.079020   0.020104
     7  H    0.730343  -0.031622   0.004949
     8  H   -0.031622   0.687549   0.004541
     9  H    0.004949   0.004541   0.992883
          Atomic-Atomic Spin Densities.
               1          2          3          4          5          6
     1  O    0.401838   0.012573   0.005980  -0.030547  -0.144852  -0.008178
     2  C    0.012573   5.635508  -1.263647  -1.370701  -0.918440  -1.725065
     3  C    0.005980  -1.263647   1.085729   0.531802  -0.435963   0.309265
     4  C   -0.030547  -1.370701   0.531802   0.255000   0.181271   0.372238
     5  C   -0.144852  -0.918440  -0.435963   0.181271   1.270823   0.250111
     6  H   -0.008178  -1.725065   0.309265   0.372238   0.250111   0.751325
     7  H   -0.000813  -0.551253   0.160113   0.110470   0.064443   0.172813
     8  H   -0.000223  -0.364848   0.102488   0.077635   0.046024   0.118468
     9  H    0.006254  -0.064917  -0.018854   0.027200   0.051740   0.018957
               7          8          9
     1  O   -0.000813  -0.000223   0.006254
     2  C   -0.551253  -0.364848  -0.064917
     3  C    0.160113   0.102488  -0.018854
     4  C    0.110470   0.077635   0.027200
     5  C    0.064443   0.046024   0.051740
     6  H    0.172813   0.118468   0.018957
     7  H    0.068229   0.040203   0.004162
     8  H    0.040203   0.030264   0.003982
     9  H    0.004162   0.003982  -0.038501
 Mulliken charges and spin densities:
               1          2
     1  O   -0.767769   0.242033
     2  C    0.148749  -0.610790
     3  C   -0.727133   0.476914
     4  C    0.679468   0.154369
     5  C   -0.343150   0.365158
     6  H   -0.114292   0.259934
     7  H    0.049037   0.068366
     8  H    0.060123   0.053994
     9  H    0.014966  -0.009977
 Sum of Mulliken charges =  -1.00000   1.00000
 Mulliken charges and spin densities with hydrogens summed into heavy atoms:
               1          2
     1  O   -0.767769   0.242033
     2  C    0.143618  -0.228496
     3  C   -0.727133   0.476914
     4  C    0.679468   0.154369
     5  C   -0.328184   0.355181
 APT charges:
               1
     1  O   -1.352577
     2  C    0.287882
     3  C   -0.250830
     4  C   -0.551326
     5  C    1.202951
     6  H   -0.177749
     7  H   -0.032906
     8  H   -0.011833
     9  H   -0.113613
 Sum of APT charges =  -1.00000
 APT charges with hydrogens summed into heavy atoms:
               1
     1  O   -1.352577
     2  C    0.065394
     3  C   -0.250830
     4  C   -0.551326
     5  C    1.089338
 Electronic spatial extent (au):  <R**2>=            595.0699
 Charge=             -1.0000 electrons
 Dipole moment (field-independent basis, Debye):
    X=             -3.5345    Y=              1.0697    Z=              0.4441  Tot=              3.7194
 Quadrupole moment (field-independent basis, Debye-Ang):
   XX=            -55.6067   YY=            -36.3370   ZZ=            -38.3873
   XY=              3.9399   XZ=              0.2152   YZ=              0.3609
 Traceless Quadrupole moment (field-independent basis, Debye-Ang):
   XX=            -12.1631   YY=              7.1067   ZZ=              5.0564
   XY=              3.9399   XZ=              0.2152   YZ=              0.3609
 Octapole moment (field-independent basis, Debye-Ang**2):
  XXX=            -11.7750  YYY=             -2.6829  ZZZ=             -1.7484  XYY=              2.7416
  XXY=              9.9294  XXZ=             -5.3296  XZZ=             11.0338  YZZ=             -1.2967
  YYZ=             -0.4156  XYZ=             -1.2652
 Hexadecapole moment (field-independent basis, Debye-Ang**3):
 XXXX=           -939.5501 YYYY=            -95.6694 ZZZZ=           -100.3339 XXXY=             11.4708
 XXXZ=             22.4767 YYYX=             -3.5622 YYYZ=              1.0346 ZZZX=              7.1005
 ZZZY=              1.3096 XXYY=           -149.9206 XXZZ=           -160.4793 YYZZ=            -32.2144
 XXYZ=              3.2996 YYXZ=              2.5416 ZZXY=             -2.6949
 N-N= 1.343011078768D+02 E-N=-8.131389208433D+02  KE= 2.290851608793D+02
  Exact polarizability: 265.646  18.380  80.052 -40.207  -6.316 132.618
 Approx polarizability: 320.012  11.704  98.097 -27.467  -3.639 135.652
                          Isotropic Fermi Contact Couplings
        Atom                 a.u.       MegaHertz       Gauss      10(-4) cm-1
     1  O(17)              0.02940     -17.82479      -6.36033      -5.94571
     2  C(13)              0.07380      82.96032      29.60230      27.67258
     3  C(13)              0.08359      93.96784      33.53006      31.34430
     4  C(13)             -0.00544      -6.11242      -2.18106      -2.03888
     5  C(13)              0.00293       3.29204       1.17468       1.09811
     6  H(1)               0.01061      47.42074      16.92090      15.81786
     7  H(1)               0.00105       4.69536       1.67542       1.56620
     8  H(1)               0.00195       8.72077       3.11179       2.90893
     9  H(1)              -0.00451     -20.16957      -7.19700      -6.72785
 --------------------------------------------------------
       Center         ----  Spin Dipole Couplings  ----
                      3XX-RR        3YY-RR        3ZZ-RR
 --------------------------------------------------------
     1   Atom       -0.558497     -0.505546      1.064044
     2   Atom        0.029186     -0.005646     -0.023540
     3   Atom       -0.199249     -0.164125      0.363374
     4   Atom        0.028300     -0.064738      0.036438
     5   Atom       -0.140546     -0.132922      0.273468
     6   Atom        0.003115     -0.004423      0.001308
     7   Atom        0.004488     -0.000243     -0.004245
     8   Atom        0.009311     -0.004967     -0.004343
     9   Atom       -0.014593      0.013999      0.000594
 --------------------------------------------------------
                        XY            XZ            YZ
 --------------------------------------------------------
     1   Atom        0.050916     -0.175054     -0.324015
     2   Atom        0.005795     -0.006473      0.000291
     3   Atom       -0.021291      0.103419     -0.076957
     4   Atom        0.004802      0.047125     -0.015257
     5   Atom       -0.004316     -0.033366     -0.086055
     6   Atom        0.001972     -0.007155     -0.001664
     7   Atom        0.008740     -0.000804     -0.000293
     8   Atom       -0.005648     -0.002334     -0.000075
     9   Atom        0.013279      0.001857      0.005815
 --------------------------------------------------------


 ---------------------------------------------------------------------------------
              Anisotropic Spin Dipole Couplings in Principal Axis System
 ---------------------------------------------------------------------------------

       Atom             a.u.   MegaHertz   Gauss  10(-4) cm-1        Axes

              Baa    -0.5901    42.701    15.237    14.243  0.7850 -0.6184 -0.0381
     1 O(17)  Bbb    -0.5575    40.341    14.395    13.456  0.6104  0.7615  0.2181
              Bcc     1.1476   -83.042   -29.631   -27.700 -0.1059 -0.1944  0.9752
 
              Baa    -0.0244    -3.271    -1.167    -1.091  0.1256 -0.0543  0.9906
     2 C(13)  Bbb    -0.0065    -0.871    -0.311    -0.290 -0.1471  0.9865  0.0727
              Bcc     0.0309     4.142     1.478     1.382  0.9811  0.1548 -0.1159
 
              Baa    -0.2189   -29.377   -10.482    -9.799  0.9744  0.1665 -0.1511
     3 C(13)  Bbb    -0.1742   -23.377    -8.341    -7.798 -0.1409  0.9759  0.1668
              Bcc     0.3931    52.754    18.824    17.597  0.1752 -0.1413  0.9744
 
              Baa    -0.0687    -9.224    -3.291    -3.077 -0.1482  0.9671  0.2067
     4 C(13)  Bbb    -0.0114    -1.527    -0.545    -0.509  0.7284  0.2482 -0.6386
              Bcc     0.0801    10.751     3.836     3.586  0.6689 -0.0559  0.7412
 
              Baa    -0.1581   -21.217    -7.571    -7.077  0.5785  0.7902  0.2023
     5 C(13)  Bbb    -0.1352   -18.138    -6.472    -6.050  0.8124 -0.5804 -0.0559
              Bcc     0.2933    39.355    14.043    13.127 -0.0732 -0.1967  0.9777
 
              Baa    -0.0050    -2.680    -0.956    -0.894  0.6622 -0.3718  0.6506
     6 H(1)   Bbb    -0.0049    -2.596    -0.926    -0.866  0.1263  0.9112  0.3921
              Bcc     0.0099     5.276     1.883     1.760  0.7386  0.1774 -0.6503
 
              Baa    -0.0070    -3.712    -1.324    -1.238 -0.6084  0.7879 -0.0954
     7 H(1)   Bbb    -0.0043    -2.275    -0.812    -0.759 -0.0163  0.1078  0.9940
              Bcc     0.0112     5.986     2.136     1.997  0.7935  0.6063 -0.0527
 
              Baa    -0.0072    -3.842    -1.371    -1.282  0.3466  0.8866  0.3062
     8 H(1)   Bbb    -0.0044    -2.333    -0.833    -0.778  0.0227 -0.3343  0.9422
              Bcc     0.0116     6.175     2.203     2.060  0.9378 -0.3196 -0.1360
 
              Baa    -0.0198   -10.573    -3.773    -3.527  0.9294 -0.3685  0.0204
     9 H(1)   Bbb    -0.0012    -0.648    -0.231    -0.216 -0.1235 -0.2584  0.9581
              Bcc     0.0210    11.221     4.004     3.743  0.3478  0.8930  0.2857
 

 ---------------------------------------------------------------------------------

 No NMR shielding tensors so no spin-rotation constants.
 Leave Link  601 at Thu Mar  7 16:04:11 2019, MaxMem=    33554432 cpu:         2.1
 (Enter /home/proyectos/fulerenos/M3C-v2.0/M3C-deps_CCC/g09-AM64L-G09RevC.01/l701.exe)
 Compute integral second derivatives.
 ... and contract with generalized density number  0.
 Leave Link  701 at Thu Mar  7 16:04:12 2019, MaxMem=    33554432 cpu:         1.5
 (Enter /home/proyectos/fulerenos/M3C-v2.0/M3C-deps_CCC/g09-AM64L-G09RevC.01/l702.exe)
 L702 exits ... SP integral derivatives will be done elsewhere.
 Leave Link  702 at Thu Mar  7 16:04:12 2019, MaxMem=    33554432 cpu:         0.1
 (Enter /home/proyectos/fulerenos/M3C-v2.0/M3C-deps_CCC/g09-AM64L-G09RevC.01/l703.exe)
 Compute integral second derivatives, UseDBF=F ICtDFT=           0.
 Integral derivatives from FoFJK, PRISM(SPDF).
 Calling FoFJK, ICntrl=    100127 FMM=F ISym2X=0 I1Cent= 0 IOpClX= 1 NMat=1 NMatS=1 NMatT=0.
 FoFJK:  IHMeth= 1 ICntrl=  100127 DoSepK=F KAlg= 0 I1Cent=   0 FoldK=F
 IRaf=         0 NMat=   1 IRICut=       1 DoRegI=T DoRafI=F ISym2E= 0.
 FoFCou: FMM=F IPFlag=           0 FMFlag=      100000 FMFlg1=         800
         NFxFlg=           0 DoJE=F BraDBF=F KetDBF=F FulRan=T
         wScrn=  0.000000 ICntrl=  100127 IOpCl=  1 I1Cent=           0 NGrid=           0
         NMat0=    1 NMatS0=      1 NMatT0=    0 NMatD0=    1 NMtDS0=    0 NMtDT0=    0
 Symmetry not used in FoFCou.
 Leave Link  703 at Thu Mar  7 16:06:16 2019, MaxMem=    33554432 cpu:       498.1
 (Enter /home/proyectos/fulerenos/M3C-v2.0/M3C-deps_CCC/g09-AM64L-G09RevC.01/l716.exe)
 Dipole        =-1.39056369D+00 4.20864445D-01 1.74733829D-01
 Polarizability= 2.65646062D+02 1.83800293D+01 8.00524841D+01
                -4.02070491D+01-6.31644263D+00 1.32617748D+02
 Full mass-weighted force constant matrix:
 Low frequencies ---  -11.8260   -2.1492   -0.0012   -0.0008   -0.0007    9.8456
 Low frequencies ---  103.3089  140.4161  179.8043
 Diagonal vibrational polarizability:
       29.9827368       6.3695041      35.8933247
 Harmonic frequencies (cm**-1), IR intensities (KM/Mole), Raman scattering
 activities (A**4/AMU), depolarization ratios for plane and unpolarized
 incident light, reduced masses (AMU), force constants (mDyne/A),
 and normal coordinates:
                      1                      2                      3
                      A                      A                      A
 Frequencies --    103.2945               140.4146               179.7996
 Red. masses --      1.2022                 4.2869                 3.1113
 Frc consts  --      0.0076                 0.0498                 0.0593
 IR Inten    --      1.0364                 7.9931                20.4380
  Atom  AN      X      Y      Z        X      Y      Z        X      Y      Z
     1   8     0.02   0.03   0.06    -0.17  -0.15   0.11    -0.09  -0.10   0.01
     2   6     0.00   0.03   0.03     0.16  -0.18   0.12    -0.04  -0.08  -0.12
     3   6    -0.01  -0.05  -0.03    -0.00   0.16  -0.15     0.05  -0.05   0.19
     4   6    -0.00  -0.04  -0.05     0.00   0.24  -0.18     0.03   0.18   0.18
     5   6    -0.01   0.01  -0.04    -0.00   0.04   0.01     0.08   0.10  -0.15
     6   1     0.13  -0.48  -0.02     0.44  -0.29   0.11    -0.28  -0.30  -0.14
     7   1    -0.30   0.34  -0.33     0.28  -0.24   0.13    -0.00   0.03  -0.38
     8   1     0.18   0.33   0.51    -0.10  -0.32   0.36     0.06   0.01  -0.10
     9   1    -0.04   0.03  -0.13     0.17  -0.03   0.08     0.30   0.13  -0.60
                      4                      5                      6
                      A                      A                      A
 Frequencies --    308.3700               383.8104               597.5226
 Red. masses --      4.7028                 4.9018                 7.6531
 Frc consts  --      0.2635                 0.4254                 1.6099
 IR Inten    --     10.6991                14.4898                42.0766
  Atom  AN      X      Y      Z        X      Y      Z        X      Y      Z
     1   8     0.16   0.02   0.13    -0.02   0.03   0.00     0.37  -0.04   0.02
     2   6    -0.10  -0.08  -0.02     0.12  -0.01  -0.00    -0.28  -0.06   0.06
     3   6    -0.11   0.37   0.19     0.02   0.17  -0.28    -0.16  -0.07  -0.23
     4   6     0.01  -0.15  -0.13    -0.08  -0.16   0.42    -0.16   0.40   0.12
     5   6     0.02  -0.10  -0.16    -0.06  -0.04  -0.11     0.13  -0.19  -0.00
     6   1    -0.24  -0.29  -0.04     0.44  -0.04  -0.02    -0.04   0.00   0.05
     7   1     0.32  -0.17  -0.23     0.18  -0.07   0.07    -0.39  -0.07   0.19
     8   1    -0.37  -0.30   0.01    -0.08  -0.12   0.17    -0.30  -0.05   0.16
     9   1    -0.11  -0.02  -0.34    -0.07   0.07  -0.59     0.28  -0.22  -0.00
                      7                      8                      9
                      A                      A                      A
 Frequencies --    796.7058               828.4274              1015.5468
 Red. masses --      1.6778                 5.2342                 1.3803
 Frc consts  --      0.6275                 2.1165                 0.8387
 IR Inten    --     10.2297                40.5677                42.6339
  Atom  AN      X      Y      Z        X      Y      Z        X      Y      Z
     1   8    -0.01  -0.01   0.05     0.07   0.07   0.03     0.01  -0.01   0.00
     2   6    -0.01  -0.00   0.01     0.32   0.05  -0.08    -0.01  -0.00  -0.15
     3   6     0.00  -0.00  -0.01    -0.03  -0.07   0.17    -0.03  -0.00   0.10
     4   6     0.00  -0.02   0.07    -0.15   0.21   0.01    -0.02  -0.01  -0.01
     5   6     0.04   0.05  -0.22    -0.27  -0.27  -0.11     0.02   0.02   0.00
     6   1    -0.03   0.02   0.01     0.13   0.02  -0.06     0.77   0.16  -0.10
     7   1    -0.04   0.00   0.01     0.37   0.08  -0.17    -0.23  -0.13   0.35
     8   1     0.01   0.01  -0.01     0.37   0.07  -0.17    -0.15   0.03   0.35
     9   1    -0.06  -0.16   0.95    -0.43  -0.25   0.10     0.01   0.02   0.02
                     10                     11                     12
                      A                      A                      A
 Frequencies --   1049.2196              1156.5642              1336.8014
 Red. masses --      1.3725                 5.3049                 1.4446
 Frc consts  --      0.8902                 4.1809                 1.5210
 IR Inten    --      2.4082                25.4522               492.9075
  Atom  AN      X      Y      Z        X      Y      Z        X      Y      Z
     1   8    -0.00  -0.00  -0.00    -0.10   0.11   0.01    -0.07   0.12   0.01
     2   6    -0.03   0.15   0.00    -0.23  -0.03   0.00    -0.01  -0.00   0.00
     3   6     0.01  -0.10  -0.00     0.34   0.04  -0.01    -0.02  -0.00   0.01
     4   6    -0.00   0.00   0.00     0.29   0.11   0.02    -0.00  -0.02  -0.01
     5   6     0.01   0.01   0.00    -0.17  -0.24  -0.06     0.03  -0.10  -0.01
     6   1     0.12  -0.33  -0.04     0.04  -0.01   0.01     0.10   0.02   0.01
     7   1     0.61  -0.08  -0.15    -0.28  -0.12   0.26     0.08  -0.01  -0.06
     8   1    -0.58  -0.29   0.17    -0.33  -0.04   0.28     0.06   0.04  -0.04
     9   1     0.00   0.00   0.04    -0.50  -0.10  -0.05     0.90  -0.35   0.02
                     13                     14                     15
                      A                      A                      A
 Frequencies --   1384.6653              1467.3856              1475.5521
 Red. masses --      1.2127                 1.0493                 1.0599
 Frc consts  --      1.3699                 1.3311                 1.3596
 IR Inten    --      1.8665                 7.1373                 7.1666
  Atom  AN      X      Y      Z        X      Y      Z        X      Y      Z
     1   8     0.00  -0.01  -0.00    -0.01   0.01   0.00     0.01  -0.01  -0.00
     2   6    -0.12  -0.03   0.05     0.02  -0.05   0.00    -0.03  -0.01  -0.05
     3   6     0.01  -0.00   0.00    -0.00  -0.01   0.00     0.00  -0.00  -0.01
     4   6     0.00   0.01  -0.00     0.00   0.00   0.00    -0.01  -0.00   0.00
     5   6     0.00   0.01   0.00     0.02  -0.01   0.00    -0.02   0.02   0.00
     6   1     0.56   0.11   0.04    -0.06   0.68   0.07    -0.35   0.10  -0.01
     7   1     0.44  -0.06  -0.37     0.04   0.20  -0.51     0.45  -0.33   0.23
     8   1     0.38   0.26  -0.30    -0.24  -0.11   0.38     0.26   0.40   0.51
     9   1    -0.15   0.05  -0.00    -0.03   0.01  -0.00     0.06  -0.01   0.00
                     16                     17                     18
                      A                      A                      A
 Frequencies --   1497.9901              2031.5228              2819.0567
 Red. masses --      3.7031                11.6369                 1.0743
 Frc consts  --      4.8959                28.2964                 5.0300
 IR Inten    --   1278.5458               437.8960               304.3307
  Atom  AN      X      Y      Z        X      Y      Z        X      Y      Z
     1   8    -0.16   0.12   0.01    -0.01  -0.00  -0.00     0.00  -0.00  -0.00
     2   6     0.04   0.01  -0.02     0.07   0.02  -0.04    -0.00  -0.00   0.01
     3   6    -0.10  -0.01  -0.01    -0.65  -0.07  -0.06     0.00   0.00   0.00
     4   6    -0.04   0.03   0.00     0.70   0.06   0.12    -0.00  -0.00  -0.00
     5   6     0.37  -0.19   0.01    -0.14  -0.01  -0.01    -0.03  -0.07  -0.01
     6   1    -0.14  -0.09   0.00     0.10   0.02  -0.02    -0.00   0.01  -0.09
     7   1     0.10  -0.09   0.14     0.08  -0.03  -0.05     0.00   0.01   0.01
     8   1     0.12   0.10   0.06     0.06   0.07  -0.04     0.00  -0.00   0.00
     9   1    -0.79   0.22  -0.04    -0.03   0.02  -0.00     0.29   0.93   0.19
                     19                     20                     21
                      A                      A                      A
 Frequencies --   2838.7854              2999.9164              3021.8961
 Red. masses --      1.0652                 1.0624                 1.0995
 Frc consts  --      5.0577                 5.6330                 5.9159
 IR Inten    --    649.6367                27.4075                19.2027
  Atom  AN      X      Y      Z        X      Y      Z        X      Y      Z
     1   8     0.00  -0.00  -0.00     0.00  -0.00  -0.00    -0.00   0.00  -0.00
     2   6     0.00   0.01  -0.07    -0.05  -0.00  -0.04     0.01  -0.09  -0.01
     3   6     0.00   0.00  -0.00    -0.00  -0.00  -0.00     0.00  -0.00   0.00
     4   6    -0.00  -0.00   0.00     0.00   0.00   0.00    -0.00  -0.00  -0.00
     5   6    -0.00  -0.00  -0.00    -0.00   0.00   0.00     0.00   0.00   0.00
     6   1     0.01  -0.10   0.98    -0.01  -0.01   0.10     0.00  -0.02   0.00
     7   1    -0.04  -0.07  -0.06     0.25   0.60   0.27     0.27   0.58   0.29
     8   1    -0.05   0.06  -0.05     0.43  -0.53   0.16    -0.45   0.52  -0.18
     9   1     0.02   0.09   0.02    -0.00   0.00   0.00    -0.00  -0.00   0.00

 -------------------
 - Thermochemistry -
 -------------------
 Temperature   298.150 Kelvin.  Pressure   1.00000 Atm.
 Atom     1 has atomic number  8 and mass  15.99491
 Atom     2 has atomic number  6 and mass  12.00000
 Atom     3 has atomic number  6 and mass  12.00000
 Atom     4 has atomic number  6 and mass  12.00000
 Atom     5 has atomic number  6 and mass  12.00000
 Atom     6 has atomic number  1 and mass   1.00783
 Atom     7 has atomic number  1 and mass   1.00783
 Atom     8 has atomic number  1 and mass   1.00783
 Atom     9 has atomic number  1 and mass   1.00783
 Molecular mass:    68.02621 amu.
 Principal axes and moments of inertia in atomic units:
                           1         2         3
     Eigenvalues --    50.15147 839.50869 862.94470
           X            0.99980   0.01904  -0.00565
           Y           -0.01874   0.99868   0.04777
           Z            0.00656  -0.04765   0.99884
 This molecule is an asymmetric top.
 Rotational symmetry number  1.
 Rotational temperatures (Kelvin)      1.72704     0.10317     0.10037
 Rotational constants (GHZ):          35.98581     2.14976     2.09138
 Zero-point vibrational energy     164087.3 (Joules/Mol)
                                   39.21780 (Kcal/Mol)
 Warning -- explicit consideration of   6 degrees of freedom as
           vibrations may cause significant error
 Vibrational temperatures:    148.62   202.03   258.69   443.68   552.22
          (Kelvin)            859.70  1146.28  1191.92  1461.14  1509.59
                             1664.04  1923.36  1992.22  2111.24  2122.99
                             2155.27  2922.90  4055.99  4084.37  4316.21
                             4347.83
 
 Zero-point correction=                           0.062498 (Hartree/Particle)
 Thermal correction to Energy=                    0.068477
 Thermal correction to Enthalpy=                  0.069422
 Thermal correction to Gibbs Free Energy=         0.032785
 Sum of electronic and zero-point Energies=           -230.009454
 Sum of electronic and thermal Energies=              -230.003474
 Sum of electronic and thermal Enthalpies=            -230.002530
 Sum of electronic and thermal Free Energies=         -230.039166
 
                     E (Thermal)             CV                S
                      KCal/Mol        Cal/Mol-Kelvin    Cal/Mol-Kelvin
 Total                   42.970             18.566             77.107
 Electronic               0.000              0.000              1.377
 Translational            0.889              2.981             38.570
 Rotational               0.889              2.981             25.100
 Vibrational             41.193             12.604             12.061
 Vibration     1          0.605              1.947              3.391
 Vibration     2          0.615              1.913              2.798
 Vibration     3          0.629              1.867              2.330
 Vibration     4          0.698              1.658              1.371
 Vibration     5          0.753              1.505              1.024
 Vibration     6          0.955              1.037              0.454
                       Q            Log10(Q)             Ln(Q)
 Total Bot       0.831479D-15        -15.080149        -34.723325
 Total V=0       0.464153D+14         13.666661         31.468650
 Vib (Bot)       0.276286D-27        -27.558641        -63.456115
 Vib (Bot)    1  0.198554D+01          0.297878          0.685889
 Vib (Bot)    2  0.144795D+01          0.160753          0.370147
 Vib (Bot)    3  0.111716D+01          0.048115          0.110788
 Vib (Bot)    4  0.613780D+00         -0.211987         -0.488118
 Vib (Bot)    5  0.469822D+00         -0.328067         -0.755402
 Vib (Bot)    6  0.250535D+00         -0.601132         -1.384158
 Vib (V=0)       0.154230D+02          1.188169          2.735860
 Vib (V=0)    1  0.254752D+01          0.406118          0.935122
 Vib (V=0)    2  0.203185D+01          0.307891          0.708945
 Vib (V=0)    3  0.172395D+01          0.236524          0.544616
 Vib (V=0)    4  0.129166D+01          0.111148          0.255929
 Vib (V=0)    5  0.118610D+01          0.074121          0.170670
 Vib (V=0)    6  0.105926D+01          0.025001          0.057567
 Electronic      0.200000D+01          0.301030          0.693147
 Translational   0.220531D+08          7.343470         16.908964
 Rotational      0.682327D+05          4.833992         11.130679
 
                                                              b3lyp opt
                                                             IR Spectrum
 
     33      22                                2                     111  1 1       1   1 1                                          
     00      88                                0                     444  3 3       1   0 0       87       5        3   3    1 11    
     20      31                                3                     976  8 3       5   4 1       29       9        8   0    8 40    
     20      99                                2                     867  5 7       7   9 6       87       8        4   8    0 03    
 
[...]
             X                                                       X      X                                                        
             X                                                       X                                                               
             X                                                       X                                                               
                                                                     X                                                               
                                                                     X                                                               
                                                                     X                                                               
                                                                     X                                                               
                                                                     X                                                               
                                                                     X                                                               
                                                                     X                                                               
                                                                     X                                                               
                                                                     X                                                               
                                                                     X                                                               
 
 ***** Axes restored to original set *****
 -------------------------------------------------------------------
 Center     Atomic                   Forces (Hartrees/Bohr)
 Number     Number              X              Y              Z
 -------------------------------------------------------------------
      1        8          -0.000122214    0.000171725    0.000002241
      2        6          -0.000255900   -0.000020683    0.000090391
      3        6           0.000254212   -0.000030956   -0.000088194
      4        6          -0.000165306    0.000085064    0.000104354
      5        6           0.000195574   -0.000293297   -0.000018518
      6        1           0.000031709    0.000009323   -0.000051952
      7        1           0.000051761    0.000018955   -0.000029784
      8        1           0.000046125   -0.000000806   -0.000010092
      9        1          -0.000035961    0.000060674    0.000001555
 -------------------------------------------------------------------
 Cartesian Forces:  Max     0.000293297 RMS     0.000118144
 Z-matrix is all fixed cartesians, so copy forces.
 Force constants in Cartesian coordinates: 
                1             2             3             4             5 
      1  0.238994D+00
      2 -0.232310D+00  0.373996D+00
      3 -0.308152D-01  0.285865D-01  0.199818D-01
      4 -0.340350D-02  0.443322D-02  0.120835D-02  0.470773D+00
      5 -0.135143D-02 -0.456829D-03  0.301034D-02 -0.109860D-02  0.513400D+00
      6  0.548386D-02 -0.539218D-02 -0.116014D-02 -0.336628D-01  0.144396D-02
      7  0.526835D-02  0.188100D-02 -0.192131D-02 -0.212178D+00  0.175006D-02
      8 -0.960204D-03 -0.116328D-02 -0.644750D-02  0.467845D-02 -0.613938D-01
      9  0.377284D-02 -0.117159D-01  0.389814D-02 -0.344831D-01  0.760162D-03
     10 -0.561917D-01  0.358061D-01  0.100107D-01 -0.300391D-01  0.345221D-02
     11  0.453363D-01  0.439750D-02 -0.504146D-02 -0.602432D-03  0.483174D-03
     12  0.387457D-02  0.610712D-02  0.628250D-02 -0.101807D-01  0.852098D-03
     13 -0.203490D+00  0.172423D+00  0.228501D-01  0.902335D-02 -0.353671D-03
     14  0.179461D+00 -0.328406D+00 -0.216444D-01 -0.349035D-02  0.783291D-02
     15  0.244386D-01 -0.238744D-01 -0.418737D-01 -0.357993D-02 -0.170450D-02
     16  0.450919D-03 -0.548325D-03 -0.397385D-03 -0.414213D-01  0.454407D-03
     17  0.446184D-03 -0.399041D-03  0.558337D-04  0.752866D-04 -0.479928D-01
     18 -0.529117D-02  0.764803D-02  0.375676D-03 -0.129681D-02  0.641398D-02
     19 -0.921775D-04 -0.109308D-02  0.758887D-03 -0.972215D-01 -0.990185D-01
     20  0.607027D-03 -0.940428D-03  0.428201D-03 -0.961935D-01 -0.209655D+00
     21 -0.384173D-03  0.442783D-04 -0.281917D-03  0.379459D-01  0.660127D-01
     22  0.110482D-02 -0.149058D-02 -0.510339D-03 -0.954790D-01  0.953216D-01
     23 -0.985753D-03  0.143763D-02  0.444966D-03  0.926828D-01 -0.202306D+00
     24 -0.355442D-03  0.592644D-03  0.326771D-03  0.433532D-01 -0.745536D-01
     25  0.173589D-01  0.208987D-01 -0.118375D-02 -0.541180D-04  0.843921D-03
     26  0.975656D-02 -0.484652D-01  0.607518D-03 -0.484935D-03  0.877721D-04
     27 -0.723832D-03 -0.199604D-02  0.124509D-01  0.695869D-03 -0.223510D-02
                6             7             8             9            10 
      6  0.456481D+00
      7 -0.701662D-01  0.101733D+01
      8  0.215036D-02 -0.377740D-01  0.728217D-01
      9 -0.425434D-01 -0.107005D+00  0.548135D-02  0.112853D+00
     10  0.357853D-01 -0.708845D+00  0.290574D-01  0.135150D+00  0.109022D+01
     11 -0.525436D-03  0.388997D-01 -0.282694D-01 -0.919490D-02 -0.437369D-01
     12 -0.142587D-01  0.181541D+00 -0.975145D-02 -0.601269D-01 -0.218428D+00
     13 -0.101920D-01 -0.401036D-01  0.267048D-02  0.172022D-01 -0.278749D+00
     14  0.397903D-02 -0.744599D-02  0.601646D-02  0.139858D-01 -0.121339D-01
     15  0.334551D-02  0.203101D-01  0.303650D-02 -0.806533D-02  0.333730D-01
     16 -0.113511D-01 -0.146867D-01  0.105891D-02 -0.296233D-01  0.898442D-02
     17  0.586512D-02  0.230332D-03  0.309161D-02  0.112381D-02  0.338821D-03
     18 -0.253661D+00 -0.136238D-01  0.145703D-03 -0.130644D-01  0.162392D-02
     19  0.387981D-01 -0.233543D-01 -0.235332D-01  0.777177D-02 -0.676854D-03
     20  0.654646D-01 -0.287111D-02  0.498083D-02 -0.709994D-03  0.292330D-02
     21 -0.696995D-01 -0.448023D-02 -0.978336D-02  0.198504D-02 -0.871276D-03
     22  0.440903D-01 -0.232499D-01  0.234295D-01  0.873418D-02 -0.165382D-02
     23 -0.735771D-01  0.384065D-02  0.395087D-02  0.350042D-03 -0.333472D-02
     24 -0.784142D-01 -0.406251D-02  0.102954D-01  0.225053D-02 -0.172422D-02
     25  0.121451D-02 -0.181245D-03  0.137268D-02 -0.151971D-02 -0.230480D-01
     26  0.591676D-03  0.148939D-02 -0.350550D-04 -0.803333D-04 -0.123724D-01
     27 -0.900007D-04 -0.592559D-03  0.487296D-02  0.281364D-02  0.508024D-02
               11            12            13            14            15 
     11  0.108910D+00
     12  0.103143D-01  0.961869D-01
     13 -0.116411D-01  0.396532D-01  0.613488D+00
     14 -0.833303D-01 -0.105077D-01 -0.809792D-01  0.590991D+00
     15  0.178907D-02 -0.415504D-01 -0.867900D-01  0.396358D-02  0.126761D+00
     16 -0.139317D-03 -0.146937D-02 -0.257005D-02  0.561862D-03  0.140507D-02
     17 -0.197378D-03 -0.312206D-03 -0.480285D-03  0.631350D-04 -0.369130D-04
     18 -0.509090D-03  0.425531D-02  0.354888D-02 -0.649055D-02  0.318478D-03
     19 -0.776985D-03 -0.125950D-02 -0.337003D-03  0.287984D-02 -0.746064D-03
     20 -0.378771D-03 -0.117999D-02 -0.105997D-02  0.702125D-03 -0.194029D-03
     21  0.129034D-03  0.132800D-02  0.231363D-03  0.424835D-03  0.248630D-03
     22  0.952008D-03 -0.132890D-02 -0.902415D-03 -0.462506D-03 -0.120100D-04
     23 -0.574287D-03  0.163219D-02  0.158383D-02 -0.921339D-03 -0.391513D-03
     24 -0.173356D-03  0.189339D-02  0.526527D-03 -0.109227D-02 -0.145173D-03
     25 -0.282912D-01  0.759701D-02 -0.963594D-01 -0.783910D-01  0.116012D-01
     26 -0.104045D-02  0.284566D-02 -0.821629D-01 -0.192948D+00  0.174122D-01
     27  0.321184D-02  0.598995D-02  0.129697D-01  0.173817D-01 -0.390390D-01
               16            17            18            19            20 
     16  0.485675D-01
     17 -0.665803D-03  0.436583D-01
     18  0.128378D-01 -0.718603D-02  0.286377D+00
     19  0.357234D-03  0.121244D-02  0.103080D-02  0.114055D+00
     20  0.626604D-03  0.117743D-03  0.475988D-03  0.108128D+00  0.228612D+00
     21  0.144458D-01  0.263530D-01 -0.111824D-01 -0.404590D-01 -0.728104D-01
     22  0.199170D-03 -0.115156D-02  0.104540D-02  0.749391D-02 -0.119689D-01
     23 -0.128133D-02  0.161215D-02  0.233404D-03  0.120947D-01 -0.235285D-01
     24  0.142485D-01 -0.258035D-01 -0.132867D-01 -0.549959D-02  0.880941D-02
     25  0.118829D-03 -0.541588D-05  0.125039D-03 -0.223807D-03 -0.191158D-03
     26 -0.670070D-04  0.462008D-04 -0.731442D-03  0.107037D-03  0.900225D-04
     27 -0.958928D-04 -0.591728D-04 -0.132786D-03 -0.395412D-03 -0.283781D-03
               21            22            23            24            25 
     21  0.740412D-01
     22 -0.633368D-02  0.113204D+00
     23 -0.103778D-01 -0.104743D+00  0.220558D+00
     24  0.337138D-02 -0.461532D-01  0.819767D-01  0.841996D-01
     25 -0.947431D-04 -0.716657D-03  0.142801D-03 -0.333206D-03  0.103106D+00
     26  0.771728D-05  0.113550D-03 -0.228307D-03 -0.514816D-04  0.836207D-01
     27  0.189579D-03  0.468251D-03 -0.290879D-03 -0.195590D-03 -0.174063D-01
               26            27 
     26  0.242493D+00
     27 -0.206015D-01  0.180133D-01
 Leave Link  716 at Thu Mar  7 16:06:16 2019, MaxMem=    33554432 cpu:         0.1
 (Enter /home/proyectos/fulerenos/M3C-v2.0/M3C-deps_CCC/g09-AM64L-G09RevC.01/l103.exe)

 GradGradGradGradGradGradGradGradGradGradGradGradGradGradGradGradGradGrad
 Berny optimization.
 Search for a local minimum.
 Step number   1 out of a maximum of    2
 All quantities printed in internal units (Hartrees-Bohrs-Radians)
 Second derivative matrix not updated -- analytic derivatives used.
 ITU=  0
     Eigenvalues ---    0.00064   0.00417   0.00499   0.02181   0.03650
     Eigenvalues ---    0.05758   0.09102   0.09866   0.12230   0.12655
     Eigenvalues ---    0.12931   0.14701   0.17793   0.23558   0.37308
     Eigenvalues ---    0.56569   0.66159   0.69939   0.76252   1.08555
     Eigenvalues ---    1.87175
 Angle between quadratic step and forces=  76.36 degrees.
 Linear search not attempted -- first point.
 B after Tr=     0.000074   -0.000027    0.000045
         Rot=    1.000000   -0.000088   -0.000029   -0.000002 Ang=  -0.01 deg.
 Variable       Old X    -DE/DX   Delta X   Delta X   Delta X     New X
                                 (Linear)    (Quad)   (Total)
    X1       -5.57740  -0.00012   0.00000   0.00035   0.00043  -5.57697
    Y1        2.02050   0.00017   0.00000  -0.00003  -0.00015   2.02035
    Z1        0.35076   0.00000   0.00000   0.00089   0.00162   0.35238
    X2        3.34670  -0.00026   0.00000  -0.00074  -0.00067   3.34604
    Y2       -0.08147  -0.00002   0.00000   0.00007   0.00007  -0.08140
    Z2       -0.09049   0.00009   0.00000   0.00025   0.00008  -0.09040
    X3        0.69006   0.00025   0.00000   0.00010   0.00012   0.69018
    Y3       -0.03783  -0.00003   0.00000   0.00006   0.00020  -0.03763
    Z3       -0.94043  -0.00009   0.00000  -0.00127  -0.00128  -0.94170
    X4       -1.56043  -0.00017   0.00000   0.00023   0.00029  -1.56014
    Y4        0.07519   0.00009   0.00000   0.00021   0.00023   0.07542
    Z4       -0.26327   0.00010   0.00000   0.00031   0.00046  -0.26281
    X5       -4.15724   0.00020   0.00000   0.00042   0.00051  -4.15673
    Y5        0.10088  -0.00029   0.00000  -0.00047  -0.00054   0.10034
    Z5        0.16385  -0.00002   0.00000  -0.00013   0.00017   0.16403
    X6        3.52528   0.00003   0.00000  -0.00095  -0.00076   3.52451
    Y6       -0.14544   0.00001   0.00000   0.00160   0.00124  -0.14419
    Z6        1.99400  -0.00005   0.00000   0.00010  -0.00009   1.99391
    X7        4.37504   0.00005   0.00000   0.00061   0.00063   4.37567
    Y7        1.59058   0.00002   0.00000  -0.00088  -0.00076   1.58982
    Z7       -0.73999  -0.00003   0.00000  -0.00077  -0.00070  -0.74069
    X8        4.36553   0.00005   0.00000  -0.00010  -0.00006   4.36547
    Y8       -1.71601  -0.00000   0.00000  -0.00041  -0.00027  -1.71627
    Z8       -0.84026  -0.00001   0.00000   0.00170   0.00118  -0.83908
    X9       -5.00774  -0.00004   0.00000  -0.00059  -0.00049  -5.00823
    Y9       -1.80642   0.00006   0.00000   0.00009  -0.00002  -1.80644
    Z9        0.36581   0.00000   0.00000  -0.00148  -0.00145   0.36436
         Item               Value     Threshold  Converged?
 Maximum Force            0.000293     0.000450     YES
 RMS     Force            0.000118     0.000300     YES
 Maximum Displacement     0.001621     0.001800     YES
 RMS     Displacement     0.000702     0.001200     YES
 Predicted change in Energy=-2.656553D-07
 Optimization completed.
    -- Stationary point found.
 GradGradGradGradGradGradGradGradGradGradGradGradGradGradGradGradGradGrad

 Leave Link  103 at Thu Mar  7 16:06:16 2019, MaxMem=    33554432 cpu:         0.1
 (Enter /home/proyectos/fulerenos/M3C-v2.0/M3C-deps_CCC/g09-AM64L-G09RevC.01/l9999.exe)

 Test job not archived.
 1\1\GINC-BELVIS21\Freq\UB3LYP\6-311++G(3df,2p)\C4H4O1(1-,2)\ROOT\07-Ma
 r-2019\0\\#p b3lyp/6-311++G(3df,2p) freq IOp(2/17=3) IOp(2/18=3)\\b3ly
 p opt\\-1,2\O,-2.951434,1.069203,0.185614\C,1.771,-0.043114,-0.047883\
 C,0.365166,-0.020019,-0.497653\C,-0.825744,0.03979,-0.139315\C,-2.1999
 15,0.053386,0.086707\H,1.865496,-0.076961,1.055179\H,2.315173,0.8417,-
 0.391585\H,2.310139,-0.908072,-0.444646\H,-2.64998,-0.955914,0.193579\
 \Version=EM64L-G09RevE.01\State=2-A\HF=-230.0719513\S2=0.760149\S2-1=0
 .\S2A=0.750045\RMSD=8.018e-10\RMSF=1.181e-04\ZeroPoint=0.0624975\Therm
 al=0.0684773\Dipole=1.3084059,-0.6545549,0.0309531\DipoleDeriv=-2.5162
 191,0.5075714,-0.2649712,2.4931285,-1.1839779,0.3918467,0.2921773,-0.0
 424295,-0.3575325,-0.2300872,0.0338243,0.2014963,0.0075832,0.1668719,-
 0.0142023,0.6685086,-0.0600819,0.9268614,0.7720859,-0.1452155,0.329990
 2,0.0624267,-0.3719584,-0.0387971,-0.134559,0.0317519,-1.1526165,-1.57
 50212,0.289175,-0.8708107,-0.2839918,-0.2760371,-0.0082339,0.224716,-0
 .008473,0.1970809,2.6735999,-0.5134345,0.4992621,-1.9285308,1.1503799,
 -0.3441077,-0.3937456,-0.0029669,-0.2151277,-0.0643176,-0.0121827,0.03
 08947,0.0337463,-0.0018514,0.0337319,-0.6726441,0.04384,-0.4670772,-0.
 0088901,-0.0465058,0.0216826,-0.0364662,-0.0770352,0.0384883,-0.008329
 ,0.0554644,-0.0127937,0.040483,0.0254464,0.0243793,-0.0130973,-0.05153
 23,-0.043977,-0.0338105,-0.0510779,-0.0244489,-0.0916336,-0.1386785,0.
 0280767,-0.3347987,-0.3548595,-0.0147489,0.0576862,0.0339728,0.1056543
 \Polar=269.9409107,-17.2859041,79.9447031,32.5627823,-6.340034,128.430
 6802\PG=C01 [X(C4H4O1)]\NImag=0\\0.23899416,-0.23230993,0.37399565,-0.
 03081523,0.02858649,0.01998180,-0.00340350,0.00443322,0.00120835,0.470
 77311,-0.00135143,-0.00045683,0.00301034,-0.00109860,0.51340002,0.0054
 8386,-0.00539218,-0.00116014,-0.03366282,0.00144396,0.45648103,0.00526
 835,0.00188100,-0.00192131,-0.21217796,0.00175006,-0.07016622,1.017330
 67,-0.00096020,-0.00116328,-0.00644750,0.00467845,-0.06139375,0.002150
 36,-0.03777401,0.07282168,0.00377284,-0.01171593,0.00389814,-0.0344831
 0,0.00076016,-0.04254338,-0.10700489,0.00548135,0.11285268,-0.05619169
 ,0.03580610,0.01001072,-0.03003909,0.00345221,0.03578532,-0.70884529,0
 .02905743,0.13515003,1.09021928,0.04533633,0.00439750,-0.00504146,-0.0
 0060243,0.00048317,-0.00052544,0.03889969,-0.02826936,-0.00919490,-0.0
 4373690,0.10890990,0.00387457,0.00610712,0.00628250,-0.01018068,0.0008
 5210,-0.01425874,0.18154141,-0.00975145,-0.06012688,-0.21842776,0.0103
 1430,0.09618687,-0.20348975,0.17242291,0.02285006,0.00902335,-0.000353
 67,-0.01019197,-0.04010363,0.00267048,0.01720222,-0.27874894,-0.011641
 15,0.03965322,0.61348782,0.17946122,-0.32840598,-0.02164439,-0.0034903
 5,0.00783291,0.00397903,-0.00744599,0.00601646,0.01398579,-0.01213388,
 -0.08333033,-0.01050772,-0.08097921,0.59099056,0.02443857,-0.02387442,
 -0.04187371,-0.00357993,-0.00170450,0.00334551,0.02031014,0.00303650,-
 0.00806533,0.03337302,0.00178907,-0.04155040,-0.08678998,0.00396358,0.
 12676099,0.00045092,-0.00054832,-0.00039739,-0.04142130,0.00045441,-0.
 01135110,-0.01468672,0.00105891,-0.02962335,0.00898442,-0.00013932,-0.
 00146937,-0.00257005,0.00056186,0.00140507,0.04856750,0.00044618,-0.00
 039904,0.00005583,0.00007529,-0.04799276,0.00586512,0.00023033,0.00309
 161,0.00112381,0.00033882,-0.00019738,-0.00031221,-0.00048029,0.000063
 13,-0.00003691,-0.00066580,0.04365834,-0.00529117,0.00764803,0.0003756
 8,-0.00129681,0.00641398,-0.25366057,-0.01362383,0.00014570,-0.0130644
 4,0.00162392,-0.00050909,0.00425531,0.00354888,-0.00649055,0.00031848,
 0.01283777,-0.00718603,0.28637746,-0.00009218,-0.00109308,0.00075889,-
 0.09722152,-0.09901847,0.03879807,-0.02335429,-0.02353322,0.00777177,-
 0.00067685,-0.00077698,-0.00125950,-0.00033700,0.00287984,-0.00074606,
 0.00035723,0.00121244,0.00103080,0.11405451,0.00060703,-0.00094043,0.0
 0042820,-0.09619347,-0.20965458,0.06546456,-0.00287111,0.00498083,-0.0
 0070999,0.00292330,-0.00037877,-0.00117999,-0.00105997,0.00070212,-0.0
 0019403,0.00062660,0.00011774,0.00047599,0.10812769,0.22861161,-0.0003
 8417,0.00004428,-0.00028192,0.03794590,0.06601268,-0.06969950,-0.00448
 023,-0.00978336,0.00198504,-0.00087128,0.00012903,0.00132800,0.0002313
 6,0.00042483,0.00024863,0.01444581,0.02635303,-0.01118241,-0.04045896,
 -0.07281037,0.07404120,0.00110482,-0.00149058,-0.00051034,-0.09547897,
 0.09532157,0.04409034,-0.02324989,0.02342947,0.00873418,-0.00165382,0.
 00095201,-0.00132890,-0.00090241,-0.00046251,-0.00001201,0.00019917,-0
 .00115156,0.00104540,0.00749391,-0.01196892,-0.00633368,0.11320385,-0.
 00098575,0.00143763,0.00044497,0.09268282,-0.20230596,-0.07357709,0.00
 384065,0.00395087,0.00035004,-0.00333472,-0.00057429,0.00163219,0.0015
 8383,-0.00092134,-0.00039151,-0.00128133,0.00161215,0.00023340,0.01209
 475,-0.02352855,-0.01037784,-0.10474303,0.22055779,-0.00035544,0.00059
 264,0.00032677,0.04335323,-0.07455363,-0.07841421,-0.00406251,0.010295
 43,0.00225053,-0.00172422,-0.00017336,0.00189339,0.00052653,-0.0010922
 7,-0.00014517,0.01424846,-0.02580347,-0.01328673,-0.00549959,0.0088094
 1,0.00337138,-0.04615324,0.08197672,0.08419962,0.01735887,0.02089868,-
 0.00118375,-0.00005412,0.00084392,0.00121451,-0.00018125,0.00137268,-0
 .00151971,-0.02304802,-0.02829125,0.00759701,-0.09635939,-0.07839099,0
 .01160118,0.00011883,-0.00000542,0.00012504,-0.00022381,-0.00019116,-0
 .00009474,-0.00071666,0.00014280,-0.00033321,0.10310554,0.00975656,-0.
 04846521,0.00060752,-0.00048493,0.00008777,0.00059168,0.00148939,-0.00
 003505,-0.00008033,-0.01237238,-0.00104045,0.00284566,-0.08216295,-0.1
 9294754,0.01741222,-0.00006701,0.00004620,-0.00073144,0.00010704,0.000
 09002,0.00000772,0.00011355,-0.00022831,-0.00005148,0.08362073,0.24249
 256,-0.00072383,-0.00199604,0.01245088,0.00069587,-0.00223510,-0.00009
 000,-0.00059256,0.00487296,0.00281364,0.00508024,0.00321184,0.00598995
 ,0.01296966,0.01738170,-0.03903898,-0.00009589,-0.00005917,-0.00013279
 ,-0.00039541,-0.00028378,0.00018958,0.00046825,-0.00029088,-0.00019559
 ,-0.01740633,-0.02060153,0.01801331\\0.00012221,-0.00017173,-0.0000022
 4,0.00025590,0.00002068,-0.00009039,-0.00025421,0.00003096,0.00008819,
 0.00016531,-0.00008506,-0.00010435,-0.00019557,0.00029330,0.00001852,-
 0.00003171,-0.00000932,0.00005195,-0.00005176,-0.00001896,0.00002978,-
 0.00004612,0.00000081,0.00001009,0.00003596,-0.00006067,-0.00000155\\\
 @


 IT IS THE BEHAVIOR AND DISTRIBUTION OF THE ELECTRONS 
 AROUND THE NUCLEUS THAT GIVES THE FUNDAMENTAL 
 CHARACTER OF AN ATOM:  IT MUST BE THE SAME FOR MOLECULES.

                               -- C. A. COULSON, 1951
 Job cpu time:       0 days  1 hours  6 minutes 24.6 seconds.
 File lengths (MBytes):  RWF=     82 Int=      0 D2E=      0 Chk=      5 Scr=      1
 Normal termination of Gaussian 09 at Thu Mar  7 16:06:16 2019.
