 Entering Gaussian System, Link 0=/home/proyectos/fulerenos/M3C-v2.0/M3C-deps_CCC/g09-AM64L-G09RevC.01/g09
 Initial command:
 /home/proyectos/fulerenos/M3C-v2.0/M3C-deps_CCC/g09-AM64L-G09RevC.01/l1.exe "/scratch/naguirre/gaussian/Gau-19690.inp" -scrdir="/scratch/naguirre/gaussian/"
 Entering Link 1 = /home/proyectos/fulerenos/M3C-v2.0/M3C-deps_CCC/g09-AM64L-G09RevC.01/l1.exe PID=     19691.
  
 Copyright (c) 1988,1990,1992,1993,1995,1998,2003,2009,2015,
            Gaussian, Inc.  All Rights Reserved.
  
 This is part of the Gaussian(R) 09 program.  It is based on
 the Gaussian(R) 03 system (copyright 2003, Gaussian, Inc.),
 the Gaussian(R) 98 system (copyright 1998, Gaussian, Inc.),
 the Gaussian(R) 94 system (copyright 1995, Gaussian, Inc.),
 the Gaussian 92(TM) system (copyright 1992, Gaussian, Inc.),
 the Gaussian 90(TM) system (copyright 1990, Gaussian, Inc.),
 the Gaussian 88(TM) system (copyright 1988, Gaussian, Inc.),
 the Gaussian 86(TM) system (copyright 1986, Carnegie Mellon
 University), and the Gaussian 82(TM) system (copyright 1983,
 Carnegie Mellon University). Gaussian is a federally registered
 trademark of Gaussian, Inc.
  
 This software contains proprietary and confidential information,
 including trade secrets, belonging to Gaussian, Inc.
  
 This software is provided under written license and may be
 used, copied, transmitted, or stored only in accord with that
 written license.
  
 The following legend is applicable only to US Government
 contracts under FAR:
  
                    RESTRICTED RIGHTS LEGEND
  
 Use, reproduction and disclosure by the US Government is
 subject to restrictions as set forth in subparagraphs (a)
 and (c) of the Commercial Computer Software - Restricted
 Rights clause in FAR 52.227-19.
  
 Gaussian, Inc.
 340 Quinnipiac St., Bldg. 40, Wallingford CT 06492
  
  
 ---------------------------------------------------------------
 Warning -- This program may not be used in any manner that
 competes with the business of Gaussian, Inc. or will provide
 assistance to any competitor of Gaussian, Inc.  The licensee
 of this program is prohibited from giving any competitor of
 Gaussian, Inc. access to this program.  By using this program,
 the user acknowledges that Gaussian, Inc. is engaged in the
 business of creating and licensing software in the field of
 computational chemistry and represents and warrants to the
 licensee that it is not a competitor of Gaussian, Inc. and that
 it will not use this program in any manner prohibited above.
 ---------------------------------------------------------------
  

 Cite this work as:
 Gaussian 09, Revision E.01,
 M. J. Frisch, G. W. Trucks, H. B. Schlegel, G. E. Scuseria, 
 M. A. Robb, J. R. Cheeseman, G. Scalmani, V. Barone, B. Mennucci, 
 G. A. Petersson, H. Nakatsuji, M. Caricato, X. Li, H. P. Hratchian, 
 A. F. Izmaylov, J. Bloino, G. Zheng, J. L. Sonnenberg, M. Hada, 
 M. Ehara, K. Toyota, R. Fukuda, J. Hasegawa, M. Ishida, T. Nakajima, 
 Y. Honda, O. Kitao, H. Nakai, T. Vreven, J. A. Montgomery, Jr., 
 J. E. Peralta, F. Ogliaro, M. Bearpark, J. J. Heyd, E. Brothers, 
 K. N. Kudin, V. N. Staroverov, T. Keith, R. Kobayashi, J. Normand, 
 K. Raghavachari, A. Rendell, J. C. Burant, S. S. Iyengar, J. Tomasi, 
 M. Cossi, N. Rega, J. M. Millam, M. Klene, J. E. Knox, J. B. Cross, 
 V. Bakken, C. Adamo, J. Jaramillo, R. Gomperts, R. E. Stratmann, 
 O. Yazyev, A. J. Austin, R. Cammi, C. Pomelli, J. W. Ochterski, 
 R. L. Martin, K. Morokuma, V. G. Zakrzewski, G. A. Voth, 
 P. Salvador, J. J. Dannenberg, S. Dapprich, A. D. Daniels, 
 O. Farkas, J. B. Foresman, J. V. Ortiz, J. Cioslowski, 
 and D. J. Fox, Gaussian, Inc., Wallingford CT, 2013.
 
 ******************************************
 Gaussian 09:  EM64L-G09RevE.01 30-Nov-2015
                 7-Mar-2019 
 ******************************************
 %NProcShared=4
 Will use up to    4 processors via shared memory.
 ------------------------------------------------------
 #p b3lyp/6-311++G(3df,2p) freq IOp(2/17=3) IOp(2/18=3)
 ------------------------------------------------------
 1/10=4,30=1,38=1/1,3;
 2/12=2,17=3,18=3,40=1/2;
 3/5=4,6=6,7=1216,11=2,16=1,25=1,30=1,71=2,74=-5,140=1/1,2,3;
 4//1;
 5/5=2,38=5,98=1/2;
 8/6=4,10=90,11=11/1;
 11/6=1,8=1,9=11,15=111,16=1/1,2,10;
 10/6=1/2;
 6/7=2,8=2,9=2,10=2,18=1,28=1/1;
 7/8=1,10=1,25=1/1,2,3,16;
 1/10=4,30=1/3;
 99//99;
 Leave Link    1 at Thu Mar  7 15:01:03 2019, MaxMem=           0 cpu:         0.2
 (Enter /home/proyectos/fulerenos/M3C-v2.0/M3C-deps_CCC/g09-AM64L-G09RevC.01/l101.exe)
 ---------
 b3lyp opt
 ---------
 Symbolic Z-matrix:
 Charge = -1 Multiplicity = 2
 C                    -0.91645   0.70175  -0.00004 
 C                     1.17087  -0.17582  -0.00052 
 O                     0.39226   1.11504  -0.00045 
 C                     0.2259   -1.32967  -0.00019 
 C                    -1.01638  -0.69507   0.0001 
 H                    -1.65862   1.48716   0.00002 
 H                     1.82222  -0.1318   -0.88762 
 H                     1.82263  -0.13165   0.88628 
 H                    -1.98012  -1.19718   0.0004 
 
 NAtoms=      9 NQM=        9 NQMF=       0 NMMI=      0 NMMIF=      0
                NMic=       0 NMicF=      0.
                    Isotopes and Nuclear Properties:
 (Nuclear quadrupole moments (NQMom) in fm**2, nuclear magnetic moments (NMagM)
  in nuclear magnetons)

  Atom         1           2           3           4           5           6           7           8           9
 IAtWgt=          12          12          16          12          12           1           1           1           1
 AtmWgt=  12.0000000  12.0000000  15.9949146  12.0000000  12.0000000   1.0078250   1.0078250   1.0078250   1.0078250
 NucSpn=           0           0           0           0           0           1           1           1           1
 AtZEff=   0.0000000   0.0000000   0.0000000   0.0000000   0.0000000   0.0000000   0.0000000   0.0000000   0.0000000
 NQMom=    0.0000000   0.0000000   0.0000000   0.0000000   0.0000000   0.0000000   0.0000000   0.0000000   0.0000000
 NMagM=    0.0000000   0.0000000   0.0000000   0.0000000   0.0000000   2.7928460   2.7928460   2.7928460   2.7928460
 AtZNuc=   6.0000000   6.0000000   8.0000000   6.0000000   6.0000000   1.0000000   1.0000000   1.0000000   1.0000000
 Leave Link  101 at Thu Mar  7 15:01:03 2019, MaxMem=    33554432 cpu:         0.2
 (Enter /home/proyectos/fulerenos/M3C-v2.0/M3C-deps_CCC/g09-AM64L-G09RevC.01/l103.exe)

 GradGradGradGradGradGradGradGradGradGradGradGradGradGradGradGradGradGrad
 Berny optimization.
 Initialization pass.
 Trust Radius=3.00D-01 FncErr=1.00D-07 GrdErr=1.00D-07
 Number of steps in this run=      2 maximum allowed number of steps=      2.
 GradGradGradGradGradGradGradGradGradGradGradGradGradGradGradGradGradGrad

 Leave Link  103 at Thu Mar  7 15:01:03 2019, MaxMem=    33554432 cpu:         0.0
 (Enter /home/proyectos/fulerenos/M3C-v2.0/M3C-deps_CCC/g09-AM64L-G09RevC.01/l202.exe)
                          Input orientation:                          
 ---------------------------------------------------------------------
 Center     Atomic      Atomic             Coordinates (Angstroms)
 Number     Number       Type             X           Y           Z
 ---------------------------------------------------------------------
      1          6           0       -0.916451    0.701750   -0.000040
      2          6           0        1.170869   -0.175819   -0.000516
      3          8           0        0.392264    1.115039   -0.000445
      4          6           0        0.225903   -1.329671   -0.000190
      5          6           0       -1.016375   -0.695073    0.000096
      6          1           0       -1.658624    1.487155    0.000016
      7          1           0        1.822218   -0.131803   -0.887617
      8          1           0        1.822631   -0.131653    0.886275
      9          1           0       -1.980124   -1.197183    0.000395
 ---------------------------------------------------------------------
                    Distance matrix (angstroms):
                    1          2          3          4          5
     1  C    0.000000
     2  C    2.264295   0.000000
     3  O    1.372422   1.507495   0.000000
     4  C    2.330589   1.491421   2.450364   0.000000
     5  C    1.400393   2.248035   2.293637   1.394980   0.000000
     6  H    1.080593   3.281998   2.084373   3.389093   2.274775
     7  H    2.997151   1.101427   2.094387   2.184179   3.027031
     8  H    2.997113   1.101428   2.094388   2.184172   3.026997
     9  H    2.176545   3.312392   3.312793   2.210002   1.086705
                    6          7          8          9
     6  H    0.000000
     7  H    3.940200   0.000000
     8  H    3.940194   1.773892   0.000000
     9  H    2.703522   4.047395   4.047355   0.000000
 Stoichiometry    C4H4O(1-,2)
 Framework group  CS[SG(C4H2O),X(H2)]
 Deg. of freedom    14
 Full point group                 CS      NOp   2
 Largest Abelian subgroup         CS      NOp   2
 Largest concise Abelian subgroup CS      NOp   2
                         Standard orientation:                         
 ---------------------------------------------------------------------
 Center     Atomic      Atomic             Coordinates (Angstroms)
 Number     Number       Type             X           Y           Z
 ---------------------------------------------------------------------
      1          6           0        1.096529    0.357895    0.000000
      2          6           0       -0.806205   -0.869555   -0.000000
      3          8           0        0.698830   -0.955641    0.000000
      4          6           0       -1.225121    0.561823   -0.000000
      5          6           0       -0.000000    1.228943   -0.000000
      6          1           0        2.163794    0.527090    0.000000
      7          1           0       -1.137655   -1.432265   -0.886920
      8          1           0       -1.137655   -1.432265    0.886920
      9          1           0        0.129637    2.307887    0.000000
 ---------------------------------------------------------------------
 Rotational constants (GHZ):      8.9581380      8.5566826      4.4999782
 Leave Link  202 at Thu Mar  7 15:01:03 2019, MaxMem=    33554432 cpu:         0.0
 (Enter /home/proyectos/fulerenos/M3C-v2.0/M3C-deps_CCC/g09-AM64L-G09RevC.01/l301.exe)
 Standard basis: 6-311++G(3df,2p) (5D, 7F)
 Ernie: Thresh=  0.10000D-02 Tol=  0.10000D-05 Strict=F.
 There are   181 symmetry adapted cartesian basis functions of A'  symmetry.
 There are    84 symmetry adapted cartesian basis functions of A"  symmetry.
 There are   156 symmetry adapted basis functions of A'  symmetry.
 There are    79 symmetry adapted basis functions of A"  symmetry.
   235 basis functions,   338 primitive gaussians,   265 cartesian basis functions
    19 alpha electrons       18 beta electrons
       nuclear repulsion energy       156.1715617234 Hartrees.
 IExCor=  402 DFT=T Ex+Corr=B3LYP ExCW=0 ScaHFX=  0.200000
 ScaDFX=  0.800000  0.720000  1.000000  0.810000 ScalE2=  1.000000  1.000000
 IRadAn=      0 IRanWt=     -1 IRanGd=            0 ICorTp=0 IEmpDi=  4
 NAtoms=    9 NActive=    9 NUniq=    8 SFac= 1.27D+00 NAtFMM=   60 NAOKFM=F Big=F
 Integral buffers will be    131072 words long.
 Raffenetti 2 integral format.
 Two-electron integral symmetry is turned on.
 Leave Link  301 at Thu Mar  7 15:01:03 2019, MaxMem=    33554432 cpu:         0.2
 (Enter /home/proyectos/fulerenos/M3C-v2.0/M3C-deps_CCC/g09-AM64L-G09RevC.01/l302.exe)
 NPDir=0 NMtPBC=     1 NCelOv=     1 NCel=       1 NClECP=     1 NCelD=      1
         NCelK=      1 NCelE2=     1 NClLst=     1 CellRange=     0.0.
 One-electron integrals computed using PRISM.
 One-electron integral symmetry used in STVInt
 NBasis=   235 RedAO= T EigKep=  1.34D-05  NBF=   156    79
 NBsUse=   235 1.00D-06 EigRej= -1.00D+00 NBFU=   156    79
 Precomputing XC quadrature grid using
 IXCGrd= 4 IRadAn=           0 IRanWt=          -1 IRanGd=           0 AccXCQ= 0.00D+00.
 Generated NRdTot=       0 NPtTot=           0 NUsed=           0 NTot=          32
 NSgBfM=   265   265   265   265   265 MxSgAt=     9 MxSgA2=     9.
 Leave Link  302 at Thu Mar  7 15:01:03 2019, MaxMem=    33554432 cpu:         1.1
 (Enter /home/proyectos/fulerenos/M3C-v2.0/M3C-deps_CCC/g09-AM64L-G09RevC.01/l303.exe)
 DipDrv:  MaxL=1.
 Leave Link  303 at Thu Mar  7 15:01:03 2019, MaxMem=    33554432 cpu:         0.1
 (Enter /home/proyectos/fulerenos/M3C-v2.0/M3C-deps_CCC/g09-AM64L-G09RevC.01/l401.exe)
 ExpMin= 3.60D-02 ExpMax= 8.59D+03 ExpMxC= 1.30D+03 IAcc=3 IRadAn=         5 AccDes= 0.00D+00
 Harris functional with IExCor=  402 and IRadAn=       5 diagonalized for initial guess.
 HarFok:  IExCor=  402 AccDes= 0.00D+00 IRadAn=         5 IDoV= 1 UseB2=F ITyADJ=14
 ICtDFT=  3500011 ScaDFX=  1.000000  1.000000  1.000000  1.000000
 FoFCou: FMM=F IPFlag=           0 FMFlag=      100000 FMFlg1=           0
         NFxFlg=           0 DoJE=T BraDBF=F KetDBF=T FulRan=T
         wScrn=  0.000000 ICntrl=     500 IOpCl=  0 I1Cent=   200000004 NGrid=           0
         NMat0=    1 NMatS0=      1 NMatT0=    0 NMatD0=    1 NMtDS0=    0 NMtDT0=    0
 Petite list used in FoFCou.
 Harris En= -230.215446686288    
 JPrj=0 DoOrth=F DoCkMO=F.
 Initial guess orbital symmetries:
 Alpha Orbitals:
       Occupied  (A') (A') (A') (A') (A') (A') (A') (A') (A') (A')
                 (A') (A") (A') (A') (A') (A") (A") (A') (A")
       Virtual   (A") (A') (A') (A') (A') (A") (A') (A') (A') (A")
                 (A') (A") (A') (A') (A') (A') (A') (A') (A") (A")
                 (A') (A") (A') (A') (A') (A') (A') (A") (A') (A')
                 (A') (A') (A') (A") (A') (A") (A') (A') (A") (A')
                 (A") (A') (A") (A') (A") (A') (A') (A') (A") (A')
                 (A') (A') (A") (A") (A') (A") (A') (A") (A') (A')
                 (A') (A') (A') (A') (A") (A') (A") (A') (A") (A')
                 (A') (A") (A') (A") (A') (A") (A') (A') (A') (A")
                 (A") (A') (A") (A') (A') (A") (A') (A') (A') (A")
                 (A') (A') (A") (A') (A') (A") (A') (A") (A') (A')
                 (A') (A') (A") (A') (A") (A') (A") (A') (A') (A")
                 (A') (A') (A') (A') (A') (A') (A") (A") (A') (A")
                 (A') (A") (A') (A") (A') (A") (A") (A") (A') (A")
                 (A") (A') (A') (A') (A') (A') (A") (A") (A') (A')
                 (A') (A') (A") (A') (A') (A") (A') (A") (A') (A')
                 (A') (A") (A') (A") (A') (A') (A') (A") (A') (A')
                 (A') (A") (A") (A') (A") (A") (A') (A') (A") (A')
                 (A') (A") (A') (A") (A') (A") (A') (A') (A') (A")
                 (A') (A") (A') (A') (A') (A') (A") (A") (A") (A')
                 (A') (A") (A') (A") (A") (A') (A") (A') (A') (A')
                 (A") (A') (A') (A') (A') (A') (A") (A") (A') (A')
                 (A') (A') (A') (A') (A') (A')
 Beta  Orbitals:
       Occupied  (A') (A') (A') (A') (A') (A') (A') (A') (A') (A')
                 (A') (A") (A') (A') (A') (A") (A") (A')
       Virtual   (A") (A") (A') (A') (A') (A') (A") (A') (A') (A')
                 (A") (A') (A") (A') (A') (A') (A') (A') (A') (A")
                 (A") (A') (A") (A') (A') (A') (A') (A') (A") (A')
                 (A') (A') (A') (A') (A") (A') (A") (A') (A') (A")
                 (A') (A") (A') (A") (A') (A") (A') (A') (A') (A")
                 (A') (A') (A') (A") (A") (A') (A") (A') (A") (A')
                 (A') (A') (A') (A') (A') (A") (A') (A") (A') (A")
                 (A') (A') (A") (A') (A") (A') (A") (A') (A') (A')
                 (A") (A") (A') (A") (A') (A') (A") (A') (A') (A')
                 (A") (A') (A') (A") (A') (A') (A") (A') (A") (A')
                 (A') (A') (A') (A") (A') (A") (A') (A") (A') (A')
                 (A") (A') (A') (A') (A') (A') (A') (A") (A") (A')
                 (A") (A') (A") (A') (A") (A') (A") (A") (A") (A')
                 (A") (A") (A') (A') (A') (A') (A') (A") (A") (A')
                 (A') (A') (A') (A") (A') (A') (A") (A') (A") (A')
                 (A') (A') (A") (A') (A") (A') (A') (A') (A") (A')
                 (A') (A') (A") (A") (A') (A") (A") (A') (A') (A")
                 (A') (A') (A") (A') (A") (A') (A") (A') (A') (A')
                 (A") (A') (A") (A') (A') (A') (A') (A") (A") (A")
                 (A') (A') (A") (A') (A") (A") (A') (A") (A') (A')
                 (A') (A") (A') (A') (A') (A') (A') (A") (A") (A')
                 (A') (A') (A') (A') (A') (A') (A')
 The electronic state of the initial guess is 2-A".
 Initial guess <Sx>= 0.0000 <Sy>= 0.0000 <Sz>= 0.5000 <S**2>= 0.7500 S= 0.5000
 Leave Link  401 at Thu Mar  7 15:01:05 2019, MaxMem=    33554432 cpu:         6.9
 (Enter /home/proyectos/fulerenos/M3C-v2.0/M3C-deps_CCC/g09-AM64L-G09RevC.01/l502.exe)
 UHF open shell SCF:
 Using DIIS extrapolation, IDIIS=  1040.
 Integral symmetry usage will be decided dynamically.
 IVT=      233035 IEndB=      233035 NGot=    33554432 MDV=    33408528
 LenX=    33408528 LenY=    33337862
 Requested convergence on RMS density matrix=1.00D-08 within 128 cycles.
 Requested convergence on MAX density matrix=1.00D-06.
 Requested convergence on             energy=1.00D-06.
 No special actions if energy rises.
 Fock matrices will be formed incrementally for  20 cycles.

 Cycle   1  Pass 1  IDiag  1:
 FoFJK:  IHMeth= 1 ICntrl=       0 DoSepK=F KAlg= 0 I1Cent=   0 FoldK=F
 IRaf= 990000000 NMat=   1 IRICut=       1 DoRegI=T DoRafI=F ISym2E= 1.
 FoFCou: FMM=F IPFlag=           0 FMFlag=      100000 FMFlg1=           0
         NFxFlg=           0 DoJE=F BraDBF=F KetDBF=F FulRan=T
         wScrn=  0.000000 ICntrl=       0 IOpCl=  1 I1Cent=           0 NGrid=           0
         NMat0=    1 NMatS0=      1 NMatT0=    0 NMatD0=    1 NMtDS0=    0 NMtDT0=    0
 Petite list used in FoFCou.
 E= -229.778097951324    
 DIIS: error= 2.95D-02 at cycle   1 NSaved=   1.
 NSaved= 1 IEnMin= 1 EnMin= -229.778097951324     IErMin= 1 ErrMin= 2.95D-02
 ErrMax= 2.95D-02  0.00D+00 EMaxC= 1.00D-01 BMatC= 8.69D-01 BMatP= 8.69D-01
 IDIUse=3 WtCom= 7.05D-01 WtEn= 2.95D-01
 Coeff-Com:  0.100D+01
 Coeff-En:   0.100D+01
 Coeff:      0.100D+01
 Gap=    -0.002 Goal=   None    Shift=    0.000
 Gap=    -0.011 Goal=   None    Shift=    0.000
 GapD=   -0.011 DampG=0.250 DampE=0.500 DampFc=0.2500 IDamp=-1.
 Damping current iteration by 2.50D-01
 RMSDP=2.46D+00 MaxDP=2.34D+02              OVMax= 9.96D-01

 Cycle   2  Pass 1  IDiag  1:
 RMSU=  6.13D-01    CP:  3.00D+00
 E= -229.811320752476     Delta-E=       -0.033222801152 Rises=F Damp=T
 DIIS: error= 9.53D-03 at cycle   2 NSaved=   2.
 NSaved= 2 IEnMin= 2 EnMin= -229.811320752476     IErMin= 2 ErrMin= 9.53D-03
 ErrMax= 9.53D-03  0.00D+00 EMaxC= 1.00D-01 BMatC= 1.19D-01 BMatP= 8.69D-01
 IDIUse=3 WtCom= 9.05D-01 WtEn= 9.53D-02
 Coeff-Com: -0.139D+00 0.114D+01
 Coeff-En:   0.411D+00 0.589D+00
 Coeff:     -0.869D-01 0.109D+01
 Gap=     0.031 Goal=   None    Shift=    0.000
 Gap=    -0.011 Goal=   None    Shift=    0.000
 RMSDP=6.15D-01 MaxDP=5.85D+01 DE=-3.32D-02 OVMax= 9.81D-01

 Cycle   3  Pass 1  IDiag  1:
 RMSU=  3.06D-03    CP:  9.13D-01  9.81D-04
 E= -229.904431775968     Delta-E=       -0.093111023492 Rises=F Damp=F
 DIIS: error= 3.16D-02 at cycle   3 NSaved=   3.
 NSaved= 3 IEnMin= 3 EnMin= -229.904431775968     IErMin= 2 ErrMin= 9.53D-03
 ErrMax= 3.16D-02  0.00D+00 EMaxC= 1.00D-01 BMatC= 3.97D-01 BMatP= 1.19D-01
 IDIUse=2 WtCom= 0.00D+00 WtEn= 1.00D+00
 Coeff-En:   0.000D+00 0.203D+00 0.797D+00
 Coeff:      0.000D+00 0.203D+00 0.797D+00
 Gap=     0.004 Goal=   None    Shift=    0.000
 Gap=    -0.011 Goal=   None    Shift=    0.000
 RMSDP=1.58D+00 MaxDP=1.28D+02 DE=-9.31D-02 OVMax= 9.81D-01

 Cycle   4  Pass 1  IDiag  1:
 RMSU=  3.87D-01    CP:  3.00D+00  2.49D+00  2.84D+00
 E= -228.650919490509     Delta-E=        1.253512285460 Rises=F Damp=F
 DIIS: error= 8.52D-02 at cycle   4 NSaved=   4.
 NSaved= 4 IEnMin= 3 EnMin= -229.904431775968     IErMin= 2 ErrMin= 9.53D-03
 ErrMax= 8.52D-02  0.00D+00 EMaxC= 1.00D-01 BMatC= 2.58D+00 BMatP= 1.19D-01
 IDIUse=2 WtCom= 0.00D+00 WtEn= 1.00D+00
 Coeff-En:   0.000D+00 0.000D+00 0.856D+00 0.144D+00
 Coeff:      0.000D+00 0.000D+00 0.856D+00 0.144D+00
 Gap=    -0.035 Goal=   None    Shift=    0.000
 Gap=    -0.029 Goal=   None    Shift=    0.000
 RMSDP=1.56D+00 MaxDP=1.25D+02 DE= 1.25D+00 OVMax= 9.62D-01

 Cycle   5  Pass 1  IDiag  1:
 RMSU=  2.34D-02    CP:  7.07D-01  3.43D-02 -1.84D-01  2.28D-02
 E= -229.936444181494     Delta-E=       -1.285524690986 Rises=F Damp=F
 DIIS: error= 2.61D-02 at cycle   5 NSaved=   5.
 NSaved= 5 IEnMin= 5 EnMin= -229.936444181494     IErMin= 2 ErrMin= 9.53D-03
 ErrMax= 2.61D-02  0.00D+00 EMaxC= 1.00D-01 BMatC= 3.47D-01 BMatP= 1.19D-01
 IDIUse=2 WtCom= 0.00D+00 WtEn= 1.00D+00
 Coeff-En:   0.000D+00 0.000D+00 0.443D+00 0.000D+00 0.557D+00
 Coeff:      0.000D+00 0.000D+00 0.443D+00 0.000D+00 0.557D+00
 Gap=     0.048 Goal=   None    Shift=    0.000
 Gap=     0.095 Goal=   None    Shift=    0.000
 RMSDP=2.51D-02 MaxDP=2.66D+00 DE=-1.29D+00 OVMax= 1.59D-01

 Cycle   6  Pass 1  IDiag  1:
 RMSU=  4.90D-03    CP:  7.03D-01  5.19D-03  3.85D-01  4.53D-03  3.45D-01
 E= -230.021146309640     Delta-E=       -0.084702128146 Rises=F Damp=F
 DIIS: error= 5.59D-03 at cycle   6 NSaved=   6.
 NSaved= 6 IEnMin= 6 EnMin= -230.021146309640     IErMin= 6 ErrMin= 5.59D-03
 ErrMax= 5.59D-03  0.00D+00 EMaxC= 1.00D-01 BMatC= 3.29D-02 BMatP= 1.19D-01
 IDIUse=3 WtCom= 9.44D-01 WtEn= 5.59D-02
 Coeff-Com: -0.942D-03 0.552D-01 0.193D+00-0.123D-01 0.307D+00 0.458D+00
 Coeff-En:   0.000D+00 0.000D+00 0.000D+00 0.000D+00 0.238D-01 0.976D+00
 Coeff:     -0.890D-03 0.521D-01 0.182D+00-0.116D-01 0.291D+00 0.487D+00
 Gap=     0.056 Goal=   None    Shift=    0.000
 Gap=     0.104 Goal=   None    Shift=    0.000
 RMSDP=2.33D-03 MaxDP=2.08D-01 DE=-8.47D-02 OVMax= 3.77D-02

 Cycle   7  Pass 1  IDiag  1:
 RMSU=  7.75D-04    CP:  7.17D-01  3.10D-03  4.00D-01  3.11D-03  2.75D-01
                    CP:  9.09D-01
 E= -230.027090560826     Delta-E=       -0.005944251187 Rises=F Damp=F
 DIIS: error= 2.19D-03 at cycle   7 NSaved=   7.
 NSaved= 7 IEnMin= 7 EnMin= -230.027090560826     IErMin= 7 ErrMin= 2.19D-03
 ErrMax= 2.19D-03  0.00D+00 EMaxC= 1.00D-01 BMatC= 3.85D-03 BMatP= 3.29D-02
 IDIUse=3 WtCom= 9.78D-01 WtEn= 2.19D-02
 Coeff-Com:  0.295D-01-0.438D-01-0.214D-01-0.128D-02 0.413D-01 0.328D+00
 Coeff-Com:  0.668D+00
 Coeff-En:   0.000D+00 0.000D+00 0.000D+00 0.000D+00 0.000D+00 0.942D-01
 Coeff-En:   0.906D+00
 Coeff:      0.289D-01-0.428D-01-0.210D-01-0.126D-02 0.404D-01 0.323D+00
 Coeff:      0.673D+00
 Gap=     0.055 Goal=   None    Shift=    0.000
 Gap=     0.103 Goal=   None    Shift=    0.000
 RMSDP=1.69D-03 MaxDP=1.47D-01 DE=-5.94D-03 OVMax= 1.40D-02

 Cycle   8  Pass 1  IDiag  1:
 RMSU=  3.67D-04    CP:  7.06D-01  4.58D-03  3.50D-01  4.07D-03  3.29D-01
                    CP:  9.49D-01  5.93D-01
 E= -230.027796736667     Delta-E=       -0.000706175841 Rises=F Damp=F
 DIIS: error= 6.60D-04 at cycle   8 NSaved=   8.
 NSaved= 8 IEnMin= 8 EnMin= -230.027796736667     IErMin= 8 ErrMin= 6.60D-04
 ErrMax= 6.60D-04  0.00D+00 EMaxC= 1.00D-01 BMatC= 4.03D-04 BMatP= 3.85D-03
 IDIUse=3 WtCom= 9.93D-01 WtEn= 6.60D-03
 Coeff-Com:  0.748D-02-0.583D-02-0.507D-02-0.440D-03-0.196D-01 0.189D-01
 Coeff-Com:  0.221D+00 0.783D+00
 Coeff-En:   0.000D+00 0.000D+00 0.000D+00 0.000D+00 0.000D+00 0.000D+00
 Coeff-En:   0.000D+00 0.100D+01
 Coeff:      0.743D-02-0.580D-02-0.504D-02-0.437D-03-0.195D-01 0.188D-01
 Coeff:      0.220D+00 0.785D+00
 Gap=     0.057 Goal=   None    Shift=    0.000
 Gap=     0.105 Goal=   None    Shift=    0.000
 RMSDP=1.03D-03 MaxDP=9.46D-02 DE=-7.06D-04 OVMax= 6.15D-03

 Cycle   9  Pass 1  IDiag  1:
 RMSU=  7.36D-05    CP:  7.12D-01  3.63D-03  3.95D-01  3.41D-03  2.95D-01
                    CP:  9.32D-01  7.16D-01  9.61D-01
 E= -230.027929323412     Delta-E=       -0.000132586744 Rises=F Damp=F
 DIIS: error= 2.75D-04 at cycle   9 NSaved=   9.
 NSaved= 9 IEnMin= 9 EnMin= -230.027929323412     IErMin= 9 ErrMin= 2.75D-04
 ErrMax= 2.75D-04  0.00D+00 EMaxC= 1.00D-01 BMatC= 2.84D-05 BMatP= 4.03D-04
 IDIUse=3 WtCom= 9.97D-01 WtEn= 2.75D-03
 Coeff-Com: -0.182D-02 0.360D-02 0.212D-02-0.318D-03-0.144D-01-0.381D-01
 Coeff-Com:  0.497D-02 0.333D+00 0.711D+00
 Coeff-En:   0.000D+00 0.000D+00 0.000D+00 0.000D+00 0.000D+00 0.000D+00
 Coeff-En:   0.000D+00 0.000D+00 0.100D+01
 Coeff:     -0.181D-02 0.359D-02 0.211D-02-0.318D-03-0.143D-01-0.380D-01
 Coeff:      0.495D-02 0.332D+00 0.712D+00
 Gap=     0.058 Goal=   None    Shift=    0.000
 Gap=     0.105 Goal=   None    Shift=    0.000
 RMSDP=2.02D-04 MaxDP=1.69D-02 DE=-1.33D-04 OVMax= 2.68D-03

 Cycle  10  Pass 1  IDiag  1:
 RMSU=  2.53D-05    CP:  7.13D-01  3.45D-03  4.03D-01  3.29D-03  2.89D-01
                    CP:  9.26D-01  7.65D-01  9.44D-01  1.17D+00
 E= -230.027938733115     Delta-E=       -0.000009409703 Rises=F Damp=F
 DIIS: error= 1.47D-04 at cycle  10 NSaved=  10.
 NSaved=10 IEnMin=10 EnMin= -230.027938733115     IErMin=10 ErrMin= 1.47D-04
 ErrMax= 1.47D-04  0.00D+00 EMaxC= 1.00D-01 BMatC= 9.26D-06 BMatP= 2.84D-05
 IDIUse=3 WtCom= 9.99D-01 WtEn= 1.47D-03
 Coeff-Com: -0.262D-02 0.161D-02-0.293D-03-0.988D-04-0.133D-02-0.108D-01
 Coeff-Com: -0.422D-01-0.604D-01 0.327D+00 0.789D+00
 Coeff-En:   0.000D+00 0.000D+00 0.000D+00 0.000D+00 0.000D+00 0.000D+00
 Coeff-En:   0.000D+00 0.000D+00 0.000D+00 0.100D+01
 Coeff:     -0.261D-02 0.161D-02-0.292D-03-0.987D-04-0.133D-02-0.108D-01
 Coeff:     -0.422D-01-0.603D-01 0.326D+00 0.790D+00
 Gap=     0.058 Goal=   None    Shift=    0.000
 Gap=     0.105 Goal=   None    Shift=    0.000
 RMSDP=7.53D-05 MaxDP=7.62D-03 DE=-9.41D-06 OVMax= 1.58D-03

 Cycle  11  Pass 1  IDiag  1:
 RMSU=  1.66D-05    CP:  7.13D-01  3.52D-03  4.01D-01  3.34D-03  2.91D-01
                    CP:  9.25D-01  7.62D-01  9.63D-01  1.22D+00  1.44D+00
 E= -230.027942943465     Delta-E=       -0.000004210351 Rises=F Damp=F
 DIIS: error= 2.91D-05 at cycle  11 NSaved=  11.
 NSaved=11 IEnMin=11 EnMin= -230.027942943465     IErMin=11 ErrMin= 2.91D-05
 ErrMax= 2.91D-05  0.00D+00 EMaxC= 1.00D-01 BMatC= 5.07D-07 BMatP= 9.26D-06
 IDIUse=1 WtCom= 1.00D+00 WtEn= 0.00D+00
 Coeff-Com: -0.750D-03 0.104D-02-0.166D-03 0.159D-04 0.125D-02 0.369D-03
 Coeff-Com: -0.124D-01-0.476D-01-0.602D-01 0.719D-01 0.105D+01
 Coeff:     -0.750D-03 0.104D-02-0.166D-03 0.159D-04 0.125D-02 0.369D-03
 Coeff:     -0.124D-01-0.476D-01-0.602D-01 0.719D-01 0.105D+01
 Gap=     0.058 Goal=   None    Shift=    0.000
 Gap=     0.105 Goal=   None    Shift=    0.000
 RMSDP=2.46D-05 MaxDP=1.56D-03 DE=-4.21D-06 OVMax= 7.19D-04

 Cycle  12  Pass 1  IDiag  1:
 RMSU=  6.75D-06    CP:  7.13D-01  3.53D-03  4.00D-01  3.34D-03  2.92D-01
                    CP:  9.23D-01  7.72D-01  9.54D-01  1.21D+00  1.94D+00
                    CP:  1.68D+00
 E= -230.027943290395     Delta-E=       -0.000000346930 Rises=F Damp=F
 DIIS: error= 2.03D-05 at cycle  12 NSaved=  12.
 NSaved=12 IEnMin=12 EnMin= -230.027943290395     IErMin=12 ErrMin= 2.03D-05
 ErrMax= 2.03D-05  0.00D+00 EMaxC= 1.00D-01 BMatC= 3.12D-07 BMatP= 5.07D-07
 IDIUse=1 WtCom= 1.00D+00 WtEn= 0.00D+00
 Coeff-Com: -0.542D-04 0.180D-03-0.482D-03-0.279D-04 0.951D-03 0.218D-02
 Coeff-Com: -0.858D-03-0.166D-01-0.623D-01-0.458D-01 0.501D+00 0.621D+00
 Coeff:     -0.542D-04 0.180D-03-0.482D-03-0.279D-04 0.951D-03 0.218D-02
 Coeff:     -0.858D-03-0.166D-01-0.623D-01-0.458D-01 0.501D+00 0.621D+00
 Gap=     0.058 Goal=   None    Shift=    0.000
 Gap=     0.105 Goal=   None    Shift=    0.000
 RMSDP=3.37D-05 MaxDP=3.19D-03 DE=-3.47D-07 OVMax= 2.23D-04

 Cycle  13  Pass 1  IDiag  1:
 RMSU=  1.89D-06    CP:  7.12D-01  3.56D-03  3.98D-01  3.36D-03  2.93D-01
                    CP:  9.23D-01  7.71D-01  9.55D-01  1.19D+00  2.08D+00
                    CP:  1.91D+00  1.08D+00
 E= -230.027943390927     Delta-E=       -0.000000100532 Rises=F Damp=F
 DIIS: error= 5.17D-06 at cycle  13 NSaved=  13.
 NSaved=13 IEnMin=13 EnMin= -230.027943390927     IErMin=13 ErrMin= 5.17D-06
 ErrMax= 5.17D-06  0.00D+00 EMaxC= 1.00D-01 BMatC= 2.37D-08 BMatP= 3.12D-07
 IDIUse=1 WtCom= 1.00D+00 WtEn= 0.00D+00
 Coeff-Com:  0.158D-03-0.204D-03-0.209D-03 0.851D-05 0.215D-03 0.654D-03
 Coeff-Com:  0.840D-03 0.121D-02-0.134D-01-0.296D-01 0.302D-01 0.283D+00
 Coeff-Com:  0.727D+00
 Coeff:      0.158D-03-0.204D-03-0.209D-03 0.851D-05 0.215D-03 0.654D-03
 Coeff:      0.840D-03 0.121D-02-0.134D-01-0.296D-01 0.302D-01 0.283D+00
 Coeff:      0.727D+00
 Gap=     0.058 Goal=   None    Shift=    0.000
 Gap=     0.105 Goal=   None    Shift=    0.000
 RMSDP=1.44D-05 MaxDP=1.41D-03 DE=-1.01D-07 OVMax= 7.53D-05

 Cycle  14  Pass 1  IDiag  1:
 RMSU=  6.01D-07    CP:  7.12D-01  3.57D-03  3.97D-01  3.37D-03  2.93D-01
                    CP:  9.23D-01  7.71D-01  9.55D-01  1.18D+00  2.16D+00
                    CP:  2.05D+00  1.27D+00  1.38D+00
 E= -230.027943397424     Delta-E=       -0.000000006498 Rises=F Damp=F
 DIIS: error= 3.65D-06 at cycle  14 NSaved=  14.
 NSaved=14 IEnMin=14 EnMin= -230.027943397424     IErMin=14 ErrMin= 3.65D-06
 ErrMax= 3.65D-06  0.00D+00 EMaxC= 1.00D-01 BMatC= 4.64D-09 BMatP= 2.37D-08
 IDIUse=1 WtCom= 1.00D+00 WtEn= 0.00D+00
 Coeff-Com:  0.217D-04-0.238D-04 0.639D-04-0.235D-05-0.270D-04-0.242D-03
 Coeff-Com: -0.324D-03-0.122D-03 0.462D-02 0.592D-02-0.381D-01 0.839D-03
 Coeff-Com:  0.748D-01 0.953D+00
 Coeff:      0.217D-04-0.238D-04 0.639D-04-0.235D-05-0.270D-04-0.242D-03
 Coeff:     -0.324D-03-0.122D-03 0.462D-02 0.592D-02-0.381D-01 0.839D-03
 Coeff:      0.748D-01 0.953D+00
 Gap=     0.058 Goal=   None    Shift=    0.000
 Gap=     0.105 Goal=   None    Shift=    0.000
 RMSDP=1.91D-06 MaxDP=1.07D-04 DE=-6.50D-09 OVMax= 5.30D-05

 Cycle  15  Pass 1  IDiag  1:
 RMSU=  3.16D-07    CP:  7.12D-01  3.57D-03  3.97D-01  3.37D-03  2.93D-01
                    CP:  9.23D-01  7.71D-01  9.54D-01  1.18D+00  2.20D+00
                    CP:  2.10D+00  1.33D+00  1.68D+00  1.53D+00
 E= -230.027943399581     Delta-E=       -0.000000002157 Rises=F Damp=F
 DIIS: error= 8.80D-07 at cycle  15 NSaved=  15.
 NSaved=15 IEnMin=15 EnMin= -230.027943399581     IErMin=15 ErrMin= 8.80D-07
 ErrMax= 8.80D-07  0.00D+00 EMaxC= 1.00D-01 BMatC= 1.30D-10 BMatP= 4.64D-09
 IDIUse=1 WtCom= 1.00D+00 WtEn= 0.00D+00
 Coeff-Com: -0.117D-04 0.140D-04 0.122D-04-0.138D-05-0.150D-04 0.189D-04
 Coeff-Com:  0.147D-03-0.872D-04 0.527D-03 0.965D-03-0.182D-02-0.195D-01
 Coeff-Com: -0.560D-01-0.143D+00 0.122D+01
 Coeff:     -0.117D-04 0.140D-04 0.122D-04-0.138D-05-0.150D-04 0.189D-04
 Coeff:      0.147D-03-0.872D-04 0.527D-03 0.965D-03-0.182D-02-0.195D-01
 Coeff:     -0.560D-01-0.143D+00 0.122D+01
 Gap=     0.058 Goal=   None    Shift=    0.000
 Gap=     0.105 Goal=   None    Shift=    0.000
 RMSDP=1.07D-06 MaxDP=7.14D-05 DE=-2.16D-09 OVMax= 2.41D-05

 Cycle  16  Pass 1  IDiag  1:
 RMSU=  1.12D-07    CP:  7.12D-01  3.57D-03  3.97D-01  3.37D-03  2.93D-01
                    CP:  9.23D-01  7.72D-01  9.54D-01  1.18D+00  2.22D+00
                    CP:  2.13D+00  1.34D+00  1.87D+00  1.92D+00  1.66D+00
 E= -230.027943399723     Delta-E=       -0.000000000141 Rises=F Damp=F
 DIIS: error= 2.96D-07 at cycle  16 NSaved=  16.
 NSaved=16 IEnMin=16 EnMin= -230.027943399723     IErMin=16 ErrMin= 2.96D-07
 ErrMax= 2.96D-07  0.00D+00 EMaxC= 1.00D-01 BMatC= 2.95D-11 BMatP= 1.30D-10
 IDIUse=1 WtCom= 1.00D+00 WtEn= 0.00D+00
 Coeff-Com: -0.489D-06 0.541D-07-0.697D-05 0.258D-06 0.472D-06 0.240D-04
 Coeff-Com:  0.360D-04 0.829D-04-0.176D-03-0.560D-03 0.137D-02-0.223D-02
 Coeff-Com: -0.101D-01-0.466D-01 0.518D-01 0.101D+01
 Coeff:     -0.489D-06 0.541D-07-0.697D-05 0.258D-06 0.472D-06 0.240D-04
 Coeff:      0.360D-04 0.829D-04-0.176D-03-0.560D-03 0.137D-02-0.223D-02
 Coeff:     -0.101D-01-0.466D-01 0.518D-01 0.101D+01
 Gap=     0.058 Goal=   None    Shift=    0.000
 Gap=     0.105 Goal=   None    Shift=    0.000
 RMSDP=3.75D-07 MaxDP=3.75D-05 DE=-1.41D-10 OVMax= 4.12D-06

 Cycle  17  Pass 1  IDiag  1:
 RMSU=  3.30D-08    CP:  7.12D-01  3.57D-03  3.97D-01  3.37D-03  2.93D-01
                    CP:  9.23D-01  7.72D-01  9.54D-01  1.18D+00  2.23D+00
                    CP:  2.14D+00  1.34D+00  1.93D+00  2.03D+00  1.82D+00
                    CP:  1.54D+00
 E= -230.027943399744     Delta-E=       -0.000000000021 Rises=F Damp=F
 DIIS: error= 6.61D-08 at cycle  17 NSaved=  17.
 NSaved=17 IEnMin=17 EnMin= -230.027943399744     IErMin=17 ErrMin= 6.61D-08
 ErrMax= 6.61D-08  0.00D+00 EMaxC= 1.00D-01 BMatC= 1.34D-12 BMatP= 2.95D-11
 IDIUse=1 WtCom= 1.00D+00 WtEn= 0.00D+00
 Coeff-Com:  0.388D-07 0.809D-06-0.134D-05-0.144D-07 0.182D-05-0.837D-05
 Coeff-Com: -0.339D-04-0.661D-06-0.974D-04 0.274D-05 0.739D-03 0.219D-02
 Coeff-Com:  0.540D-02 0.168D-01-0.164D+00-0.229D-01 0.116D+01
 Coeff:      0.388D-07 0.809D-06-0.134D-05-0.144D-07 0.182D-05-0.837D-05
 Coeff:     -0.339D-04-0.661D-06-0.974D-04 0.274D-05 0.739D-03 0.219D-02
 Coeff:      0.540D-02 0.168D-01-0.164D+00-0.229D-01 0.116D+01
 Gap=     0.058 Goal=   None    Shift=    0.000
 Gap=     0.105 Goal=   None    Shift=    0.000
 RMSDP=1.04D-07 MaxDP=7.87D-06 DE=-2.09D-11 OVMax= 2.01D-06

 Cycle  18  Pass 1  IDiag  1:
 RMSU=  9.34D-09    CP:  7.12D-01  3.57D-03  3.97D-01  3.37D-03  2.93D-01
                    CP:  9.23D-01  7.72D-01  9.54D-01  1.18D+00  2.23D+00
                    CP:  2.14D+00  1.34D+00  1.96D+00  2.09D+00  1.90D+00
                    CP:  1.83D+00  1.52D+00
 E= -230.027943399744     Delta-E=       -0.000000000001 Rises=F Damp=F
 DIIS: error= 1.88D-08 at cycle  18 NSaved=  18.
 NSaved=18 IEnMin=18 EnMin= -230.027943399744     IErMin=18 ErrMin= 1.88D-08
 ErrMax= 1.88D-08  0.00D+00 EMaxC= 1.00D-01 BMatC= 1.27D-13 BMatP= 1.34D-12
 IDIUse=1 WtCom= 1.00D+00 WtEn= 0.00D+00
 Coeff-Com:  0.632D-07-0.194D-06 0.443D-06-0.892D-08 0.156D-06-0.311D-05
 Coeff-Com: -0.839D-05-0.575D-05 0.233D-04 0.615D-04-0.112D-03 0.437D-03
 Coeff-Com:  0.871D-03 0.629D-02-0.163D-01-0.918D-01 0.331D-01 0.107D+01
 Coeff:      0.632D-07-0.194D-06 0.443D-06-0.892D-08 0.156D-06-0.311D-05
 Coeff:     -0.839D-05-0.575D-05 0.233D-04 0.615D-04-0.112D-03 0.437D-03
 Coeff:      0.871D-03 0.629D-02-0.163D-01-0.918D-01 0.331D-01 0.107D+01
 Gap=     0.058 Goal=   None    Shift=    0.000
 Gap=     0.105 Goal=   None    Shift=    0.000
 RMSDP=4.36D-08 MaxDP=4.25D-06 DE=-7.96D-13 OVMax= 6.02D-07

 Cycle  19  Pass 1  IDiag  1:
 RMSU=  2.17D-09    CP:  7.12D-01  3.57D-03  3.97D-01  3.37D-03  2.93D-01
                    CP:  9.23D-01  7.72D-01  9.54D-01  1.18D+00  2.23D+00
                    CP:  2.14D+00  1.34D+00  1.96D+00  2.10D+00  1.91D+00
                    CP:  1.90D+00  1.70D+00  1.44D+00
 E= -230.027943399744     Delta-E=        0.000000000000 Rises=F Damp=F
 DIIS: error= 6.47D-09 at cycle  19 NSaved=  19.
 NSaved=19 IEnMin=18 EnMin= -230.027943399744     IErMin=19 ErrMin= 6.47D-09
 ErrMax= 6.47D-09  0.00D+00 EMaxC= 1.00D-01 BMatC= 1.94D-14 BMatP= 1.27D-13
 IDIUse=1 WtCom= 1.00D+00 WtEn= 0.00D+00
 Coeff-Com:  0.229D-07-0.385D-07 0.586D-07-0.172D-08-0.269D-07 0.506D-06
 Coeff-Com:  0.163D-05-0.115D-05-0.490D-06 0.774D-06-0.143D-04-0.398D-05
 Coeff-Com: -0.300D-03-0.161D-02 0.854D-02 0.465D-02-0.557D-01 0.731D-02
 Coeff-Com:  0.104D+01
 Coeff:      0.229D-07-0.385D-07 0.586D-07-0.172D-08-0.269D-07 0.506D-06
 Coeff:      0.163D-05-0.115D-05-0.490D-06 0.774D-06-0.143D-04-0.398D-05
 Coeff:     -0.300D-03-0.161D-02 0.854D-02 0.465D-02-0.557D-01 0.731D-02
 Coeff:      0.104D+01
 Gap=     0.058 Goal=   None    Shift=    0.000
 Gap=     0.105 Goal=   None    Shift=    0.000
 RMSDP=4.13D-09 MaxDP=2.94D-07 DE= 3.41D-13 OVMax= 1.07D-07

 SCF Done:  E(UB3LYP) =  -230.027943400     A.U. after   19 cycles
            NFock= 19  Conv=0.41D-08     -V/T= 2.0042
 <Sx>= 0.0000 <Sy>= 0.0000 <Sz>= 0.5000 <S**2>= 0.7698 S= 0.5098
 <L.S>= 0.000000000000E+00
 KE= 2.290697980558D+02 PE=-8.569941642074D+02 EE= 2.417248610285D+02
 Annihilation of the first spin contaminant:
 S**2 before annihilation     0.7698,   after     0.7501
 Leave Link  502 at Thu Mar  7 15:04:23 2019, MaxMem=    33554432 cpu:       790.4
 (Enter /home/proyectos/fulerenos/M3C-v2.0/M3C-deps_CCC/g09-AM64L-G09RevC.01/l801.exe)
 DoSCS=F DFT=T ScalE2(SS,OS)=  1.000000  1.000000
 Range of M.O.s used for correlation:     1   235
 NBasis=   235 NAE=    19 NBE=    18 NFC=     0 NFV=     0
 NROrb=    235 NOA=    19 NOB=    18 NVA=   216 NVB=   217

 **** Warning!!: The largest alpha MO coefficient is  0.11462075D+03


 **** Warning!!: The smallest alpha delta epsilon is  0.57699895D-01


 **** Warning!!: The largest beta MO coefficient is  0.11277657D+03

 Leave Link  801 at Thu Mar  7 15:04:23 2019, MaxMem=    33554432 cpu:         0.1
 (Enter /home/proyectos/fulerenos/M3C-v2.0/M3C-deps_CCC/g09-AM64L-G09RevC.01/l1101.exe)
 Using compressed storage, NAtomX=     9.
 Will process     10 centers per pass.
 Leave Link 1101 at Thu Mar  7 15:04:23 2019, MaxMem=    33554432 cpu:         1.3
 (Enter /home/proyectos/fulerenos/M3C-v2.0/M3C-deps_CCC/g09-AM64L-G09RevC.01/l1102.exe)
 Symmetrizing basis deriv contribution to polar:
 IMax=3 JMax=2 DiffMx= 0.00D+00
 Leave Link 1102 at Thu Mar  7 15:04:23 2019, MaxMem=    33554432 cpu:         0.1
 (Enter /home/proyectos/fulerenos/M3C-v2.0/M3C-deps_CCC/g09-AM64L-G09RevC.01/l1110.exe)
 Forming Gx(P) for the SCF density, NAtomX=     9.
 Integral derivatives from FoFJK, PRISM(SPDF).
 Do as many integral derivatives as possible in FoFJK.
 G2DrvN: MDV=      33554256.
 G2DrvN: will do    10 centers at a time, making    1 passes.
 Calling FoFCou, ICntrl=  3107 FMM=F I1Cent=   0 AccDes= 0.00D+00.
 FoFJK:  IHMeth= 1 ICntrl=    3107 DoSepK=F KAlg= 0 I1Cent=   0 FoldK=F
 IRaf=         0 NMat=   1 IRICut=       1 DoRegI=T DoRafI=F ISym2E= 1.
 FoFCou: FMM=F IPFlag=           0 FMFlag=      100000 FMFlg1=           0
         NFxFlg=           0 DoJE=F BraDBF=F KetDBF=F FulRan=T
         wScrn=  0.000000 ICntrl=    3107 IOpCl=  1 I1Cent=           0 NGrid=           0
         NMat0=    1 NMatS0=      1 NMatT0=    0 NMatD0=    1 NMtDS0=    0 NMtDT0=    0
 Petite list used in FoFCou.
 End of G2Drv F.D. properties file   721 does not exist.
 End of G2Drv F.D. properties file   722 does not exist.
 End of G2Drv F.D. properties file   788 does not exist.
 Leave Link 1110 at Thu Mar  7 15:05:59 2019, MaxMem=    33554432 cpu:       382.6
 (Enter /home/proyectos/fulerenos/M3C-v2.0/M3C-deps_CCC/g09-AM64L-G09RevC.01/l1002.exe)
 Minotr:  UHF open shell wavefunction.
          IDoAtm=111111111
          Direct CPHF calculation.
          Differentiating once with respect to electric field.
                with respect to dipole field.
          Differentiating once with respect to nuclear coordinates.
          Using symmetry in CPHF.
          Requested convergence is 1.0D-08 RMS, and 1.0D-07 maximum.
          Secondary convergence is 1.0D-12 RMS, and 1.0D-12 maximum.
          NewPWx=T KeepS1=F KeepF1=F KeepIn=T MapXYZ=F SortEE=F KeepMc=T.
          MDV=      33553868 using IRadAn=       2.
 Generate precomputed XC quadrature information.
          Solving linear equations simultaneously, MaxMat=       0.
 FoFJK:  IHMeth= 1 ICntrl=       0 DoSepK=F KAlg= 0 I1Cent=   0 FoldK=F
 IRaf= 990000000 NMat=  27 IRICut=      67 DoRegI=T DoRafI=T ISym2E= 2.
 FoFCou: FMM=F IPFlag=           0 FMFlag=      100000 FMFlg1=           0
         NFxFlg=           0 DoJE=F BraDBF=F KetDBF=F FulRan=T
         wScrn=  0.000000 ICntrl=       0 IOpCl=  1 I1Cent=           0 NGrid=           0
         NMat0=   27 NMatS0=     27 NMatT0=    0 NMatD0=   27 NMtDS0=    0 NMtDT0=    0
 Integrals replicated using symmetry in FoFCou.
          There are    27 degrees of freedom in the 1st order CPHF.  IDoFFX=4 NUNeed=    27.
     27 vectors produced by pass  0 Test12= 2.97D-14 3.70D-09 XBig12= 3.17D+02 9.39D+00.
 AX will form    27 AO Fock derivatives at one time.
     27 vectors produced by pass  1 Test12= 2.97D-14 3.70D-09 XBig12= 1.33D+02 3.63D+00.
     27 vectors produced by pass  2 Test12= 2.97D-14 3.70D-09 XBig12= 3.61D+00 6.29D-01.
     27 vectors produced by pass  3 Test12= 2.97D-14 3.70D-09 XBig12= 8.46D-02 1.01D-01.
     27 vectors produced by pass  4 Test12= 2.97D-14 3.70D-09 XBig12= 6.73D-04 6.29D-03.
     27 vectors produced by pass  5 Test12= 2.97D-14 3.70D-09 XBig12= 5.63D-06 3.68D-04.
     27 vectors produced by pass  6 Test12= 2.97D-14 3.70D-09 XBig12= 4.01D-08 2.94D-05.
     17 vectors produced by pass  7 Test12= 2.97D-14 3.70D-09 XBig12= 2.30D-10 2.46D-06.
      4 vectors produced by pass  8 Test12= 2.97D-14 3.70D-09 XBig12= 1.52D-12 1.53D-07.
      4 vectors produced by pass  9 Test12= 2.97D-14 3.70D-09 XBig12= 1.18D-13 7.48D-08.
      2 vectors produced by pass 10 Test12= 2.97D-14 3.70D-09 XBig12= 2.39D-15 1.02D-08.
 InvSVY:  IOpt=1 It=  1 EMax= 5.33D-15
 Solved reduced A of dimension   216 with    27 vectors.
 FullF1:  Do perturbations    1 to    27.
 Isotropic polarizability for W=    0.000000       93.41 Bohr**3.
 End of Minotr F.D. properties file   721 does not exist.
 End of Minotr F.D. properties file   722 does not exist.
 End of Minotr F.D. properties file   788 does not exist.
 Leave Link 1002 at Thu Mar  7 15:14:14 2019, MaxMem=    33554432 cpu:      1982.0
 (Enter /home/proyectos/fulerenos/M3C-v2.0/M3C-deps_CCC/g09-AM64L-G09RevC.01/l601.exe)
 Copying SCF densities to generalized density rwf, IOpCl= 1 IROHF=0.

 **********************************************************************

            Population analysis using the SCF density.

 **********************************************************************

 Orbital symmetries:
 Alpha Orbitals:
       Occupied  (A') (A') (A') (A') (A') (A') (A') (A') (A') (A')
                 (A') (A") (A') (A') (A") (A') (A") (A') (A")
       Virtual   (A') (A') (A') (A") (A') (A') (A") (A') (A") (A')
                 (A") (A') (A') (A') (A') (A') (A") (A') (A") (A')
                 (A') (A') (A") (A') (A') (A") (A') (A') (A') (A')
                 (A') (A') (A") (A') (A") (A') (A') (A") (A') (A')
                 (A") (A') (A") (A') (A') (A') (A') (A") (A') (A")
                 (A') (A") (A") (A') (A') (A") (A") (A') (A') (A')
                 (A') (A') (A') (A") (A') (A") (A') (A') (A") (A')
                 (A") (A') (A') (A") (A') (A') (A") (A') (A") (A')
                 (A") (A') (A") (A') (A") (A') (A') (A') (A') (A')
                 (A") (A') (A") (A') (A') (A") (A') (A") (A') (A')
                 (A') (A') (A") (A') (A') (A") (A") (A') (A') (A")
                 (A') (A') (A') (A') (A') (A') (A") (A') (A") (A")
                 (A") (A') (A') (A") (A") (A') (A") (A") (A') (A")
                 (A") (A') (A') (A') (A') (A") (A') (A") (A') (A')
                 (A') (A') (A') (A") (A') (A") (A') (A") (A') (A')
                 (A') (A") (A') (A') (A") (A') (A') (A") (A') (A')
                 (A') (A") (A") (A') (A") (A") (A') (A') (A") (A')
                 (A') (A") (A') (A") (A') (A") (A') (A') (A') (A")
                 (A') (A") (A') (A') (A') (A') (A") (A") (A") (A')
                 (A") (A') (A') (A") (A") (A') (A") (A') (A') (A')
                 (A") (A') (A') (A') (A') (A') (A") (A") (A') (A')
                 (A') (A') (A') (A') (A') (A')
 Beta  Orbitals:
       Occupied  (A') (A') (A') (A') (A') (A') (A') (A') (A') (A')
                 (A') (A") (A') (A') (A') (A") (A") (A')
       Virtual   (A') (A') (A') (A") (A") (A') (A') (A") (A') (A")
                 (A') (A') (A") (A') (A') (A') (A') (A") (A') (A')
                 (A") (A') (A') (A") (A') (A') (A") (A') (A') (A')
                 (A') (A') (A') (A") (A') (A') (A") (A') (A") (A')
                 (A') (A") (A') (A") (A') (A') (A') (A') (A") (A')
                 (A") (A') (A") (A") (A') (A') (A") (A") (A') (A')
                 (A') (A') (A') (A') (A") (A') (A") (A') (A') (A")
                 (A') (A") (A') (A') (A") (A') (A') (A") (A') (A")
                 (A') (A") (A') (A") (A') (A") (A') (A') (A') (A')
                 (A') (A') (A") (A") (A') (A') (A") (A') (A") (A')
                 (A') (A') (A') (A") (A') (A') (A") (A") (A') (A')
                 (A") (A') (A') (A') (A') (A') (A') (A") (A') (A")
                 (A") (A') (A") (A') (A") (A") (A') (A") (A") (A')
                 (A") (A") (A') (A') (A') (A') (A") (A') (A") (A')
                 (A') (A') (A') (A") (A') (A') (A") (A') (A") (A')
                 (A') (A') (A") (A') (A') (A") (A') (A') (A") (A')
                 (A') (A') (A") (A") (A') (A") (A") (A') (A') (A")
                 (A') (A') (A") (A') (A") (A') (A") (A') (A') (A')
                 (A") (A') (A") (A') (A') (A') (A') (A") (A") (A")
                 (A') (A") (A') (A') (A") (A") (A') (A") (A') (A')
                 (A') (A") (A') (A') (A') (A') (A') (A") (A") (A')
                 (A') (A') (A') (A') (A') (A') (A')
 The electronic state is 2-A".
 Alpha  occ. eigenvalues --  -18.95860 -10.02787 -10.02464  -9.96444  -9.93021
 Alpha  occ. eigenvalues --   -0.86273  -0.57816  -0.53751  -0.39208  -0.35543
 Alpha  occ. eigenvalues --   -0.30049  -0.28110  -0.23698  -0.17335  -0.17110
 Alpha  occ. eigenvalues --   -0.15817  -0.08069  -0.00358   0.05449
 Alpha virt. eigenvalues --    0.11219   0.12719   0.13531   0.14513   0.18272
 Alpha virt. eigenvalues --    0.18715   0.20306   0.21202   0.21695   0.23120
 Alpha virt. eigenvalues --    0.23590   0.23785   0.25322   0.25742   0.26633
 Alpha virt. eigenvalues --    0.26968   0.28334   0.29345   0.29526   0.29632
 Alpha virt. eigenvalues --    0.32412   0.33781   0.35282   0.38313   0.38669
 Alpha virt. eigenvalues --    0.40153   0.40458   0.42044   0.44805   0.45387
 Alpha virt. eigenvalues --    0.45846   0.50747   0.54072   0.54412   0.57839
 Alpha virt. eigenvalues --    0.58192   0.59526   0.60721   0.60983   0.63131
 Alpha virt. eigenvalues --    0.64335   0.65408   0.65831   0.69171   0.71352
 Alpha virt. eigenvalues --    0.72889   0.73233   0.73853   0.75497   0.75584
 Alpha virt. eigenvalues --    0.79643   0.81232   0.83035   0.83298   0.86018
 Alpha virt. eigenvalues --    0.87386   0.89451   0.92986   0.93725   0.97282
 Alpha virt. eigenvalues --    0.98325   0.99374   1.01470   1.03418   1.04220
 Alpha virt. eigenvalues --    1.09309   1.10198   1.12827   1.13618   1.19861
 Alpha virt. eigenvalues --    1.22299   1.22569   1.26743   1.29994   1.33255
 Alpha virt. eigenvalues --    1.34565   1.35436   1.37006   1.40070   1.40580
 Alpha virt. eigenvalues --    1.42504   1.43949   1.45538   1.46636   1.48020
 Alpha virt. eigenvalues --    1.49312   1.52953   1.55064   1.56546   1.59877
 Alpha virt. eigenvalues --    1.62494   1.63071   1.68736   1.70494   1.72228
 Alpha virt. eigenvalues --    1.82150   1.86119   1.96581   1.99897   2.00623
 Alpha virt. eigenvalues --    2.04984   2.08006   2.12249   2.16144   2.21334
 Alpha virt. eigenvalues --    2.23428   2.28849   2.34230   2.36909   2.41520
 Alpha virt. eigenvalues --    2.49242   2.53068   2.56867   2.62885   2.74325
 Alpha virt. eigenvalues --    2.79207   2.81203   2.91148   2.92745   2.96890
 Alpha virt. eigenvalues --    3.03240   3.03963   3.06389   3.08955   3.10381
 Alpha virt. eigenvalues --    3.11435   3.14681   3.17979   3.20533   3.24803
 Alpha virt. eigenvalues --    3.27185   3.28991   3.35602   3.40522   3.42808
 Alpha virt. eigenvalues --    3.44185   3.44248   3.47421   3.52330   3.59262
 Alpha virt. eigenvalues --    3.61954   3.68483   3.69066   3.69134   3.79245
 Alpha virt. eigenvalues --    3.81622   3.85461   3.94440   3.98821   4.00150
 Alpha virt. eigenvalues --    4.07371   4.08814   4.15378   4.26766   4.27570
 Alpha virt. eigenvalues --    4.33378   4.33821   4.39476   4.47296   4.47892
 Alpha virt. eigenvalues --    4.51119   4.58852   4.61628   4.65007   4.65966
 Alpha virt. eigenvalues --    4.72417   4.79610   4.84621   4.85070   4.89530
 Alpha virt. eigenvalues --    5.21651   5.32876   5.42295   5.52479   5.54613
 Alpha virt. eigenvalues --    5.67771   5.71788   5.74933   5.84957   5.94897
 Alpha virt. eigenvalues --    6.03297   6.05765   6.27817   6.37341   6.47308
 Alpha virt. eigenvalues --    6.83519   7.27148   7.32252   7.37210   7.42061
 Alpha virt. eigenvalues --    7.48101   7.48319   7.51591   7.67128   7.68968
 Alpha virt. eigenvalues --    7.73572   7.87752   7.93037   7.94600   8.12035
 Alpha virt. eigenvalues --    8.25741   8.29019   8.35477   8.49853   8.68387
 Alpha virt. eigenvalues --    8.80103  14.58791  14.68046  14.70902  14.93301
 Alpha virt. eigenvalues --   15.27916  24.24232  24.71322  25.17639  25.63739
 Alpha virt. eigenvalues --   50.40617
  Beta  occ. eigenvalues --  -18.95498 -10.02859 -10.01675  -9.96676  -9.92349
  Beta  occ. eigenvalues --   -0.85527  -0.57113  -0.52957  -0.38038  -0.35115
  Beta  occ. eigenvalues --   -0.29527  -0.26992  -0.23221  -0.17121  -0.15416
  Beta  occ. eigenvalues --   -0.14812  -0.06119   0.00714
  Beta virt. eigenvalues --    0.11210   0.12723   0.13488   0.13922   0.15342
  Beta virt. eigenvalues --    0.18227   0.18708   0.20960   0.21183   0.22698
  Beta virt. eigenvalues --    0.23068   0.23956   0.24360   0.25288   0.25848
  Beta virt. eigenvalues --    0.26650   0.27075   0.28353   0.29284   0.29748
  Beta virt. eigenvalues --    0.30787   0.32568   0.33893   0.36012   0.38487
  Beta virt. eigenvalues --    0.38834   0.40308   0.41157   0.42117   0.44986
  Beta virt. eigenvalues --    0.45461   0.45898   0.51107   0.54496   0.54634
  Beta virt. eigenvalues --    0.58717   0.58850   0.59841   0.61194   0.61238
  Beta virt. eigenvalues --    0.63746   0.65271   0.65555   0.66628   0.69380
  Beta virt. eigenvalues --    0.71802   0.73409   0.73880   0.74399   0.75527
  Beta virt. eigenvalues --    0.77231   0.79914   0.81781   0.83520   0.83662
  Beta virt. eigenvalues --    0.86336   0.88259   0.90249   0.93165   0.94026
  Beta virt. eigenvalues --    0.97434   0.98483   0.99468   1.01775   1.04216
  Beta virt. eigenvalues --    1.04309   1.09736   1.10567   1.13130   1.14017
  Beta virt. eigenvalues --    1.20038   1.22744   1.22814   1.27133   1.30467
  Beta virt. eigenvalues --    1.33626   1.34906   1.35768   1.37212   1.40645
  Beta virt. eigenvalues --    1.40909   1.43123   1.44222   1.46216   1.46830
  Beta virt. eigenvalues --    1.48537   1.49611   1.53344   1.55307   1.56761
  Beta virt. eigenvalues --    1.60689   1.63526   1.63903   1.69403   1.70700
  Beta virt. eigenvalues --    1.72713   1.83548   1.86922   1.98432   2.00494
  Beta virt. eigenvalues --    2.01131   2.05226   2.08284   2.13286   2.17064
  Beta virt. eigenvalues --    2.23035   2.24630   2.29514   2.34422   2.37369
  Beta virt. eigenvalues --    2.42718   2.49347   2.53864   2.57148   2.63113
  Beta virt. eigenvalues --    2.74925   2.79627   2.81824   2.91591   2.94345
  Beta virt. eigenvalues --    2.98813   3.04764   3.04928   3.06891   3.09347
  Beta virt. eigenvalues --    3.11669   3.11748   3.16941   3.18817   3.20638
  Beta virt. eigenvalues --    3.25038   3.29595   3.29898   3.35868   3.41841
  Beta virt. eigenvalues --    3.43129   3.45247   3.45338   3.47997   3.53056
  Beta virt. eigenvalues --    3.59777   3.62881   3.69643   3.69730   3.70606
  Beta virt. eigenvalues --    3.79849   3.82449   3.85467   3.95453   3.99091
  Beta virt. eigenvalues --    4.00565   4.07733   4.09988   4.15728   4.27187
  Beta virt. eigenvalues --    4.28656   4.33415   4.34219   4.39993   4.47638
  Beta virt. eigenvalues --    4.48272   4.51550   4.59617   4.62611   4.65245
  Beta virt. eigenvalues --    4.66788   4.72866   4.80011   4.84922   4.85879
  Beta virt. eigenvalues --    4.89714   5.22105   5.34291   5.42450   5.53127
  Beta virt. eigenvalues --    5.55047   5.68503   5.72196   5.75324   5.85200
  Beta virt. eigenvalues --    5.95558   6.03919   6.06834   6.28019   6.37538
  Beta virt. eigenvalues --    6.47450   6.83808   7.28618   7.33600   7.39175
  Beta virt. eigenvalues --    7.42057   7.50586   7.50590   7.54435   7.68041
  Beta virt. eigenvalues --    7.70885   7.75414   7.88736   7.93666   7.95017
  Beta virt. eigenvalues --    8.12106   8.26046   8.29163   8.35753   8.50061
  Beta virt. eigenvalues --    8.68577   8.80309  14.60219  14.69429  14.71895
  Beta virt. eigenvalues --   14.94188  15.28099  24.24547  24.71432  25.18467
  Beta virt. eigenvalues --   25.63836  50.40973
          Condensed to atoms (all electrons):
               1          2          3          4          5          6
     1  C    5.917100  -0.301151   0.065540  -0.078558  -0.059920   0.409217
     2  C   -0.301151   5.253389   0.227031   0.084214  -0.064879   0.024803
     3  O    0.065540   0.227031   8.934413  -0.125989  -0.126917  -0.057978
     4  C   -0.078558   0.084214  -0.125989   6.975570  -0.352261   0.094260
     5  C   -0.059920  -0.064879  -0.126917  -0.352261   6.654624  -0.220844
     6  H    0.409217   0.024803  -0.057978   0.094260  -0.220844   0.620487
     7  H    0.053961   0.366146  -0.102646  -0.135763   0.040160  -0.006549
     8  H    0.053961   0.366146  -0.102646  -0.135763   0.040160  -0.006549
     9  H   -0.085430   0.026127   0.013689  -0.105528   0.454361  -0.011061
               7          8          9
     1  C    0.053961   0.053961  -0.085430
     2  C    0.366146   0.366146   0.026127
     3  O   -0.102646  -0.102646   0.013689
     4  C   -0.135763  -0.135763  -0.105528
     5  C    0.040160   0.040160   0.454361
     6  H   -0.006549  -0.006549  -0.011061
     7  H    1.185259  -0.436656   0.001547
     8  H   -0.436656   1.185259   0.001547
     9  H    0.001547   0.001547   0.662334
          Atomic-Atomic Spin Densities.
               1          2          3          4          5          6
     1  C    1.032202  -0.119645  -0.183096  -0.166828   0.010605  -0.011971
     2  C   -0.119645   0.025876   0.052669   0.029595   0.042625   0.011617
     3  O   -0.183096   0.052669   0.214178   0.073245  -0.004057   0.006678
     4  C   -0.166828   0.029595   0.073245   0.756622   0.095602  -0.053242
     5  C    0.010605   0.042625  -0.004057   0.095602  -0.501831   0.069480
     6  H   -0.011971   0.011617   0.006678  -0.053242   0.069480  -0.066408
     7  H    0.068009  -0.081880  -0.042951  -0.059919  -0.021584   0.001314
     8  H    0.068009  -0.081880  -0.042951  -0.059919  -0.021584   0.001314
     9  H   -0.002528  -0.003440  -0.002017   0.011036  -0.015929   0.007422
               7          8          9
     1  C    0.068009   0.068009  -0.002528
     2  C   -0.081880  -0.081880  -0.003440
     3  O   -0.042951  -0.042951  -0.002017
     4  C   -0.059919  -0.059919   0.011036
     5  C   -0.021584  -0.021584  -0.015929
     6  H    0.001314   0.001314   0.007422
     7  H    0.569331  -0.374093  -0.000830
     8  H   -0.374093   0.569331  -0.000830
     9  H   -0.000830  -0.000830   0.004601
 Mulliken charges and spin densities:
               1          2
     1  C    0.025279   0.694758
     2  C    0.018176  -0.124462
     3  O   -0.724497   0.071698
     4  C   -0.220182   0.626192
     5  C   -0.364484  -0.346673
     6  H    0.154214  -0.033794
     7  H    0.034541   0.057398
     8  H    0.034541   0.057398
     9  H    0.042413  -0.002515
 Sum of Mulliken charges =  -1.00000   1.00000
 Mulliken charges and spin densities with hydrogens summed into heavy atoms:
               1          2
     1  C    0.179493   0.660964
     2  C    0.087257  -0.009667
     3  O   -0.724497   0.071698
     4  C   -0.220182   0.626192
     5  C   -0.322071  -0.349187
 APT charges:
               1
     1  C   -0.037797
     2  C    0.584384
     3  O   -0.588627
     4  C   -0.641881
     5  C    0.101839
     6  H   -0.018803
     7  H   -0.178828
     8  H   -0.178828
     9  H   -0.041461
 Sum of APT charges =  -1.00000
 APT charges with hydrogens summed into heavy atoms:
               1
     1  C   -0.056600
     2  C    0.226728
     3  O   -0.588627
     4  C   -0.641881
     5  C    0.060379
 Electronic spatial extent (au):  <R**2>=            328.5538
 Charge=             -1.0000 electrons
 Dipole moment (field-independent basis, Debye):
    X=              3.5170    Y=             -1.7441    Z=              0.0000  Tot=              3.9257
 Quadrupole moment (field-independent basis, Debye-Ang):
   XX=            -47.7804   YY=            -39.3700   ZZ=            -36.9810
   XY=              6.3964   XZ=             -0.0000   YZ=             -0.0000
 Traceless Quadrupole moment (field-independent basis, Debye-Ang):
   XX=             -6.4033   YY=              2.0072   ZZ=              4.3961
   XY=              6.3964   XZ=             -0.0000   YZ=             -0.0000
 Octapole moment (field-independent basis, Debye-Ang**2):
  XXX=             38.3513  YYY=             -8.1137  ZZZ=              0.0000  XYY=              6.0406
  XXY=            -12.1391  XXZ=              0.0000  XZZ=              3.3875  YZZ=             -6.5116
  YYZ=              0.0000  XYZ=              0.0000
 Hexadecapole moment (field-independent basis, Debye-Ang**3):
 XXXX=           -326.1611 YYYY=           -237.6611 ZZZZ=            -70.2873 XXXY=             22.6504
 XXXZ=             -0.0000 YYYX=              6.0310 YYYZ=              0.0000 ZZZX=              0.0000
 ZZZY=             -0.0000 XXYY=            -97.7625 XXZZ=            -64.7668 YYZZ=            -54.8030
 XXYZ=             -0.0000 YYXZ=             -0.0000 ZZXY=              0.8572
 N-N= 1.561715617234D+02 E-N=-8.569941648276D+02  KE= 2.290697980558D+02
 Symmetry A'   KE= 2.193966515125D+02
 Symmetry A"   KE= 9.673146543284D+00
  Exact polarizability: 114.477   1.072  82.780  -0.000   0.000  82.959
 Approx polarizability: 148.347   0.928 109.912  -0.000  -0.000  94.593
                          Isotropic Fermi Contact Couplings
        Atom                 a.u.       MegaHertz       Gauss      10(-4) cm-1
     1  C(13)              0.03554      39.95325      14.25631      13.32697
     2  C(13)             -0.02263     -25.44019      -9.07769      -8.48593
     3  O(17)              0.01929     -11.69406      -4.17273      -3.90072
     4  C(13)              0.04066      45.70742      16.30954      15.24635
     5  C(13)             -0.02682     -30.15353     -10.75953     -10.05813
     6  H(1)              -0.00856     -38.27764     -13.65841     -12.76805
     7  H(1)               0.01807      80.78041      28.82446      26.94544
     8  H(1)               0.01807      80.78041      28.82446      26.94544
     9  H(1)               0.00124       5.56022       1.98403       1.85469
 --------------------------------------------------------
       Center         ----  Spin Dipole Couplings  ----
                      3XX-RR        3YY-RR        3ZZ-RR
 --------------------------------------------------------
     1   Atom       -0.325287     -0.339133      0.664420
     2   Atom        0.006411      0.009259     -0.015670
     3   Atom       -0.289362     -0.320633      0.609995
     4   Atom       -0.258864     -0.276571      0.535436
     5   Atom        0.088551      0.067035     -0.155586
     6   Atom        0.035781     -0.044424      0.008643
     7   Atom       -0.000910      0.005333     -0.004424
     8   Atom       -0.000910      0.005333     -0.004424
     9   Atom        0.007960      0.000774     -0.008734
 --------------------------------------------------------
                        XY            XZ            YZ
 --------------------------------------------------------
     1   Atom        0.003546      0.000000      0.000000
     2   Atom       -0.001448     -0.000000     -0.000000
     3   Atom       -0.006584     -0.000000      0.000000
     4   Atom       -0.007633     -0.000000      0.000000
     5   Atom        0.002495      0.000000     -0.000000
     6   Atom        0.013031      0.000000      0.000000
     7   Atom        0.002342      0.001837      0.004041
     8   Atom        0.002342     -0.001837     -0.004041
     9   Atom       -0.001566     -0.000000      0.000000
 --------------------------------------------------------


 ---------------------------------------------------------------------------------
              Anisotropic Spin Dipole Couplings in Principal Axis System
 ---------------------------------------------------------------------------------

       Atom             a.u.   MegaHertz   Gauss  10(-4) cm-1        Axes

              Baa    -0.3400   -45.623   -16.279   -15.218 -0.2345  0.9721 -0.0000
     1 C(13)  Bbb    -0.3244   -43.536   -15.535   -14.522  0.9721  0.2345 -0.0000
              Bcc     0.6644    89.159    31.814    29.740  0.0000  0.0000  1.0000
 
              Baa    -0.0157    -2.103    -0.750    -0.701  0.0000  0.0000  1.0000
     2 C(13)  Bbb     0.0058     0.779     0.278     0.260  0.9223  0.3865 -0.0000
              Bcc     0.0099     1.324     0.472     0.442 -0.3865  0.9223 -0.0000
 
              Baa    -0.3220    23.297     8.313     7.771  0.1980  0.9802 -0.0000
     3 O(17)  Bbb    -0.2880    20.842     7.437     6.952  0.9802 -0.1980  0.0000
              Bcc     0.6100   -44.139   -15.750   -14.723 -0.0000  0.0000  1.0000
 
              Baa    -0.2794   -37.494   -13.379   -12.507  0.3483  0.9374 -0.0000
     4 C(13)  Bbb    -0.2560   -34.357   -12.259   -11.460  0.9374 -0.3483  0.0000
              Bcc     0.5354    71.850    25.638    23.967 -0.0000  0.0000  1.0000
 
              Baa    -0.1556   -20.878    -7.450    -6.964 -0.0000  0.0000  1.0000
     5 C(13)  Bbb     0.0667     8.957     3.196     2.988 -0.1137  0.9935 -0.0000
              Bcc     0.0888    11.921     4.254     3.976  0.9935  0.1137  0.0000
 
              Baa    -0.0465   -24.804    -8.851    -8.274 -0.1564  0.9877 -0.0000
     6 H(1)   Bbb     0.0086     4.612     1.646     1.538 -0.0000  0.0000  1.0000
              Bcc     0.0378    20.192     7.205     6.735  0.9877  0.1564  0.0000
 
              Baa    -0.0061    -3.240    -1.156    -1.081 -0.2013 -0.2902  0.9356
     7 H(1)   Bbb    -0.0016    -0.880    -0.314    -0.294  0.9281 -0.3619  0.0874
              Bcc     0.0077     4.120     1.470     1.374  0.3132  0.8859  0.3421
 
              Baa    -0.0061    -3.240    -1.156    -1.081  0.2013  0.2902  0.9356
     8 H(1)   Bbb    -0.0016    -0.880    -0.314    -0.294  0.9281 -0.3619 -0.0874
              Bcc     0.0077     4.120     1.470     1.374  0.3132  0.8859 -0.3421
 
              Baa    -0.0087    -4.660    -1.663    -1.554  0.0000 -0.0000  1.0000
     9 H(1)   Bbb     0.0004     0.239     0.085     0.080  0.2041  0.9789 -0.0000
              Bcc     0.0083     4.421     1.578     1.475  0.9789 -0.2041 -0.0000
 

 ---------------------------------------------------------------------------------

 No NMR shielding tensors so no spin-rotation constants.
 Leave Link  601 at Thu Mar  7 15:14:15 2019, MaxMem=    33554432 cpu:         2.5
 (Enter /home/proyectos/fulerenos/M3C-v2.0/M3C-deps_CCC/g09-AM64L-G09RevC.01/l701.exe)
 Compute integral second derivatives.
 ... and contract with generalized density number  0.
 Leave Link  701 at Thu Mar  7 15:14:15 2019, MaxMem=    33554432 cpu:         1.6
 (Enter /home/proyectos/fulerenos/M3C-v2.0/M3C-deps_CCC/g09-AM64L-G09RevC.01/l702.exe)
 L702 exits ... SP integral derivatives will be done elsewhere.
 Leave Link  702 at Thu Mar  7 15:14:15 2019, MaxMem=    33554432 cpu:         0.0
 (Enter /home/proyectos/fulerenos/M3C-v2.0/M3C-deps_CCC/g09-AM64L-G09RevC.01/l703.exe)
 Compute integral second derivatives, UseDBF=F ICtDFT=           0.
 Integral derivatives from FoFJK, PRISM(SPDF).
 Calling FoFJK, ICntrl=    100127 FMM=F ISym2X=1 I1Cent= 0 IOpClX= 1 NMat=1 NMatS=1 NMatT=0.
 FoFJK:  IHMeth= 1 ICntrl=  100127 DoSepK=F KAlg= 0 I1Cent=   0 FoldK=F
 IRaf=         0 NMat=   1 IRICut=       1 DoRegI=T DoRafI=F ISym2E= 1.
 FoFCou: FMM=F IPFlag=           0 FMFlag=      100000 FMFlg1=         800
         NFxFlg=           0 DoJE=F BraDBF=F KetDBF=F FulRan=T
         wScrn=  0.000000 ICntrl=  100127 IOpCl=  1 I1Cent=           0 NGrid=           0
         NMat0=    1 NMatS0=      1 NMatT0=    0 NMatD0=    1 NMtDS0=    0 NMtDT0=    0
 Petite list used in FoFCou.
 Leave Link  703 at Thu Mar  7 15:16:49 2019, MaxMem=    33554432 cpu:       615.1
 (Enter /home/proyectos/fulerenos/M3C-v2.0/M3C-deps_CCC/g09-AM64L-G09RevC.01/l716.exe)
 Dipole        = 1.38367912D+00-6.86183573D-01 1.92735059D-15
 Polarizability= 1.14477170D+02 1.07247915D+00 8.27804697D+01
                -2.18526136D-06 4.65615197D-07 8.29591726D+01
 Full mass-weighted force constant matrix:
 Low frequencies ---  -19.4265  -11.8490  -10.1688   -0.0007   -0.0004    0.0002
 Low frequencies ---  175.3091  341.3863  503.0111
 Diagonal vibrational polarizability:
        6.4380219       3.8732534      16.4256328
 Harmonic frequencies (cm**-1), IR intensities (KM/Mole), Raman scattering
 activities (A**4/AMU), depolarization ratios for plane and unpolarized
 incident light, reduced masses (AMU), force constants (mDyne/A),
 and normal coordinates:
                      1                      2                      3
                     A"                     A"                     A"
 Frequencies --    175.2465               341.3738               503.0103
 Red. masses --      2.5904                 1.1335                 4.1722
 Frc consts  --      0.0469                 0.0778                 0.6220
 IR Inten    --      4.6446                43.0515                 7.4563
  Atom  AN      X      Y      Z        X      Y      Z        X      Y      Z
     1   6    -0.00  -0.00  -0.20     0.00  -0.00  -0.09     0.00  -0.00  -0.31
     2   6     0.00  -0.00  -0.13     0.00   0.00   0.04     0.00   0.00  -0.00
     3   8    -0.00   0.00   0.19    -0.00  -0.00  -0.04     0.00  -0.00   0.14
     4   6     0.00   0.00   0.18     0.00   0.00  -0.01    -0.00   0.00  -0.24
     5   6    -0.00   0.00  -0.05    -0.00  -0.00   0.01    -0.00  -0.00   0.33
     6   1    -0.00  -0.00   0.21     0.00  -0.00   0.97     0.00   0.00  -0.41
     7   1     0.22   0.37  -0.47    -0.05  -0.08   0.12     0.07  -0.28   0.15
     8   1    -0.22  -0.37  -0.47     0.05   0.08   0.12    -0.07   0.28   0.15
     9   1    -0.00  -0.00  -0.08    -0.00   0.00   0.06    -0.00   0.00   0.58
                      4                      5                      6
                     A'                     A'                     A"
 Frequencies --    633.9701               774.3860               833.0702
 Red. masses --      8.7865                 7.5800                 1.3021
 Frc consts  --      2.0807                 2.6782                 0.5324
 IR Inten    --     56.5585                 6.9875                 4.6893
  Atom  AN      X      Y      Z        X      Y      Z        X      Y      Z
     1   6     0.03  -0.08  -0.00    -0.19  -0.14   0.00    -0.00  -0.00   0.01
     2   6    -0.46   0.21   0.00     0.46   0.11   0.00     0.00  -0.00  -0.05
     3   8     0.52  -0.12   0.00     0.07  -0.27  -0.00    -0.00   0.00   0.03
     4   6    -0.17   0.10   0.00    -0.28   0.33  -0.00    -0.00   0.00   0.05
     5   6    -0.08  -0.13  -0.00    -0.15   0.02   0.00     0.00  -0.00  -0.14
     6   1    -0.06   0.55   0.00    -0.22   0.04  -0.00    -0.00  -0.00  -0.04
     7   1    -0.10   0.14  -0.05     0.31   0.19   0.02    -0.01  -0.21   0.09
     8   1    -0.10   0.14   0.05     0.31   0.19  -0.02     0.01   0.21   0.09
     9   1     0.07  -0.14   0.00     0.33  -0.02  -0.00     0.00  -0.00   0.93
                      7                      8                      9
                     A'                     A'                     A"
 Frequencies --    852.8612               935.5436               938.6856
 Red. masses --      7.2734                 2.8315                 1.5858
 Frc consts  --      3.1170                 1.4601                 0.8233
 IR Inten    --     19.5421                64.2119                12.9504
  Atom  AN      X      Y      Z        X      Y      Z        X      Y      Z
     1   6    -0.33   0.07  -0.00     0.08  -0.01   0.00     0.00  -0.00  -0.00
     2   6    -0.08  -0.18  -0.00     0.07   0.26  -0.00     0.00   0.00   0.19
     3   8     0.12  -0.26   0.00    -0.03  -0.10   0.00    -0.00  -0.00  -0.04
     4   6     0.34  -0.02   0.00     0.13  -0.16   0.00     0.00  -0.00  -0.11
     5   6    -0.00   0.44  -0.00    -0.17  -0.01   0.00    -0.00  -0.00  -0.03
     6   1    -0.33   0.13   0.00     0.10  -0.12  -0.00     0.00  -0.00  -0.01
     7   1    -0.26  -0.03  -0.02    -0.15   0.40  -0.01     0.13   0.55  -0.21
     8   1    -0.26  -0.03   0.02    -0.15   0.40   0.01    -0.13  -0.55  -0.21
     9   1    -0.06   0.44   0.00    -0.67   0.04  -0.00    -0.00   0.00   0.46
                     10                     11                     12
                     A'                     A'                     A"
 Frequencies --   1012.8113              1094.5122              1133.1916
 Red. masses --      3.4658                 1.8648                 1.0678
 Frc consts  --      2.0947                 1.3162                 0.8078
 IR Inten    --      4.7444                33.2979                 0.5768
  Atom  AN      X      Y      Z        X      Y      Z        X      Y      Z
     1   6     0.30   0.11   0.00     0.04   0.19   0.00     0.00   0.00   0.00
     2   6    -0.04  -0.18  -0.00     0.03  -0.02  -0.00     0.00   0.00   0.04
     3   8    -0.01  -0.13   0.00    -0.07  -0.11   0.00    -0.00  -0.00  -0.05
     4   6    -0.13   0.16   0.00    -0.01  -0.01   0.00    -0.00  -0.00   0.03
     5   6    -0.08   0.12  -0.00     0.07  -0.10  -0.00     0.00   0.00  -0.00
     6   1     0.39  -0.36  -0.00    -0.07   0.84  -0.00     0.00  -0.00  -0.00
     7   1    -0.13  -0.13   0.01    -0.25   0.14   0.00     0.66  -0.24  -0.04
     8   1    -0.13  -0.13  -0.01    -0.25   0.14  -0.00    -0.66   0.24  -0.04
     9   1    -0.63   0.19   0.00     0.20  -0.11   0.00    -0.00   0.00  -0.05
                     13                     14                     15
                     A'                     A'                     A'
 Frequencies --   1204.2304              1271.2555              1324.2357
 Red. masses --      2.6535                 1.4511                 2.0024
 Frc consts  --      2.2672                 1.3817                 2.0688
 IR Inten    --     26.0482                22.5261                17.3415
  Atom  AN      X      Y      Z        X      Y      Z        X      Y      Z
     1   6    -0.04  -0.09   0.00     0.01   0.00  -0.00     0.13  -0.05   0.00
     2   6    -0.01  -0.08   0.00    -0.05   0.11   0.00    -0.04  -0.00  -0.00
     3   8    -0.02   0.06  -0.00    -0.05  -0.07   0.00    -0.05  -0.01  -0.00
     4   6     0.21   0.23   0.00    -0.04  -0.05  -0.00     0.09  -0.00   0.00
     5   6    -0.09  -0.16  -0.00     0.09   0.06   0.00    -0.23   0.06  -0.00
     6   1    -0.14   0.50  -0.00    -0.04   0.30   0.00     0.09   0.31  -0.00
     7   1     0.13  -0.12  -0.02     0.52  -0.34   0.06     0.21  -0.15   0.00
     8   1     0.13  -0.12   0.02     0.52  -0.34  -0.06     0.21  -0.15  -0.00
     9   1    -0.71  -0.10   0.00    -0.30   0.10   0.00     0.82  -0.03   0.00
                     16                     17                     18
                     A'                     A'                     A"
 Frequencies --   1400.1224              1453.1924              2874.0017
 Red. masses --      2.3152                 1.0979                 1.1099
 Frc consts  --      2.6741                 1.3661                 5.4016
 IR Inten    --     15.7757                 2.3311               316.5996
  Atom  AN      X      Y      Z        X      Y      Z        X      Y      Z
     1   6    -0.08   0.24   0.00    -0.00   0.03  -0.00    -0.00   0.00  -0.00
     2   6    -0.04   0.06  -0.00    -0.05  -0.07  -0.00     0.00  -0.00  -0.10
     3   8     0.01  -0.07   0.00    -0.02  -0.01  -0.00    -0.00   0.00   0.00
     4   6     0.10   0.06   0.00    -0.00  -0.00  -0.00    -0.00  -0.00   0.00
     5   6    -0.05  -0.15  -0.00     0.01  -0.01   0.00     0.00  -0.00  -0.00
     6   1     0.07  -0.76  -0.00     0.01  -0.05   0.00     0.00   0.00  -0.01
     7   1     0.21  -0.23   0.08     0.37   0.43  -0.42     0.21   0.37   0.56
     8   1     0.21  -0.23  -0.08     0.37   0.43   0.42    -0.21  -0.37   0.56
     9   1     0.23  -0.20   0.00     0.01  -0.01  -0.00     0.00   0.00   0.00
                     19                     20                     21
                     A'                     A'                     A'
 Frequencies --   2899.9732              3097.0205              3188.9563
 Red. masses --      1.0523                 1.0874                 1.0920
 Frc consts  --      5.2138                 6.1454                 6.5429
 IR Inten    --    281.6852                70.4276                64.6245
  Atom  AN      X      Y      Z        X      Y      Z        X      Y      Z
     1   6    -0.00   0.00  -0.00     0.01   0.00   0.00    -0.09  -0.01  -0.00
     2   6    -0.03  -0.06  -0.00     0.00   0.00   0.00     0.00   0.00   0.00
     3   8    -0.00   0.00   0.00     0.00   0.00   0.00    -0.00   0.00  -0.00
     4   6    -0.00  -0.00  -0.00     0.00   0.00   0.00     0.00   0.00   0.00
     5   6     0.00  -0.00   0.00    -0.01  -0.08   0.00     0.00  -0.01  -0.00
     6   1     0.00  -0.00  -0.00    -0.12  -0.03  -0.00     0.98   0.16   0.00
     7   1     0.20   0.33   0.59    -0.00  -0.00  -0.00    -0.00  -0.00  -0.00
     8   1     0.20   0.33  -0.59    -0.00  -0.00   0.00    -0.00  -0.00   0.00
     9   1     0.00   0.01   0.00     0.10   0.98  -0.00     0.01   0.12   0.00

 -------------------
 - Thermochemistry -
 -------------------
 Temperature   298.150 Kelvin.  Pressure   1.00000 Atm.
 Atom     1 has atomic number  6 and mass  12.00000
 Atom     2 has atomic number  6 and mass  12.00000
 Atom     3 has atomic number  8 and mass  15.99491
 Atom     4 has atomic number  6 and mass  12.00000
 Atom     5 has atomic number  6 and mass  12.00000
 Atom     6 has atomic number  1 and mass   1.00783
 Atom     7 has atomic number  1 and mass   1.00783
 Atom     8 has atomic number  1 and mass   1.00783
 Atom     9 has atomic number  1 and mass   1.00783
 Molecular mass:    68.02621 amu.
 Principal axes and moments of inertia in atomic units:
                           1         2         3
     Eigenvalues --   201.46388 210.91599 401.05555
           X           -0.46192   0.88692   0.00000
           Y            0.88692   0.46192   0.00000
           Z           -0.00000  -0.00000   1.00000
 This molecule is an asymmetric top.
 Rotational symmetry number  1.
 Rotational temperatures (Kelvin)      0.42992     0.41066     0.21596
 Rotational constants (GHZ):           8.95814     8.55668     4.49998
 Zero-point vibrational energy     167128.2 (Joules/Mol)
                                   39.94459 (Kcal/Mol)
 Warning -- explicit consideration of   3 degrees of freedom as
           vibrations may cause significant error
 Vibrational temperatures:    252.14   491.16   723.72   912.14  1114.17
          (Kelvin)           1198.60  1227.08  1346.04  1350.56  1457.21
                             1574.76  1630.41  1732.62  1829.05  1905.28
                             2014.46  2090.82  4135.04  4172.41  4455.92
                             4588.19
 
 Zero-point correction=                           0.063656 (Hartree/Particle)
 Thermal correction to Energy=                    0.068273
 Thermal correction to Enthalpy=                  0.069217
 Thermal correction to Gibbs Free Energy=         0.035920
 Sum of electronic and zero-point Energies=           -229.964288
 Sum of electronic and thermal Energies=              -229.959671
 Sum of electronic and thermal Enthalpies=            -229.958727
 Sum of electronic and thermal Free Energies=         -229.992024
 
                     E (Thermal)             CV                S
                      KCal/Mol        Cal/Mol-Kelvin    Cal/Mol-Kelvin
 Total                   42.842             15.990             70.080
 Electronic               0.000              0.000              1.377
 Translational            0.889              2.981             38.570
 Rotational               0.889              2.981             24.348
 Vibrational             41.064             10.029              5.785
 Vibration     1          0.627              1.873              2.378
 Vibration     2          0.721              1.593              1.206
 Vibration     3          0.858              1.243              0.651
                       Q            Log10(Q)             Ln(Q)
 Total Bot       0.300734D-16        -16.521817        -38.042890
 Total V=0       0.572452D+13         12.757739         29.375779
 Vib (Bot)       0.145909D-28        -28.835919        -66.397157
 Vib (Bot)    1  0.114796D+01          0.059927          0.137987
 Vib (Bot)    2  0.543462D+00         -0.264831         -0.609796
 Vib (Bot)    3  0.325865D+00         -0.486962         -1.121272
 Vib (V=0)       0.277739D+01          0.443637          1.021512
 Vib (V=0)    1  0.175212D+01          0.243565          0.560829
 Vib (V=0)    2  0.123848D+01          0.092889          0.213884
 Vib (V=0)    3  0.109681D+01          0.040133          0.092410
 Electronic      0.200000D+01          0.301030          0.693147
 Translational   0.220531D+08          7.343470         16.908964
 Rotational      0.467307D+05          4.669602         10.752156
 
                                                              b3lyp opt
                                                             IR Spectrum
 
     3   3       22                                                        1 1  1 1  1 1 1  1                                        
     1   0       98                                                        4 4  3 2  2 1 0  0 99  88  7    6    5      3      1      
     8   9       07                                                        5 0  2 7  0 3 9  1 33  53  7    3    0      4      7      
     9   7       04                                                        3 0  4 1  4 3 5  3 96  33  4    4    3      1      5      
 
     X   X       XX                                                        X X  X X  X X X  X XX  XX  X    X    X      X      X      
     X   X       XX                                                                  X   X     X           X           X             
     X   X       XX                                                                            X           X           X             
     X   X       XX                                                                            X           X                         
                 XX                                                                                                                  
                 XX                                                                                                                  
                 XX                                                                                                                  
                 XX                                                                                                                  
                 XX                                                                                                                  
                 XX                                                                                                                  
                 XX                                                                                                                  
                 XX                                                                                                                  
                 XX                                                                                                                  
                 XX                                                                                                                  
                 XX                                                                                                                  
                 XX                                                                                                                  
                 XX                                                                                                                  
                 XX                                                                                                                  
                  X                                                                                                                  
                  X                                                                                                                  
 
 ***** Axes restored to original set *****
 -------------------------------------------------------------------
 Center     Atomic                   Forces (Hartrees/Bohr)
 Number     Number              X              Y              Z
 -------------------------------------------------------------------
      1        6          -0.000065077    0.000481495   -0.000000026
      2        6          -0.000321845    0.000599746    0.000000030
      3        8           0.000108341   -0.000408167    0.000000008
      4        6          -0.000242518   -0.000371339    0.000000096
      5        6           0.000458067   -0.000250648   -0.000000097
      6        1           0.000004276   -0.000040180    0.000000002
      7        1           0.000077796   -0.000016839   -0.000051254
      8        1           0.000077823   -0.000016830    0.000051216
      9        1          -0.000096863    0.000022762    0.000000023
 -------------------------------------------------------------------
 Cartesian Forces:  Max     0.000599746 RMS     0.000225791
 Z-matrix is all fixed cartesians, so copy forces.
 Force constants in Cartesian coordinates: 
                1             2             3             4             5 
      1  0.574442D+00
      2 -0.116732D+00  0.639703D+00
      3 -0.129112D-03 -0.231970D-04  0.386454D-01
      4 -0.603726D-01  0.283540D-01  0.142683D-04  0.518172D+00
      5  0.549144D-01  0.126971D-01 -0.150632D-04  0.642003D-01  0.223846D+00
      6  0.119002D-04 -0.814699D-05  0.413136D-02 -0.705248D-05  0.907150D-05
      7 -0.230065D+00 -0.710258D-01  0.611347D-04 -0.686396D-01 -0.242865D-01
      8 -0.482925D-01 -0.111892D+00  0.208034D-04 -0.309056D-01 -0.502383D-01
      9  0.591072D-04  0.267232D-04 -0.196124D-01  0.243345D-05  0.457301D-05
     10 -0.113120D-01  0.770069D-01  0.281698D-05 -0.110580D+00 -0.652752D-01
     11  0.182033D-01 -0.640684D-01  0.328027D-05 -0.305003D-01 -0.974064D-01
     12  0.806076D-05 -0.120322D-04  0.258773D-01  0.131950D-04  0.194099D-04
     13 -0.933948D-01 -0.635020D-01  0.199583D-04 -0.482339D-01 -0.119422D-01
     14 -0.193121D-01 -0.250619D+00  0.239423D-04 -0.136622D-01 -0.817964D-02
     15  0.160175D-04  0.354498D-04 -0.384965D-01  0.146147D-04  0.412536D-05
     16 -0.176254D+00  0.136361D+00  0.335561D-04 -0.257420D-02 -0.441572D-02
     17  0.146551D+00 -0.213531D+00 -0.191839D-04 -0.160658D-02 -0.461447D-02
     18  0.326476D-04 -0.165306D-04 -0.696184D-03  0.163105D-05  0.184109D-05
     19 -0.187016D-02  0.396162D-02  0.967817D-03 -0.110653D+00 -0.653175D-02
     20 -0.376368D-02 -0.362843D-02 -0.117458D-03 -0.990706D-02 -0.374818D-01
     21  0.664170D-03 -0.608650D-03 -0.380433D-02  0.103828D+00  0.677682D-02
     22 -0.187101D-02  0.396177D-02 -0.969530D-03 -0.110762D+00 -0.655426D-02
     23 -0.376374D-02 -0.362830D-02  0.119386D-03 -0.993392D-02 -0.374859D-01
     24 -0.664505D-03  0.606556D-03 -0.380361D-02 -0.103871D+00 -0.680174D-02
     25  0.697453D-03  0.161418D-02  0.000000D+00 -0.635679D-02 -0.109143D-03
     26 -0.278055D-01 -0.503340D-02  0.748944D-05  0.396132D-02 -0.113708D-02
     27  0.171422D-05  0.000000D+00 -0.224109D-02  0.374322D-05  0.000000D+00
                6             7             8             9            10 
      6  0.513072D+00
      7  0.184325D-05  0.373741D+00
      8  0.629666D-05  0.750496D-01  0.261799D+00
      9 -0.698772D-01 -0.899173D-04 -0.380597D-04  0.541315D-01
     10  0.162959D-04  0.135243D-01 -0.112806D-01 -0.208113D-05  0.407087D+00
     11  0.103546D-04  0.184604D-01 -0.568405D-01  0.000000D+00 -0.494596D-01
     12 -0.703514D-01 -0.473286D-05  0.815464D-05  0.166955D-02 -0.834665D-04
     13  0.144611D-04 -0.375585D-01 -0.335292D-01  0.153585D-04 -0.252559D+00
     14  0.457316D-05 -0.403017D-01 -0.310237D-01  0.141472D-04  0.667290D-01
     15  0.321181D-02  0.159620D-04  0.123836D-04  0.994092D-02  0.498750D-04
     16  0.188150D-05 -0.253124D-01  0.241193D-01  0.332250D-05  0.197288D-04
     17  0.110975D-05 -0.133003D-01  0.110696D-01  0.209332D-05  0.273753D-02
     18  0.313909D-02  0.665882D-05 -0.765053D-05 -0.429436D-02  0.000000D+00
     19  0.106413D+00 -0.131134D-01  0.111842D-01  0.101807D-01 -0.136920D-01
     20  0.160172D-01  0.287453D-01 -0.904473D-02 -0.184678D-01 -0.155300D-01
     21 -0.196407D+00 -0.178955D-02 -0.448882D-02  0.109071D-01  0.294316D-02
     22 -0.106456D+00 -0.131178D-01  0.111847D-01 -0.101702D-01 -0.136993D-01
     23 -0.160404D-01  0.287553D-01 -0.904064D-02  0.184564D-01 -0.155383D-01
     24 -0.196294D+00  0.179694D-02  0.448655D-02  0.109073D-01 -0.292960D-02
     25  0.410623D-05  0.541769D-03  0.247004D-02  0.126024D-05 -0.187884D-01
     26  0.000000D+00 -0.209632D-02 -0.478890D-02  0.152813D-05  0.106102D-01
     27  0.937487D-02  0.166759D-05  0.000000D+00  0.622763D-02  0.268823D-05
               11            12            13            14            15 
     11  0.300997D+00
     12 -0.775220D-05  0.696165D-01
     13  0.666822D-01  0.498791D-04  0.671052D+00
     14 -0.902038D-01 -0.127371D-04  0.133844D+00  0.504597D+00
     15 -0.127249D-04 -0.381765D-01 -0.161396D-03 -0.711893D-04  0.970778D-01
     16 -0.224318D-02  0.000000D+00  0.816375D-02 -0.392878D-02 -0.232953D-05
     17 -0.449177D-02  0.000000D+00  0.202181D-01 -0.359645D-03 -0.542244D-05
     18  0.117556D-05  0.214292D-02 -0.448305D-05  0.000000D+00 -0.212786D-02
     19 -0.553390D-02  0.110625D-01  0.440901D-03 -0.532725D-02  0.953717D-03
     20  0.410082D-03  0.150171D-01 -0.244557D-02 -0.381231D-02  0.533704D-04
     21  0.318895D-02  0.702119D-02 -0.135879D-02  0.273668D-02 -0.401225D-03
     22 -0.553753D-02 -0.110508D-01  0.441112D-03 -0.532884D-02 -0.953205D-03
     23  0.406837D-03 -0.150078D-01 -0.244535D-02 -0.381281D-02 -0.514884D-04
     24 -0.318488D-02  0.703173D-02  0.135879D-02 -0.273330D-02 -0.400939D-03
     25 -0.100713D-01  0.453222D-05 -0.248351D+00 -0.112712D+00  0.667450D-04
     26  0.111969D-01 -0.419213D-05 -0.106880D+00 -0.116586D+00  0.354959D-04
     27  0.119340D-05 -0.483143D-02  0.662247D-04  0.370144D-04 -0.306275D-01
               16            17            18            19            20 
     16  0.198189D+00
     17 -0.153058D+00  0.211741D+00
     18 -0.368682D-04  0.213499D-04  0.419388D-02
     19 -0.965052D-03 -0.240886D-03  0.808868D-03  0.129727D+00
     20  0.101586D-02  0.246094D-03 -0.225204D-03  0.261603D-02  0.495122D-01
     21 -0.382257D-04 -0.738543D-04 -0.599823D-03 -0.116821D+00 -0.933749D-02
     22 -0.965453D-03 -0.240991D-03 -0.808635D-03  0.107824D-01 -0.163380D-03
     23  0.101599D-02  0.246147D-03  0.224524D-03 -0.164703D-03  0.346844D-02
     24  0.382349D-04  0.738289D-04 -0.599475D-03 -0.124866D-01 -0.173567D-02
     25 -0.300972D-03 -0.105989D-02  0.000000D+00 -0.657284D-03 -0.567553D-03
     26  0.113405D-02 -0.305511D-03  0.000000D+00  0.366207D-04  0.330447D-03
     27  0.000000D+00  0.000000D+00 -0.115818D-02 -0.107828D-02 -0.120403D-02
               21            22            23            24            25 
     21  0.212549D+00
     22  0.124657D-01  0.129849D+00
     23  0.172991D-02  0.264174D-02  0.495156D-01
     24 -0.293088D-01  0.116864D+00  0.936519D-02  0.212424D+00
     25  0.106896D-03 -0.656778D-03 -0.566944D-03 -0.106430D-03  0.273872D+00
     26  0.764625D-04  0.367732D-04  0.330648D-03 -0.765327D-04  0.121003D+00
     27  0.440400D-04  0.107864D-02  0.120428D-02  0.433327D-04 -0.760719D-04
               26            27 
     26  0.115993D+00
     27 -0.397856D-04  0.231684D-01
 Leave Link  716 at Thu Mar  7 15:16:49 2019, MaxMem=    33554432 cpu:         0.1
 (Enter /home/proyectos/fulerenos/M3C-v2.0/M3C-deps_CCC/g09-AM64L-G09RevC.01/l103.exe)

 GradGradGradGradGradGradGradGradGradGradGradGradGradGradGradGradGradGrad
 Berny optimization.
 Search for a local minimum.
 Step number   1 out of a maximum of    2
 All quantities printed in internal units (Hartrees-Bohrs-Radians)
 Second derivative matrix not updated -- analytic derivatives used.
 ITU=  0
     Eigenvalues ---    0.00444   0.00696   0.03451   0.04653   0.06381
     Eigenvalues ---    0.06545   0.07769   0.11904   0.13161   0.15382
     Eigenvalues ---    0.17905   0.19270   0.25805   0.29645   0.36870
     Eigenvalues ---    0.59326   0.66125   0.69188   0.74359   0.92467
     Eigenvalues ---    1.06663
 Angle between quadratic step and forces=  32.89 degrees.
 ClnCor:  largest displacement from symmetrization is 1.75D-10 for atom     6.
 Linear search not attempted -- first point.
 ClnCor:  largest displacement from symmetrization is 4.72D-15 for atom     9.
 B after Tr=     0.000005   -0.000177    0.000000
         Rot=    1.000000   -0.000000   -0.000000   -0.000012 Ang=  -0.00 deg.
 Variable       Old X    -DE/DX   Delta X   Delta X   Delta X     New X
                                 (Linear)    (Quad)   (Total)
    X1       -1.73184  -0.00007   0.00000  -0.00010  -0.00012  -1.73197
    Y1        1.32612   0.00048   0.00000   0.00045   0.00023   1.32635
    Z1       -0.00011  -0.00000   0.00000  -0.00000   0.00000  -0.00011
    X2        2.21262  -0.00032   0.00000  -0.00110  -0.00109   2.21153
    Y2       -0.33225   0.00060   0.00000   0.00224   0.00212  -0.33013
    Z2       -0.00099   0.00000   0.00000   0.00000   0.00000  -0.00099
    X3        0.74127   0.00011   0.00000   0.00065   0.00060   0.74188
    Y3        2.10712  -0.00041   0.00000  -0.00155  -0.00170   2.10541
    Z3       -0.00082   0.00000   0.00000  -0.00000  -0.00000  -0.00082
    X4        0.42689  -0.00024   0.00000  -0.00031  -0.00024   0.42665
    Y4       -2.51271  -0.00037   0.00000  -0.00127  -0.00144  -2.51415
    Z4       -0.00033   0.00000   0.00000   0.00000   0.00000  -0.00033
    X5       -1.92067   0.00046   0.00000   0.00073   0.00077  -1.91990
    Y5       -1.31350  -0.00025   0.00000  -0.00058  -0.00080  -1.31430
    Z5        0.00018  -0.00000   0.00000  -0.00000  -0.00000   0.00018
    X6       -3.13435   0.00000   0.00000   0.00039   0.00033  -3.13402
    Y6        2.81032  -0.00004   0.00000   0.00068   0.00043   2.81074
    Z6        0.00012   0.00000   0.00000  -0.00000  -0.00000   0.00012
    X7        3.44349   0.00008   0.00000   0.00002   0.00003   3.44352
    Y7       -0.24907  -0.00002   0.00000   0.00040   0.00031  -0.24876
    Z7       -1.67735  -0.00005   0.00000   0.00023   0.00023  -1.67712
    X8        3.44437   0.00008   0.00000   0.00002   0.00003   3.44440
    Y8       -0.24877  -0.00002   0.00000   0.00040   0.00031  -0.24847
    Z8        1.67472   0.00005   0.00000  -0.00023  -0.00023   1.67449
    X9       -3.74189  -0.00010   0.00000  -0.00037  -0.00031  -3.74220
    Y9       -2.26235   0.00002   0.00000   0.00082   0.00055  -2.26180
    Z9        0.00073   0.00000   0.00000   0.00000   0.00000   0.00073
         Item               Value     Threshold  Converged?
 Maximum Force            0.000600     0.000450     NO 
 RMS     Force            0.000226     0.000300     YES
 Maximum Displacement     0.002119     0.001800     NO 
 RMS     Displacement     0.000703     0.001200     YES
 Predicted change in Energy=-1.822850D-06
 GradGradGradGradGradGradGradGradGradGradGradGradGradGradGradGradGradGrad

 Leave Link  103 at Thu Mar  7 15:16:49 2019, MaxMem=    33554432 cpu:         0.1
 (Enter /home/proyectos/fulerenos/M3C-v2.0/M3C-deps_CCC/g09-AM64L-G09RevC.01/l9999.exe)

 Test job not archived.
 1\1\GINC-BELVIS21\Freq\UB3LYP\6-311++G(3df,2p)\C4H4O1(1-,2)\ROOT\07-Ma
 r-2019\0\\#p b3lyp/6-311++G(3df,2p) freq IOp(2/17=3) IOp(2/18=3)\\b3ly
 p opt\\-1,2\C,-0.9164510046,0.7017499984,-0.0000576497\C,1.1708689982,
 -0.1758190006,-0.0005229334\O,0.3922640025,1.1150390009,-0.0004352874\
 C,0.2259030042,-1.3296709986,-0.0001739819\C,-1.0163750008,-0.69507300
 03,0.0000929197\H,-1.6586239871,1.4871550044,0.0000655788\H,1.822218,-
 0.131803,-0.887617\H,1.822679904,-0.1316448333,0.8862239298\H,-1.98012
 40017,-1.1971830006,0.0003886489\\Version=EM64L-G09RevE.01\State=2-A"\
 HF=-230.0279434\S2=0.769783\S2-1=0.\S2A=0.750139\RMSD=4.132e-09\RMSF=2
 .258e-04\ZeroPoint=0.0636558\Thermal=0.0682727\Dipole=-0.2147722,1.529
 4733,-0.0000805\DipoleDeriv=0.3298561,0.2284909,-0.0002311,0.5128641,0
 .0361104,-0.0001795,-0.0002565,-0.0001055,-0.4793563,0.5566871,0.20863
 83,-0.0000064,-0.1515432,0.5928647,0.0000404,0.0000257,-0.0000534,0.60
 35989,-0.7167283,-0.2903332,0.0002207,-0.0096605,-1.0804198,0.0001016,
 0.0001956,0.0001747,0.0312682,-0.6872004,-0.1086923,0.0000466,-0.05481
 67,-0.6928208,0.0000274,0.0000418,0.0000414,-0.5456205,0.3418276,-0.08
 17688,-0.0001448,-0.2410561,0.2058578,0.0000228,-0.0001306,-0.0000187,
 -0.2421671,-0.1069502,0.1226165,0.0000674,0.1624842,-0.1432274,-0.0000
 122,0.0000638,-0.0000019,0.1937686,-0.231153,-0.0037278,0.1946352,-0.0
 443566,0.0277811,0.0433376,0.2769896,0.0703136,-0.3331115,-0.2313986,-
 0.0037991,-0.1946875,-0.0444286,0.0277609,-0.0433788,-0.2770347,-0.070
 376,-0.3328456,-0.2549404,-0.0714245,0.0001,-0.1294866,0.026093,0.0000
 407,0.0001051,0.0000256,0.1044653\Polar=93.8820691,-15.1587853,103.375
 5706,-0.0014918,0.0021248,82.9591728\PG=CS [SG(C4H2O1),X(H2)]\NImag=0\
 \0.57444239,-0.11673151,0.63970312,-0.00012911,-0.00002320,0.03864543,
 -0.06037256,0.02835400,0.00001427,0.51817212,0.05491445,0.01269709,-0.
 00001506,0.06420031,0.22384649,0.00001190,-0.00000815,0.00413136,-0.00
 000705,0.00000907,0.51307222,-0.23006502,-0.07102576,0.00006113,-0.068
 63960,-0.02428646,0.00000184,0.37374069,-0.04829251,-0.11189195,0.0000
 2080,-0.03090556,-0.05023826,0.00000630,0.07504956,0.26179904,0.000059
 11,0.00002672,-0.01961241,0.00000243,0.00000457,-0.06987717,-0.0000899
 2,-0.00003806,0.05413145,-0.01131197,0.07700686,0.00000282,-0.11058019
 ,-0.06527521,0.00001630,0.01352427,-0.01128057,-0.00000208,0.40708661,
 0.01820325,-0.06406838,0.00000328,-0.03050033,-0.09740640,0.00001035,0
 .01846035,-0.05684047,0.00000041,-0.04945958,0.30099702,0.00000806,-0.
 00001203,0.02587731,0.00001319,0.00001941,-0.07035136,-0.00000473,0.00
 000815,0.00166955,-0.00008347,-0.00000775,0.06961654,-0.09339485,-0.06
 350202,0.00001996,-0.04823394,-0.01194221,0.00001446,-0.03755846,-0.03
 352921,0.00001536,-0.25255876,0.06668219,0.00004988,0.67105165,-0.0193
 1209,-0.25061855,0.00002394,-0.01366217,-0.00817964,0.00000457,-0.0403
 0169,-0.03102369,0.00001415,0.06672902,-0.09020385,-0.00001274,0.13384
 385,0.50459679,0.00001602,0.00003545,-0.03849648,0.00001461,0.00000413
 ,0.00321181,0.00001596,0.00001238,0.00994092,0.00004987,-0.00001272,-0
 .03817646,-0.00016140,-0.00007119,0.09707777,-0.17625428,0.13636087,0.
 00003356,-0.00257420,-0.00441572,0.00000188,-0.02531242,0.02411931,0.0
 0000332,0.00001973,-0.00224318,0.00000075,0.00816375,-0.00392878,-0.00
 000233,0.19818889,0.14655137,-0.21353120,-0.00001918,-0.00160658,-0.00
 461447,0.00000111,-0.01330025,0.01106959,0.00000209,0.00273753,-0.0044
 9177,-0.00000012,0.02021810,-0.00035965,-0.00000542,-0.15305841,0.2117
 4076,0.00003265,-0.00001653,-0.00069618,0.00000163,0.00000184,0.003139
 09,0.00000666,-0.00000765,-0.00429436,0.00000031,0.00000118,0.00214292
 ,-0.00000448,0.00000087,-0.00212786,-0.00003687,0.00002135,0.00419388,
 -0.00187016,0.00396162,0.00096782,-0.11065266,-0.00653175,0.10641264,-
 0.01311343,0.01118421,0.01018068,-0.01369203,-0.00553390,0.01106255,0.
 00044090,-0.00532725,0.00095372,-0.00096505,-0.00024089,0.00080887,0.1
 2972735,-0.00376368,-0.00362843,-0.00011746,-0.00990706,-0.03748183,0.
 01601719,0.02874532,-0.00904473,-0.01846777,-0.01552997,0.00041008,0.0
 1501706,-0.00244557,-0.00381231,0.00005337,0.00101586,0.00024609,-0.00
 022520,0.00261603,0.04951225,0.00066417,-0.00060865,-0.00380433,0.1038
 2799,0.00677682,-0.19640720,-0.00178955,-0.00448882,0.01090706,0.00294
 316,0.00318895,0.00702119,-0.00135879,0.00273668,-0.00040123,-0.000038
 23,-0.00007385,-0.00059982,-0.11682140,-0.00933749,0.21254909,-0.00187
 101,0.00396177,-0.00096953,-0.11076217,-0.00655426,-0.10645608,-0.0131
 1780,0.01118473,-0.01017017,-0.01369931,-0.00553753,-0.01105077,0.0004
 4111,-0.00532884,-0.00095321,-0.00096545,-0.00024099,-0.00080863,0.010
 78235,-0.00016338,0.01246575,0.12984906,-0.00376374,-0.00362830,0.0001
 1939,-0.00993392,-0.03748590,-0.01604035,0.02875525,-0.00904064,0.0184
 5635,-0.01553831,0.00040684,-0.01500779,-0.00244535,-0.00381281,-0.000
 05149,0.00101599,0.00024615,0.00022452,-0.00016470,0.00346844,0.001729
 91,0.00264174,0.04951558,-0.00066451,0.00060656,-0.00380361,-0.1038708
 3,-0.00680174,-0.19629361,0.00179694,0.00448655,0.01090733,-0.00292960
 ,-0.00318488,0.00703173,0.00135879,-0.00273330,-0.00040094,0.00003823,
 0.00007383,-0.00059947,-0.01248660,-0.00173567,-0.02930881,0.11686400,
 0.00936519,0.21242406,0.00069745,0.00161418,-0.00000091,-0.00635679,-0
 .00010914,0.00000411,0.00054177,0.00247004,0.00000126,-0.01878835,-0.0
 1007126,0.00000453,-0.24835141,-0.11271206,0.00006674,-0.00030097,-0.0
 0105989,-0.00000013,-0.00065728,-0.00056755,0.00010690,-0.00065678,-0.
 00056694,-0.00010643,0.27387237,-0.02780554,-0.00503340,0.00000749,0.0
 0396132,-0.00113708,-0.00000009,-0.00209632,-0.00478890,0.00000153,0.0
 1061024,0.01119692,-0.00000419,-0.10687977,-0.11658628,0.00003550,0.00
 113405,-0.00030551,-0.00000037,0.00003662,0.00033045,0.00007646,0.0000
 3677,0.00033065,-0.00007653,0.12100263,0.11599316,0.00000171,-0.000000
 17,-0.00224109,0.00000374,0.00000097,0.00937487,0.00000167,0.00000034,
 0.00622763,0.00000269,0.00000119,-0.00483143,0.00006622,0.00003701,-0.
 03062753,-0.00000032,0.00000020,-0.00115818,-0.00107828,-0.00120403,0.
 00004404,0.00107864,0.00120428,0.00004333,-0.00007607,-0.00003979,0.02
 316836\\0.00006508,-0.00048150,0.00000003,0.00032185,-0.00059975,-0.00
 000003,-0.00010834,0.00040817,0.,0.00024252,0.00037134,-0.00000010,-0.
 00045807,0.00025065,0.00000010,-0.00000428,0.00004018,0.,-0.00007780,0
 .00001684,0.00005125,-0.00007782,0.00001683,-0.00005122,0.00009686,-0.
 00002276,-0.00000002\\\@


 MANHOOD BEGINS BY TRYING TO SHAVE FACE,
 AND ENDS BY TRYING TO SAVE FACE.
 Job cpu time:       0 days  1 hours  3 minutes  5.0 seconds.
 File lengths (MBytes):  RWF=     81 Int=      0 D2E=      0 Chk=      5 Scr=      1
 Normal termination of Gaussian 09 at Thu Mar  7 15:16:49 2019.
