 Entering Gaussian System, Link 0=/home/proyectos/fulerenos/M3C-v2.0/M3C-deps_CCC/g09-AM64L-G09RevC.01/g09
 Initial command:
 /home/proyectos/fulerenos/M3C-v2.0/M3C-deps_CCC/g09-AM64L-G09RevC.01/l1.exe "/scratch/naguirre/gaussian/Gau-19916.inp" -scrdir="/scratch/naguirre/gaussian/"
 Entering Link 1 = /home/proyectos/fulerenos/M3C-v2.0/M3C-deps_CCC/g09-AM64L-G09RevC.01/l1.exe PID=     19917.
  
 Copyright (c) 1988,1990,1992,1993,1995,1998,2003,2009,2015,
            Gaussian, Inc.  All Rights Reserved.
  
 This is part of the Gaussian(R) 09 program.  It is based on
 the Gaussian(R) 03 system (copyright 2003, Gaussian, Inc.),
 the Gaussian(R) 98 system (copyright 1998, Gaussian, Inc.),
 the Gaussian(R) 94 system (copyright 1995, Gaussian, Inc.),
 the Gaussian 92(TM) system (copyright 1992, Gaussian, Inc.),
 the Gaussian 90(TM) system (copyright 1990, Gaussian, Inc.),
 the Gaussian 88(TM) system (copyright 1988, Gaussian, Inc.),
 the Gaussian 86(TM) system (copyright 1986, Carnegie Mellon
 University), and the Gaussian 82(TM) system (copyright 1983,
 Carnegie Mellon University). Gaussian is a federally registered
 trademark of Gaussian, Inc.
  
 This software contains proprietary and confidential information,
 including trade secrets, belonging to Gaussian, Inc.
  
 This software is provided under written license and may be
 used, copied, transmitted, or stored only in accord with that
 written license.
  
 The following legend is applicable only to US Government
 contracts under FAR:
  
                    RESTRICTED RIGHTS LEGEND
  
 Use, reproduction and disclosure by the US Government is
 subject to restrictions as set forth in subparagraphs (a)
 and (c) of the Commercial Computer Software - Restricted
 Rights clause in FAR 52.227-19.
  
 Gaussian, Inc.
 340 Quinnipiac St., Bldg. 40, Wallingford CT 06492
  
  
 ---------------------------------------------------------------
 Warning -- This program may not be used in any manner that
 competes with the business of Gaussian, Inc. or will provide
 assistance to any competitor of Gaussian, Inc.  The licensee
 of this program is prohibited from giving any competitor of
 Gaussian, Inc. access to this program.  By using this program,
 the user acknowledges that Gaussian, Inc. is engaged in the
 business of creating and licensing software in the field of
 computational chemistry and represents and warrants to the
 licensee that it is not a competitor of Gaussian, Inc. and that
 it will not use this program in any manner prohibited above.
 ---------------------------------------------------------------
  

 Cite this work as:
 Gaussian 09, Revision E.01,
 M. J. Frisch, G. W. Trucks, H. B. Schlegel, G. E. Scuseria, 
 M. A. Robb, J. R. Cheeseman, G. Scalmani, V. Barone, B. Mennucci, 
 G. A. Petersson, H. Nakatsuji, M. Caricato, X. Li, H. P. Hratchian, 
 A. F. Izmaylov, J. Bloino, G. Zheng, J. L. Sonnenberg, M. Hada, 
 M. Ehara, K. Toyota, R. Fukuda, J. Hasegawa, M. Ishida, T. Nakajima, 
 Y. Honda, O. Kitao, H. Nakai, T. Vreven, J. A. Montgomery, Jr., 
 J. E. Peralta, F. Ogliaro, M. Bearpark, J. J. Heyd, E. Brothers, 
 K. N. Kudin, V. N. Staroverov, T. Keith, R. Kobayashi, J. Normand, 
 K. Raghavachari, A. Rendell, J. C. Burant, S. S. Iyengar, J. Tomasi, 
 M. Cossi, N. Rega, J. M. Millam, M. Klene, J. E. Knox, J. B. Cross, 
 V. Bakken, C. Adamo, J. Jaramillo, R. Gomperts, R. E. Stratmann, 
 O. Yazyev, A. J. Austin, R. Cammi, C. Pomelli, J. W. Ochterski, 
 R. L. Martin, K. Morokuma, V. G. Zakrzewski, G. A. Voth, 
 P. Salvador, J. J. Dannenberg, S. Dapprich, A. D. Daniels, 
 O. Farkas, J. B. Foresman, J. V. Ortiz, J. Cioslowski, 
 and D. J. Fox, Gaussian, Inc., Wallingford CT, 2013.
 
 ******************************************
 Gaussian 09:  EM64L-G09RevE.01 30-Nov-2015
                 7-Mar-2019 
 ******************************************
 %NProcShared=4
 Will use up to    4 processors via shared memory.
 ------------------------------------------------------
 #p b3lyp/6-311++G(3df,2p) freq IOp(2/17=3) IOp(2/18=3)
 ------------------------------------------------------
 1/10=4,30=1,38=1/1,3;
 2/12=2,17=3,18=3,40=1/2;
 3/5=4,6=6,7=1216,11=2,16=1,25=1,30=1,71=2,74=-5,140=1/1,2,3;
 4//1;
 5/5=2,38=5,98=1/2;
 8/6=4,10=90,11=11/1;
 11/6=1,8=1,9=11,15=111,16=1/1,2,10;
 10/6=1/2;
 6/7=2,8=2,9=2,10=2,18=1,28=1/1;
 7/8=1,10=1,25=1/1,2,3,16;
 1/10=4,30=1/3;
 99//99;
 Leave Link    1 at Thu Mar  7 15:16:49 2019, MaxMem=           0 cpu:         0.3
 (Enter /home/proyectos/fulerenos/M3C-v2.0/M3C-deps_CCC/g09-AM64L-G09RevC.01/l101.exe)
 ---------
 b3lyp opt
 ---------
 Symbolic Z-matrix:
 Charge = -1 Multiplicity = 2
 C                     0.        1.09327   0.34076 
 C                     0.       -1.09327   0.34076 
 O                     0.        0.        1.15366 
 C                     0.       -0.71542  -0.95951 
 C                     0.        0.71542  -0.95951 
 H                     0.        2.04984   0.83433 
 H                     0.       -2.04984   0.83433 
 H                     0.       -1.37146  -1.81553 
 H                     0.        1.37146  -1.81553 
 
 NAtoms=      9 NQM=        9 NQMF=       0 NMMI=      0 NMMIF=      0
                NMic=       0 NMicF=      0.
                    Isotopes and Nuclear Properties:
 (Nuclear quadrupole moments (NQMom) in fm**2, nuclear magnetic moments (NMagM)
  in nuclear magnetons)

  Atom         1           2           3           4           5           6           7           8           9
 IAtWgt=          12          12          16          12          12           1           1           1           1
 AtmWgt=  12.0000000  12.0000000  15.9949146  12.0000000  12.0000000   1.0078250   1.0078250   1.0078250   1.0078250
 NucSpn=           0           0           0           0           0           1           1           1           1
 AtZEff=   0.0000000   0.0000000   0.0000000   0.0000000   0.0000000   0.0000000   0.0000000   0.0000000   0.0000000
 NQMom=    0.0000000   0.0000000   0.0000000   0.0000000   0.0000000   0.0000000   0.0000000   0.0000000   0.0000000
 NMagM=    0.0000000   0.0000000   0.0000000   0.0000000   0.0000000   2.7928460   2.7928460   2.7928460   2.7928460
 AtZNuc=   6.0000000   6.0000000   8.0000000   6.0000000   6.0000000   1.0000000   1.0000000   1.0000000   1.0000000
 Leave Link  101 at Thu Mar  7 15:16:50 2019, MaxMem=    33554432 cpu:         0.3
 (Enter /home/proyectos/fulerenos/M3C-v2.0/M3C-deps_CCC/g09-AM64L-G09RevC.01/l103.exe)

 GradGradGradGradGradGradGradGradGradGradGradGradGradGradGradGradGradGrad
 Berny optimization.
 Initialization pass.
 Trust Radius=3.00D-01 FncErr=1.00D-07 GrdErr=1.00D-07
 Number of steps in this run=      2 maximum allowed number of steps=      2.
 GradGradGradGradGradGradGradGradGradGradGradGradGradGradGradGradGradGrad

 Leave Link  103 at Thu Mar  7 15:16:50 2019, MaxMem=    33554432 cpu:         0.1
 (Enter /home/proyectos/fulerenos/M3C-v2.0/M3C-deps_CCC/g09-AM64L-G09RevC.01/l202.exe)
                          Input orientation:                          
 ---------------------------------------------------------------------
 Center     Atomic      Atomic             Coordinates (Angstroms)
 Number     Number       Type             X           Y           Z
 ---------------------------------------------------------------------
      1          6           0        0.000000    1.093270    0.340763
      2          6           0        0.000000   -1.093270    0.340763
      3          8           0        0.000000    0.000000    1.153660
      4          6           0        0.000000   -0.715415   -0.959508
      5          6           0        0.000000    0.715415   -0.959508
      6          1           0        0.000000    2.049839    0.834326
      7          1           0        0.000000   -2.049839    0.834326
      8          1           0        0.000000   -1.371457   -1.815528
      9          1           0        0.000000    1.371457   -1.815528
 ---------------------------------------------------------------------
                    Distance matrix (angstroms):
                    1          2          3          4          5
     1  C    0.000000
     2  C    2.186540   0.000000
     3  O    1.362366   1.362366   0.000000
     4  C    2.227565   1.354060   2.230986   0.000000
     5  C    1.354060   2.227565   2.230986   1.430830   0.000000
     6  H    1.076396   3.181625   2.074564   3.296130   2.235739
     7  H    3.181625   1.076396   2.074564   2.235739   3.296130
     8  H    3.274824   2.174162   3.270623   1.078500   2.255616
     9  H    2.174162   3.274824   3.270623   2.255616   1.078500
                    6          7          8          9
     6  H    0.000000
     7  H    4.099678   0.000000
     8  H    4.327470   2.735311   0.000000
     9  H    2.735311   4.327470   2.742914   0.000000
 Stoichiometry    C4H4O(1-,2)
 Framework group  C2V[C2(O),SGV(C4H4)]
 Deg. of freedom     8
 Full point group                 C2V     NOp   4
 Largest Abelian subgroup         C2V     NOp   4
 Largest concise Abelian subgroup C2      NOp   2
                         Standard orientation:                         
 ---------------------------------------------------------------------
 Center     Atomic      Atomic             Coordinates (Angstroms)
 Number     Number       Type             X           Y           Z
 ---------------------------------------------------------------------
      1          6           0        0.000000    1.093270    0.345154
      2          6           0       -0.000000   -1.093270    0.345154
      3          8           0        0.000000   -0.000000    1.158051
      4          6           0        0.000000   -0.715415   -0.955117
      5          6           0        0.000000    0.715415   -0.955117
      6          1           0        0.000000    2.049839    0.838717
      7          1           0       -0.000000   -2.049839    0.838717
      8          1           0        0.000000   -1.371457   -1.811137
      9          1           0        0.000000    1.371457   -1.811137
 ---------------------------------------------------------------------
 Rotational constants (GHZ):      9.4942419      9.3279712      4.7051861
 Leave Link  202 at Thu Mar  7 15:16:50 2019, MaxMem=    33554432 cpu:         0.0
 (Enter /home/proyectos/fulerenos/M3C-v2.0/M3C-deps_CCC/g09-AM64L-G09RevC.01/l301.exe)
 Standard basis: 6-311++G(3df,2p) (5D, 7F)
 Ernie: Thresh=  0.10000D-02 Tol=  0.10000D-05 Strict=F.
 There are    99 symmetry adapted cartesian basis functions of A1  symmetry.
 There are    36 symmetry adapted cartesian basis functions of A2  symmetry.
 There are    42 symmetry adapted cartesian basis functions of B1  symmetry.
 There are    88 symmetry adapted cartesian basis functions of B2  symmetry.
 There are    85 symmetry adapted basis functions of A1  symmetry.
 There are    34 symmetry adapted basis functions of A2  symmetry.
 There are    39 symmetry adapted basis functions of B1  symmetry.
 There are    77 symmetry adapted basis functions of B2  symmetry.
   235 basis functions,   338 primitive gaussians,   265 cartesian basis functions
    19 alpha electrons       18 beta electrons
       nuclear repulsion energy       161.1772453703 Hartrees.
 IExCor=  402 DFT=T Ex+Corr=B3LYP ExCW=0 ScaHFX=  0.200000
 ScaDFX=  0.800000  0.720000  1.000000  0.810000 ScalE2=  1.000000  1.000000
 IRadAn=      0 IRanWt=     -1 IRanGd=            0 ICorTp=0 IEmpDi=  4
 NAtoms=    9 NActive=    9 NUniq=    5 SFac= 3.24D+00 NAtFMM=   60 NAOKFM=F Big=F
 Integral buffers will be    131072 words long.
 Raffenetti 2 integral format.
 Two-electron integral symmetry is turned on.
 Leave Link  301 at Thu Mar  7 15:16:50 2019, MaxMem=    33554432 cpu:         0.2
 (Enter /home/proyectos/fulerenos/M3C-v2.0/M3C-deps_CCC/g09-AM64L-G09RevC.01/l302.exe)
 NPDir=0 NMtPBC=     1 NCelOv=     1 NCel=       1 NClECP=     1 NCelD=      1
         NCelK=      1 NCelE2=     1 NClLst=     1 CellRange=     0.0.
 One-electron integrals computed using PRISM.
 One-electron integral symmetry used in STVInt
 NBasis=   235 RedAO= T EigKep=  3.58D-06  NBF=    85    34    39    77
 NBsUse=   235 1.00D-06 EigRej= -1.00D+00 NBFU=    85    34    39    77
 Precomputing XC quadrature grid using
 IXCGrd= 4 IRadAn=           0 IRanWt=          -1 IRanGd=           0 AccXCQ= 0.00D+00.
 Generated NRdTot=       0 NPtTot=           0 NUsed=           0 NTot=          32
 NSgBfM=   265   265   265   265   265 MxSgAt=     9 MxSgA2=     9.
 Leave Link  302 at Thu Mar  7 15:16:50 2019, MaxMem=    33554432 cpu:         1.1
 (Enter /home/proyectos/fulerenos/M3C-v2.0/M3C-deps_CCC/g09-AM64L-G09RevC.01/l303.exe)
 DipDrv:  MaxL=1.
 Leave Link  303 at Thu Mar  7 15:16:50 2019, MaxMem=    33554432 cpu:         0.1
 (Enter /home/proyectos/fulerenos/M3C-v2.0/M3C-deps_CCC/g09-AM64L-G09RevC.01/l401.exe)
 ExpMin= 3.60D-02 ExpMax= 8.59D+03 ExpMxC= 1.30D+03 IAcc=3 IRadAn=         5 AccDes= 0.00D+00
 Harris functional with IExCor=  402 and IRadAn=       5 diagonalized for initial guess.
 HarFok:  IExCor=  402 AccDes= 0.00D+00 IRadAn=         5 IDoV= 1 UseB2=F ITyADJ=14
 ICtDFT=  3500011 ScaDFX=  1.000000  1.000000  1.000000  1.000000
 FoFCou: FMM=F IPFlag=           0 FMFlag=      100000 FMFlg1=           0
         NFxFlg=           0 DoJE=T BraDBF=F KetDBF=T FulRan=T
         wScrn=  0.000000 ICntrl=     500 IOpCl=  0 I1Cent=   200000004 NGrid=           0
         NMat0=    1 NMatS0=      1 NMatT0=    0 NMatD0=    1 NMtDS0=    0 NMtDT0=    0
 Petite list used in FoFCou.
 Harris En= -230.247369198248    
 JPrj=0 DoOrth=F DoCkMO=F.
 Initial guess orbital symmetries:
 Alpha Orbitals:
       Occupied  (A1) (A1) (B2) (B2) (A1) (A1) (A1) (B2) (B2) (A1)
                 (A1) (B2) (B2) (B1) (A1) (A1) (B1) (A2) (B1)
       Virtual   (A2) (A1) (B2) (A1) (A1) (B2) (A1) (B1) (B2) (A1)
                 (A2) (B1) (A1) (B2) (B2) (A1) (B2) (A1) (B2) (A2)
                 (A1) (B2) (A1) (B2) (B1) (A1) (B2) (A1) (B2) (A1)
                 (B1) (B2) (A1) (B2) (A1) (B2) (A1) (A2) (B1) (B2)
                 (A1) (B1) (A2) (A2) (B1) (B2) (A1) (A1) (B2) (A1)
                 (B2) (A1) (A2) (B1) (B2) (B2) (B1) (A2) (A1) (B2)
                 (A1) (B2) (A1) (A2) (B2) (A1) (B1) (A1) (B2) (B1)
                 (A1) (B2) (A2) (A1) (B2) (A1) (B1) (B2) (A1) (B1)
                 (A2) (A1) (B2) (A2) (B2) (A1) (B1) (A1) (B1) (B2)
                 (B2) (B2) (A2) (A1) (A1) (B2) (A2) (A1) (A1) (A1)
                 (B1) (B2) (B2) (B1) (B2) (A2) (A1) (A2) (B2) (A1)
                 (B2) (A1) (B2) (A1) (A1) (B1) (B1) (A1) (B2) (B2)
                 (B1) (A2) (A1) (A2) (B1) (A2) (A2) (B1) (B1) (A1)
                 (B2) (B2) (A2) (B2) (A1) (A1) (B2) (A1) (B1) (B2)
                 (A1) (A1) (B2) (A1) (B2) (A2) (B1) (A1) (B2) (A1)
                 (A2) (A1) (B2) (A1) (B2) (B1) (B2) (A1) (A2) (B1)
                 (A1) (A2) (B2) (B1) (A2) (B2) (A1) (A2) (B2) (A1)
                 (B1) (B2) (A1) (B1) (B2) (A1) (A1) (B2) (B1) (B2)
                 (A2) (A1) (B2) (B2) (A1) (B2) (B1) (B1) (A2) (A1)
                 (A2) (B2) (B1) (A1) (B1) (A2) (B2) (A2) (A1) (B2)
                 (A1) (A1) (B2) (A1) (B2) (B2) (B1) (A2) (A1) (A1)
                 (B2) (A1) (B2) (A1) (B2) (A1)
 Beta  Orbitals:
       Occupied  (A1) (A1) (B2) (B2) (A1) (A1) (A1) (B2) (B2) (A1)
                 (A1) (B2) (B2) (B1) (A1) (A1) (B1) (A2)
       Virtual   (B1) (A2) (A1) (B2) (A1) (A1) (B2) (A1) (B1) (B2)
                 (A1) (A2) (B1) (A1) (B2) (B2) (A1) (B2) (A1) (B2)
                 (A2) (A1) (B2) (A1) (B2) (B1) (A1) (B2) (A1) (B2)
                 (A1) (B1) (B2) (A1) (B2) (A1) (B2) (A1) (A2) (B1)
                 (B2) (A1) (B1) (A2) (A2) (B1) (B2) (A1) (A1) (B2)
                 (A1) (B2) (A1) (A2) (B1) (B2) (B2) (B1) (A2) (A1)
                 (B2) (A1) (B2) (A1) (A2) (B2) (A1) (B1) (A1) (B2)
                 (B1) (A1) (B2) (A2) (A1) (B2) (A1) (B1) (B2) (A1)
                 (B1) (A2) (A1) (B2) (A2) (B2) (A1) (B1) (A1) (B1)
                 (B2) (B2) (B2) (A2) (A1) (A1) (B2) (A2) (A1) (A1)
                 (A1) (B1) (B2) (B2) (B1) (B2) (A2) (A1) (A2) (B2)
                 (A1) (B2) (A1) (B2) (A1) (A1) (B1) (B1) (A1) (B2)
                 (B2) (B1) (A2) (A1) (A2) (B1) (A2) (A2) (B1) (B1)
                 (A1) (B2) (B2) (A2) (B2) (A1) (A1) (B2) (A1) (B1)
                 (B2) (A1) (A1) (B2) (A1) (B2) (A2) (B1) (A1) (B2)
                 (A1) (A2) (A1) (B2) (A1) (B2) (B1) (B2) (A1) (A2)
                 (B1) (A1) (A2) (B2) (B1) (A2) (B2) (A1) (A2) (B2)
                 (A1) (B1) (B2) (A1) (B1) (B2) (A1) (A1) (B2) (B1)
                 (B2) (A2) (A1) (B2) (B2) (A1) (B2) (B1) (B1) (A2)
                 (A1) (A2) (B2) (B1) (A1) (B1) (A2) (B2) (A2) (A1)
                 (B2) (A1) (A1) (B2) (A1) (B2) (B2) (B1) (A2) (A1)
                 (A1) (B2) (A1) (B2) (A1) (B2) (A1)
 The electronic state of the initial guess is 2-B1.
 Initial guess <Sx>= 0.0000 <Sy>= 0.0000 <Sz>= 0.5000 <S**2>= 0.7500 S= 0.5000
 Leave Link  401 at Thu Mar  7 15:16:51 2019, MaxMem=    33554432 cpu:         5.1
 (Enter /home/proyectos/fulerenos/M3C-v2.0/M3C-deps_CCC/g09-AM64L-G09RevC.01/l502.exe)
 UHF open shell SCF:
 Using DIIS extrapolation, IDIIS=  1040.
 Integral symmetry usage will be decided dynamically.
 IVT=      233181 IEndB=      233181 NGot=    33554432 MDV=    33408382
 LenX=    33408382 LenY=    33337716
 Requested convergence on RMS density matrix=1.00D-08 within 128 cycles.
 Requested convergence on MAX density matrix=1.00D-06.
 Requested convergence on             energy=1.00D-06.
 No special actions if energy rises.
 Fock matrices will be formed incrementally for  20 cycles.

 Cycle   1  Pass 1  IDiag  1:
 FoFJK:  IHMeth= 1 ICntrl=       0 DoSepK=F KAlg= 0 I1Cent=   0 FoldK=F
 IRaf= 990000000 NMat=   1 IRICut=       1 DoRegI=T DoRafI=F ISym2E= 1.
 FoFCou: FMM=F IPFlag=           0 FMFlag=      100000 FMFlg1=           0
         NFxFlg=           0 DoJE=F BraDBF=F KetDBF=F FulRan=T
         wScrn=  0.000000 ICntrl=       0 IOpCl=  1 I1Cent=           0 NGrid=           0
         NMat0=    1 NMatS0=      1 NMatT0=    0 NMatD0=    1 NMtDS0=    0 NMtDT0=    0
 Petite list used in FoFCou.
 E= -229.763392441905    
 DIIS: error= 4.13D-02 at cycle   1 NSaved=   1.
 NSaved= 1 IEnMin= 1 EnMin= -229.763392441905     IErMin= 1 ErrMin= 4.13D-02
 ErrMax= 4.13D-02  0.00D+00 EMaxC= 1.00D-01 BMatC= 9.88D-01 BMatP= 9.88D-01
 IDIUse=3 WtCom= 5.87D-01 WtEn= 4.13D-01
 Coeff-Com:  0.100D+01
 Coeff-En:   0.100D+01
 Coeff:      0.100D+01
 Gap=     0.031 Goal=   None    Shift=    0.000
 Gap=     0.028 Goal=   None    Shift=    0.000
 GapD=    0.028 DampG=0.250 DampE=0.500 DampFc=0.2500 IDamp=-1.
 Damping current iteration by 2.50D-01
 RMSDP=2.68D-01 MaxDP=1.04D+01              OVMax= 5.28D-01

 Cycle   2  Pass 1  IDiag  1:
 RMSU=  6.69D-02    CP:  9.64D-01
 E= -229.854049485695     Delta-E=       -0.090657043790 Rises=F Damp=T
 DIIS: error= 1.68D-02 at cycle   2 NSaved=   2.
 NSaved= 2 IEnMin= 2 EnMin= -229.854049485695     IErMin= 2 ErrMin= 1.68D-02
 ErrMax= 1.68D-02  0.00D+00 EMaxC= 1.00D-01 BMatC= 1.36D-01 BMatP= 9.88D-01
 IDIUse=3 WtCom= 8.32D-01 WtEn= 1.68D-01
 Coeff-Com: -0.367D+00 0.137D+01
 Coeff-En:   0.105D+00 0.895D+00
 Coeff:     -0.288D+00 0.129D+01
 Gap=     0.008 Goal=   None    Shift=    0.000
 Gap=     0.098 Goal=   None    Shift=    0.000
 RMSDP=1.22D-01 MaxDP=6.25D+00 DE=-9.07D-02 OVMax= 4.05D-01

 Cycle   3  Pass 1  IDiag  1:
 RMSU=  1.15D-01    CP:  9.55D-01  1.63D+00
 E= -230.074949940911     Delta-E=       -0.220900455217 Rises=F Damp=F
 DIIS: error= 5.97D-03 at cycle   3 NSaved=   3.
 NSaved= 3 IEnMin= 3 EnMin= -230.074949940911     IErMin= 3 ErrMin= 5.97D-03
 ErrMax= 5.97D-03  0.00D+00 EMaxC= 1.00D-01 BMatC= 2.09D-02 BMatP= 1.36D-01
 IDIUse=3 WtCom= 9.40D-01 WtEn= 5.97D-02
 Coeff-Com: -0.749D-01 0.384D+00 0.691D+00
 Coeff-En:   0.000D+00 0.000D+00 0.100D+01
 Coeff:     -0.704D-01 0.361D+00 0.710D+00
 Gap=     0.018 Goal=   None    Shift=    0.000
 Gap=     0.188 Goal=   None    Shift=    0.000
 RMSDP=2.95D-02 MaxDP=2.25D+00 DE=-2.21D-01 OVMax= 1.01D-01

 Cycle   4  Pass 1  IDiag  1:
 RMSU=  2.11D-02    CP:  9.39D-01  1.47D+00  8.49D-01
 E= -230.077455643849     Delta-E=       -0.002505702938 Rises=F Damp=F
 DIIS: error= 8.35D-03 at cycle   4 NSaved=   4.
 NSaved= 4 IEnMin= 4 EnMin= -230.077455643849     IErMin= 3 ErrMin= 5.97D-03
 ErrMax= 8.35D-03  0.00D+00 EMaxC= 1.00D-01 BMatC= 1.20D-02 BMatP= 2.09D-02
 IDIUse=3 WtCom= 9.17D-01 WtEn= 8.35D-02
 Coeff-Com: -0.259D-01 0.154D+00 0.442D+00 0.430D+00
 Coeff-En:   0.000D+00 0.000D+00 0.339D+00 0.661D+00
 Coeff:     -0.237D-01 0.141D+00 0.434D+00 0.449D+00
 Gap=     0.019 Goal=   None    Shift=    0.000
 Gap=     0.199 Goal=   None    Shift=    0.000
 RMSDP=1.34D-02 MaxDP=7.97D-01 DE=-2.51D-03 OVMax= 5.38D-02

 Cycle   5  Pass 1  IDiag  1:
 RMSU=  3.60D-03    CP:  9.40D-01  1.44D+00  8.60D-01  3.99D-01
 E= -230.080412371415     Delta-E=       -0.002956727566 Rises=F Damp=F
 DIIS: error= 4.00D-03 at cycle   5 NSaved=   5.
 NSaved= 5 IEnMin= 5 EnMin= -230.080412371415     IErMin= 5 ErrMin= 4.00D-03
 ErrMax= 4.00D-03  0.00D+00 EMaxC= 1.00D-01 BMatC= 1.82D-03 BMatP= 1.20D-02
 IDIUse=3 WtCom= 9.60D-01 WtEn= 4.00D-02
 Coeff-Com: -0.139D-02 0.108D-01 0.726D-01 0.269D+00 0.649D+00
 Coeff-En:   0.000D+00 0.000D+00 0.000D+00 0.108D+00 0.892D+00
 Coeff:     -0.133D-02 0.104D-01 0.696D-01 0.262D+00 0.659D+00
 Gap=     0.021 Goal=   None    Shift=    0.000
 Gap=     0.204 Goal=   None    Shift=    0.000
 RMSDP=5.38D-03 MaxDP=3.64D-01 DE=-2.96D-03 OVMax= 1.63D-02

 Cycle   6  Pass 1  IDiag  1:
 RMSU=  4.40D-04    CP:  9.38D-01  1.40D+00  8.28D-01  5.22D-01  1.30D+00
 E= -230.080861918027     Delta-E=       -0.000449546612 Rises=F Damp=F
 DIIS: error= 1.35D-03 at cycle   6 NSaved=   6.
 NSaved= 6 IEnMin= 6 EnMin= -230.080861918027     IErMin= 6 ErrMin= 1.35D-03
 ErrMax= 1.35D-03  0.00D+00 EMaxC= 1.00D-01 BMatC= 3.30D-04 BMatP= 1.82D-03
 IDIUse=3 WtCom= 9.87D-01 WtEn= 1.35D-02
 Coeff-Com: -0.276D-03-0.251D-02-0.147D-01 0.774D-01 0.344D+00 0.596D+00
 Coeff-En:   0.000D+00 0.000D+00 0.000D+00 0.000D+00 0.000D+00 0.100D+01
 Coeff:     -0.273D-03-0.248D-02-0.145D-01 0.763D-01 0.339D+00 0.602D+00
 Gap=     0.021 Goal=   None    Shift=    0.000
 Gap=     0.204 Goal=   None    Shift=    0.000
 RMSDP=1.62D-03 MaxDP=1.07D-01 DE=-4.50D-04 OVMax= 4.25D-03

 Cycle   7  Pass 1  IDiag  1:
 RMSU=  1.03D-04    CP:  9.37D-01  1.38D+00  8.18D-01  5.38D-01  1.41D+00
                    CP:  1.24D+00
 E= -230.080932502639     Delta-E=       -0.000070584612 Rises=F Damp=F
 DIIS: error= 4.95D-04 at cycle   7 NSaved=   7.
 NSaved= 7 IEnMin= 7 EnMin= -230.080932502639     IErMin= 7 ErrMin= 4.95D-04
 ErrMax= 4.95D-04  0.00D+00 EMaxC= 1.00D-01 BMatC= 7.11D-05 BMatP= 3.30D-04
 IDIUse=3 WtCom= 9.95D-01 WtEn= 4.95D-03
 Coeff-Com: -0.299D-02 0.585D-02-0.214D-01-0.603D-01-0.771D-01 0.319D+00
 Coeff-Com:  0.837D+00
 Coeff-En:   0.000D+00 0.000D+00 0.000D+00 0.000D+00 0.000D+00 0.000D+00
 Coeff-En:   0.100D+01
 Coeff:     -0.298D-02 0.582D-02-0.213D-01-0.600D-01-0.768D-01 0.317D+00
 Coeff:      0.838D+00
 Gap=     0.021 Goal=   None    Shift=    0.000
 Gap=     0.204 Goal=   None    Shift=    0.000
 RMSDP=1.35D-03 MaxDP=8.82D-02 DE=-7.06D-05 OVMax= 3.83D-03

 Cycle   8  Pass 1  IDiag  1:
 RMSU=  5.68D-05    CP:  9.36D-01  1.37D+00  8.10D-01  5.51D-01  1.50D+00
                    CP:  1.51D+00  1.68D+00
 E= -230.080959921815     Delta-E=       -0.000027419176 Rises=F Damp=F
 DIIS: error= 1.32D-04 at cycle   8 NSaved=   8.
 NSaved= 8 IEnMin= 8 EnMin= -230.080959921815     IErMin= 8 ErrMin= 1.32D-04
 ErrMax= 1.32D-04  0.00D+00 EMaxC= 1.00D-01 BMatC= 2.57D-06 BMatP= 7.11D-05
 IDIUse=3 WtCom= 9.99D-01 WtEn= 1.32D-03
 Coeff-Com:  0.339D-03-0.230D-03 0.565D-02 0.416D-02-0.109D-01-0.152D+00
 Coeff-Com: -0.214D+00 0.137D+01
 Coeff-En:   0.000D+00 0.000D+00 0.000D+00 0.000D+00 0.000D+00 0.000D+00
 Coeff-En:   0.000D+00 0.100D+01
 Coeff:      0.338D-03-0.230D-03 0.564D-02 0.415D-02-0.108D-01-0.152D+00
 Coeff:     -0.214D+00 0.137D+01
 Gap=     0.021 Goal=   None    Shift=    0.000
 Gap=     0.204 Goal=   None    Shift=    0.000
 RMSDP=4.55D-04 MaxDP=3.09D-02 DE=-2.74D-05 OVMax= 2.15D-03

 Cycle   9  Pass 1  IDiag  1:
 RMSU=  3.05D-05    CP:  9.36D-01  1.36D+00  8.07D-01  5.59D-01  1.49D+00
                    CP:  1.48D+00  2.19D+00  1.53D+00
 E= -230.080963634068     Delta-E=       -0.000003712253 Rises=F Damp=F
 DIIS: error= 3.66D-05 at cycle   9 NSaved=   9.
 NSaved= 9 IEnMin= 9 EnMin= -230.080963634068     IErMin= 9 ErrMin= 3.66D-05
 ErrMax= 3.66D-05  0.00D+00 EMaxC= 1.00D-01 BMatC= 2.66D-07 BMatP= 2.57D-06
 IDIUse=1 WtCom= 1.00D+00 WtEn= 0.00D+00
 Coeff-Com:  0.372D-03-0.546D-03 0.322D-02 0.767D-02 0.289D-02-0.596D-01
 Coeff-Com: -0.127D+00 0.267D+00 0.906D+00
 Coeff:      0.372D-03-0.546D-03 0.322D-02 0.767D-02 0.289D-02-0.596D-01
 Coeff:     -0.127D+00 0.267D+00 0.906D+00
 Gap=     0.021 Goal=   None    Shift=    0.000
 Gap=     0.204 Goal=   None    Shift=    0.000
 RMSDP=2.28D-04 MaxDP=1.54D-02 DE=-3.71D-06 OVMax= 8.47D-04

 Cycle  10  Pass 1  IDiag  1:
 RMSU=  7.11D-06    CP:  9.36D-01  1.36D+00  8.07D-01  5.69D-01  1.47D+00
                    CP:  1.45D+00  2.25D+00  1.58D+00  1.37D+00
 E= -230.080963848867     Delta-E=       -0.000000214799 Rises=F Damp=F
 DIIS: error= 8.85D-06 at cycle  10 NSaved=  10.
 NSaved=10 IEnMin=10 EnMin= -230.080963848867     IErMin=10 ErrMin= 8.85D-06
 ErrMax= 8.85D-06  0.00D+00 EMaxC= 1.00D-01 BMatC= 1.72D-08 BMatP= 2.66D-07
 IDIUse=1 WtCom= 1.00D+00 WtEn= 0.00D+00
 Coeff-Com:  0.665D-04-0.139D-03-0.159D-03-0.148D-03 0.167D-02 0.889D-02
 Coeff-Com:  0.941D-02-0.975D-01 0.545D-01 0.102D+01
 Coeff:      0.665D-04-0.139D-03-0.159D-03-0.148D-03 0.167D-02 0.889D-02
 Coeff:      0.941D-02-0.975D-01 0.545D-01 0.102D+01
 Gap=     0.021 Goal=   None    Shift=    0.000
 Gap=     0.204 Goal=   None    Shift=    0.000
 RMSDP=7.53D-05 MaxDP=6.07D-03 DE=-2.15D-07 OVMax= 1.05D-04

 Cycle  11  Pass 1  IDiag  1:
 RMSU=  6.38D-06    CP:  9.36D-01  1.37D+00  8.07D-01  5.71D-01  1.46D+00
                    CP:  1.41D+00  2.27D+00  1.62D+00  1.57D+00  1.23D+00
 E= -230.080963861548     Delta-E=       -0.000000012681 Rises=F Damp=F
 DIIS: error= 2.87D-06 at cycle  11 NSaved=  11.
 NSaved=11 IEnMin=11 EnMin= -230.080963861548     IErMin=11 ErrMin= 2.87D-06
 ErrMax= 2.87D-06  0.00D+00 EMaxC= 1.00D-01 BMatC= 8.86D-10 BMatP= 1.72D-08
 IDIUse=1 WtCom= 1.00D+00 WtEn= 0.00D+00
 Coeff-Com: -0.202D-04 0.307D-04-0.189D-03-0.362D-03-0.100D-03 0.449D-02
 Coeff-Com:  0.782D-02-0.203D-01-0.493D-01 0.257D-01 0.103D+01
 Coeff:     -0.202D-04 0.307D-04-0.189D-03-0.362D-03-0.100D-03 0.449D-02
 Coeff:      0.782D-02-0.203D-01-0.493D-01 0.257D-01 0.103D+01
 Gap=     0.021 Goal=   None    Shift=    0.000
 Gap=     0.204 Goal=   None    Shift=    0.000
 RMSDP=3.60D-05 MaxDP=2.06D-03 DE=-1.27D-08 OVMax= 8.67D-05

 Cycle  12  Pass 1  IDiag  1:
 RMSU=  4.73D-07    CP:  9.36D-01  1.37D+00  8.07D-01  5.72D-01  1.46D+00
                    CP:  1.40D+00  2.28D+00  1.62D+00  1.63D+00  1.37D+00
                    CP:  1.33D+00
 E= -230.080963862335     Delta-E=       -0.000000000787 Rises=F Damp=F
 DIIS: error= 1.30D-06 at cycle  12 NSaved=  12.
 NSaved=12 IEnMin=12 EnMin= -230.080963862335     IErMin=12 ErrMin= 1.30D-06
 ErrMax= 1.30D-06  0.00D+00 EMaxC= 1.00D-01 BMatC= 1.55D-10 BMatP= 8.86D-10
 IDIUse=1 WtCom= 1.00D+00 WtEn= 0.00D+00
 Coeff-Com: -0.143D-04 0.300D-04-0.187D-04-0.920D-04-0.149D-03-0.879D-04
 Coeff-Com:  0.598D-03 0.475D-02-0.929D-02-0.972D-01 0.158D+00 0.943D+00
 Coeff:     -0.143D-04 0.300D-04-0.187D-04-0.920D-04-0.149D-03-0.879D-04
 Coeff:      0.598D-03 0.475D-02-0.929D-02-0.972D-01 0.158D+00 0.943D+00
 Gap=     0.021 Goal=   None    Shift=    0.000
 Gap=     0.204 Goal=   None    Shift=    0.000
 RMSDP=9.96D-06 MaxDP=5.93D-04 DE=-7.87D-10 OVMax= 2.01D-05

 Cycle  13  Pass 1  IDiag  1:
 RMSU=  1.36D-07    CP:  9.36D-01  1.37D+00  8.07D-01  5.72D-01  1.45D+00
                    CP:  1.40D+00  2.28D+00  1.63D+00  1.65D+00  1.41D+00
                    CP:  1.49D+00  1.28D+00
 E= -230.080963862443     Delta-E=       -0.000000000108 Rises=F Damp=F
 DIIS: error= 2.17D-07 at cycle  13 NSaved=  13.
 NSaved=13 IEnMin=13 EnMin= -230.080963862443     IErMin=13 ErrMin= 2.17D-07
 ErrMax= 2.17D-07  0.00D+00 EMaxC= 1.00D-01 BMatC= 8.78D-12 BMatP= 1.55D-10
 IDIUse=1 WtCom= 1.00D+00 WtEn= 0.00D+00
 Coeff-Com: -0.430D-06-0.214D-06 0.909D-05 0.232D-04-0.148D-04-0.433D-03
 Coeff-Com: -0.689D-03 0.202D-02 0.561D-02-0.145D-01-0.546D-01-0.273D-02
 Coeff-Com:  0.107D+01
 Coeff:     -0.430D-06-0.214D-06 0.909D-05 0.232D-04-0.148D-04-0.433D-03
 Coeff:     -0.689D-03 0.202D-02 0.561D-02-0.145D-01-0.546D-01-0.273D-02
 Coeff:      0.107D+01
 Gap=     0.021 Goal=   None    Shift=    0.000
 Gap=     0.204 Goal=   None    Shift=    0.000
 RMSDP=4.95D-06 MaxDP=3.40D-04 DE=-1.08D-10 OVMax= 1.46D-05

 Cycle  14  Pass 1  IDiag  1:
 RMSU=  7.22D-08    CP:  9.36D-01  1.37D+00  8.07D-01  5.73D-01  1.45D+00
                    CP:  1.40D+00  2.28D+00  1.63D+00  1.66D+00  1.43D+00
                    CP:  1.53D+00  1.42D+00  1.56D+00
 E= -230.080963862454     Delta-E=       -0.000000000010 Rises=F Damp=F
 DIIS: error= 8.00D-08 at cycle  14 NSaved=  14.
 NSaved=14 IEnMin=14 EnMin= -230.080963862454     IErMin=14 ErrMin= 8.00D-08
 ErrMax= 8.00D-08  0.00D+00 EMaxC= 1.00D-01 BMatC= 1.26D-12 BMatP= 8.78D-12
 IDIUse=1 WtCom= 1.00D+00 WtEn= 0.00D+00
 Coeff-Com:  0.502D-06-0.896D-06 0.114D-05 0.493D-05 0.106D-04 0.854D-04
 Coeff-Com:  0.249D-04-0.676D-03 0.583D-03 0.593D-02 0.808D-02-0.111D+00
 Coeff-Com: -0.696D-01 0.117D+01
 Coeff:      0.502D-06-0.896D-06 0.114D-05 0.493D-05 0.106D-04 0.854D-04
 Coeff:      0.249D-04-0.676D-03 0.583D-03 0.593D-02 0.808D-02-0.111D+00
 Coeff:     -0.696D-01 0.117D+01
 Gap=     0.021 Goal=   None    Shift=    0.000
 Gap=     0.204 Goal=   None    Shift=    0.000
 RMSDP=2.28D-06 MaxDP=1.61D-04 DE=-1.03D-11 OVMax= 6.58D-06

 Cycle  15  Pass 1  IDiag  1:
 RMSU=  8.26D-09    CP:  9.36D-01  1.37D+00  8.07D-01  5.73D-01  1.45D+00
                    CP:  1.40D+00  2.28D+00  1.64D+00  1.66D+00  1.43D+00
                    CP:  1.55D+00  1.48D+00  1.92D+00  1.44D+00
 E= -230.080963862456     Delta-E=       -0.000000000003 Rises=F Damp=F
 DIIS: error= 3.83D-08 at cycle  15 NSaved=  15.
 NSaved=15 IEnMin=15 EnMin= -230.080963862456     IErMin=15 ErrMin= 3.83D-08
 ErrMax= 3.83D-08  0.00D+00 EMaxC= 1.00D-01 BMatC= 1.77D-13 BMatP= 1.26D-12
 IDIUse=1 WtCom= 1.00D+00 WtEn= 0.00D+00
 Coeff-Com:  0.137D-06-0.160D-06-0.466D-06-0.196D-05 0.217D-05 0.216D-04
 Coeff-Com:  0.456D-04-0.103D-03-0.236D-03-0.487D-03 0.752D-02 0.302D-02
 Coeff-Com: -0.561D-01-0.229D+00 0.128D+01
 Coeff:      0.137D-06-0.160D-06-0.466D-06-0.196D-05 0.217D-05 0.216D-04
 Coeff:      0.456D-04-0.103D-03-0.236D-03-0.487D-03 0.752D-02 0.302D-02
 Coeff:     -0.561D-01-0.229D+00 0.128D+01
 Gap=     0.021 Goal=   None    Shift=    0.000
 Gap=     0.204 Goal=   None    Shift=    0.000
 RMSDP=1.02D-06 MaxDP=7.13D-05 DE=-2.50D-12 OVMax= 2.97D-06

 Cycle  16  Pass 1  IDiag  1:
 RMSU=  3.98D-09    CP:  9.36D-01  1.37D+00  8.07D-01  5.73D-01  1.45D+00
                    CP:  1.40D+00  2.29D+00  1.64D+00  1.67D+00  1.44D+00
                    CP:  1.56D+00  1.51D+00  2.07D+00  1.61D+00  1.70D+00
 E= -230.080963862447     Delta-E=        0.000000000009 Rises=F Damp=F
 DIIS: error= 9.54D-09 at cycle  16 NSaved=  16.
 NSaved=16 IEnMin=15 EnMin= -230.080963862456     IErMin=16 ErrMin= 9.54D-09
 ErrMax= 9.54D-09  0.00D+00 EMaxC= 1.00D-01 BMatC= 1.70D-14 BMatP= 1.77D-13
 IDIUse=1 WtCom= 1.00D+00 WtEn= 0.00D+00
 Large coefficients: NSaved= 16 BigCof=    0.00 CofMax=   10.00 Det=-8.91D-15
 Inversion failed.  Reducing to 15 matrices.
 Coeff-Com: -0.288D-07 0.117D-07 0.148D-08-0.102D-05-0.117D-04-0.176D-04
 Coeff-Com:  0.724D-04 0.113D-03-0.723D-03-0.105D-02 0.421D-02 0.293D-01
 Coeff-Com: -0.974D-01-0.169D+00 0.123D+01
 Coeff:     -0.288D-07 0.117D-07 0.148D-08-0.102D-05-0.117D-04-0.176D-04
 Coeff:      0.724D-04 0.113D-03-0.723D-03-0.105D-02 0.421D-02 0.293D-01
 Coeff:     -0.974D-01-0.169D+00 0.123D+01
 Gap=     0.021 Goal=   None    Shift=    0.000
 Gap=     0.204 Goal=   None    Shift=    0.000
 RMSDP=3.38D-07 MaxDP=2.18D-05 DE= 8.98D-12 OVMax= 9.40D-07

 Cycle  17  Pass 1  IDiag  1:
 RMSU=  1.01D-09    CP:  9.36D-01  1.37D+00  8.07D-01  5.73D-01  1.45D+00
                    CP:  1.40D+00  2.29D+00  1.64D+00  1.67D+00  1.44D+00
                    CP:  1.56D+00  1.52D+00  2.11D+00  1.62D+00  2.01D+00
                    CP:  1.68D+00
 E= -230.080963862457     Delta-E=       -0.000000000009 Rises=F Damp=F
 DIIS: error= 1.76D-09 at cycle  17 NSaved=  16.
 NSaved=16 IEnMin=16 EnMin= -230.080963862457     IErMin=16 ErrMin= 1.76D-09
 ErrMax= 1.76D-09  0.00D+00 EMaxC= 1.00D-01 BMatC= 5.65D-16 BMatP= 1.70D-14
 IDIUse=1 WtCom= 1.00D+00 WtEn= 0.00D+00
 Large coefficients: NSaved= 16 BigCof=    0.00 CofMax=   10.00 Det=-8.59D-16
 Inversion failed.  Reducing to 15 matrices.
 Coeff-Com:  0.107D-06 0.351D-06 0.807D-07-0.690D-06-0.319D-05-0.259D-05
 Coeff-Com:  0.328D-04 0.120D-03-0.326D-03-0.204D-02 0.272D-02 0.273D-01
 Coeff-Com: -0.437D-01-0.259D+00 0.128D+01
 Coeff:      0.107D-06 0.351D-06 0.807D-07-0.690D-06-0.319D-05-0.259D-05
 Coeff:      0.328D-04 0.120D-03-0.326D-03-0.204D-02 0.272D-02 0.273D-01
 Coeff:     -0.437D-01-0.259D+00 0.128D+01
 Gap=     0.021 Goal=   None    Shift=    0.000
 Gap=     0.204 Goal=   None    Shift=    0.000
 RMSDP=8.45D-08 MaxDP=4.64D-06 DE=-9.44D-12 OVMax= 2.18D-07

 Cycle  18  Pass 1  IDiag  1:
 RMSU=  2.53D-10    CP:  9.36D-01  1.37D+00  8.07D-01  5.73D-01  1.45D+00
                    CP:  1.40D+00  2.29D+00  1.64D+00  1.67D+00  1.44D+00
                    CP:  1.56D+00  1.52D+00  2.12D+00  1.60D+00  2.09D+00
                    CP:  1.96D+00  1.58D+00
 E= -230.080963862452     Delta-E=        0.000000000005 Rises=F Damp=F
 DIIS: error= 7.27D-10 at cycle  18 NSaved=  16.
 NSaved=16 IEnMin=15 EnMin= -230.080963862457     IErMin=16 ErrMin= 7.27D-10
 ErrMax= 7.27D-10  0.00D+00 EMaxC= 1.00D-01 BMatC= 5.40D-17 BMatP= 5.65D-16
 IDIUse=1 WtCom= 1.00D+00 WtEn= 0.00D+00
 Large coefficients: NSaved= 16 BigCof=    0.00 CofMax=   10.00 Det=-7.88D-17
 Inversion failed.  Reducing to 15 matrices.
 Coeff-Com: -0.129D-07 0.264D-07 0.291D-06 0.648D-06-0.160D-05-0.320D-05
 Coeff-Com:  0.765D-05 0.462D-04-0.135D-03-0.816D-03 0.423D-02 0.692D-02
 Coeff-Com: -0.828D-01-0.333D-01 0.111D+01
 Coeff:     -0.129D-07 0.264D-07 0.291D-06 0.648D-06-0.160D-05-0.320D-05
 Coeff:      0.765D-05 0.462D-04-0.135D-03-0.816D-03 0.423D-02 0.692D-02
 Coeff:     -0.828D-01-0.333D-01 0.111D+01
 Gap=     0.021 Goal=   None    Shift=    0.000
 Gap=     0.204 Goal=   None    Shift=    0.000
 RMSDP=2.03D-08 MaxDP=1.14D-06 DE= 5.00D-12 OVMax= 5.09D-08

 Cycle  19  Pass 1  IDiag  1:
 RMSU=  3.41D-11    CP:  9.36D-01  1.37D+00  8.07D-01  5.73D-01  1.45D+00
                    CP:  1.40D+00  2.29D+00  1.64D+00  1.67D+00  1.44D+00
                    CP:  1.56D+00  1.52D+00  2.13D+00  1.60D+00  2.10D+00
                    CP:  2.01D+00  1.71D+00  1.34D+00
 E= -230.080963862454     Delta-E=       -0.000000000002 Rises=F Damp=F
 DIIS: error= 5.40D-11 at cycle  19 NSaved=  16.
 NSaved=16 IEnMin=14 EnMin= -230.080963862457     IErMin=16 ErrMin= 5.40D-11
 ErrMax= 5.40D-11  0.00D+00 EMaxC= 1.00D-01 BMatC= 8.09D-19 BMatP= 5.40D-17
 IDIUse=1 WtCom= 1.00D+00 WtEn= 0.00D+00
 Large coefficients: NSaved= 16 BigCof=    0.00 CofMax=   10.00 Det=-4.62D-18
 Inversion failed.  Reducing to 15 matrices.
 Coeff-Com:  0.644D-08 0.195D-07 0.148D-07-0.771D-07-0.317D-06 0.446D-07
 Coeff-Com:  0.144D-04 0.166D-04-0.188D-03-0.773D-03 0.262D-02 0.854D-02
 Coeff-Com: -0.357D-01-0.386D-01 0.106D+01
 Coeff:      0.644D-08 0.195D-07 0.148D-07-0.771D-07-0.317D-06 0.446D-07
 Coeff:      0.144D-04 0.166D-04-0.188D-03-0.773D-03 0.262D-02 0.854D-02
 Coeff:     -0.357D-01-0.386D-01 0.106D+01
 Gap=     0.021 Goal=   None    Shift=    0.000
 Gap=     0.204 Goal=   None    Shift=    0.000
 RMSDP=7.38D-10 MaxDP=5.43D-08 DE=-1.99D-12 OVMax= 1.88D-09

 SCF Done:  E(UB3LYP) =  -230.080963862     A.U. after   19 cycles
            NFock= 19  Conv=0.74D-09     -V/T= 2.0039
 <Sx>= 0.0000 <Sy>= 0.0000 <Sz>= 0.5000 <S**2>= 0.7500 S= 0.5000
 <L.S>= 0.000000000000E+00
 KE= 2.291854001229D+02 PE=-8.636571945834D+02 EE= 2.432135852277D+02
 Annihilation of the first spin contaminant:
 S**2 before annihilation     0.7500,   after     0.7500
 Leave Link  502 at Thu Mar  7 15:19:07 2019, MaxMem=    33554432 cpu:       519.9
 (Enter /home/proyectos/fulerenos/M3C-v2.0/M3C-deps_CCC/g09-AM64L-G09RevC.01/l801.exe)
 DoSCS=F DFT=T ScalE2(SS,OS)=  1.000000  1.000000
 Range of M.O.s used for correlation:     1   235
 NBasis=   235 NAE=    19 NBE=    18 NFC=     0 NFV=     0
 NROrb=    235 NOA=    19 NOB=    18 NVA=   216 NVB=   217

 **** Warning!!: The largest alpha MO coefficient is  0.15713427D+03


 **** Warning!!: The smallest alpha delta epsilon is  0.21248647D-01


 **** Warning!!: The largest beta MO coefficient is  0.15586463D+03

 Leave Link  801 at Thu Mar  7 15:19:07 2019, MaxMem=    33554432 cpu:         0.1
 (Enter /home/proyectos/fulerenos/M3C-v2.0/M3C-deps_CCC/g09-AM64L-G09RevC.01/l1101.exe)
 Using compressed storage, NAtomX=     9.
 Will process     10 centers per pass.
 Leave Link 1101 at Thu Mar  7 15:19:07 2019, MaxMem=    33554432 cpu:         1.3
 (Enter /home/proyectos/fulerenos/M3C-v2.0/M3C-deps_CCC/g09-AM64L-G09RevC.01/l1102.exe)
 Symmetrizing basis deriv contribution to polar:
 IMax=3 JMax=2 DiffMx= 0.00D+00
 Leave Link 1102 at Thu Mar  7 15:19:07 2019, MaxMem=    33554432 cpu:         0.1
 (Enter /home/proyectos/fulerenos/M3C-v2.0/M3C-deps_CCC/g09-AM64L-G09RevC.01/l1110.exe)
 Forming Gx(P) for the SCF density, NAtomX=     9.
 Integral derivatives from FoFJK, PRISM(SPDF).
 Do as many integral derivatives as possible in FoFJK.
 G2DrvN: MDV=      33554256.
 G2DrvN: will do    10 centers at a time, making    1 passes.
 Calling FoFCou, ICntrl=  3107 FMM=F I1Cent=   0 AccDes= 0.00D+00.
 FoFJK:  IHMeth= 1 ICntrl=    3107 DoSepK=F KAlg= 0 I1Cent=   0 FoldK=F
 IRaf=         0 NMat=   1 IRICut=       1 DoRegI=T DoRafI=F ISym2E= 1.
 FoFCou: FMM=F IPFlag=           0 FMFlag=      100000 FMFlg1=           0
         NFxFlg=           0 DoJE=F BraDBF=F KetDBF=F FulRan=T
         wScrn=  0.000000 ICntrl=    3107 IOpCl=  1 I1Cent=           0 NGrid=           0
         NMat0=    1 NMatS0=      1 NMatT0=    0 NMatD0=    1 NMtDS0=    0 NMtDT0=    0
 Petite list used in FoFCou.
 End of G2Drv F.D. properties file   721 does not exist.
 End of G2Drv F.D. properties file   722 does not exist.
 End of G2Drv F.D. properties file   788 does not exist.
 Leave Link 1110 at Thu Mar  7 15:19:59 2019, MaxMem=    33554432 cpu:       208.9
 (Enter /home/proyectos/fulerenos/M3C-v2.0/M3C-deps_CCC/g09-AM64L-G09RevC.01/l1002.exe)
 Minotr:  UHF open shell wavefunction.
          IDoAtm=111111111
          Direct CPHF calculation.
          Differentiating once with respect to electric field.
                with respect to dipole field.
          Differentiating once with respect to nuclear coordinates.
          Using symmetry in CPHF.
          Requested convergence is 1.0D-08 RMS, and 1.0D-07 maximum.
          Secondary convergence is 1.0D-12 RMS, and 1.0D-12 maximum.
          NewPWx=T KeepS1=F KeepF1=F KeepIn=T MapXYZ=F SortEE=F KeepMc=T.
          MDV=      33553868 using IRadAn=       2.
 Generate precomputed XC quadrature information.
          Solving linear equations simultaneously, MaxMat=       0.
 FoFJK:  IHMeth= 1 ICntrl=       0 DoSepK=F KAlg= 0 I1Cent=   0 FoldK=F
 IRaf= 990000000 NMat=  18 IRICut=      45 DoRegI=T DoRafI=T ISym2E= 2.
 FoFCou: FMM=F IPFlag=           0 FMFlag=      100000 FMFlg1=           0
         NFxFlg=           0 DoJE=F BraDBF=F KetDBF=F FulRan=T
         wScrn=  0.000000 ICntrl=       0 IOpCl=  1 I1Cent=           0 NGrid=           0
         NMat0=   18 NMatS0=     18 NMatT0=    0 NMatD0=   18 NMtDS0=    0 NMtDT0=    0
 Integrals replicated using symmetry in FoFCou.
          There are    18 degrees of freedom in the 1st order CPHF.  IDoFFX=4 NUNeed=    18.
     18 vectors produced by pass  0 Test12= 4.45D-14 5.56D-09 XBig12= 8.35D+04 2.88D+02.
 AX will form    18 AO Fock derivatives at one time.
     18 vectors produced by pass  1 Test12= 4.45D-14 5.56D-09 XBig12= 3.63D+03 2.08D+01.
     18 vectors produced by pass  2 Test12= 4.45D-14 5.56D-09 XBig12= 1.23D+02 3.70D+00.
     18 vectors produced by pass  3 Test12= 4.45D-14 5.56D-09 XBig12= 3.84D+00 4.60D-01.
     18 vectors produced by pass  4 Test12= 4.45D-14 5.56D-09 XBig12= 1.20D-01 8.01D-02.
     18 vectors produced by pass  5 Test12= 4.45D-14 5.56D-09 XBig12= 1.55D-03 9.31D-03.
     18 vectors produced by pass  6 Test12= 4.45D-14 5.56D-09 XBig12= 7.08D-06 6.88D-04.
     16 vectors produced by pass  7 Test12= 4.45D-14 5.56D-09 XBig12= 4.60D-08 5.22D-05.
      7 vectors produced by pass  8 Test12= 4.45D-14 5.56D-09 XBig12= 5.72D-10 3.84D-06.
      3 vectors produced by pass  9 Test12= 4.45D-14 5.56D-09 XBig12= 4.65D-12 4.01D-07.
      3 vectors produced by pass 10 Test12= 4.45D-14 5.56D-09 XBig12= 1.50D-12 4.05D-07.
      2 vectors produced by pass 11 Test12= 4.45D-14 5.56D-09 XBig12= 2.33D-13 1.10D-07.
      1 vectors produced by pass 12 Test12= 4.45D-14 5.56D-09 XBig12= 4.56D-15 1.40D-08.
 InvSVY:  IOpt=1 It=  1 EMax= 5.68D-14
 Solved reduced A of dimension   158 with    18 vectors.
 FullF1:  Do perturbations    1 to    18.
 Isotropic polarizability for W=    0.000000     1894.58 Bohr**3.
 End of Minotr F.D. properties file   721 does not exist.
 End of Minotr F.D. properties file   722 does not exist.
 End of Minotr F.D. properties file   788 does not exist.
 Leave Link 1002 at Thu Mar  7 15:25:28 2019, MaxMem=    33554432 cpu:      1314.6
 (Enter /home/proyectos/fulerenos/M3C-v2.0/M3C-deps_CCC/g09-AM64L-G09RevC.01/l601.exe)
 Copying SCF densities to generalized density rwf, IOpCl= 1 IROHF=0.

 **********************************************************************

            Population analysis using the SCF density.

 **********************************************************************

 Orbital symmetries:
 Alpha Orbitals:
       Occupied  (A1) (B2) (A1) (A1) (B2) (A1) (A1) (B2) (B2) (A1)
                 (A1) (B1) (B2) (B2) (A1) (A1) (B1) (A2) (A1)
       Virtual   (B2) (A1) (B2) (B1) (A1) (B1) (A2) (A1) (B2) (A2)
                 (A1) (B1) (B2) (A1) (B2) (A1) (B2) (A2) (B2) (A1)
                 (A1) (B2) (A1) (B2) (B1) (A1) (B2) (B2) (A1) (B2)
                 (A1) (B1) (A1) (B2) (A1) (B2) (A2) (A1) (A1) (B1)
                 (B2) (B1) (A2) (B2) (A2) (B1) (A1) (A1) (B2) (B2)
                 (A1) (A1) (B1) (A2) (B2) (B2) (B1) (A2) (A1) (A1)
                 (B2) (B2) (A2) (B2) (A1) (A1) (B1) (B2) (A1) (B1)
                 (A1) (B2) (A2) (B2) (A1) (A1) (B1) (B2) (A1) (A2)
                 (B1) (A1) (B2) (A2) (B2) (A1) (A1) (B1) (B2) (B2)
                 (B1) (B2) (A1) (A2) (A1) (B2) (A2) (A1) (A1) (B1)
                 (A1) (B2) (B2) (B1) (B2) (A2) (A1) (A2) (B2) (A1)
                 (B2) (A1) (A1) (A1) (B2) (B1) (A1) (B2) (B1) (B2)
                 (B1) (A2) (A1) (A2) (B1) (A2) (A2) (B1) (B1) (A1)
                 (B2) (B2) (A2) (B2) (A1) (A1) (B2) (A1) (B1) (B2)
                 (A1) (B2) (A1) (A1) (B2) (A2) (B1) (A1) (B2) (A1)
                 (A2) (A1) (B2) (A1) (B2) (B1) (B2) (A1) (A2) (A2)
                 (B1) (A1) (B2) (B1) (B2) (A2) (A1) (A2) (B2) (A1)
                 (B2) (B1) (A1) (B1) (B2) (A1) (A1) (B2) (B1) (B2)
                 (A2) (A1) (B2) (B2) (A1) (B2) (B1) (A2) (B1) (A1)
                 (A2) (B2) (B1) (A1) (B1) (A2) (B2) (A2) (A1) (B2)
                 (A1) (A1) (B2) (A1) (B2) (B2) (B1) (A2) (A1) (A1)
                 (B2) (A1) (B2) (A1) (B2) (A1)
 Beta  Orbitals:
       Occupied  (A1) (B2) (A1) (A1) (B2) (A1) (A1) (B2) (B2) (A1)
                 (A1) (B1) (B2) (B2) (A1) (A1) (B1) (A2)
       Virtual   (A1) (B2) (A1) (B1) (B2) (A1) (B1) (A2) (A1) (A2)
                 (B2) (B1) (A1) (B2) (A1) (A1) (B2) (B2) (A1) (A2)
                 (B2) (A1) (B2) (A1) (B2) (B1) (A1) (B2) (A1) (B2)
                 (A1) (B2) (B1) (A1) (B2) (A1) (B2) (A2) (A1) (A1)
                 (B1) (B2) (B1) (A2) (B2) (A2) (B1) (A1) (A1) (B2)
                 (B2) (A1) (A1) (B1) (A2) (B2) (B2) (B1) (A2) (A1)
                 (A1) (B2) (B2) (A2) (B2) (A1) (A1) (B1) (B2) (A1)
                 (B1) (A1) (A2) (B2) (B2) (A1) (A1) (B1) (B2) (A1)
                 (A2) (B1) (A1) (B2) (A2) (B2) (A1) (A1) (B1) (B2)
                 (B2) (B1) (B2) (A1) (A2) (A1) (B2) (A2) (A1) (A1)
                 (B1) (A1) (B2) (B2) (B1) (B2) (A2) (A1) (A2) (B2)
                 (A1) (B2) (A1) (A1) (A1) (B2) (B1) (A1) (B2) (B1)
                 (B2) (B1) (A2) (A1) (A2) (B1) (A2) (A2) (B1) (B1)
                 (A1) (B2) (B2) (A2) (B2) (A1) (A1) (B2) (A1) (B1)
                 (B2) (A1) (B2) (A1) (A1) (B2) (A2) (B1) (A1) (B2)
                 (A1) (A2) (A1) (B2) (A1) (B2) (B1) (B2) (A1) (A2)
                 (A2) (B1) (A1) (B1) (B2) (B2) (A2) (A1) (A2) (B2)
                 (A1) (B2) (B1) (A1) (B1) (B2) (A1) (A1) (B2) (B1)
                 (B2) (A2) (A1) (B2) (B2) (A1) (B2) (B1) (A2) (B1)
                 (A1) (A2) (B2) (B1) (A1) (B1) (A2) (B2) (A2) (A1)
                 (B2) (A1) (A1) (B2) (A1) (B2) (B2) (B1) (A2) (A1)
                 (A1) (B2) (A1) (B2) (A1) (B2) (A1)
 The electronic state is 2-A1.
 Alpha  occ. eigenvalues --  -19.07126 -10.09685 -10.09682 -10.04815 -10.04775
 Alpha  occ. eigenvalues --   -0.99224  -0.68116  -0.62612  -0.47923  -0.44971
 Alpha  occ. eigenvalues --   -0.42319  -0.33440  -0.32577  -0.29147  -0.27932
 Alpha  occ. eigenvalues --   -0.25704  -0.16480  -0.11489   0.05770
 Alpha virt. eigenvalues --    0.07895   0.08851   0.10316   0.11472   0.14635
 Alpha virt. eigenvalues --    0.15793   0.16617   0.17621   0.18376   0.18945
 Alpha virt. eigenvalues --    0.19837   0.20181   0.20925   0.21696   0.21861
 Alpha virt. eigenvalues --    0.21933   0.23995   0.25007   0.25111   0.25119
 Alpha virt. eigenvalues --    0.28693   0.30307   0.32659   0.33421   0.35345
 Alpha virt. eigenvalues --    0.36802   0.38189   0.39257   0.39526   0.41337
 Alpha virt. eigenvalues --    0.41564   0.44106   0.45013   0.51488   0.51944
 Alpha virt. eigenvalues --    0.53702   0.54891   0.55317   0.57347   0.57833
 Alpha virt. eigenvalues --    0.58354   0.58910   0.59719   0.64862   0.64871
 Alpha virt. eigenvalues --    0.66704   0.66819   0.72421   0.72556   0.73244
 Alpha virt. eigenvalues --    0.74794   0.76336   0.77447   0.77739   0.81473
 Alpha virt. eigenvalues --    0.82058   0.82387   0.84639   0.88602   0.91219
 Alpha virt. eigenvalues --    0.91791   0.95440   0.98300   1.00749   1.01269
 Alpha virt. eigenvalues --    1.05661   1.07495   1.09416   1.10690   1.18924
 Alpha virt. eigenvalues --    1.20390   1.22694   1.22868   1.23446   1.25617
 Alpha virt. eigenvalues --    1.27588   1.29379   1.29777   1.31181   1.32533
 Alpha virt. eigenvalues --    1.33198   1.34118   1.39813   1.40040   1.42410
 Alpha virt. eigenvalues --    1.43387   1.45506   1.49372   1.53571   1.55413
 Alpha virt. eigenvalues --    1.56887   1.60512   1.62265   1.64172   1.68196
 Alpha virt. eigenvalues --    1.75064   1.82157   1.85838   1.92291   2.03315
 Alpha virt. eigenvalues --    2.03818   2.04831   2.09003   2.12757   2.17897
 Alpha virt. eigenvalues --    2.20284   2.26526   2.31980   2.34089   2.34431
 Alpha virt. eigenvalues --    2.47469   2.57781   2.63265   2.64200   2.64334
 Alpha virt. eigenvalues --    2.72158   2.83950   2.84790   2.84977   2.86368
 Alpha virt. eigenvalues --    2.93203   2.93554   2.95283   3.00646   3.02410
 Alpha virt. eigenvalues --    3.09426   3.13673   3.15414   3.15536   3.17596
 Alpha virt. eigenvalues --    3.23668   3.30429   3.31440   3.34343   3.36051
 Alpha virt. eigenvalues --    3.37173   3.37989   3.45457   3.47971   3.50731
 Alpha virt. eigenvalues --    3.59656   3.68108   3.69139   3.78100   3.81473
 Alpha virt. eigenvalues --    3.84920   3.85561   3.91045   3.95415   3.97877
 Alpha virt. eigenvalues --    4.04465   4.09886   4.12857   4.26197   4.26484
 Alpha virt. eigenvalues --    4.27663   4.30634   4.31900   4.44461   4.47626
 Alpha virt. eigenvalues --    4.47949   4.50733   4.56195   4.56195   4.64052
 Alpha virt. eigenvalues --    4.64968   4.74148   4.89517   4.97428   5.09649
 Alpha virt. eigenvalues --    5.25245   5.25361   5.44523   5.50694   5.59651
 Alpha virt. eigenvalues --    5.68688   5.79465   5.90687   5.92002   5.97264
 Alpha virt. eigenvalues --    6.02458   6.26938   6.56073   6.74708   6.75337
 Alpha virt. eigenvalues --    6.82761   7.20103   7.23312   7.23669   7.34771
 Alpha virt. eigenvalues --    7.40514   7.45295   7.47654   7.51661   7.63290
 Alpha virt. eigenvalues --    7.65931   7.66353   7.80496   7.82890   8.08173
 Alpha virt. eigenvalues --    8.17280   8.28564   8.33211   8.45476   8.70674
 Alpha virt. eigenvalues --    8.99038  14.51298  14.60698  14.65095  14.92358
 Alpha virt. eigenvalues --   15.41069  24.25180  24.93426  25.73850  25.76884
 Alpha virt. eigenvalues --   50.33212
  Beta  occ. eigenvalues --  -19.07127 -10.09658 -10.09654 -10.04792 -10.04752
  Beta  occ. eigenvalues --   -0.99213  -0.68073  -0.62557  -0.47871  -0.44882
  Beta  occ. eigenvalues --   -0.42230  -0.33427  -0.32502  -0.29077  -0.27882
  Beta  occ. eigenvalues --   -0.25669  -0.16463  -0.11466
  Beta virt. eigenvalues --    0.08955   0.09857   0.10416   0.11461   0.11830
  Beta virt. eigenvalues --    0.14929   0.15908   0.16661   0.17833   0.18845
  Beta virt. eigenvalues --    0.18990   0.20194   0.20323   0.21204   0.21950
  Beta virt. eigenvalues --    0.22364   0.22556   0.24555   0.25199   0.25294
  Beta virt. eigenvalues --    0.25501   0.28806   0.30578   0.33217   0.33675
  Beta virt. eigenvalues --    0.35235   0.37111   0.38846   0.39880   0.39906
  Beta virt. eigenvalues --    0.41746   0.41748   0.44141   0.45288   0.51606
  Beta virt. eigenvalues --    0.52116   0.53772   0.54969   0.55354   0.57492
  Beta virt. eigenvalues --    0.57761   0.58505   0.58962   0.59623   0.64900
  Beta virt. eigenvalues --    0.64979   0.66748   0.66799   0.72619   0.72701
  Beta virt. eigenvalues --    0.73368   0.74883   0.76383   0.77342   0.77780
  Beta virt. eigenvalues --    0.81547   0.82014   0.82325   0.84473   0.88611
  Beta virt. eigenvalues --    0.91159   0.91781   0.95411   0.98285   1.00712
  Beta virt. eigenvalues --    1.01259   1.05675   1.07477   1.09421   1.10754
  Beta virt. eigenvalues --    1.18894   1.20444   1.22799   1.22835   1.23533
  Beta virt. eigenvalues --    1.25587   1.27758   1.29359   1.29697   1.31223
  Beta virt. eigenvalues --    1.32476   1.33136   1.34110   1.39673   1.39939
  Beta virt. eigenvalues --    1.42413   1.43266   1.45483   1.49381   1.53426
  Beta virt. eigenvalues --    1.55390   1.56930   1.60593   1.62375   1.64243
  Beta virt. eigenvalues --    1.68300   1.75174   1.82178   1.85838   1.92388
  Beta virt. eigenvalues --    2.03340   2.03855   2.04857   2.09008   2.12801
  Beta virt. eigenvalues --    2.17932   2.20330   2.26576   2.32023   2.34167
  Beta virt. eigenvalues --    2.34439   2.47495   2.57809   2.63329   2.64251
  Beta virt. eigenvalues --    2.64370   2.72206   2.83958   2.84786   2.85009
  Beta virt. eigenvalues --    2.86452   2.93216   2.93571   2.95303   3.00650
  Beta virt. eigenvalues --    3.02433   3.09437   3.13721   3.15440   3.15554
  Beta virt. eigenvalues --    3.17627   3.23714   3.30448   3.31473   3.34364
  Beta virt. eigenvalues --    3.36078   3.37220   3.38002   3.45479   3.48003
  Beta virt. eigenvalues --    3.50769   3.59684   3.68125   3.69169   3.78134
  Beta virt. eigenvalues --    3.81484   3.84934   3.85564   3.91066   3.95469
  Beta virt. eigenvalues --    3.97896   4.04473   4.09932   4.12889   4.26227
  Beta virt. eigenvalues --    4.26493   4.27674   4.30706   4.31922   4.44482
  Beta virt. eigenvalues --    4.47629   4.47962   4.50755   4.56205   4.56206
  Beta virt. eigenvalues --    4.64051   4.64996   4.74159   4.89526   4.97464
  Beta virt. eigenvalues --    5.09690   5.25280   5.25355   5.44547   5.50696
  Beta virt. eigenvalues --    5.59678   5.68712   5.79483   5.90733   5.92010
  Beta virt. eigenvalues --    5.97274   6.02459   6.26983   6.56108   6.74747
  Beta virt. eigenvalues --    6.75348   6.82793   7.20163   7.23379   7.23707
  Beta virt. eigenvalues --    7.34809   7.40555   7.45324   7.47712   7.51717
  Beta virt. eigenvalues --    7.63328   7.65989   7.66394   7.80528   7.82944
  Beta virt. eigenvalues --    8.08240   8.17345   8.28624   8.33275   8.45539
  Beta virt. eigenvalues --    8.70739   8.99092  14.51293  14.60694  14.65090
  Beta virt. eigenvalues --   14.92356  15.41065  24.25211  24.93456  25.73879
  Beta virt. eigenvalues --   25.76913  50.33211
          Condensed to atoms (all electrons):
               1          2          3          4          5          6
     1  C   13.801451   2.474262   0.008871   0.446324   2.671937  -7.030478
     2  C    2.474262  13.801451   0.008871   2.671937   0.446324  -2.355026
     3  O    0.008871   0.008871   8.642254  -0.167725  -0.167725   0.145167
     4  C    0.446324   2.671937  -0.167725   9.569151   2.503472  -0.850800
     5  C    2.671937   0.446324  -0.167725   2.503472   9.569151  -2.754233
     6  H   -7.030478  -2.355026   0.145167  -0.850800  -2.754233   7.577772
     7  H   -2.355026  -7.030478   0.145167  -2.754233  -0.850800   2.253698
     8  H   -1.495910  -3.546362   0.001599  -3.738483  -2.391990   1.604265
     9  H   -3.546362  -1.495910   0.001599  -2.391990  -3.738483   3.453754
               7          8          9
     1  C   -2.355026  -1.495910  -3.546362
     2  C   -7.030478  -3.546362  -1.495910
     3  O    0.145167   0.001599   0.001599
     4  C   -2.754233  -3.738483  -2.391990
     5  C   -0.850800  -2.391990  -3.738483
     6  H    2.253698   1.604265   3.453754
     7  H    7.577772   3.453754   1.604265
     8  H    3.453754   5.195852   2.801392
     9  H    1.604265   2.801392   5.195852
          Atomic-Atomic Spin Densities.
               1          2          3          4          5          6
     1  C    8.218687   2.597683  -0.233405   0.613617   2.669745  -7.480400
     2  C    2.597683   8.218687  -0.233405   2.669745   0.613617  -2.378142
     3  O   -0.233405  -0.233405   0.028159   0.037089   0.037089   0.197805
     4  C    0.613617   2.669745   0.037089   3.783703   2.078175  -0.843556
     5  C    2.669745   0.613617   0.037089   2.078175   3.783703  -2.678034
     6  H   -7.480400  -2.378142   0.197805  -0.843556  -2.678034   7.120738
     7  H   -2.378142  -7.480400   0.197805  -2.678034  -0.843556   2.251939
     8  H   -1.501354  -3.512528   0.000451  -4.145745  -2.328677   1.603969
     9  H   -3.512528  -1.501354   0.000451  -2.328677  -4.145745   3.445902
               7          8          9
     1  C   -2.378142  -1.501354  -3.512528
     2  C   -7.480400  -3.512528  -1.501354
     3  O    0.197805   0.000451   0.000451
     4  C   -2.678034  -4.145745  -2.328677
     5  C   -0.843556  -2.328677  -4.145745
     6  H    2.251939   1.603969   3.445902
     7  H    7.120738   3.445902   1.603969
     8  H    3.445902   4.710031   2.791493
     9  H    1.603969   2.791493   4.710031
 Mulliken charges and spin densities:
               1          2
     1  C    1.024930  -1.006097
     2  C    1.024930  -1.006097
     3  O   -0.618079   0.032039
     4  C    0.712346  -0.813684
     5  C    0.712346  -0.813684
     6  H   -1.044118   1.240219
     7  H   -1.044118   1.240219
     8  H   -0.884118   1.063542
     9  H   -0.884118   1.063542
 Sum of Mulliken charges =  -1.00000   1.00000
 Mulliken charges and spin densities with hydrogens summed into heavy atoms:
               1          2
     1  C   -0.019188   0.234122
     2  C   -0.019188   0.234122
     3  O   -0.618079   0.032039
     4  C   -0.171772   0.249858
     5  C   -0.171772   0.249858
 APT charges:
               1
     1  C   -0.424716
     2  C   -0.424716
     3  O    1.255394
     4  C    0.072852
     5  C    0.072852
     6  H   -0.392583
     7  H   -0.392583
     8  H   -0.383249
     9  H   -0.383249
 Sum of APT charges =  -1.00000
 APT charges with hydrogens summed into heavy atoms:
               1
     1  C   -0.817299
     2  C   -0.817299
     3  O    1.255394
     4  C   -0.310398
     5  C   -0.310398
 Electronic spatial extent (au):  <R**2>=            369.4276
 Charge=             -1.0000 electrons
 Dipole moment (field-independent basis, Debye):
    X=              0.0000    Y=             -0.0000    Z=              2.3520  Tot=              2.3520
 Quadrupole moment (field-independent basis, Debye-Ang):
   XX=            -49.8428   YY=            -77.8470   ZZ=            -63.1298
   XY=             -0.0000   XZ=              0.0000   YZ=             -0.0000
 Traceless Quadrupole moment (field-independent basis, Debye-Ang):
   XX=             13.7637   YY=            -14.2405   ZZ=              0.4768
   XY=             -0.0000   XZ=              0.0000   YZ=             -0.0000
 Octapole moment (field-independent basis, Debye-Ang**2):
  XXX=              0.0000  YYY=              0.0000  ZZZ=             62.4817  XYY=              0.0000
  XXY=              0.0000  XXZ=             14.0505  XZZ=             -0.0000  YZZ=              0.0000
  YYZ=             11.2466  XYZ=              0.0000
 Hexadecapole moment (field-independent basis, Debye-Ang**3):
 XXXX=           -212.0724 YYYY=          -1203.6437 ZZZZ=           -720.6065 XXXY=             -0.0000
 XXXZ=              0.0000 YYYX=             -0.0000 YYYZ=             -0.0000 ZZZX=              0.0000
 ZZZY=             -0.0000 XXYY=           -193.7964 XXZZ=           -139.5063 YYZZ=           -332.2904
 XXYZ=             -0.0000 YYXZ=              0.0000 ZZXY=             -0.0000
 N-N= 1.611772453703D+02 E-N=-8.636571945798D+02  KE= 2.291854001229D+02
 Symmetry A1   KE= 1.437116484419D+02
 Symmetry A2   KE= 2.410611627750D+00
 Symmetry B1   KE= 6.354830963319D+00
 Symmetry B2   KE= 7.670830908994D+01
  Exact polarizability: 213.922  -0.0003190.621  -0.000  -0.0002279.190
 Approx polarizability: 195.145   0.0003648.025  -0.000  -0.0001553.213
                          Isotropic Fermi Contact Couplings
        Atom                 a.u.       MegaHertz       Gauss      10(-4) cm-1
     1  C(13)              0.01704      19.15678       6.83562       6.39001
     2  C(13)              0.01704      19.15678       6.83562       6.39001
     3  O(17)              0.00293      -1.77491      -0.63333      -0.59205
     4  C(13)              0.01336      15.02182       5.36016       5.01074
     5  C(13)              0.01336      15.02182       5.36016       5.01074
     6  H(1)              -0.00039      -1.74886      -0.62404      -0.58336
     7  H(1)              -0.00039      -1.74886      -0.62404      -0.58336
     8  H(1)              -0.00039      -1.75597      -0.62657      -0.58573
     9  H(1)              -0.00039      -1.75597      -0.62657      -0.58573
 --------------------------------------------------------
       Center         ----  Spin Dipole Couplings  ----
                      3XX-RR        3YY-RR        3ZZ-RR
 --------------------------------------------------------
     1   Atom       -0.005845      0.008244     -0.002399
     2   Atom       -0.005845      0.008244     -0.002399
     3   Atom       -0.000593      0.001449     -0.000856
     4   Atom       -0.006654      0.000423      0.006231
     5   Atom       -0.006654      0.000423      0.006231
     6   Atom       -0.003348      0.004304     -0.000956
     7   Atom       -0.003348      0.004304     -0.000956
     8   Atom       -0.003193      0.001232      0.001961
     9   Atom       -0.003193      0.001232      0.001961
 --------------------------------------------------------
                        XY            XZ            YZ
 --------------------------------------------------------
     1   Atom        0.000000     -0.000000      0.005210
     2   Atom        0.000000     -0.000000     -0.005210
     3   Atom        0.000000     -0.000000      0.000000
     4   Atom        0.000000     -0.000000      0.006152
     5   Atom        0.000000     -0.000000     -0.006152
     6   Atom        0.000000     -0.000000      0.003381
     7   Atom        0.000000     -0.000000     -0.003381
     8   Atom        0.000000     -0.000000      0.003592
     9   Atom        0.000000     -0.000000     -0.003592
 --------------------------------------------------------


 ---------------------------------------------------------------------------------
              Anisotropic Spin Dipole Couplings in Principal Axis System
 ---------------------------------------------------------------------------------

       Atom             a.u.   MegaHertz   Gauss  10(-4) cm-1        Axes

              Baa    -0.0058    -0.784    -0.280    -0.262  1.0000 -0.0000  0.0000
     1 C(13)  Bbb    -0.0045    -0.607    -0.217    -0.203 -0.0000 -0.3778  0.9259
              Bcc     0.0104     1.391     0.497     0.464  0.0000  0.9259  0.3778
 
              Baa    -0.0058    -0.784    -0.280    -0.262  1.0000  0.0000  0.0000
     2 C(13)  Bbb    -0.0045    -0.607    -0.217    -0.203 -0.0000  0.3778  0.9259
              Bcc     0.0104     1.391     0.497     0.464  0.0000  0.9259 -0.3778
 
              Baa    -0.0009     0.062     0.022     0.021  0.0000 -0.0000  1.0000
     3 O(17)  Bbb    -0.0006     0.043     0.015     0.014  1.0000 -0.0000 -0.0000
              Bcc     0.0014    -0.105    -0.037    -0.035  0.0000  1.0000  0.0000
 
              Baa    -0.0067    -0.893    -0.319    -0.298  1.0000 -0.0000  0.0000
     4 C(13)  Bbb    -0.0035    -0.466    -0.166    -0.156  0.0000  0.8446 -0.5353
              Bcc     0.0101     1.359     0.485     0.453 -0.0000  0.5353  0.8446
 
              Baa    -0.0067    -0.893    -0.319    -0.298  1.0000 -0.0000  0.0000
     5 C(13)  Bbb    -0.0035    -0.466    -0.166    -0.156  0.0000  0.8446  0.5353
              Bcc     0.0101     1.359     0.485     0.453 -0.0000 -0.5353  0.8446
 
              Baa    -0.0033    -1.786    -0.637    -0.596  1.0000  0.0000  0.0000
     6 H(1)   Bbb    -0.0026    -1.392    -0.497    -0.464  0.0000 -0.4394  0.8983
              Bcc     0.0060     3.179     1.134     1.060 -0.0000  0.8983  0.4394
 
              Baa    -0.0033    -1.786    -0.637    -0.596  1.0000 -0.0000  0.0000
     7 H(1)   Bbb    -0.0026    -1.392    -0.497    -0.464  0.0000  0.4394  0.8983
              Bcc     0.0060     3.179     1.134     1.060  0.0000  0.8983 -0.4394
 
              Baa    -0.0032    -1.704    -0.608    -0.568  1.0000 -0.0000  0.0000
     8 H(1)   Bbb    -0.0020    -1.075    -0.383    -0.358  0.0000  0.7420 -0.6704
              Bcc     0.0052     2.778     0.991     0.927 -0.0000  0.6704  0.7420
 
              Baa    -0.0032    -1.704    -0.608    -0.568  1.0000 -0.0000  0.0000
     9 H(1)   Bbb    -0.0020    -1.075    -0.383    -0.358  0.0000  0.7420  0.6704
              Bcc     0.0052     2.778     0.991     0.927 -0.0000 -0.6704  0.7420
 

 ---------------------------------------------------------------------------------

 No NMR shielding tensors so no spin-rotation constants.
 Leave Link  601 at Thu Mar  7 15:25:29 2019, MaxMem=    33554432 cpu:         2.6
 (Enter /home/proyectos/fulerenos/M3C-v2.0/M3C-deps_CCC/g09-AM64L-G09RevC.01/l701.exe)
 Compute integral second derivatives.
 ... and contract with generalized density number  0.
 Leave Link  701 at Thu Mar  7 15:25:29 2019, MaxMem=    33554432 cpu:         1.5
 (Enter /home/proyectos/fulerenos/M3C-v2.0/M3C-deps_CCC/g09-AM64L-G09RevC.01/l702.exe)
 L702 exits ... SP integral derivatives will be done elsewhere.
 Leave Link  702 at Thu Mar  7 15:25:29 2019, MaxMem=    33554432 cpu:         0.1
 (Enter /home/proyectos/fulerenos/M3C-v2.0/M3C-deps_CCC/g09-AM64L-G09RevC.01/l703.exe)
 Compute integral second derivatives, UseDBF=F ICtDFT=           0.
 Integral derivatives from FoFJK, PRISM(SPDF).
 Calling FoFJK, ICntrl=    100127 FMM=F ISym2X=1 I1Cent= 0 IOpClX= 1 NMat=1 NMatS=1 NMatT=0.
 FoFJK:  IHMeth= 1 ICntrl=  100127 DoSepK=F KAlg= 0 I1Cent=   0 FoldK=F
 IRaf=         0 NMat=   1 IRICut=       1 DoRegI=T DoRafI=F ISym2E= 1.
 FoFCou: FMM=F IPFlag=           0 FMFlag=      100000 FMFlg1=         800
         NFxFlg=           0 DoJE=F BraDBF=F KetDBF=F FulRan=T
         wScrn=  0.000000 ICntrl=  100127 IOpCl=  1 I1Cent=           0 NGrid=           0
         NMat0=    1 NMatS0=      1 NMatT0=    0 NMatD0=    1 NMtDS0=    0 NMtDT0=    0
 Petite list used in FoFCou.
 Leave Link  703 at Thu Mar  7 15:26:52 2019, MaxMem=    33554432 cpu:       330.3
 (Enter /home/proyectos/fulerenos/M3C-v2.0/M3C-deps_CCC/g09-AM64L-G09RevC.01/l716.exe)
 Dipole        = 9.98170307D-17-2.30675938D-14 9.25336440D-01
 Polarizability= 2.13921845D+02-5.78921428D-06 3.19062089D+03
                -4.01491597D-06-2.16044590D-05 2.27918978D+03
 Full mass-weighted force constant matrix:
 Low frequencies ---  -14.4935   -0.0011   -0.0007   -0.0003   32.8388   36.6852
 Low frequencies ---  612.2227  612.3230  730.9558
 Diagonal vibrational polarizability:
       66.5462788       6.4184217      40.7306115
 Harmonic frequencies (cm**-1), IR intensities (KM/Mole), Raman scattering
 activities (A**4/AMU), depolarization ratios for plane and unpolarized
 incident light, reduced masses (AMU), force constants (mDyne/A),
 and normal coordinates:
                      1                      2                      3
                     A2                     B1                     A2
 Frequencies --    612.2173               612.3211               730.9556
 Red. masses --      2.7517                 3.4095                 1.3222
 Frc consts  --      0.6077                 0.7532                 0.4162
 IR Inten    --      0.0000               145.0330                 0.0000
  Atom  AN      X      Y      Z        X      Y      Z        X      Y      Z
     1   6     0.14  -0.00   0.00    -0.22   0.00   0.00    -0.12   0.00   0.00
     2   6    -0.14   0.00   0.00    -0.22   0.00  -0.00     0.12  -0.00   0.00
     3   8     0.00   0.00   0.00     0.27   0.00  -0.00    -0.00  -0.00  -0.00
     4   6     0.24   0.00  -0.00     0.09  -0.00  -0.00     0.02  -0.00   0.00
     5   6    -0.24  -0.00  -0.00     0.09  -0.00   0.00    -0.02   0.00   0.00
     6   1     0.45   0.00  -0.00    -0.64   0.00   0.00     0.63   0.00   0.00
     7   1    -0.45  -0.00  -0.00    -0.64   0.00  -0.00    -0.63  -0.00   0.00
     8   1     0.47  -0.00   0.00    -0.01  -0.00   0.00    -0.30  -0.00   0.00
     9   1    -0.47   0.00   0.00    -0.01  -0.00  -0.00     0.30   0.00   0.00
                      4                      5                      6
                     B1                     B2                     B1
 Frequencies --    774.8359               860.4732               865.6151
 Red. masses --      1.2251                 6.1650                 1.3163
 Frc consts  --      0.4334                 2.6894                 0.5811
 IR Inten    --   1248.6210                 1.4161                 4.6753
  Atom  AN      X      Y      Z        X      Y      Z        X      Y      Z
     1   6    -0.08   0.00   0.00     0.00  -0.17  -0.18    -0.08  -0.00  -0.00
     2   6    -0.08   0.00  -0.00     0.00  -0.17   0.18    -0.08  -0.00   0.00
     3   8     0.05   0.00   0.00     0.00  -0.13  -0.00    -0.00  -0.00   0.00
     4   6    -0.04  -0.00  -0.00    -0.00   0.27   0.30     0.08   0.00   0.00
     5   6    -0.04  -0.00   0.00    -0.00   0.27  -0.30     0.08   0.00  -0.00
     6   1     0.44   0.00   0.00    -0.00  -0.29   0.05     0.51  -0.00   0.00
     7   1     0.44   0.00  -0.00    -0.00  -0.29  -0.05     0.51  -0.00  -0.00
     8   1     0.55  -0.00  -0.00     0.00   0.15   0.40    -0.48   0.00   0.00
     9   1     0.55  -0.00   0.00     0.00   0.15  -0.40    -0.48   0.00  -0.00
                      7                      8                      9
                     A1                     A2                     A1
 Frequencies --    880.7211               894.3099              1001.2556
 Red. masses --      4.8561                 1.3537                 1.4837
 Frc consts  --      2.2193                 0.6379                 0.8764
 IR Inten    --    500.4746                 0.0000               642.5341
  Atom  AN      X      Y      Z        X      Y      Z        X      Y      Z
     1   6    -0.00  -0.21  -0.07    -0.05   0.00   0.00     0.00   0.08  -0.04
     2   6     0.00   0.21  -0.07     0.05  -0.00   0.00     0.00  -0.08  -0.04
     3   8     0.00   0.00   0.38    -0.00  -0.00  -0.00    -0.00  -0.00   0.10
     4   6    -0.00   0.03  -0.15    -0.12  -0.00   0.00     0.00   0.08   0.01
     5   6     0.00  -0.03  -0.15     0.12   0.00   0.00    -0.00  -0.08   0.01
     6   1     0.00  -0.01  -0.48     0.25   0.00   0.00     0.00   0.16  -0.19
     7   1    -0.00   0.01  -0.48    -0.25  -0.00   0.00    -0.00  -0.16  -0.19
     8   1     0.00  -0.33   0.11     0.65   0.00  -0.00    -0.00   0.55  -0.34
     9   1    -0.00   0.33   0.11    -0.65  -0.00  -0.00     0.00  -0.55  -0.34
                     10                     11                     12
                     B2                     A1                     A1
 Frequencies --   1049.2203              1076.3379              1159.9914
 Red. masses --      1.7401                 2.6497                 1.9024
 Frc consts  --      1.1287                 1.8086                 1.5082
 IR Inten    --      1.9944                 1.0629                 0.2753
  Atom  AN      X      Y      Z        X      Y      Z        X      Y      Z
     1   6    -0.00  -0.14  -0.02     0.00   0.21  -0.06    -0.00   0.05   0.04
     2   6    -0.00  -0.14   0.02    -0.00  -0.21  -0.06     0.00  -0.05   0.04
     3   8     0.00   0.13  -0.00    -0.00  -0.00   0.09     0.00   0.00   0.10
     4   6    -0.00   0.01  -0.04     0.00  -0.14   0.01    -0.00  -0.12  -0.12
     5   6    -0.00   0.01   0.04    -0.00   0.14   0.01     0.00   0.12  -0.12
     6   1    -0.00   0.04  -0.38    -0.00   0.36  -0.31     0.00  -0.21   0.55
     7   1    -0.00   0.04   0.38     0.00  -0.36  -0.31    -0.00   0.21   0.55
     8   1     0.00   0.44  -0.37    -0.00  -0.40   0.20     0.00   0.10  -0.32
     9   1     0.00   0.44   0.37     0.00   0.40   0.20    -0.00  -0.10  -0.32
                     13                     14                     15
                     B2                     B2                     A1
 Frequencies --   1186.7068              1285.8087              1408.6163
 Red. masses --      2.5746                 1.2383                 2.9814
 Frc consts  --      2.1362                 1.2062                 3.4854
 IR Inten    --    313.1889                17.0309               414.0663
  Atom  AN      X      Y      Z        X      Y      Z        X      Y      Z
     1   6    -0.00  -0.12   0.13    -0.00   0.04  -0.06    -0.00   0.13   0.00
     2   6    -0.00  -0.12  -0.13    -0.00   0.04   0.06     0.00  -0.13   0.00
     3   8     0.00   0.24  -0.00    -0.00   0.03  -0.00     0.00   0.00   0.04
     4   6     0.00   0.01   0.02     0.00  -0.06   0.03    -0.00   0.25  -0.10
     5   6     0.00   0.01  -0.02     0.00  -0.06  -0.03     0.00  -0.25  -0.10
     6   1     0.00  -0.27   0.42     0.00  -0.26   0.50     0.00  -0.05   0.41
     7   1     0.00  -0.27  -0.42     0.00  -0.26  -0.50    -0.00   0.05   0.41
     8   1    -0.00  -0.34   0.28    -0.00   0.32  -0.26     0.00  -0.33   0.35
     9   1    -0.00  -0.34  -0.28    -0.00   0.32   0.26    -0.00   0.33   0.35
                     16                     17                     18
                     A1                     B2                     B2
 Frequencies --   1505.9535              1586.6752              3200.1897
 Red. masses --      3.3466                 4.5411                 1.0892
 Frc consts  --      4.4718                 6.7358                 6.5719
 IR Inten    --     23.6676                 2.3262                11.8505
  Atom  AN      X      Y      Z        X      Y      Z        X      Y      Z
     1   6     0.00   0.01   0.27     0.00   0.05   0.26     0.00   0.01   0.01
     2   6    -0.00  -0.01   0.27     0.00   0.05  -0.26     0.00   0.01  -0.01
     3   8    -0.00   0.00  -0.08     0.00  -0.01   0.00    -0.00   0.00  -0.00
     4   6     0.00   0.02  -0.17    -0.00  -0.10   0.29    -0.00  -0.03  -0.05
     5   6    -0.00  -0.02  -0.17    -0.00  -0.10  -0.29    -0.00  -0.03   0.05
     6   1    -0.00   0.42  -0.44    -0.00   0.32  -0.15    -0.00  -0.18  -0.09
     7   1     0.00  -0.42  -0.44    -0.00   0.32   0.15    -0.00  -0.18   0.09
     8   1    -0.00  -0.05  -0.15     0.00   0.45  -0.09     0.00   0.41   0.54
     9   1     0.00   0.05  -0.15     0.00   0.45   0.09     0.00   0.41  -0.54
                     19                     20                     21
                     A1                     A1                     B2
 Frequencies --   3204.5892              3234.7237              3236.7142
 Red. masses --      1.0982                 1.1053                 1.0998
 Frc consts  --      6.6446                 6.8142                 6.7887
 IR Inten    --     50.7207                23.0213                 0.0530
  Atom  AN      X      Y      Z        X      Y      Z        X      Y      Z
     1   6    -0.00  -0.01  -0.00    -0.00  -0.06  -0.03    -0.00  -0.05  -0.03
     2   6     0.00   0.01  -0.00     0.00   0.06  -0.03    -0.00  -0.05   0.03
     3   8     0.00  -0.00   0.00     0.00   0.00  -0.00     0.00   0.00   0.00
     4   6     0.00  -0.04  -0.05    -0.00   0.01   0.01     0.00  -0.01  -0.02
     5   6    -0.00   0.04  -0.05     0.00  -0.01   0.01     0.00  -0.01   0.02
     6   1     0.00   0.10   0.05     0.00   0.62   0.32     0.00   0.60   0.31
     7   1    -0.00  -0.10   0.05    -0.00  -0.62   0.32     0.00   0.60  -0.31
     8   1    -0.00   0.42   0.55     0.00  -0.06  -0.09    -0.00   0.12   0.16
     9   1     0.00  -0.42   0.55    -0.00   0.06  -0.09    -0.00   0.12  -0.16

 -------------------
 - Thermochemistry -
 -------------------
 Temperature   298.150 Kelvin.  Pressure   1.00000 Atm.
 Atom     1 has atomic number  6 and mass  12.00000
 Atom     2 has atomic number  6 and mass  12.00000
 Atom     3 has atomic number  8 and mass  15.99491
 Atom     4 has atomic number  6 and mass  12.00000
 Atom     5 has atomic number  6 and mass  12.00000
 Atom     6 has atomic number  1 and mass   1.00783
 Atom     7 has atomic number  1 and mass   1.00783
 Atom     8 has atomic number  1 and mass   1.00783
 Atom     9 has atomic number  1 and mass   1.00783
 Molecular mass:    68.02621 amu.
 Principal axes and moments of inertia in atomic units:
                           1         2         3
     Eigenvalues --   190.08797 193.47628 383.56426
           X            0.00000   0.00000   1.00000
           Y            0.00000   1.00000  -0.00000
           Z            1.00000  -0.00000   0.00000
 This molecule is an asymmetric top.
 Rotational symmetry number  2.
 Rotational temperatures (Kelvin)      0.45565     0.44767     0.22581
 Rotational constants (GHZ):           9.49424     9.32797     4.70519
 Zero-point vibrational energy     181642.4 (Joules/Mol)
                                   43.41357 (Kcal/Mol)
 Warning -- explicit consideration of   2 degrees of freedom as
           vibrations may cause significant error
 Vibrational temperatures:    880.84   880.99  1051.68  1114.81  1238.03
          (Kelvin)           1245.43  1267.16  1286.71  1440.58  1509.59
                             1548.61  1668.97  1707.40  1849.99  2026.68
                             2166.73  2282.87  4604.35  4610.68  4654.04
                             4656.90
 
 Zero-point correction=                           0.069184 (Hartree/Particle)
 Thermal correction to Energy=                    0.072906
 Thermal correction to Enthalpy=                  0.073851
 Thermal correction to Gibbs Free Energy=         0.042919
 Sum of electronic and zero-point Energies=           -230.011780
 Sum of electronic and thermal Energies=              -230.008058
 Sum of electronic and thermal Enthalpies=            -230.007113
 Sum of electronic and thermal Free Energies=         -230.038045
 
                     E (Thermal)             CV                S
                      KCal/Mol        Cal/Mol-Kelvin    Cal/Mol-Kelvin
 Total                   45.749             13.413             65.101
 Electronic               0.000              0.000              1.377
 Translational            0.889              2.981             38.570
 Rotational               0.889              2.981             22.782
 Vibrational             43.972              7.452              2.372
 Vibration     1          0.971              1.006              0.429
 Vibration     2          0.972              1.006              0.429
                       Q            Log10(Q)             Ln(Q)
 Total Bot       0.181470D-19        -19.741196        -45.455783
 Total V=0       0.120540D+13         12.081132         27.817833
 Vib (Bot)       0.193543D-31        -31.713222        -73.022392
 Vib (Bot)    1  0.240830D+00         -0.618289         -1.423662
 Vib (Bot)    2  0.240764D+00         -0.618409         -1.423940
 Vib (V=0)       0.128560D+01          0.109105          0.251224
 Vib (V=0)    1  0.105498D+01          0.023243          0.053519
 Vib (V=0)    2  0.105495D+01          0.023231          0.053491
 Electronic      0.200000D+01          0.301030          0.693147
 Translational   0.220531D+08          7.343470         16.908964
 Rotational      0.212582D+05          4.327527          9.964498
 
                                                              b3lyp opt
                                                             IR Spectrum
 
    3333                                                              1  1   1    1   11  11 1                                       
    2222                                                              5  5   4    2   11  00 0  8888  7 7  66                        
    3300                                                              8  0   0    8   86  74 0  9866  7 3  11                        
    7550                                                              7  6   9    6   70  69 1  4160  5 1  22                        
 
    XXXX                                                              X  X   X    X   XX  XX X   XXX  X    X                         
                                                                             X        X      X   X    X    X                         
                                                                             X        X      X   X    X                              
                                                                             X        X      X   X    X                              
                                                                             X        X      X   X    X                              
                                                                             X               X   X    X                              
                                                                             X               X   X    X                              
                                                                                             X   X    X                              
                                                                                             X        X                              
                                                                                             X        X                              
                                                                                                      X                              
                                                                                                      X                              
                                                                                                      X                              
                                                                                                      X                              
                                                                                                      X                              
                                                                                                      X                              
                                                                                                      X                              
                                                                                                      X                              
                                                                                                      X                              
                                                                                                      X                              
 
 ***** Axes restored to original set *****
 -------------------------------------------------------------------
 Center     Atomic                   Forces (Hartrees/Bohr)
 Number     Number              X              Y              Z
 -------------------------------------------------------------------
      1        6          -0.000000000   -0.000022698   -0.000003559
      2        6           0.000000000    0.000022698   -0.000003559
      3        8          -0.000000000    0.000000000   -0.000048675
      4        6          -0.000000000    0.000047423    0.000032774
      5        6          -0.000000000   -0.000047423    0.000032774
      6        1          -0.000000000   -0.000010370    0.000005000
      7        1          -0.000000000    0.000010370    0.000005000
      8        1           0.000000000    0.000000599   -0.000009878
      9        1           0.000000000   -0.000000599   -0.000009878
 -------------------------------------------------------------------
 Cartesian Forces:  Max     0.000048675 RMS     0.000019750
 Z-matrix is all fixed cartesians, so copy forces.
 Force constants in Cartesian coordinates: 
                1             2             3             4             5 
      1  0.120993D+00
      2  0.000000D+00  0.719880D+00
      3  0.000000D+00  0.182537D+00  0.701002D+00
      4  0.167143D-01  0.000000D+00  0.000000D+00  0.120993D+00
      5  0.000000D+00 -0.121044D+00  0.116854D-01  0.000000D+00  0.719880D+00
      6  0.000000D+00 -0.116854D-01 -0.791262D-02  0.000000D+00 -0.182537D+00
      7 -0.635863D-01  0.000000D+00  0.000000D+00 -0.635863D-01  0.000000D+00
      8  0.000000D+00 -0.176447D+00  0.944213D-01  0.000000D+00 -0.176447D+00
      9  0.000000D+00  0.542046D-01 -0.153140D+00  0.000000D+00 -0.542046D-01
     10  0.114193D-01  0.000000D+00  0.000000D+00 -0.637163D-01  0.000000D+00
     11  0.000000D+00 -0.285891D-01 -0.738715D-01  0.000000D+00 -0.119093D+00
     12  0.000000D+00 -0.110700D-01 -0.179252D-03  0.000000D+00  0.994768D-01
     13 -0.637163D-01  0.000000D+00  0.000000D+00  0.114193D-01  0.000000D+00
     14  0.000000D+00 -0.119093D+00 -0.815888D-01  0.000000D+00 -0.285891D-01
     15  0.000000D+00 -0.994768D-01 -0.393809D+00  0.000000D+00  0.110700D-01
     16 -0.248693D-01  0.000000D+00  0.000000D+00  0.118644D-02  0.000000D+00
     17  0.000000D+00 -0.279246D+00 -0.122147D+00  0.000000D+00  0.359983D-03
     18  0.000000D+00 -0.133391D+00 -0.127225D+00  0.000000D+00  0.229710D-02
     19  0.118644D-02  0.000000D+00  0.000000D+00 -0.248693D-01  0.000000D+00
     20  0.000000D+00  0.359983D-03 -0.499202D-02  0.000000D+00 -0.279246D+00
     21  0.000000D+00 -0.229710D-02 -0.480296D-02  0.000000D+00  0.133391D+00
     22  0.334356D-02  0.000000D+00  0.000000D+00 -0.148440D-02  0.000000D+00
     23  0.000000D+00 -0.658447D-02  0.468107D-03  0.000000D+00  0.107647D-01
     24  0.000000D+00  0.264206D-02 -0.216872D-02  0.000000D+00 -0.185368D-01
     25 -0.148440D-02  0.000000D+00  0.000000D+00  0.334356D-02  0.000000D+00
     26  0.000000D+00  0.107647D-01 -0.651209D-02  0.000000D+00 -0.658447D-02
     27  0.000000D+00  0.185368D-01 -0.117632D-01  0.000000D+00 -0.264206D-02
                6             7             8             9            10 
      6  0.701002D+00
      7  0.000000D+00  0.932356D-01
      8 -0.944213D-01  0.000000D+00  0.446061D+00
      9 -0.153140D+00  0.000000D+00  0.000000D+00  0.449604D+00
     10  0.000000D+00  0.127162D-01  0.000000D+00  0.000000D+00  0.120282D+00
     11  0.815888D-01  0.000000D+00 -0.229125D-01 -0.775577D-02  0.000000D+00
     12 -0.393809D+00  0.000000D+00 -0.514119D-01 -0.816550D-01  0.000000D+00
     13  0.000000D+00  0.127162D-01  0.000000D+00  0.000000D+00 -0.582202D-01
     14  0.738715D-01  0.000000D+00 -0.229125D-01  0.775577D-02  0.000000D+00
     15 -0.179252D-03  0.000000D+00  0.514119D-01 -0.816550D-01  0.000000D+00
     16  0.000000D+00 -0.456844D-02  0.000000D+00  0.000000D+00  0.514873D-02
     17  0.499202D-02  0.000000D+00 -0.255712D-01 -0.970911D-02  0.000000D+00
     18 -0.480296D-02  0.000000D+00  0.258330D-01  0.128924D-01  0.000000D+00
     19  0.000000D+00 -0.456844D-02  0.000000D+00  0.000000D+00  0.280617D-02
     20  0.122147D+00  0.000000D+00 -0.255712D-01  0.970911D-02  0.000000D+00
     21 -0.127225D+00  0.000000D+00 -0.258330D-01  0.128924D-01  0.000000D+00
     22  0.000000D+00  0.882077D-02  0.000000D+00  0.000000D+00 -0.295145D-01
     23  0.651209D-02  0.000000D+00  0.190072D-02  0.493141D-02  0.000000D+00
     24 -0.117632D-01  0.000000D+00 -0.949485D-03 -0.289902D-02  0.000000D+00
     25  0.000000D+00  0.882077D-02  0.000000D+00  0.000000D+00 -0.921831D-03
     26 -0.468107D-03  0.000000D+00  0.190072D-02 -0.493141D-02  0.000000D+00
     27 -0.216872D-02  0.000000D+00  0.949484D-03 -0.289902D-02  0.000000D+00
               11            12            13            14            15 
     11  0.597953D+00
     12  0.101149D+00  0.810417D+00
     13  0.000000D+00  0.000000D+00  0.120282D+00
     14 -0.261239D+00 -0.195428D-01  0.000000D+00  0.597953D+00
     15  0.195428D-01 -0.101571D+00  0.000000D+00 -0.101149D+00  0.810417D+00
     16  0.000000D+00  0.000000D+00  0.280617D-02  0.000000D+00  0.000000D+00
     17 -0.336188D-03 -0.262301D-03  0.000000D+00  0.337591D-02  0.111892D-02
     18 -0.155549D-02 -0.479869D-02  0.000000D+00 -0.209934D-01  0.141018D-02
     19  0.000000D+00  0.000000D+00  0.514873D-02  0.000000D+00  0.000000D+00
     20  0.337591D-02 -0.111892D-02  0.000000D+00 -0.336188D-03  0.262301D-03
     21  0.209934D-01  0.141018D-02  0.000000D+00  0.155549D-02 -0.479869D-02
     22  0.000000D+00  0.000000D+00 -0.921831D-03  0.000000D+00  0.000000D+00
     23 -0.161462D+00 -0.139476D+00  0.000000D+00 -0.769608D-02 -0.222565D-01
     24 -0.137209D+00 -0.238734D+00  0.000000D+00  0.288156D-02  0.892061D-02
     25  0.000000D+00  0.000000D+00 -0.295145D-01  0.000000D+00  0.000000D+00
     26 -0.769608D-02  0.222565D-01  0.000000D+00 -0.161462D+00  0.139476D+00
     27 -0.288156D-02  0.892061D-02  0.000000D+00  0.137209D+00 -0.238734D+00
               16            17            18            19            20 
     16  0.195174D-01
     17  0.000000D+00  0.301295D+00
     18  0.000000D+00  0.127129D+00  0.120040D+00
     19  0.233481D-02  0.000000D+00  0.000000D+00  0.195174D-01
     20  0.000000D+00  0.287135D-04  0.978008D-03  0.000000D+00  0.301295D+00
     21  0.000000D+00 -0.978008D-03  0.999032D-03  0.000000D+00 -0.127129D+00
     22  0.106817D-02  0.000000D+00  0.000000D+00 -0.262393D-02  0.000000D+00
     23  0.000000D+00  0.725102D-03 -0.934684D-03  0.000000D+00 -0.631168D-03
     24  0.000000D+00  0.223412D-03  0.897047D-03  0.000000D+00  0.366890D-03
     25 -0.262393D-02  0.000000D+00  0.000000D+00  0.106817D-02  0.000000D+00
     26  0.000000D+00 -0.631168D-03  0.637462D-03  0.000000D+00  0.725102D-03
     27  0.000000D+00 -0.366890D-03  0.588781D-03  0.000000D+00 -0.223412D-03
               21            22            23            24            25 
     21  0.120040D+00
     22  0.000000D+00  0.228042D-01
     23 -0.637462D-03  0.000000D+00  0.161452D+00
     24  0.588781D-03  0.000000D+00  0.150987D+00  0.246081D+00
     25  0.000000D+00 -0.149204D-02  0.000000D+00  0.000000D+00  0.228042D-01
     26  0.934684D-03  0.000000D+00  0.153182D-02 -0.405704D-03  0.000000D+00
     27  0.897047D-03  0.000000D+00  0.405704D-03 -0.922407D-03  0.000000D+00
               26            27 
     26  0.161452D+00
     27 -0.150987D+00  0.246081D+00
 Leave Link  716 at Thu Mar  7 15:26:52 2019, MaxMem=    33554432 cpu:         0.1
 (Enter /home/proyectos/fulerenos/M3C-v2.0/M3C-deps_CCC/g09-AM64L-G09RevC.01/l103.exe)

 GradGradGradGradGradGradGradGradGradGradGradGradGradGradGradGradGradGrad
 Berny optimization.
 Search for a local minimum.
 Step number   1 out of a maximum of    2
 All quantities printed in internal units (Hartrees-Bohrs-Radians)
 Second derivative matrix not updated -- analytic derivatives used.
 ITU=  0
     Eigenvalues ---    0.02227   0.02856   0.04276   0.05344   0.06082
     Eigenvalues ---    0.06082   0.06154   0.14451   0.16733   0.20038
     Eigenvalues ---    0.22649   0.22817   0.27814   0.38630   0.61935
     Eigenvalues ---    0.72033   0.76801   0.91675   1.05108   1.31422
     Eigenvalues ---    1.34803
 Angle between quadratic step and forces=  60.33 degrees.
 ClnCor:  largest displacement from symmetrization is 1.25D-12 for atom     9.
 Linear search not attempted -- first point.
 ClnCor:  largest displacement from symmetrization is 1.26D-29 for atom     3.
 B after Tr=    -0.000000    0.000000   -0.000010
         Rot=    1.000000   -0.000000    0.000000    0.000000 Ang=   0.00 deg.
 Variable       Old X    -DE/DX   Delta X   Delta X   Delta X     New X
                                 (Linear)    (Quad)   (Total)
    X1        0.00000  -0.00000   0.00000  -0.00000  -0.00000   0.00000
    Y1        2.06598  -0.00002   0.00000  -0.00004  -0.00004   2.06594
    Z1        0.64395  -0.00000   0.00000   0.00000  -0.00001   0.64394
    X2       -0.00000   0.00000   0.00000   0.00000   0.00000  -0.00000
    Y2       -2.06598   0.00002   0.00000   0.00004   0.00004  -2.06594
    Z2        0.64395  -0.00000   0.00000   0.00000  -0.00001   0.64394
    X3        0.00000  -0.00000   0.00000  -0.00000  -0.00000   0.00000
    Y3        0.00000   0.00000   0.00000  -0.00000   0.00000   0.00000
    Z3        2.18010  -0.00005   0.00000  -0.00010  -0.00011   2.17999
    X4       -0.00000  -0.00000   0.00000   0.00000   0.00000  -0.00000
    Y4       -1.35194   0.00005   0.00000   0.00007   0.00007  -1.35187
    Z4       -1.81321   0.00003   0.00000   0.00003   0.00002  -1.81318
    X5        0.00000  -0.00000   0.00000  -0.00000  -0.00000   0.00000
    Y5        1.35194  -0.00005   0.00000  -0.00007  -0.00007   1.35187
    Z5       -1.81321   0.00003   0.00000   0.00003   0.00002  -1.81318
    X6        0.00000  -0.00000   0.00000  -0.00000  -0.00000   0.00000
    Y6        3.87363  -0.00001   0.00000  -0.00013  -0.00013   3.87350
    Z6        1.57665   0.00000   0.00000   0.00014   0.00013   1.57678
    X7       -0.00000  -0.00000   0.00000   0.00000   0.00000  -0.00000
    Y7       -3.87363   0.00001   0.00000   0.00013   0.00013  -3.87350
    Z7        1.57665   0.00000   0.00000   0.00014   0.00013   1.57678
    X8       -0.00000   0.00000   0.00000   0.00000   0.00000  -0.00000
    Y8       -2.59168   0.00000   0.00000   0.00018   0.00018  -2.59150
    Z8       -3.43085  -0.00001   0.00000  -0.00008  -0.00009  -3.43094
    X9        0.00000   0.00000   0.00000  -0.00000  -0.00000   0.00000
    Y9        2.59168  -0.00000   0.00000  -0.00018  -0.00018   2.59150
    Z9       -3.43085  -0.00001   0.00000  -0.00008  -0.00009  -3.43094
         Item               Value     Threshold  Converged?
 Maximum Force            0.000049     0.000450     YES
 RMS     Force            0.000020     0.000300     YES
 Maximum Displacement     0.000181     0.001800     YES
 RMS     Displacement     0.000081     0.001200     YES
 Predicted change in Energy=-1.074629D-08
 Optimization completed.
    -- Stationary point found.
 GradGradGradGradGradGradGradGradGradGradGradGradGradGradGradGradGradGrad

 Leave Link  103 at Thu Mar  7 15:26:52 2019, MaxMem=    33554432 cpu:         0.1
 (Enter /home/proyectos/fulerenos/M3C-v2.0/M3C-deps_CCC/g09-AM64L-G09RevC.01/l9999.exe)

 Test job not archived.
 1\1\GINC-BELVIS21\Freq\UB3LYP\6-311++G(3df,2p)\C4H4O1(1-,2)\ROOT\07-Ma
 r-2019\0\\#p b3lyp/6-311++G(3df,2p) freq IOp(2/17=3) IOp(2/18=3)\\b3ly
 p opt\\-1,2\C,0.,1.09327,0.340763\C,0.,-1.09327,0.340763\O,0.,0.,1.153
 66\C,0.,-0.715415,-0.959508\C,0.,0.715415,-0.959508\H,0.,2.049839,0.83
 4326\H,0.,-2.049839,0.834326\H,0.,-1.371457,-1.815528\H,0.,1.371457,-1
 .815528\\Version=EM64L-G09RevE.01\State=2-A1\HF=-230.0809639\S2=0.7500
 26\S2-1=0.\S2A=0.75\RMSD=7.383e-10\RMSF=1.975e-05\ZeroPoint=0.0691839\
 Thermal=0.0729063\Dipole=0.,0.,0.9253364\DipoleDeriv=0.331824,0.,0.,0.
 ,-0.6158541,-0.616939,0.,0.6802959,-0.9901173,0.331824,0.,0.,0.,-0.615
 854,0.6169385,0.,-0.6802958,-0.990117,-0.0605035,0.,0.,0.,1.1180976,0.
 0000003,0.,-0.0000007,2.7085885,0.3890274,-0.0000001,0.,0.,-0.2186088,
 -0.3149627,0.,0.0508695,0.0481361,0.3890275,-0.0000001,0.,0.,-0.218608
 8,0.314963,0.,-0.050869,0.0481364,-0.6213924,0.,0.,0.,-0.0789728,-0.01
 66168,0.,0.0799354,-0.4773852,-0.6213924,0.,0.,0.,-0.0789728,0.0166168
 ,0.,-0.0799353,-0.4773852,-0.5692074,0.,0.,0.,-0.145613,0.3033231,0.,0
 .2007742,-0.434928,-0.5692073,0.,0.,0.,-0.1456129,-0.303323,0.,-0.2007
 741,-0.4349279\Polar=213.9218447,-0.0000058,3190.6208937,-0.000004,-0.
 0000216,2279.1897829\PG=C02V [C2(O1),SGV(C4H4)]\NImag=0\\0.12099273,0.
 ,0.71987952,0.,0.18253679,0.70100179,0.01671431,0.,0.,0.12099273,0.,-0
 .12104352,0.01168536,0.,0.71987952,0.,-0.01168536,-0.00791262,0.,-0.18
 253679,0.70100179,-0.06358630,0.,0.,-0.06358630,0.,0.,0.09323557,0.,-0
 .17644732,0.09442128,0.,-0.17644732,-0.09442128,0.,0.44606065,0.,0.054
 20462,-0.15314020,0.,-0.05420462,-0.15314020,0.,0.,0.44960369,0.011419
 32,0.,0.,-0.06371632,0.,0.,0.01271619,0.,0.,0.12028243,0.,-0.02858912,
 -0.07387152,0.,-0.11909342,0.08158875,0.,-0.02291250,-0.00775577,0.,0.
 59795324,0.,-0.01106998,-0.00017925,0.,0.09947678,-0.39380950,0.,-0.05
 141189,-0.08165504,0.,0.10114855,0.81041700,-0.06371632,0.,0.,0.011419
 32,0.,0.,0.01271619,0.,0.,-0.05822019,0.,0.,0.12028243,0.,-0.11909342,
 -0.08158875,0.,-0.02858912,0.07387152,0.,-0.02291250,0.00775577,0.,-0.
 26123946,-0.01954278,0.,0.59795324,0.,-0.09947678,-0.39380950,0.,0.011
 06998,-0.00017925,0.,0.05141189,-0.08165504,0.,0.01954278,-0.10157089,
 0.,-0.10114855,0.81041700,-0.02486933,0.,0.,0.00118644,0.,0.,-0.004568
 44,0.,0.,0.00514873,0.,0.,0.00280617,0.,0.,0.01951739,0.,-0.27924637,-
 0.12214715,0.,0.00035998,0.00499202,0.,-0.02557123,-0.00970911,0.,-0.0
 0033619,-0.00026230,0.,0.00337591,0.00111892,0.,0.30129525,0.,-0.13339
 107,-0.12722535,0.,0.00229710,-0.00480296,0.,0.02583296,0.01289242,0.,
 -0.00155549,-0.00479869,0.,-0.02099339,0.00141018,0.,0.12712911,0.1200
 3954,0.00118644,0.,0.,-0.02486933,0.,0.,-0.00456844,0.,0.,0.00280617,0
 .,0.,0.00514873,0.,0.,0.00233481,0.,0.,0.01951739,0.,0.00035998,-0.004
 99202,0.,-0.27924637,0.12214715,0.,-0.02557123,0.00970911,0.,0.0033759
 1,-0.00111892,0.,-0.00033619,0.00026230,0.,0.00002871,0.00097801,0.,0.
 30129525,0.,-0.00229710,-0.00480296,0.,0.13339107,-0.12722535,0.,-0.02
 583296,0.01289242,0.,0.02099339,0.00141018,0.,0.00155549,-0.00479869,0
 .,-0.00097801,0.00099903,0.,-0.12712911,0.12003954,0.00334356,0.,0.,-0
 .00148440,0.,0.,0.00882077,0.,0.,-0.02951449,0.,0.,-0.00092183,0.,0.,0
 .00106817,0.,0.,-0.00262393,0.,0.,0.02280421,0.,-0.00658447,0.00046811
 ,0.,0.01076472,0.00651209,0.,0.00190072,0.00493141,0.,-0.16146239,-0.1
 3947592,0.,-0.00769608,-0.02225647,0.,0.00072510,-0.00093468,0.,-0.000
 63117,-0.00063746,0.,0.16145174,0.,0.00264206,-0.00216872,0.,-0.018536
 83,-0.01176319,0.,-0.00094948,-0.00289902,0.,-0.13720913,-0.23873443,0
 .,0.00288156,0.00892061,0.,0.00022341,0.00089705,0.,0.00036689,0.00058
 878,0.,0.15098723,0.24608132,-0.00148440,0.,0.,0.00334356,0.,0.,0.0088
 2077,0.,0.,-0.00092183,0.,0.,-0.02951449,0.,0.,-0.00262393,0.,0.,0.001
 06817,0.,0.,-0.00149204,0.,0.,0.02280421,0.,0.01076472,-0.00651209,0.,
 -0.00658447,-0.00046811,0.,0.00190072,-0.00493141,0.,-0.00769608,0.022
 25647,0.,-0.16146239,0.13947592,0.,-0.00063117,0.00063746,0.,0.0007251
 0,0.00093468,0.,0.00153182,-0.00040570,0.,0.16145174,0.,0.01853683,-0.
 01176319,0.,-0.00264206,-0.00216872,0.,0.00094948,-0.00289902,0.,-0.00
 288156,0.00892061,0.,0.13720913,-0.23873443,0.,-0.00036689,0.00058878,
 0.,-0.00022341,0.00089705,0.,0.00040570,-0.00092241,0.,-0.15098723,0.2
 4608132\\0.,0.00002270,0.00000356,0.,-0.00002270,0.00000356,0.,0.,0.00
 004868,0.,-0.00004742,-0.00003277,0.,0.00004742,-0.00003277,0.,0.00001
 037,-0.00000500,0.,-0.00001037,-0.00000500,0.,-0.00000060,0.00000988,0
 .,0.00000060,0.00000988\\\@


 YOU KNOW YOU'VE SPOKEN TOO LONG WHEN THE AUDIENCE STOPS LOOKING AT
 THEIR WATCHES AND STARTS SHAKING THEM.
 Job cpu time:       0 days  0 hours 39 minutes 47.3 seconds.
 File lengths (MBytes):  RWF=     66 Int=      0 D2E=      0 Chk=      5 Scr=      1
 Normal termination of Gaussian 09 at Thu Mar  7 15:26:52 2019.
