 Entering Gaussian System, Link 0=g09
 Initial command:
 /usr/local/gaussian/gaussian09/g09/l1.exe "/scratch/sergio/HC.q-1.m1-1.com-4919746/Gau-7227.inp" -scrdir="/scratch/sergio/HC.q-1.m1-1.com-4919746/"
 Default is to use a total of   2 processors:
                                2 via shared-memory
                                1 via Linda
 Entering Link 1 = /usr/local/gaussian/gaussian09/g09/l1.exe PID=      7228.
  
 Copyright (c) 1988,1990,1992,1993,1995,1998,2003,2009,2015,
            Gaussian, Inc.  All Rights Reserved.
  
 This is part of the Gaussian(R) 09 program.  It is based on
 the Gaussian(R) 03 system (copyright 2003, Gaussian, Inc.),
 the Gaussian(R) 98 system (copyright 1998, Gaussian, Inc.),
 the Gaussian(R) 94 system (copyright 1995, Gaussian, Inc.),
 the Gaussian 92(TM) system (copyright 1992, Gaussian, Inc.),
 the Gaussian 90(TM) system (copyright 1990, Gaussian, Inc.),
 the Gaussian 88(TM) system (copyright 1988, Gaussian, Inc.),
 the Gaussian 86(TM) system (copyright 1986, Carnegie Mellon
 University), and the Gaussian 82(TM) system (copyright 1983,
 Carnegie Mellon University). Gaussian is a federally registered
 trademark of Gaussian, Inc.
  
 This software contains proprietary and confidential information,
 including trade secrets, belonging to Gaussian, Inc.
  
 This software is provided under written license and may be
 used, copied, transmitted, or stored only in accord with that
 written license.
  
 The following legend is applicable only to US Government
 contracts under FAR:
  
                    RESTRICTED RIGHTS LEGEND
  
 Use, reproduction and disclosure by the US Government is
 subject to restrictions as set forth in subparagraphs (a)
 and (c) of the Commercial Computer Software - Restricted
 Rights clause in FAR 52.227-19.
  
 Gaussian, Inc.
 340 Quinnipiac St., Bldg. 40, Wallingford CT 06492
  
  
 ---------------------------------------------------------------
 Warning -- This program may not be used in any manner that
 competes with the business of Gaussian, Inc. or will provide
 assistance to any competitor of Gaussian, Inc.  The licensee
 of this program is prohibited from giving any competitor of
 Gaussian, Inc. access to this program.  By using this program,
 the user acknowledges that Gaussian, Inc. is engaged in the
 business of creating and licensing software in the field of
 computational chemistry and represents and warrants to the
 licensee that it is not a competitor of Gaussian, Inc. and that
 it will not use this program in any manner prohibited above.
 ---------------------------------------------------------------
  

 Cite this work as:
 Gaussian 09, Revision E.01,
 M. J. Frisch, G. W. Trucks, H. B. Schlegel, G. E. Scuseria, 
 M. A. Robb, J. R. Cheeseman, G. Scalmani, V. Barone, B. Mennucci, 
 G. A. Petersson, H. Nakatsuji, M. Caricato, X. Li, H. P. Hratchian, 
 A. F. Izmaylov, J. Bloino, G. Zheng, J. L. Sonnenberg, M. Hada, 
 M. Ehara, K. Toyota, R. Fukuda, J. Hasegawa, M. Ishida, T. Nakajima, 
 Y. Honda, O. Kitao, H. Nakai, T. Vreven, J. A. Montgomery, Jr., 
 J. E. Peralta, F. Ogliaro, M. Bearpark, J. J. Heyd, E. Brothers, 
 K. N. Kudin, V. N. Staroverov, T. Keith, R. Kobayashi, J. Normand, 
 K. Raghavachari, A. Rendell, J. C. Burant, S. S. Iyengar, J. Tomasi, 
 M. Cossi, N. Rega, J. M. Millam, M. Klene, J. E. Knox, J. B. Cross, 
 V. Bakken, C. Adamo, J. Jaramillo, R. Gomperts, R. E. Stratmann, 
 O. Yazyev, A. J. Austin, R. Cammi, C. Pomelli, J. W. Ochterski, 
 R. L. Martin, K. Morokuma, V. G. Zakrzewski, G. A. Voth, 
 P. Salvador, J. J. Dannenberg, S. Dapprich, A. D. Daniels, 
 O. Farkas, J. B. Foresman, J. V. Ortiz, J. Cioslowski, 
 and D. J. Fox, Gaussian, Inc., Wallingford CT, 2013.
 
 ******************************************
 Gaussian 09:  EM64L-G09RevE.01 30-Nov-2015
                23-Jan-2019 
 ******************************************
 Default route:  MaxDisk=70000MB
 -------------------------------------------------
 #p b3lyp/6-311++G(3df,2p) opt freq symmetry=Loose
 -------------------------------------------------
 1/14=-1,18=20,19=15,26=3,38=1/1,3;
 2/9=110,12=2,17=4,18=3,40=1/2;
 3/5=4,6=6,7=1216,11=2,16=1,25=1,30=1,71=1,74=-5/1,2,3;
 4//1;
 5/5=2,38=5/2;
 6/7=2,8=2,9=2,10=2,28=1/1;
 7//1,2,3,16;
 1/14=-1,18=20,19=15,26=3/3(2);
 2/9=110/2;
 99//99;
 2/9=110/2;
 3/5=4,6=6,7=1216,11=2,16=1,25=1,30=1,71=1,74=-5/1,2,3;
 4/5=5,16=3,69=1/1;
 5/5=2,38=5/2;
 7//1,2,3,16;
 1/14=-1,18=20,19=15,26=3/3(-5);
 2/9=110/2;
 6/7=2,8=2,9=2,10=2,19=2,28=1/1;
 99/9=1/99;
 Leave Link    1 at Wed Jan 23 21:58:43 2019, MaxMem=           0 cpu:         0.2
 (Enter /usr/local/gaussian/gaussian09/g09/l101.exe)
 ---------
 b3lyp opt
 ---------
 Symbolic Z-matrix:
 Charge = -1 Multiplicity = 1
 C                     0.16121   0.        0. 
 H                    -0.9615    0.        0. 
 
 NAtoms=      2 NQM=        2 NQMF=       0 NMMI=      0 NMMIF=      0
                NMic=       0 NMicF=      0.
                    Isotopes and Nuclear Properties:
 (Nuclear quadrupole moments (NQMom) in fm**2, nuclear magnetic moments (NMagM)
  in nuclear magnetons)

  Atom         1           2
 IAtWgt=          12           1
 AtmWgt=  12.0000000   1.0078250
 NucSpn=           0           1
 AtZEff=   0.0000000   0.0000000
 NQMom=    0.0000000   0.0000000
 NMagM=    0.0000000   2.7928460
 AtZNuc=   6.0000000   1.0000000
 Leave Link  101 at Wed Jan 23 21:58:43 2019, MaxMem=   412876800 cpu:         0.3
 (Enter /usr/local/gaussian/gaussian09/g09/l103.exe)

 GradGradGradGradGradGradGradGradGradGradGradGradGradGradGradGradGradGrad
 Berny optimization.
 Initialization pass.
                           ----------------------------
                           !    Initial Parameters    !
                           ! (Angstroms and Degrees)  !
 --------------------------                            --------------------------
 ! Name  Definition              Value          Derivative Info.                !
 --------------------------------------------------------------------------------
 ! R1    R(1,2)                  1.1227         estimate D2E/DX2                !
 --------------------------------------------------------------------------------
 Trust Radius=3.00D-01 FncErr=1.00D-07 GrdErr=1.00D-06
 Number of steps in this run=     20 maximum allowed number of steps=    100.
 GradGradGradGradGradGradGradGradGradGradGradGradGradGradGradGradGradGrad

 Leave Link  103 at Wed Jan 23 21:58:43 2019, MaxMem=   412876800 cpu:         0.0
 (Enter /usr/local/gaussian/gaussian09/g09/l202.exe)
                          Input orientation:                          
 ---------------------------------------------------------------------
 Center     Atomic      Atomic             Coordinates (Angstroms)
 Number     Number       Type             X           Y           Z
 ---------------------------------------------------------------------
      1          6           0        0.161209    0.000000    0.000000
      2          1           0       -0.961499    0.000000    0.000000
 ---------------------------------------------------------------------
 Stoichiometry    CH(1-)
 Framework group  C*V[C*(HC)]
 Deg. of freedom     1
 Full point group                 C*V     NOp   4
 Largest Abelian subgroup         C2V     NOp   4
 Largest concise Abelian subgroup C1      NOp   1
                         Standard orientation:                         
 ---------------------------------------------------------------------
 Center     Atomic      Atomic             Coordinates (Angstroms)
 Number     Number       Type             X           Y           Z
 ---------------------------------------------------------------------
      1          6           0        0.000000    0.000000    0.160387
      2          1           0        0.000000    0.000000   -0.962321
 ---------------------------------------------------------------------
 Rotational constants (GHZ):      0.0000000    431.2428018    431.2428018
 Leave Link  202 at Wed Jan 23 21:58:43 2019, MaxMem=   412876800 cpu:         0.0
 (Enter /usr/local/gaussian/gaussian09/g09/l301.exe)
 Standard basis: 6-311++G(3df,2p) (5D, 7F)
 Ernie: Thresh=  0.10000D-02 Tol=  0.10000D-05 Strict=F.
 There are    27 symmetry adapted cartesian basis functions of A1  symmetry.
 There are     4 symmetry adapted cartesian basis functions of A2  symmetry.
 There are    12 symmetry adapted cartesian basis functions of B1  symmetry.
 There are    12 symmetry adapted cartesian basis functions of B2  symmetry.
 There are    23 symmetry adapted basis functions of A1  symmetry.
 There are     4 symmetry adapted basis functions of A2  symmetry.
 There are    11 symmetry adapted basis functions of B1  symmetry.
 There are    11 symmetry adapted basis functions of B2  symmetry.
    49 basis functions,    70 primitive gaussians,    55 cartesian basis functions
     4 alpha electrons        4 beta electrons
       nuclear repulsion energy         2.8280401062 Hartrees.
 IExCor=  402 DFT=T Ex+Corr=B3LYP ExCW=0 ScaHFX=  0.200000
 ScaDFX=  0.800000  0.720000  1.000000  0.810000 ScalE2=  1.000000  1.000000
 IRadAn=      0 IRanWt=     -1 IRanGd=            0 ICorTp=0 IEmpDi=  4
 NAtoms=    2 NActive=    2 NUniq=    2 SFac= 1.00D+00 NAtFMM=   60 NAOKFM=F Big=F
 Integral buffers will be    131072 words long.
 Raffenetti 2 integral format.
 Two-electron integral symmetry is turned on.
 Leave Link  301 at Wed Jan 23 21:58:43 2019, MaxMem=   412876800 cpu:         0.2
 (Enter /usr/local/gaussian/gaussian09/g09/l302.exe)
 NPDir=0 NMtPBC=     1 NCelOv=     1 NCel=       1 NClECP=     1 NCelD=      1
         NCelK=      1 NCelE2=     1 NClLst=     1 CellRange=     0.0.
 One-electron integrals computed using PRISM.
 NBasis=    49 RedAO= T EigKep=  8.88D-03  NBF=    23     4    11    11
 NBsUse=    49 1.00D-06 EigRej= -1.00D+00 NBFU=    23     4    11    11
 Precomputing XC quadrature grid using
 IXCGrd= 4 IRadAn=           0 IRanWt=          -1 IRanGd=           0 AccXCQ= 0.00D+00.
 Generated NRdTot=       0 NPtTot=           0 NUsed=           0 NTot=          32
 NSgBfM=    55    55    55    55    55 MxSgAt=     2 MxSgA2=     2.
 Leave Link  302 at Wed Jan 23 21:58:44 2019, MaxMem=   412876800 cpu:         0.5
 (Enter /usr/local/gaussian/gaussian09/g09/l303.exe)
 DipDrv:  MaxL=1.
 Leave Link  303 at Wed Jan 23 21:58:44 2019, MaxMem=   412876800 cpu:         0.0
 (Enter /usr/local/gaussian/gaussian09/g09/l401.exe)
 ExpMin= 3.60D-02 ExpMax= 4.56D+03 ExpMxC= 6.82D+02 IAcc=3 IRadAn=         5 AccDes= 0.00D+00
 Harris functional with IExCor=  402 and IRadAn=       5 diagonalized for initial guess.
 HarFok:  IExCor=  402 AccDes= 0.00D+00 IRadAn=         5 IDoV= 1 UseB2=F ITyADJ=14
 ICtDFT=  3500011 ScaDFX=  1.000000  1.000000  1.000000  1.000000
 FoFCou: FMM=F IPFlag=           0 FMFlag=      100000 FMFlg1=           0
         NFxFlg=           0 DoJE=T BraDBF=F KetDBF=T FulRan=T
         wScrn=  0.000000 ICntrl=     500 IOpCl=  0 I1Cent=   200000004 NGrid=           0
         NMat0=    1 NMatS0=      1 NMatT0=    0 NMatD0=    1 NMtDS0=    0 NMtDT0=    0
 Petite list used in FoFCou.
 Harris En= -38.6656651505433    
 JPrj=0 DoOrth=F DoCkMO=F.
 Initial guess orbital symmetries:
       Occupied  (SG) (SG) (SG) (PI)
       Virtual   (PI) (SG) (SG) (PI) (PI) (SG) (SG) (PI) (PI) (DLTA)
                 (DLTA) (SG) (SG) (PI) (PI) (SG) (SG) (PI) (PI)
                 (SG) (DLTA) (DLTA) (PI) (PI) (SG) (SG) (PI) (PI)
                 (DLTA) (DLTA) (PHI) (PHI) (SG) (PI) (PI) (SG)
                 (PI) (PI) (SG) (DLTA) (DLTA) (PI) (PI) (SG) (SG)
 Leave Link  401 at Wed Jan 23 21:58:44 2019, MaxMem=   412876800 cpu:         0.6
 (Enter /usr/local/gaussian/gaussian09/g09/l502.exe)
 Closed shell SCF:
 Using DIIS extrapolation, IDIIS=  1040.
 Integral symmetry usage will be decided dynamically.
 Keep R1 ints in memory in symmetry-blocked form, NReq=2735961.
 IVT=       28410 IEndB=       28410 NGot=   412876800 MDV=   412645358
 LenX=   412645358 LenY=   412641892
 Requested convergence on RMS density matrix=1.00D-08 within 128 cycles.
 Requested convergence on MAX density matrix=1.00D-06.
 Requested convergence on             energy=1.00D-06.
 No special actions if energy rises.
 FoFCou: FMM=F IPFlag=           0 FMFlag=           0 FMFlg1=           0
         NFxFlg=           0 DoJE=F BraDBF=F KetDBF=F FulRan=T
         wScrn=  0.000000 ICntrl=     600 IOpCl=  0 I1Cent=           0 NGrid=           0
         NMat0=    1 NMatS0=   1225 NMatT0=    0 NMatD0=    1 NMtDS0=    0 NMtDT0=    0
 Petite list used in FoFCou.

 Cycle   1  Pass 1  IDiag  1:
 E= -38.3938472775378    
 DIIS: error= 6.02D-02 at cycle   1 NSaved=   1.
 NSaved= 1 IEnMin= 1 EnMin= -38.3938472775378     IErMin= 1 ErrMin= 6.02D-02
 ErrMax= 6.02D-02  0.00D+00 EMaxC= 1.00D-01 BMatC= 6.22D-02 BMatP= 6.22D-02
 IDIUse=3 WtCom= 3.98D-01 WtEn= 6.02D-01
 Coeff-Com:  0.100D+01
 Coeff-En:   0.100D+01
 Coeff:      0.100D+01
 Gap=     0.072 Goal=   None    Shift=    0.000
 GapD=    0.072 DampG=0.500 DampE=0.500 DampFc=0.2500 IDamp=-1.
 Damping current iteration by 2.50D-01
 RMSDP=6.01D-01 MaxDP=1.72D+01              OVMax= 4.46D-01

 Cycle   2  Pass 1  IDiag  1:
 E= -38.4214813568158     Delta-E=       -0.027634079278 Rises=F Damp=T
 DIIS: error= 1.75D-02 at cycle   2 NSaved=   2.
 NSaved= 2 IEnMin= 2 EnMin= -38.4214813568158     IErMin= 2 ErrMin= 1.75D-02
 ErrMax= 1.75D-02  0.00D+00 EMaxC= 1.00D-01 BMatC= 4.21D-03 BMatP= 6.22D-02
 IDIUse=3 WtCom= 8.25D-01 WtEn= 1.75D-01
 Coeff-Com: -0.194D+00 0.119D+01
 Coeff-En:   0.289D+00 0.711D+00
 Coeff:     -0.110D+00 0.111D+01
 Gap=     0.018 Goal=   None    Shift=    0.000
 RMSDP=1.50D-01 MaxDP=4.30D+00 DE=-2.76D-02 OVMax= 5.64D-01

 Cycle   3  Pass 1  IDiag  1:
 E= -38.4868670754174     Delta-E=       -0.065385718602 Rises=F Damp=F
 DIIS: error= 1.89D-02 at cycle   3 NSaved=   3.
 NSaved= 3 IEnMin= 3 EnMin= -38.4868670754174     IErMin= 2 ErrMin= 1.75D-02
 ErrMax= 1.89D-02  0.00D+00 EMaxC= 1.00D-01 BMatC= 5.80D-03 BMatP= 4.21D-03
 IDIUse=2 WtCom= 0.00D+00 WtEn= 1.00D+00
 Coeff-En:   0.000D+00 0.000D+00 0.100D+01
 Coeff:      0.000D+00 0.000D+00 0.100D+01
 Gap=     0.014 Goal=   None    Shift=    0.000
 RMSDP=1.08D-02 MaxDP=2.33D-01 DE=-6.54D-02 OVMax= 2.68D-01

 Cycle   4  Pass 1  IDiag  1:
 E= -38.4514678676621     Delta-E=        0.035399207755 Rises=F Damp=F
 DIIS: error= 4.00D-02 at cycle   4 NSaved=   4.
 NSaved= 4 IEnMin= 3 EnMin= -38.4868670754174     IErMin= 2 ErrMin= 1.75D-02
 ErrMax= 4.00D-02  0.00D+00 EMaxC= 1.00D-01 BMatC= 3.08D-02 BMatP= 4.21D-03
 IDIUse=2 WtCom= 0.00D+00 WtEn= 1.00D+00
 Coeff-En:   0.000D+00 0.000D+00 0.748D+00 0.252D+00
 Coeff:      0.000D+00 0.000D+00 0.748D+00 0.252D+00
 Gap=     0.050 Goal=   None    Shift=    0.000
 RMSDP=5.42D-03 MaxDP=1.26D-01 DE= 3.54D-02 OVMax= 1.27D-01

 Cycle   5  Pass 1  IDiag  1:
 E= -38.4984260264470     Delta-E=       -0.046958158785 Rises=F Damp=F
 DIIS: error= 8.20D-03 at cycle   5 NSaved=   5.
 NSaved= 5 IEnMin= 5 EnMin= -38.4984260264470     IErMin= 5 ErrMin= 8.20D-03
 ErrMax= 8.20D-03  0.00D+00 EMaxC= 1.00D-01 BMatC= 1.35D-03 BMatP= 4.21D-03
 IDIUse=3 WtCom= 9.18D-01 WtEn= 8.20D-02
 Coeff-Com:  0.658D-01-0.815D-01 0.865D-01-0.109D+00 0.104D+01
 Coeff-En:   0.000D+00 0.000D+00 0.110D+00 0.000D+00 0.890D+00
 Coeff:      0.604D-01-0.748D-01 0.885D-01-0.100D+00 0.103D+01
 Gap=     0.051 Goal=   None    Shift=    0.000
 RMSDP=7.90D-04 MaxDP=1.23D-02 DE=-4.70D-02 OVMax= 1.55D-02

 Cycle   6  Pass 1  IDiag  1:
 E= -38.5002331617992     Delta-E=       -0.001807135352 Rises=F Damp=F
 DIIS: error= 2.34D-03 at cycle   6 NSaved=   6.
 NSaved= 6 IEnMin= 6 EnMin= -38.5002331617992     IErMin= 6 ErrMin= 2.34D-03
 ErrMax= 2.34D-03  0.00D+00 EMaxC= 1.00D-01 BMatC= 9.33D-05 BMatP= 1.35D-03
 IDIUse=3 WtCom= 9.77D-01 WtEn= 2.34D-02
 Coeff-Com:  0.185D-01-0.160D-01 0.521D-01-0.603D-01 0.319D+00 0.687D+00
 Coeff-En:   0.000D+00 0.000D+00 0.000D+00 0.000D+00 0.000D+00 0.100D+01
 Coeff:      0.181D-01-0.156D-01 0.509D-01-0.589D-01 0.312D+00 0.694D+00
 Gap=     0.050 Goal=   None    Shift=    0.000
 RMSDP=3.30D-04 MaxDP=7.23D-03 DE=-1.81D-03 OVMax= 8.25D-03

 Cycle   7  Pass 1  IDiag  1:
 E= -38.5003956267115     Delta-E=       -0.000162464912 Rises=F Damp=F
 DIIS: error= 5.98D-04 at cycle   7 NSaved=   7.
 NSaved= 7 IEnMin= 7 EnMin= -38.5003956267115     IErMin= 7 ErrMin= 5.98D-04
 ErrMax= 5.98D-04  0.00D+00 EMaxC= 1.00D-01 BMatC= 6.89D-06 BMatP= 9.33D-05
 IDIUse=3 WtCom= 9.94D-01 WtEn= 5.98D-03
 Coeff-Com:  0.182D-02-0.202D-02 0.141D-01-0.706D-02-0.118D-02 0.108D-01
 Coeff-Com:  0.984D+00
 Coeff-En:   0.000D+00 0.000D+00 0.000D+00 0.000D+00 0.000D+00 0.000D+00
 Coeff-En:   0.100D+01
 Coeff:      0.181D-02-0.201D-02 0.140D-01-0.702D-02-0.117D-02 0.107D-01
 Coeff:      0.984D+00
 Gap=     0.050 Goal=   None    Shift=    0.000
 RMSDP=1.05D-04 MaxDP=1.74D-03 DE=-1.62D-04 OVMax= 2.08D-03

 Cycle   8  Pass 1  IDiag  1:
 E= -38.5004071828458     Delta-E=       -0.000011556134 Rises=F Damp=F
 DIIS: error= 8.05D-05 at cycle   8 NSaved=   8.
 NSaved= 8 IEnMin= 8 EnMin= -38.5004071828458     IErMin= 8 ErrMin= 8.05D-05
 ErrMax= 8.05D-05  0.00D+00 EMaxC= 1.00D-01 BMatC= 1.34D-07 BMatP= 6.89D-06
 IDIUse=1 WtCom= 1.00D+00 WtEn= 0.00D+00
 Coeff-Com:  0.294D-03-0.721D-03 0.408D-03-0.858D-05-0.469D-02-0.291D-01
 Coeff-Com:  0.653D-01 0.969D+00
 Coeff:      0.294D-03-0.721D-03 0.408D-03-0.858D-05-0.469D-02-0.291D-01
 Coeff:      0.653D-01 0.969D+00
 Gap=     0.050 Goal=   None    Shift=    0.000
 RMSDP=1.21D-05 MaxDP=1.87D-04 DE=-1.16D-05 OVMax= 1.87D-04

 Cycle   9  Pass 1  IDiag  1:
 E= -38.5004073858535     Delta-E=       -0.000000203008 Rises=F Damp=F
 DIIS: error= 2.33D-05 at cycle   9 NSaved=   9.
 NSaved= 9 IEnMin= 9 EnMin= -38.5004073858535     IErMin= 9 ErrMin= 2.33D-05
 ErrMax= 2.33D-05  0.00D+00 EMaxC= 1.00D-01 BMatC= 9.68D-09 BMatP= 1.34D-07
 IDIUse=1 WtCom= 1.00D+00 WtEn= 0.00D+00
 Coeff-Com:  0.134D-06 0.423D-04 0.144D-03-0.142D-03 0.665D-03-0.218D-02
 Coeff-Com: -0.149D-01-0.102D+00 0.112D+01
 Coeff:      0.134D-06 0.423D-04 0.144D-03-0.142D-03 0.665D-03-0.218D-02
 Coeff:     -0.149D-01-0.102D+00 0.112D+01
 Gap=     0.050 Goal=   None    Shift=    0.000
 RMSDP=5.13D-06 MaxDP=9.31D-05 DE=-2.03D-07 OVMax= 1.08D-04

 Cycle  10  Pass 1  IDiag  1:
 E= -38.5004074034506     Delta-E=       -0.000000017597 Rises=F Damp=F
 DIIS: error= 1.30D-06 at cycle  10 NSaved=  10.
 NSaved=10 IEnMin=10 EnMin= -38.5004074034506     IErMin=10 ErrMin= 1.30D-06
 ErrMax= 1.30D-06  0.00D+00 EMaxC= 1.00D-01 BMatC= 2.79D-11 BMatP= 9.68D-09
 IDIUse=1 WtCom= 1.00D+00 WtEn= 0.00D+00
 Coeff-Com: -0.515D-06 0.806D-08-0.239D-04 0.887D-05 0.105D-04 0.523D-03
 Coeff-Com: -0.274D-03 0.112D-02-0.316D-01 0.103D+01
 Coeff:     -0.515D-06 0.806D-08-0.239D-04 0.887D-05 0.105D-04 0.523D-03
 Coeff:     -0.274D-03 0.112D-02-0.316D-01 0.103D+01
 Gap=     0.050 Goal=   None    Shift=    0.000
 RMSDP=2.21D-07 MaxDP=5.25D-06 DE=-1.76D-08 OVMax= 6.13D-06

 Cycle  11  Pass 1  IDiag  1:
 E= -38.5004074035030     Delta-E=       -0.000000000052 Rises=F Damp=F
 DIIS: error= 1.93D-08 at cycle  11 NSaved=  11.
 NSaved=11 IEnMin=11 EnMin= -38.5004074035030     IErMin=11 ErrMin= 1.93D-08
 ErrMax= 1.93D-08  0.00D+00 EMaxC= 1.00D-01 BMatC= 9.37D-15 BMatP= 2.79D-11
 IDIUse=1 WtCom= 1.00D+00 WtEn= 0.00D+00
 Coeff-Com: -0.109D-06 0.136D-06 0.116D-05-0.983D-07 0.472D-06-0.259D-04
 Coeff-Com:  0.670D-04 0.160D-03-0.308D-02-0.919D-01 0.109D+01
 Coeff:     -0.109D-06 0.136D-06 0.116D-05-0.983D-07 0.472D-06-0.259D-04
 Coeff:      0.670D-04 0.160D-03-0.308D-02-0.919D-01 0.109D+01
 Gap=     0.050 Goal=   None    Shift=    0.000
 RMSDP=5.74D-09 MaxDP=7.86D-08 DE=-5.24D-11 OVMax= 1.07D-07

 SCF Done:  E(RB3LYP) =  -38.5004074035     A.U. after   11 cycles
            NFock= 11  Conv=0.57D-08     -V/T= 2.0036
 KE= 3.836128378480D+01 PE=-9.710283691538D+01 EE= 1.741310562089D+01
 Leave Link  502 at Wed Jan 23 21:58:45 2019, MaxMem=   412876800 cpu:         1.7
 (Enter /usr/local/gaussian/gaussian09/g09/l601.exe)
 Copying SCF densities to generalized density rwf, IOpCl= 0 IROHF=0.

 **********************************************************************

            Population analysis using the SCF density.

 **********************************************************************

 Orbital symmetries:
       Occupied  (SG) (SG) (SG) (?A)
       Virtual   (?A) (SG) (SG) (?A) (?A) (SG) (SG) (PI) (PI) (?B)
                 (?B) (?B) (PI) (SG) (PI) (SG) (SG) (PI) (PI) (SG)
                 (DLTA) (DLTA) (PI) (PI) (SG) (?C) (?D) (?D) (?C)
                 (?C) (?D) (?D) (?D) (?D) (?C) (SG) (PI) (PI) (SG)
                 (DLTA) (DLTA) (PI) (PI) (SG) (SG)
 Unable to determine electronic state:  an orbital has unidentified symmetry.
 Alpha  occ. eigenvalues --   -9.95978  -0.33831  -0.03704   0.07303
 Alpha virt. eigenvalues --    0.12317   0.14506   0.23241   0.24438   0.25069
 Alpha virt. eigenvalues --    0.27796   0.35299   0.54857   0.55973   0.57274
 Alpha virt. eigenvalues --    0.57648   0.59930   0.78693   0.79075   0.79522
 Alpha virt. eigenvalues --    0.84815   1.01324   1.14577   1.15792   1.49374
 Alpha virt. eigenvalues --    1.86325   1.87062   1.88584   1.90859   2.18645
 Alpha virt. eigenvalues --    2.77415   2.94283   2.95984   3.08981   3.09290
 Alpha virt. eigenvalues --    3.10397   3.10534   3.24749   3.27138   3.27838
 Alpha virt. eigenvalues --    3.75495   4.36863   4.38148   5.39699   7.21362
 Alpha virt. eigenvalues --    7.22117   7.25620   7.26624   7.61755  23.82322
          Condensed to atoms (all electrons):
               1          2
     1  C    7.109187  -0.040050
     2  H   -0.040050   0.970913
 Mulliken charges:
               1
     1  C   -1.069137
     2  H    0.069137
 Sum of Mulliken charges =  -1.00000
 Mulliken charges with hydrogens summed into heavy atoms:
               1
     1  C   -1.000000
 Electronic spatial extent (au):  <R**2>=             36.6733
 Charge=             -1.0000 electrons
 Dipole moment (field-independent basis, Debye):
    X=              0.0000    Y=              0.0000    Z=             -1.7489  Tot=              1.7489
 Quadrupole moment (field-independent basis, Debye-Ang):
   XX=            -10.3697   YY=            -19.9347   ZZ=            -13.8330
   XY=              0.0000   XZ=              0.0000   YZ=              0.0000
 Traceless Quadrupole moment (field-independent basis, Debye-Ang):
   XX=              4.3428   YY=             -5.2222   ZZ=              0.8795
   XY=              0.0000   XZ=              0.0000   YZ=              0.0000
 Octapole moment (field-independent basis, Debye-Ang**2):
  XXX=              0.0000  YYY=              0.0000  ZZZ=             -3.9667  XYY=              0.0000
  XXY=              0.0000  XXZ=             -1.3467  XZZ=              0.0000  YZZ=              0.0000
  YYZ=             -2.4127  XYZ=              0.0000
 Hexadecapole moment (field-independent basis, Debye-Ang**3):
 XXXX=            -22.5950 YYYY=            -81.9077 ZZZZ=            -42.8236 XXXY=              0.0000
 XXXZ=              0.0000 YYYX=              0.0000 YYYZ=              0.0000 ZZZX=              0.0000
 ZZZY=              0.0000 XXYY=            -17.4211 XXZZ=            -10.8348 YYZZ=            -20.9131
 XXYZ=              0.0000 YYXZ=              0.0000 ZZXY=              0.0000
 N-N= 2.828040106190D+00 E-N=-9.710283647019D+01  KE= 3.836128378480D+01
 Symmetry A1   KE= 3.669627499687D+01
 Symmetry A2   KE= 9.353890852615D-36
 Symmetry B1   KE= 1.249587218480D-32
 Symmetry B2   KE= 1.665008787925D+00
 No NMR shielding tensors so no spin-rotation constants.
 Leave Link  601 at Wed Jan 23 21:58:45 2019, MaxMem=   412876800 cpu:         0.4
 (Enter /usr/local/gaussian/gaussian09/g09/l701.exe)
 Compute integral first derivatives.
 ... and contract with generalized density number  0.
 Leave Link  701 at Wed Jan 23 21:58:45 2019, MaxMem=   412876800 cpu:         0.5
 (Enter /usr/local/gaussian/gaussian09/g09/l702.exe)
 L702 exits ... SP integral derivatives will be done elsewhere.
 Leave Link  702 at Wed Jan 23 21:58:45 2019, MaxMem=   412876800 cpu:         0.0
 (Enter /usr/local/gaussian/gaussian09/g09/l703.exe)
 Compute integral first derivatives, UseDBF=F ICtDFT=           0.
 Integral derivatives from FoFJK, PRISM(SPDF).
 Calling FoFJK, ICntrl=      2127 FMM=F ISym2X=1 I1Cent= 0 IOpClX= 0 NMat=1 NMatS=1 NMatT=0.
 FoFJK:  IHMeth= 1 ICntrl=    2127 DoSepK=F KAlg= 0 I1Cent=   0 FoldK=F
 IRaf=         0 NMat=   1 IRICut=       1 DoRegI=T DoRafI=F ISym2E= 1.
 FoFCou: FMM=F IPFlag=           0 FMFlag=      100000 FMFlg1=         800
         NFxFlg=           0 DoJE=F BraDBF=F KetDBF=F FulRan=T
         wScrn=  0.000000 ICntrl=    2127 IOpCl=  0 I1Cent=           0 NGrid=           0
         NMat0=    1 NMatS0=      1 NMatT0=    0 NMatD0=    1 NMtDS0=    0 NMtDT0=    0
 Petite list used in FoFCou.
 Leave Link  703 at Wed Jan 23 21:58:46 2019, MaxMem=   412876800 cpu:         1.8
 (Enter /usr/local/gaussian/gaussian09/g09/l716.exe)
 Dipole        = 0.00000000D+00 0.00000000D+00-6.88075348D-01
 ***** Axes restored to original set *****
 -------------------------------------------------------------------
 Center     Atomic                   Forces (Hartrees/Bohr)
 Number     Number              X              Y              Z
 -------------------------------------------------------------------
      1        6           0.003917753   -0.000000000   -0.000000000
      2        1          -0.003917753   -0.000000000   -0.000000000
 -------------------------------------------------------------------
 Cartesian Forces:  Max     0.003917753 RMS     0.002261916
 Leave Link  716 at Wed Jan 23 21:58:46 2019, MaxMem=   412876800 cpu:         0.1
 (Enter /usr/local/gaussian/gaussian09/g09/l103.exe)

 GradGradGradGradGradGradGradGradGradGradGradGradGradGradGradGradGradGrad
 Berny optimization.
 FormGI is forming the generalized inverse of G from B-inverse, IUseBI=4.
 Internal  Forces:  Max     0.003917753 RMS     0.003917753
 Search for a local minimum.
 Step number   1 out of a maximum of   20
 All quantities printed in internal units (Hartrees-Bohrs-Radians)
 RMS Force = .39178D-02 SwitMx=.10000D-02 MixMth= 1
 Mixed Optimization -- RFO/linear search
 Second derivative matrix not updated -- first step.
 The second derivative matrix:
                          R1
           R1           0.31291
 ITU=  0
     Eigenvalues ---    0.31291
 RFO step:  Lambda=-4.90444796D-05 EMin= 3.12907466D-01
 Linear search not attempted -- first point.
 Iteration  1 RMS(Cart)=  0.00885193 RMS(Int)=  0.00000000
 Iteration  2 RMS(Cart)=  0.00000000 RMS(Int)=  0.00000000
 ITry= 1 IFail=0 DXMaxC= 6.26D-03 DCOld= 1.00D+10 DXMaxT= 3.00D-01 DXLimC= 3.00D+00 Rises=F
 ClnCor:  largest displacement from symmetrization is 0.00D+00 for atom     0.
 Variable       Old X    -DE/DX   Delta X   Delta X   Delta X     New X
                                 (Linear)    (Quad)   (Total)
    R1        2.12161   0.00392   0.00000   0.01252   0.01252   2.13413
         Item               Value     Threshold  Converged?
 Maximum Force            0.003918     0.000450     NO 
 RMS     Force            0.003918     0.000300     NO 
 Maximum Displacement     0.006259     0.001800     NO 
 RMS     Displacement     0.008852     0.001200     NO 
 Predicted change in Energy=-2.452608D-05
 Lowest energy point so far.  Saving SCF results.
 GradGradGradGradGradGradGradGradGradGradGradGradGradGradGradGradGradGrad

 Leave Link  103 at Wed Jan 23 21:58:46 2019, MaxMem=   412876800 cpu:         0.0
 (Enter /usr/local/gaussian/gaussian09/g09/l202.exe)
                          Input orientation:                          
 ---------------------------------------------------------------------
 Center     Atomic      Atomic             Coordinates (Angstroms)
 Number     Number       Type             X           Y           Z
 ---------------------------------------------------------------------
      1          6           0        0.164521    0.000000    0.000000
      2          1           0       -0.964811    0.000000    0.000000
 ---------------------------------------------------------------------
 Stoichiometry    CH(1-)
 Framework group  C*V[C*(HC)]
 Deg. of freedom     1
 Full point group                 C*V     NOp   4
 RotChk:  IX=0 Diff= 0.00D+00
 Largest Abelian subgroup         C2V     NOp   4
 Largest concise Abelian subgroup C1      NOp   1
                         Standard orientation:                         
 ---------------------------------------------------------------------
 Center     Atomic      Atomic             Coordinates (Angstroms)
 Number     Number       Type             X           Y           Z
 ---------------------------------------------------------------------
      1          6           0        0.000000    0.000000    0.161333
      2          1           0        0.000000    0.000000   -0.967999
 ---------------------------------------------------------------------
 Rotational constants (GHZ):      0.0000000    426.1984125    426.1984125
 Leave Link  202 at Wed Jan 23 21:58:46 2019, MaxMem=   412876800 cpu:         0.0
 (Enter /usr/local/gaussian/gaussian09/g09/l301.exe)
 Standard basis: 6-311++G(3df,2p) (5D, 7F)
 Ernie: Thresh=  0.10000D-02 Tol=  0.10000D-05 Strict=F.
 There are    27 symmetry adapted cartesian basis functions of A1  symmetry.
 There are     4 symmetry adapted cartesian basis functions of A2  symmetry.
 There are    12 symmetry adapted cartesian basis functions of B1  symmetry.
 There are    12 symmetry adapted cartesian basis functions of B2  symmetry.
 There are    23 symmetry adapted basis functions of A1  symmetry.
 There are     4 symmetry adapted basis functions of A2  symmetry.
 There are    11 symmetry adapted basis functions of B1  symmetry.
 There are    11 symmetry adapted basis functions of B2  symmetry.
    49 basis functions,    70 primitive gaussians,    55 cartesian basis functions
     4 alpha electrons        4 beta electrons
       nuclear repulsion energy         2.8114511931 Hartrees.
 IExCor=  402 DFT=T Ex+Corr=B3LYP ExCW=0 ScaHFX=  0.200000
 ScaDFX=  0.800000  0.720000  1.000000  0.810000 ScalE2=  1.000000  1.000000
 IRadAn=      0 IRanWt=     -1 IRanGd=            0 ICorTp=0 IEmpDi=  4
 NAtoms=    2 NActive=    2 NUniq=    2 SFac= 1.00D+00 NAtFMM=   60 NAOKFM=F Big=F
 Integral buffers will be    131072 words long.
 Raffenetti 2 integral format.
 Two-electron integral symmetry is turned on.
 Leave Link  301 at Wed Jan 23 21:58:47 2019, MaxMem=   412876800 cpu:         0.2
 (Enter /usr/local/gaussian/gaussian09/g09/l302.exe)
 NPDir=0 NMtPBC=     1 NCelOv=     1 NCel=       1 NClECP=     1 NCelD=      1
         NCelK=      1 NCelE2=     1 NClLst=     1 CellRange=     0.0.
 One-electron integrals computed using PRISM.
 NBasis=    49 RedAO= T EigKep=  9.09D-03  NBF=    23     4    11    11
 NBsUse=    49 1.00D-06 EigRej= -1.00D+00 NBFU=    23     4    11    11
 Precomputing XC quadrature grid using
 IXCGrd= 4 IRadAn=           0 IRanWt=          -1 IRanGd=           0 AccXCQ= 0.00D+00.
 Generated NRdTot=       0 NPtTot=           0 NUsed=           0 NTot=          32
 NSgBfM=    55    55    55    55    55 MxSgAt=     2 MxSgA2=     2.
 Leave Link  302 at Wed Jan 23 21:58:47 2019, MaxMem=   412876800 cpu:         0.4
 (Enter /usr/local/gaussian/gaussian09/g09/l303.exe)
 DipDrv:  MaxL=1.
 Leave Link  303 at Wed Jan 23 21:58:47 2019, MaxMem=   412876800 cpu:         0.0
 (Enter /usr/local/gaussian/gaussian09/g09/l401.exe)
 Initial guess from the checkpoint file:  "/scratch/sergio/HC.q-1.m1-1.com-4919746/Gau-7228.chk"
 B after Tr=     0.000000    0.000000   -0.000000
         Rot=    1.000000    0.000000    0.000000    0.000000 Ang=   0.00 deg.
 Guess basis will be translated and rotated to current coordinates.
 JPrj=2 DoOrth=T DoCkMO=T.
 Initial guess orbital symmetries:
       Occupied  (SG) (SG) (SG) (?A)
       Virtual   (SG) (SG) (SG) (?B) (?B) (?B) (SG) (?C) (?C) (?C)
                 (SG) (SG) (SG) (SG) (DLTA) (SG) (SG) (SG) (SG)
                 (SG) (?B) (?C) (?C) (DLTA) (?A) (?A) (?A) (?A)
                 (?A) (?A) (?A) (?A) (PI) (?A) (PI) (?A) (?A) (?A)
                 (?A) (?A) (?A) (?A) (?A) (PI) (PI)
 Leave Link  401 at Wed Jan 23 21:58:47 2019, MaxMem=   412876800 cpu:         0.2
 (Enter /usr/local/gaussian/gaussian09/g09/l502.exe)
 Closed shell SCF:
 Using DIIS extrapolation, IDIIS=  1040.
 Integral symmetry usage will be decided dynamically.
 Keep R1 ints in memory in symmetry-blocked form, NReq=2735961.
 IVT=       28410 IEndB=       28410 NGot=   412876800 MDV=   412645358
 LenX=   412645358 LenY=   412641892
 Requested convergence on RMS density matrix=1.00D-08 within 128 cycles.
 Requested convergence on MAX density matrix=1.00D-06.
 Requested convergence on             energy=1.00D-06.
 No special actions if energy rises.
 FoFCou: FMM=F IPFlag=           0 FMFlag=           0 FMFlg1=           0
         NFxFlg=           0 DoJE=F BraDBF=F KetDBF=F FulRan=T
         wScrn=  0.000000 ICntrl=     600 IOpCl=  0 I1Cent=           0 NGrid=           0
         NMat0=    1 NMatS0=   1225 NMatT0=    0 NMatD0=    1 NMtDS0=    0 NMtDT0=    0
 Petite list used in FoFCou.

 Cycle   1  Pass 1  IDiag  1:
 E= -38.5004278406933    
 DIIS: error= 4.44D-04 at cycle   1 NSaved=   1.
 NSaved= 1 IEnMin= 1 EnMin= -38.5004278406933     IErMin= 1 ErrMin= 4.44D-04
 ErrMax= 4.44D-04  0.00D+00 EMaxC= 1.00D-01 BMatC= 7.34D-06 BMatP= 7.34D-06
 IDIUse=3 WtCom= 9.96D-01 WtEn= 4.44D-03
 Coeff-Com:  0.100D+01
 Coeff-En:   0.100D+01
 Coeff:      0.100D+01
 Gap=     0.295 Goal=   None    Shift=    0.000
 RMSDP=5.94D-05 MaxDP=7.08D-04              OVMax= 1.95D-03

 Cycle   2  Pass 1  IDiag  1:
 E= -38.5004348788192     Delta-E=       -0.000007038126 Rises=F Damp=F
 DIIS: error= 1.85D-04 at cycle   2 NSaved=   2.
 NSaved= 2 IEnMin= 2 EnMin= -38.5004348788192     IErMin= 2 ErrMin= 1.85D-04
 ErrMax= 1.85D-04  0.00D+00 EMaxC= 1.00D-01 BMatC= 6.15D-07 BMatP= 7.34D-06
 IDIUse=3 WtCom= 9.98D-01 WtEn= 1.85D-03
 Coeff-Com:  0.124D+00 0.876D+00
 Coeff-En:   0.000D+00 0.100D+01
 Coeff:      0.124D+00 0.876D+00
 Gap=     0.050 Goal=   None    Shift=    0.000
 RMSDP=5.04D-05 MaxDP=1.27D-03 DE=-7.04D-06 OVMax= 1.62D-03

 Cycle   3  Pass 1  IDiag  1:
 E= -38.5004340699552     Delta-E=        0.000000808864 Rises=F Damp=F
 DIIS: error= 2.51D-04 at cycle   3 NSaved=   3.
 NSaved= 3 IEnMin= 2 EnMin= -38.5004348788192     IErMin= 2 ErrMin= 1.85D-04
 ErrMax= 2.51D-04  0.00D+00 EMaxC= 1.00D-01 BMatC= 1.14D-06 BMatP= 6.15D-07
 IDIUse=3 WtCom= 3.87D-01 WtEn= 6.13D-01
 Coeff-Com:  0.121D-01 0.579D+00 0.409D+00
 Coeff-En:   0.000D+00 0.634D+00 0.366D+00
 Coeff:      0.469D-02 0.613D+00 0.383D+00
 Gap=     0.050 Goal=   None    Shift=    0.000
 RMSDP=3.09D-05 MaxDP=6.86D-04 DE= 8.09D-07 OVMax= 8.71D-04

 Cycle   4  Pass 1  IDiag  1:
 E= -38.5004357474621     Delta-E=       -0.000001677507 Rises=F Damp=F
 DIIS: error= 1.57D-05 at cycle   4 NSaved=   4.
 NSaved= 4 IEnMin= 4 EnMin= -38.5004357474621     IErMin= 4 ErrMin= 1.57D-05
 ErrMax= 1.57D-05  0.00D+00 EMaxC= 1.00D-01 BMatC= 5.10D-09 BMatP= 6.15D-07
 IDIUse=1 WtCom= 1.00D+00 WtEn= 0.00D+00
 Coeff-Com: -0.708D-02 0.106D+00 0.511D-01 0.850D+00
 Coeff:     -0.708D-02 0.106D+00 0.511D-01 0.850D+00
 Gap=     0.050 Goal=   None    Shift=    0.000
 RMSDP=2.15D-06 MaxDP=2.67D-05 DE=-1.68D-06 OVMax= 5.61D-05

 Cycle   5  Pass 1  IDiag  1:
 E= -38.5004357549007     Delta-E=       -0.000000007439 Rises=F Damp=F
 DIIS: error= 3.78D-06 at cycle   5 NSaved=   5.
 NSaved= 5 IEnMin= 5 EnMin= -38.5004357549007     IErMin= 5 ErrMin= 3.78D-06
 ErrMax= 3.78D-06  0.00D+00 EMaxC= 1.00D-01 BMatC= 2.26D-10 BMatP= 5.10D-09
 IDIUse=1 WtCom= 1.00D+00 WtEn= 0.00D+00
 Coeff-Com: -0.457D-03-0.777D-02-0.946D-02 0.155D+00 0.863D+00
 Coeff:     -0.457D-03-0.777D-02-0.946D-02 0.155D+00 0.863D+00
 Gap=     0.050 Goal=   None    Shift=    0.000
 RMSDP=9.17D-07 MaxDP=1.01D-05 DE=-7.44D-09 OVMax= 1.72D-05

 Cycle   6  Pass 1  IDiag  1:
 E= -38.5004357553285     Delta-E=       -0.000000000428 Rises=F Damp=F
 DIIS: error= 3.47D-07 at cycle   6 NSaved=   6.
 NSaved= 6 IEnMin= 6 EnMin= -38.5004357553285     IErMin= 6 ErrMin= 3.47D-07
 ErrMax= 3.47D-07  0.00D+00 EMaxC= 1.00D-01 BMatC= 3.16D-12 BMatP= 2.26D-10
 IDIUse=1 WtCom= 1.00D+00 WtEn= 0.00D+00
 Coeff-Com:  0.118D-03-0.309D-02-0.230D-02-0.256D-01 0.309D-01 0.100D+01
 Coeff:      0.118D-03-0.309D-02-0.230D-02-0.256D-01 0.309D-01 0.100D+01
 Gap=     0.050 Goal=   None    Shift=    0.000
 RMSDP=1.46D-07 MaxDP=1.87D-06 DE=-4.28D-10 OVMax= 3.02D-06

 Cycle   7  Pass 1  IDiag  1:
 E= -38.5004357553373     Delta-E=       -0.000000000009 Rises=F Damp=F
 DIIS: error= 3.82D-08 at cycle   7 NSaved=   7.
 NSaved= 7 IEnMin= 7 EnMin= -38.5004357553373     IErMin= 7 ErrMin= 3.82D-08
 ErrMax= 3.82D-08  0.00D+00 EMaxC= 1.00D-01 BMatC= 4.08D-14 BMatP= 3.16D-12
 IDIUse=1 WtCom= 1.00D+00 WtEn= 0.00D+00
 Coeff-Com:  0.208D-04 0.511D-04-0.402D-04-0.329D-02-0.102D-01 0.110D-01
 Coeff-Com:  0.100D+01
 Coeff:      0.208D-04 0.511D-04-0.402D-04-0.329D-02-0.102D-01 0.110D-01
 Coeff:      0.100D+01
 Gap=     0.050 Goal=   None    Shift=    0.000
 RMSDP=2.71D-08 MaxDP=4.21D-07 DE=-8.76D-12 OVMax= 3.20D-07

 Cycle   8  Pass 1  IDiag  1:
 E= -38.5004357553374     Delta-E=       -0.000000000000 Rises=F Damp=F
 DIIS: error= 7.03D-09 at cycle   8 NSaved=   8.
 NSaved= 8 IEnMin= 8 EnMin= -38.5004357553374     IErMin= 8 ErrMin= 7.03D-09
 ErrMax= 7.03D-09  0.00D+00 EMaxC= 1.00D-01 BMatC= 1.40D-15 BMatP= 4.08D-14
 IDIUse=1 WtCom= 1.00D+00 WtEn= 0.00D+00
 Coeff-Com: -0.222D-05 0.462D-04 0.318D-05 0.408D-03-0.112D-04-0.136D-01
 Coeff-Com: -0.396D-01 0.105D+01
 Coeff:     -0.222D-05 0.462D-04 0.318D-05 0.408D-03-0.112D-04-0.136D-01
 Coeff:     -0.396D-01 0.105D+01
 Gap=     0.050 Goal=   None    Shift=    0.000
 RMSDP=4.12D-09 MaxDP=7.33D-08 DE=-1.28D-13 OVMax= 4.73D-08

 SCF Done:  E(RB3LYP) =  -38.5004357553     A.U. after    8 cycles
            NFock=  8  Conv=0.41D-08     -V/T= 2.0038
 KE= 3.835465692666D+01 PE=-9.706510879621D+01 EE= 1.739856492114D+01
 Leave Link  502 at Wed Jan 23 21:58:48 2019, MaxMem=   412876800 cpu:         1.4
 (Enter /usr/local/gaussian/gaussian09/g09/l701.exe)
 Compute integral first derivatives.
 ... and contract with generalized density number  0.
 Leave Link  701 at Wed Jan 23 21:58:48 2019, MaxMem=   412876800 cpu:         0.5
 (Enter /usr/local/gaussian/gaussian09/g09/l702.exe)
 L702 exits ... SP integral derivatives will be done elsewhere.
 Leave Link  702 at Wed Jan 23 21:58:48 2019, MaxMem=   412876800 cpu:         0.0
 (Enter /usr/local/gaussian/gaussian09/g09/l703.exe)
 Compute integral first derivatives, UseDBF=F ICtDFT=           0.
 Integral derivatives from FoFJK, PRISM(SPDF).
 Calling FoFJK, ICntrl=      2127 FMM=F ISym2X=1 I1Cent= 0 IOpClX= 0 NMat=1 NMatS=1 NMatT=0.
 FoFJK:  IHMeth= 1 ICntrl=    2127 DoSepK=F KAlg= 0 I1Cent=   0 FoldK=F
 IRaf=         0 NMat=   1 IRICut=       1 DoRegI=T DoRafI=F ISym2E= 1.
 FoFCou: FMM=F IPFlag=           0 FMFlag=      100000 FMFlg1=         800
         NFxFlg=           0 DoJE=F BraDBF=F KetDBF=F FulRan=T
         wScrn=  0.000000 ICntrl=    2127 IOpCl=  0 I1Cent=           0 NGrid=           0
         NMat0=    1 NMatS0=      1 NMatT0=    0 NMatD0=    1 NMtDS0=    0 NMtDT0=    0
 Petite list used in FoFCou.
 Leave Link  703 at Wed Jan 23 21:58:49 2019, MaxMem=   412876800 cpu:         1.8
 (Enter /usr/local/gaussian/gaussian09/g09/l716.exe)
 Dipole        = 0.00000000D+00 0.00000000D+00-6.80260823D-01
 ***** Axes restored to original set *****
 -------------------------------------------------------------------
 Center     Atomic                   Forces (Hartrees/Bohr)
 Number     Number              X              Y              Z
 -------------------------------------------------------------------
      1        6           0.000634493   -0.000000000   -0.000000000
      2        1          -0.000634493   -0.000000000   -0.000000000
 -------------------------------------------------------------------
 Cartesian Forces:  Max     0.000634493 RMS     0.000366324
 Leave Link  716 at Wed Jan 23 21:58:49 2019, MaxMem=   412876800 cpu:         0.1
 (Enter /usr/local/gaussian/gaussian09/g09/l103.exe)

 GradGradGradGradGradGradGradGradGradGradGradGradGradGradGradGradGradGrad
 Berny optimization.
 Using GEDIIS/GDIIS optimizer.
 Red2BG is reusing G-inverse.
 Internal  Forces:  Max     0.000634493 RMS     0.000634493
 Search for a local minimum.
 Step number   2 out of a maximum of   20
 All quantities printed in internal units (Hartrees-Bohrs-Radians)
 RMS Force = .63449D-03 SwitMx=.10000D-02 MixMth= 2
 Mixed Optimization -- En-DIIS/RFO-DIIS
 Update second derivatives using D2CorX and points    1    2
 DE= -2.84D-05 DEPred=-2.45D-05 R= 1.16D+00
 TightC=F SS=  1.41D+00  RLast= 1.25D-02 DXNew= 5.0454D-01 3.7556D-02
 Trust test= 1.16D+00 RLast= 1.25D-02 DXMaxT set to 3.00D-01
 The second derivative matrix:
                          R1
           R1           0.26227
 ITU=  1  0
 Use linear search instead of GDIIS.
     Eigenvalues ---    0.26227
 RFO step:  Lambda= 0.00000000D+00 EMin= 2.62272212D-01
 Quartic linear search produced a step of  0.19814.
 Iteration  1 RMS(Cart)=  0.00175395 RMS(Int)=  0.00000000
 Iteration  2 RMS(Cart)=  0.00000000 RMS(Int)=  0.00000000
 ITry= 1 IFail=0 DXMaxC= 1.24D-03 DCOld= 1.00D+10 DXMaxT= 3.00D-01 DXLimC= 3.00D+00 Rises=F
 ClnCor:  largest displacement from symmetrization is 0.00D+00 for atom     0.
 Variable       Old X    -DE/DX   Delta X   Delta X   Delta X     New X
                                 (Linear)    (Quad)   (Total)
    R1        2.13413   0.00063   0.00248   0.00000   0.00248   2.13661
         Item               Value     Threshold  Converged?
 Maximum Force            0.000634     0.000450     NO 
 RMS     Force            0.000634     0.000300     NO 
 Maximum Displacement     0.001240     0.001800     YES
 RMS     Displacement     0.001754     0.001200     NO 
 Predicted change in Energy=-7.669945D-07
 Lowest energy point so far.  Saving SCF results.
 GradGradGradGradGradGradGradGradGradGradGradGradGradGradGradGradGradGrad

 Leave Link  103 at Wed Jan 23 21:58:49 2019, MaxMem=   412876800 cpu:         0.0
 (Enter /usr/local/gaussian/gaussian09/g09/l202.exe)
                          Input orientation:                          
 ---------------------------------------------------------------------
 Center     Atomic      Atomic             Coordinates (Angstroms)
 Number     Number       Type             X           Y           Z
 ---------------------------------------------------------------------
      1          6           0        0.165178    0.000000    0.000000
      2          1           0       -0.965468    0.000000    0.000000
 ---------------------------------------------------------------------
 Stoichiometry    CH(1-)
 Framework group  C*V[C*(HC)]
 Deg. of freedom     1
 Full point group                 C*V     NOp   4
 RotChk:  IX=0 Diff= 0.00D+00
 Largest Abelian subgroup         C2V     NOp   4
 Largest concise Abelian subgroup C1      NOp   1
                         Standard orientation:                         
 ---------------------------------------------------------------------
 Center     Atomic      Atomic             Coordinates (Angstroms)
 Number     Number       Type             X           Y           Z
 ---------------------------------------------------------------------
      1          6           0        0.000000    0.000000    0.161521
      2          1           0        0.000000    0.000000   -0.969124
 ---------------------------------------------------------------------
 Rotational constants (GHZ):      0.0000000    425.2094108    425.2094108
 Leave Link  202 at Wed Jan 23 21:58:49 2019, MaxMem=   412876800 cpu:         0.0
 (Enter /usr/local/gaussian/gaussian09/g09/l301.exe)
 Standard basis: 6-311++G(3df,2p) (5D, 7F)
 Ernie: Thresh=  0.10000D-02 Tol=  0.10000D-05 Strict=F.
 There are    27 symmetry adapted cartesian basis functions of A1  symmetry.
 There are     4 symmetry adapted cartesian basis functions of A2  symmetry.
 There are    12 symmetry adapted cartesian basis functions of B1  symmetry.
 There are    12 symmetry adapted cartesian basis functions of B2  symmetry.
 There are    23 symmetry adapted basis functions of A1  symmetry.
 There are     4 symmetry adapted basis functions of A2  symmetry.
 There are    11 symmetry adapted basis functions of B1  symmetry.
 There are    11 symmetry adapted basis functions of B2  symmetry.
    49 basis functions,    70 primitive gaussians,    55 cartesian basis functions
     4 alpha electrons        4 beta electrons
       nuclear repulsion energy         2.8081872846 Hartrees.
 IExCor=  402 DFT=T Ex+Corr=B3LYP ExCW=0 ScaHFX=  0.200000
 ScaDFX=  0.800000  0.720000  1.000000  0.810000 ScalE2=  1.000000  1.000000
 IRadAn=      0 IRanWt=     -1 IRanGd=            0 ICorTp=0 IEmpDi=  4
 NAtoms=    2 NActive=    2 NUniq=    2 SFac= 1.00D+00 NAtFMM=   60 NAOKFM=F Big=F
 Integral buffers will be    131072 words long.
 Raffenetti 2 integral format.
 Two-electron integral symmetry is turned on.
 Leave Link  301 at Wed Jan 23 21:58:49 2019, MaxMem=   412876800 cpu:         0.1
 (Enter /usr/local/gaussian/gaussian09/g09/l302.exe)
 NPDir=0 NMtPBC=     1 NCelOv=     1 NCel=       1 NClECP=     1 NCelD=      1
         NCelK=      1 NCelE2=     1 NClLst=     1 CellRange=     0.0.
 One-electron integrals computed using PRISM.
 NBasis=    49 RedAO= T EigKep=  9.13D-03  NBF=    23     4    11    11
 NBsUse=    49 1.00D-06 EigRej= -1.00D+00 NBFU=    23     4    11    11
 Precomputing XC quadrature grid using
 IXCGrd= 4 IRadAn=           0 IRanWt=          -1 IRanGd=           0 AccXCQ= 0.00D+00.
 Generated NRdTot=       0 NPtTot=           0 NUsed=           0 NTot=          32
 NSgBfM=    55    55    55    55    55 MxSgAt=     2 MxSgA2=     2.
 Leave Link  302 at Wed Jan 23 21:58:49 2019, MaxMem=   412876800 cpu:         0.4
 (Enter /usr/local/gaussian/gaussian09/g09/l303.exe)
 DipDrv:  MaxL=1.
 Leave Link  303 at Wed Jan 23 21:58:50 2019, MaxMem=   412876800 cpu:         0.0
 (Enter /usr/local/gaussian/gaussian09/g09/l401.exe)
 Initial guess from the checkpoint file:  "/scratch/sergio/HC.q-1.m1-1.com-4919746/Gau-7228.chk"
 B after Tr=     0.000000    0.000000    0.000000
         Rot=    1.000000    0.000000    0.000000    0.000000 Ang=   0.00 deg.
 Guess basis will be translated and rotated to current coordinates.
 JPrj=2 DoOrth=T DoCkMO=T.
 Initial guess orbital symmetries:
       Occupied  (SG) (SG) (SG) (?A)
       Virtual   (SG) (SG) (SG) (?B) (?B) (?B) (SG) (?C) (?C) (DLTA)
                 (SG) (SG) (SG) (SG) (DLTA) (SG) (SG) (SG) (SG)
                 (SG) (?B) (?C) (DLTA) (DLTA) (?A) (?A) (?A) (?A)
                 (?A) (?A) (?A) (?A) (PI) (?A) (PI) (?A) (?A) (?A)
                 (?A) (?A) (?A) (?A) (?A) (PI) (PI)
 Leave Link  401 at Wed Jan 23 21:58:50 2019, MaxMem=   412876800 cpu:         0.2
 (Enter /usr/local/gaussian/gaussian09/g09/l502.exe)
 Closed shell SCF:
 Using DIIS extrapolation, IDIIS=  1040.
 Integral symmetry usage will be decided dynamically.
 Keep R1 ints in memory in symmetry-blocked form, NReq=2735961.
 IVT=       28410 IEndB=       28410 NGot=   412876800 MDV=   412645358
 LenX=   412645358 LenY=   412641892
 Requested convergence on RMS density matrix=1.00D-08 within 128 cycles.
 Requested convergence on MAX density matrix=1.00D-06.
 Requested convergence on             energy=1.00D-06.
 No special actions if energy rises.
 FoFCou: FMM=F IPFlag=           0 FMFlag=           0 FMFlg1=           0
         NFxFlg=           0 DoJE=F BraDBF=F KetDBF=F FulRan=T
         wScrn=  0.000000 ICntrl=     600 IOpCl=  0 I1Cent=           0 NGrid=           0
         NMat0=    1 NMatS0=   1225 NMatT0=    0 NMatD0=    1 NMtDS0=    0 NMtDT0=    0
 Petite list used in FoFCou.

 Cycle   1  Pass 1  IDiag  1:
 E= -38.5004362328714    
 DIIS: error= 8.68D-05 at cycle   1 NSaved=   1.
 NSaved= 1 IEnMin= 1 EnMin= -38.5004362328714     IErMin= 1 ErrMin= 8.68D-05
 ErrMax= 8.68D-05  0.00D+00 EMaxC= 1.00D-01 BMatC= 2.82D-07 BMatP= 2.82D-07
 IDIUse=1 WtCom= 1.00D+00 WtEn= 0.00D+00
 Coeff-Com:  0.100D+01
 Coeff:      0.100D+01
 Gap=     0.295 Goal=   None    Shift=    0.000
 RMSDP=1.17D-05 MaxDP=1.40D-04              OVMax= 3.87D-04

 Cycle   2  Pass 1  IDiag  1:
 E= -38.5004365075155     Delta-E=       -0.000000274644 Rises=F Damp=F
 DIIS: error= 3.62D-05 at cycle   2 NSaved=   2.
 NSaved= 2 IEnMin= 2 EnMin= -38.5004365075155     IErMin= 2 ErrMin= 3.62D-05
 ErrMax= 3.62D-05  0.00D+00 EMaxC= 1.00D-01 BMatC= 2.36D-08 BMatP= 2.82D-07
 IDIUse=1 WtCom= 1.00D+00 WtEn= 0.00D+00
 Coeff-Com:  0.124D+00 0.876D+00
 Coeff:      0.124D+00 0.876D+00
 Gap=     0.050 Goal=   None    Shift=    0.000
 RMSDP=9.85D-06 MaxDP=2.48D-04 DE=-2.75D-07 OVMax= 3.18D-04

 Cycle   3  Pass 1  IDiag  1:
 E= -38.5004364766619     Delta-E=        0.000000030854 Rises=F Damp=F
 DIIS: error= 4.91D-05 at cycle   3 NSaved=   3.
 NSaved= 3 IEnMin= 2 EnMin= -38.5004365075155     IErMin= 2 ErrMin= 3.62D-05
 ErrMax= 4.91D-05  0.00D+00 EMaxC= 1.00D-01 BMatC= 4.36D-08 BMatP= 2.36D-08
 IDIUse=1 WtCom= 1.00D+00 WtEn= 0.00D+00
 Coeff-Com:  0.121D-01 0.579D+00 0.409D+00
 Coeff:      0.121D-01 0.579D+00 0.409D+00
 Gap=     0.050 Goal=   None    Shift=    0.000
 RMSDP=6.64D-06 MaxDP=1.48D-04 DE= 3.09D-08 OVMax= 1.88D-04

 Cycle   4  Pass 1  IDiag  1:
 E= -38.5004365405149     Delta-E=       -0.000000063853 Rises=F Damp=F
 DIIS: error= 3.71D-06 at cycle   4 NSaved=   4.
 NSaved= 4 IEnMin= 4 EnMin= -38.5004365405149     IErMin= 4 ErrMin= 3.71D-06
 ErrMax= 3.71D-06  0.00D+00 EMaxC= 1.00D-01 BMatC= 3.99D-10 BMatP= 2.36D-08
 IDIUse=1 WtCom= 1.00D+00 WtEn= 0.00D+00
 Coeff-Com: -0.716D-02 0.911D-01 0.121D+00 0.795D+00
 Coeff:     -0.716D-02 0.911D-01 0.121D+00 0.795D+00
 Gap=     0.050 Goal=   None    Shift=    0.000
 RMSDP=7.04D-07 MaxDP=9.76D-06 DE=-6.39D-08 OVMax= 1.52D-05

 Cycle   5  Pass 1  IDiag  1:
 E= -38.5004365410813     Delta-E=       -0.000000000566 Rises=F Damp=F
 DIIS: error= 7.48D-07 at cycle   5 NSaved=   5.
 NSaved= 5 IEnMin= 5 EnMin= -38.5004365410813     IErMin= 5 ErrMin= 7.48D-07
 ErrMax= 7.48D-07  0.00D+00 EMaxC= 1.00D-01 BMatC= 8.84D-12 BMatP= 3.99D-10
 IDIUse=1 WtCom= 1.00D+00 WtEn= 0.00D+00
 Coeff-Com: -0.463D-03-0.104D-01 0.317D-02 0.145D+00 0.863D+00
 Coeff:     -0.463D-03-0.104D-01 0.317D-02 0.145D+00 0.863D+00
 Gap=     0.050 Goal=   None    Shift=    0.000
 RMSDP=1.81D-07 MaxDP=2.00D-06 DE=-5.66D-10 OVMax= 3.40D-06

 Cycle   6  Pass 1  IDiag  1:
 E= -38.5004365410980     Delta-E=       -0.000000000017 Rises=F Damp=F
 DIIS: error= 6.89D-08 at cycle   6 NSaved=   6.
 NSaved= 6 IEnMin= 6 EnMin= -38.5004365410980     IErMin= 6 ErrMin= 6.89D-08
 ErrMax= 6.89D-08  0.00D+00 EMaxC= 1.00D-01 BMatC= 1.25D-13 BMatP= 8.84D-12
 IDIUse=1 WtCom= 1.00D+00 WtEn= 0.00D+00
 Coeff-Com:  0.118D-03-0.266D-02-0.442D-02-0.238D-01 0.317D-01 0.999D+00
 Coeff:      0.118D-03-0.266D-02-0.442D-02-0.238D-01 0.317D-01 0.999D+00
 Gap=     0.050 Goal=   None    Shift=    0.000
 RMSDP=2.90D-08 MaxDP=3.72D-07 DE=-1.67D-11 OVMax= 5.98D-07

 Cycle   7  Pass 1  IDiag  1:
 E= -38.5004365410984     Delta-E=       -0.000000000000 Rises=F Damp=F
 DIIS: error= 7.53D-09 at cycle   7 NSaved=   7.
 NSaved= 7 IEnMin= 7 EnMin= -38.5004365410984     IErMin= 7 ErrMin= 7.53D-09
 ErrMax= 7.53D-09  0.00D+00 EMaxC= 1.00D-01 BMatC= 1.58D-15 BMatP= 1.25D-13
 IDIUse=1 WtCom= 1.00D+00 WtEn= 0.00D+00
 Coeff-Com:  0.212D-04 0.106D-03-0.313D-03-0.312D-02-0.103D-01 0.116D-01
 Coeff-Com:  0.100D+01
 Coeff:      0.212D-04 0.106D-03-0.313D-03-0.312D-02-0.103D-01 0.116D-01
 Coeff:      0.100D+01
 Gap=     0.050 Goal=   None    Shift=    0.000
 RMSDP=5.36D-09 MaxDP=8.32D-08 DE=-4.12D-13 OVMax= 6.34D-08

 SCF Done:  E(RB3LYP) =  -38.5004365411     A.U. after    7 cycles
            NFock=  7  Conv=0.54D-08     -V/T= 2.0038
 KE= 3.835336138106D+01 PE=-9.705768212933D+01 EE= 1.739569692257D+01
 Leave Link  502 at Wed Jan 23 21:58:50 2019, MaxMem=   412876800 cpu:         1.4
 (Enter /usr/local/gaussian/gaussian09/g09/l701.exe)
 Compute integral first derivatives.
 ... and contract with generalized density number  0.
 Leave Link  701 at Wed Jan 23 21:58:51 2019, MaxMem=   412876800 cpu:         0.5
 (Enter /usr/local/gaussian/gaussian09/g09/l702.exe)
 L702 exits ... SP integral derivatives will be done elsewhere.
 Leave Link  702 at Wed Jan 23 21:58:51 2019, MaxMem=   412876800 cpu:         0.1
 (Enter /usr/local/gaussian/gaussian09/g09/l703.exe)
 Compute integral first derivatives, UseDBF=F ICtDFT=           0.
 Integral derivatives from FoFJK, PRISM(SPDF).
 Calling FoFJK, ICntrl=      2127 FMM=F ISym2X=1 I1Cent= 0 IOpClX= 0 NMat=1 NMatS=1 NMatT=0.
 FoFJK:  IHMeth= 1 ICntrl=    2127 DoSepK=F KAlg= 0 I1Cent=   0 FoldK=F
 IRaf=         0 NMat=   1 IRICut=       1 DoRegI=T DoRafI=F ISym2E= 1.
 FoFCou: FMM=F IPFlag=           0 FMFlag=      100000 FMFlg1=         800
         NFxFlg=           0 DoJE=F BraDBF=F KetDBF=F FulRan=T
         wScrn=  0.000000 ICntrl=    2127 IOpCl=  0 I1Cent=           0 NGrid=           0
         NMat0=    1 NMatS0=      1 NMatT0=    0 NMatD0=    1 NMtDS0=    0 NMtDT0=    0
 Petite list used in FoFCou.
 Leave Link  703 at Wed Jan 23 21:58:52 2019, MaxMem=   412876800 cpu:         1.8
 (Enter /usr/local/gaussian/gaussian09/g09/l716.exe)
 Dipole        = 0.00000000D+00 0.00000000D+00-6.78701998D-01
 ***** Axes restored to original set *****
 -------------------------------------------------------------------
 Center     Atomic                   Forces (Hartrees/Bohr)
 Number     Number              X              Y              Z
 -------------------------------------------------------------------
      1        6          -0.000000062   -0.000000000   -0.000000000
      2        1           0.000000062   -0.000000000   -0.000000000
 -------------------------------------------------------------------
 Cartesian Forces:  Max     0.000000062 RMS     0.000000036
 Leave Link  716 at Wed Jan 23 21:58:52 2019, MaxMem=   412876800 cpu:         0.1
 (Enter /usr/local/gaussian/gaussian09/g09/l103.exe)

 GradGradGradGradGradGradGradGradGradGradGradGradGradGradGradGradGradGrad
 Berny optimization.
 Using GEDIIS/GDIIS optimizer.
 Red2BG is reusing G-inverse.
 Internal  Forces:  Max     0.000000062 RMS     0.000000062
 Search for a local minimum.
 Step number   3 out of a maximum of   20
 All quantities printed in internal units (Hartrees-Bohrs-Radians)
 RMS Force = .62401D-07 SwitMx=.10000D-02 MixMth= 2
 Mixed Optimization -- En-DIIS/RFO-DIIS
 Swapping is turned off.
 Update second derivatives using D2CorX and points    2    3
 DE= -7.86D-07 DEPred=-7.67D-07 R= 1.02D+00
 Trust test= 1.02D+00 RLast= 2.48D-03 DXMaxT set to 3.00D-01
 The second derivative matrix:
                          R1
           R1           0.25582
 ITU=  0  1
     Eigenvalues ---    0.25582
 En-DIIS/RFO-DIIS IScMMF=        0 using points:     3    2
 RFO step:  Lambda=-7.71605002D-15.
 NNeg= 0 NP= 2 Switch=  2.50D-03 Rises=F DC=  7.86D-07 SmlDif=  1.00D-05
 RMS Error=  0.1233731315D-06 NUsed= 2 EDIIS=F
 DidBck=F Rises=F RFO-DIIS coefs:    0.99990    0.00010
 Iteration  1 RMS(Cart)=  0.00000017 RMS(Int)=  0.00000000
 ITry= 1 IFail=0 DXMaxC= 1.22D-07 DCOld= 1.00D+10 DXMaxT= 3.00D-01 DXLimC= 3.00D+00 Rises=F
 ClnCor:  largest displacement from symmetrization is 0.00D+00 for atom     0.
 Variable       Old X    -DE/DX   Delta X   Delta X   Delta X     New X
                                 (Linear)    (Quad)   (Total)
    R1        2.13661  -0.00000  -0.00000   0.00000  -0.00000   2.13661
         Item               Value     Threshold  Converged?
 Maximum Force            0.000000     0.000450     YES
 RMS     Force            0.000000     0.000300     YES
 Maximum Displacement     0.000000     0.001800     YES
 RMS     Displacement     0.000000     0.001200     YES
 Predicted change in Energy=-7.610465D-15
 Optimization completed.
    -- Stationary point found.
                           ----------------------------
                           !   Optimized Parameters   !
                           ! (Angstroms and Degrees)  !
 --------------------------                            --------------------------
 ! Name  Definition              Value          Derivative Info.                !
 --------------------------------------------------------------------------------
 ! R1    R(1,2)                  1.1306         -DE/DX =    0.0                 !
 --------------------------------------------------------------------------------
 Lowest energy point so far.  Saving SCF results.
 GradGradGradGradGradGradGradGradGradGradGradGradGradGradGradGradGradGrad

 Largest change from initial coordinates is atom    2       0.007 Angstoms.
 Leave Link  103 at Wed Jan 23 21:58:52 2019, MaxMem=   412876800 cpu:         0.1
 (Enter /usr/local/gaussian/gaussian09/g09/l202.exe)
                          Input orientation:                          
 ---------------------------------------------------------------------
 Center     Atomic      Atomic             Coordinates (Angstroms)
 Number     Number       Type             X           Y           Z
 ---------------------------------------------------------------------
      1          6           0        0.165178    0.000000    0.000000
      2          1           0       -0.965468    0.000000    0.000000
 ---------------------------------------------------------------------
 Stoichiometry    CH(1-)
 Framework group  C*V[C*(HC)]
 Deg. of freedom     1
 Full point group                 C*V     NOp   4
 RotChk:  IX=0 Diff= 0.00D+00
 Largest Abelian subgroup         C2V     NOp   4
 Largest concise Abelian subgroup C1      NOp   1
                         Standard orientation:                         
 ---------------------------------------------------------------------
 Center     Atomic      Atomic             Coordinates (Angstroms)
 Number     Number       Type             X           Y           Z
 ---------------------------------------------------------------------
      1          6           0        0.000000    0.000000    0.161521
      2          1           0        0.000000    0.000000   -0.969124
 ---------------------------------------------------------------------
 Rotational constants (GHZ):      0.0000000    425.2094108    425.2094108
 Leave Link  202 at Wed Jan 23 21:58:52 2019, MaxMem=   412876800 cpu:         0.0
 (Enter /usr/local/gaussian/gaussian09/g09/l601.exe)
 Copying SCF densities to generalized density rwf, IOpCl= 0 IROHF=0.

 **********************************************************************

            Population analysis using the SCF density.

 **********************************************************************

 Orbital symmetries:
       Occupied  (SG) (SG) (SG) (?A)
       Virtual   (?A) (SG) (SG) (?A) (?A) (SG) (SG) (PI) (PI) (?B)
                 (?B) (?B) (PI) (SG) (PI) (SG) (SG) (PI) (PI) (SG)
                 (DLTA) (DLTA) (PI) (PI) (SG) (?C) (?D) (?D) (?C)
                 (?C) (?D) (?D) (?D) (?D) (?C) (SG) (PI) (PI) (SG)
                 (DLTA) (DLTA) (PI) (PI) (SG) (SG)
 Unable to determine electronic state:  an orbital has unidentified symmetry.
 Alpha  occ. eigenvalues --   -9.96068  -0.33666  -0.03720   0.07295
 Alpha virt. eigenvalues --    0.12310   0.14512   0.23231   0.24434   0.25065
 Alpha virt. eigenvalues --    0.27786   0.35187   0.54847   0.55965   0.57271
 Alpha virt. eigenvalues --    0.57640   0.59819   0.78688   0.79015   0.79516
 Alpha virt. eigenvalues --    0.84575   1.01347   1.14367   1.15577   1.48863
 Alpha virt. eigenvalues --    1.86312   1.87049   1.88379   1.90653   2.18567
 Alpha virt. eigenvalues --    2.77749   2.94214   2.95912   3.08994   3.09302
 Alpha virt. eigenvalues --    3.10379   3.10518   3.24546   3.26942   3.27381
 Alpha virt. eigenvalues --    3.73543   4.35848   4.37113   5.38102   7.21306
 Alpha virt. eigenvalues --    7.22063   7.25438   7.26435   7.62199  23.80221
          Condensed to atoms (all electrons):
               1          2
     1  C    7.102709  -0.040354
     2  H   -0.040354   0.978000
 Mulliken charges:
               1
     1  C   -1.062354
     2  H    0.062354
 Sum of Mulliken charges =  -1.00000
 Mulliken charges with hydrogens summed into heavy atoms:
               1
     1  C   -1.000000
 Electronic spatial extent (au):  <R**2>=             36.7422
 Charge=             -1.0000 electrons
 Dipole moment (field-independent basis, Debye):
    X=              0.0000    Y=              0.0000    Z=             -1.7251  Tot=              1.7251
 Quadrupole moment (field-independent basis, Debye-Ang):
   XX=            -10.3727   YY=            -19.9282   ZZ=            -13.8556
   XY=              0.0000   XZ=              0.0000   YZ=              0.0000
 Traceless Quadrupole moment (field-independent basis, Debye-Ang):
   XX=              4.3462   YY=             -5.2094   ZZ=              0.8632
   XY=              0.0000   XZ=              0.0000   YZ=              0.0000
 Octapole moment (field-independent basis, Debye-Ang**2):
  XXX=              0.0000  YYY=              0.0000  ZZZ=             -3.8689  XYY=              0.0000
  XXY=              0.0000  XXZ=             -1.3188  XZZ=              0.0000  YZZ=              0.0000
  YYZ=             -2.3984  XYZ=              0.0000
 Hexadecapole moment (field-independent basis, Debye-Ang**3):
 XXXX=            -22.5739 YYYY=            -81.7880 ZZZZ=            -43.0862 XXXY=              0.0000
 XXXZ=              0.0000 YYYX=              0.0000 YYYZ=              0.0000 ZZZX=              0.0000
 ZZZY=              0.0000 XXYY=            -17.3976 XXZZ=            -10.8712 YYZZ=            -20.9368
 XXYZ=              0.0000 YYXZ=              0.0000 ZZXY=              0.0000
 N-N= 2.808187284605D+00 E-N=-9.705768201817D+01  KE= 3.835336138106D+01
 Symmetry A1   KE= 3.668679404307D+01
 Symmetry A2   KE= 9.333097597280D-36
 Symmetry B1   KE= 1.250758171292D-32
 Symmetry B2   KE= 1.666567337990D+00
 No NMR shielding tensors so no spin-rotation constants.
 Leave Link  601 at Wed Jan 23 21:58:52 2019, MaxMem=   412876800 cpu:         0.4
 (Enter /usr/local/gaussian/gaussian09/g09/l9999.exe)
 1\1\GINC-PANORAMIX\FOpt\RB3LYP\6-311++G(3df,2p)\C1H1(1-)\SERGIO\23-Jan
 -2019\0\\#p b3lyp/6-311++G(3df,2p) opt freq symmetry=Loose\\b3lyp opt\
 \-1,1\C,0.1651775604,0.,0.\H,-0.9654675604,0.,0.\\Version=EM64L-G09Rev
 E.01\HF=-38.5004365\RMSD=5.362e-09\RMSF=3.603e-08\Dipole=-0.678702,0.,
 0.\Quadrupole=0.6417637,-3.8730254,3.2312617,0.,0.,0.\PG=C*V [C*(H1C1)
 ]\\@


 EDUCATION DOESN'T COST 
           ... IT PAYS!

 -- POSTMARK, UNIV. OF MISSISSIPPI, DEC 78
 Leave Link 9999 at Wed Jan 23 21:58:52 2019, MaxMem=   412876800 cpu:         0.1
 Job cpu time:       0 days  0 hours  0 minutes 17.2 seconds.
 File lengths (MBytes):  RWF=      5 Int=      0 D2E=      0 Chk=      1 Scr=      1
 Normal termination of Gaussian 09 at Wed Jan 23 21:58:52 2019.
 (Enter /usr/local/gaussian/gaussian09/g09/l1.exe)
 Link1:  Proceeding to internal job step number  2.
 ----------------------------------------------------------------------
 #P Geom=AllCheck Guess=TCheck SCRF=Check GenChk RB3LYP/6-311++G(3df,2p
 ) Freq
 ----------------------------------------------------------------------
 1/10=4,29=7,30=1,38=1,40=1/1,3;
 2/12=2,17=4,18=3,40=1/2;
 3/5=4,6=6,7=1216,11=2,14=-4,16=1,25=1,30=1,70=2,71=2,74=-5,116=1,140=1/1,2,3;
 4/5=101/1;
 5/5=2,38=6,98=1/2;
 8/6=4,10=90,11=11/1;
 11/6=1,8=1,9=11,15=111,16=1/1,2,10;
 10/6=1/2;
 6/7=2,8=2,9=2,10=2,18=1,28=1/1;
 7/8=1,10=1,25=1/1,2,3,16;
 1/10=4,30=1/3;
 99//99;
 Leave Link    1 at Wed Jan 23 21:58:52 2019, MaxMem=   412876800 cpu:         0.1
 (Enter /usr/local/gaussian/gaussian09/g09/l101.exe)
 Structure from the checkpoint file:  "/scratch/sergio/HC.q-1.m1-1.com-4919746/Gau-7228.chk"
 ---------
 b3lyp opt
 ---------
 Charge = -1 Multiplicity = 1
 Redundant internal coordinates found in file.
 C,0,0.1651775604,0.,0.
 H,0,-0.9654675604,0.,0.
 Recover connectivity data from disk.
 NAtoms=      2 NQM=        2 NQMF=       0 NMMI=      0 NMMIF=      0
                NMic=       0 NMicF=      0.
                    Isotopes and Nuclear Properties:
 (Nuclear quadrupole moments (NQMom) in fm**2, nuclear magnetic moments (NMagM)
  in nuclear magnetons)

  Atom         1           2
 IAtWgt=          12           1
 AtmWgt=  12.0000000   1.0078250
 NucSpn=           0           1
 AtZEff=  -3.6000000  -1.0000000
 NQMom=    0.0000000   0.0000000
 NMagM=    0.0000000   2.7928460
 AtZNuc=   6.0000000   1.0000000
 Leave Link  101 at Wed Jan 23 21:58:52 2019, MaxMem=   412876800 cpu:         0.3
 (Enter /usr/local/gaussian/gaussian09/g09/l103.exe)

 GradGradGradGradGradGradGradGradGradGradGradGradGradGradGradGradGradGrad
 Berny optimization.
 Initialization pass.
                           ----------------------------
                           !    Initial Parameters    !
                           ! (Angstroms and Degrees)  !
 --------------------------                            --------------------------
 ! Name  Definition              Value          Derivative Info.                !
 --------------------------------------------------------------------------------
 ! R1    R(1,2)                  1.1306         calculate D2E/DX2 analytically  !
 --------------------------------------------------------------------------------
 Trust Radius=3.00D-01 FncErr=1.00D-07 GrdErr=1.00D-07
 Number of steps in this run=      2 maximum allowed number of steps=      2.
 GradGradGradGradGradGradGradGradGradGradGradGradGradGradGradGradGradGrad

 Leave Link  103 at Wed Jan 23 21:58:52 2019, MaxMem=   412876800 cpu:         0.0
 (Enter /usr/local/gaussian/gaussian09/g09/l202.exe)
                          Input orientation:                          
 ---------------------------------------------------------------------
 Center     Atomic      Atomic             Coordinates (Angstroms)
 Number     Number       Type             X           Y           Z
 ---------------------------------------------------------------------
      1          6           0        0.165178    0.000000    0.000000
      2          1           0       -0.965468    0.000000    0.000000
 ---------------------------------------------------------------------
 Stoichiometry    CH(1-)
 Framework group  C*V[C*(HC)]
 Deg. of freedom     1
 Full point group                 C*V     NOp   4
 RotChk:  IX=0 Diff= 0.00D+00
 Largest Abelian subgroup         C2V     NOp   4
 Largest concise Abelian subgroup C1      NOp   1
                         Standard orientation:                         
 ---------------------------------------------------------------------
 Center     Atomic      Atomic             Coordinates (Angstroms)
 Number     Number       Type             X           Y           Z
 ---------------------------------------------------------------------
      1          6           0        0.000000    0.000000    0.161521
      2          1           0        0.000000    0.000000   -0.969124
 ---------------------------------------------------------------------
 Rotational constants (GHZ):      0.0000000    425.2094108    425.2094108
 Leave Link  202 at Wed Jan 23 21:58:52 2019, MaxMem=   412876800 cpu:         0.0
 (Enter /usr/local/gaussian/gaussian09/g09/l301.exe)
 Standard basis: 6-311++G(3df,2p) (5D, 7F)
 Ernie: Thresh=  0.10000D-02 Tol=  0.10000D-05 Strict=F.
 There are    27 symmetry adapted cartesian basis functions of A1  symmetry.
 There are     4 symmetry adapted cartesian basis functions of A2  symmetry.
 There are    12 symmetry adapted cartesian basis functions of B1  symmetry.
 There are    12 symmetry adapted cartesian basis functions of B2  symmetry.
 There are    23 symmetry adapted basis functions of A1  symmetry.
 There are     4 symmetry adapted basis functions of A2  symmetry.
 There are    11 symmetry adapted basis functions of B1  symmetry.
 There are    11 symmetry adapted basis functions of B2  symmetry.
    49 basis functions,    70 primitive gaussians,    55 cartesian basis functions
     4 alpha electrons        4 beta electrons
       nuclear repulsion energy         2.8081872846 Hartrees.
 IExCor=  402 DFT=T Ex+Corr=B3LYP ExCW=0 ScaHFX=  0.200000
 ScaDFX=  0.800000  0.720000  1.000000  0.810000 ScalE2=  1.000000  1.000000
 IRadAn=      0 IRanWt=     -1 IRanGd=            0 ICorTp=0 IEmpDi=  4
 NAtoms=    2 NActive=    2 NUniq=    2 SFac= 1.00D+00 NAtFMM=   60 NAOKFM=F Big=F
 Integral buffers will be    131072 words long.
 Raffenetti 2 integral format.
 Two-electron integral symmetry is turned on.
 Leave Link  301 at Wed Jan 23 21:58:53 2019, MaxMem=   412876800 cpu:         0.2
 (Enter /usr/local/gaussian/gaussian09/g09/l302.exe)
 NPDir=0 NMtPBC=     1 NCelOv=     1 NCel=       1 NClECP=     1 NCelD=      1
         NCelK=      1 NCelE2=     1 NClLst=     1 CellRange=     0.0.
 One-electron integrals computed using PRISM.
 NBasis=    49 RedAO= T EigKep=  9.13D-03  NBF=    23     4    11    11
 NBsUse=    49 1.00D-06 EigRej= -1.00D+00 NBFU=    23     4    11    11
 Precomputing XC quadrature grid using
 IXCGrd= 4 IRadAn=           0 IRanWt=          -1 IRanGd=           0 AccXCQ= 0.00D+00.
 Generated NRdTot=       0 NPtTot=           0 NUsed=           0 NTot=          32
 NSgBfM=    55    55    55    55    55 MxSgAt=     2 MxSgA2=     2.
 Leave Link  302 at Wed Jan 23 21:58:53 2019, MaxMem=   412876800 cpu:         0.4
 (Enter /usr/local/gaussian/gaussian09/g09/l303.exe)
 DipDrv:  MaxL=1.
 Leave Link  303 at Wed Jan 23 21:58:53 2019, MaxMem=   412876800 cpu:         0.0
 (Enter /usr/local/gaussian/gaussian09/g09/l401.exe)
 Initial guess from the checkpoint file:  "/scratch/sergio/HC.q-1.m1-1.com-4919746/Gau-7228.chk"
 B after Tr=     0.000000    0.000000    0.000000
         Rot=    1.000000    0.000000    0.000000    0.000000 Ang=   0.00 deg.
 Guess basis will be translated and rotated to current coordinates.
 JPrj=2 DoOrth=T DoCkMO=T.
 Initial guess orbital symmetries:
       Occupied  (SG) (SG) (SG) (?A)
       Virtual   (?A) (SG) (SG) (?A) (?A) (SG) (SG) (PI) (PI) (?B)
                 (?B) (?B) (PI) (SG) (PI) (SG) (SG) (PI) (PI) (SG)
                 (DLTA) (DLTA) (PI) (PI) (SG) (?C) (?D) (?D) (?C)
                 (?C) (?D) (?D) (?D) (?D) (?C) (SG) (PI) (PI) (SG)
                 (DLTA) (DLTA) (PI) (PI) (SG) (SG)
 Leave Link  401 at Wed Jan 23 21:58:53 2019, MaxMem=   412876800 cpu:         0.2
 (Enter /usr/local/gaussian/gaussian09/g09/l502.exe)
 Closed shell SCF:
 Using DIIS extrapolation, IDIIS=  1040.
 Integral symmetry usage will be decided dynamically.
 Keep R1 ints in memory in symmetry-blocked form, NReq=2735961.
 IVT=       28410 IEndB=       28410 NGot=   412876800 MDV=   412645358
 LenX=   412645358 LenY=   412641892
 Requested convergence on RMS density matrix=1.00D-08 within 128 cycles.
 Requested convergence on MAX density matrix=1.00D-06.
 Requested convergence on             energy=1.00D-06.
 No special actions if energy rises.
 FoFCou: FMM=F IPFlag=           0 FMFlag=           0 FMFlg1=           0
         NFxFlg=           0 DoJE=F BraDBF=F KetDBF=F FulRan=T
         wScrn=  0.000000 ICntrl=     600 IOpCl=  0 I1Cent=           0 NGrid=           0
         NMat0=    1 NMatS0=   1225 NMatT0=    0 NMatD0=    1 NMtDS0=    0 NMtDT0=    0
 Petite list used in FoFCou.

 Cycle   1  Pass 1  IDiag  1:
 E= -38.5004365410984    
 DIIS: error= 1.40D-09 at cycle   1 NSaved=   1.
 NSaved= 1 IEnMin= 1 EnMin= -38.5004365410984     IErMin= 1 ErrMin= 1.40D-09
 ErrMax= 1.40D-09  0.00D+00 EMaxC= 1.00D-01 BMatC= 5.53D-17 BMatP= 5.53D-17
 IDIUse=1 WtCom= 1.00D+00 WtEn= 0.00D+00
 Coeff-Com:  0.100D+01
 Coeff:      0.100D+01
 Gap=     0.050 Goal=   None    Shift=    0.000
 RMSDP=1.02D-09 MaxDP=1.74D-08              OVMax= 1.35D-08

 SCF Done:  E(RB3LYP) =  -38.5004365411     A.U. after    1 cycles
            NFock=  1  Conv=0.10D-08     -V/T= 2.0038
 KE= 3.835336127828D+01 PE=-9.705768191540D+01 EE= 1.739569681141D+01
 Leave Link  502 at Wed Jan 23 21:58:53 2019, MaxMem=   412876800 cpu:         0.9
 (Enter /usr/local/gaussian/gaussian09/g09/l801.exe)
 DoSCS=F DFT=T ScalE2(SS,OS)=  1.000000  1.000000
 Range of M.O.s used for correlation:     1    49
 NBasis=    49 NAE=     4 NBE=     4 NFC=     0 NFV=     0
 NROrb=     49 NOA=     4 NOB=     4 NVA=    45 NVB=    45

 **** Warning!!: The smallest alpha delta epsilon is  0.50152779D-01

 Leave Link  801 at Wed Jan 23 21:58:53 2019, MaxMem=   412876800 cpu:         0.0
 (Enter /usr/local/gaussian/gaussian09/g09/l1101.exe)
 Using compressed storage, NAtomX=     2.
 Will process      3 centers per pass.
 Leave Link 1101 at Wed Jan 23 21:58:54 2019, MaxMem=   412876800 cpu:         0.5
 (Enter /usr/local/gaussian/gaussian09/g09/l1102.exe)
 Symmetrizing basis deriv contribution to polar:
 IMax=3 JMax=2 DiffMx= 0.00D+00
 Leave Link 1102 at Wed Jan 23 21:58:54 2019, MaxMem=   412876800 cpu:         0.0
 (Enter /usr/local/gaussian/gaussian09/g09/l1110.exe)
 Forming Gx(P) for the SCF density, NAtomX=     2.
 Integral derivatives from FoFJK, PRISM(SPDF).
 Do as many integral derivatives as possible in FoFJK.
 G2DrvN: MDV=     412876680.
 G2DrvN: will do     3 centers at a time, making    1 passes.
 Calling FoFCou, ICntrl=  3107 FMM=F I1Cent=   0 AccDes= 0.00D+00.
 FoFJK:  IHMeth= 1 ICntrl=    3107 DoSepK=F KAlg= 0 I1Cent=   0 FoldK=F
 IRaf=         0 NMat=   1 IRICut=       1 DoRegI=T DoRafI=F ISym2E= 1.
 FoFCou: FMM=F IPFlag=           0 FMFlag=      100000 FMFlg1=           0
         NFxFlg=           0 DoJE=F BraDBF=F KetDBF=F FulRan=T
         wScrn=  0.000000 ICntrl=    3107 IOpCl=  0 I1Cent=           0 NGrid=           0
         NMat0=    1 NMatS0=      1 NMatT0=    0 NMatD0=    1 NMtDS0=    0 NMtDT0=    0
 Petite list used in FoFCou.
 End of G2Drv F.D. properties file   721 does not exist.
 End of G2Drv F.D. properties file   722 does not exist.
 End of G2Drv F.D. properties file   788 does not exist.
 Leave Link 1110 at Wed Jan 23 21:58:55 2019, MaxMem=   412876800 cpu:         2.5
 (Enter /usr/local/gaussian/gaussian09/g09/l1002.exe)
 Minotr:  Closed shell wavefunction.
          IDoAtm=11
          Direct CPHF calculation.
          Differentiating once with respect to electric field.
                with respect to dipole field.
          Differentiating once with respect to nuclear coordinates.
          Using symmetry in CPHF.
          Requested convergence is 1.0D-08 RMS, and 1.0D-07 maximum.
          Secondary convergence is 1.0D-12 RMS, and 1.0D-12 maximum.
          NewPWx=T KeepS1=F KeepF1=F KeepIn=T MapXYZ=F SortEE=F KeepMc=T.
          MDV=     412876727 using IRadAn=       2.
 Generate precomputed XC quadrature information.
 Keep R1 ints in memory in symmetry-blocked form, NReq=2716204.
 FoFCou: FMM=F IPFlag=           0 FMFlag=           0 FMFlg1=           0
         NFxFlg=           0 DoJE=F BraDBF=F KetDBF=F FulRan=T
         wScrn=  0.000000 ICntrl=     600 IOpCl=  0 I1Cent=           0 NGrid=           0
         NMat0=    1 NMatS0=   1225 NMatT0=    0 NMatD0=    1 NMtDS0=    0 NMtDT0=    0
 Petite list used in FoFCou.
          Solving linear equations simultaneously, MaxMat=       0.
          There are     9 degrees of freedom in the 1st order CPHF.  IDoFFX=6 NUNeed=     3.
      6 vectors produced by pass  0 Test12= 2.00D-15 1.11D-08 XBig12= 2.19D+02 1.33D+01.
 AX will form     6 AO Fock derivatives at one time.
      6 vectors produced by pass  1 Test12= 2.00D-15 1.11D-08 XBig12= 8.87D+00 1.58D+00.
      6 vectors produced by pass  2 Test12= 2.00D-15 1.11D-08 XBig12= 4.44D-01 3.63D-01.
      6 vectors produced by pass  3 Test12= 2.00D-15 1.11D-08 XBig12= 3.58D-03 3.12D-02.
      6 vectors produced by pass  4 Test12= 2.00D-15 1.11D-08 XBig12= 1.77D-05 1.41D-03.
      6 vectors produced by pass  5 Test12= 2.00D-15 1.11D-08 XBig12= 2.78D-08 5.17D-05.
      4 vectors produced by pass  6 Test12= 2.00D-15 1.11D-08 XBig12= 4.30D-11 2.43D-06.
      2 vectors produced by pass  7 Test12= 2.00D-15 1.11D-08 XBig12= 5.60D-14 8.91D-08.
 InvSVY:  IOpt=1 It=  1 EMax= 2.22D-16
 Solved reduced A of dimension    42 with     6 vectors.
 FullF1:  Do perturbations    1 to     3.
 Isotropic polarizability for W=    0.000000       56.49 Bohr**3.
 End of Minotr F.D. properties file   721 does not exist.
 End of Minotr F.D. properties file   722 does not exist.
 End of Minotr F.D. properties file   788 does not exist.
 Leave Link 1002 at Wed Jan 23 21:58:56 2019, MaxMem=   412876800 cpu:         2.6
 (Enter /usr/local/gaussian/gaussian09/g09/l601.exe)
 Copying SCF densities to generalized density rwf, IOpCl= 0 IROHF=0.

 **********************************************************************

            Population analysis using the SCF density.

 **********************************************************************

 Orbital symmetries:
       Occupied  (SG) (SG) (SG) (?A)
       Virtual   (?A) (SG) (SG) (?A) (?A) (SG) (SG) (PI) (PI) (?B)
                 (?B) (?B) (PI) (SG) (PI) (SG) (SG) (PI) (PI) (SG)
                 (DLTA) (DLTA) (PI) (PI) (SG) (?C) (?D) (?D) (?C)
                 (?C) (?D) (?D) (?D) (?D) (?C) (SG) (PI) (PI) (SG)
                 (DLTA) (DLTA) (PI) (PI) (SG) (SG)
 Unable to determine electronic state:  an orbital has unidentified symmetry.
 Alpha  occ. eigenvalues --   -9.96068  -0.33666  -0.03720   0.07295
 Alpha virt. eigenvalues --    0.12310   0.14512   0.23231   0.24434   0.25065
 Alpha virt. eigenvalues --    0.27786   0.35187   0.54847   0.55965   0.57271
 Alpha virt. eigenvalues --    0.57640   0.59819   0.78688   0.79015   0.79516
 Alpha virt. eigenvalues --    0.84575   1.01347   1.14367   1.15577   1.48863
 Alpha virt. eigenvalues --    1.86312   1.87049   1.88379   1.90653   2.18567
 Alpha virt. eigenvalues --    2.77749   2.94214   2.95912   3.08994   3.09302
 Alpha virt. eigenvalues --    3.10379   3.10518   3.24546   3.26942   3.27381
 Alpha virt. eigenvalues --    3.73543   4.35848   4.37113   5.38102   7.21306
 Alpha virt. eigenvalues --    7.22063   7.25438   7.26435   7.62199  23.80221
          Condensed to atoms (all electrons):
               1          2
     1  C    7.102709  -0.040354
     2  H   -0.040354   0.978000
 Mulliken charges:
               1
     1  C   -1.062354
     2  H    0.062354
 Sum of Mulliken charges =  -1.00000
 Mulliken charges with hydrogens summed into heavy atoms:
               1
     1  C   -1.000000
 APT charges:
               1
     1  C   -0.862863
     2  H   -0.137137
 Sum of APT charges =  -1.00000
 APT charges with hydrogens summed into heavy atoms:
               1
     1  C   -1.000000
 Electronic spatial extent (au):  <R**2>=             36.7422
 Charge=             -1.0000 electrons
 Dipole moment (field-independent basis, Debye):
    X=              0.0000    Y=              0.0000    Z=             -1.7251  Tot=              1.7251
 Quadrupole moment (field-independent basis, Debye-Ang):
   XX=            -10.3727   YY=            -19.9282   ZZ=            -13.8556
   XY=              0.0000   XZ=              0.0000   YZ=              0.0000
 Traceless Quadrupole moment (field-independent basis, Debye-Ang):
   XX=              4.3462   YY=             -5.2094   ZZ=              0.8632
   XY=              0.0000   XZ=              0.0000   YZ=              0.0000
 Octapole moment (field-independent basis, Debye-Ang**2):
  XXX=              0.0000  YYY=              0.0000  ZZZ=             -3.8689  XYY=              0.0000
  XXY=              0.0000  XXZ=             -1.3188  XZZ=              0.0000  YZZ=              0.0000
  YYZ=             -2.3984  XYZ=              0.0000
 Hexadecapole moment (field-independent basis, Debye-Ang**3):
 XXXX=            -22.5739 YYYY=            -81.7880 ZZZZ=            -43.0862 XXXY=              0.0000
 XXXZ=              0.0000 YYYX=              0.0000 YYYZ=              0.0000 ZZZX=              0.0000
 ZZZY=              0.0000 XXYY=            -17.3976 XXZZ=            -10.8712 YYZZ=            -20.9368
 XXYZ=              0.0000 YYXZ=              0.0000 ZZXY=              0.0000
 N-N= 2.808187284605D+00 E-N=-9.705768177739D+01  KE= 3.835336127828D+01
 Symmetry A1   KE= 3.668679398033D+01
 Symmetry A2   KE= 9.333098015115D-36
 Symmetry B1   KE= 1.250758141317D-32
 Symmetry B2   KE= 1.666567297951D+00
  Exact polarizability:  18.797   0.000 115.400  -0.000  -0.000  35.264
 Approx polarizability:  27.715  -0.000  94.819  -0.000  -0.000  40.526
 No NMR shielding tensors so no spin-rotation constants.
 Leave Link  601 at Wed Jan 23 21:58:57 2019, MaxMem=   412876800 cpu:         0.4
 (Enter /usr/local/gaussian/gaussian09/g09/l701.exe)
 Compute integral second derivatives.
 ... and contract with generalized density number  0.
 Leave Link  701 at Wed Jan 23 21:58:57 2019, MaxMem=   412876800 cpu:         0.7
 (Enter /usr/local/gaussian/gaussian09/g09/l702.exe)
 L702 exits ... SP integral derivatives will be done elsewhere.
 Leave Link  702 at Wed Jan 23 21:58:57 2019, MaxMem=   412876800 cpu:         0.1
 (Enter /usr/local/gaussian/gaussian09/g09/l703.exe)
 Compute integral second derivatives, UseDBF=F ICtDFT=           0.
 Integral derivatives from FoFJK, PRISM(SPDF).
 Calling FoFJK, ICntrl=    100127 FMM=F ISym2X=1 I1Cent= 0 IOpClX= 0 NMat=1 NMatS=1 NMatT=0.
 FoFJK:  IHMeth= 1 ICntrl=  100127 DoSepK=F KAlg= 0 I1Cent=   0 FoldK=F
 IRaf=         0 NMat=   1 IRICut=       1 DoRegI=T DoRafI=F ISym2E= 1.
 FoFCou: FMM=F IPFlag=           0 FMFlag=      100000 FMFlg1=         800
         NFxFlg=           0 DoJE=F BraDBF=F KetDBF=F FulRan=T
         wScrn=  0.000000 ICntrl=  100127 IOpCl=  0 I1Cent=           0 NGrid=           0
         NMat0=    1 NMatS0=      1 NMatT0=    0 NMatD0=    1 NMtDS0=    0 NMtDT0=    0
 Petite list used in FoFCou.
 Leave Link  703 at Wed Jan 23 21:59:00 2019, MaxMem=   412876800 cpu:         6.0
 (Enter /usr/local/gaussian/gaussian09/g09/l716.exe)
 Dipole        = 0.00000000D+00 0.00000000D+00-6.78701985D-01
 Polarizability= 1.87969905D+01 1.25601202D-10 1.15399546D+02
                -4.89802912D-09-7.43922407D-08 3.52638411D+01
 Full mass-weighted force constant matrix:
 Low frequencies ---  -37.9721  -30.2349   -0.0003    0.0004    0.0008 2690.9228
 Diagonal vibrational polarizability:
        0.0000000       0.0000000       1.8796305
 Harmonic frequencies (cm**-1), IR intensities (KM/Mole), Raman scattering
 activities (A**4/AMU), depolarization ratios for plane and unpolarized
 incident light, reduced masses (AMU), force constants (mDyne/A),
 and normal coordinates:
                      1
                     SG
 Frequencies --   2690.9228
 Red. masses --      1.0848
 Frc consts  --      4.6282
 IR Inten    --    505.7570
  Atom  AN      X      Y      Z
     1   6    -0.00  -0.00  -0.08
     2   1    -0.00  -0.00   1.00

 -------------------
 - Thermochemistry -
 -------------------
 Temperature   298.150 Kelvin.  Pressure   1.00000 Atm.
 Atom     1 has atomic number  6 and mass  12.00000
 Atom     2 has atomic number  1 and mass   1.00783
 Molecular mass:    13.00783 amu.
 Principal axes and moments of inertia in atomic units:
                           1         2         3
     Eigenvalues --     0.00000   4.24436   4.24436
           X            0.00000  -0.00000   1.00000
           Y            0.00000   1.00000   0.00000
           Z            1.00000   0.00000   0.00000
 This molecule is a prolate symmetric top.
 Rotational symmetry number  1.
 Rotational temperature (Kelvin)     20.40681
 Rotational constant (GHZ):         425.209411
 Zero-point vibrational energy      16095.3 (Joules/Mol)
                                    3.84687 (Kcal/Mol)
 Vibrational temperatures:   3871.63
          (Kelvin)
 
 Zero-point correction=                           0.006130 (Hartree/Particle)
 Thermal correction to Energy=                    0.008491
 Thermal correction to Enthalpy=                  0.009435
 Thermal correction to Gibbs Free Energy=        -0.010024
 Sum of electronic and zero-point Energies=            -38.494306
 Sum of electronic and thermal Energies=               -38.491946
 Sum of electronic and thermal Enthalpies=             -38.491001
 Sum of electronic and thermal Free Energies=          -38.510460
 
                     E (Thermal)             CV                S
                      KCal/Mol        Cal/Mol-Kelvin    Cal/Mol-Kelvin
 Total                    5.328              4.969             40.955
 Electronic               0.000              0.000              0.000
 Translational            0.889              2.981             33.638
 Rotational               0.592              1.987              7.316
 Vibrational              3.847              0.001              0.000
                       Q            Log10(Q)             Ln(Q)
 Total Bot       0.407993D+05          4.610653         10.616421
 Total V=0       0.269416D+08          7.430423         17.109181
 Vib (Bot)       0.151437D-02         -2.819769         -6.492758
 Vib (V=0)       0.100000D+01          0.000001          0.000002
 Electronic      0.100000D+01          0.000000          0.000000
 Translational   0.184401D+07          6.265762         14.427451
 Rotational      0.146103D+02          1.164660          2.681728
 ***** Axes restored to original set *****
 -------------------------------------------------------------------
 Center     Atomic                   Forces (Hartrees/Bohr)
 Number     Number              X              Y              Z
 -------------------------------------------------------------------
      1        6          -0.000000061   -0.000000000   -0.000000000
      2        1           0.000000061   -0.000000000   -0.000000000
 -------------------------------------------------------------------
 Cartesian Forces:  Max     0.000000061 RMS     0.000000035
 Force constants in Cartesian coordinates: 
                1             2             3             4             5 
      1  0.254774D+00
      2  0.000000D+00 -0.507320D-04
      3  0.000000D+00  0.000000D+00 -0.321639D-04
      4 -0.254774D+00  0.000000D+00  0.000000D+00  0.254774D+00
      5  0.000000D+00  0.507320D-04  0.000000D+00  0.000000D+00 -0.507320D-04
      6  0.000000D+00  0.000000D+00  0.321639D-04  0.000000D+00  0.000000D+00
                6 
      6 -0.321639D-04
 FormGI is forming the generalized inverse of G from B-inverse, IUseBI=4.
 Force constants in internal coordinates: 
                1 
      1  0.254774D+00
 Leave Link  716 at Wed Jan 23 21:59:00 2019, MaxMem=   412876800 cpu:         0.1
 (Enter /usr/local/gaussian/gaussian09/g09/l103.exe)

 GradGradGradGradGradGradGradGradGradGradGradGradGradGradGradGradGradGrad
 Berny optimization.
 Red2BG is reusing G-inverse.
 Internal  Forces:  Max     0.000000061 RMS     0.000000061
 Search for a local minimum.
 Step number   1 out of a maximum of    2
 All quantities printed in internal units (Hartrees-Bohrs-Radians)
 Second derivative matrix not updated -- analytic derivatives used.
 The second derivative matrix:
                          R1
           R1           0.25477
 ITU=  0
     Eigenvalues ---    0.25477
 Angle between quadratic step and forces=  90.00 degrees.
 Linear search not attempted -- first point.
 Iteration  1 RMS(Cart)=  0.00000017 RMS(Int)=  0.00000000
 ITry= 1 IFail=0 DXMaxC= 1.20D-07 DCOld= 1.00D+10 DXMaxT= 3.00D-01 DXLimC= 3.00D+00 Rises=F
 ClnCor:  largest displacement from symmetrization is 0.00D+00 for atom     0.
 Variable       Old X    -DE/DX   Delta X   Delta X   Delta X     New X
                                 (Linear)    (Quad)   (Total)
    R1        2.13661  -0.00000   0.00000  -0.00000  -0.00000   2.13661
         Item               Value     Threshold  Converged?
 Maximum Force            0.000000     0.000450     YES
 RMS     Force            0.000000     0.000300     YES
 Maximum Displacement     0.000000     0.001800     YES
 RMS     Displacement     0.000000     0.001200     YES
 Predicted change in Energy=-7.355582D-15
 Optimization completed.
    -- Stationary point found.
                           ----------------------------
                           !   Optimized Parameters   !
                           ! (Angstroms and Degrees)  !
 --------------------------                            --------------------------
 ! Name  Definition              Value          Derivative Info.                !
 --------------------------------------------------------------------------------
 ! R1    R(1,2)                  1.1306         -DE/DX =    0.0                 !
 --------------------------------------------------------------------------------
 GradGradGradGradGradGradGradGradGradGradGradGradGradGradGradGradGradGrad

 Leave Link  103 at Wed Jan 23 21:59:00 2019, MaxMem=   412876800 cpu:         0.0
 (Enter /usr/local/gaussian/gaussian09/g09/l9999.exe)
 1\1\GINC-PANORAMIX\Freq\RB3LYP\6-311++G(3df,2p)\C1H1(1-)\SERGIO\23-Jan
 -2019\0\\#P Geom=AllCheck Guess=TCheck SCRF=Check GenChk RB3LYP/6-311+
 +G(3df,2p) Freq\\b3lyp opt\\-1,1\C,0.1651775604,0.,0.\H,-0.9654675604,
 0.,0.\\Version=EM64L-G09RevE.01\HF=-38.5004365\RMSD=1.016e-09\RMSF=3.5
 35e-08\ZeroPoint=0.0061304\Thermal=0.0084909\Dipole=-0.678702,0.,0.\Di
 poleDeriv=-0.2280154,0.,0.,0.,-1.1857578,0.,0.,0.,-1.1748164,-0.771984
 6,0.,0.,0.,0.1857578,0.,0.,0.,0.1748164\Polar=35.2638411,0.,115.399545
 7,0.,0.,18.7969905\PG=C*V [C*(H1C1)]\NImag=0\\0.25477431,0.,-0.0000507
 3,0.,0.,-0.00003216,-0.25477431,0.,0.,0.25477431,0.,0.00005073,0.,0.,-
 0.00005073,0.,0.,0.00003216,0.,0.,-0.00003216\\0.00000006,0.,0.,-0.000
 00006,0.,0.\\\@


 "WOULD YOU TELL ME PLEASE, WHICH WAY I OUGHT TO WALK FROM HERE?"
 "THAT DEPENDS A GREAT DEAL ON WHERE YOU WANT TO GO," SAID THE CAT.
 "I DON'T MUCH CARE WHERE -- ", SAID ALICE.
 "THEN IT DOESN'T MATTER WHICH WAY YOU WALK," SAID THE CAT.

                                      -- LEWIS CARROLL
 Job cpu time:       0 days  0 hours  0 minutes 15.7 seconds.
 File lengths (MBytes):  RWF=      5 Int=      0 D2E=      0 Chk=      1 Scr=      1
 Normal termination of Gaussian 09 at Wed Jan 23 21:59:00 2019.
