 Entering Gaussian System, Link 0=/home/proyectos/fulerenos/M3C-v2.0/M3C-deps_CCC/g09-AM64L-G09RevC.01/g09
 Initial command:
 /home/proyectos/fulerenos/M3C-v2.0/M3C-deps_CCC/g09-AM64L-G09RevC.01/l1.exe "/scratch/naguirre/gaussian/Gau-13044.inp" -scrdir="/scratch/naguirre/gaussian/"
 Entering Link 1 = /home/proyectos/fulerenos/M3C-v2.0/M3C-deps_CCC/g09-AM64L-G09RevC.01/l1.exe PID=     13051.
  
 Copyright (c) 1988,1990,1992,1993,1995,1998,2003,2009,2015,
            Gaussian, Inc.  All Rights Reserved.
  
 This is part of the Gaussian(R) 09 program.  It is based on
 the Gaussian(R) 03 system (copyright 2003, Gaussian, Inc.),
 the Gaussian(R) 98 system (copyright 1998, Gaussian, Inc.),
 the Gaussian(R) 94 system (copyright 1995, Gaussian, Inc.),
 the Gaussian 92(TM) system (copyright 1992, Gaussian, Inc.),
 the Gaussian 90(TM) system (copyright 1990, Gaussian, Inc.),
 the Gaussian 88(TM) system (copyright 1988, Gaussian, Inc.),
 the Gaussian 86(TM) system (copyright 1986, Carnegie Mellon
 University), and the Gaussian 82(TM) system (copyright 1983,
 Carnegie Mellon University). Gaussian is a federally registered
 trademark of Gaussian, Inc.
  
 This software contains proprietary and confidential information,
 including trade secrets, belonging to Gaussian, Inc.
  
 This software is provided under written license and may be
 used, copied, transmitted, or stored only in accord with that
 written license.
  
 The following legend is applicable only to US Government
 contracts under FAR:
  
                    RESTRICTED RIGHTS LEGEND
  
 Use, reproduction and disclosure by the US Government is
 subject to restrictions as set forth in subparagraphs (a)
 and (c) of the Commercial Computer Software - Restricted
 Rights clause in FAR 52.227-19.
  
 Gaussian, Inc.
 340 Quinnipiac St., Bldg. 40, Wallingford CT 06492
  
  
 ---------------------------------------------------------------
 Warning -- This program may not be used in any manner that
 competes with the business of Gaussian, Inc. or will provide
 assistance to any competitor of Gaussian, Inc.  The licensee
 of this program is prohibited from giving any competitor of
 Gaussian, Inc. access to this program.  By using this program,
 the user acknowledges that Gaussian, Inc. is engaged in the
 business of creating and licensing software in the field of
 computational chemistry and represents and warrants to the
 licensee that it is not a competitor of Gaussian, Inc. and that
 it will not use this program in any manner prohibited above.
 ---------------------------------------------------------------
  

 Cite this work as:
 Gaussian 09, Revision E.01,
 M. J. Frisch, G. W. Trucks, H. B. Schlegel, G. E. Scuseria, 
 M. A. Robb, J. R. Cheeseman, G. Scalmani, V. Barone, B. Mennucci, 
 G. A. Petersson, H. Nakatsuji, M. Caricato, X. Li, H. P. Hratchian, 
 A. F. Izmaylov, J. Bloino, G. Zheng, J. L. Sonnenberg, M. Hada, 
 M. Ehara, K. Toyota, R. Fukuda, J. Hasegawa, M. Ishida, T. Nakajima, 
 Y. Honda, O. Kitao, H. Nakai, T. Vreven, J. A. Montgomery, Jr., 
 J. E. Peralta, F. Ogliaro, M. Bearpark, J. J. Heyd, E. Brothers, 
 K. N. Kudin, V. N. Staroverov, T. Keith, R. Kobayashi, J. Normand, 
 K. Raghavachari, A. Rendell, J. C. Burant, S. S. Iyengar, J. Tomasi, 
 M. Cossi, N. Rega, J. M. Millam, M. Klene, J. E. Knox, J. B. Cross, 
 V. Bakken, C. Adamo, J. Jaramillo, R. Gomperts, R. E. Stratmann, 
 O. Yazyev, A. J. Austin, R. Cammi, C. Pomelli, J. W. Ochterski, 
 R. L. Martin, K. Morokuma, V. G. Zakrzewski, G. A. Voth, 
 P. Salvador, J. J. Dannenberg, S. Dapprich, A. D. Daniels, 
 O. Farkas, J. B. Foresman, J. V. Ortiz, J. Cioslowski, 
 and D. J. Fox, Gaussian, Inc., Wallingford CT, 2013.
 
 ******************************************
 Gaussian 09:  EM64L-G09RevE.01 30-Nov-2015
                 8-Mar-2019 
 ******************************************
 %NProcShared=2
 Will use up to    2 processors via shared memory.
 ------------------------------------------------------
 #p b3lyp/6-311++G(3df,2p) freq IOp(2/17=3) IOp(2/18=3)
 ------------------------------------------------------
 1/10=4,30=1,38=1/1,3;
 2/12=2,17=3,18=3,40=1/2;
 3/5=4,6=6,7=1216,11=2,16=1,25=1,30=1,71=2,74=-5,140=1/1,2,3;
 4//1;
 5/5=2,38=5,98=1/2;
 8/6=4,10=90,11=11/1;
 11/6=1,8=1,9=11,15=111,16=1/1,2,10;
 10/6=1/2;
 6/7=2,8=2,9=2,10=2,18=1,28=1/1;
 7/8=1,10=1,25=1/1,2,3,16;
 1/10=4,30=1/3;
 99//99;
 Leave Link    1 at Fri Mar  8 03:52:25 2019, MaxMem=           0 cpu:         0.1
 (Enter /home/proyectos/fulerenos/M3C-v2.0/M3C-deps_CCC/g09-AM64L-G09RevC.01/l101.exe)
 ---------
 b3lyp opt
 ---------
 Symbolic Z-matrix:
 Charge = -1 Multiplicity = 3
 C                    -0.12365   0.08231   0.30472 
 C                     0.22681   1.35129  -0.22082 
 H                    -0.72733   0.10749   1.25861 
 O                     0.14543  -1.06208  -0.14557 
 
 NAtoms=      4 NQM=        4 NQMF=       0 NMMI=      0 NMMIF=      0
                NMic=       0 NMicF=      0.
                    Isotopes and Nuclear Properties:
 (Nuclear quadrupole moments (NQMom) in fm**2, nuclear magnetic moments (NMagM)
  in nuclear magnetons)

  Atom         1           2           3           4
 IAtWgt=          12          12           1          16
 AtmWgt=  12.0000000  12.0000000   1.0078250  15.9949146
 NucSpn=           0           0           1           0
 AtZEff=   0.0000000   0.0000000   0.0000000   0.0000000
 NQMom=    0.0000000   0.0000000   0.0000000   0.0000000
 NMagM=    0.0000000   0.0000000   2.7928460   0.0000000
 AtZNuc=   6.0000000   6.0000000   1.0000000   8.0000000
 Leave Link  101 at Fri Mar  8 03:52:25 2019, MaxMem=    33554432 cpu:         0.9
 (Enter /home/proyectos/fulerenos/M3C-v2.0/M3C-deps_CCC/g09-AM64L-G09RevC.01/l103.exe)

 GradGradGradGradGradGradGradGradGradGradGradGradGradGradGradGradGradGrad
 Berny optimization.
 Initialization pass.
 Trust Radius=3.00D-01 FncErr=1.00D-07 GrdErr=1.00D-07
 Number of steps in this run=      2 maximum allowed number of steps=      2.
 GradGradGradGradGradGradGradGradGradGradGradGradGradGradGradGradGradGrad

 Leave Link  103 at Fri Mar  8 03:52:25 2019, MaxMem=    33554432 cpu:         0.1
 (Enter /home/proyectos/fulerenos/M3C-v2.0/M3C-deps_CCC/g09-AM64L-G09RevC.01/l202.exe)
                          Input orientation:                          
 ---------------------------------------------------------------------
 Center     Atomic      Atomic             Coordinates (Angstroms)
 Number     Number       Type             X           Y           Z
 ---------------------------------------------------------------------
      1          6           0       -0.123652    0.082308    0.304716
      2          6           0        0.226807    1.351286   -0.220819
      3          1           0       -0.727326    0.107486    1.258611
      4          8           0        0.145434   -1.062077   -0.145567
 ---------------------------------------------------------------------
                    Distance matrix (angstroms):
                    1          2          3          4
     1  C    0.000000
     2  C    1.417503   0.000000
     3  H    1.129147   2.155486   0.000000
     4  O    1.258880   2.415907   2.025168   0.000000
 Stoichiometry    C2HO(1-,3)
 Framework group  CS[SG(C2HO)]
 Deg. of freedom     5
 Full point group                 CS      NOp   2
 Largest Abelian subgroup         CS      NOp   2
 Largest concise Abelian subgroup C1      NOp   1
                         Standard orientation:                         
 ---------------------------------------------------------------------
 Center     Atomic      Atomic             Coordinates (Angstroms)
 Number     Number       Type             X           Y           Z
 ---------------------------------------------------------------------
      1          6           0        0.307906   -0.130259   -0.000000
      2          6           0       -0.543480   -1.263597    0.000000
      3          1           0        1.413443   -0.359953   -0.000000
      4          8           0        0.000000    1.090386   -0.000000
 ---------------------------------------------------------------------
 Rotational constants (GHZ):     99.6457185     12.6079466     11.1918653
 Leave Link  202 at Fri Mar  8 03:52:25 2019, MaxMem=    33554432 cpu:         0.0
 (Enter /home/proyectos/fulerenos/M3C-v2.0/M3C-deps_CCC/g09-AM64L-G09RevC.01/l301.exe)
 Standard basis: 6-311++G(3df,2p) (5D, 7F)
 Ernie: Thresh=  0.10000D-02 Tol=  0.10000D-05 Strict=F.
 There are   101 symmetry adapted cartesian basis functions of A'  symmetry.
 There are    44 symmetry adapted cartesian basis functions of A"  symmetry.
 There are    86 symmetry adapted basis functions of A'  symmetry.
 There are    41 symmetry adapted basis functions of A"  symmetry.
   127 basis functions,   186 primitive gaussians,   145 cartesian basis functions
    12 alpha electrons       10 beta electrons
       nuclear repulsion energy        50.5056547402 Hartrees.
 IExCor=  402 DFT=T Ex+Corr=B3LYP ExCW=0 ScaHFX=  0.200000
 ScaDFX=  0.800000  0.720000  1.000000  0.810000 ScalE2=  1.000000  1.000000
 IRadAn=      0 IRanWt=     -1 IRanGd=            0 ICorTp=0 IEmpDi=  4
 NAtoms=    4 NActive=    4 NUniq=    4 SFac= 1.00D+00 NAtFMM=   60 NAOKFM=F Big=F
 Integral buffers will be    131072 words long.
 Raffenetti 2 integral format.
 Two-electron integral symmetry is turned on.
 Leave Link  301 at Fri Mar  8 03:52:25 2019, MaxMem=    33554432 cpu:         0.2
 (Enter /home/proyectos/fulerenos/M3C-v2.0/M3C-deps_CCC/g09-AM64L-G09RevC.01/l302.exe)
 NPDir=0 NMtPBC=     1 NCelOv=     1 NCel=       1 NClECP=     1 NCelD=      1
         NCelK=      1 NCelE2=     1 NClLst=     1 CellRange=     0.0.
 One-electron integrals computed using PRISM.
 NBasis=   127 RedAO= T EigKep=  1.25D-04  NBF=    86    41
 NBsUse=   127 1.00D-06 EigRej= -1.00D+00 NBFU=    86    41
 Precomputing XC quadrature grid using
 IXCGrd= 4 IRadAn=           0 IRanWt=          -1 IRanGd=           0 AccXCQ= 0.00D+00.
 Generated NRdTot=       0 NPtTot=           0 NUsed=           0 NTot=          32
 NSgBfM=   145   145   145   145   145 MxSgAt=     4 MxSgA2=     4.
 Leave Link  302 at Fri Mar  8 03:52:26 2019, MaxMem=    33554432 cpu:         0.6
 (Enter /home/proyectos/fulerenos/M3C-v2.0/M3C-deps_CCC/g09-AM64L-G09RevC.01/l303.exe)
 DipDrv:  MaxL=1.
 Leave Link  303 at Fri Mar  8 03:52:26 2019, MaxMem=    33554432 cpu:         0.2
 (Enter /home/proyectos/fulerenos/M3C-v2.0/M3C-deps_CCC/g09-AM64L-G09RevC.01/l401.exe)
 ExpMin= 3.60D-02 ExpMax= 8.59D+03 ExpMxC= 1.30D+03 IAcc=3 IRadAn=         5 AccDes= 0.00D+00
 Harris functional with IExCor=  402 and IRadAn=       5 diagonalized for initial guess.
 HarFok:  IExCor=  402 AccDes= 0.00D+00 IRadAn=         5 IDoV= 1 UseB2=F ITyADJ=14
 ICtDFT=  3500011 ScaDFX=  1.000000  1.000000  1.000000  1.000000
 FoFCou: FMM=F IPFlag=           0 FMFlag=      100000 FMFlg1=           0
         NFxFlg=           0 DoJE=T BraDBF=F KetDBF=T FulRan=T
         wScrn=  0.000000 ICntrl=     500 IOpCl=  0 I1Cent=   200000004 NGrid=           0
         NMat0=    1 NMatS0=      1 NMatT0=    0 NMatD0=    1 NMtDS0=    0 NMtDT0=    0
 Petite list used in FoFCou.
 Harris En= -152.076618037500    
 JPrj=0 DoOrth=F DoCkMO=F.
 Initial guess orbital symmetries:
 Alpha Orbitals:
       Occupied  (A') (A') (A') (A') (A') (A') (A') (A") (A') (A')
                 (A") (A')
       Virtual   (A") (A') (A') (A') (A") (A') (A') (A") (A') (A')
                 (A') (A") (A') (A') (A') (A') (A') (A") (A') (A')
                 (A") (A') (A') (A") (A') (A") (A") (A') (A') (A')
                 (A') (A") (A') (A') (A") (A') (A") (A') (A') (A')
                 (A") (A') (A") (A') (A') (A') (A") (A') (A") (A')
                 (A') (A") (A') (A') (A") (A') (A') (A') (A") (A')
                 (A") (A') (A") (A') (A") (A') (A") (A') (A") (A')
                 (A') (A') (A") (A') (A") (A') (A') (A') (A') (A")
                 (A') (A") (A") (A') (A') (A') (A') (A") (A") (A')
                 (A') (A") (A') (A') (A") (A') (A') (A") (A') (A")
                 (A") (A') (A') (A") (A') (A') (A') (A") (A') (A")
                 (A') (A') (A') (A') (A')
 Beta  Orbitals:
       Occupied  (A') (A') (A') (A') (A') (A') (A') (A") (A') (A')
       Virtual   (A") (A') (A") (A') (A') (A') (A") (A') (A') (A")
                 (A') (A') (A') (A") (A') (A') (A') (A') (A') (A")
                 (A') (A') (A") (A') (A') (A") (A') (A") (A") (A')
                 (A') (A') (A') (A") (A') (A') (A") (A') (A") (A')
                 (A') (A') (A") (A') (A") (A') (A') (A') (A") (A')
                 (A") (A') (A') (A") (A') (A') (A") (A') (A') (A')
                 (A") (A') (A") (A') (A") (A') (A") (A') (A") (A')
                 (A") (A') (A') (A') (A") (A') (A") (A') (A') (A')
                 (A') (A") (A') (A") (A") (A') (A') (A') (A') (A")
                 (A") (A') (A') (A") (A') (A') (A") (A') (A') (A")
                 (A') (A") (A") (A') (A') (A") (A') (A') (A') (A")
                 (A') (A") (A') (A') (A') (A') (A')
 The electronic state of the initial guess is 3-A".
 Initial guess <Sx>= 0.0000 <Sy>= 0.0000 <Sz>= 1.0000 <S**2>= 2.0000 S= 1.0000
 Leave Link  401 at Fri Mar  8 03:52:27 2019, MaxMem=    33554432 cpu:         2.9
 (Enter /home/proyectos/fulerenos/M3C-v2.0/M3C-deps_CCC/g09-AM64L-G09RevC.01/l502.exe)
 UHF open shell SCF:
 Using DIIS extrapolation, IDIIS=  1040.
 Integral symmetry usage will be decided dynamically.
 IVT=       83570 IEndB=       83570 NGot=    33554432 MDV=    33508673
 LenX=    33508673 LenY=    33487207
 Requested convergence on RMS density matrix=1.00D-08 within 128 cycles.
 Requested convergence on MAX density matrix=1.00D-06.
 Requested convergence on             energy=1.00D-06.
 No special actions if energy rises.
 Fock matrices will be formed incrementally for  20 cycles.

 Cycle   1  Pass 1  IDiag  1:
 FoFJK:  IHMeth= 1 ICntrl=       0 DoSepK=F KAlg= 0 I1Cent=   0 FoldK=F
 IRaf= 990000000 NMat=   1 IRICut=       1 DoRegI=T DoRafI=F ISym2E= 1.
 FoFCou: FMM=F IPFlag=           0 FMFlag=      100000 FMFlg1=           0
         NFxFlg=           0 DoJE=F BraDBF=F KetDBF=F FulRan=T
         wScrn=  0.000000 ICntrl=       0 IOpCl=  1 I1Cent=           0 NGrid=           0
         NMat0=    1 NMatS0=      1 NMatT0=    0 NMatD0=    1 NMtDS0=    0 NMtDT0=    0
 Petite list used in FoFCou.
 E= -151.845669603260    
 DIIS: error= 3.85D-02 at cycle   1 NSaved=   1.
 NSaved= 1 IEnMin= 1 EnMin= -151.845669603260     IErMin= 1 ErrMin= 3.85D-02
 ErrMax= 3.85D-02  0.00D+00 EMaxC= 1.00D-01 BMatC= 4.91D-01 BMatP= 4.91D-01
 IDIUse=3 WtCom= 6.15D-01 WtEn= 3.85D-01
 Coeff-Com:  0.100D+01
 Coeff-En:   0.100D+01
 Coeff:      0.100D+01
 Gap=     0.061 Goal=   None    Shift=    0.000
 Gap=     0.111 Goal=   None    Shift=    0.000
 GapD=    0.061 DampG=0.500 DampE=0.500 DampFc=0.2500 IDamp=-1.
 Damping current iteration by 2.50D-01
 RMSDP=1.51D-01 MaxDP=1.03D+01              OVMax= 5.21D-01

 Cycle   2  Pass 1  IDiag  1:
 RMSU=  3.77D-02    CP:  1.02D+00
 E= -151.875983598134     Delta-E=       -0.030313994874 Rises=F Damp=T
 DIIS: error= 1.11D-02 at cycle   2 NSaved=   2.
 NSaved= 2 IEnMin= 2 EnMin= -151.875983598134     IErMin= 2 ErrMin= 1.11D-02
 ErrMax= 1.11D-02  0.00D+00 EMaxC= 1.00D-01 BMatC= 6.47D-02 BMatP= 4.91D-01
 IDIUse=3 WtCom= 8.89D-01 WtEn= 1.11D-01
 Coeff-Com: -0.305D+00 0.130D+01
 Coeff-En:   0.129D+00 0.871D+00
 Coeff:     -0.257D+00 0.126D+01
 Gap=     0.127 Goal=   None    Shift=    0.000
 Gap=     0.130 Goal=   None    Shift=    0.000
 RMSDP=3.42D-02 MaxDP=2.35D+00 DE=-3.03D-02 OVMax= 3.15D-01

 Cycle   3  Pass 1  IDiag  1:
 RMSU=  5.68D-03    CP:  8.73D-01  1.08D-01
 E= -151.938729855434     Delta-E=       -0.062746257299 Rises=F Damp=F
 DIIS: error= 1.95D-02 at cycle   3 NSaved=   3.
 NSaved= 3 IEnMin= 3 EnMin= -151.938729855434     IErMin= 2 ErrMin= 1.11D-02
 ErrMax= 1.95D-02  0.00D+00 EMaxC= 1.00D-01 BMatC= 8.85D-02 BMatP= 6.47D-02
 IDIUse=2 WtCom= 0.00D+00 WtEn= 1.00D+00
 Coeff-En:   0.000D+00 0.000D+00 0.100D+01
 Coeff:      0.000D+00 0.000D+00 0.100D+01
 Gap=     0.160 Goal=   None    Shift=    0.000
 Gap=     0.146 Goal=   None    Shift=    0.000
 RMSDP=8.11D-03 MaxDP=4.88D-01 DE=-6.27D-02 OVMax= 2.74D-01

 Cycle   4  Pass 1  IDiag  1:
 RMSU=  5.29D-03    CP:  9.06D-01  2.70D-01  1.06D+00
 E= -151.824218483968     Delta-E=        0.114511371465 Rises=F Damp=F
 DIIS: error= 5.85D-02 at cycle   4 NSaved=   4.
 NSaved= 4 IEnMin= 3 EnMin= -151.938729855434     IErMin= 2 ErrMin= 1.11D-02
 ErrMax= 5.85D-02  0.00D+00 EMaxC= 1.00D-01 BMatC= 6.44D-01 BMatP= 6.47D-02
 IDIUse=2 WtCom= 0.00D+00 WtEn= 1.00D+00
 Coeff-En:   0.000D+00 0.000D+00 0.808D+00 0.192D+00
 Coeff:      0.000D+00 0.000D+00 0.808D+00 0.192D+00
 Gap=     0.169 Goal=   None    Shift=    0.000
 Gap=     0.119 Goal=   None    Shift=    0.000
 RMSDP=6.38D-03 MaxDP=4.10D-01 DE= 1.15D-01 OVMax= 1.35D-01

 Cycle   5  Pass 1  IDiag  1:
 RMSU=  8.09D-04    CP:  8.80D-01  1.23D-01  9.06D-01  4.45D-01
 E= -151.949177241773     Delta-E=       -0.124958757804 Rises=F Damp=F
 DIIS: error= 1.52D-02 at cycle   5 NSaved=   5.
 NSaved= 5 IEnMin= 5 EnMin= -151.949177241773     IErMin= 2 ErrMin= 1.11D-02
 ErrMax= 1.52D-02  0.00D+00 EMaxC= 1.00D-01 BMatC= 5.06D-02 BMatP= 6.47D-02
 IDIUse=3 WtCom= 8.48D-01 WtEn= 1.52D-01
 Coeff-Com: -0.327D-01 0.523D-01 0.285D+00-0.146D+00 0.842D+00
 Coeff-En:   0.000D+00 0.000D+00 0.378D+00 0.000D+00 0.622D+00
 Coeff:     -0.277D-01 0.443D-01 0.299D+00-0.124D+00 0.808D+00
 Gap=     0.120 Goal=   None    Shift=    0.000
 Gap=     0.121 Goal=   None    Shift=    0.000
 RMSDP=1.29D-03 MaxDP=6.71D-02 DE=-1.25D-01 OVMax= 4.98D-02

 Cycle   6  Pass 1  IDiag  1:
 RMSU=  2.54D-04    CP:  8.70D-01  9.95D-02  9.07D-01  2.77D-01  1.04D+00
 E= -151.960207265506     Delta-E=       -0.011030023733 Rises=F Damp=F
 DIIS: error= 4.24D-04 at cycle   6 NSaved=   6.
 NSaved= 6 IEnMin= 6 EnMin= -151.960207265506     IErMin= 6 ErrMin= 4.24D-04
 ErrMax= 4.24D-04  0.00D+00 EMaxC= 1.00D-01 BMatC= 3.65D-05 BMatP= 5.06D-02
 IDIUse=3 WtCom= 9.96D-01 WtEn= 4.24D-03
 Coeff-Com:  0.692D-02-0.211D-01-0.150D-01-0.939D-02 0.262D-01 0.101D+01
 Coeff-En:   0.000D+00 0.000D+00 0.000D+00 0.000D+00 0.000D+00 0.100D+01
 Coeff:      0.689D-02-0.210D-01-0.149D-01-0.935D-02 0.261D-01 0.101D+01
 Gap=     0.120 Goal=   None    Shift=    0.000
 Gap=     0.117 Goal=   None    Shift=    0.000
 RMSDP=1.78D-04 MaxDP=7.22D-03 DE=-1.10D-02 OVMax= 5.40D-03

 Cycle   7  Pass 1  IDiag  1:
 RMSU=  5.76D-05    CP:  8.69D-01  9.59D-02  9.00D-01  2.75D-01  1.11D+00
                    CP:  1.24D+00
 E= -151.960238795819     Delta-E=       -0.000031530313 Rises=F Damp=F
 DIIS: error= 2.59D-04 at cycle   7 NSaved=   7.
 NSaved= 7 IEnMin= 7 EnMin= -151.960238795819     IErMin= 7 ErrMin= 2.59D-04
 ErrMax= 2.59D-04  0.00D+00 EMaxC= 1.00D-01 BMatC= 1.17D-05 BMatP= 3.65D-05
 IDIUse=3 WtCom= 9.97D-01 WtEn= 2.59D-03
 Coeff-Com:  0.119D-02 0.137D-02-0.241D-01 0.364D-02-0.557D-01-0.170D+00
 Coeff-Com:  0.124D+01
 Coeff-En:   0.000D+00 0.000D+00 0.000D+00 0.000D+00 0.000D+00 0.000D+00
 Coeff-En:   0.100D+01
 Coeff:      0.119D-02 0.136D-02-0.241D-01 0.363D-02-0.555D-01-0.170D+00
 Coeff:      0.124D+01
 Gap=     0.120 Goal=   None    Shift=    0.000
 Gap=     0.117 Goal=   None    Shift=    0.000
 RMSDP=5.07D-05 MaxDP=2.18D-03 DE=-3.15D-05 OVMax= 2.87D-03

 Cycle   8  Pass 1  IDiag  1:
 RMSU=  2.39D-05    CP:  8.69D-01  9.50D-02  8.98D-01  2.72D-01  1.11D+00
                    CP:  1.29D+00  1.27D+00
 E= -151.960246262134     Delta-E=       -0.000007466315 Rises=F Damp=F
 DIIS: error= 7.94D-05 at cycle   8 NSaved=   8.
 NSaved= 8 IEnMin= 8 EnMin= -151.960246262134     IErMin= 8 ErrMin= 7.94D-05
 ErrMax= 7.94D-05  0.00D+00 EMaxC= 1.00D-01 BMatC= 1.48D-06 BMatP= 1.17D-05
 IDIUse=1 WtCom= 1.00D+00 WtEn= 0.00D+00
 Coeff-Com: -0.468D-03 0.186D-02-0.260D-02 0.189D-02-0.154D-01-0.178D+00
 Coeff-Com:  0.375D+00 0.818D+00
 Coeff:     -0.468D-03 0.186D-02-0.260D-02 0.189D-02-0.154D-01-0.178D+00
 Coeff:      0.375D+00 0.818D+00
 Gap=     0.120 Goal=   None    Shift=    0.000
 Gap=     0.117 Goal=   None    Shift=    0.000
 RMSDP=1.25D-05 MaxDP=4.41D-04 DE=-7.47D-06 OVMax= 8.62D-04

 Cycle   9  Pass 1  IDiag  1:
 RMSU=  8.01D-06    CP:  8.68D-01  9.51D-02  8.99D-01  2.72D-01  1.11D+00
                    CP:  1.29D+00  1.37D+00  1.16D+00
 E= -151.960246981446     Delta-E=       -0.000000719312 Rises=F Damp=F
 DIIS: error= 4.27D-05 at cycle   9 NSaved=   9.
 NSaved= 9 IEnMin= 9 EnMin= -151.960246981446     IErMin= 9 ErrMin= 4.27D-05
 ErrMax= 4.27D-05  0.00D+00 EMaxC= 1.00D-01 BMatC= 4.66D-07 BMatP= 1.48D-06
 IDIUse=1 WtCom= 1.00D+00 WtEn= 0.00D+00
 Coeff-Com: -0.762D-03 0.153D-02 0.692D-03 0.429D-03-0.316D-02-0.747D-01
 Coeff-Com:  0.483D-01 0.406D+00 0.622D+00
 Coeff:     -0.762D-03 0.153D-02 0.692D-03 0.429D-03-0.316D-02-0.747D-01
 Coeff:      0.483D-01 0.406D+00 0.622D+00
 Gap=     0.120 Goal=   None    Shift=    0.000
 Gap=     0.117 Goal=   None    Shift=    0.000
 RMSDP=5.65D-06 MaxDP=1.33D-04 DE=-7.19D-07 OVMax= 3.48D-04

 Cycle  10  Pass 1  IDiag  1:
 RMSU=  2.62D-06    CP:  8.69D-01  9.51D-02  8.99D-01  2.71D-01  1.11D+00
                    CP:  1.29D+00  1.39D+00  1.24D+00  9.84D-01
 E= -151.960247156538     Delta-E=       -0.000000175092 Rises=F Damp=F
 DIIS: error= 1.56D-05 at cycle  10 NSaved=  10.
 NSaved=10 IEnMin=10 EnMin= -151.960247156538     IErMin=10 ErrMin= 1.56D-05
 ErrMax= 1.56D-05  0.00D+00 EMaxC= 1.00D-01 BMatC= 6.88D-08 BMatP= 4.66D-07
 IDIUse=1 WtCom= 1.00D+00 WtEn= 0.00D+00
 Coeff-Com: -0.281D-03 0.305D-03 0.911D-03-0.306D-03 0.230D-02 0.119D-01
 Coeff-Com: -0.726D-01-0.409D-01 0.270D+00 0.829D+00
 Coeff:     -0.281D-03 0.305D-03 0.911D-03-0.306D-03 0.230D-02 0.119D-01
 Coeff:     -0.726D-01-0.409D-01 0.270D+00 0.829D+00
 Gap=     0.120 Goal=   None    Shift=    0.000
 Gap=     0.117 Goal=   None    Shift=    0.000
 RMSDP=3.04D-06 MaxDP=1.31D-04 DE=-1.75D-07 OVMax= 1.65D-04

 Cycle  11  Pass 1  IDiag  1:
 RMSU=  1.35D-06    CP:  8.68D-01  9.51D-02  8.99D-01  2.71D-01  1.11D+00
                    CP:  1.28D+00  1.40D+00  1.29D+00  1.15D+00  1.18D+00
 E= -151.960247185267     Delta-E=       -0.000000028729 Rises=F Damp=F
 DIIS: error= 3.53D-06 at cycle  11 NSaved=  11.
 NSaved=11 IEnMin=11 EnMin= -151.960247185267     IErMin=11 ErrMin= 3.53D-06
 ErrMax= 3.53D-06  0.00D+00 EMaxC= 1.00D-01 BMatC= 2.02D-09 BMatP= 6.88D-08
 IDIUse=1 WtCom= 1.00D+00 WtEn= 0.00D+00
 Coeff-Com:  0.102D-03-0.151D-03-0.759D-04-0.529D-04 0.364D-03 0.550D-02
 Coeff-Com: -0.263D-02-0.427D-01-0.303D-01-0.411D-01 0.111D+01
 Coeff:      0.102D-03-0.151D-03-0.759D-04-0.529D-04 0.364D-03 0.550D-02
 Coeff:     -0.263D-02-0.427D-01-0.303D-01-0.411D-01 0.111D+01
 Gap=     0.120 Goal=   None    Shift=    0.000
 Gap=     0.117 Goal=   None    Shift=    0.000
 RMSDP=1.20D-06 MaxDP=4.85D-05 DE=-2.87D-08 OVMax= 5.42D-05

 Cycle  12  Pass 1  IDiag  1:
 RMSU=  2.91D-07    CP:  8.68D-01  9.51D-02  8.99D-01  2.71D-01  1.11D+00
                    CP:  1.29D+00  1.40D+00  1.28D+00  1.19D+00  1.32D+00
                    CP:  1.28D+00
 E= -151.960247187007     Delta-E=       -0.000000001740 Rises=F Damp=F
 DIIS: error= 8.83D-07 at cycle  12 NSaved=  12.
 NSaved=12 IEnMin=12 EnMin= -151.960247187007     IErMin=12 ErrMin= 8.83D-07
 ErrMax= 8.83D-07  0.00D+00 EMaxC= 1.00D-01 BMatC= 1.88D-10 BMatP= 2.02D-09
 IDIUse=1 WtCom= 1.00D+00 WtEn= 0.00D+00
 Coeff-Com:  0.279D-04-0.411D-04-0.450D-05-0.119D-04 0.407D-04-0.818D-03
 Coeff-Com:  0.383D-02 0.814D-03-0.639D-02-0.579D-01 0.178D-01 0.104D+01
 Coeff:      0.279D-04-0.411D-04-0.450D-05-0.119D-04 0.407D-04-0.818D-03
 Coeff:      0.383D-02 0.814D-03-0.639D-02-0.579D-01 0.178D-01 0.104D+01
 Gap=     0.120 Goal=   None    Shift=    0.000
 Gap=     0.117 Goal=   None    Shift=    0.000
 RMSDP=2.59D-07 MaxDP=7.03D-06 DE=-1.74D-09 OVMax= 8.14D-06

 Cycle  13  Pass 1  IDiag  1:
 RMSU=  9.84D-08    CP:  8.68D-01  9.51D-02  8.99D-01  2.71D-01  1.11D+00
                    CP:  1.29D+00  1.40D+00  1.28D+00  1.19D+00  1.32D+00
                    CP:  1.33D+00  1.23D+00
 E= -151.960247187095     Delta-E=       -0.000000000089 Rises=F Damp=F
 DIIS: error= 3.12D-07 at cycle  13 NSaved=  13.
 NSaved=13 IEnMin=13 EnMin= -151.960247187095     IErMin=13 ErrMin= 3.12D-07
 ErrMax= 3.12D-07  0.00D+00 EMaxC= 1.00D-01 BMatC= 1.27D-11 BMatP= 1.88D-10
 IDIUse=1 WtCom= 1.00D+00 WtEn= 0.00D+00
 Coeff-Com: -0.179D-05 0.237D-06 0.135D-04 0.225D-05-0.144D-04-0.386D-03
 Coeff-Com:  0.330D-03 0.291D-02 0.222D-02 0.216D-03-0.729D-01 0.620D-01
 Coeff-Com:  0.101D+01
 Coeff:     -0.179D-05 0.237D-06 0.135D-04 0.225D-05-0.144D-04-0.386D-03
 Coeff:      0.330D-03 0.291D-02 0.222D-02 0.216D-03-0.729D-01 0.620D-01
 Coeff:      0.101D+01
 Gap=     0.120 Goal=   None    Shift=    0.000
 Gap=     0.117 Goal=   None    Shift=    0.000
 RMSDP=4.58D-08 MaxDP=1.24D-06 DE=-8.88D-11 OVMax= 2.84D-06

 Cycle  14  Pass 1  IDiag  1:
 RMSU=  1.69D-08    CP:  8.68D-01  9.51D-02  8.99D-01  2.71D-01  1.11D+00
                    CP:  1.29D+00  1.40D+00  1.28D+00  1.19D+00  1.32D+00
                    CP:  1.33D+00  1.27D+00  1.32D+00
 E= -151.960247187101     Delta-E=       -0.000000000006 Rises=F Damp=F
 DIIS: error= 3.41D-08 at cycle  14 NSaved=  14.
 NSaved=14 IEnMin=14 EnMin= -151.960247187101     IErMin=14 ErrMin= 3.41D-08
 ErrMax= 3.41D-08  0.00D+00 EMaxC= 1.00D-01 BMatC= 3.06D-13 BMatP= 1.27D-11
 IDIUse=1 WtCom= 1.00D+00 WtEn= 0.00D+00
 Coeff-Com: -0.136D-05 0.214D-05-0.729D-06 0.106D-05-0.666D-05 0.195D-04
 Coeff-Com: -0.128D-03 0.377D-04 0.388D-03 0.292D-02-0.425D-02-0.565D-01
 Coeff-Com:  0.418D-01 0.102D+01
 Coeff:     -0.136D-05 0.214D-05-0.729D-06 0.106D-05-0.666D-05 0.195D-04
 Coeff:     -0.128D-03 0.377D-04 0.388D-03 0.292D-02-0.425D-02-0.565D-01
 Coeff:      0.418D-01 0.102D+01
 Gap=     0.120 Goal=   None    Shift=    0.000
 Gap=     0.117 Goal=   None    Shift=    0.000
 RMSDP=2.39D-08 MaxDP=9.35D-07 DE=-5.54D-12 OVMax= 5.15D-07

 Cycle  15  Pass 1  IDiag  1:
 RMSU=  5.66D-09    CP:  8.68D-01  9.51D-02  8.99D-01  2.71D-01  1.11D+00
                    CP:  1.29D+00  1.40D+00  1.28D+00  1.19D+00  1.32D+00
                    CP:  1.33D+00  1.26D+00  1.40D+00  1.37D+00
 E= -151.960247187101     Delta-E=       -0.000000000000 Rises=F Damp=F
 DIIS: error= 1.39D-08 at cycle  15 NSaved=  15.
 NSaved=15 IEnMin=15 EnMin= -151.960247187101     IErMin=15 ErrMin= 1.39D-08
 ErrMax= 1.39D-08  0.00D+00 EMaxC= 1.00D-01 BMatC= 3.63D-14 BMatP= 3.06D-13
 IDIUse=1 WtCom= 1.00D+00 WtEn= 0.00D+00
 Coeff-Com: -0.111D-06 0.216D-06-0.109D-05 0.266D-06-0.119D-05 0.175D-04
 Coeff-Com: -0.172D-04-0.133D-03-0.126D-04 0.778D-04 0.272D-02-0.653D-02
 Coeff-Com: -0.410D-01 0.638D-01 0.981D+00
 Coeff:     -0.111D-06 0.216D-06-0.109D-05 0.266D-06-0.119D-05 0.175D-04
 Coeff:     -0.172D-04-0.133D-03-0.126D-04 0.778D-04 0.272D-02-0.653D-02
 Coeff:     -0.410D-01 0.638D-01 0.981D+00
 Gap=     0.120 Goal=   None    Shift=    0.000
 Gap=     0.117 Goal=   None    Shift=    0.000
 RMSDP=5.82D-09 MaxDP=2.14D-07 DE=-1.14D-13 OVMax= 7.88D-08

 SCF Done:  E(UB3LYP) =  -151.960247187     A.U. after   15 cycles
            NFock= 15  Conv=0.58D-08     -V/T= 2.0037
 <Sx>= 0.0000 <Sy>= 0.0000 <Sz>= 1.0000 <S**2>= 2.0148 S= 1.0049
 <L.S>= 0.000000000000E+00
 KE= 1.514004746811D+02 PE=-4.626148757147D+02 EE= 1.087484991063D+02
 Annihilation of the first spin contaminant:
 S**2 before annihilation     2.0148,   after     2.0001
 Leave Link  502 at Fri Mar  8 03:53:25 2019, MaxMem=    33554432 cpu:       112.2
 (Enter /home/proyectos/fulerenos/M3C-v2.0/M3C-deps_CCC/g09-AM64L-G09RevC.01/l801.exe)
 DoSCS=F DFT=T ScalE2(SS,OS)=  1.000000  1.000000
 Range of M.O.s used for correlation:     1   127
 NBasis=   127 NAE=    12 NBE=    10 NFC=     0 NFV=     0
 NROrb=    127 NOA=    12 NOB=    10 NVA=   115 NVB=   117

 **** Warning!!: The largest alpha MO coefficient is  0.40751623D+02


 **** Warning!!: The largest beta MO coefficient is  0.40020551D+02

 Leave Link  801 at Fri Mar  8 03:53:25 2019, MaxMem=    33554432 cpu:         0.1
 (Enter /home/proyectos/fulerenos/M3C-v2.0/M3C-deps_CCC/g09-AM64L-G09RevC.01/l1101.exe)
 Using compressed storage, NAtomX=     4.
 Will process      5 centers per pass.
 Leave Link 1101 at Fri Mar  8 03:53:25 2019, MaxMem=    33554432 cpu:         0.5
 (Enter /home/proyectos/fulerenos/M3C-v2.0/M3C-deps_CCC/g09-AM64L-G09RevC.01/l1102.exe)
 Symmetrizing basis deriv contribution to polar:
 IMax=3 JMax=2 DiffMx= 0.00D+00
 Leave Link 1102 at Fri Mar  8 03:53:25 2019, MaxMem=    33554432 cpu:         0.1
 (Enter /home/proyectos/fulerenos/M3C-v2.0/M3C-deps_CCC/g09-AM64L-G09RevC.01/l1110.exe)
 Forming Gx(P) for the SCF density, NAtomX=     4.
 Integral derivatives from FoFJK, PRISM(SPDF).
 Do as many integral derivatives as possible in FoFJK.
 G2DrvN: MDV=      33554296.
 G2DrvN: will do     5 centers at a time, making    1 passes.
 Calling FoFCou, ICntrl=  3107 FMM=F I1Cent=   0 AccDes= 0.00D+00.
 FoFJK:  IHMeth= 1 ICntrl=    3107 DoSepK=F KAlg= 0 I1Cent=   0 FoldK=F
 IRaf=         0 NMat=   1 IRICut=       1 DoRegI=T DoRafI=F ISym2E= 1.
 FoFCou: FMM=F IPFlag=           0 FMFlag=      100000 FMFlg1=           0
         NFxFlg=           0 DoJE=F BraDBF=F KetDBF=F FulRan=T
         wScrn=  0.000000 ICntrl=    3107 IOpCl=  1 I1Cent=           0 NGrid=           0
         NMat0=    1 NMatS0=      1 NMatT0=    0 NMatD0=    1 NMtDS0=    0 NMtDT0=    0
 Petite list used in FoFCou.
 End of G2Drv F.D. properties file   721 does not exist.
 End of G2Drv F.D. properties file   722 does not exist.
 End of G2Drv F.D. properties file   788 does not exist.
 Leave Link 1110 at Fri Mar  8 03:54:01 2019, MaxMem=    33554432 cpu:        65.4
 (Enter /home/proyectos/fulerenos/M3C-v2.0/M3C-deps_CCC/g09-AM64L-G09RevC.01/l1002.exe)
 Minotr:  UHF open shell wavefunction.
          IDoAtm=1111
          Direct CPHF calculation.
          Differentiating once with respect to electric field.
                with respect to dipole field.
          Differentiating once with respect to nuclear coordinates.
          Using symmetry in CPHF.
          Requested convergence is 1.0D-08 RMS, and 1.0D-07 maximum.
          Secondary convergence is 1.0D-12 RMS, and 1.0D-12 maximum.
          NewPWx=T KeepS1=F KeepF1=F KeepIn=T MapXYZ=F SortEE=F KeepMc=T.
          MDV=      33554134 using IRadAn=       2.
 Generate precomputed XC quadrature information.
          Solving linear equations simultaneously, MaxMat=       0.
 FoFJK:  IHMeth= 1 ICntrl=       0 DoSepK=F KAlg= 0 I1Cent=   0 FoldK=F
 IRaf= 990000000 NMat=  15 IRICut=      37 DoRegI=T DoRafI=T ISym2E= 2.
 FoFCou: FMM=F IPFlag=           0 FMFlag=      100000 FMFlg1=           0
         NFxFlg=           0 DoJE=F BraDBF=F KetDBF=F FulRan=T
         wScrn=  0.000000 ICntrl=       0 IOpCl=  1 I1Cent=           0 NGrid=           0
         NMat0=   15 NMatS0=     15 NMatT0=    0 NMatD0=   15 NMtDS0=    0 NMtDT0=    0
 Integrals replicated using symmetry in FoFCou.
          There are    15 degrees of freedom in the 1st order CPHF.  IDoFFX=6 NUNeed=     3.
     12 vectors produced by pass  0 Test12= 1.70D-14 6.67D-09 XBig12= 1.44D+02 5.11D+00.
 AX will form    12 AO Fock derivatives at one time.
     12 vectors produced by pass  1 Test12= 1.70D-14 6.67D-09 XBig12= 6.60D+01 1.80D+00.
     12 vectors produced by pass  2 Test12= 1.70D-14 6.67D-09 XBig12= 1.30D+00 3.64D-01.
     12 vectors produced by pass  3 Test12= 1.70D-14 6.67D-09 XBig12= 3.82D-02 5.26D-02.
     12 vectors produced by pass  4 Test12= 1.70D-14 6.67D-09 XBig12= 3.87D-04 4.29D-03.
     12 vectors produced by pass  5 Test12= 1.70D-14 6.67D-09 XBig12= 4.15D-06 5.04D-04.
     12 vectors produced by pass  6 Test12= 1.70D-14 6.67D-09 XBig12= 3.72D-08 4.21D-05.
     11 vectors produced by pass  7 Test12= 1.70D-14 6.67D-09 XBig12= 2.63D-10 2.95D-06.
      4 vectors produced by pass  8 Test12= 1.70D-14 6.67D-09 XBig12= 1.67D-12 2.03D-07.
      3 vectors produced by pass  9 Test12= 1.70D-14 6.67D-09 XBig12= 1.88D-14 4.75D-08.
      1 vectors produced by pass 10 Test12= 1.70D-14 6.67D-09 XBig12= 6.66D-16 8.06D-09.
 InvSVY:  IOpt=1 It=  1 EMax= 7.77D-16
 Solved reduced A of dimension   103 with    12 vectors.
 FullF1:  Do perturbations    1 to     3.
 Isotropic polarizability for W=    0.000000       52.70 Bohr**3.
 End of Minotr F.D. properties file   721 does not exist.
 End of Minotr F.D. properties file   722 does not exist.
 End of Minotr F.D. properties file   788 does not exist.
 Leave Link 1002 at Fri Mar  8 03:55:31 2019, MaxMem=    33554432 cpu:       175.6
 (Enter /home/proyectos/fulerenos/M3C-v2.0/M3C-deps_CCC/g09-AM64L-G09RevC.01/l601.exe)
 Copying SCF densities to generalized density rwf, IOpCl= 1 IROHF=0.

 **********************************************************************

            Population analysis using the SCF density.

 **********************************************************************

 Orbital symmetries:
 Alpha Orbitals:
       Occupied  (A') (A') (A') (A') (A') (A') (A') (A") (A') (A')
                 (A") (A')
       Virtual   (A') (A') (A') (A") (A") (A') (A') (A') (A") (A')
                 (A') (A") (A') (A') (A') (A") (A') (A') (A') (A")
                 (A') (A') (A') (A") (A") (A') (A") (A') (A') (A')
                 (A") (A') (A') (A') (A") (A') (A") (A') (A') (A")
                 (A') (A') (A") (A') (A') (A') (A") (A') (A") (A')
                 (A') (A") (A') (A') (A") (A') (A') (A') (A') (A")
                 (A") (A") (A') (A') (A') (A") (A") (A') (A") (A')
                 (A') (A') (A") (A') (A") (A') (A') (A') (A') (A")
                 (A') (A") (A") (A') (A') (A') (A') (A") (A") (A')
                 (A') (A") (A') (A') (A") (A') (A') (A") (A') (A")
                 (A") (A') (A') (A") (A') (A') (A') (A") (A') (A")
                 (A') (A') (A') (A') (A')
 Beta  Orbitals:
       Occupied  (A') (A') (A') (A') (A') (A') (A') (A") (A') (A')
       Virtual   (A") (A') (A') (A') (A') (A") (A") (A') (A') (A')
                 (A') (A") (A') (A') (A") (A') (A') (A") (A') (A')
                 (A') (A") (A') (A') (A') (A") (A") (A') (A") (A')
                 (A') (A') (A') (A") (A') (A') (A") (A') (A") (A')
                 (A') (A") (A') (A') (A') (A") (A') (A') (A") (A')
                 (A") (A') (A') (A") (A') (A') (A") (A') (A') (A')
                 (A') (A") (A") (A') (A") (A') (A") (A') (A") (A')
                 (A") (A') (A') (A') (A") (A') (A") (A') (A') (A')
                 (A') (A") (A') (A") (A") (A') (A') (A') (A') (A")
                 (A") (A') (A') (A") (A') (A') (A") (A') (A') (A")
                 (A') (A") (A") (A') (A') (A") (A') (A') (A') (A")
                 (A') (A") (A') (A') (A') (A') (A')
 The electronic state is 3-A".
 Alpha  occ. eigenvalues --  -18.91841 -10.02929  -9.96729  -0.82554  -0.50459
 Alpha  occ. eigenvalues --   -0.31986  -0.24798  -0.20222  -0.11882  -0.04333
 Alpha  occ. eigenvalues --   -0.02649   0.01323
 Alpha virt. eigenvalues --    0.13353   0.18874   0.19201   0.20183   0.20966
 Alpha virt. eigenvalues --    0.23528   0.23808   0.26082   0.26714   0.29473
 Alpha virt. eigenvalues --    0.32723   0.38035   0.38434   0.42170   0.44648
 Alpha virt. eigenvalues --    0.51472   0.52366   0.55114   0.56756   0.60897
 Alpha virt. eigenvalues --    0.62601   0.64001   0.67111   0.70243   0.73245
 Alpha virt. eigenvalues --    0.73763   0.75637   0.77659   0.83595   0.85981
 Alpha virt. eigenvalues --    0.90530   0.90690   0.94223   0.97200   1.09423
 Alpha virt. eigenvalues --    1.14370   1.18980   1.26333   1.29415   1.29527
 Alpha virt. eigenvalues --    1.30202   1.38597   1.45104   1.45787   1.50818
 Alpha virt. eigenvalues --    1.60190   1.64901   1.68504   1.75604   1.79147
 Alpha virt. eigenvalues --    1.85375   2.00274   2.06512   2.18879   2.23192
 Alpha virt. eigenvalues --    2.27441   2.45463   2.51979   2.85189   2.87331
 Alpha virt. eigenvalues --    2.94457   2.98925   2.99015   2.99683   3.03459
 Alpha virt. eigenvalues --    3.04236   3.15796   3.18933   3.21258   3.27588
 Alpha virt. eigenvalues --    3.38127   3.46806   3.50315   3.59627   3.71560
 Alpha virt. eigenvalues --    3.74596   3.84834   3.98573   4.08711   4.22029
 Alpha virt. eigenvalues --    4.31802   4.38441   4.50293   4.52640   4.75764
 Alpha virt. eigenvalues --    4.98282   5.24662   5.26926   5.34067   5.52812
 Alpha virt. eigenvalues --    5.58401   5.64968   5.71479   5.73291   6.37322
 Alpha virt. eigenvalues --    6.54345   6.76351   7.17395   7.18962   7.25686
 Alpha virt. eigenvalues --    7.40505   7.44247   7.52822   7.72953   7.76609
 Alpha virt. eigenvalues --    8.12436   8.25982  14.52333  14.54168  14.78553
 Alpha virt. eigenvalues --   14.90356  15.11522  24.32562  25.37658  50.50449
  Beta  occ. eigenvalues --  -18.90797 -10.02960  -9.94707  -0.80516  -0.46155
  Beta  occ. eigenvalues --   -0.29828  -0.23283  -0.15877  -0.08860  -0.02364
  Beta virt. eigenvalues --    0.09309   0.13280   0.14830   0.19403   0.19775
  Beta virt. eigenvalues --    0.21332   0.21847   0.23667   0.25825   0.26377
  Beta virt. eigenvalues --    0.29837   0.30093   0.33021   0.38730   0.39092
  Beta virt. eigenvalues --    0.42836   0.44828   0.53141   0.54278   0.56550
  Beta virt. eigenvalues --    0.58306   0.62530   0.63959   0.65314   0.68300
  Beta virt. eigenvalues --    0.71399   0.74874   0.75863   0.77542   0.80139
  Beta virt. eigenvalues --    0.85959   0.87694   0.91419   0.92362   0.94690
  Beta virt. eigenvalues --    0.97975   1.10180   1.15272   1.20660   1.26804
  Beta virt. eigenvalues --    1.30049   1.30075   1.31598   1.39418   1.46890
  Beta virt. eigenvalues --    1.46942   1.52980   1.61015   1.67196   1.70263
  Beta virt. eigenvalues --    1.81976   1.85331   1.89251   2.03436   2.09050
  Beta virt. eigenvalues --    2.20678   2.25371   2.28587   2.47523   2.53053
  Beta virt. eigenvalues --    2.86053   2.89801   2.97943   3.03464   3.04318
  Beta virt. eigenvalues --    3.05991   3.06683   3.09710   3.19352   3.20641
  Beta virt. eigenvalues --    3.24320   3.30651   3.39962   3.49303   3.53953
  Beta virt. eigenvalues --    3.60940   3.74202   3.77161   3.86566   4.00549
  Beta virt. eigenvalues --    4.10179   4.24324   4.33181   4.39552   4.52775
  Beta virt. eigenvalues --    4.54001   4.77072   4.99535   5.26864   5.29333
  Beta virt. eigenvalues --    5.37932   5.53934   5.59583   5.66633   5.73118
  Beta virt. eigenvalues --    5.74030   6.39238   6.55177   6.77058   7.23657
  Beta virt. eigenvalues --    7.28830   7.30790   7.42046   7.48287   7.56220
  Beta virt. eigenvalues --    7.74984   7.78592   8.13436   8.26684  14.56096
  Beta virt. eigenvalues --   14.58021  14.82476  14.91250  15.13625  24.34237
  Beta virt. eigenvalues --   25.38312  50.51503
          Condensed to atoms (all electrons):
               1          2          3          4
     1  C    5.796657  -0.756423   0.510506   0.211615
     2  C   -0.756423   7.816204  -0.419962  -0.127523
     3  H    0.510506  -0.419962   1.186911  -0.183797
     4  O    0.211615  -0.127523  -0.183797   8.731397
          Atomic-Atomic Spin Densities.
               1          2          3          4
     1  C    0.086079   0.027805  -0.025026  -0.098970
     2  C    0.027805   1.704664   0.023669  -0.093911
     3  H   -0.025026   0.023669   0.064020  -0.032131
     4  O   -0.098970  -0.093911  -0.032131   0.542365
 Mulliken charges and spin densities:
               1          2
     1  C    0.237645  -0.010112
     2  C   -0.512297   1.662227
     3  H   -0.093657   0.030532
     4  O   -0.631691   0.317353
 Sum of Mulliken charges =  -1.00000   2.00000
 Mulliken charges and spin densities with hydrogens summed into heavy atoms:
               1          2
     1  C    0.143988   0.020420
     2  C   -0.512297   1.662227
     4  O   -0.631691   0.317353
 APT charges:
               1
     1  C    0.816736
     2  C   -0.750365
     3  H   -0.238744
     4  O   -0.827628
 Sum of APT charges =  -1.00000
 APT charges with hydrogens summed into heavy atoms:
               1
     1  C    0.577992
     2  C   -0.750365
     4  O   -0.827628
 Electronic spatial extent (au):  <R**2>=            144.4788
 Charge=             -1.0000 electrons
 Dipole moment (field-independent basis, Debye):
    X=              2.3537    Y=              2.2386    Z=             -0.0000  Tot=              3.2483
 Quadrupole moment (field-independent basis, Debye-Ang):
   XX=            -24.9167   YY=            -34.5587   ZZ=            -21.2009
   XY=             -3.6749   XZ=              0.0000   YZ=              0.0000
 Traceless Quadrupole moment (field-independent basis, Debye-Ang):
   XX=              1.9754   YY=             -7.6666   ZZ=              5.6912
   XY=             -3.6749   XZ=              0.0000   YZ=              0.0000
 Octapole moment (field-independent basis, Debye-Ang**2):
  XXX=              7.3856  YYY=             29.8896  ZZZ=             -0.0000  XYY=              7.3262
  XXY=              9.4781  XXZ=             -0.0000  XZZ=              1.8000  YZZ=              6.4066
  YYZ=             -0.0000  XYZ=             -0.0000
 Hexadecapole moment (field-independent basis, Debye-Ang**3):
 XXXX=            -81.2492 YYYY=           -213.6150 ZZZZ=            -32.3430 XXXY=            -21.1939
 XXXZ=              0.0000 YYYX=            -28.3153 YYYZ=              0.0000 ZZZX=              0.0000
 ZZZY=              0.0000 XXYY=            -48.4462 XXZZ=            -18.0961 YYZZ=            -35.5803
 XXYZ=              0.0000 YYXZ=              0.0000 ZZXY=             -6.0488
 N-N= 5.050565474015D+01 E-N=-4.626148750576D+02  KE= 1.514004746811D+02
 Symmetry A'   KE= 1.465321383542D+02
 Symmetry A"   KE= 4.868336326835D+00
  Exact polarizability:  56.366   4.268  63.645  -0.000  -0.000  38.102
 Approx polarizability:  65.765   3.627  80.383  -0.000   0.000  45.863
                          Isotropic Fermi Contact Couplings
        Atom                 a.u.       MegaHertz       Gauss      10(-4) cm-1
     1  C(13)             -0.04134     -23.23637      -8.29132      -7.75082
     2  C(13)              0.07376      41.46275      14.79494      13.83048
     3  H(1)               0.01419      31.71968      11.31837      10.58055
     4  O(17)              0.09323     -28.25834     -10.08328      -9.42597
 --------------------------------------------------------
       Center         ----  Spin Dipole Couplings  ----
                      3XX-RR        3YY-RR        3ZZ-RR
 --------------------------------------------------------
     1   Atom       -0.055490      0.021909      0.033581
     2   Atom        0.202344     -0.326599      0.124255
     3   Atom        0.026144     -0.005430     -0.020714
     4   Atom       -0.773012     -0.592621      1.365633
 --------------------------------------------------------
                        XY            XZ            YZ
 --------------------------------------------------------
     1   Atom        0.038625     -0.000000      0.000000
     2   Atom       -0.776460      0.000000      0.000000
     3   Atom        0.017372     -0.000000     -0.000000
     4   Atom        0.057055     -0.000000     -0.000000
 --------------------------------------------------------


 ---------------------------------------------------------------------------------
              Anisotropic Spin Dipole Couplings in Principal Axis System
 ---------------------------------------------------------------------------------

       Atom             a.u.   MegaHertz   Gauss  10(-4) cm-1        Axes

              Baa    -0.0715    -9.590    -3.422    -3.199  0.9241 -0.3822  0.0000
     1 C(13)  Bbb     0.0336     4.506     1.608     1.503  0.0000  0.0000  1.0000
              Bcc     0.0379     5.084     1.814     1.696  0.3822  0.9241  0.0000
 
              Baa    -0.8824  -118.409   -42.251   -39.497  0.5821  0.8131 -0.0000
     2 C(13)  Bbb     0.1243    16.674     5.950     5.562  0.0000  0.0000  1.0000
              Bcc     0.7581   101.735    36.302    33.935  0.8131 -0.5821 -0.0000
 
              Baa    -0.0207   -11.052    -3.944    -3.686  0.0000  0.0000  1.0000
     3 H(1)   Bbb    -0.0131    -6.998    -2.497    -2.334 -0.4046  0.9145  0.0000
              Bcc     0.0338    18.050     6.441     6.021  0.9145  0.4046 -0.0000
 
              Baa    -0.7895    57.131    20.386    19.057  0.9605 -0.2783 -0.0000
     4 O(17)  Bbb    -0.5761    41.685    14.874    13.905  0.2783  0.9605 -0.0000
              Bcc     1.3656   -98.816   -35.260   -32.962  0.0000  0.0000  1.0000
 

 ---------------------------------------------------------------------------------

 No NMR shielding tensors so no spin-rotation constants.
 Leave Link  601 at Fri Mar  8 03:55:31 2019, MaxMem=    33554432 cpu:         0.9
 (Enter /home/proyectos/fulerenos/M3C-v2.0/M3C-deps_CCC/g09-AM64L-G09RevC.01/l701.exe)
 Compute integral second derivatives.
 ... and contract with generalized density number  0.
 Leave Link  701 at Fri Mar  8 03:55:33 2019, MaxMem=    33554432 cpu:         2.4
 (Enter /home/proyectos/fulerenos/M3C-v2.0/M3C-deps_CCC/g09-AM64L-G09RevC.01/l702.exe)
 L702 exits ... SP integral derivatives will be done elsewhere.
 Leave Link  702 at Fri Mar  8 03:55:33 2019, MaxMem=    33554432 cpu:         0.1
 (Enter /home/proyectos/fulerenos/M3C-v2.0/M3C-deps_CCC/g09-AM64L-G09RevC.01/l703.exe)
 Compute integral second derivatives, UseDBF=F ICtDFT=           0.
 Integral derivatives from FoFJK, PRISM(SPDF).
 Calling FoFJK, ICntrl=    100127 FMM=F ISym2X=1 I1Cent= 0 IOpClX= 1 NMat=1 NMatS=1 NMatT=0.
 FoFJK:  IHMeth= 1 ICntrl=  100127 DoSepK=F KAlg= 0 I1Cent=   0 FoldK=F
 IRaf=         0 NMat=   1 IRICut=       1 DoRegI=T DoRafI=F ISym2E= 1.
 FoFCou: FMM=F IPFlag=           0 FMFlag=      100000 FMFlg1=         800
         NFxFlg=           0 DoJE=F BraDBF=F KetDBF=F FulRan=T
         wScrn=  0.000000 ICntrl=  100127 IOpCl=  1 I1Cent=           0 NGrid=           0
         NMat0=    1 NMatS0=      1 NMatT0=    0 NMatD0=    1 NMtDS0=    0 NMtDT0=    0
 Petite list used in FoFCou.
 Leave Link  703 at Fri Mar  8 03:56:39 2019, MaxMem=    33554432 cpu:       130.0
 (Enter /home/proyectos/fulerenos/M3C-v2.0/M3C-deps_CCC/g09-AM64L-G09RevC.01/l716.exe)
 Dipole        = 9.26031437D-01 8.80721828D-01-5.88294111D-17
 Polarizability= 5.63658824D+01 4.26805970D+00 6.36446954D+01
                -3.80378655D-08-6.55265432D-09 3.81017902D+01
 Full mass-weighted force constant matrix:
 Low frequencies ---   -0.0008   -0.0006    0.0004    6.5798   16.5591   28.5216
 Low frequencies ---  537.3856  813.7788 1096.7099
 Diagonal vibrational polarizability:
        5.4310428       3.6758443       0.7430530
 Harmonic frequencies (cm**-1), IR intensities (KM/Mole), Raman scattering
 activities (A**4/AMU), depolarization ratios for plane and unpolarized
 incident light, reduced masses (AMU), force constants (mDyne/A),
 and normal coordinates:
                      1                      2                      3
                     A'                     A"                     A'
 Frequencies --    537.3856               813.7775              1096.7099
 Red. masses --      9.2475                 1.7651                 4.4381
 Frc consts  --      1.5734                 0.6887                 3.1451
 IR Inten    --     34.6265                18.2851                25.2441
  Atom  AN      X      Y      Z        X      Y      Z        X      Y      Z
     1   6     0.48  -0.11  -0.00    -0.00  -0.00  -0.24    -0.29  -0.10   0.00
     2   6    -0.16   0.50   0.00     0.00   0.00   0.07     0.30   0.33  -0.00
     3   1     0.50   0.24   0.00    -0.00  -0.00   0.97    -0.38  -0.74  -0.00
     4   8    -0.27  -0.31   0.00     0.00  -0.00   0.06     0.02  -0.13  -0.00
                      4                      5                      6
                     A'                     A'                     A'
 Frequencies --   1333.8021              1430.4329              2617.8653
 Red. masses --      1.4028                 6.8059                 1.0701
 Frc consts  --      1.4704                 8.2049                 4.3207
 IR Inten    --     18.5636               245.2954               460.5040
  Atom  AN      X      Y      Z        X      Y      Z        X      Y      Z
     1   6    -0.11   0.02   0.00     0.00   0.60   0.00    -0.07   0.00  -0.00
     2   6     0.01   0.04  -0.00    -0.06  -0.09  -0.00    -0.00   0.00   0.00
     3   1     0.11   0.98  -0.00    -0.10  -0.71  -0.00     0.98  -0.19   0.00
     4   8     0.07  -0.10  -0.00     0.05  -0.34  -0.00    -0.00   0.01   0.00

 -------------------
 - Thermochemistry -
 -------------------
 Temperature   298.150 Kelvin.  Pressure   1.00000 Atm.
 Atom     1 has atomic number  6 and mass  12.00000
 Atom     2 has atomic number  6 and mass  12.00000
 Atom     3 has atomic number  1 and mass   1.00783
 Atom     4 has atomic number  8 and mass  15.99491
 Molecular mass:    41.00274 amu.
 Principal axes and moments of inertia in atomic units:
                           1         2         3
     Eigenvalues --    18.11158 143.14315 161.25473
           X            0.21215   0.97724   0.00000
           Y            0.97724  -0.21215   0.00000
           Z           -0.00000  -0.00000   1.00000
 This molecule is an asymmetric top.
 Rotational symmetry number  1.
 Rotational temperatures (Kelvin)      4.78223     0.60509     0.53712
 Rotational constants (GHZ):          99.64572    12.60795    11.19187
 Zero-point vibrational energy      46833.6 (Joules/Mol)
                                   11.19351 (Kcal/Mol)
 Warning -- explicit consideration of   1 degrees of freedom as
           vibrations may cause significant error
 Vibrational temperatures:    773.18  1170.84  1577.92  1919.04  2058.07
          (Kelvin)           3766.52
 
 Zero-point correction=                           0.017838 (Hartree/Particle)
 Thermal correction to Energy=                    0.020985
 Thermal correction to Enthalpy=                  0.021929
 Thermal correction to Gibbs Free Energy=        -0.006949
 Sum of electronic and zero-point Energies=           -151.942409
 Sum of electronic and thermal Energies=              -151.939263
 Sum of electronic and thermal Enthalpies=            -151.938318
 Sum of electronic and thermal Free Energies=         -151.967196
 
                     E (Thermal)             CV                S
                      KCal/Mol        Cal/Mol-Kelvin    Cal/Mol-Kelvin
 Total                   13.168              8.269             60.777
 Electronic               0.000              0.000              2.183
 Translational            0.889              2.981             37.061
 Rotational               0.889              2.981             20.663
 Vibrational             11.391              2.307              0.870
 Vibration     1          0.892              1.167              0.571
                       Q            Log10(Q)             Ln(Q)
 Total Bot       0.157070D+04          3.196092          7.359275
 Total V=0       0.251757D+12         11.400982         26.251730
 Vib (Bot)       0.693155D-08         -8.159169        -18.787182
 Vib (Bot)    1  0.295554D+00         -0.529363         -1.218904
 Vib (V=0)       0.111101D+01          0.045720          0.105274
 Vib (V=0)    1  0.108082D+01          0.033753          0.077720
 Electronic      0.300000D+01          0.477121          1.098612
 Translational   0.103199D+08          7.013675         16.149582
 Rotational      0.731924D+04          3.864466          8.898262
 
                                                              b3lyp opt
                                                             IR Spectrum
 
     2                                                         1    1          1                                                     
     6                                                         4    3          0             8            5                          
     1                                                         3    3          9             1            3                          
     8                                                         0    4          7             4            7                          
 
     X                                                         X    X          X             X            X                          
     X                                                         X                                          X                          
     X                                                         X                                                                     
     X                                                         X                                                                     
     X                                                         X                                                                     
     X                                                         X                                                                     
     X                                                         X                                                                     
     X                                                         X                                                                     
     X                                                         X                                                                     
     X                                                         X                                                                     
     X                                                         X                                                                     
     X                                                                                                                               
     X                                                                                                                               
     X                                                                                                                               
     X                                                                                                                               
     X                                                                                                                               
     X                                                                                                                               
     X                                                                                                                               
     X                                                                                                                               
     X                                                                                                                               
 
 ***** Axes restored to original set *****
 -------------------------------------------------------------------
 Center     Atomic                   Forces (Hartrees/Bohr)
 Number     Number              X              Y              Z
 -------------------------------------------------------------------
      1        6          -0.000131505   -0.000095758    0.000205583
      2        6           0.000053571   -0.000076526   -0.000086298
      3        1           0.000129486   -0.000118590   -0.000207124
      4        8          -0.000051551    0.000290874    0.000087839
 -------------------------------------------------------------------
 Cartesian Forces:  Max     0.000290874 RMS     0.000145377
 Z-matrix is all fixed cartesians, so copy forces.
 Force constants in Cartesian coordinates: 
                1             2             3             4             5 
      1  0.211764D+00
      2 -0.408175D-02  0.604256D+00
      3 -0.148281D+00  0.171807D-01  0.352506D+00
      4 -0.560818D-01 -0.490527D-01  0.296886D-01  0.360309D-01
      5 -0.676696D-01 -0.178926D+00  0.103734D+00  0.650792D-01  0.269971D+00
      6  0.292777D-01  0.743312D-01 -0.811984D-01 -0.375022D-01 -0.970767D-01
      7 -0.856665D-01 -0.139119D-01  0.720746D-01  0.389250D-02 -0.451241D-02
      8 -0.127977D-01 -0.434488D-01  0.201327D-01 -0.100426D-01 -0.481631D-02
      9  0.720992D-01  0.218923D-01 -0.153226D+00  0.131820D-01  0.674724D-02
     10 -0.700155D-01  0.670464D-01  0.465181D-01  0.161584D-01  0.710280D-02
     11  0.845491D-01 -0.381882D+00 -0.141048D+00 -0.598393D-02 -0.862290D-01
     12  0.469044D-01 -0.113404D+00 -0.118082D+00 -0.536838D-02 -0.134047D-01
                6             7             8             9            10 
      6  0.684637D-01
      7  0.133041D-01  0.799606D-01
      8  0.154814D-01 -0.163553D-02  0.597548D-01
      9 -0.829120D-02 -0.104997D+00  0.360396D-02  0.179412D+00
     10 -0.507953D-02  0.181337D-02  0.244758D-01  0.197155D-01  0.520437D-01
     11  0.726415D-02  0.200598D-01 -0.114897D-01 -0.322435D-01 -0.986250D-01
     12  0.210258D-01  0.196180D-01 -0.392180D-01 -0.178954D-01 -0.611540D-01
               11            12 
     11  0.479600D+00
     12  0.166027D+00  0.114951D+00
 Leave Link  716 at Fri Mar  8 03:56:39 2019, MaxMem=    33554432 cpu:         0.1
 (Enter /home/proyectos/fulerenos/M3C-v2.0/M3C-deps_CCC/g09-AM64L-G09RevC.01/l103.exe)

 GradGradGradGradGradGradGradGradGradGradGradGradGradGradGradGradGradGrad
 Berny optimization.
 Search for a local minimum.
 Step number   1 out of a maximum of    2
 All quantities printed in internal units (Hartrees-Bohrs-Radians)
 Second derivative matrix not updated -- analytic derivatives used.
 The second derivative matrix:
                          X1        Y1        Z1        X2        Y2
           X1           0.21176
           Y1          -0.00408   0.60426
           Z1          -0.14828   0.01718   0.35251
           X2          -0.05608  -0.04905   0.02969   0.03603
           Y2          -0.06767  -0.17893   0.10373   0.06508   0.26997
           Z2           0.02928   0.07433  -0.08120  -0.03750  -0.09708
           X3          -0.08567  -0.01391   0.07207   0.00389  -0.00451
           Y3          -0.01280  -0.04345   0.02013  -0.01004  -0.00482
           Z3           0.07210   0.02189  -0.15323   0.01318   0.00675
           X4          -0.07002   0.06705   0.04652   0.01616   0.00710
           Y4           0.08455  -0.38188  -0.14105  -0.00598  -0.08623
           Z4           0.04690  -0.11340  -0.11808  -0.00537  -0.01340
                          Z2        X3        Y3        Z3        X4
           Z2           0.06846
           X3           0.01330   0.07996
           Y3           0.01548  -0.00164   0.05975
           Z3          -0.00829  -0.10500   0.00360   0.17941
           X4          -0.00508   0.00181   0.02448   0.01972   0.05204
           Y4           0.00726   0.02006  -0.01149  -0.03224  -0.09862
           Z4           0.02103   0.01962  -0.03922  -0.01790  -0.06115
                          Y4        Z4
           Y4           0.47960
           Z4           0.16603   0.11495
 ITU=  0
     Eigenvalues ---    0.08175   0.13337   0.13851   0.35798   0.69407
     Eigenvalues ---    1.03175
 Angle between quadratic step and forces=  46.65 degrees.
 ClnCor:  largest displacement from symmetrization is 1.06D-12 for atom     1.
 Linear search not attempted -- first point.
 ClnCor:  largest displacement from symmetrization is 1.78D-15 for atom     2.
 B after Tr=    -0.000024    0.000231    0.000043
         Rot=    1.000000    0.000052   -0.000001    0.000033 Ang=   0.01 deg.
 Variable       Old X    -DE/DX   Delta X   Delta X   Delta X     New X
                                 (Linear)    (Quad)   (Total)
    X1       -0.23369  -0.00013   0.00000  -0.00048  -0.00049  -0.23419
    Y1        0.15554  -0.00010   0.00000   0.00024   0.00055   0.15609
    Z1        0.57581   0.00021   0.00000   0.00077   0.00079   0.57661
    X2        0.42861   0.00005   0.00000   0.00044   0.00058   0.42919
    Y2        2.55356  -0.00008   0.00000  -0.00061  -0.00045   2.55311
    Z2       -0.41728  -0.00009   0.00000  -0.00070  -0.00093  -0.41821
    X3       -1.37440   0.00013   0.00000   0.00006   0.00005  -1.37434
    Y3        0.20312  -0.00012   0.00000  -0.00181  -0.00124   0.20188
    Z3        2.37846  -0.00021   0.00000  -0.00014  -0.00011   2.37835
    X4        0.27484  -0.00005   0.00000   0.00002  -0.00014   0.27470
    Y4       -2.00703   0.00029   0.00000   0.00097   0.00115  -2.00589
    Z4       -0.27508   0.00009   0.00000  -0.00001   0.00025  -0.27483
         Item               Value     Threshold  Converged?
 Maximum Force            0.000291     0.000450     YES
 RMS     Force            0.000145     0.000300     YES
 Maximum Displacement     0.001241     0.001800     YES
 RMS     Displacement     0.000679     0.001200     YES
 Predicted change in Energy=-4.325542D-07
 Optimization completed.
    -- Stationary point found.
 GradGradGradGradGradGradGradGradGradGradGradGradGradGradGradGradGradGrad

 Leave Link  103 at Fri Mar  8 03:56:39 2019, MaxMem=    33554432 cpu:         0.1
 (Enter /home/proyectos/fulerenos/M3C-v2.0/M3C-deps_CCC/g09-AM64L-G09RevC.01/l9999.exe)

 Test job not archived.
 1\1\GINC-BLADI17\Freq\UB3LYP\6-311++G(3df,2p)\C2H1O1(1-,3)\ROOT\08-Mar
 -2019\0\\#p b3lyp/6-311++G(3df,2p) freq IOp(2/17=3) IOp(2/18=3)\\b3lyp
  opt\\-1,3\C,-0.1236651168,0.0823081833,0.304707695\C,0.2268110756,1.3
 51285943,-0.2208164195\H,-0.7272994531,0.107485629,1.2586278085\O,0.14
 54374625,-1.0620770484,-0.1455648077\\Version=EM64L-G09RevE.01\State=3
 -A"\HF=-151.9602472\S2=2.014813\S2-1=0.\S2A=2.000094\RMSD=5.825e-09\RM
 SF=1.454e-04\ZeroPoint=0.017838\Thermal=0.0209846\Dipole=-0.411934,-1.
 0341263,0.6277726\DipoleDeriv=0.5107566,-0.1228147,-0.3499277,-0.10961
 76,1.0916619,0.1908014,-0.3496364,0.2116446,0.84779,-0.8072166,0.01269
 54,0.0156518,0.0352831,-0.6205295,-0.0518195,0.0161503,-0.0161451,-0.8
 233477,-0.1990485,-0.0523722,0.2762866,0.0110026,-0.0570409,-0.0181201
 ,0.2776854,0.0819723,-0.4601422,-0.5044915,0.1624915,0.0579893,0.06333
 2,-1.4140915,-0.1208619,0.0558007,-0.2774718,-0.5643002\Polar=42.99233
 67,1.7050572,64.9249617,-7.6863681,-2.1008818,50.1950697\PG=CS [SG(C2H
 1O1)]\NImag=0\\0.21176379,-0.00408175,0.60425630,-0.14828128,0.0171807
 0,0.35250554,-0.05608179,-0.04905273,0.02968859,0.03603085,-0.06766962
 ,-0.17892565,0.10373420,0.06507923,0.26997092,0.02927768,0.07433117,-0
 .08119835,-0.03750222,-0.09707674,0.06846373,-0.08566652,-0.01391188,0
 .07207463,0.00389250,-0.00451241,0.01330407,0.07996064,-0.01279771,-0.
 04344883,0.02013266,-0.01004256,-0.00481631,0.01548142,-0.00163553,0.0
 5975479,0.07209922,0.02189234,-0.15322559,0.01318201,0.00674724,-0.008
 29120,-0.10499672,0.00360396,0.17941219,-0.07001548,0.06704636,0.04651
 806,0.01615844,0.00710280,-0.00507953,0.00181337,0.02447580,0.01971550
 ,0.05204366,0.08454908,-0.38188182,-0.14104755,-0.00598393,-0.08622896
 ,0.00726415,0.02005981,-0.01148965,-0.03224354,-0.09862495,0.47960044,
 0.04690438,-0.11340421,-0.11808160,-0.00536838,-0.01340469,0.02102583,
 0.01961803,-0.03921804,-0.01789539,-0.06115402,0.16602694,0.11495117\\
 0.00013151,0.00009576,-0.00020558,-0.00005357,0.00007653,0.00008630,-0
 .00012949,0.00011859,0.00020712,0.00005155,-0.00029087,-0.00008784\\\@


 READER, WHETHER YOU BE DILETTANTE OR PROFESSOR ... SHOW YOURSELF TO BE
 MORE HUMAN THAN CRITICAL, AND THEN YOUR PLEASURE WILL INCREASE.
                                           -- DOMENICO SCARLATTI (1738)
 Job cpu time:       0 days  0 hours  8 minutes 13.2 seconds.
 File lengths (MBytes):  RWF=     17 Int=      0 D2E=      0 Chk=      2 Scr=      1
 Normal termination of Gaussian 09 at Fri Mar  8 03:56:39 2019.
