 Entering Gaussian System, Link 0=/home/proyectos/fulerenos/M3C-v2.0/M3C-deps_CCC/g09-AM64L-G09RevC.01/g09
 Initial command:
 /home/proyectos/fulerenos/M3C-v2.0/M3C-deps_CCC/g09-AM64L-G09RevC.01/l1.exe "/scratch/naguirre/gaussian/Gau-991.inp" -scrdir="/scratch/naguirre/gaussian/"
 Entering Link 1 = /home/proyectos/fulerenos/M3C-v2.0/M3C-deps_CCC/g09-AM64L-G09RevC.01/l1.exe PID=       994.
  
 Copyright (c) 1988,1990,1992,1993,1995,1998,2003,2009,2015,
            Gaussian, Inc.  All Rights Reserved.
  
 This is part of the Gaussian(R) 09 program.  It is based on
 the Gaussian(R) 03 system (copyright 2003, Gaussian, Inc.),
 the Gaussian(R) 98 system (copyright 1998, Gaussian, Inc.),
 the Gaussian(R) 94 system (copyright 1995, Gaussian, Inc.),
 the Gaussian 92(TM) system (copyright 1992, Gaussian, Inc.),
 the Gaussian 90(TM) system (copyright 1990, Gaussian, Inc.),
 the Gaussian 88(TM) system (copyright 1988, Gaussian, Inc.),
 the Gaussian 86(TM) system (copyright 1986, Carnegie Mellon
 University), and the Gaussian 82(TM) system (copyright 1983,
 Carnegie Mellon University). Gaussian is a federally registered
 trademark of Gaussian, Inc.
  
 This software contains proprietary and confidential information,
 including trade secrets, belonging to Gaussian, Inc.
  
 This software is provided under written license and may be
 used, copied, transmitted, or stored only in accord with that
 written license.
  
 The following legend is applicable only to US Government
 contracts under FAR:
  
                    RESTRICTED RIGHTS LEGEND
  
 Use, reproduction and disclosure by the US Government is
 subject to restrictions as set forth in subparagraphs (a)
 and (c) of the Commercial Computer Software - Restricted
 Rights clause in FAR 52.227-19.
  
 Gaussian, Inc.
 340 Quinnipiac St., Bldg. 40, Wallingford CT 06492
  
  
 ---------------------------------------------------------------
 Warning -- This program may not be used in any manner that
 competes with the business of Gaussian, Inc. or will provide
 assistance to any competitor of Gaussian, Inc.  The licensee
 of this program is prohibited from giving any competitor of
 Gaussian, Inc. access to this program.  By using this program,
 the user acknowledges that Gaussian, Inc. is engaged in the
 business of creating and licensing software in the field of
 computational chemistry and represents and warrants to the
 licensee that it is not a competitor of Gaussian, Inc. and that
 it will not use this program in any manner prohibited above.
 ---------------------------------------------------------------
  

 Cite this work as:
 Gaussian 09, Revision E.01,
 M. J. Frisch, G. W. Trucks, H. B. Schlegel, G. E. Scuseria, 
 M. A. Robb, J. R. Cheeseman, G. Scalmani, V. Barone, B. Mennucci, 
 G. A. Petersson, H. Nakatsuji, M. Caricato, X. Li, H. P. Hratchian, 
 A. F. Izmaylov, J. Bloino, G. Zheng, J. L. Sonnenberg, M. Hada, 
 M. Ehara, K. Toyota, R. Fukuda, J. Hasegawa, M. Ishida, T. Nakajima, 
 Y. Honda, O. Kitao, H. Nakai, T. Vreven, J. A. Montgomery, Jr., 
 J. E. Peralta, F. Ogliaro, M. Bearpark, J. J. Heyd, E. Brothers, 
 K. N. Kudin, V. N. Staroverov, T. Keith, R. Kobayashi, J. Normand, 
 K. Raghavachari, A. Rendell, J. C. Burant, S. S. Iyengar, J. Tomasi, 
 M. Cossi, N. Rega, J. M. Millam, M. Klene, J. E. Knox, J. B. Cross, 
 V. Bakken, C. Adamo, J. Jaramillo, R. Gomperts, R. E. Stratmann, 
 O. Yazyev, A. J. Austin, R. Cammi, C. Pomelli, J. W. Ochterski, 
 R. L. Martin, K. Morokuma, V. G. Zakrzewski, G. A. Voth, 
 P. Salvador, J. J. Dannenberg, S. Dapprich, A. D. Daniels, 
 O. Farkas, J. B. Foresman, J. V. Ortiz, J. Cioslowski, 
 and D. J. Fox, Gaussian, Inc., Wallingford CT, 2013.
 
 ******************************************
 Gaussian 09:  EM64L-G09RevE.01 30-Nov-2015
                 8-Mar-2019 
 ******************************************
 %NProcShared=2
 Will use up to    2 processors via shared memory.
 ------------------------------------------------------
 #p b3lyp/6-311++G(3df,2p) freq IOp(2/17=3) IOp(2/18=3)
 ------------------------------------------------------
 1/10=4,30=1,38=1/1,3;
 2/12=2,17=3,18=3,40=1/2;
 3/5=4,6=6,7=1216,11=2,16=1,25=1,30=1,71=2,74=-5,140=1/1,2,3;
 4//1;
 5/5=2,38=5,98=1/2;
 8/6=4,10=90,11=11/1;
 11/6=1,8=1,9=11,15=111,16=1/1,2,10;
 10/6=1/2;
 6/7=2,8=2,9=2,10=2,18=1,28=1/1;
 7/8=1,10=1,25=1/1,2,3,16;
 1/10=4,30=1/3;
 99//99;
 Leave Link    1 at Fri Mar  8 05:23:56 2019, MaxMem=           0 cpu:         0.1
 (Enter /home/proyectos/fulerenos/M3C-v2.0/M3C-deps_CCC/g09-AM64L-G09RevC.01/l101.exe)
 ---------
 b3lyp opt
 ---------
 Symbolic Z-matrix:
 Charge = -1 Multiplicity = 3
 C                    -0.45084  -0.70395   0. 
 H                    -0.04015  -1.74095   0. 
 O                     0.22081   0.34731   0. 
 
 NAtoms=      3 NQM=        3 NQMF=       0 NMMI=      0 NMMIF=      0
                NMic=       0 NMicF=      0.
                    Isotopes and Nuclear Properties:
 (Nuclear quadrupole moments (NQMom) in fm**2, nuclear magnetic moments (NMagM)
  in nuclear magnetons)

  Atom         1           2           3
 IAtWgt=          12           1          16
 AtmWgt=  12.0000000   1.0078250  15.9949146
 NucSpn=           0           1           0
 AtZEff=   0.0000000   0.0000000   0.0000000
 NQMom=    0.0000000   0.0000000   0.0000000
 NMagM=    0.0000000   2.7928460   0.0000000
 AtZNuc=   6.0000000   1.0000000   8.0000000
 Leave Link  101 at Fri Mar  8 05:23:58 2019, MaxMem=    33554432 cpu:         1.8
 (Enter /home/proyectos/fulerenos/M3C-v2.0/M3C-deps_CCC/g09-AM64L-G09RevC.01/l103.exe)

 GradGradGradGradGradGradGradGradGradGradGradGradGradGradGradGradGradGrad
 Berny optimization.
 Initialization pass.
 Trust Radius=3.00D-01 FncErr=1.00D-07 GrdErr=1.00D-07
 Number of steps in this run=      2 maximum allowed number of steps=      2.
 GradGradGradGradGradGradGradGradGradGradGradGradGradGradGradGradGradGrad

 Leave Link  103 at Fri Mar  8 05:23:58 2019, MaxMem=    33554432 cpu:         0.1
 (Enter /home/proyectos/fulerenos/M3C-v2.0/M3C-deps_CCC/g09-AM64L-G09RevC.01/l202.exe)
                          Input orientation:                          
 ---------------------------------------------------------------------
 Center     Atomic      Atomic             Coordinates (Angstroms)
 Number     Number       Type             X           Y           Z
 ---------------------------------------------------------------------
      1          6           0       -0.450837   -0.703954    0.000000
      2          1           0       -0.040154   -1.740946    0.000000
      3          8           0        0.220813    0.347307    0.000000
 ---------------------------------------------------------------------
                    Distance matrix (angstroms):
                    1          2          3
     1  C    0.000000
     2  H    1.115353   0.000000
     3  O    1.247503   2.104496   0.000000
 Stoichiometry    CHO(1-,3)
 Framework group  CS[SG(CHO)]
 Deg. of freedom     3
 Full point group                 CS      NOp   2
 Largest Abelian subgroup         CS      NOp   2
 Largest concise Abelian subgroup C1      NOp   1
                         Standard orientation:                         
 ---------------------------------------------------------------------
 Center     Atomic      Atomic             Coordinates (Angstroms)
 Number     Number       Type             X           Y           Z
 ---------------------------------------------------------------------
      1          6           0        0.060293   -0.621818    0.000000
      2          1           0       -0.844099   -1.274573    0.000000
      3          8           0        0.060293    0.625685   -0.000000
 ---------------------------------------------------------------------
 Rotational constants (GHZ):    750.4057714     40.0897281     38.0565903
 Leave Link  202 at Fri Mar  8 05:23:58 2019, MaxMem=    33554432 cpu:         0.1
 (Enter /home/proyectos/fulerenos/M3C-v2.0/M3C-deps_CCC/g09-AM64L-G09RevC.01/l301.exe)
 Standard basis: 6-311++G(3df,2p) (5D, 7F)
 Ernie: Thresh=  0.10000D-02 Tol=  0.10000D-05 Strict=F.
 There are    70 symmetry adapted cartesian basis functions of A'  symmetry.
 There are    30 symmetry adapted cartesian basis functions of A"  symmetry.
 There are    60 symmetry adapted basis functions of A'  symmetry.
 There are    28 symmetry adapted basis functions of A"  symmetry.
    88 basis functions,   128 primitive gaussians,   100 cartesian basis functions
     9 alpha electrons        7 beta electrons
       nuclear repulsion energy        25.2193748260 Hartrees.
 IExCor=  402 DFT=T Ex+Corr=B3LYP ExCW=0 ScaHFX=  0.200000
 ScaDFX=  0.800000  0.720000  1.000000  0.810000 ScalE2=  1.000000  1.000000
 IRadAn=      0 IRanWt=     -1 IRanGd=            0 ICorTp=0 IEmpDi=  4
 NAtoms=    3 NActive=    3 NUniq=    3 SFac= 1.00D+00 NAtFMM=   60 NAOKFM=F Big=F
 Integral buffers will be    131072 words long.
 Raffenetti 2 integral format.
 Two-electron integral symmetry is turned on.
 Leave Link  301 at Fri Mar  8 05:23:59 2019, MaxMem=    33554432 cpu:         2.1
 (Enter /home/proyectos/fulerenos/M3C-v2.0/M3C-deps_CCC/g09-AM64L-G09RevC.01/l302.exe)
 NPDir=0 NMtPBC=     1 NCelOv=     1 NCel=       1 NClECP=     1 NCelD=      1
         NCelK=      1 NCelE2=     1 NClLst=     1 CellRange=     0.0.
 One-electron integrals computed using PRISM.
 NBasis=    88 RedAO= T EigKep=  1.11D-03  NBF=    60    28
 NBsUse=    88 1.00D-06 EigRej= -1.00D+00 NBFU=    60    28
 Precomputing XC quadrature grid using
 IXCGrd= 4 IRadAn=           0 IRanWt=          -1 IRanGd=           0 AccXCQ= 0.00D+00.
 Generated NRdTot=       0 NPtTot=           0 NUsed=           0 NTot=          32
 NSgBfM=   100   100   100   100   100 MxSgAt=     3 MxSgA2=     3.
 Leave Link  302 at Fri Mar  8 05:24:01 2019, MaxMem=    33554432 cpu:         4.1
 (Enter /home/proyectos/fulerenos/M3C-v2.0/M3C-deps_CCC/g09-AM64L-G09RevC.01/l303.exe)
 DipDrv:  MaxL=1.
 Leave Link  303 at Fri Mar  8 05:24:02 2019, MaxMem=    33554432 cpu:         0.1
 (Enter /home/proyectos/fulerenos/M3C-v2.0/M3C-deps_CCC/g09-AM64L-G09RevC.01/l401.exe)
 ExpMin= 3.60D-02 ExpMax= 8.59D+03 ExpMxC= 1.30D+03 IAcc=3 IRadAn=         5 AccDes= 0.00D+00
 Harris functional with IExCor=  402 and IRadAn=       5 diagonalized for initial guess.
 HarFok:  IExCor=  402 AccDes= 0.00D+00 IRadAn=         5 IDoV= 1 UseB2=F ITyADJ=14
 ICtDFT=  3500011 ScaDFX=  1.000000  1.000000  1.000000  1.000000
 FoFCou: FMM=F IPFlag=           0 FMFlag=      100000 FMFlg1=           0
         NFxFlg=           0 DoJE=T BraDBF=F KetDBF=T FulRan=T
         wScrn=  0.000000 ICntrl=     500 IOpCl=  0 I1Cent=   200000004 NGrid=           0
         NMat0=    1 NMatS0=      1 NMatT0=    0 NMatD0=    1 NMtDS0=    0 NMtDT0=    0
 Petite list used in FoFCou.
 Harris En= -114.011847731002    
 JPrj=0 DoOrth=F DoCkMO=F.
 Initial guess orbital symmetries:
 Alpha Orbitals:
       Occupied  (A') (A') (A') (A') (A') (A") (A') (A') (A")
       Virtual   (A') (A') (A') (A") (A') (A') (A') (A") (A') (A')
                 (A") (A') (A') (A') (A") (A') (A") (A') (A') (A')
                 (A') (A") (A') (A") (A') (A") (A') (A') (A") (A')
                 (A') (A') (A") (A') (A") (A') (A') (A') (A') (A")
                 (A') (A") (A') (A") (A") (A') (A') (A') (A") (A')
                 (A') (A') (A") (A") (A') (A') (A') (A") (A") (A')
                 (A') (A") (A') (A') (A") (A') (A') (A") (A') (A")
                 (A') (A') (A") (A') (A") (A') (A') (A') (A')
 Beta  Orbitals:
       Occupied  (A') (A') (A') (A') (A') (A") (A')
       Virtual   (A') (A") (A') (A') (A') (A") (A') (A') (A') (A")
                 (A') (A') (A") (A') (A') (A') (A") (A') (A") (A')
                 (A') (A') (A') (A") (A') (A") (A') (A") (A') (A')
                 (A") (A') (A') (A') (A") (A') (A") (A') (A') (A')
                 (A') (A") (A') (A") (A') (A") (A") (A') (A') (A')
                 (A") (A') (A') (A') (A") (A") (A') (A') (A') (A")
                 (A") (A') (A') (A") (A') (A') (A") (A') (A') (A")
                 (A') (A") (A') (A') (A") (A') (A") (A') (A') (A')
                 (A')
 The electronic state of the initial guess is 3-A".
 Initial guess <Sx>= 0.0000 <Sy>= 0.0000 <Sz>= 1.0000 <S**2>= 2.0000 S= 1.0000
 Leave Link  401 at Fri Mar  8 05:24:03 2019, MaxMem=    33554432 cpu:         2.0
 (Enter /home/proyectos/fulerenos/M3C-v2.0/M3C-deps_CCC/g09-AM64L-G09RevC.01/l502.exe)
 UHF open shell SCF:
 Using DIIS extrapolation, IDIIS=  1040.
 Integral symmetry usage will be decided dynamically.
 Keep R1 and R2 ints in memory in symmetry-blocked form, NReq=11797978.
 IVT=       49896 IEndB=       49896 NGot=    33554432 MDV=    25669549
 LenX=    25669549 LenY=    25659108
 Requested convergence on RMS density matrix=1.00D-08 within 128 cycles.
 Requested convergence on MAX density matrix=1.00D-06.
 Requested convergence on             energy=1.00D-06.
 No special actions if energy rises.
 FoFCou: FMM=F IPFlag=           0 FMFlag=           0 FMFlg1=           0
         NFxFlg=           0 DoJE=F BraDBF=F KetDBF=F FulRan=T
         wScrn=  0.000000 ICntrl=     600 IOpCl=  0 I1Cent=           0 NGrid=           0
         NMat0=    1 NMatS0=   3916 NMatT0=    0 NMatD0=    1 NMtDS0=    0 NMtDT0=    0
 Petite list used in FoFCou.

 Cycle   1  Pass 1  IDiag  1:
 E= -113.746241976670    
 DIIS: error= 4.30D-02 at cycle   1 NSaved=   1.
 NSaved= 1 IEnMin= 1 EnMin= -113.746241976670     IErMin= 1 ErrMin= 4.30D-02
 ErrMax= 4.30D-02  0.00D+00 EMaxC= 1.00D-01 BMatC= 5.12D-01 BMatP= 5.12D-01
 IDIUse=3 WtCom= 5.70D-01 WtEn= 4.30D-01
 Coeff-Com:  0.100D+01
 Coeff-En:   0.100D+01
 Coeff:      0.100D+01
 Gap=     0.065 Goal=   None    Shift=    0.000
 Gap=     0.217 Goal=   None    Shift=    0.000
 GapD=    0.065 DampG=0.500 DampE=0.500 DampFc=0.2500 IDamp=-1.
 Damping current iteration by 2.50D-01
 RMSDP=3.97D-01 MaxDP=2.37D+01              OVMax= 5.23D-01

 Cycle   2  Pass 1  IDiag  1:
 E= -113.784565937716     Delta-E=       -0.038323961046 Rises=F Damp=T
 DIIS: error= 9.19D-03 at cycle   2 NSaved=   2.
 NSaved= 2 IEnMin= 2 EnMin= -113.784565937716     IErMin= 2 ErrMin= 9.19D-03
 ErrMax= 9.19D-03  0.00D+00 EMaxC= 1.00D-01 BMatC= 3.85D-02 BMatP= 5.12D-01
 IDIUse=3 WtCom= 9.08D-01 WtEn= 9.19D-02
 Coeff-Com: -0.152D+00 0.115D+01
 Coeff-En:   0.230D+00 0.770D+00
 Coeff:     -0.116D+00 0.112D+01
 Gap=     0.107 Goal=   None    Shift=    0.000
 Gap=     0.234 Goal=   None    Shift=    0.000
 RMSDP=9.52D-02 MaxDP=5.62D+00 DE=-3.83D-02 OVMax= 3.81D-01

 Cycle   3  Pass 1  IDiag  1:
 E= -113.850007408259     Delta-E=       -0.065441470543 Rises=F Damp=F
 DIIS: error= 2.03D-02 at cycle   3 NSaved=   3.
 NSaved= 3 IEnMin= 3 EnMin= -113.850007408259     IErMin= 2 ErrMin= 9.19D-03
 ErrMax= 2.03D-02  0.00D+00 EMaxC= 1.00D-01 BMatC= 1.13D-01 BMatP= 3.85D-02
 IDIUse=2 WtCom= 0.00D+00 WtEn= 1.00D+00
 Coeff-En:   0.000D+00 0.000D+00 0.100D+01
 Coeff:      0.000D+00 0.000D+00 0.100D+01
 Gap=     0.013 Goal=   None    Shift=    0.000
 Gap=     0.153 Goal=   None    Shift=    0.000
 RMSDP=2.85D-01 MaxDP=1.85D+01 DE=-6.54D-02 OVMax= 2.54D-01

 Cycle   4  Pass 1  IDiag  1:
 E= -113.534375755814     Delta-E=        0.315631652445 Rises=F Damp=F
 DIIS: error= 8.12D-02 at cycle   4 NSaved=   4.
 NSaved= 4 IEnMin= 3 EnMin= -113.850007408259     IErMin= 2 ErrMin= 9.19D-03
 ErrMax= 8.12D-02  0.00D+00 EMaxC= 1.00D-01 BMatC= 1.48D+00 BMatP= 3.85D-02
 IDIUse=2 WtCom= 0.00D+00 WtEn= 1.00D+00
 Coeff-En:   0.000D+00 0.000D+00 0.888D+00 0.112D+00
 Coeff:      0.000D+00 0.000D+00 0.888D+00 0.112D+00
 Gap=     0.021 Goal=   None    Shift=    0.000
 Gap=     0.219 Goal=   None    Shift=    0.000
 RMSDP=2.84D-01 MaxDP=1.84D+01 DE= 3.16D-01 OVMax= 1.13D-01

 Cycle   5  Pass 1  IDiag  1:
 E= -113.845113815635     Delta-E=       -0.310738059821 Rises=F Damp=F
 DIIS: error= 2.12D-02 at cycle   5 NSaved=   5.
 NSaved= 5 IEnMin= 3 EnMin= -113.850007408259     IErMin= 2 ErrMin= 9.19D-03
 ErrMax= 2.12D-02  0.00D+00 EMaxC= 1.00D-01 BMatC= 1.58D-01 BMatP= 3.85D-02
 IDIUse=2 WtCom= 0.00D+00 WtEn= 1.00D+00
 Coeff-En:   0.000D+00 0.000D+00 0.534D+00 0.000D+00 0.466D+00
 Coeff:      0.000D+00 0.000D+00 0.534D+00 0.000D+00 0.466D+00
 Gap=     0.027 Goal=   None    Shift=    0.000
 Gap=     0.219 Goal=   None    Shift=    0.000
 RMSDP=2.37D-03 MaxDP=1.09D-01 DE=-3.11D-01 OVMax= 8.26D-02

 Cycle   6  Pass 1  IDiag  1:
 E= -113.873448206758     Delta-E=       -0.028334391123 Rises=F Damp=F
 DIIS: error= 4.49D-03 at cycle   6 NSaved=   6.
 NSaved= 6 IEnMin= 6 EnMin= -113.873448206758     IErMin= 6 ErrMin= 4.49D-03
 ErrMax= 4.49D-03  0.00D+00 EMaxC= 1.00D-01 BMatC= 5.27D-03 BMatP= 3.85D-02
 IDIUse=3 WtCom= 9.55D-01 WtEn= 4.49D-02
 Coeff-Com:  0.114D+00-0.147D+00 0.109D+00 0.763D-02 0.190D+00 0.726D+00
 Coeff-En:   0.000D+00 0.000D+00 0.000D+00 0.000D+00 0.000D+00 0.100D+01
 Coeff:      0.109D+00-0.140D+00 0.104D+00 0.729D-02 0.182D+00 0.738D+00
 Gap=     0.035 Goal=   None    Shift=    0.000
 Gap=     0.233 Goal=   None    Shift=    0.000
 RMSDP=1.93D-03 MaxDP=1.21D-01 DE=-2.83D-02 OVMax= 1.99D-02

 Cycle   7  Pass 1  IDiag  1:
 E= -113.874913201895     Delta-E=       -0.001464995137 Rises=F Damp=F
 DIIS: error= 1.32D-03 at cycle   7 NSaved=   7.
 NSaved= 7 IEnMin= 7 EnMin= -113.874913201895     IErMin= 7 ErrMin= 1.32D-03
 ErrMax= 1.32D-03  0.00D+00 EMaxC= 1.00D-01 BMatC= 6.00D-04 BMatP= 5.27D-03
 IDIUse=3 WtCom= 9.87D-01 WtEn= 1.32D-02
 Coeff-Com: -0.132D-01 0.288D-01 0.494D-01-0.361D-02-0.206D-01-0.269D+00
 Coeff-Com:  0.123D+01
 Coeff-En:   0.000D+00 0.000D+00 0.000D+00 0.000D+00 0.000D+00 0.000D+00
 Coeff-En:   0.100D+01
 Coeff:     -0.130D-01 0.284D-01 0.488D-01-0.357D-02-0.203D-01-0.266D+00
 Coeff:      0.123D+01
 Gap=     0.034 Goal=   None    Shift=    0.000
 Gap=     0.240 Goal=   None    Shift=    0.000
 RMSDP=7.96D-04 MaxDP=4.48D-02 DE=-1.46D-03 OVMax= 9.08D-03

 Cycle   8  Pass 1  IDiag  1:
 E= -113.875064489284     Delta-E=       -0.000151287389 Rises=F Damp=F
 DIIS: error= 4.47D-04 at cycle   8 NSaved=   8.
 NSaved= 8 IEnMin= 8 EnMin= -113.875064489284     IErMin= 8 ErrMin= 4.47D-04
 ErrMax= 4.47D-04  0.00D+00 EMaxC= 1.00D-01 BMatC= 3.60D-05 BMatP= 6.00D-04
 IDIUse=3 WtCom= 9.96D-01 WtEn= 4.47D-03
 Coeff-Com: -0.116D-01 0.140D-01 0.361D-02-0.101D-02-0.149D-01-0.914D-01
 Coeff-Com:  0.334D+00 0.767D+00
 Coeff-En:   0.000D+00 0.000D+00 0.000D+00 0.000D+00 0.000D+00 0.000D+00
 Coeff-En:   0.000D+00 0.100D+01
 Coeff:     -0.116D-01 0.139D-01 0.359D-02-0.100D-02-0.148D-01-0.910D-01
 Coeff:      0.332D+00 0.768D+00
 Gap=     0.034 Goal=   None    Shift=    0.000
 Gap=     0.239 Goal=   None    Shift=    0.000
 RMSDP=8.25D-05 MaxDP=6.96D-03 DE=-1.51D-04 OVMax= 4.52D-03

 Cycle   9  Pass 1  IDiag  1:
 E= -113.875077664517     Delta-E=       -0.000013175233 Rises=F Damp=F
 DIIS: error= 1.48D-04 at cycle   9 NSaved=   9.
 NSaved= 9 IEnMin= 9 EnMin= -113.875077664517     IErMin= 9 ErrMin= 1.48D-04
 ErrMax= 1.48D-04  0.00D+00 EMaxC= 1.00D-01 BMatC= 3.36D-06 BMatP= 3.60D-05
 IDIUse=3 WtCom= 9.99D-01 WtEn= 1.48D-03
 Coeff-Com:  0.635D-03-0.994D-03-0.115D-01 0.311D-03-0.205D-02 0.291D-01
 Coeff-Com: -0.103D+00-0.777D-01 0.116D+01
 Coeff-En:   0.000D+00 0.000D+00 0.000D+00 0.000D+00 0.000D+00 0.000D+00
 Coeff-En:   0.000D+00 0.000D+00 0.100D+01
 Coeff:      0.634D-03-0.992D-03-0.115D-01 0.310D-03-0.205D-02 0.290D-01
 Coeff:     -0.102D+00-0.776D-01 0.116D+01
 Gap=     0.034 Goal=   None    Shift=    0.000
 Gap=     0.239 Goal=   None    Shift=    0.000
 RMSDP=6.93D-05 MaxDP=4.70D-03 DE=-1.32D-05 OVMax= 3.07D-03

 Cycle  10  Pass 1  IDiag  1:
 E= -113.875079805098     Delta-E=       -0.000002140581 Rises=F Damp=F
 DIIS: error= 3.97D-05 at cycle  10 NSaved=  10.
 NSaved=10 IEnMin=10 EnMin= -113.875079805098     IErMin=10 ErrMin= 3.97D-05
 ErrMax= 3.97D-05  0.00D+00 EMaxC= 1.00D-01 BMatC= 2.81D-07 BMatP= 3.36D-06
 IDIUse=1 WtCom= 1.00D+00 WtEn= 0.00D+00
 Coeff-Com:  0.660D-03-0.154D-03-0.203D-02 0.411D-04 0.801D-03 0.728D-02
 Coeff-Com: -0.564D-01-0.883D-01 0.151D+00 0.987D+00
 Coeff:      0.660D-03-0.154D-03-0.203D-02 0.411D-04 0.801D-03 0.728D-02
 Coeff:     -0.564D-01-0.883D-01 0.151D+00 0.987D+00
 Gap=     0.035 Goal=   None    Shift=    0.000
 Gap=     0.239 Goal=   None    Shift=    0.000
 RMSDP=4.26D-05 MaxDP=2.47D-03 DE=-2.14D-06 OVMax= 5.49D-04

 Cycle  11  Pass 1  IDiag  1:
 E= -113.875079967287     Delta-E=       -0.000000162189 Rises=F Damp=F
 DIIS: error= 6.63D-06 at cycle  11 NSaved=  11.
 NSaved=11 IEnMin=11 EnMin= -113.875079967287     IErMin=11 ErrMin= 6.63D-06
 ErrMax= 6.63D-06  0.00D+00 EMaxC= 1.00D-01 BMatC= 1.25D-08 BMatP= 2.81D-07
 IDIUse=1 WtCom= 1.00D+00 WtEn= 0.00D+00
 Coeff-Com: -0.960D-04 0.131D-03 0.738D-03-0.261D-04 0.113D-03-0.264D-02
 Coeff-Com:  0.555D-02 0.105D-01-0.636D-01-0.268D-01 0.108D+01
 Coeff:     -0.960D-04 0.131D-03 0.738D-03-0.261D-04 0.113D-03-0.264D-02
 Coeff:      0.555D-02 0.105D-01-0.636D-01-0.268D-01 0.108D+01
 Gap=     0.035 Goal=   None    Shift=    0.000
 Gap=     0.239 Goal=   None    Shift=    0.000
 RMSDP=9.34D-06 MaxDP=5.25D-04 DE=-1.62D-07 OVMax= 1.04D-04

 Cycle  12  Pass 1  IDiag  1:
 E= -113.875079973909     Delta-E=       -0.000000006622 Rises=F Damp=F
 DIIS: error= 1.04D-06 at cycle  12 NSaved=  12.
 NSaved=12 IEnMin=12 EnMin= -113.875079973909     IErMin=12 ErrMin= 1.04D-06
 ErrMax= 1.04D-06  0.00D+00 EMaxC= 1.00D-01 BMatC= 2.82D-10 BMatP= 1.25D-08
 IDIUse=1 WtCom= 1.00D+00 WtEn= 0.00D+00
 Coeff-Com:  0.223D-04-0.405D-04-0.626D-04 0.247D-05 0.123D-04 0.393D-03
 Coeff-Com:  0.907D-03 0.176D-02 0.251D-02-0.399D-01-0.208D+00 0.124D+01
 Coeff:      0.223D-04-0.405D-04-0.626D-04 0.247D-05 0.123D-04 0.393D-03
 Coeff:      0.907D-03 0.176D-02 0.251D-02-0.399D-01-0.208D+00 0.124D+01
 Gap=     0.035 Goal=   None    Shift=    0.000
 Gap=     0.239 Goal=   None    Shift=    0.000
 RMSDP=2.28D-06 MaxDP=1.17D-04 DE=-6.62D-09 OVMax= 3.96D-05

 Cycle  13  Pass 1  IDiag  1:
 E= -113.875079974223     Delta-E=       -0.000000000314 Rises=F Damp=F
 DIIS: error= 4.25D-07 at cycle  13 NSaved=  13.
 NSaved=13 IEnMin=13 EnMin= -113.875079974223     IErMin=13 ErrMin= 4.25D-07
 ErrMax= 4.25D-07  0.00D+00 EMaxC= 1.00D-01 BMatC= 5.33D-11 BMatP= 2.82D-10
 IDIUse=1 WtCom= 1.00D+00 WtEn= 0.00D+00
 Coeff-Com:  0.498D-05-0.713D-05-0.899D-05 0.418D-06 0.845D-05 0.246D-04
 Coeff-Com: -0.431D-03-0.508D-03 0.299D-02 0.467D-02-0.119D-01-0.178D+00
 Coeff-Com:  0.118D+01
 Coeff:      0.498D-05-0.713D-05-0.899D-05 0.418D-06 0.845D-05 0.246D-04
 Coeff:     -0.431D-03-0.508D-03 0.299D-02 0.467D-02-0.119D-01-0.178D+00
 Coeff:      0.118D+01
 Gap=     0.035 Goal=   None    Shift=    0.000
 Gap=     0.239 Goal=   None    Shift=    0.000
 RMSDP=4.25D-07 MaxDP=2.31D-05 DE=-3.14D-10 OVMax= 5.73D-06

 Cycle  14  Pass 1  IDiag  1:
 E= -113.875079974245     Delta-E=       -0.000000000022 Rises=F Damp=F
 DIIS: error= 8.03D-08 at cycle  14 NSaved=  14.
 NSaved=14 IEnMin=14 EnMin= -113.875079974245     IErMin=14 ErrMin= 8.03D-08
 ErrMax= 8.03D-08  0.00D+00 EMaxC= 1.00D-01 BMatC= 1.57D-12 BMatP= 5.33D-11
 IDIUse=1 WtCom= 1.00D+00 WtEn= 0.00D+00
 Coeff-Com:  0.628D-06-0.635D-06 0.153D-05 0.134D-07 0.312D-05-0.654D-05
 Coeff-Com: -0.271D-04-0.622D-04-0.214D-04 0.864D-03 0.514D-02-0.133D-01
 Coeff-Com: -0.168D+00 0.118D+01
 Coeff:      0.628D-06-0.635D-06 0.153D-05 0.134D-07 0.312D-05-0.654D-05
 Coeff:     -0.271D-04-0.622D-04-0.214D-04 0.864D-03 0.514D-02-0.133D-01
 Coeff:     -0.168D+00 0.118D+01
 Gap=     0.035 Goal=   None    Shift=    0.000
 Gap=     0.239 Goal=   None    Shift=    0.000
 RMSDP=6.09D-08 MaxDP=3.50D-06 DE=-2.19D-11 OVMax= 9.05D-07

 Cycle  15  Pass 1  IDiag  1:
 E= -113.875079974246     Delta-E=       -0.000000000001 Rises=F Damp=F
 DIIS: error= 1.43D-08 at cycle  15 NSaved=  15.
 NSaved=15 IEnMin=15 EnMin= -113.875079974246     IErMin=15 ErrMin= 1.43D-08
 ErrMax= 1.43D-08  0.00D+00 EMaxC= 1.00D-01 BMatC= 4.13D-14 BMatP= 1.57D-12
 IDIUse=1 WtCom= 1.00D+00 WtEn= 0.00D+00
 Coeff-Com:  0.111D-07-0.380D-07 0.453D-06-0.673D-08-0.281D-06 0.621D-06
 Coeff-Com:  0.165D-04 0.242D-04-0.135D-03-0.265D-03 0.482D-03 0.903D-02
 Coeff-Com: -0.539D-01-0.716D-01 0.112D+01
 Coeff:      0.111D-07-0.380D-07 0.453D-06-0.673D-08-0.281D-06 0.621D-06
 Coeff:      0.165D-04 0.242D-04-0.135D-03-0.265D-03 0.482D-03 0.903D-02
 Coeff:     -0.539D-01-0.716D-01 0.112D+01
 Gap=     0.035 Goal=   None    Shift=    0.000
 Gap=     0.239 Goal=   None    Shift=    0.000
 RMSDP=7.67D-09 MaxDP=4.72D-07 DE=-6.54D-13 OVMax= 2.13D-07

 SCF Done:  E(UB3LYP) =  -113.875079974     A.U. after   15 cycles
            NFock= 15  Conv=0.77D-08     -V/T= 2.0033
 <Sx>= 0.0000 <Sy>= 0.0000 <Sz>= 1.0000 <S**2>= 2.0071 S= 1.0024
 <L.S>= 0.000000000000E+00
 KE= 1.134958725833D+02 PE=-3.225076877772D+02 EE= 6.991736039358D+01
 Annihilation of the first spin contaminant:
 S**2 before annihilation     2.0071,   after     2.0000
 Leave Link  502 at Fri Mar  8 05:24:14 2019, MaxMem=    33554432 cpu:        17.3
 (Enter /home/proyectos/fulerenos/M3C-v2.0/M3C-deps_CCC/g09-AM64L-G09RevC.01/l801.exe)
 DoSCS=F DFT=T ScalE2(SS,OS)=  1.000000  1.000000
 Range of M.O.s used for correlation:     1    88
 NBasis=    88 NAE=     9 NBE=     7 NFC=     0 NFV=     0
 NROrb=     88 NOA=     9 NOB=     7 NVA=    79 NVB=    81

 **** Warning!!: The largest alpha MO coefficient is  0.10543325D+02


 **** Warning!!: The smallest alpha delta epsilon is  0.34556757D-01


 **** Warning!!: The largest beta MO coefficient is  0.10205480D+02

 Leave Link  801 at Fri Mar  8 05:24:14 2019, MaxMem=    33554432 cpu:         0.1
 (Enter /home/proyectos/fulerenos/M3C-v2.0/M3C-deps_CCC/g09-AM64L-G09RevC.01/l1101.exe)
 Using compressed storage, NAtomX=     3.
 Will process      4 centers per pass.
 Leave Link 1101 at Fri Mar  8 05:24:15 2019, MaxMem=    33554432 cpu:         1.8
 (Enter /home/proyectos/fulerenos/M3C-v2.0/M3C-deps_CCC/g09-AM64L-G09RevC.01/l1102.exe)
 Symmetrizing basis deriv contribution to polar:
 IMax=3 JMax=2 DiffMx= 0.00D+00
 Leave Link 1102 at Fri Mar  8 05:24:16 2019, MaxMem=    33554432 cpu:         1.3
 (Enter /home/proyectos/fulerenos/M3C-v2.0/M3C-deps_CCC/g09-AM64L-G09RevC.01/l1110.exe)
 Forming Gx(P) for the SCF density, NAtomX=     3.
 Integral derivatives from FoFJK, PRISM(SPDF).
 Do as many integral derivatives as possible in FoFJK.
 G2DrvN: MDV=      33554304.
 G2DrvN: will do     4 centers at a time, making    1 passes.
 Calling FoFCou, ICntrl=  3107 FMM=F I1Cent=   0 AccDes= 0.00D+00.
 FoFJK:  IHMeth= 1 ICntrl=    3107 DoSepK=F KAlg= 0 I1Cent=   0 FoldK=F
 IRaf=         0 NMat=   1 IRICut=       1 DoRegI=T DoRafI=F ISym2E= 1.
 FoFCou: FMM=F IPFlag=           0 FMFlag=      100000 FMFlg1=           0
         NFxFlg=           0 DoJE=F BraDBF=F KetDBF=F FulRan=T
         wScrn=  0.000000 ICntrl=    3107 IOpCl=  1 I1Cent=           0 NGrid=           0
         NMat0=    1 NMatS0=      1 NMatT0=    0 NMatD0=    1 NMtDS0=    0 NMtDT0=    0
 Petite list used in FoFCou.
 End of G2Drv F.D. properties file   721 does not exist.
 End of G2Drv F.D. properties file   722 does not exist.
 End of G2Drv F.D. properties file   788 does not exist.
 Leave Link 1110 at Fri Mar  8 05:24:27 2019, MaxMem=    33554432 cpu:        16.4
 (Enter /home/proyectos/fulerenos/M3C-v2.0/M3C-deps_CCC/g09-AM64L-G09RevC.01/l1002.exe)
 Minotr:  UHF open shell wavefunction.
          IDoAtm=111
          Direct CPHF calculation.
          Differentiating once with respect to electric field.
                with respect to dipole field.
          Differentiating once with respect to nuclear coordinates.
          Using symmetry in CPHF.
          Requested convergence is 1.0D-08 RMS, and 1.0D-07 maximum.
          Secondary convergence is 1.0D-12 RMS, and 1.0D-12 maximum.
          NewPWx=T KeepS1=F KeepF1=F KeepIn=T MapXYZ=F SortEE=F KeepMc=T.
          MDV=      33554222 using IRadAn=       2.
 Generate precomputed XC quadrature information.
 Keep R1 and R2 ints in memory in symmetry-blocked form, NReq=11749863.
 FoFCou: FMM=F IPFlag=           0 FMFlag=           0 FMFlg1=           0
         NFxFlg=           0 DoJE=F BraDBF=F KetDBF=F FulRan=T
         wScrn=  0.000000 ICntrl=     600 IOpCl=  0 I1Cent=           0 NGrid=           0
         NMat0=    1 NMatS0=   3916 NMatT0=    0 NMatD0=    1 NMtDS0=    0 NMtDT0=    0
 Petite list used in FoFCou.
          Solving linear equations simultaneously, MaxMat=       0.
          There are    12 degrees of freedom in the 1st order CPHF.  IDoFFX=6 NUNeed=     3.
      9 vectors produced by pass  0 Test12= 1.06D-14 8.33D-09 XBig12= 1.14D+03 3.17D+01.
 AX will form     9 AO Fock derivatives at one time.
      9 vectors produced by pass  1 Test12= 1.06D-14 8.33D-09 XBig12= 9.37D+01 4.08D+00.
      9 vectors produced by pass  2 Test12= 1.06D-14 8.33D-09 XBig12= 1.20D+01 1.27D+00.
      9 vectors produced by pass  3 Test12= 1.06D-14 8.33D-09 XBig12= 4.64D-01 1.89D-01.
      9 vectors produced by pass  4 Test12= 1.06D-14 8.33D-09 XBig12= 4.32D-03 2.01D-02.
      9 vectors produced by pass  5 Test12= 1.06D-14 8.33D-09 XBig12= 4.20D-05 1.86D-03.
      9 vectors produced by pass  6 Test12= 1.06D-14 8.33D-09 XBig12= 1.86D-07 1.16D-04.
      8 vectors produced by pass  7 Test12= 1.06D-14 8.33D-09 XBig12= 7.00D-10 5.95D-06.
      3 vectors produced by pass  8 Test12= 1.06D-14 8.33D-09 XBig12= 5.35D-12 5.72D-07.
      2 vectors produced by pass  9 Test12= 1.06D-14 8.33D-09 XBig12= 3.24D-14 4.85D-08.
 InvSVY:  IOpt=1 It=  1 EMax= 1.52D-15
 Solved reduced A of dimension    76 with     9 vectors.
 FullF1:  Do perturbations    1 to     3.
 Isotropic polarizability for W=    0.000000     -713.16 Bohr**3.
 End of Minotr F.D. properties file   721 does not exist.
 End of Minotr F.D. properties file   722 does not exist.
 End of Minotr F.D. properties file   788 does not exist.
 Leave Link 1002 at Fri Mar  8 05:24:44 2019, MaxMem=    33554432 cpu:        31.2
 (Enter /home/proyectos/fulerenos/M3C-v2.0/M3C-deps_CCC/g09-AM64L-G09RevC.01/l601.exe)
 Copying SCF densities to generalized density rwf, IOpCl= 1 IROHF=0.

 **********************************************************************

            Population analysis using the SCF density.

 **********************************************************************

 Orbital symmetries:
 Alpha Orbitals:
       Occupied  (A') (A') (A') (A') (A') (A") (A') (A') (A")
       Virtual   (A') (A') (A') (A") (A') (A') (A') (A") (A') (A')
                 (A") (A') (A') (A') (A") (A') (A") (A') (A') (A')
                 (A') (A") (A') (A") (A") (A') (A') (A') (A') (A")
                 (A') (A') (A") (A') (A") (A') (A') (A') (A') (A")
                 (A") (A') (A') (A") (A") (A') (A') (A') (A") (A')
                 (A') (A') (A") (A") (A') (A') (A') (A") (A") (A')
                 (A') (A") (A') (A') (A") (A') (A') (A") (A') (A")
                 (A') (A') (A") (A') (A") (A') (A') (A') (A')
 Beta  Orbitals:
       Occupied  (A') (A') (A') (A') (A') (A") (A')
       Virtual   (A') (A') (A") (A') (A') (A") (A') (A') (A') (A")
                 (A') (A') (A") (A') (A') (A') (A") (A') (A') (A")
                 (A') (A') (A') (A") (A') (A") (A') (A") (A') (A')
                 (A') (A") (A') (A') (A") (A') (A") (A') (A') (A')
                 (A') (A") (A") (A') (A') (A") (A") (A') (A') (A')
                 (A") (A') (A') (A') (A") (A") (A') (A') (A') (A")
                 (A') (A") (A') (A") (A') (A') (A") (A') (A') (A")
                 (A') (A") (A') (A') (A") (A') (A") (A') (A') (A')
                 (A')
 The electronic state is 3-A".
 Alpha  occ. eigenvalues --  -18.89311  -9.98425  -0.79535  -0.35784  -0.22066
 Alpha  occ. eigenvalues --   -0.15980  -0.15414   0.03333   0.10373
 Alpha virt. eigenvalues --    0.13829   0.19259   0.21423   0.22084   0.26087
 Alpha virt. eigenvalues --    0.34308   0.35437   0.38956   0.39997   0.42411
 Alpha virt. eigenvalues --    0.52557   0.56519   0.56600   0.62588   0.64888
 Alpha virt. eigenvalues --    0.74179   0.76713   0.77712   0.86401   0.89107
 Alpha virt. eigenvalues --    0.99818   1.04377   1.16010   1.19770   1.22669
 Alpha virt. eigenvalues --    1.22879   1.24050   1.30466   1.43703   1.44481
 Alpha virt. eigenvalues --    1.55238   1.60676   1.84556   1.93104   2.05481
 Alpha virt. eigenvalues --    2.15208   2.27139   2.36373   2.74079   2.96010
 Alpha virt. eigenvalues --    3.06510   3.06772   3.13830   3.15341   3.17152
 Alpha virt. eigenvalues --    3.23038   3.38240   3.66512   3.68981   3.69666
 Alpha virt. eigenvalues --    3.84644   4.10108   4.22968   4.36509   4.52061
 Alpha virt. eigenvalues --    4.63290   5.23159   5.27673   5.33246   5.33860
 Alpha virt. eigenvalues --    5.39834   5.61526   5.68892   5.80336   6.40640
 Alpha virt. eigenvalues --    6.46929   6.50247   7.20759   7.26795   7.47132
 Alpha virt. eigenvalues --    7.85012   7.91824  14.50813  14.52245  14.82195
 Alpha virt. eigenvalues --   14.85002  15.08295  24.86787  50.51142
  Beta  occ. eigenvalues --  -18.87674  -9.96905  -0.76342  -0.31309  -0.19294
  Beta  occ. eigenvalues --   -0.10760  -0.09804
  Beta virt. eigenvalues --    0.14117   0.15795   0.19193   0.19300   0.23168
  Beta virt. eigenvalues --    0.26981   0.27489   0.35689   0.36173   0.39440
  Beta virt. eigenvalues --    0.40646   0.43074   0.54721   0.57777   0.58865
  Beta virt. eigenvalues --    0.64992   0.67638   0.77419   0.79556   0.79655
  Beta virt. eigenvalues --    0.88586   0.90507   1.01119   1.05985   1.17616
  Beta virt. eigenvalues --    1.21563   1.24611   1.24763   1.25269   1.31777
  Beta virt. eigenvalues --    1.46367   1.46603   1.57913   1.62076   1.89982
  Beta virt. eigenvalues --    1.98145   2.08943   2.17351   2.29588   2.38377
  Beta virt. eigenvalues --    2.76868   3.00824   3.11384   3.11954   3.17161
  Beta virt. eigenvalues --    3.18697   3.20102   3.27243   3.41447   3.69074
  Beta virt. eigenvalues --    3.73416   3.73700   3.87529   4.12888   4.25952
  Beta virt. eigenvalues --    4.39689   4.53998   4.66119   5.26506   5.31318
  Beta virt. eigenvalues --    5.36765   5.36984   5.43660   5.64278   5.71051
  Beta virt. eigenvalues --    5.83145   6.42859   6.48890   6.52728   7.27023
  Beta virt. eigenvalues --    7.33232   7.51048   7.87668   7.94899  14.57067
  Beta virt. eigenvalues --   14.58524  14.85704  14.88732  15.11133  24.88474
  Beta virt. eigenvalues --   50.52763
          Condensed to atoms (all electrons):
               1          2          3
     1  C    7.491160  -0.423883  -0.451667
     2  H   -0.423883   1.316249   0.030669
     3  O   -0.451667   0.030669   8.882353
          Atomic-Atomic Spin Densities.
               1          2          3
     1  C    3.301007  -0.847851  -0.903157
     2  H   -0.847851   0.876544   0.085268
     3  O   -0.903157   0.085268   1.153928
 Mulliken charges and spin densities:
               1          2
     1  C   -0.615610   1.550000
     2  H    0.076965   0.113962
     3  O   -0.461355   0.336039
 Sum of Mulliken charges =  -1.00000   2.00000
 Mulliken charges and spin densities with hydrogens summed into heavy atoms:
               1          2
     1  C   -0.538645   1.663961
     3  O   -0.461355   0.336039
 APT charges:
               1
     1  C    0.108030
     2  H   -0.164366
     3  O   -0.943664
 Sum of APT charges =  -1.00000
 APT charges with hydrogens summed into heavy atoms:
               1
     1  C   -0.056336
     3  O   -0.943664
 Electronic spatial extent (au):  <R**2>=             72.0848
 Charge=             -1.0000 electrons
 Dipole moment (field-independent basis, Debye):
    X=             -0.9890    Y=              1.2846    Z=             -0.0000  Tot=              1.6212
 Quadrupole moment (field-independent basis, Debye-Ang):
   XX=            -17.2812   YY=            -20.7386   ZZ=            -21.2809
   XY=              0.8736   XZ=              0.0000   YZ=              0.0000
 Traceless Quadrupole moment (field-independent basis, Debye-Ang):
   XX=              2.4857   YY=             -0.9717   ZZ=             -1.5140
   XY=              0.8736   XZ=              0.0000   YZ=              0.0000
 Octapole moment (field-independent basis, Debye-Ang**2):
  XXX=             -1.2077  YYY=             14.5854  ZZZ=             -0.0000  XYY=             -1.5616
  XXY=              5.8719  XXZ=             -0.0000  XZZ=             -0.8404  YZZ=              9.8341
  YYZ=             -0.0000  XYZ=              0.0000
 Hexadecapole moment (field-independent basis, Debye-Ang**3):
 XXXX=            -42.1769 YYYY=            -87.0710 ZZZZ=            -74.1584 XXXY=             -2.2707
 XXXZ=              0.0000 YYYX=             -0.9253 YYYZ=              0.0000 ZZZX=              0.0000
 ZZZY=              0.0000 XXYY=            -23.0834 XXZZ=            -19.3107 YYZZ=            -30.6946
 XXYZ=              0.0000 YYXZ=              0.0000 ZZXY=             -0.1910
 N-N= 2.521937482601D+01 E-N=-3.225076885722D+02  KE= 1.134958725833D+02
 Symmetry A'   KE= 1.084204936187D+02
 Symmetry A"   KE= 5.075378964639D+00
  Exact polarizability:  40.641   3.387  41.429  -0.000   0.000********
 Approx polarizability:  40.688   4.241  52.877  -0.000  -0.000 120.973
                          Isotropic Fermi Contact Couplings
        Atom                 a.u.       MegaHertz       Gauss      10(-4) cm-1
     1  C(13)              0.32623     183.37032      65.43109      61.16575
     2  H(1)               0.05352     119.62075      42.68366      39.90119
     3  O(17)              0.09238     -27.99953      -9.99093      -9.33964
 --------------------------------------------------------
       Center         ----  Spin Dipole Couplings  ----
                      3XX-RR        3YY-RR        3ZZ-RR
 --------------------------------------------------------
     1   Atom        0.041578     -0.384182      0.342604
     2   Atom        0.022371     -0.010478     -0.011894
     3   Atom        0.664802     -1.192569      0.527767
 --------------------------------------------------------
                        XY            XZ            YZ
 --------------------------------------------------------
     1   Atom       -0.360517     -0.000000     -0.000000
     2   Atom        0.058258     -0.000000     -0.000000
     3   Atom       -0.490994      0.000000     -0.000000
 --------------------------------------------------------


 ---------------------------------------------------------------------------------
              Anisotropic Spin Dipole Couplings in Principal Axis System
 ---------------------------------------------------------------------------------

       Atom             a.u.   MegaHertz   Gauss  10(-4) cm-1        Axes

              Baa    -0.5900   -79.170   -28.250   -26.408  0.4958  0.8685 -0.0000
     1 C(13)  Bbb     0.2474    33.195    11.845    11.073  0.8685 -0.4958 -0.0000
              Bcc     0.3426    45.974    16.405    15.335  0.0000  0.0000  1.0000
 
              Baa    -0.0546   -29.122   -10.392    -9.714 -0.6036  0.7973 -0.0000
     2 H(1)   Bbb    -0.0119    -6.346    -2.264    -2.117  0.0000  0.0000  1.0000
              Bcc     0.0665    35.468    12.656    11.831  0.7973  0.6036 -0.0000
 
              Baa    -1.3144    95.107    33.937    31.724  0.2408  0.9706 -0.0000
     3 O(17)  Bbb     0.5278   -38.189   -13.627   -12.738  0.0000  0.0000  1.0000
              Bcc     0.7866   -56.918   -20.310   -18.986  0.9706 -0.2408  0.0000
 

 ---------------------------------------------------------------------------------

 No NMR shielding tensors so no spin-rotation constants.
 Leave Link  601 at Fri Mar  8 05:24:45 2019, MaxMem=    33554432 cpu:         0.8
 (Enter /home/proyectos/fulerenos/M3C-v2.0/M3C-deps_CCC/g09-AM64L-G09RevC.01/l701.exe)
 Compute integral second derivatives.
 ... and contract with generalized density number  0.
 Leave Link  701 at Fri Mar  8 05:24:46 2019, MaxMem=    33554432 cpu:         1.9
 (Enter /home/proyectos/fulerenos/M3C-v2.0/M3C-deps_CCC/g09-AM64L-G09RevC.01/l702.exe)
 L702 exits ... SP integral derivatives will be done elsewhere.
 Leave Link  702 at Fri Mar  8 05:24:46 2019, MaxMem=    33554432 cpu:         0.1
 (Enter /home/proyectos/fulerenos/M3C-v2.0/M3C-deps_CCC/g09-AM64L-G09RevC.01/l703.exe)
 Compute integral second derivatives, UseDBF=F ICtDFT=           0.
 Integral derivatives from FoFJK, PRISM(SPDF).
 Calling FoFJK, ICntrl=    100127 FMM=F ISym2X=1 I1Cent= 0 IOpClX= 1 NMat=1 NMatS=1 NMatT=0.
 FoFJK:  IHMeth= 1 ICntrl=  100127 DoSepK=F KAlg= 0 I1Cent=   0 FoldK=F
 IRaf=         0 NMat=   1 IRICut=       1 DoRegI=T DoRafI=F ISym2E= 1.
 FoFCou: FMM=F IPFlag=           0 FMFlag=      100000 FMFlg1=         800
         NFxFlg=           0 DoJE=F BraDBF=F KetDBF=F FulRan=T
         wScrn=  0.000000 ICntrl=  100127 IOpCl=  1 I1Cent=           0 NGrid=           0
         NMat0=    1 NMatS0=      1 NMatT0=    0 NMatD0=    1 NMtDS0=    0 NMtDT0=    0
 Petite list used in FoFCou.
 Leave Link  703 at Fri Mar  8 05:25:10 2019, MaxMem=    33554432 cpu:        46.2
 (Enter /home/proyectos/fulerenos/M3C-v2.0/M3C-deps_CCC/g09-AM64L-G09RevC.01/l716.exe)
 Dipole        =-3.89096823D-01 5.05396714D-01-5.63673718D-32
 Polarizability= 4.06410348D+01 3.38706054D+00 4.14289007D+01
                -1.09279807D-05 2.71627109D-05-2.22153736D+03
 Full mass-weighted force constant matrix:
 Low frequencies ---  -19.1388   -0.0011    0.0003    0.0010   14.6123   20.6385
 Low frequencies --- 1027.5171 1443.5427 2697.5590
 Diagonal vibrational polarizability:
        1.6811700       6.1882464       0.0000000
 Harmonic frequencies (cm**-1), IR intensities (KM/Mole), Raman scattering
 activities (A**4/AMU), depolarization ratios for plane and unpolarized
 incident light, reduced masses (AMU), force constants (mDyne/A),
 and normal coordinates:
                      1                      2                      3
                     A'                     A'                     A'
 Frequencies --   1027.5171              1443.5427              2697.5590
 Red. masses --      1.2348                11.5937                 1.0799
 Frc consts  --      0.7681                14.2342                 4.6300
 IR Inten    --     17.3601               426.2167               519.8725
  Atom  AN      X      Y      Z        X      Y      Z        X      Y      Z
     1   6     0.12  -0.03  -0.00    -0.02   0.73  -0.00    -0.07  -0.05   0.00
     2   1    -0.54   0.83  -0.00     0.28   0.27  -0.00     0.79   0.60  -0.00
     3   8    -0.06  -0.03   0.00    -0.00  -0.56   0.00    -0.00  -0.00   0.00

 -------------------
 - Thermochemistry -
 -------------------
 Temperature   298.150 Kelvin.  Pressure   1.00000 Atm.
 Atom     1 has atomic number  6 and mass  12.00000
 Atom     2 has atomic number  1 and mass   1.00783
 Atom     3 has atomic number  8 and mass  15.99491
 Molecular mass:    29.00274 amu.
 Principal axes and moments of inertia in atomic units:
                           1         2         3
     Eigenvalues --     2.40502  45.01755  47.42257
           X            0.10120   0.99487   0.00000
           Y            0.99487  -0.10120   0.00000
           Z           -0.00000  -0.00000   1.00000
 This molecule is an asymmetric top.
 Rotational symmetry number  1.
 Rotational temperatures (Kelvin)     36.01375     1.92400     1.82643
 Rotational constants (GHZ):         750.40577    40.08973    38.05659
 Zero-point vibrational energy      30915.2 (Joules/Mol)
                                    7.38891 (Kcal/Mol)
 Vibrational temperatures:   1478.37  2076.93  3881.18
          (Kelvin)
 
 Zero-point correction=                           0.011775 (Hartree/Particle)
 Thermal correction to Energy=                    0.014647
 Thermal correction to Enthalpy=                  0.015591
 Thermal correction to Gibbs Free Energy=        -0.010352
 Sum of electronic and zero-point Energies=           -113.863305
 Sum of electronic and thermal Energies=              -113.860433
 Sum of electronic and thermal Enthalpies=            -113.859489
 Sum of electronic and thermal Free Energies=         -113.885432
 
                     E (Thermal)             CV                S
                      KCal/Mol        Cal/Mol-Kelvin    Cal/Mol-Kelvin
 Total                    9.191              6.402             54.602
 Electronic               0.000              0.000              2.183
 Translational            0.889              2.981             36.028
 Rotational               0.889              2.981             16.292
 Vibrational              7.414              0.440              0.099
                       Q            Log10(Q)             Ln(Q)
 Total Bot       0.577687D+05          4.761693         10.964203
 Total V=0       0.150590D+11         10.177796         23.435242
 Vib (Bot)       0.386695D-05         -5.412631        -12.463044
 Vib (V=0)       0.100803D+01          0.003472          0.007995
 Electronic      0.300000D+01          0.477121          1.098612
 Translational   0.613923D+07          6.788114         15.630210
 Rotational      0.811128D+03          2.909089          6.698426
 
                                                              b3lyp opt
                                                             IR Spectrum
 
     2                                                           1                  1                                                
     6                                                           4                  0                                                
     9                                                           4                  2                                                
     8                                                           4                  8                                                
 
     X                                                           X                  X                                                
     X                                                           X                                                                   
     X                                                           X                                                                   
     X                                                           X                                                                   
     X                                                           X                                                                   
     X                                                           X                                                                   
     X                                                           X                                                                   
     X                                                           X                                                                   
     X                                                           X                                                                   
     X                                                           X                                                                   
     X                                                           X                                                                   
     X                                                           X                                                                   
     X                                                           X                                                                   
     X                                                           X                                                                   
     X                                                           X                                                                   
     X                                                           X                                                                   
     X                                                                                                                               
     X                                                                                                                               
     X                                                                                                                               
     X                                                                                                                               
 
 ***** Axes restored to original set *****
 -------------------------------------------------------------------
 Center     Atomic                   Forces (Hartrees/Bohr)
 Number     Number              X              Y              Z
 -------------------------------------------------------------------
      1        6           0.000147554    0.000162537   -0.000000000
      2        1          -0.000020497   -0.000027803    0.000000000
      3        8          -0.000127057   -0.000134733    0.000000000
 -------------------------------------------------------------------
 Cartesian Forces:  Max     0.000162537 RMS     0.000096425
 Z-matrix is all fixed cartesians, so copy forces.
 Force constants in Cartesian coordinates: 
                1             2             3             4             5 
      1  0.259899D+00
      2  0.140787D+00  0.572201D+00
      3  0.000000D+00  0.000000D+00  0.540451D-04
      4 -0.758575D-01  0.889233D-01  0.000000D+00  0.578019D-01
      5  0.771612D-01 -0.193293D+00  0.000000D+00 -0.718922D-01  0.232787D+00
      6  0.000000D+00  0.000000D+00  0.435882D-05  0.000000D+00  0.000000D+00
      7 -0.184041D+00 -0.229710D+00  0.000000D+00  0.180556D-01 -0.526897D-02
      8 -0.217948D+00 -0.378907D+00  0.000000D+00 -0.170311D-01 -0.394942D-01
      9  0.000000D+00  0.000000D+00 -0.584038D-04  0.000000D+00  0.000000D+00
                6             7             8             9 
      6 -0.134715D-04
      7  0.000000D+00  0.165986D+00
      8  0.000000D+00  0.234979D+00  0.418402D+00
      9  0.911256D-05  0.000000D+00  0.000000D+00  0.492912D-04
 Leave Link  716 at Fri Mar  8 05:25:10 2019, MaxMem=    33554432 cpu:         0.1
 (Enter /home/proyectos/fulerenos/M3C-v2.0/M3C-deps_CCC/g09-AM64L-G09RevC.01/l103.exe)

 GradGradGradGradGradGradGradGradGradGradGradGradGradGradGradGradGradGrad
 Berny optimization.
 Search for a local minimum.
 Step number   1 out of a maximum of    2
 All quantities printed in internal units (Hartrees-Bohrs-Radians)
 Second derivative matrix not updated -- analytic derivatives used.
 The second derivative matrix:
                          X1        Y1        Z1        X2        Y2
           X1           0.25990
           Y1           0.14079   0.57220
           Z1           0.00000   0.00000   0.00005
           X2          -0.07586   0.08892  -0.00000   0.05780
           Y2           0.07716  -0.19329   0.00000  -0.07189   0.23279
           Z2          -0.00000  -0.00000   0.00000   0.00000  -0.00000
           X3          -0.18404  -0.22971  -0.00000   0.01806  -0.00527
           Y3          -0.21795  -0.37891  -0.00000  -0.01703  -0.03949
           Z3           0.00000   0.00000  -0.00006  -0.00000   0.00000
                          Z2        X3        Y3        Z3
           Z2          -0.00001
           X3           0.00000   0.16599
           Y3           0.00000   0.23498   0.41840
           Z3           0.00001  -0.00000  -0.00000   0.00005
 ITU=  0
     Eigenvalues ---    0.10036   0.40205   1.11842
 Angle between quadratic step and forces=  54.41 degrees.
 ClnCor:  largest displacement from symmetrization is 5.42D-20 for atom     1.
 Linear search not attempted -- first point.
 ClnCor:  largest displacement from symmetrization is 4.44D-16 for atom     2.
 B after Tr=    -0.000012    0.000065   -0.000000
         Rot=    1.000000   -0.000000   -0.000000   -0.000030 Ang=  -0.00 deg.
 Variable       Old X    -DE/DX   Delta X   Delta X   Delta X     New X
                                 (Linear)    (Quad)   (Total)
    X1       -0.85196   0.00015   0.00000   0.00036   0.00043  -0.85153
    Y1       -1.33028   0.00016   0.00000   0.00010   0.00012  -1.33016
    Z1        0.00000  -0.00000   0.00000  -0.00000   0.00000   0.00000
    X2       -0.07588  -0.00002   0.00000  -0.00039  -0.00020  -0.07608
    Y2       -3.28991  -0.00003   0.00000  -0.00028  -0.00021  -3.29013
    Z2        0.00000   0.00000   0.00000   0.00000  -0.00000   0.00000
    X3        0.41728  -0.00013   0.00000  -0.00017  -0.00022   0.41705
    Y3        0.65632  -0.00013   0.00000   0.00001   0.00010   0.65641
    Z3       -0.00000   0.00000   0.00000   0.00000  -0.00000  -0.00000
         Item               Value     Threshold  Converged?
 Maximum Force            0.000163     0.000450     YES
 RMS     Force            0.000096     0.000300     YES
 Maximum Displacement     0.000426     0.001800     YES
 RMS     Displacement     0.000195     0.001200     YES
 Predicted change in Energy=-5.417217D-08
 Optimization completed.
    -- Stationary point found.
 GradGradGradGradGradGradGradGradGradGradGradGradGradGradGradGradGradGrad

 Leave Link  103 at Fri Mar  8 05:25:10 2019, MaxMem=    33554432 cpu:         0.1
 (Enter /home/proyectos/fulerenos/M3C-v2.0/M3C-deps_CCC/g09-AM64L-G09RevC.01/l9999.exe)

 Test job not archived.
 1\1\GINC-BLADI17\Freq\UB3LYP\6-311++G(3df,2p)\C1H1O1(1-,3)\ROOT\08-Mar
 -2019\0\\#p b3lyp/6-311++G(3df,2p) freq IOp(2/17=3) IOp(2/18=3)\\b3lyp
  opt\\-1,3\C,-0.450837,-0.703954,0.\H,-0.040154,-1.740946,0.\O,0.22081
 3,0.347307,0.\\Version=EM64L-G09RevE.01\State=3-A"\HF=-113.87508\S2=2.
 007147\S2-1=0.\S2A=2.000023\RMSD=7.666e-09\RMSF=9.642e-05\ZeroPoint=0.
 011775\Thermal=0.0146469\Dipole=0.5999922,0.2164059,0.\DipoleDeriv=-0.
 115118,0.7279791,-0.0000012,0.4268389,1.3154334,-0.0000016,0.,0.,-0.87
 62252,-0.0784006,0.2793373,0.0000001,0.3937818,-0.5307529,-0.0000003,0
 .,0.,0.1160563,-0.8064814,-1.0073165,0.000001,-0.8206206,-1.7846805,0.
 0000019,0.,0.,-0.239831\Polar=37.7959826,-1.0659914,44.2739529,-0.0000
 238,-0.000017,-2221.5373627\PG=CS [SG(C1H1O1)]\NImag=0\\0.25989860,0.1
 4078680,0.57220064,0.,0.,0.00005405,-0.07585747,0.08892328,0.,0.057801
 85,0.07716117,-0.19329325,0.,-0.07189220,0.23278743,0.,0.,0.00000436,0
 .,0.,-0.00001347,-0.18404114,-0.22971008,0.,0.01805561,-0.00526897,0.,
 0.16598553,-0.21794797,-0.37890739,0.,-0.01703108,-0.03949417,0.,0.234
 97905,0.41840157,0.,0.,-0.00005840,0.,0.,0.00000911,0.,0.,0.00004929\\
 -0.00014755,-0.00016254,0.,0.00002050,0.00002780,0.,0.00012706,0.00013
 473,0.\\\@


 FROM AN ANONYMOUS WRITER, ON PERSPECTIVE:

 MAN, DESPITE HIS ARTISTIC PRETENSIONS, HIS SOPHISTICATION AND MANY 
 ACCOMPLISHMENTS, OWES THE FACT OF HIS EXISTENCE TO A SIX-INCH LAYER OF 
 TOPSOIL AND THE FACT THAT IT RAINS.
 Job cpu time:       0 days  0 hours  2 minutes  8.2 seconds.
 File lengths (MBytes):  RWF=      8 Int=      0 D2E=      0 Chk=      2 Scr=      1
 Normal termination of Gaussian 09 at Fri Mar  8 05:25:10 2019.
