 Entering Gaussian System, Link 0=/home/proyectos/fulerenos/M3C-v2.0/M3C-deps_CCC/g09-AM64L-G09RevC.01/g09
 Initial command:
 /home/proyectos/fulerenos/M3C-v2.0/M3C-deps_CCC/g09-AM64L-G09RevC.01/l1.exe "/scratch/naguirre/gaussian/Gau-84730.inp" -scrdir="/scratch/naguirre/gaussian/"
 Entering Link 1 = /home/proyectos/fulerenos/M3C-v2.0/M3C-deps_CCC/g09-AM64L-G09RevC.01/l1.exe PID=     84737.
  
 Copyright (c) 1988,1990,1992,1993,1995,1998,2003,2009,2015,
            Gaussian, Inc.  All Rights Reserved.
  
 This is part of the Gaussian(R) 09 program.  It is based on
 the Gaussian(R) 03 system (copyright 2003, Gaussian, Inc.),
 the Gaussian(R) 98 system (copyright 1998, Gaussian, Inc.),
 the Gaussian(R) 94 system (copyright 1995, Gaussian, Inc.),
 the Gaussian 92(TM) system (copyright 1992, Gaussian, Inc.),
 the Gaussian 90(TM) system (copyright 1990, Gaussian, Inc.),
 the Gaussian 88(TM) system (copyright 1988, Gaussian, Inc.),
 the Gaussian 86(TM) system (copyright 1986, Carnegie Mellon
 University), and the Gaussian 82(TM) system (copyright 1983,
 Carnegie Mellon University). Gaussian is a federally registered
 trademark of Gaussian, Inc.
  
 This software contains proprietary and confidential information,
 including trade secrets, belonging to Gaussian, Inc.
  
 This software is provided under written license and may be
 used, copied, transmitted, or stored only in accord with that
 written license.
  
 The following legend is applicable only to US Government
 contracts under FAR:
  
                    RESTRICTED RIGHTS LEGEND
  
 Use, reproduction and disclosure by the US Government is
 subject to restrictions as set forth in subparagraphs (a)
 and (c) of the Commercial Computer Software - Restricted
 Rights clause in FAR 52.227-19.
  
 Gaussian, Inc.
 340 Quinnipiac St., Bldg. 40, Wallingford CT 06492
  
  
 ---------------------------------------------------------------
 Warning -- This program may not be used in any manner that
 competes with the business of Gaussian, Inc. or will provide
 assistance to any competitor of Gaussian, Inc.  The licensee
 of this program is prohibited from giving any competitor of
 Gaussian, Inc. access to this program.  By using this program,
 the user acknowledges that Gaussian, Inc. is engaged in the
 business of creating and licensing software in the field of
 computational chemistry and represents and warrants to the
 licensee that it is not a competitor of Gaussian, Inc. and that
 it will not use this program in any manner prohibited above.
 ---------------------------------------------------------------
  

 Cite this work as:
 Gaussian 09, Revision E.01,
 M. J. Frisch, G. W. Trucks, H. B. Schlegel, G. E. Scuseria, 
 M. A. Robb, J. R. Cheeseman, G. Scalmani, V. Barone, B. Mennucci, 
 G. A. Petersson, H. Nakatsuji, M. Caricato, X. Li, H. P. Hratchian, 
 A. F. Izmaylov, J. Bloino, G. Zheng, J. L. Sonnenberg, M. Hada, 
 M. Ehara, K. Toyota, R. Fukuda, J. Hasegawa, M. Ishida, T. Nakajima, 
 Y. Honda, O. Kitao, H. Nakai, T. Vreven, J. A. Montgomery, Jr., 
 J. E. Peralta, F. Ogliaro, M. Bearpark, J. J. Heyd, E. Brothers, 
 K. N. Kudin, V. N. Staroverov, T. Keith, R. Kobayashi, J. Normand, 
 K. Raghavachari, A. Rendell, J. C. Burant, S. S. Iyengar, J. Tomasi, 
 M. Cossi, N. Rega, J. M. Millam, M. Klene, J. E. Knox, J. B. Cross, 
 V. Bakken, C. Adamo, J. Jaramillo, R. Gomperts, R. E. Stratmann, 
 O. Yazyev, A. J. Austin, R. Cammi, C. Pomelli, J. W. Ochterski, 
 R. L. Martin, K. Morokuma, V. G. Zakrzewski, G. A. Voth, 
 P. Salvador, J. J. Dannenberg, S. Dapprich, A. D. Daniels, 
 O. Farkas, J. B. Foresman, J. V. Ortiz, J. Cioslowski, 
 and D. J. Fox, Gaussian, Inc., Wallingford CT, 2013.
 
 ******************************************
 Gaussian 09:  EM64L-G09RevE.01 30-Nov-2015
                 6-Mar-2019 
 ******************************************
 %NProcShared=2
 Will use up to    2 processors via shared memory.
 ----------------------------------------------------------
 #p b3lyp/6-311++G(3df,2p) opt(MaxCycles=200) Symmetry=None
 ----------------------------------------------------------
 1/6=200,14=-1,18=20,19=15,26=3,38=1/1,3;
 2/9=110,12=2,15=3,17=6,18=5,40=1/2;
 3/5=4,6=6,7=1216,11=2,16=1,25=1,30=1,71=1,74=-5/1,2,3;
 4//1;
 5/5=2,38=5/2;
 6/7=2,8=2,9=2,10=2,28=1/1;
 7/30=1/1,2,3,16;
 1/6=200,14=-1,18=20,19=15,26=3/3(2);
 2/9=110,15=3/2;
 99//99;
 2/9=110,15=3/2;
 3/5=4,6=6,7=1216,11=2,16=1,25=1,30=1,71=1,74=-5/1,2,3;
 4/5=5,16=3,69=1/1;
 5/5=2,38=5/2;
 7/30=1/1,2,3,16;
 1/6=200,14=-1,18=20,19=15,26=3/3(-5);
 2/9=110,15=3/2;
 6/7=2,8=2,9=2,10=2,19=2,28=1/1;
 99/9=1/99;
 Leave Link    1 at Wed Mar  6 14:33:09 2019, MaxMem=           0 cpu:         0.2
 (Enter /home/proyectos/fulerenos/M3C-v2.0/M3C-deps_CCC/g09-AM64L-G09RevC.01/l101.exe)
 ---------
 b3lyp opt
 ---------
 Symbolic Z-matrix:
 Charge = -1 Multiplicity = 1
 C                     1.16602  -0.92137   0.23145 
 C                     0.12286  -0.45958  -0.32781 
 H                     1.27665  -0.86771   1.31355 
 H                     1.94367  -1.39445  -0.36652 
 H                    -1.62954  -0.44666  -1.02807 
 O                    -0.81941   0.0934   -0.8757 
 
 Add atom      1 valence  3 ND=      2 dihedral       2      1      3      4
 NAtoms=      6 NQM=        6 NQMF=       0 NMMI=      0 NMMIF=      0
                NMic=       0 NMicF=      0.
                    Isotopes and Nuclear Properties:
 (Nuclear quadrupole moments (NQMom) in fm**2, nuclear magnetic moments (NMagM)
  in nuclear magnetons)

  Atom         1           2           3           4           5           6
 IAtWgt=          12          12           1           1           1          16
 AtmWgt=  12.0000000  12.0000000   1.0078250   1.0078250   1.0078250  15.9949146
 NucSpn=           0           0           1           1           1           0
 AtZEff=   0.0000000   0.0000000   0.0000000   0.0000000   0.0000000   0.0000000
 NQMom=    0.0000000   0.0000000   0.0000000   0.0000000   0.0000000   0.0000000
 NMagM=    0.0000000   0.0000000   2.7928460   2.7928460   2.7928460   0.0000000
 AtZNuc=   6.0000000   6.0000000   1.0000000   1.0000000   1.0000000   8.0000000
 Leave Link  101 at Wed Mar  6 14:33:10 2019, MaxMem=    33554432 cpu:         0.4
 (Enter /home/proyectos/fulerenos/M3C-v2.0/M3C-deps_CCC/g09-AM64L-G09RevC.01/l103.exe)

 GradGradGradGradGradGradGradGradGradGradGradGradGradGradGradGradGradGrad
 Berny optimization.
 Initialization pass.
                           ----------------------------
                           !    Initial Parameters    !
                           ! (Angstroms and Degrees)  !
 --------------------------                            --------------------------
 ! Name  Definition              Value          Derivative Info.                !
 --------------------------------------------------------------------------------
 ! R1    R(1,2)                  1.2705         estimate D2E/DX2                !
 ! R2    R(1,3)                  1.0891         estimate D2E/DX2                !
 ! R3    R(1,4)                  1.0891         estimate D2E/DX2                !
 ! R4    R(2,6)                  1.2222         estimate D2E/DX2                !
 ! R5    R(5,6)                  0.9855         estimate D2E/DX2                !
 ! A1    A(2,1,3)              120.1892         estimate D2E/DX2                !
 ! A2    A(2,1,4)              120.1632         estimate D2E/DX2                !
 ! A3    A(3,1,4)              119.6315         estimate D2E/DX2                !
 ! A4    A(2,6,5)              117.0733         estimate D2E/DX2                !
 ! A5    L(1,2,6,4,-1)         179.4938         estimate D2E/DX2                !
 ! A6    L(1,2,6,4,-2)         192.6308         estimate D2E/DX2                !
 ! D1    D(2,1,3,4)            178.5428         estimate D2E/DX2                !
 ! D2    D(3,1,6,5)            -90.9359         estimate D2E/DX2                !
 ! D3    D(4,1,6,5)             90.9474         estimate D2E/DX2                !
 --------------------------------------------------------------------------------
 Trust Radius=3.00D-01 FncErr=1.00D-07 GrdErr=1.00D-06
 Number of steps in this run=    100 maximum allowed number of steps=    100.
 GradGradGradGradGradGradGradGradGradGradGradGradGradGradGradGradGradGrad

 Leave Link  103 at Wed Mar  6 14:33:11 2019, MaxMem=    33554432 cpu:         0.2
 (Enter /home/proyectos/fulerenos/M3C-v2.0/M3C-deps_CCC/g09-AM64L-G09RevC.01/l202.exe)
                          Input orientation:                          
 ---------------------------------------------------------------------
 Center     Atomic      Atomic             Coordinates (Angstroms)
 Number     Number       Type             X           Y           Z
 ---------------------------------------------------------------------
      1          6           0        1.166022   -0.921374    0.231452
      2          6           0        0.122855   -0.459581   -0.327805
      3          1           0        1.276645   -0.867713    1.313548
      4          1           0        1.943668   -1.394449   -0.366515
      5          1           0       -1.629541   -0.446655   -1.028072
      6          8           0       -0.819412    0.093400   -0.875703
 ---------------------------------------------------------------------
                    Distance matrix (angstroms):
                    1          2          3          4          5
     1  C    0.000000
     2  C    1.270519   0.000000
     3  H    1.089059   2.047399   0.000000
     4  H    1.089081   2.047153   1.882812   0.000000
     5  H    3.102730   1.887176   3.755848   3.755502   0.000000
     6  O    2.489479   1.222230   3.179625   3.179242   0.985487
                    6
     6  O    0.000000
 Symmetry turned off by external request.
 Stoichiometry    C2H3O
 Rotational constants (GHZ):    204.6332001      9.4719637      9.2801114
 Leave Link  202 at Wed Mar  6 14:33:12 2019, MaxMem=    33554432 cpu:         0.3
 (Enter /home/proyectos/fulerenos/M3C-v2.0/M3C-deps_CCC/g09-AM64L-G09RevC.01/l301.exe)
 Standard basis: 6-311++G(3df,2p) (5D, 7F)
 Ernie: Thresh=  0.10000D-02 Tol=  0.10000D-05 Strict=F.
   147 basis functions,   210 primitive gaussians,   165 cartesian basis functions
    12 alpha electrons       12 beta electrons
       nuclear repulsion energy        65.1393034140 Hartrees.
 IExCor=  402 DFT=T Ex+Corr=B3LYP ExCW=0 ScaHFX=  0.200000
 ScaDFX=  0.800000  0.720000  1.000000  0.810000 ScalE2=  1.000000  1.000000
 IRadAn=      0 IRanWt=     -1 IRanGd=            0 ICorTp=0 IEmpDi=  4
 NAtoms=    6 NActive=    6 NUniq=    6 SFac= 1.00D+00 NAtFMM=   60 NAOKFM=F Big=F
 Integral buffers will be    131072 words long.
 Raffenetti 2 integral format.
 Two-electron integral symmetry is turned off.
 Leave Link  301 at Wed Mar  6 14:33:13 2019, MaxMem=    33554432 cpu:         0.9
 (Enter /home/proyectos/fulerenos/M3C-v2.0/M3C-deps_CCC/g09-AM64L-G09RevC.01/l302.exe)
 NPDir=0 NMtPBC=     1 NCelOv=     1 NCel=       1 NClECP=     1 NCelD=      1
         NCelK=      1 NCelE2=     1 NClLst=     1 CellRange=     0.0.
 One-electron integrals computed using PRISM.
 NBasis=   147 RedAO= T EigKep=  2.63D-05  NBF=   147
 NBsUse=   147 1.00D-06 EigRej= -1.00D+00 NBFU=   147
 Precomputing XC quadrature grid using
 IXCGrd= 4 IRadAn=           0 IRanWt=          -1 IRanGd=           0 AccXCQ= 0.00D+00.
 Generated NRdTot=       0 NPtTot=           0 NUsed=           0 NTot=          32
 NSgBfM=   165   165   165   165   165 MxSgAt=     6 MxSgA2=     6.
 Leave Link  302 at Wed Mar  6 14:33:17 2019, MaxMem=    33554432 cpu:         2.3
 (Enter /home/proyectos/fulerenos/M3C-v2.0/M3C-deps_CCC/g09-AM64L-G09RevC.01/l303.exe)
 DipDrv:  MaxL=1.
 Leave Link  303 at Wed Mar  6 14:33:19 2019, MaxMem=    33554432 cpu:         0.6
 (Enter /home/proyectos/fulerenos/M3C-v2.0/M3C-deps_CCC/g09-AM64L-G09RevC.01/l401.exe)
 ExpMin= 3.60D-02 ExpMax= 8.59D+03 ExpMxC= 1.30D+03 IAcc=3 IRadAn=         5 AccDes= 0.00D+00
 Harris functional with IExCor=  402 and IRadAn=       5 diagonalized for initial guess.
 HarFok:  IExCor=  402 AccDes= 0.00D+00 IRadAn=         5 IDoV= 1 UseB2=F ITyADJ=14
 ICtDFT=  3500011 ScaDFX=  1.000000  1.000000  1.000000  1.000000
 FoFCou: FMM=F IPFlag=           0 FMFlag=      100000 FMFlg1=           0
         NFxFlg=           0 DoJE=T BraDBF=F KetDBF=T FulRan=T
         wScrn=  0.000000 ICntrl=     500 IOpCl=  0 I1Cent=   200000004 NGrid=           0
         NMat0=    1 NMatS0=      1 NMatT0=    0 NMatD0=    1 NMtDS0=    0 NMtDT0=    0
 Symmetry not used in FoFCou.
 Harris En= -153.348862243123    
 JPrj=0 DoOrth=F DoCkMO=F.
 Leave Link  401 at Wed Mar  6 14:33:25 2019, MaxMem=    33554432 cpu:         6.7
 (Enter /home/proyectos/fulerenos/M3C-v2.0/M3C-deps_CCC/g09-AM64L-G09RevC.01/l502.exe)
 Closed shell SCF:
 Using DIIS extrapolation, IDIIS=  1040.
 Two-electron integral symmetry not used.
 IVT=      102217 IEndB=      102217 NGot=    33554432 MDV=    33496246
 LenX=    33496246 LenY=    33468580
 Requested convergence on RMS density matrix=1.00D-08 within 128 cycles.
 Requested convergence on MAX density matrix=1.00D-06.
 Requested convergence on             energy=1.00D-06.
 No special actions if energy rises.
 Fock matrices will be formed incrementally for  20 cycles.

 Cycle   1  Pass 1  IDiag  1:
 FoFJK:  IHMeth= 1 ICntrl=       0 DoSepK=F KAlg= 0 I1Cent=   0 FoldK=F
 IRaf= 990000000 NMat=   1 IRICut=       1 DoRegI=T DoRafI=F ISym2E= 0.
 FoFCou: FMM=F IPFlag=           0 FMFlag=      100000 FMFlg1=           0
         NFxFlg=           0 DoJE=F BraDBF=F KetDBF=F FulRan=T
         wScrn=  0.000000 ICntrl=       0 IOpCl=  0 I1Cent=           0 NGrid=           0
         NMat0=    1 NMatS0=      1 NMatT0=    0 NMatD0=    1 NMtDS0=    0 NMtDT0=    0
 Symmetry not used in FoFCou.
 E= -152.762600169336    
 DIIS: error= 4.64D-02 at cycle   1 NSaved=   1.
 NSaved= 1 IEnMin= 1 EnMin= -152.762600169336     IErMin= 1 ErrMin= 4.64D-02
 ErrMax= 4.64D-02  0.00D+00 EMaxC= 1.00D-01 BMatC= 2.87D-01 BMatP= 2.87D-01
 IDIUse=3 WtCom= 5.36D-01 WtEn= 4.64D-01
 Coeff-Com:  0.100D+01
 Coeff-En:   0.100D+01
 Coeff:      0.100D+01
 Gap=     0.108 Goal=   None    Shift=    0.000
 GapD=    0.108 DampG=1.000 DampE=0.500 DampFc=0.5000 IDamp=-1.
 Damping current iteration by 5.00D-01
 RMSDP=1.39D+00 MaxDP=1.23D+02              OVMax= 9.91D-01

 Cycle   2  Pass 1  IDiag  1:
 RMSU=  6.88D-01    CP:  3.00D+00
 E= -152.473169031478     Delta-E=        0.289431137858 Rises=F Damp=T
 DIIS: error= 3.98D-02 at cycle   2 NSaved=   2.
 NSaved= 2 IEnMin= 1 EnMin= -152.762600169336     IErMin= 2 ErrMin= 3.98D-02
 ErrMax= 3.98D-02  0.00D+00 EMaxC= 1.00D-01 BMatC= 1.28D-01 BMatP= 2.87D-01
 IDIUse=3 WtCom= 6.02D-01 WtEn= 3.98D-01
 Coeff-Com:  0.384D+00 0.616D+00
 Coeff-En:   0.656D+00 0.344D+00
 Coeff:      0.492D+00 0.508D+00
 Gap=     0.020 Goal=   None    Shift=    0.000
 RMSDP=6.95D-01 MaxDP=6.14D+01 DE= 2.89D-01 OVMax= 9.87D-01

 Cycle   3  Pass 1  IDiag  1:
 RMSU=  1.48D-02    CP:  9.94D-01 -5.55D-04
 E= -153.029634419383     Delta-E=       -0.556465387906 Rises=F Damp=F
 DIIS: error= 1.60D-02 at cycle   3 NSaved=   3.
 NSaved= 3 IEnMin= 3 EnMin= -153.029634419383     IErMin= 3 ErrMin= 1.60D-02
 ErrMax= 1.60D-02  0.00D+00 EMaxC= 1.00D-01 BMatC= 3.04D-02 BMatP= 1.28D-01
 IDIUse=3 WtCom= 8.40D-01 WtEn= 1.60D-01
 Coeff-Com:  0.124D+00 0.343D+00 0.533D+00
 Coeff-En:   0.000D+00 0.000D+00 0.100D+01
 Coeff:      0.104D+00 0.288D+00 0.608D+00
 Gap=    -0.020 Goal=   None    Shift=    0.000
 RMSDP=4.75D-01 MaxDP=4.05D+01 DE=-5.56D-01 OVMax= 1.00D+00

 Cycle   4  Pass 1  IDiag  1:
 RMSU=  1.14D-01    CP:  3.00D+00  6.61D-01  5.40D-02
 E= -152.925524362292     Delta-E=        0.104110057091 Rises=F Damp=F
 DIIS: error= 3.14D-02 at cycle   4 NSaved=   4.
 NSaved= 4 IEnMin= 3 EnMin= -153.029634419383     IErMin= 3 ErrMin= 1.60D-02
 ErrMax= 3.14D-02  0.00D+00 EMaxC= 1.00D-01 BMatC= 1.08D-01 BMatP= 3.04D-02
 IDIUse=2 WtCom= 0.00D+00 WtEn= 1.00D+00
 Coeff-En:   0.000D+00 0.000D+00 0.628D+00 0.372D+00
 Coeff:      0.000D+00 0.000D+00 0.628D+00 0.372D+00
 Gap=    -0.006 Goal=   None    Shift=    0.000
 RMSDP=4.80D-01 MaxDP=4.05D+01 DE= 1.04D-01 OVMax= 9.99D-01

 Cycle   5  Pass 1  IDiag  1:
 RMSU=  4.00D-02    CP:  1.11D+00 -1.16D-03  3.00D+00 -4.84D-03
 E= -153.066521141119     Delta-E=       -0.140996778827 Rises=F Damp=F
 DIIS: error= 1.06D-02 at cycle   5 NSaved=   5.
 NSaved= 5 IEnMin= 5 EnMin= -153.066521141119     IErMin= 5 ErrMin= 1.06D-02
 ErrMax= 1.06D-02  0.00D+00 EMaxC= 1.00D-01 BMatC= 1.50D-02 BMatP= 3.04D-02
 IDIUse=3 WtCom= 8.94D-01 WtEn= 1.06D-01
 Coeff-Com: -0.419D-01 0.472D-01 0.138D+00 0.197D+00 0.659D+00
 Coeff-En:   0.000D+00 0.000D+00 0.000D+00 0.276D+00 0.724D+00
 Coeff:     -0.375D-01 0.422D-01 0.124D+00 0.205D+00 0.666D+00
 Gap=     0.002 Goal=   None    Shift=    0.000
 RMSDP=3.11D-01 MaxDP=2.48D+01 DE=-1.41D-01 OVMax= 1.00D+00

 Cycle   6  Pass 1  IDiag  1:
 RMSU=  5.19D-02    CP:  3.00D+00  4.05D-01 -9.92D-02  7.42D-01  5.29D-02
 E= -152.992912292124     Delta-E=        0.073608848995 Rises=F Damp=F
 DIIS: error= 2.46D-02 at cycle   6 NSaved=   6.
 NSaved= 6 IEnMin= 5 EnMin= -153.066521141119     IErMin= 5 ErrMin= 1.06D-02
 ErrMax= 2.46D-02  0.00D+00 EMaxC= 1.00D-01 BMatC= 5.34D-02 BMatP= 1.50D-02
 IDIUse=2 WtCom= 0.00D+00 WtEn= 1.00D+00
 Coeff-En:   0.000D+00 0.000D+00 0.000D+00 0.000D+00 0.656D+00 0.344D+00
 Coeff:      0.000D+00 0.000D+00 0.000D+00 0.000D+00 0.656D+00 0.344D+00
 Gap=    -0.008 Goal=   None    Shift=    0.000
 RMSDP=3.10D-01 MaxDP=2.48D+01 DE= 7.36D-02 OVMax= 9.99D-01

 Cycle   7  Pass 1  IDiag  1:
 RMSU=  5.24D-03    CP:  1.12D+00 -8.63D-04  3.00D+00 -3.94D-03  1.00D+00
                    CP:  8.91D-03
 E= -153.064648372447     Delta-E=       -0.071736080323 Rises=F Damp=F
 DIIS: error= 1.20D-02 at cycle   7 NSaved=   7.
 NSaved= 7 IEnMin= 5 EnMin= -153.066521141119     IErMin= 5 ErrMin= 1.06D-02
 ErrMax= 1.20D-02  0.00D+00 EMaxC= 1.00D-01 BMatC= 1.56D-02 BMatP= 1.50D-02
 IDIUse=3 WtCom= 8.94D-01 WtEn= 1.06D-01
 EnCoef did    63 forward-backward iterations
 Coeff-Com: -0.424D-01 0.955D-02-0.262D+00-0.862D-01 0.377D+00 0.379D+00
 Coeff-Com:  0.626D+00
 Coeff-En:   0.000D+00 0.000D+00 0.000D+00 0.000D+00 0.132D-01 0.352D+00
 Coeff-En:   0.635D+00
 Coeff:     -0.379D-01 0.853D-02-0.234D+00-0.770D-01 0.338D+00 0.376D+00
 Coeff:      0.627D+00
 Gap=     0.007 Goal=   None    Shift=    0.000
 RMSDP=1.36D-02 MaxDP=5.96D-01 DE=-7.17D-02 OVMax= 6.82D-02

 Cycle   8  Pass 1  IDiag  1:
 RMSU=  4.72D-03    CP:  1.16D+00  1.25D-03  3.00D+00  2.69D-04  1.14D+00
                    CP:  3.50D-02  3.00D+00
 E= -153.068018946002     Delta-E=       -0.003370573555 Rises=F Damp=F
 DIIS: error= 1.13D-02 at cycle   8 NSaved=   8.
 NSaved= 8 IEnMin= 8 EnMin= -153.068018946002     IErMin= 5 ErrMin= 1.06D-02
 ErrMax= 1.13D-02  0.00D+00 EMaxC= 1.00D-01 BMatC= 1.42D-02 BMatP= 1.50D-02
 IDIUse=3 WtCom= 8.94D-01 WtEn= 1.06D-01
 Coeff-Com: -0.511D-01 0.192D-01-0.249D+00-0.993D-01 0.157D+00 0.372D+00
 Coeff-Com:  0.196D+00 0.655D+00
 Coeff-En:   0.000D+00 0.000D+00 0.000D+00 0.000D+00 0.000D+00 0.341D+00
 Coeff-En:   0.000D+00 0.659D+00
 Coeff:     -0.457D-01 0.172D-01-0.222D+00-0.888D-01 0.140D+00 0.369D+00
 Coeff:      0.175D+00 0.656D+00
 Gap=     0.007 Goal=   None    Shift=    0.000
 RMSDP=4.94D-02 MaxDP=2.47D+00 DE=-3.37D-03 OVMax= 2.10D-01

 Cycle   9  Pass 1  IDiag  1:
 RMSU=  4.00D-02    CP:  1.44D+00  2.95D-02  3.00D+00  5.57D-02  1.19D+00
                    CP:  1.95D-01  3.00D+00  3.00D+00
 E= -153.084832661571     Delta-E=       -0.016813715569 Rises=F Damp=F
 DIIS: error= 8.30D-03 at cycle   9 NSaved=   9.
 NSaved= 9 IEnMin= 9 EnMin= -153.084832661571     IErMin= 9 ErrMin= 8.30D-03
 ErrMax= 8.30D-03  0.00D+00 EMaxC= 1.00D-01 BMatC= 7.58D-03 BMatP= 1.42D-02
 IDIUse=3 WtCom= 9.17D-01 WtEn= 8.30D-02
 Coeff-Com: -0.131D-01 0.656D-02-0.682D-01-0.102D+00 0.568D+00 0.329D+00
 Coeff-Com:  0.706D-01-0.869D+00 0.108D+01
 Coeff-En:   0.000D+00 0.000D+00 0.000D+00 0.000D+00 0.000D+00 0.267D+00
 Coeff-En:   0.000D+00 0.000D+00 0.733D+00
 Coeff:     -0.120D-01 0.601D-02-0.625D-01-0.937D-01 0.521D+00 0.324D+00
 Coeff:      0.647D-01-0.797D+00 0.105D+01
 Gap=     0.006 Goal=   None    Shift=    0.000
 RMSDP=1.98D-01 MaxDP=1.52D+01 DE=-1.68D-02 OVMax= 5.35D-01

 Cycle  10  Pass 1  IDiag  1:
 RMSU=  2.51D-02    CP:  3.00D+00  2.80D-01  1.80D+00  5.08D-01  2.96D-01
                    CP:  2.42D-01  3.00D+00  3.00D+00  2.19D+00
 E= -153.102298694782     Delta-E=       -0.017466033211 Rises=F Damp=F
 DIIS: error= 7.24D-03 at cycle  10 NSaved=  10.
 NSaved=10 IEnMin=10 EnMin= -153.102298694782     IErMin=10 ErrMin= 7.24D-03
 ErrMax= 7.24D-03  0.00D+00 EMaxC= 1.00D-01 BMatC= 5.33D-03 BMatP= 7.58D-03
 IDIUse=3 WtCom= 9.28D-01 WtEn= 7.24D-02
 Coeff-Com: -0.111D-01 0.104D-01 0.208D-02 0.271D-03 0.223D+00-0.442D-01
 Coeff-Com:  0.184D+00-0.771D+00 0.884D+00 0.521D+00
 Coeff-En:   0.000D+00 0.000D+00 0.000D+00 0.000D+00 0.000D+00 0.000D+00
 Coeff-En:   0.000D+00 0.000D+00 0.312D+00 0.688D+00
 Coeff:     -0.103D-01 0.968D-02 0.193D-02 0.251D-03 0.207D+00-0.410D-01
 Coeff:      0.171D+00-0.715D+00 0.843D+00 0.533D+00
 Gap=     0.026 Goal=   None    Shift=    0.000
 RMSDP=2.94D-02 MaxDP=2.38D+00 DE=-1.75D-02 OVMax= 3.03D-02

 Cycle  11  Pass 1  IDiag  1:
 RMSU=  6.29D-03    CP:  3.00D+00  3.19D-01  1.78D+00  5.29D-01  2.67D-01
                    CP:  6.57D-02  3.00D+00  3.00D+00  2.31D+00  1.10D+00
 E= -153.105542919577     Delta-E=       -0.003244224795 Rises=F Damp=F
 DIIS: error= 5.88D-03 at cycle  11 NSaved=  11.
 NSaved=11 IEnMin=11 EnMin= -153.105542919577     IErMin=11 ErrMin= 5.88D-03
 ErrMax= 5.88D-03  0.00D+00 EMaxC= 1.00D-01 BMatC= 3.94D-03 BMatP= 5.33D-03
 IDIUse=3 WtCom= 9.41D-01 WtEn= 5.88D-02
 Coeff-Com: -0.442D-02 0.898D-02 0.271D-01-0.337D-01 0.942D-01-0.210D-01
 Coeff-Com: -0.362D+00 0.189D-01 0.634D+00-0.234D+00 0.872D+00
 Coeff-En:   0.000D+00 0.000D+00 0.000D+00 0.000D+00 0.000D+00 0.000D+00
 Coeff-En:   0.000D+00 0.000D+00 0.241D+00 0.000D+00 0.759D+00
 Coeff:     -0.416D-02 0.846D-02 0.255D-01-0.318D-01 0.886D-01-0.198D-01
 Coeff:     -0.341D+00 0.178D-01 0.611D+00-0.220D+00 0.865D+00
 Gap=     0.029 Goal=   None    Shift=    0.000
 RMSDP=2.82D-02 MaxDP=2.29D+00 DE=-3.24D-03 OVMax= 1.48D-02

 Cycle  12  Pass 1  IDiag  1:
 RMSU=  2.00D-03    CP:  3.00D+00  3.57D-01  1.67D+00  5.55D-01  2.28D-01
                    CP: -1.13D-01  3.00D+00  3.00D+00  2.34D+00  1.18D+00
                    CP:  1.59D+00
 E= -153.106516327806     Delta-E=       -0.000973408229 Rises=F Damp=F
 DIIS: error= 5.58D-03 at cycle  12 NSaved=  12.
 NSaved=12 IEnMin=12 EnMin= -153.106516327806     IErMin=12 ErrMin= 5.58D-03
 ErrMax= 5.58D-03  0.00D+00 EMaxC= 1.00D-01 BMatC= 3.29D-03 BMatP= 3.94D-03
 IDIUse=3 WtCom= 9.44D-01 WtEn= 5.58D-02
 Coeff-Com:  0.533D-03 0.435D-02 0.280D-01-0.328D-01 0.456D-01-0.793D-02
 Coeff-Com: -0.225D+00-0.110D+00 0.609D+00-0.481D+00-0.174D+00 0.134D+01
 Coeff-En:   0.000D+00 0.000D+00 0.000D+00 0.000D+00 0.000D+00 0.000D+00
 Coeff-En:   0.000D+00 0.000D+00 0.211D+00 0.000D+00 0.000D+00 0.789D+00
 Coeff:      0.503D-03 0.411D-02 0.264D-01-0.310D-01 0.431D-01-0.749D-02
 Coeff:     -0.213D+00-0.104D+00 0.587D+00-0.454D+00-0.164D+00 0.131D+01
 Gap=     0.030 Goal=   None    Shift=    0.000
 RMSDP=7.07D-03 MaxDP=3.10D-01 DE=-9.73D-04 OVMax= 2.96D-02

 Cycle  13  Pass 1  IDiag  1:
 RMSU=  3.19D-03    CP:  3.00D+00  3.56D-01  1.59D+00  5.37D-01  2.06D-01
                    CP: -1.10D-01  3.00D+00  3.00D+00  2.26D+00  1.10D+00
                    CP:  2.28D+00  8.61D-01
 E= -153.109263912518     Delta-E=       -0.002747584712 Rises=F Damp=F
 DIIS: error= 4.22D-03 at cycle  13 NSaved=  13.
 NSaved=13 IEnMin=13 EnMin= -153.109263912518     IErMin=13 ErrMin= 4.22D-03
 ErrMax= 4.22D-03  0.00D+00 EMaxC= 1.00D-01 BMatC= 1.95D-03 BMatP= 3.29D-03
 IDIUse=3 WtCom= 9.58D-01 WtEn= 4.22D-02
 Coeff-Com:  0.320D-02 0.236D-02 0.196D-01-0.252D-01 0.108D-02 0.893D-02
 Coeff-Com: -0.713D-01-0.104D+00 0.345D+00-0.191D+00-0.514D+00-0.272D+00
 Coeff-Com:  0.180D+01
 Coeff-En:   0.000D+00 0.000D+00 0.000D+00 0.000D+00 0.000D+00 0.000D+00
 Coeff-En:   0.000D+00 0.000D+00 0.938D-01 0.000D+00 0.000D+00 0.000D+00
 Coeff-En:   0.906D+00
 Coeff:      0.306D-02 0.226D-02 0.187D-01-0.241D-01 0.103D-02 0.856D-02
 Coeff:     -0.683D-01-0.995D-01 0.335D+00-0.183D+00-0.492D+00-0.261D+00
 Coeff:      0.176D+01
 Gap=     0.030 Goal=   None    Shift=    0.000
 RMSDP=2.27D-02 MaxDP=1.22D+00 DE=-2.75D-03 OVMax= 4.63D-02

 Cycle  14  Pass 1  IDiag  1:
 RMSU=  2.10D-03    CP:  3.00D+00  3.34D-01  1.38D+00  4.90D-01  1.60D-01
                    CP: -4.08D-02  3.00D+00  3.00D+00  1.97D+00  9.33D-01
                    CP:  3.00D+00  4.10D-01  2.87D+00
 E= -153.112049340079     Delta-E=       -0.002785427561 Rises=F Damp=F
 DIIS: error= 2.20D-03 at cycle  14 NSaved=  14.
 NSaved=14 IEnMin=14 EnMin= -153.112049340079     IErMin=14 ErrMin= 2.20D-03
 ErrMax= 2.20D-03  0.00D+00 EMaxC= 1.00D-01 BMatC= 5.38D-04 BMatP= 1.95D-03
 IDIUse=3 WtCom= 9.78D-01 WtEn= 2.20D-02
 Coeff-Com:  0.197D-02 0.186D-02 0.901D-02-0.969D-02 0.280D-02 0.119D-01
 Coeff-Com: -0.360D-01 0.426D-01-0.350D-02 0.538D-01 0.429D-01-0.101D+01
 Coeff-Com:  0.473D+00 0.142D+01
 Coeff-En:   0.000D+00 0.000D+00 0.000D+00 0.000D+00 0.000D+00 0.000D+00
 Coeff-En:   0.000D+00 0.000D+00 0.000D+00 0.000D+00 0.000D+00 0.000D+00
 Coeff-En:   0.000D+00 0.100D+01
 Coeff:      0.193D-02 0.182D-02 0.881D-02-0.948D-02 0.274D-02 0.116D-01
 Coeff:     -0.352D-01 0.417D-01-0.343D-02 0.526D-01 0.420D-01-0.989D+00
 Coeff:      0.463D+00 0.141D+01
 Gap=     0.031 Goal=   None    Shift=    0.000
 RMSDP=2.52D-02 MaxDP=1.46D+00 DE=-2.79D-03 OVMax= 4.53D-02

 Cycle  15  Pass 1  IDiag  1:
 RMSU=  6.50D-03    CP:  3.00D+00  3.07D-01  1.16D+00  4.40D-01  1.21D-01
                    CP:  6.59D-02  3.00D+00  3.00D+00  1.66D+00  7.51D-01
                    CP:  3.00D+00 -2.86D-01  3.00D+00  2.83D+00
 E= -153.113055176740     Delta-E=       -0.001005836661 Rises=F Damp=F
 DIIS: error= 6.07D-04 at cycle  15 NSaved=  15.
 NSaved=15 IEnMin=15 EnMin= -153.113055176740     IErMin=15 ErrMin= 6.07D-04
 ErrMax= 6.07D-04  0.00D+00 EMaxC= 1.00D-01 BMatC= 4.18D-05 BMatP= 5.38D-04
 IDIUse=3 WtCom= 9.94D-01 WtEn= 6.07D-03
 Coeff-Com:  0.147D-03-0.161D-03 0.394D-02-0.479D-02-0.894D-02 0.558D-02
 Coeff-Com: -0.355D-01 0.603D-01-0.281D-01-0.199D-01-0.156D-01 0.282D+00
 Coeff-Com: -0.409D+00-0.183D+00 0.135D+01
 Coeff-En:   0.000D+00 0.000D+00 0.000D+00 0.000D+00 0.000D+00 0.000D+00
 Coeff-En:   0.000D+00 0.000D+00 0.000D+00 0.000D+00 0.000D+00 0.000D+00
 Coeff-En:   0.000D+00 0.000D+00 0.100D+01
 Coeff:      0.146D-03-0.160D-03 0.392D-02-0.476D-02-0.889D-02 0.555D-02
 Coeff:     -0.353D-01 0.600D-01-0.279D-01-0.198D-01-0.155D-01 0.280D+00
 Coeff:     -0.407D+00-0.182D+00 0.135D+01
 Gap=     0.032 Goal=   None    Shift=    0.000
 RMSDP=9.34D-03 MaxDP=5.56D-01 DE=-1.01D-03 OVMax= 1.51D-02

 Cycle  16  Pass 1  IDiag  1:
 RMSU=  1.29D-03    CP:  3.00D+00  2.98D-01  1.06D+00  4.24D-01  1.05D-01
                    CP:  9.47D-02  3.00D+00  3.00D+00  1.53D+00  6.96D-01
                    CP:  3.00D+00 -3.76D-01  3.00D+00  3.00D+00  1.31D+00
 E= -153.113126683984     Delta-E=       -0.000071507244 Rises=F Damp=F
 DIIS: error= 6.79D-05 at cycle  16 NSaved=  16.
 NSaved=16 IEnMin=16 EnMin= -153.113126683984     IErMin=16 ErrMin= 6.79D-05
 ErrMax= 6.79D-05  0.00D+00 EMaxC= 1.00D-01 BMatC= 6.44D-07 BMatP= 4.18D-05
 IDIUse=1 WtCom= 1.00D+00 WtEn= 0.00D+00
 Coeff-Com:  0.330D-04-0.851D-04 0.969D-03-0.116D-03-0.162D-02-0.920D-03
 Coeff-Com: -0.179D-02-0.530D-02 0.141D-01-0.689D-02-0.514D-02 0.860D-01
 Coeff-Com: -0.929D-01-0.640D-01 0.234D+00 0.844D+00
 Coeff:      0.330D-04-0.851D-04 0.969D-03-0.116D-03-0.162D-02-0.920D-03
 Coeff:     -0.179D-02-0.530D-02 0.141D-01-0.689D-02-0.514D-02 0.860D-01
 Coeff:     -0.929D-01-0.640D-01 0.234D+00 0.844D+00
 Gap=     0.032 Goal=   None    Shift=    0.000
 RMSDP=1.83D-03 MaxDP=1.56D-01 DE=-7.15D-05 OVMax= 1.76D-03

 Cycle  17  Pass 1  IDiag  1:
 RMSU=  3.21D-04    CP:  3.00D+00  2.95D-01  1.07D+00  4.23D-01  1.06D-01
                    CP:  9.97D-02  3.00D+00  3.00D+00  1.54D+00  7.00D-01
                    CP:  3.00D+00 -3.77D-01  3.00D+00  3.00D+00  1.26D+00
                    CP:  9.07D-01
 E= -153.113127521416     Delta-E=       -0.000000837432 Rises=F Damp=F
 DIIS: error= 5.67D-05 at cycle  17 NSaved=  17.
 NSaved=17 IEnMin=17 EnMin= -153.113127521416     IErMin=17 ErrMin= 5.67D-05
 ErrMax= 5.67D-05  0.00D+00 EMaxC= 1.00D-01 BMatC= 3.51D-07 BMatP= 6.44D-07
 IDIUse=1 WtCom= 1.00D+00 WtEn= 0.00D+00
 Coeff-Com:  0.186D-04 0.165D-04 0.472D-03 0.331D-03 0.208D-02-0.686D-03
 Coeff-Com: -0.114D-02-0.450D-02 0.547D-02-0.231D-02 0.348D-02 0.731D-02
 Coeff-Com: -0.264D-01 0.178D-02 0.403D-01 0.273D-01 0.947D+00
 Coeff:      0.186D-04 0.165D-04 0.472D-03 0.331D-03 0.208D-02-0.686D-03
 Coeff:     -0.114D-02-0.450D-02 0.547D-02-0.231D-02 0.348D-02 0.731D-02
 Coeff:     -0.264D-01 0.178D-02 0.403D-01 0.273D-01 0.947D+00
 Gap=     0.031 Goal=   None    Shift=    0.000
 RMSDP=9.49D-04 MaxDP=7.82D-02 DE=-8.37D-07 OVMax= 1.22D-03

 Cycle  18  Pass 1  IDiag  1:
 RMSU=  3.28D-05    CP:  3.00D+00  2.94D-01  1.08D+00  4.21D-01  1.07D-01
                    CP:  1.03D-01  3.00D+00  3.00D+00  1.54D+00  6.98D-01
                    CP:  3.00D+00 -4.00D-01  3.00D+00  3.00D+00  1.26D+00
                    CP:  9.05D-01  1.16D+00
 E= -153.113128356662     Delta-E=       -0.000000835246 Rises=F Damp=F
 DIIS: error= 1.17D-05 at cycle  18 NSaved=  18.
 NSaved=18 IEnMin=18 EnMin= -153.113128356662     IErMin=18 ErrMin= 1.17D-05
 ErrMax= 1.17D-05  0.00D+00 EMaxC= 1.00D-01 BMatC= 1.75D-08 BMatP= 3.51D-07
 IDIUse=1 WtCom= 1.00D+00 WtEn= 0.00D+00
 Coeff-Com:  0.101D-04-0.417D-05 0.709D-04 0.622D-05 0.955D-04-0.280D-04
 Coeff-Com: -0.455D-03-0.304D-05 0.380D-03-0.409D-03-0.202D-04 0.387D-02
 Coeff-Com: -0.656D-02 0.809D-03-0.338D-02-0.422D-01 0.935D-02 0.104D+01
 Coeff:      0.101D-04-0.417D-05 0.709D-04 0.622D-05 0.955D-04-0.280D-04
 Coeff:     -0.455D-03-0.304D-05 0.380D-03-0.409D-03-0.202D-04 0.387D-02
 Coeff:     -0.656D-02 0.809D-03-0.338D-02-0.422D-01 0.935D-02 0.104D+01
 Gap=     0.031 Goal=   None    Shift=    0.000
 RMSDP=4.03D-04 MaxDP=3.46D-02 DE=-8.35D-07 OVMax= 4.35D-04

 Cycle  19  Pass 1  IDiag  1:
 RMSU=  1.38D-05    CP:  3.00D+00  2.93D-01  1.08D+00  4.20D-01  1.07D-01
                    CP:  1.05D-01  3.00D+00  3.00D+00  1.53D+00  6.97D-01
                    CP:  3.00D+00 -4.06D-01  3.00D+00  3.00D+00  1.26D+00
                    CP:  9.08D-01  1.23D+00  1.48D+00
 E= -153.113128394135     Delta-E=       -0.000000037473 Rises=F Damp=F
 DIIS: error= 5.57D-06 at cycle  19 NSaved=  19.
 NSaved=19 IEnMin=19 EnMin= -153.113128394135     IErMin=19 ErrMin= 5.57D-06
 ErrMax= 5.57D-06  0.00D+00 EMaxC= 1.00D-01 BMatC= 4.01D-09 BMatP= 1.75D-08
 IDIUse=1 WtCom= 1.00D+00 WtEn= 0.00D+00
 Coeff-Com:  0.105D-05 0.304D-05 0.247D-04-0.219D-04-0.233D-04 0.177D-04
 Coeff-Com: -0.339D-04-0.151D-04 0.321D-04 0.274D-03 0.452D-03 0.159D-03
 Coeff-Com: -0.224D-02 0.283D-02 0.378D-02-0.346D-02-0.343D-01 0.202D+00
 Coeff-Com:  0.830D+00
 Coeff:      0.105D-05 0.304D-05 0.247D-04-0.219D-04-0.233D-04 0.177D-04
 Coeff:     -0.339D-04-0.151D-04 0.321D-04 0.274D-03 0.452D-03 0.159D-03
 Coeff:     -0.224D-02 0.283D-02 0.378D-02-0.346D-02-0.343D-01 0.202D+00
 Coeff:      0.830D+00
 Gap=     0.031 Goal=   None    Shift=    0.000
 RMSDP=5.18D-05 MaxDP=2.61D-03 DE=-3.75D-08 OVMax= 1.46D-04

 Cycle  20  Pass 1  IDiag  1:
 RMSU=  2.86D-06    CP:  3.00D+00  2.93D-01  1.08D+00  4.20D-01  1.07D-01
                    CP:  1.05D-01  3.00D+00  3.00D+00  1.54D+00  6.97D-01
                    CP:  3.00D+00 -4.08D-01  3.00D+00  3.00D+00  1.26D+00
                    CP:  9.00D-01  1.25D+00  1.51D+00  1.38D+00
 E= -153.113128402006     Delta-E=       -0.000000007871 Rises=F Damp=F
 DIIS: error= 7.10D-07 at cycle  20 NSaved=  20.
 NSaved=20 IEnMin=20 EnMin= -153.113128402006     IErMin=20 ErrMin= 7.10D-07
 ErrMax= 7.10D-07  0.00D+00 EMaxC= 1.00D-01 BMatC= 5.40D-11 BMatP= 4.01D-09
 IDIUse=1 WtCom= 1.00D+00 WtEn= 0.00D+00
 Coeff-Com:  0.576D-07 0.792D-06-0.111D-04 0.216D-05 0.137D-04 0.293D-05
 Coeff-Com:  0.534D-04 0.506D-06-0.117D-03 0.631D-04 0.179D-03-0.586D-03
 Coeff-Com:  0.238D-03 0.830D-03-0.755D-03-0.109D-02 0.360D-02-0.649D-01
 Coeff-Com: -0.384D-01 0.110D+01
 Coeff:      0.576D-07 0.792D-06-0.111D-04 0.216D-05 0.137D-04 0.293D-05
 Coeff:      0.534D-04 0.506D-06-0.117D-03 0.631D-04 0.179D-03-0.586D-03
 Coeff:      0.238D-03 0.830D-03-0.755D-03-0.109D-02 0.360D-02-0.649D-01
 Coeff:     -0.384D-01 0.110D+01
 Gap=     0.031 Goal=   None    Shift=    0.000
 RMSDP=4.09D-05 MaxDP=3.51D-03 DE=-7.87D-09 OVMax= 3.71D-05

 Cycle  21  Pass 1  IDiag  1:
 Restarting incremental Fock formation.
 E= -153.113128402255     Delta-E=       -0.000000000249 Rises=F Damp=F
 DIIS: error= 2.21D-07 at cycle  21 NSaved=  20.
 NSaved=20 IEnMin=20 EnMin= -153.113128402255     IErMin=20 ErrMin= 2.21D-07
 ErrMax= 2.21D-07  0.00D+00 EMaxC= 1.00D-01 BMatC= 4.88D-12 BMatP= 5.40D-11
 IDIUse=1 WtCom= 1.00D+00 WtEn= 0.00D+00
 Coeff-Com:  0.350D-06-0.345D-05 0.276D-05 0.698D-05-0.319D-05 0.962D-06
 Coeff-Com:  0.480D-05-0.145D-04-0.241D-04-0.422D-04 0.265D-04 0.192D-03
 Coeff-Com: -0.362D-04-0.128D-02 0.429D-03 0.654D-02-0.330D-01-0.862D-01
 Coeff-Com:  0.185D+00 0.929D+00
 Coeff:      0.350D-06-0.345D-05 0.276D-05 0.698D-05-0.319D-05 0.962D-06
 Coeff:      0.480D-05-0.145D-04-0.241D-04-0.422D-04 0.265D-04 0.192D-03
 Coeff:     -0.362D-04-0.128D-02 0.429D-03 0.654D-02-0.330D-01-0.862D-01
 Coeff:      0.185D+00 0.929D+00
 Gap=     0.031 Goal=   None    Shift=    0.000
 RMSDP=8.45D-06 MaxDP=7.62D-04 DE=-2.49D-10 OVMax= 1.36D-05

 Cycle  22  Pass 1  IDiag  1:
 RMSU=  4.16D-06    CP:  1.00D+00
 E= -153.113128402278     Delta-E=       -0.000000000023 Rises=F Damp=F
 DIIS: error= 1.50D-07 at cycle  22 NSaved=  20.
 NSaved=20 IEnMin=20 EnMin= -153.113128402278     IErMin=20 ErrMin= 1.50D-07
 ErrMax= 1.50D-07  0.00D+00 EMaxC= 1.00D-01 BMatC= 2.55D-12 BMatP= 4.88D-12
 IDIUse=1 WtCom= 1.00D+00 WtEn= 0.00D+00
 Coeff-Com:  0.119D-06 0.225D-06 0.209D-05-0.557D-06-0.112D-05-0.189D-05
 Coeff-Com:  0.385D-05-0.573D-05-0.171D-04-0.157D-04 0.735D-04 0.290D-04
 Coeff-Com: -0.192D-03-0.352D-03-0.132D-02-0.238D-02 0.711D-02-0.334D-01
 Coeff-Com:  0.513D-01 0.979D+00
 Coeff:      0.119D-06 0.225D-06 0.209D-05-0.557D-06-0.112D-05-0.189D-05
 Coeff:      0.385D-05-0.573D-05-0.171D-04-0.157D-04 0.735D-04 0.290D-04
 Coeff:     -0.192D-03-0.352D-03-0.132D-02-0.238D-02 0.711D-02-0.334D-01
 Coeff:      0.513D-01 0.979D+00
 Gap=     0.031 Goal=   None    Shift=    0.000
 RMSDP=2.20D-06 MaxDP=1.88D-04 DE=-2.32D-11 OVMax= 2.82D-06

 Cycle  23  Pass 1  IDiag  1:
 RMSU=  5.14D-07    CP:  1.00D+00  1.29D+00
 E= -153.113128402279     Delta-E=       -0.000000000000 Rises=F Damp=F
 DIIS: error= 1.14D-07 at cycle  23 NSaved=  20.
 NSaved=20 IEnMin=20 EnMin= -153.113128402279     IErMin=20 ErrMin= 1.14D-07
 ErrMax= 1.14D-07  0.00D+00 EMaxC= 1.00D-01 BMatC= 1.47D-12 BMatP= 2.55D-12
 IDIUse=1 WtCom= 1.00D+00 WtEn= 0.00D+00
 Coeff-Com:  0.837D-07-0.241D-06-0.566D-07 0.464D-06-0.118D-05 0.202D-05
 Coeff-Com: -0.881D-06-0.834D-05-0.349D-05 0.249D-04-0.142D-05-0.618D-04
 Coeff-Com: -0.831D-04-0.968D-03-0.533D-03 0.631D-02 0.252D-02-0.287D-01
 Coeff-Com:  0.868D-01 0.935D+00
 Coeff:      0.837D-07-0.241D-06-0.566D-07 0.464D-06-0.118D-05 0.202D-05
 Coeff:     -0.881D-06-0.834D-05-0.349D-05 0.249D-04-0.142D-05-0.618D-04
 Coeff:     -0.831D-04-0.968D-03-0.533D-03 0.631D-02 0.252D-02-0.287D-01
 Coeff:      0.868D-01 0.935D+00
 Gap=     0.031 Goal=   None    Shift=    0.000
 RMSDP=9.47D-07 MaxDP=7.32D-05 DE=-4.55D-13 OVMax= 1.86D-06

 Cycle  24  Pass 1  IDiag  1:
 RMSU=  2.56D-07    CP:  1.00D+00  1.30D+00  1.21D+00
 E= -153.113128402282     Delta-E=       -0.000000000004 Rises=F Damp=F
 DIIS: error= 1.60D-08 at cycle  24 NSaved=  20.
 NSaved=20 IEnMin=20 EnMin= -153.113128402282     IErMin=20 ErrMin= 1.60D-08
 ErrMax= 1.60D-08  0.00D+00 EMaxC= 1.00D-01 BMatC= 2.87D-14 BMatP= 1.47D-12
 IDIUse=1 WtCom= 1.00D+00 WtEn= 0.00D+00
 Large coefficients: NSaved= 20 BigCof=    0.00 CofMax=   10.00 Det=-2.35D-15
 Inversion failed.  Reducing to 19 matrices.
 Large coefficients: NSaved= 19 BigCof=    0.00 CofMax=   10.00 Det=-2.35D-15
 Inversion failed.  Reducing to 18 matrices.
 Large coefficients: NSaved= 18 BigCof=    0.00 CofMax=   10.00 Det=-2.46D-15
 Inversion failed.  Reducing to 17 matrices.
 Large coefficients: NSaved= 17 BigCof=    0.00 CofMax=   10.00 Det=-2.53D-15
 Inversion failed.  Reducing to 16 matrices.
 Large coefficients: NSaved= 16 BigCof=    0.00 CofMax=   10.00 Det=-2.60D-15
 Inversion failed.  Reducing to 15 matrices.
 Coeff-Com:  0.197D-06-0.340D-06 0.388D-06-0.169D-05 0.252D-05 0.109D-05
 Coeff-Com:  0.354D-04 0.327D-04-0.476D-03-0.926D-03 0.456D-02 0.112D-01
 Coeff-Com: -0.550D-01-0.881D-01 0.113D+01
 Coeff:      0.197D-06-0.340D-06 0.388D-06-0.169D-05 0.252D-05 0.109D-05
 Coeff:      0.354D-04 0.327D-04-0.476D-03-0.926D-03 0.456D-02 0.112D-01
 Coeff:     -0.550D-01-0.881D-01 0.113D+01
 Gap=     0.031 Goal=   None    Shift=    0.000
 RMSDP=8.82D-08 MaxDP=5.90D-06 DE=-3.58D-12 OVMax= 4.46D-07

 Cycle  25  Pass 1  IDiag  1:
 RMSU=  1.78D-08    CP:  1.00D+00  1.30D+00  1.28D+00  1.10D+00
 E= -153.113128402285     Delta-E=       -0.000000000003 Rises=F Damp=F
 DIIS: error= 2.17D-09 at cycle  25 NSaved=  16.
 NSaved=16 IEnMin=16 EnMin= -153.113128402285     IErMin=16 ErrMin= 2.17D-09
 ErrMax= 2.17D-09  0.00D+00 EMaxC= 1.00D-01 BMatC= 6.48D-16 BMatP= 2.87D-14
 IDIUse=1 WtCom= 1.00D+00 WtEn= 0.00D+00
 Large coefficients: NSaved= 16 BigCof=    0.00 CofMax=   10.00 Det=-8.23D-17
 Inversion failed.  Reducing to 15 matrices.
 Coeff-Com:  0.455D-06-0.346D-06-0.834D-06 0.702D-06 0.499D-05 0.194D-05
 Coeff-Com:  0.117D-04 0.751D-04-0.891D-04-0.613D-03 0.164D-02-0.713D-03
 Coeff-Com: -0.272D-01 0.664D-01 0.961D+00
 Coeff:      0.455D-06-0.346D-06-0.834D-06 0.702D-06 0.499D-05 0.194D-05
 Coeff:      0.117D-04 0.751D-04-0.891D-04-0.613D-03 0.164D-02-0.713D-03
 Coeff:     -0.272D-01 0.664D-01 0.961D+00
 Gap=     0.031 Goal=   None    Shift=    0.000
 RMSDP=1.65D-08 MaxDP=6.68D-07 DE=-2.84D-12 OVMax= 4.19D-08

 Cycle  26  Pass 1  IDiag  1:
 RMSU=  6.67D-09    CP:  1.00D+00  1.30D+00  1.28D+00  1.09D+00  1.45D+00
 E= -153.113128402284     Delta-E=        0.000000000001 Rises=F Damp=F
 DIIS: error= 1.44D-10 at cycle  26 NSaved=  16.
 NSaved=16 IEnMin=15 EnMin= -153.113128402285     IErMin=16 ErrMin= 1.44D-10
 ErrMax= 1.44D-10  0.00D+00 EMaxC= 1.00D-01 BMatC= 3.45D-18 BMatP= 6.48D-16
 IDIUse=1 WtCom= 1.00D+00 WtEn= 0.00D+00
 Large coefficients: NSaved= 16 BigCof=    0.00 CofMax=   10.00 Det=-9.82D-18
 Inversion failed.  Reducing to 15 matrices.
 Coeff-Com: -0.192D-07 0.153D-06-0.389D-06-0.627D-06-0.439D-06 0.188D-05
 Coeff-Com:  0.288D-04-0.270D-04-0.392D-03 0.282D-03 0.306D-02 0.145D-02
 Coeff-Com: -0.329D-01 0.572D-01 0.971D+00
 Coeff:     -0.192D-07 0.153D-06-0.389D-06-0.627D-06-0.439D-06 0.188D-05
 Coeff:      0.288D-04-0.270D-04-0.392D-03 0.282D-03 0.306D-02 0.145D-02
 Coeff:     -0.329D-01 0.572D-01 0.971D+00
 Gap=     0.031 Goal=   None    Shift=    0.000
 RMSDP=1.49D-08 MaxDP=1.09D-06 DE= 6.25D-13 OVMax= 1.02D-08

 Cycle  27  Pass 1  IDiag  1:
 RMSU=  3.19D-10    CP:  1.00D+00  1.30D+00  1.28D+00  1.11D+00  1.58D+00
                    CP:  1.43D+00
 E= -153.113128402287     Delta-E=       -0.000000000002 Rises=F Damp=F
 DIIS: error= 5.50D-11 at cycle  27 NSaved=  16.
 NSaved=16 IEnMin=16 EnMin= -153.113128402287     IErMin=16 ErrMin= 5.50D-11
 ErrMax= 5.50D-11  0.00D+00 EMaxC= 1.00D-01 BMatC= 8.64D-19 BMatP= 3.45D-18
 IDIUse=1 WtCom= 1.00D+00 WtEn= 0.00D+00
 Large coefficients: NSaved= 16 BigCof=    0.00 CofMax=   10.00 Det=-1.75D-18
 Inversion failed.  Reducing to 15 matrices.
 Coeff-Com:  0.576D-07-0.149D-06 0.341D-07-0.193D-06-0.750D-06 0.129D-04
 Coeff-Com:  0.115D-04-0.129D-03-0.153D-03 0.927D-03 0.107D-02-0.209D-01
 Coeff-Com: -0.128D-01 0.381D+00 0.651D+00
 Coeff:      0.576D-07-0.149D-06 0.341D-07-0.193D-06-0.750D-06 0.129D-04
 Coeff:      0.115D-04-0.129D-03-0.153D-03 0.927D-03 0.107D-02-0.209D-01
 Coeff:     -0.128D-01 0.381D+00 0.651D+00
 Gap=     0.031 Goal=   None    Shift=    0.000
 RMSDP=3.15D-09 MaxDP=2.44D-07 DE=-2.22D-12 OVMax= 4.18D-09

 SCF Done:  E(RB3LYP) =  -153.113128402     A.U. after   27 cycles
            NFock= 27  Conv=0.31D-08     -V/T= 2.0014
 KE= 1.529018582400D+02 PE=-4.922447366218D+02 EE= 1.210904465654D+02
 Leave Link  502 at Wed Mar  6 14:35:24 2019, MaxMem=    33554432 cpu:       231.8
 (Enter /home/proyectos/fulerenos/M3C-v2.0/M3C-deps_CCC/g09-AM64L-G09RevC.01/l601.exe)
 Copying SCF densities to generalized density rwf, IOpCl= 0 IROHF=0.

 **********************************************************************

            Population analysis using the SCF density.

 **********************************************************************

 Alpha  occ. eigenvalues --  -19.05087 -10.07375 -10.02468  -0.98393  -0.61553
 Alpha  occ. eigenvalues --   -0.50530  -0.35115  -0.32746  -0.32317  -0.25847
 Alpha  occ. eigenvalues --   -0.12262   0.06128
 Alpha virt. eigenvalues --    0.09276   0.10739   0.12400   0.15295   0.16850
 Alpha virt. eigenvalues --    0.18603   0.19507   0.20051   0.21726   0.23906
 Alpha virt. eigenvalues --    0.25532   0.25865   0.27525   0.29747   0.35121
 Alpha virt. eigenvalues --    0.36182   0.36778   0.39060   0.39767   0.42424
 Alpha virt. eigenvalues --    0.45100   0.50491   0.52240   0.55745   0.57210
 Alpha virt. eigenvalues --    0.59093   0.60868   0.62505   0.65774   0.68494
 Alpha virt. eigenvalues --    0.70433   0.76524   0.77369   0.80525   0.83612
 Alpha virt. eigenvalues --    0.86652   0.89209   0.93884   0.96269   0.98694
 Alpha virt. eigenvalues --    1.02376   1.10167   1.10372   1.10924   1.16684
 Alpha virt. eigenvalues --    1.21006   1.24834   1.26527   1.30672   1.35379
 Alpha virt. eigenvalues --    1.37641   1.39915   1.45879   1.50002   1.50387
 Alpha virt. eigenvalues --    1.51717   1.61075   1.62911   1.65233   1.73569
 Alpha virt. eigenvalues --    1.80912   1.87316   1.89574   1.96216   2.17577
 Alpha virt. eigenvalues --    2.25975   2.35812   2.42886   2.54494   2.69617
 Alpha virt. eigenvalues --    2.84703   2.85577   2.88435   2.92326   2.94446
 Alpha virt. eigenvalues --    2.98087   2.99804   3.00287   3.05824   3.12981
 Alpha virt. eigenvalues --    3.25790   3.28913   3.31019   3.32282   3.37162
 Alpha virt. eigenvalues --    3.38674   3.54079   3.66711   3.70897   3.74146
 Alpha virt. eigenvalues --    3.89341   3.89678   3.94689   4.12494   4.16208
 Alpha virt. eigenvalues --    4.30639   4.33280   4.35793   4.42101   4.52083
 Alpha virt. eigenvalues --    4.73967   4.74266   5.01923   5.25316   5.34147
 Alpha virt. eigenvalues --    5.34681   5.38538   5.62992   5.68063   5.70496
 Alpha virt. eigenvalues --    5.74652   5.76396   5.96238   6.71764   6.85472
 Alpha virt. eigenvalues --    6.91741   7.12078   7.17233   7.25670   7.34585
 Alpha virt. eigenvalues --    7.43129   7.53139   7.71468   7.77213   7.87314
 Alpha virt. eigenvalues --    8.19732   8.74909  14.44564  14.56651  14.85427
 Alpha virt. eigenvalues --   15.10047  15.27680  24.66287  26.45758  50.56600
          Condensed to atoms (all electrons):
               1          2          3          4          5          6
     1  C   64.439830 -38.093339 -17.320675   5.027936  -8.166754  -2.507840
     2  C  -38.093339  32.775953  10.645217  -3.424208   3.452413   1.428050
     3  H  -17.320675  10.645217   7.651944  -1.459991   2.045099   0.636074
     4  H    5.027936  -3.424208  -1.459991   1.142034  -0.463079  -0.116481
     5  H   -8.166754   3.452413   2.045099  -0.463079   4.850484   0.602396
     6  O   -2.507840   1.428050   0.636074  -0.116481   0.602396   8.570119
 Mulliken charges:
               1
     1  C    2.620842
     2  C   -0.784086
     3  H   -1.197668
     4  H    0.293789
     5  H   -1.320557
     6  O   -0.612319
 Sum of Mulliken charges =  -1.00000
 Mulliken charges with hydrogens summed into heavy atoms:
               1
     1  C    1.716963
     2  C   -0.784086
     6  O   -1.932876
 Electronic spatial extent (au):  <R**2>=            242.9174
 Charge=             -1.0000 electrons
 Dipole moment (field-independent basis, Debye):
    X=              3.4806    Y=              3.6078    Z=              0.2017  Tot=              5.0171
 Quadrupole moment (field-independent basis, Debye-Ang):
   XX=            -48.6528   YY=            -36.0429   ZZ=            -44.9706
   XY=             -2.1184   XZ=            -11.9664   YZ=              1.0633
 Traceless Quadrupole moment (field-independent basis, Debye-Ang):
   XX=             -5.4307   YY=              7.1792   ZZ=             -1.7485
   XY=             -2.1184   XZ=            -11.9664   YZ=              1.0633
 Octapole moment (field-independent basis, Debye-Ang**2):
  XXX=             57.1834  YYY=             64.7367  ZZZ=              4.5948  XYY=              9.7362
  XXY=             27.7694  XXZ=             15.1803  XZZ=              1.8458  YZZ=             32.5816
  YYZ=              5.1536  XYZ=             10.3941
 Hexadecapole moment (field-independent basis, Debye-Ang**3):
 XXXX=           -565.6386 YYYY=           -225.8092 ZZZZ=           -397.2223 XXXY=            -12.7568
 XXXZ=           -167.6923 YYYX=              6.5255 YYYZ=              7.0591 ZZZX=           -151.3566
 ZZZY=             18.4940 XXYY=           -121.6297 XXZZ=           -177.8852 YYZZ=           -107.5063
 XXYZ=              0.7632 YYXZ=            -48.4378 ZZXY=              9.1702
 N-N= 6.513930341404D+01 E-N=-4.922447366386D+02  KE= 1.529018582400D+02
 No NMR shielding tensors so no spin-rotation constants.
 Leave Link  601 at Wed Mar  6 14:35:25 2019, MaxMem=    33554432 cpu:         0.5
 (Enter /home/proyectos/fulerenos/M3C-v2.0/M3C-deps_CCC/g09-AM64L-G09RevC.01/l701.exe)
 Compute integral first derivatives.
 ... and contract with generalized density number  0.
 Leave Link  701 at Wed Mar  6 14:35:25 2019, MaxMem=    33554432 cpu:         0.6
 (Enter /home/proyectos/fulerenos/M3C-v2.0/M3C-deps_CCC/g09-AM64L-G09RevC.01/l702.exe)
 L702 exits ... SP integral derivatives will be done elsewhere.
 Leave Link  702 at Wed Mar  6 14:35:25 2019, MaxMem=    33554432 cpu:         0.1
 (Enter /home/proyectos/fulerenos/M3C-v2.0/M3C-deps_CCC/g09-AM64L-G09RevC.01/l703.exe)
 Compute integral first derivatives, UseDBF=F ICtDFT=           0.
 Integral derivatives from FoFJK, PRISM(SPDF).
 Calling FoFJK, ICntrl=      2127 FMM=F ISym2X=0 I1Cent= 0 IOpClX= 0 NMat=1 NMatS=1 NMatT=0.
 FoFJK:  IHMeth= 1 ICntrl=    2127 DoSepK=F KAlg= 0 I1Cent=   0 FoldK=F
 IRaf=         0 NMat=   1 IRICut=       1 DoRegI=T DoRafI=F ISym2E= 0.
 FoFCou: FMM=F IPFlag=           0 FMFlag=      100000 FMFlg1=         800
         NFxFlg=           0 DoJE=F BraDBF=F KetDBF=F FulRan=T
         wScrn=  0.000000 ICntrl=    2127 IOpCl=  0 I1Cent=           0 NGrid=           0
         NMat0=    1 NMatS0=      1 NMatT0=    0 NMatD0=    1 NMtDS0=    0 NMtDT0=    0
 Symmetry not used in FoFCou.
 Leave Link  703 at Wed Mar  6 14:35:37 2019, MaxMem=    33554432 cpu:        24.0
 (Enter /home/proyectos/fulerenos/M3C-v2.0/M3C-deps_CCC/g09-AM64L-G09RevC.01/l716.exe)
 Dipole        = 1.36935807D+00 1.41942494D+00 7.93638837D-02
 -------------------------------------------------------------------
 Center     Atomic                   Forces (Hartrees/Bohr)
 Number     Number              X              Y              Z
 -------------------------------------------------------------------
      1        6          -0.002130858   -0.000470871    0.007235426
      2        6           0.069633754   -0.044042848   -0.023670583
      3        1           0.010605625   -0.006590618    0.025904940
      4        1           0.004980316    0.002069761    0.008932793
      5        1          -0.013556792   -0.004938396    0.009034309
      6        8          -0.069532045    0.053972971   -0.027436886
 -------------------------------------------------------------------
 Cartesian Forces:  Max     0.069633754 RMS     0.030851138
 Leave Link  716 at Wed Mar  6 14:35:37 2019, MaxMem=    33554432 cpu:         0.1
 (Enter /home/proyectos/fulerenos/M3C-v2.0/M3C-deps_CCC/g09-AM64L-G09RevC.01/l103.exe)

 GradGradGradGradGradGradGradGradGradGradGradGradGradGradGradGradGradGrad
 Berny optimization.
 FormGI is forming the generalized inverse of G from B-inverse, IUseBI=4.
 Internal  Forces:  Max     0.094503874 RMS     0.033574013
 Search for a local minimum.
 Step number   1 out of a maximum of  100
 All quantities printed in internal units (Hartrees-Bohrs-Radians)
 RMS Force = .33574D-01 SwitMx=.10000D-02 MixMth= 1
 Mixed Optimization -- RFO/linear search
 Second derivative matrix not updated -- first step.
 The second derivative matrix:
                          R1        R2        R3        R4        R5
           R1           0.76094
           R2           0.00000   0.34922
           R3           0.00000   0.00000   0.34919
           R4           0.00000   0.00000   0.00000   0.94402
           R5           0.00000   0.00000   0.00000   0.00000   0.50334
           A1           0.00000   0.00000   0.00000   0.00000   0.00000
           A2           0.00000   0.00000   0.00000   0.00000   0.00000
           A3           0.00000   0.00000   0.00000   0.00000   0.00000
           A4           0.00000   0.00000   0.00000   0.00000   0.00000
           A5           0.00000   0.00000   0.00000   0.00000   0.00000
           A6           0.00000   0.00000   0.00000   0.00000   0.00000
           D1           0.00000   0.00000   0.00000   0.00000   0.00000
           D2           0.00000   0.00000   0.00000   0.00000   0.00000
           D3           0.00000   0.00000   0.00000   0.00000   0.00000
                          A1        A2        A3        A4        A5
           A1           0.16000
           A2           0.00000   0.16000
           A3           0.00000   0.00000   0.16000
           A4           0.00000   0.00000   0.00000   0.16000
           A5           0.00000   0.00000   0.00000   0.00000   0.04043
           A6           0.00000   0.00000   0.00000   0.00000   0.00000
           D1           0.00000   0.00000   0.00000   0.00000   0.00000
           D2           0.00000   0.00000   0.00000   0.00000   0.00000
           D3           0.00000   0.00000   0.00000   0.00000   0.00000
                          A6        D1        D2        D3
           A6           0.04043
           D1           0.00000   0.00247
           D2           0.00000   0.00000   0.00230
           D3           0.00000   0.00000   0.00000   0.00230
 ITU=  0
     Eigenvalues ---    0.00230   0.00243   0.03945   0.04043   0.15988
     Eigenvalues ---    0.16000   0.16000   0.34916   0.34922   0.50334
     Eigenvalues ---    0.76077   0.94397
 RFO step:  Lambda=-6.09038976D-02 EMin= 2.30000000D-03
 Linear search not attempted -- first point.
 Maximum step size (   0.300) exceeded in Quadratic search.
    -- Step size scaled by   0.442
 Iteration  1 RMS(Cart)=  0.08983635 RMS(Int)=  0.02997028
 Iteration  2 RMS(Cart)=  0.04725577 RMS(Int)=  0.00272410
 Iteration  3 RMS(Cart)=  0.00263379 RMS(Int)=  0.00089943
 Iteration  4 RMS(Cart)=  0.00001821 RMS(Int)=  0.00089925
 Iteration  5 RMS(Cart)=  0.00000003 RMS(Int)=  0.00089925
 ITry= 1 IFail=0 DXMaxC= 3.05D-01 DCOld= 1.00D+10 DXMaxT= 3.00D-01 DXLimC= 3.00D+00 Rises=F
 Variable       Old X    -DE/DX   Delta X   Delta X   Delta X     New X
                                 (Linear)    (Quad)   (Total)
    R1        2.40093   0.03142   0.00000   0.01690   0.01686   2.41779
    R2        2.05802   0.02648   0.00000   0.02853   0.02853   2.08656
    R3        2.05807  -0.00230   0.00000  -0.00248  -0.00244   2.05562
    R4        2.30968   0.09450   0.00000   0.04155   0.04156   2.35124
    R5        1.86230   0.01245   0.00000   0.00975   0.00975   1.87205
    A1        2.09770   0.00855   0.00000   0.01718   0.01715   2.11484
    A2        2.09724   0.00550   0.00000   0.01114   0.01100   2.10825
    A3        2.08796  -0.01396   0.00000  -0.02779  -0.02787   2.06009
    A4        2.04331  -0.00312   0.00000  -0.00624  -0.00624   2.03707
    A5        3.13276   0.06705   0.00000   0.29258   0.29232   3.42508
    A6        3.36204   0.00295   0.00000   0.01224   0.01246   3.37450
    D1        3.11616   0.00404   0.00000   0.02436   0.02623  -3.14079
    D2       -1.58713   0.00995   0.00000   0.06573   0.06769  -1.51944
    D3        1.58733   0.00860   0.00000   0.06394   0.06198   1.64931
         Item               Value     Threshold  Converged?
 Maximum Force            0.094504     0.000450     NO 
 RMS     Force            0.033574     0.000300     NO 
 Maximum Displacement     0.304570     0.001800     NO 
 RMS     Displacement     0.130919     0.001200     NO 
 Predicted change in Energy=-2.397340D-02
 Lowest energy point so far.  Saving SCF results.
 GradGradGradGradGradGradGradGradGradGradGradGradGradGradGradGradGradGrad

 Leave Link  103 at Wed Mar  6 14:35:37 2019, MaxMem=    33554432 cpu:         0.0
 (Enter /home/proyectos/fulerenos/M3C-v2.0/M3C-deps_CCC/g09-AM64L-G09RevC.01/l202.exe)
                          Input orientation:                          
 ---------------------------------------------------------------------
 Center     Atomic      Atomic             Coordinates (Angstroms)
 Number     Number       Type             X           Y           Z
 ---------------------------------------------------------------------
      1          6           0        1.171459   -0.931642    0.196341
      2          6           0        0.196384   -0.466308   -0.488976
      3          1           0        1.177683   -0.866690    1.298569
      4          1           0        2.020874   -1.403339   -0.292820
      5          1           0       -1.658130   -0.444717   -0.933976
      6          8           0       -0.848033    0.116324   -0.832233
 ---------------------------------------------------------------------
                    Distance matrix (angstroms):
                    1          2          3          4          5
     1  C    0.000000
     2  C    1.279440   0.000000
     3  H    1.104158   2.078117   0.000000
     4  H    1.087787   2.060405   1.879224   0.000000
     5  H    3.085658   1.907280   3.633752   3.855530   0.000000
     6  O    2.496907   1.244223   3.100025   3.291044   0.990645
                    6
     6  O    0.000000
 Symmetry turned off by external request.
 Stoichiometry    C2H3O
 Rotational constants (GHZ):    181.9701999      9.4131822      9.1795878
 Leave Link  202 at Wed Mar  6 14:35:37 2019, MaxMem=    33554432 cpu:         0.0
 (Enter /home/proyectos/fulerenos/M3C-v2.0/M3C-deps_CCC/g09-AM64L-G09RevC.01/l301.exe)
 Standard basis: 6-311++G(3df,2p) (5D, 7F)
 Ernie: Thresh=  0.10000D-02 Tol=  0.10000D-05 Strict=F.
   147 basis functions,   210 primitive gaussians,   165 cartesian basis functions
    12 alpha electrons       12 beta electrons
       nuclear repulsion energy        64.5238879054 Hartrees.
 IExCor=  402 DFT=T Ex+Corr=B3LYP ExCW=0 ScaHFX=  0.200000
 ScaDFX=  0.800000  0.720000  1.000000  0.810000 ScalE2=  1.000000  1.000000
 IRadAn=      0 IRanWt=     -1 IRanGd=            0 ICorTp=0 IEmpDi=  4
 NAtoms=    6 NActive=    6 NUniq=    6 SFac= 1.00D+00 NAtFMM=   60 NAOKFM=F Big=F
 Integral buffers will be    131072 words long.
 Raffenetti 2 integral format.
 Two-electron integral symmetry is turned off.
 Leave Link  301 at Wed Mar  6 14:35:37 2019, MaxMem=    33554432 cpu:         0.1
 (Enter /home/proyectos/fulerenos/M3C-v2.0/M3C-deps_CCC/g09-AM64L-G09RevC.01/l302.exe)
 NPDir=0 NMtPBC=     1 NCelOv=     1 NCel=       1 NClECP=     1 NCelD=      1
         NCelK=      1 NCelE2=     1 NClLst=     1 CellRange=     0.0.
 One-electron integrals computed using PRISM.
 NBasis=   147 RedAO= T EigKep=  2.97D-05  NBF=   147
 NBsUse=   147 1.00D-06 EigRej= -1.00D+00 NBFU=   147
 Precomputing XC quadrature grid using
 IXCGrd= 4 IRadAn=           0 IRanWt=          -1 IRanGd=           0 AccXCQ= 0.00D+00.
 Generated NRdTot=       0 NPtTot=           0 NUsed=           0 NTot=          32
 NSgBfM=   165   165   165   165   165 MxSgAt=     6 MxSgA2=     6.
 Leave Link  302 at Wed Mar  6 14:35:38 2019, MaxMem=    33554432 cpu:         0.7
 (Enter /home/proyectos/fulerenos/M3C-v2.0/M3C-deps_CCC/g09-AM64L-G09RevC.01/l303.exe)
 DipDrv:  MaxL=1.
 Leave Link  303 at Wed Mar  6 14:35:38 2019, MaxMem=    33554432 cpu:         0.1
 (Enter /home/proyectos/fulerenos/M3C-v2.0/M3C-deps_CCC/g09-AM64L-G09RevC.01/l401.exe)
 Initial guess from the checkpoint file:  "/scratch/naguirre/gaussian/Gau-84737.chk"
 B after Tr=     0.017520   -0.013317   -0.029814
         Rot=    0.999882   -0.014084   -0.005240   -0.003121 Ang=  -1.76 deg.
 Guess basis will be translated and rotated to current coordinates.
 JPrj=2 DoOrth=T DoCkMO=T.
 Generating alternative initial guess.
 ExpMin= 3.60D-02 ExpMax= 8.59D+03 ExpMxC= 1.30D+03 IAcc=3 IRadAn=         5 AccDes= 0.00D+00
 Harris functional with IExCor=  402 and IRadAn=       5 diagonalized for initial guess.
 HarFok:  IExCor=  402 AccDes= 0.00D+00 IRadAn=         5 IDoV= 1 UseB2=F ITyADJ=14
 ICtDFT=  3500011 ScaDFX=  1.000000  1.000000  1.000000  1.000000
 FoFCou: FMM=F IPFlag=           0 FMFlag=      100000 FMFlg1=           0
         NFxFlg=           0 DoJE=T BraDBF=F KetDBF=T FulRan=T
         wScrn=  0.000000 ICntrl=     500 IOpCl=  0 I1Cent=   200000004 NGrid=           0
         NMat0=    1 NMatS0=      1 NMatT0=    0 NMatD0=    1 NMtDS0=    0 NMtDT0=    0
 Symmetry not used in FoFCou.
 Harris En= -153.367187651838    
 Leave Link  401 at Wed Mar  6 14:35:41 2019, MaxMem=    33554432 cpu:         5.1
 (Enter /home/proyectos/fulerenos/M3C-v2.0/M3C-deps_CCC/g09-AM64L-G09RevC.01/l502.exe)
 Closed shell SCF:
 Using DIIS extrapolation, IDIIS=  1040.
 Two-electron integral symmetry not used.
 IVT=      102217 IEndB=      102217 NGot=    33554432 MDV=    33496246
 LenX=    33496246 LenY=    33468580
 Requested convergence on RMS density matrix=1.00D-08 within 128 cycles.
 Requested convergence on MAX density matrix=1.00D-06.
 Requested convergence on             energy=1.00D-06.
 No special actions if energy rises.
 Fock matrices will be formed incrementally for  20 cycles.

 Cycle   1  Pass 1  IDiag  1:
 FoFJK:  IHMeth= 1 ICntrl=       0 DoSepK=F KAlg= 0 I1Cent=   0 FoldK=F
 IRaf= 990000000 NMat=   1 IRICut=       1 DoRegI=T DoRafI=F ISym2E= 0.
 FoFCou: FMM=F IPFlag=           0 FMFlag=      100000 FMFlg1=           0
         NFxFlg=           0 DoJE=F BraDBF=F KetDBF=F FulRan=T
         wScrn=  0.000000 ICntrl=       0 IOpCl=  0 I1Cent=           0 NGrid=           0
         NMat0=    1 NMatS0=      1 NMatT0=    0 NMatD0=    1 NMtDS0=    0 NMtDT0=    0
 Symmetry not used in FoFCou.
 E= -153.091965273305    
 DIIS: error= 1.22D-02 at cycle   1 NSaved=   1.
 NSaved= 1 IEnMin= 1 EnMin= -153.091965273305     IErMin= 1 ErrMin= 1.22D-02
 ErrMax= 1.22D-02  0.00D+00 EMaxC= 1.00D-01 BMatC= 4.39D-02 BMatP= 4.39D-02
 IDIUse=3 WtCom= 8.78D-01 WtEn= 1.22D-01
 Coeff-Com:  0.100D+01
 Coeff-En:   0.100D+01
 Coeff:      0.100D+01
 Recover alternate guess density for next cycle.
 RMSDP=1.94D-01 MaxDP=1.57D+01              OVMax= 0.00D+00

 Cycle   2  Pass 1  IDiag  1:
 RMSU=  1.80D-02    CP:  4.04D-02
 E= -152.806564600941     Delta-E=        0.285400672364 Rises=F Damp=F
 Switch densities from cycles 1 and 2 for lowest energy.
 DIIS: error= 4.27D-02 at cycle   2 NSaved=   2.
 NSaved= 2 IEnMin= 1 EnMin= -153.091965273305     IErMin= 1 ErrMin= 1.22D-02
 ErrMax= 4.27D-02  0.00D+00 EMaxC= 1.00D+00 BMatC= 2.74D-01 BMatP= 4.39D-02
 IDIUse=1 WtCom= 1.00D+00 WtEn= 0.00D+00
 Coeff-Com:  0.858D+00 0.142D+00
 Coeff:      0.858D+00 0.142D+00
 Gap=     0.107 Goal=   None    Shift=    0.000
 RMSDP=6.60D-02 MaxDP=3.82D+00 DE= 2.85D-01 OVMax= 8.05D-01

 Cycle   3  Pass 1  IDiag  1:
 RMSU=  4.92D-02    CP:  1.22D+00  1.01D-01
 E= -153.083322087370     Delta-E=       -0.276757486429 Rises=F Damp=F
 DIIS: error= 1.63D-02 at cycle   3 NSaved=   3.
 NSaved= 3 IEnMin= 1 EnMin= -153.091965273305     IErMin= 1 ErrMin= 1.22D-02
 ErrMax= 1.63D-02  0.00D+00 EMaxC= 1.00D+00 BMatC= 3.81D-02 BMatP= 4.39D-02
 IDIUse=1 WtCom= 1.00D+00 WtEn= 0.00D+00
 Coeff-Com:  0.134D+00 0.220D+00 0.646D+00
 Coeff:      0.134D+00 0.220D+00 0.646D+00
 Gap=     0.048 Goal=   None    Shift=    0.000
 RMSDP=1.81D-01 MaxDP=1.47D+01 DE=-2.77D-01 OVMax= 5.14D-01

 Cycle   4  Pass 1  IDiag  1:
 RMSU=  1.52D-02    CP:  3.61D-01  1.01D+00 -5.06D-03
 E= -153.097780315715     Delta-E=       -0.014458228346 Rises=F Damp=F
 DIIS: error= 1.45D-02 at cycle   4 NSaved=   4.
 NSaved= 4 IEnMin= 4 EnMin= -153.097780315715     IErMin= 1 ErrMin= 1.22D-02
 ErrMax= 1.45D-02  0.00D+00 EMaxC= 1.00D+00 BMatC= 3.01D-02 BMatP= 3.81D-02
 IDIUse=1 WtCom= 1.00D+00 WtEn= 0.00D+00
 Coeff-Com:  0.457D-01 0.913D-01 0.501D+00 0.362D+00
 Coeff:      0.457D-01 0.913D-01 0.501D+00 0.362D+00
 Gap=     0.041 Goal=   None    Shift=    0.000
 RMSDP=6.28D-02 MaxDP=4.92D+00 DE=-1.45D-02 OVMax= 2.32D-01

 Cycle   5  Pass 1  IDiag  1:
 RMSU=  5.79D-03    CP:  6.60D-01  8.57D-01  3.40D-01  1.13D+00
 E= -153.140486233535     Delta-E=       -0.042705917819 Rises=F Damp=F
 DIIS: error= 3.00D-03 at cycle   5 NSaved=   5.
 NSaved= 5 IEnMin= 5 EnMin= -153.140486233535     IErMin= 5 ErrMin= 3.00D-03
 ErrMax= 3.00D-03  0.00D+00 EMaxC= 1.00D+00 BMatC= 1.51D-03 BMatP= 3.01D-02
 IDIUse=1 WtCom= 1.00D+00 WtEn= 0.00D+00
 Coeff-Com: -0.288D-02 0.160D-02 0.181D+00 0.206D+00 0.614D+00
 Coeff:     -0.288D-02 0.160D-02 0.181D+00 0.206D+00 0.614D+00
 Gap=     0.045 Goal=   None    Shift=    0.000
 RMSDP=1.79D-02 MaxDP=1.23D+00 DE=-4.27D-02 OVMax= 8.72D-02

 Cycle   6  Pass 1  IDiag  1:
 RMSU=  6.10D-03    CP:  7.26D-01  7.46D-01  4.72D-01  9.25D-01 -2.51D-01
 E= -153.141692841223     Delta-E=       -0.001206607689 Rises=F Damp=F
 DIIS: error= 2.13D-03 at cycle   6 NSaved=   6.
 NSaved= 6 IEnMin= 6 EnMin= -153.141692841223     IErMin= 6 ErrMin= 2.13D-03
 ErrMax= 2.13D-03  0.00D+00 EMaxC= 1.00D+00 BMatC= 6.38D-04 BMatP= 1.51D-03
 IDIUse=1 WtCom= 1.00D+00 WtEn= 0.00D+00
 Coeff-Com: -0.246D-02-0.807D-02 0.347D-01 0.115D+00 0.371D+00 0.489D+00
 Coeff:     -0.246D-02-0.807D-02 0.347D-01 0.115D+00 0.371D+00 0.489D+00
 Gap=     0.046 Goal=   None    Shift=    0.000
 RMSDP=2.35D-03 MaxDP=1.19D-01 DE=-1.21D-03 OVMax= 2.12D-02

 Cycle   7  Pass 1  IDiag  1:
 RMSU=  1.02D-03    CP:  7.26D-01  7.64D-01  4.44D-01  9.92D-01 -6.63D-02
                    CP:  9.05D-01
 E= -153.142474387861     Delta-E=       -0.000781546638 Rises=F Damp=F
 DIIS: error= 8.92D-04 at cycle   7 NSaved=   7.
 NSaved= 7 IEnMin= 7 EnMin= -153.142474387861     IErMin= 7 ErrMin= 8.92D-04
 ErrMax= 8.92D-04  0.00D+00 EMaxC= 1.00D+00 BMatC= 1.76D-04 BMatP= 6.38D-04
 IDIUse=1 WtCom= 1.00D+00 WtEn= 0.00D+00
 Coeff-Com: -0.151D-04-0.375D-02-0.221D-01 0.562D-01 0.130D+00 0.297D+00
 Coeff-Com:  0.542D+00
 Coeff:     -0.151D-04-0.375D-02-0.221D-01 0.562D-01 0.130D+00 0.297D+00
 Coeff:      0.542D+00
 Gap=     0.047 Goal=   None    Shift=    0.000
 RMSDP=4.09D-03 MaxDP=3.14D-01 DE=-7.82D-04 OVMax= 9.93D-03

 Cycle   8  Pass 1  IDiag  1:
 RMSU=  2.34D-04    CP:  7.06D-01  7.79D-01  4.23D-01  1.01D+00 -1.09D-01
                    CP:  9.60D-01  1.12D+00
 E= -153.142668387507     Delta-E=       -0.000193999646 Rises=F Damp=F
 DIIS: error= 4.13D-04 at cycle   8 NSaved=   8.
 NSaved= 8 IEnMin= 8 EnMin= -153.142668387507     IErMin= 8 ErrMin= 4.13D-04
 ErrMax= 4.13D-04  0.00D+00 EMaxC= 1.00D+00 BMatC= 2.50D-05 BMatP= 1.76D-04
 IDIUse=1 WtCom= 1.00D+00 WtEn= 0.00D+00
 Coeff-Com:  0.265D-03-0.103D-02-0.188D-01 0.208D-01 0.682D-02 0.559D-01
 Coeff-Com:  0.135D+00 0.801D+00
 Coeff:      0.265D-03-0.103D-02-0.188D-01 0.208D-01 0.682D-02 0.559D-01
 Coeff:      0.135D+00 0.801D+00
 Gap=     0.047 Goal=   None    Shift=    0.000
 RMSDP=2.17D-03 MaxDP=1.62D-01 DE=-1.94D-04 OVMax= 4.64D-03

 Cycle   9  Pass 1  IDiag  1:
 RMSU=  6.37D-05    CP:  6.96D-01  7.86D-01  4.14D-01  1.01D+00 -1.83D-01
                    CP:  1.03D+00  1.18D+00  1.26D+00
 E= -153.142702025493     Delta-E=       -0.000033637985 Rises=F Damp=F
 DIIS: error= 1.19D-04 at cycle   9 NSaved=   9.
 NSaved= 9 IEnMin= 9 EnMin= -153.142702025493     IErMin= 9 ErrMin= 1.19D-04
 ErrMax= 1.19D-04  0.00D+00 EMaxC= 1.00D+00 BMatC= 1.63D-06 BMatP= 2.50D-05
 IDIUse=1 WtCom= 1.00D+00 WtEn= 0.00D+00
 Coeff-Com:  0.740D-04-0.106D-03-0.428D-02 0.324D-02-0.922D-02-0.216D-01
 Coeff-Com: -0.217D-01 0.182D+00 0.872D+00
 Coeff:      0.740D-04-0.106D-03-0.428D-02 0.324D-02-0.922D-02-0.216D-01
 Coeff:     -0.217D-01 0.182D+00 0.872D+00
 Gap=     0.048 Goal=   None    Shift=    0.000
 RMSDP=5.81D-04 MaxDP=4.34D-02 DE=-3.36D-05 OVMax= 1.66D-03

 Cycle  10  Pass 1  IDiag  1:
 RMSU=  2.54D-05    CP:  6.93D-01  7.88D-01  4.10D-01  1.01D+00 -1.80D-01
                    CP:  1.03D+00  1.23D+00  1.44D+00  1.33D+00
 E= -153.142704512601     Delta-E=       -0.000002487109 Rises=F Damp=F
 DIIS: error= 1.40D-05 at cycle  10 NSaved=  10.
 NSaved=10 IEnMin=10 EnMin= -153.142704512601     IErMin=10 ErrMin= 1.40D-05
 ErrMax= 1.40D-05  0.00D+00 EMaxC= 1.00D+00 BMatC= 2.68D-08 BMatP= 1.63D-06
 IDIUse=1 WtCom= 1.00D+00 WtEn= 0.00D+00
 Coeff-Com:  0.230D-04-0.505D-04-0.266D-03 0.543D-03-0.175D-02-0.793D-02
 Coeff-Com: -0.102D-01-0.530D-02 0.272D+00 0.753D+00
 Coeff:      0.230D-04-0.505D-04-0.266D-03 0.543D-03-0.175D-02-0.793D-02
 Coeff:     -0.102D-01-0.530D-02 0.272D+00 0.753D+00
 Gap=     0.048 Goal=   None    Shift=    0.000
 RMSDP=8.27D-05 MaxDP=4.93D-03 DE=-2.49D-06 OVMax= 2.15D-04

 Cycle  11  Pass 1  IDiag  1:
 RMSU=  9.98D-06    CP:  6.93D-01  7.89D-01  4.10D-01  1.02D+00 -1.83D-01
                    CP:  1.03D+00  1.24D+00  1.47D+00  1.47D+00  1.08D+00
 E= -153.142704547955     Delta-E=       -0.000000035354 Rises=F Damp=F
 DIIS: error= 4.97D-06 at cycle  11 NSaved=  11.
 NSaved=11 IEnMin=11 EnMin= -153.142704547955     IErMin=11 ErrMin= 4.97D-06
 ErrMax= 4.97D-06  0.00D+00 EMaxC= 1.00D+00 BMatC= 3.96D-09 BMatP= 2.68D-08
 IDIUse=1 WtCom= 1.00D+00 WtEn= 0.00D+00
 Coeff-Com: -0.105D-06 0.303D-04 0.106D-03-0.236D-03-0.611D-03-0.124D-02
 Coeff-Com: -0.149D-02-0.145D-01 0.146D-03 0.145D+00 0.873D+00
 Coeff:     -0.105D-06 0.303D-04 0.106D-03-0.236D-03-0.611D-03-0.124D-02
 Coeff:     -0.149D-02-0.145D-01 0.146D-03 0.145D+00 0.873D+00
 Gap=     0.048 Goal=   None    Shift=    0.000
 RMSDP=4.87D-05 MaxDP=3.52D-03 DE=-3.54D-08 OVMax= 1.01D-04

 Cycle  12  Pass 1  IDiag  1:
 RMSU=  2.18D-06    CP:  6.93D-01  7.89D-01  4.10D-01  1.02D+00 -1.83D-01
                    CP:  1.04D+00  1.24D+00  1.49D+00  1.54D+00  1.24D+00
                    CP:  1.34D+00
 E= -153.142704554487     Delta-E=       -0.000000006532 Rises=F Damp=F
 DIIS: error= 4.70D-07 at cycle  12 NSaved=  12.
 NSaved=12 IEnMin=12 EnMin= -153.142704554487     IErMin=12 ErrMin= 4.70D-07
 ErrMax= 4.70D-07  0.00D+00 EMaxC= 1.00D+00 BMatC= 4.89D-11 BMatP= 3.96D-09
 IDIUse=1 WtCom= 1.00D+00 WtEn= 0.00D+00
 Coeff-Com:  0.159D-05 0.634D-05-0.667D-05-0.467D-04-0.527D-04 0.410D-03
 Coeff-Com:  0.720D-03-0.942D-03-0.120D-01-0.302D-01 0.864D-01 0.956D+00
 Coeff:      0.159D-05 0.634D-05-0.667D-05-0.467D-04-0.527D-04 0.410D-03
 Coeff:      0.720D-03-0.942D-03-0.120D-01-0.302D-01 0.864D-01 0.956D+00
 Gap=     0.048 Goal=   None    Shift=    0.000
 RMSDP=7.88D-06 MaxDP=4.19D-04 DE=-6.53D-09 OVMax= 4.07D-05

 Cycle  13  Pass 1  IDiag  1:
 RMSU=  7.99D-07    CP:  6.93D-01  7.89D-01  4.10D-01  1.02D+00 -1.83D-01
                    CP:  1.04D+00  1.25D+00  1.49D+00  1.56D+00  1.28D+00
                    CP:  1.61D+00  1.40D+00
 E= -153.142704554787     Delta-E=       -0.000000000299 Rises=F Damp=F
 DIIS: error= 5.49D-07 at cycle  13 NSaved=  13.
 NSaved=13 IEnMin=13 EnMin= -153.142704554787     IErMin=12 ErrMin= 4.70D-07
 ErrMax= 5.49D-07  0.00D+00 EMaxC= 1.00D+00 BMatC= 3.72D-11 BMatP= 4.89D-11
 IDIUse=1 WtCom= 1.00D+00 WtEn= 0.00D+00
 Coeff-Com: -0.237D-06-0.575D-06-0.153D-04 0.131D-04 0.300D-06 0.918D-04
 Coeff-Com:  0.106D-03 0.727D-03 0.403D-03-0.165D-01-0.902D-01 0.179D+00
 Coeff-Com:  0.926D+00
 Coeff:     -0.237D-06-0.575D-06-0.153D-04 0.131D-04 0.300D-06 0.918D-04
 Coeff:      0.106D-03 0.727D-03 0.403D-03-0.165D-01-0.902D-01 0.179D+00
 Coeff:      0.926D+00
 Gap=     0.048 Goal=   None    Shift=    0.000
 RMSDP=2.91D-06 MaxDP=1.52D-04 DE=-2.99D-10 OVMax= 1.34D-05

 Cycle  14  Pass 1  IDiag  1:
 RMSU=  1.89D-07    CP:  6.93D-01  7.89D-01  4.10D-01  1.02D+00 -1.82D-01
                    CP:  1.04D+00  1.25D+00  1.50D+00  1.57D+00  1.30D+00
                    CP:  1.71D+00  1.65D+00  1.44D+00
 E= -153.142704554855     Delta-E=       -0.000000000069 Rises=F Damp=F
 DIIS: error= 1.36D-07 at cycle  14 NSaved=  14.
 NSaved=14 IEnMin=14 EnMin= -153.142704554855     IErMin=14 ErrMin= 1.36D-07
 ErrMax= 1.36D-07  0.00D+00 EMaxC= 1.00D+00 BMatC= 2.54D-12 BMatP= 3.72D-11
 IDIUse=1 WtCom= 1.00D+00 WtEn= 0.00D+00
 Coeff-Com:  0.438D-07-0.754D-06-0.510D-05 0.957D-05 0.650D-06 0.108D-05
 Coeff-Com: -0.457D-04 0.729D-04 0.145D-02-0.126D-02-0.244D-01-0.181D-01
 Coeff-Com:  0.154D+00 0.888D+00
 Coeff:      0.438D-07-0.754D-06-0.510D-05 0.957D-05 0.650D-06 0.108D-05
 Coeff:     -0.457D-04 0.729D-04 0.145D-02-0.126D-02-0.244D-01-0.181D-01
 Coeff:      0.154D+00 0.888D+00
 Gap=     0.048 Goal=   None    Shift=    0.000
 RMSDP=1.02D-06 MaxDP=6.45D-05 DE=-6.89D-11 OVMax= 3.09D-06

 Cycle  15  Pass 1  IDiag  1:
 RMSU=  3.12D-08    CP:  6.93D-01  7.89D-01  4.10D-01  1.02D+00 -1.82D-01
                    CP:  1.04D+00  1.25D+00  1.50D+00  1.57D+00  1.30D+00
                    CP:  1.74D+00  1.72D+00  1.69D+00  1.39D+00
 E= -153.142704554862     Delta-E=       -0.000000000007 Rises=F Damp=F
 DIIS: error= 3.06D-08 at cycle  15 NSaved=  15.
 NSaved=15 IEnMin=15 EnMin= -153.142704554862     IErMin=15 ErrMin= 3.06D-08
 ErrMax= 3.06D-08  0.00D+00 EMaxC= 1.00D+00 BMatC= 7.43D-14 BMatP= 2.54D-12
 IDIUse=1 WtCom= 1.00D+00 WtEn= 0.00D+00
 Coeff-Com:  0.387D-07-0.104D-06-0.115D-06 0.878D-06 0.662D-06-0.571D-05
 Coeff-Com: -0.118D-04-0.584D-04 0.313D-03 0.651D-03 0.258D-03-0.143D-01
 Coeff-Com: -0.409D-01 0.124D+00 0.930D+00
 Coeff:      0.387D-07-0.104D-06-0.115D-06 0.878D-06 0.662D-06-0.571D-05
 Coeff:     -0.118D-04-0.584D-04 0.313D-03 0.651D-03 0.258D-03-0.143D-01
 Coeff:     -0.409D-01 0.124D+00 0.930D+00
 Gap=     0.048 Goal=   None    Shift=    0.000
 RMSDP=6.92D-07 MaxDP=5.76D-05 DE=-6.79D-12 OVMax= 1.13D-06

 Cycle  16  Pass 1  IDiag  1:
 RMSU=  1.10D-08    CP:  6.93D-01  7.89D-01  4.10D-01  1.02D+00 -1.82D-01
                    CP:  1.04D+00  1.25D+00  1.50D+00  1.57D+00  1.30D+00
                    CP:  1.76D+00  1.75D+00  1.81D+00  1.63D+00  1.56D+00
 E= -153.142704554866     Delta-E=       -0.000000000004 Rises=F Damp=F
 DIIS: error= 4.50D-09 at cycle  16 NSaved=  16.
 NSaved=16 IEnMin=16 EnMin= -153.142704554866     IErMin=16 ErrMin= 4.50D-09
 ErrMax= 4.50D-09  0.00D+00 EMaxC= 1.00D+00 BMatC= 2.26D-15 BMatP= 7.43D-14
 IDIUse=1 WtCom= 1.00D+00 WtEn= 0.00D+00
 Coeff-Com: -0.184D-08 0.427D-07 0.183D-06-0.369D-06 0.181D-06 0.388D-06
 Coeff-Com:  0.384D-05-0.103D-04-0.449D-04 0.287D-03 0.199D-02 0.106D-02
 Coeff-Com: -0.188D-01-0.596D-01 0.125D+00 0.950D+00
 Coeff:     -0.184D-08 0.427D-07 0.183D-06-0.369D-06 0.181D-06 0.388D-06
 Coeff:      0.384D-05-0.103D-04-0.449D-04 0.287D-03 0.199D-02 0.106D-02
 Coeff:     -0.188D-01-0.596D-01 0.125D+00 0.950D+00
 Gap=     0.048 Goal=   None    Shift=    0.000
 RMSDP=3.19D-07 MaxDP=2.76D-05 DE=-3.55D-12 OVMax= 2.96D-07

 Cycle  17  Pass 1  IDiag  1:
 RMSU=  1.86D-09    CP:  6.93D-01  7.89D-01  4.10D-01  1.02D+00 -1.82D-01
                    CP:  1.04D+00  1.25D+00  1.50D+00  1.57D+00  1.30D+00
                    CP:  1.76D+00  1.75D+00  1.85D+00  1.72D+00  1.87D+00
                    CP:  1.49D+00
 E= -153.142704554861     Delta-E=        0.000000000005 Rises=F Damp=F
 DIIS: error= 2.83D-09 at cycle  17 NSaved=  17.
 NSaved=17 IEnMin=16 EnMin= -153.142704554866     IErMin=17 ErrMin= 2.83D-09
 ErrMax= 2.83D-09  0.00D+00 EMaxC= 1.00D+00 BMatC= 1.37D-15 BMatP= 2.26D-15
 IDIUse=1 WtCom= 1.00D+00 WtEn= 0.00D+00
 Large coefficients: NSaved= 17 BigCof=    0.00 CofMax=   10.00 Det=-5.86D-16
 Inversion failed.  Reducing to 16 matrices.
 Large coefficients: NSaved= 16 BigCof=    0.00 CofMax=   10.00 Det=-6.45D-16
 Inversion failed.  Reducing to 15 matrices.
 Coeff-Com: -0.160D-08 0.383D-09-0.807D-07 0.164D-06-0.342D-06 0.145D-05
 Coeff-Com: -0.175D-04-0.404D-04-0.400D-03 0.816D-03 0.338D-02-0.231D-02
 Coeff-Com: -0.503D-01-0.722D-01 0.112D+01
 Coeff:     -0.160D-08 0.383D-09-0.807D-07 0.164D-06-0.342D-06 0.145D-05
 Coeff:     -0.175D-04-0.404D-04-0.400D-03 0.816D-03 0.338D-02-0.231D-02
 Coeff:     -0.503D-01-0.722D-01 0.112D+01
 Gap=     0.048 Goal=   None    Shift=    0.000
 RMSDP=7.76D-08 MaxDP=6.29D-06 DE= 4.63D-12 OVMax= 1.01D-07

 Cycle  18  Pass 1  IDiag  1:
 RMSU=  8.67D-10    CP:  6.93D-01  7.89D-01  4.10D-01  1.02D+00 -1.82D-01
                    CP:  1.04D+00  1.25D+00  1.50D+00  1.57D+00  1.30D+00
                    CP:  1.76D+00  1.76D+00  1.86D+00  1.75D+00  1.97D+00
                    CP:  1.70D+00  1.39D+00
 E= -153.142704554863     Delta-E=       -0.000000000001 Rises=F Damp=F
 DIIS: error= 3.43D-10 at cycle  18 NSaved=  16.
 NSaved=16 IEnMin=14 EnMin= -153.142704554866     IErMin=16 ErrMin= 3.43D-10
 ErrMax= 3.43D-10  0.00D+00 EMaxC= 1.00D+00 BMatC= 1.15D-17 BMatP= 1.37D-15
 IDIUse=1 WtCom= 1.00D+00 WtEn= 0.00D+00
 Large coefficients: NSaved= 16 BigCof=    0.00 CofMax=   10.00 Det=-3.27D-17
 Inversion failed.  Reducing to 15 matrices.
 Coeff-Com:  0.441D-08-0.395D-07 0.410D-08 0.388D-07-0.280D-06-0.241D-05
 Coeff-Com: -0.340D-05-0.300D-04 0.137D-03 0.763D-03-0.729D-03-0.874D-02
 Coeff-Com: -0.505D-01 0.107D+00 0.952D+00
 Coeff:      0.441D-08-0.395D-07 0.410D-08 0.388D-07-0.280D-06-0.241D-05
 Coeff:     -0.340D-05-0.300D-04 0.137D-03 0.763D-03-0.729D-03-0.874D-02
 Coeff:     -0.505D-01 0.107D+00 0.952D+00
 Gap=     0.048 Goal=   None    Shift=    0.000
 RMSDP=1.69D-08 MaxDP=1.39D-06 DE=-1.39D-12 OVMax= 1.77D-08

 Cycle  19  Pass 1  IDiag  1:
 RMSU=  1.50D-10    CP:  6.93D-01  7.89D-01  4.10D-01  1.02D+00 -1.82D-01
                    CP:  1.04D+00  1.25D+00  1.50D+00  1.57D+00  1.30D+00
                    CP:  1.76D+00  1.76D+00  1.86D+00  1.76D+00  2.00D+00
                    CP:  1.74D+00  1.51D+00  1.41D+00
 E= -153.142704554861     Delta-E=        0.000000000001 Rises=F Damp=F
 DIIS: error= 3.23D-11 at cycle  19 NSaved=  16.
 NSaved=16 IEnMin=13 EnMin= -153.142704554866     IErMin=16 ErrMin= 3.23D-11
 ErrMax= 3.23D-11  0.00D+00 EMaxC= 1.00D+00 BMatC= 3.06D-19 BMatP= 1.15D-17
 IDIUse=1 WtCom= 1.00D+00 WtEn= 0.00D+00
 Large coefficients: NSaved= 16 BigCof=    0.00 CofMax=   10.00 Det=-1.67D-18
 Inversion failed.  Reducing to 15 matrices.
 Coeff-Com: -0.671D-08-0.386D-07-0.142D-07-0.136D-06 0.163D-05 0.328D-05
 Coeff-Com:  0.543D-05-0.661D-04-0.136D-03 0.439D-03 0.329D-02-0.528D-03
 Coeff-Com: -0.542D-01-0.544D-02 0.106D+01
 Coeff:     -0.671D-08-0.386D-07-0.142D-07-0.136D-06 0.163D-05 0.328D-05
 Coeff:      0.543D-05-0.661D-04-0.136D-03 0.439D-03 0.329D-02-0.528D-03
 Coeff:     -0.542D-01-0.544D-02 0.106D+01
 Gap=     0.048 Goal=   None    Shift=    0.000
 RMSDP=1.30D-09 MaxDP=7.54D-08 DE= 1.19D-12 OVMax= 3.34D-09

 SCF Done:  E(RB3LYP) =  -153.142704555     A.U. after   19 cycles
            NFock= 19  Conv=0.13D-08     -V/T= 2.0021
 KE= 1.528189786388D+02 PE=-4.914533858896D+02 EE= 1.209678147906D+02
 Leave Link  502 at Wed Mar  6 14:36:57 2019, MaxMem=    33554432 cpu:       152.3
 (Enter /home/proyectos/fulerenos/M3C-v2.0/M3C-deps_CCC/g09-AM64L-G09RevC.01/l701.exe)
 Compute integral first derivatives.
 ... and contract with generalized density number  0.
 Leave Link  701 at Wed Mar  6 14:36:57 2019, MaxMem=    33554432 cpu:         0.6
 (Enter /home/proyectos/fulerenos/M3C-v2.0/M3C-deps_CCC/g09-AM64L-G09RevC.01/l702.exe)
 L702 exits ... SP integral derivatives will be done elsewhere.
 Leave Link  702 at Wed Mar  6 14:36:57 2019, MaxMem=    33554432 cpu:         0.0
 (Enter /home/proyectos/fulerenos/M3C-v2.0/M3C-deps_CCC/g09-AM64L-G09RevC.01/l703.exe)
 Compute integral first derivatives, UseDBF=F ICtDFT=           0.
 Integral derivatives from FoFJK, PRISM(SPDF).
 Calling FoFJK, ICntrl=      2127 FMM=F ISym2X=0 I1Cent= 0 IOpClX= 0 NMat=1 NMatS=1 NMatT=0.
 FoFJK:  IHMeth= 1 ICntrl=    2127 DoSepK=F KAlg= 0 I1Cent=   0 FoldK=F
 IRaf=         0 NMat=   1 IRICut=       1 DoRegI=T DoRafI=F ISym2E= 0.
 FoFCou: FMM=F IPFlag=           0 FMFlag=      100000 FMFlg1=         800
         NFxFlg=           0 DoJE=F BraDBF=F KetDBF=F FulRan=T
         wScrn=  0.000000 ICntrl=    2127 IOpCl=  0 I1Cent=           0 NGrid=           0
         NMat0=    1 NMatS0=      1 NMatT0=    0 NMatD0=    1 NMtDS0=    0 NMtDT0=    0
 Symmetry not used in FoFCou.
 Leave Link  703 at Wed Mar  6 14:37:12 2019, MaxMem=    33554432 cpu:        26.6
 (Enter /home/proyectos/fulerenos/M3C-v2.0/M3C-deps_CCC/g09-AM64L-G09RevC.01/l716.exe)
 Dipole        = 7.80611528D-01 1.25275197D+00 3.38113729D-01
 -------------------------------------------------------------------
 Center     Atomic                   Forces (Hartrees/Bohr)
 Number     Number              X              Y              Z
 -------------------------------------------------------------------
      1        6          -0.000928008    0.000413594    0.024154480
      2        6           0.068691428   -0.043456226   -0.060650922
      3        1           0.004044669   -0.004898762    0.017391841
      4        1          -0.002065203    0.004516802    0.006211577
      5        1          -0.000999665   -0.002754894    0.010174405
      6        8          -0.068743222    0.046179487    0.002718619
 -------------------------------------------------------------------
 Cartesian Forces:  Max     0.068743222 RMS     0.031844866
 Leave Link  716 at Wed Mar  6 14:37:12 2019, MaxMem=    33554432 cpu:         0.0
 (Enter /home/proyectos/fulerenos/M3C-v2.0/M3C-deps_CCC/g09-AM64L-G09RevC.01/l103.exe)

 GradGradGradGradGradGradGradGradGradGradGradGradGradGradGradGradGradGrad
 Berny optimization.
 Using GEDIIS/GDIIS optimizer.
 FormGI is forming the generalized inverse of G from B-inverse, IUseBI=4.
 Internal  Forces:  Max     0.085401922 RMS     0.032078917
 Search for a local minimum.
 Step number   2 out of a maximum of  100
 All quantities printed in internal units (Hartrees-Bohrs-Radians)
 RMS Force = .32079D-01 SwitMx=.10000D-02 MixMth= 1
 Mixed Optimization -- RFO/linear search
 Update second derivatives using D2CorX and points    1    2
 DE= -2.96D-02 DEPred=-2.40D-02 R= 1.23D+00
 TightC=F SS=  1.41D+00  RLast= 3.14D-01 DXNew= 5.0454D-01 9.4333D-01
 Trust test= 1.23D+00 RLast= 3.14D-01 DXMaxT set to 5.05D-01
 The second derivative matrix:
                          R1        R2        R3        R4        R5
           R1           0.72496
           R2          -0.03543   0.30877
           R3          -0.00381  -0.00834   0.34498
           R4          -0.11332  -0.11406  -0.01402   0.58596
           R5          -0.02686  -0.03617  -0.01088  -0.08891   0.46628
           A1          -0.00913  -0.01006  -0.00185  -0.02923  -0.00868
           A2          -0.01110  -0.01551  -0.00496  -0.03700  -0.01629
           A3           0.02001   0.02526   0.00672   0.06547   0.02467
           A4          -0.00933  -0.01817  -0.00843  -0.03335  -0.02269
           A5           0.00075   0.02585   0.02087   0.01344   0.04451
           A6          -0.00129  -0.00118  -0.00006  -0.00403  -0.00081
           D1           0.00067   0.00130   0.00060   0.00240   0.00161
           D2           0.00177   0.00338   0.00154   0.00630   0.00418
           D3          -0.00599  -0.01005  -0.00406  -0.02071  -0.01173
[...]
 Iteration 85 RMS(Cart)=  0.00003480 RMS(Int)=  0.02318146
 Iteration 86 RMS(Cart)=  0.00003464 RMS(Int)=  0.02314451
 Iteration 87 RMS(Cart)=  0.00003447 RMS(Int)=  0.02310773
 Iteration 88 RMS(Cart)=  0.00003430 RMS(Int)=  0.02307112
 Iteration 89 RMS(Cart)=  0.00003413 RMS(Int)=  0.02303469
 Iteration 90 RMS(Cart)=  0.00003395 RMS(Int)=  0.02299844
 Iteration 91 RMS(Cart)=  0.00003377 RMS(Int)=  0.02296237
 Iteration 92 RMS(Cart)=  0.00003358 RMS(Int)=  0.02292648
 Iteration 93 RMS(Cart)=  0.00003337 RMS(Int)=  0.02289077
 Iteration 94 RMS(Cart)=  0.00003312 RMS(Int)=  0.02285518
 Iteration 95 RMS(Cart)=  0.00003276 RMS(Int)=  0.02281214
 Iteration 96 RMS(Cart)=  0.00002407 RMS(Int)=  0.83955803
 Iteration 97 RMS(Cart)=  0.00122835 RMS(Int)=  0.02144325
 Iteration 98 RMS(Cart)=  0.00001625 RMS(Int)=  0.02142614
 Iteration 99 RMS(Cart)=  0.00001621 RMS(Int)=  0.02140907
 Iteration100 RMS(Cart)=  0.00001617 RMS(Int)=  0.02139205
 New curvilinear step not converged.
 ITry=10 IFail=1 DXMaxC= 1.97D-01 DCOld= 1.00D+10 DXMaxT= 9.41D-01 DXLimC= 3.00D+00 Rises=F
 RedQX1 iteration     1 Try  1 RMS(Cart)=  0.04818375 RMS(Int)=  0.75632600 XScale=  0.30991460
 RedQX1 iteration     2 Try  1 RMS(Cart)=  0.00963675 RMS(Int)=  0.76856161 XScale=  0.30927133
 RedQX1 iteration     3 Try  1 RMS(Cart)=  0.00192735 RMS(Int)=  0.77124666 XScale=  0.30906946
 RedQX1 iteration     4 Try  1 RMS(Cart)=  0.00038547 RMS(Int)=  0.77179316 XScale=  0.30902608
 RedQX1 iteration     5 Try  1 RMS(Cart)=  0.00007709 RMS(Int)=  0.77190282 XScale=  0.30901729
 RedQX1 iteration     6 Try  1 RMS(Cart)=  0.00001542 RMS(Int)=  0.77192470 XScale=  0.30901555
 RedQX1 iteration     7 Try  1 RMS(Cart)=  0.00000308 RMS(Int)=  0.77192832 XScale=  0.30901550
 RedQX1 iteration     8 Try  1 RMS(Cart)=  0.00000062 RMS(Int)=  0.25945608 XScale=************
 RedQX1 iteration     8 Try  2 RMS(Cart)=  0.00000062 RMS(Int)=  0.25945465 XScale=************
 RedQX1 iteration     8 Try  3 RMS(Cart)=  0.00000062 RMS(Int)=  0.77192441 XScale=  0.30901715
 RedQX1 iteration     9 Try  1 RMS(Cart)=  0.00000062 RMS(Int)=  0.77192441 XScale=  0.30901715
 RedQX1 iteration    10 Try  1 RMS(Cart)=  0.00000012 RMS(Int)=  0.25945383 XScale=************
 RedQX1 iteration    10 Try  2 RMS(Cart)=  0.00000012 RMS(Int)=  0.25945165 XScale=************
 RedQX1 iteration    10 Try  3 RMS(Cart)=  0.00000012 RMS(Int)=  0.25932195 XScale=786.30265199
 RedQX1 iteration    10 Try  4 RMS(Cart)=  0.00000012 RMS(Int)=  0.77191907 XScale=  0.30901923
 RedQX1 iteration    11 Try  1 RMS(Cart)=  0.00000012 RMS(Int)=  0.77191907 XScale=  0.30901923
 RedQX1 iteration    12 Try  1 RMS(Cart)=  0.00000002 RMS(Int)=  0.77186846 XScale=  0.30903881
 RedQX1 iteration    13 Try  1 RMS(Cart)=  0.00000000 RMS(Int)=  0.77055121 XScale=  0.30954924
 RedQX1 iteration    14 Try  1 RMS(Cart)=  0.00000000 RMS(Int)=  0.25927844 XScale=592.70726526
 B after Tr=     0.000000   -0.000000    0.000000
         Rot=    1.000000   -0.000000    0.000000   -0.000000 Ang=   0.00 deg.
 Variable       Old X    -DE/DX   Delta X   Delta X   Delta X     New X
                                 (Linear)    (Quad)   (Total)
    R1        2.44960   0.01451   0.04712  -0.00821   0.00000   2.44960
    R2        2.12332   0.00266   0.06979  -0.09931  -0.00000   2.12332
    R3        2.05449  -0.00022   0.01799   0.01471   0.00000   2.05449
    R4        2.44114   0.04510   0.14305  -0.02871   0.00000   2.44114
    R5        1.86298   0.00048   0.00274  -0.03294  -0.00000   1.86298
    A1        2.17704   0.00451   0.11720  -0.02412   0.00000   2.17704
    A2        2.03758  -0.00362  -0.12302  -0.06803  -0.00000   2.03758
    A3        2.06856  -0.00091   0.00585   0.09246   0.00000   2.06856
    A4        1.96746  -0.00677  -0.08081  -0.03360  -0.00000   1.96746
    A5        3.63963   0.05202   0.05264   0.15867   0.00000   3.63963
    A6        4.11440   0.00000   0.45540  -0.06233   0.00164   4.11603
    D1       -3.13919   0.00897  -0.00798  -0.15380  -0.00000  -3.13919
    D2       -1.37665   0.01728   0.24876   0.40738   0.00000  -1.37665
    D3        1.76702  -0.00264   0.24059   0.20801   0.00000   1.76702
         Item               Value     Threshold  Converged?
 Maximum Force            0.052023     0.000450     NO 
 RMS     Force            0.019685     0.000300     NO 
 Maximum Displacement     0.000004     0.001800     YES
 RMS     Displacement     0.000002     0.001200     YES
 Predicted change in Energy=-1.800931D-07
 Lowest energy point so far.  Saving SCF results.
 GradGradGradGradGradGradGradGradGradGradGradGradGradGradGradGradGradGrad

 Leave Link  103 at Wed Mar  6 14:41:12 2019, MaxMem=    33554432 cpu:         0.8
 (Enter /home/proyectos/fulerenos/M3C-v2.0/M3C-deps_CCC/g09-AM64L-G09RevC.01/l202.exe)
                          Input orientation:                          
 ---------------------------------------------------------------------
 Center     Atomic      Atomic             Coordinates (Angstroms)
 Number     Number       Type             X           Y           Z
 ---------------------------------------------------------------------
      1          6           0        1.159785   -0.928936    0.187405
      2          6           0        0.262997   -0.455048   -0.619768
      3          1           0        1.097967   -0.887531    1.308554
      4          1           0        2.030043   -1.395396   -0.267619
      5          1           0       -1.630424   -0.472094   -0.818074
      6          8           0       -0.860131    0.142632   -0.843592
 ---------------------------------------------------------------------
                    Distance matrix (angstroms):
                    1          2          3          4          5
     1  C    0.000000
     2  C    1.296274   0.000000
     3  H    1.123615   2.145377   0.000000
     4  H    1.087190   2.032416   1.900267   0.000000
     5  H    3.000826   1.903853   3.484143   3.815037   0.000000
     6  O    2.508241   1.291795   3.086603   3.324211   0.985845
                    6
     6  O    0.000000
 Symmetry turned off by external request.
 Stoichiometry    C2H3O
 Rotational constants (GHZ):    142.6404205      9.3892326      9.0439714
 Leave Link  202 at Wed Mar  6 14:41:12 2019, MaxMem=    33554432 cpu:         0.0
 (Enter /home/proyectos/fulerenos/M3C-v2.0/M3C-deps_CCC/g09-AM64L-G09RevC.01/l301.exe)
 Standard basis: 6-311++G(3df,2p) (5D, 7F)
 Ernie: Thresh=  0.10000D-02 Tol=  0.10000D-05 Strict=F.
   147 basis functions,   210 primitive gaussians,   165 cartesian basis functions
    12 alpha electrons       12 beta electrons
       nuclear repulsion energy        63.5084759245 Hartrees.
 IExCor=  402 DFT=T Ex+Corr=B3LYP ExCW=0 ScaHFX=  0.200000
 ScaDFX=  0.800000  0.720000  1.000000  0.810000 ScalE2=  1.000000  1.000000
 IRadAn=      0 IRanWt=     -1 IRanGd=            0 ICorTp=0 IEmpDi=  4
 NAtoms=    6 NActive=    6 NUniq=    6 SFac= 1.00D+00 NAtFMM=   60 NAOKFM=F Big=F
 Integral buffers will be    131072 words long.
 Raffenetti 2 integral format.
 Two-electron integral symmetry is turned off.
 Leave Link  301 at Wed Mar  6 14:41:12 2019, MaxMem=    33554432 cpu:         0.2
 (Enter /home/proyectos/fulerenos/M3C-v2.0/M3C-deps_CCC/g09-AM64L-G09RevC.01/l302.exe)
 NPDir=0 NMtPBC=     1 NCelOv=     1 NCel=       1 NClECP=     1 NCelD=      1
         NCelK=      1 NCelE2=     1 NClLst=     1 CellRange=     0.0.
 One-electron integrals computed using PRISM.
 NBasis=   147 RedAO= T EigKep=  3.31D-05  NBF=   147
 NBsUse=   147 1.00D-06 EigRej= -1.00D+00 NBFU=   147
 Precomputing XC quadrature grid using
 IXCGrd= 4 IRadAn=           0 IRanWt=          -1 IRanGd=           0 AccXCQ= 0.00D+00.
 Generated NRdTot=       0 NPtTot=           0 NUsed=           0 NTot=          32
 NSgBfM=   165   165   165   165   165 MxSgAt=     6 MxSgA2=     6.
 Leave Link  302 at Wed Mar  6 14:41:12 2019, MaxMem=    33554432 cpu:         0.6
 (Enter /home/proyectos/fulerenos/M3C-v2.0/M3C-deps_CCC/g09-AM64L-G09RevC.01/l303.exe)
 DipDrv:  MaxL=1.
 Leave Link  303 at Wed Mar  6 14:41:13 2019, MaxMem=    33554432 cpu:         0.1
 (Enter /home/proyectos/fulerenos/M3C-v2.0/M3C-deps_CCC/g09-AM64L-G09RevC.01/l401.exe)
 Initial guess from the checkpoint file:  "/scratch/naguirre/gaussian/Gau-84737.chk"
 B after Tr=     0.000000    0.000000   -0.000001
         Rot=    1.000000    0.000000    0.000000    0.000000 Ang=   0.00 deg.
 Guess basis will be translated and rotated to current coordinates.
 JPrj=2 DoOrth=T DoCkMO=T.
 Leave Link  401 at Wed Mar  6 14:41:13 2019, MaxMem=    33554432 cpu:         0.3
 (Enter /home/proyectos/fulerenos/M3C-v2.0/M3C-deps_CCC/g09-AM64L-G09RevC.01/l502.exe)
 Closed shell SCF:
 Using DIIS extrapolation, IDIIS=  1040.
 Two-electron integral symmetry not used.
 IVT=      102217 IEndB=      102217 NGot=    33554432 MDV=    33496246
 LenX=    33496246 LenY=    33468580
 Requested convergence on RMS density matrix=1.00D-08 within 128 cycles.
 Requested convergence on MAX density matrix=1.00D-06.
 Requested convergence on             energy=1.00D-06.
 No special actions if energy rises.
 Fock matrices will be formed incrementally for  20 cycles.

 Cycle   1  Pass 1  IDiag  1:
 FoFJK:  IHMeth= 1 ICntrl=       0 DoSepK=F KAlg= 0 I1Cent=   0 FoldK=F
 IRaf= 990000000 NMat=   1 IRICut=       1 DoRegI=T DoRafI=F ISym2E= 0.
 FoFCou: FMM=F IPFlag=           0 FMFlag=      100000 FMFlg1=           0
         NFxFlg=           0 DoJE=F BraDBF=F KetDBF=F FulRan=T
         wScrn=  0.000000 ICntrl=       0 IOpCl=  0 I1Cent=           0 NGrid=           0
         NMat0=    1 NMatS0=      1 NMatT0=    0 NMatD0=    1 NMtDS0=    0 NMtDT0=    0
 Symmetry not used in FoFCou.
 E= -153.170532643792    
 DIIS: error= 1.07D-07 at cycle   1 NSaved=   1.
 NSaved= 1 IEnMin= 1 EnMin= -153.170532643792     IErMin= 1 ErrMin= 1.07D-07
 ErrMax= 1.07D-07  0.00D+00 EMaxC= 1.00D-01 BMatC= 2.65D-12 BMatP= 2.65D-12
 IDIUse=1 WtCom= 1.00D+00 WtEn= 0.00D+00
 Coeff-Com:  0.100D+01
 Coeff:      0.100D+01
 Gap=     0.292 Goal=   None    Shift=    0.000
 RMSDP=5.29D-07 MaxDP=4.23D-05              OVMax= 1.57D-06

 Cycle   2  Pass 1  IDiag  1:
 RMSU=  2.30D-07    CP:  1.00D+00
 E= -153.170532643794     Delta-E=       -0.000000000002 Rises=F Damp=F
 DIIS: error= 4.36D-08 at cycle   2 NSaved=   2.
 NSaved= 2 IEnMin= 2 EnMin= -153.170532643794     IErMin= 2 ErrMin= 4.36D-08
 ErrMax= 4.36D-08  0.00D+00 EMaxC= 1.00D-01 BMatC= 4.14D-13 BMatP= 2.65D-12
 IDIUse=1 WtCom= 1.00D+00 WtEn= 0.00D+00
 Coeff-Com:  0.118D+00 0.882D+00
 Coeff:      0.118D+00 0.882D+00
 Gap=     0.058 Goal=   None    Shift=    0.000
 RMSDP=4.47D-07 MaxDP=2.46D-05 DE=-2.33D-12 OVMax= 2.87D-06

 Cycle   3  Pass 1  IDiag  1:
 RMSU=  2.41D-07    CP:  1.00D+00  9.47D-01
 E= -153.170532643792     Delta-E=        0.000000000003 Rises=F Damp=F
 DIIS: error= 1.27D-07 at cycle   3 NSaved=   3.
 NSaved= 3 IEnMin= 2 EnMin= -153.170532643794     IErMin= 2 ErrMin= 4.36D-08
 ErrMax= 1.27D-07  0.00D+00 EMaxC= 1.00D-01 BMatC= 3.73D-12 BMatP= 4.14D-13
 IDIUse=1 WtCom= 1.00D+00 WtEn= 0.00D+00
 Coeff-Com: -0.201D-01 0.772D+00 0.248D+00
 Coeff:     -0.201D-01 0.772D+00 0.248D+00
 Gap=     0.058 Goal=   None    Shift=    0.000
 RMSDP=3.70D-07 MaxDP=2.37D-05 DE= 2.61D-12 OVMax= 2.20D-06

 Cycle   4  Pass 1  IDiag  1:
 RMSU=  1.29D-08    CP:  1.00D+00  1.16D+00  3.32D-01
 E= -153.170532643796     Delta-E=       -0.000000000004 Rises=F Damp=F
 DIIS: error= 9.58D-09 at cycle   4 NSaved=   4.
 NSaved= 4 IEnMin= 4 EnMin= -153.170532643796     IErMin= 4 ErrMin= 9.58D-09
 ErrMax= 9.58D-09  0.00D+00 EMaxC= 1.00D-01 BMatC= 2.41D-14 BMatP= 4.14D-13
 IDIUse=1 WtCom= 1.00D+00 WtEn= 0.00D+00
 Coeff-Com: -0.171D-01 0.362D+00 0.116D+00 0.539D+00
 Coeff:     -0.171D-01 0.362D+00 0.116D+00 0.539D+00
 Gap=     0.058 Goal=   None    Shift=    0.000
 RMSDP=2.56D-08 MaxDP=1.75D-06 DE=-4.21D-12 OVMax= 1.37D-07

 Cycle   5  Pass 1  IDiag  1:
 RMSU=  4.96D-09    CP:  1.00D+00  1.21D+00  3.78D-01  6.55D-01
 E= -153.170532643794     Delta-E=        0.000000000001 Rises=F Damp=F
 DIIS: error= 6.34D-09 at cycle   5 NSaved=   5.
 NSaved= 5 IEnMin= 4 EnMin= -153.170532643796     IErMin= 5 ErrMin= 6.34D-09
 ErrMax= 6.34D-09  0.00D+00 EMaxC= 1.00D-01 BMatC= 8.15D-15 BMatP= 2.41D-14
 IDIUse=1 WtCom= 1.00D+00 WtEn= 0.00D+00
 Coeff-Com: -0.625D-02 0.968D-01 0.217D-01 0.351D+00 0.537D+00
 Coeff:     -0.625D-02 0.968D-01 0.217D-01 0.351D+00 0.537D+00
 Gap=     0.058 Goal=   None    Shift=    0.000
 RMSDP=1.97D-08 MaxDP=1.48D-06 DE= 1.42D-12 OVMax= 8.37D-08

 Cycle   6  Pass 1  IDiag  1:
 RMSU=  1.06D-09    CP:  1.00D+00  1.24D+00  3.62D-01  7.49D-01  1.13D+00
 E= -153.170532643796     Delta-E=       -0.000000000002 Rises=F Damp=F
 DIIS: error= 1.04D-09 at cycle   6 NSaved=   6.
 NSaved= 6 IEnMin= 6 EnMin= -153.170532643796     IErMin= 6 ErrMin= 1.04D-09
 ErrMax= 1.04D-09  0.00D+00 EMaxC= 1.00D-01 BMatC= 1.77D-16 BMatP= 8.15D-15
 IDIUse=1 WtCom= 1.00D+00 WtEn= 0.00D+00
 Coeff-Com: -0.711D-03-0.425D-02-0.374D-02 0.773D-01 0.183D+00 0.749D+00
 Coeff:     -0.711D-03-0.425D-02-0.374D-02 0.773D-01 0.183D+00 0.749D+00
 Gap=     0.058 Goal=   None    Shift=    0.000
 RMSDP=7.02D-09 MaxDP=5.34D-07 DE=-1.53D-12 OVMax= 2.03D-08

 SCF Done:  E(RB3LYP) =  -153.170532644     A.U. after    6 cycles
            NFock=  6  Conv=0.70D-08     -V/T= 2.0029
 KE= 1.527243470860D+02 PE=-4.900763888986D+02 EE= 1.206730332442D+02
 Leave Link  502 at Wed Mar  6 14:41:37 2019, MaxMem=    33554432 cpu:        48.6
 (Enter /home/proyectos/fulerenos/M3C-v2.0/M3C-deps_CCC/g09-AM64L-G09RevC.01/l701.exe)
 Compute integral first derivatives.
 ... and contract with generalized density number  0.
 Leave Link  701 at Wed Mar  6 14:41:38 2019, MaxMem=    33554432 cpu:         0.7
 (Enter /home/proyectos/fulerenos/M3C-v2.0/M3C-deps_CCC/g09-AM64L-G09RevC.01/l702.exe)
 L702 exits ... SP integral derivatives will be done elsewhere.
 Leave Link  702 at Wed Mar  6 14:41:38 2019, MaxMem=    33554432 cpu:         0.0
 (Enter /home/proyectos/fulerenos/M3C-v2.0/M3C-deps_CCC/g09-AM64L-G09RevC.01/l703.exe)
 Compute integral first derivatives, UseDBF=F ICtDFT=           0.
 Integral derivatives from FoFJK, PRISM(SPDF).
 Calling FoFJK, ICntrl=      2127 FMM=F ISym2X=0 I1Cent= 0 IOpClX= 0 NMat=1 NMatS=1 NMatT=0.
 FoFJK:  IHMeth= 1 ICntrl=    2127 DoSepK=F KAlg= 0 I1Cent=   0 FoldK=F
 IRaf=         0 NMat=   1 IRICut=       1 DoRegI=T DoRafI=F ISym2E= 0.
 FoFCou: FMM=F IPFlag=           0 FMFlag=      100000 FMFlg1=         800
         NFxFlg=           0 DoJE=F BraDBF=F KetDBF=F FulRan=T
         wScrn=  0.000000 ICntrl=    2127 IOpCl=  0 I1Cent=           0 NGrid=           0
         NMat0=    1 NMatS0=      1 NMatT0=    0 NMatD0=    1 NMtDS0=    0 NMtDT0=    0
 Symmetry not used in FoFCou.
 Leave Link  703 at Wed Mar  6 14:41:50 2019, MaxMem=    33554432 cpu:        25.5
 (Enter /home/proyectos/fulerenos/M3C-v2.0/M3C-deps_CCC/g09-AM64L-G09RevC.01/l716.exe)
 Dipole        = 1.10208456D-01 1.06778029D+00 6.05857402D-01
 -------------------------------------------------------------------
 Center     Atomic                   Forces (Hartrees/Bohr)
 Number     Number              X              Y              Z
 -------------------------------------------------------------------
      1        6          -0.006276186    0.001016375    0.027594122
      2        6           0.051012992   -0.024083040   -0.065846346
      3        1           0.000465613   -0.004157941    0.002841469
      4        1          -0.000848106    0.003599971    0.008455704
      5        1          -0.000338939   -0.000007608    0.008231933
      6        8          -0.044015374    0.023632243    0.018723117
 -------------------------------------------------------------------
 Cartesian Forces:  Max     0.065846346 RMS     0.025105274
 Leave Link  716 at Wed Mar  6 14:41:50 2019, MaxMem=    33554432 cpu:         0.0
 (Enter /home/proyectos/fulerenos/M3C-v2.0/M3C-deps_CCC/g09-AM64L-G09RevC.01/l103.exe)

 GradGradGradGradGradGradGradGradGradGradGradGradGradGradGradGradGradGrad
 Berny optimization.
 Using GEDIIS/GDIIS optimizer.
 FormGI is forming the generalized inverse of G from B-inverse, IUseBI=4.
 Internal  Forces:  Max     0.104388745 RMS     0.047237581
 Search for a local minimum.
 Step number   6 out of a maximum of  100
 All quantities printed in internal units (Hartrees-Bohrs-Radians)
 RMS Force = .47238D-01 SwitMx=.10000D-02 MixMth= 1
 Mixed Optimization -- RFO/linear search
 Update second derivatives using D2CorX and points    4    5    6
 DE= -1.81D-07 DEPred=-1.80D-07 R= 1.00D+00
 Trust test= 1.00D+00 RLast= 1.64D-03 DXMaxT set to 9.41D-01
 The second derivative matrix:
                          R1        R2        R3        R4        R5
           R1          -0.13982
           R2          -0.03134   0.35720
           R3           1.21458  -0.03187  -1.00148
           R4           0.08647  -0.06633  -0.00053   0.75478
           R5          -0.04227  -0.02593  -0.02519  -0.07981   0.46667
           A1           1.54962   0.00310  -1.86928  -0.10855   0.00181
           A2          -2.62394  -0.00725   3.08757   0.10879  -0.02289
           A3           1.80336   0.00440  -2.07269  -0.01341   0.02163
           A4           0.02124  -0.02791   0.00593   0.03444  -0.03369
           A5          -7.78410   0.07196   9.04569   0.16228   0.05766
           A6           0.00022   0.00005  -0.00022   0.00002  -0.00002
           D1        -375.04017  -0.20940 439.16846   6.41973  -0.37538
           D2        -434.46695  -0.24775 508.78252   7.45252  -0.43691
           D3         434.41742   0.25768-508.80742  -7.51783   0.44358
                          A1        A2        A3        A4        A5
           A1          -2.34238
           A2           4.17518  -6.80968
           A3          -2.82469   4.71487  -3.02882
           A4          -0.00254  -0.01985   0.02253   0.14397
           A5          12.25640 -20.38359  13.76374   0.00438 -59.80686
           A6          -0.00030   0.00051  -0.00034   0.00000   0.00139
           D1         592.23233-987.40053 667.72362  -0.16644**********
           D2         686.09346********** 773.55590  -0.18789**********
           D3        -686.084361143.89297-773.56190   0.176213357.31018
                          A6        D1        D2        D3
           A6           0.00000
           D1           0.06861**********
           D2           0.07949********************
           D3          -0.07953******************************
 ITU=  0  1  1  1  1  0
 Use linear search instead of GDIIS.
     Eigenvalues --- **********   0.00000   0.00231   0.01189   0.07399
     Eigenvalues ---    0.14738   0.16096   0.32907   0.36677   0.46409
     Eigenvalues ---    0.74456   0.93638
 Eigenvalue     1 is  -4.74D+05 should be greater than     0.000000 Eigenvector:
                          D2        D3        D1        A5        A2
   1                   -0.57629   0.57629  -0.49738  -0.27497  -0.08109
                          A3        A1        R3        R1        R4
   1                    0.04116   0.04089   0.04081  -0.03425   0.00002
 RFO step:  Lambda=-4.74148251D+05 EMin=-4.74148251D+05
 I=     1 Eig=   -4.74D+05 Dot1= -1.01D-01
 I=     1 Stepn= -6.00D-01 RXN=   6.00D-01 EDone=F
 Mixed    1 eigenvectors in step.  Raw Step.Grad=  1.01D-01.
 RFO eigenvector is Hessian eigenvector with negative curvature.
 Taking step of  6.00D-01 in eigenvector direction(s).  Step.Grad=  1.19D-02.
 Skip linear search -- no minimum in search direction.
 SLEqS3 Cycle:   181 Max:0.597002E-01 RMS:0.250450E-01 Conv:0.359962E-06
 SLEqS3 Cycle:   181 Max:0.597002E-01 RMS:0.250450E-01 Conv:0.359962E-06
 Linear angle in Bend.
 Error termination via Lnk1e in /home/proyectos/fulerenos/M3C-v2.0/M3C-deps_CCC/g09-AM64L-G09RevC.01/l103.exe at Wed Mar  6 14:41:51 2019.
 Job cpu time:       0 days  0 hours 16 minutes 38.5 seconds.
 File lengths (MBytes):  RWF=     15 Int=      0 D2E=      0 Chk=      2 Scr=      1
