 Entering Gaussian System, Link 0=/home/proyectos/fulerenos/M3C-v2.0/M3C-deps_CCC/g09-AM64L-G09RevC.01/g09
 Initial command:
 /home/proyectos/fulerenos/M3C-v2.0/M3C-deps_CCC/g09-AM64L-G09RevC.01/l1.exe "/scratch/naguirre/gaussian/Gau-34483.inp" -scrdir="/scratch/naguirre/gaussian/"
 Entering Link 1 = /home/proyectos/fulerenos/M3C-v2.0/M3C-deps_CCC/g09-AM64L-G09RevC.01/l1.exe PID=     34505.
  
 Copyright (c) 1988,1990,1992,1993,1995,1998,2003,2009,2015,
            Gaussian, Inc.  All Rights Reserved.
  
 This is part of the Gaussian(R) 09 program.  It is based on
 the Gaussian(R) 03 system (copyright 2003, Gaussian, Inc.),
 the Gaussian(R) 98 system (copyright 1998, Gaussian, Inc.),
 the Gaussian(R) 94 system (copyright 1995, Gaussian, Inc.),
 the Gaussian 92(TM) system (copyright 1992, Gaussian, Inc.),
 the Gaussian 90(TM) system (copyright 1990, Gaussian, Inc.),
 the Gaussian 88(TM) system (copyright 1988, Gaussian, Inc.),
 the Gaussian 86(TM) system (copyright 1986, Carnegie Mellon
 University), and the Gaussian 82(TM) system (copyright 1983,
 Carnegie Mellon University). Gaussian is a federally registered
 trademark of Gaussian, Inc.
  
 This software contains proprietary and confidential information,
 including trade secrets, belonging to Gaussian, Inc.
  
 This software is provided under written license and may be
 used, copied, transmitted, or stored only in accord with that
 written license.
  
 The following legend is applicable only to US Government
 contracts under FAR:
  
                    RESTRICTED RIGHTS LEGEND
  
 Use, reproduction and disclosure by the US Government is
 subject to restrictions as set forth in subparagraphs (a)
 and (c) of the Commercial Computer Software - Restricted
 Rights clause in FAR 52.227-19.
  
 Gaussian, Inc.
 340 Quinnipiac St., Bldg. 40, Wallingford CT 06492
  
  
 ---------------------------------------------------------------
 Warning -- This program may not be used in any manner that
 competes with the business of Gaussian, Inc. or will provide
 assistance to any competitor of Gaussian, Inc.  The licensee
 of this program is prohibited from giving any competitor of
 Gaussian, Inc. access to this program.  By using this program,
 the user acknowledges that Gaussian, Inc. is engaged in the
 business of creating and licensing software in the field of
 computational chemistry and represents and warrants to the
 licensee that it is not a competitor of Gaussian, Inc. and that
 it will not use this program in any manner prohibited above.
 ---------------------------------------------------------------
  

 Cite this work as:
 Gaussian 09, Revision E.01,
 M. J. Frisch, G. W. Trucks, H. B. Schlegel, G. E. Scuseria, 
 M. A. Robb, J. R. Cheeseman, G. Scalmani, V. Barone, B. Mennucci, 
 G. A. Petersson, H. Nakatsuji, M. Caricato, X. Li, H. P. Hratchian, 
 A. F. Izmaylov, J. Bloino, G. Zheng, J. L. Sonnenberg, M. Hada, 
 M. Ehara, K. Toyota, R. Fukuda, J. Hasegawa, M. Ishida, T. Nakajima, 
 Y. Honda, O. Kitao, H. Nakai, T. Vreven, J. A. Montgomery, Jr., 
 J. E. Peralta, F. Ogliaro, M. Bearpark, J. J. Heyd, E. Brothers, 
 K. N. Kudin, V. N. Staroverov, T. Keith, R. Kobayashi, J. Normand, 
 K. Raghavachari, A. Rendell, J. C. Burant, S. S. Iyengar, J. Tomasi, 
 M. Cossi, N. Rega, J. M. Millam, M. Klene, J. E. Knox, J. B. Cross, 
 V. Bakken, C. Adamo, J. Jaramillo, R. Gomperts, R. E. Stratmann, 
 O. Yazyev, A. J. Austin, R. Cammi, C. Pomelli, J. W. Ochterski, 
 R. L. Martin, K. Morokuma, V. G. Zakrzewski, G. A. Voth, 
 P. Salvador, J. J. Dannenberg, S. Dapprich, A. D. Daniels, 
 O. Farkas, J. B. Foresman, J. V. Ortiz, J. Cioslowski, 
 and D. J. Fox, Gaussian, Inc., Wallingford CT, 2013.
 
 ******************************************
 Gaussian 09:  EM64L-G09RevE.01 30-Nov-2015
                 7-Mar-2019 
 ******************************************
 %NProcShared=2
 Will use up to    2 processors via shared memory.
 ----------------------------------------------------------
 #p b3lyp/6-311++G(3df,2p) opt(MaxCycles=200) Symmetry=None
 ----------------------------------------------------------
 1/6=200,14=-1,18=20,19=15,26=3,38=1/1,3;
 2/9=110,12=2,15=3,17=6,18=5,40=1/2;
 3/5=4,6=6,7=1216,11=2,16=1,25=1,30=1,71=1,74=-5/1,2,3;
 4//1;
 5/5=2,38=5/2;
 6/7=2,8=2,9=2,10=2,28=1/1;
 7/30=1/1,2,3,16;
 1/6=200,14=-1,18=20,19=15,26=3/3(2);
 2/9=110,15=3/2;
 99//99;
 2/9=110,15=3/2;
 3/5=4,6=6,7=1216,11=2,16=1,25=1,30=1,71=1,74=-5/1,2,3;
 4/5=5,16=3,69=1/1;
 5/5=2,38=5/2;
 7/30=1/1,2,3,16;
 1/6=200,14=-1,18=20,19=15,26=3/3(-5);
 2/9=110,15=3/2;
 6/7=2,8=2,9=2,10=2,19=2,28=1/1;
 99/9=1/99;
 Leave Link    1 at Thu Mar  7 12:03:26 2019, MaxMem=           0 cpu:         0.1
 (Enter /home/proyectos/fulerenos/M3C-v2.0/M3C-deps_CCC/g09-AM64L-G09RevC.01/l101.exe)
 ---------
 b3lyp opt
 ---------
 Symbolic Z-matrix:
 Charge = -1 Multiplicity = 3
 C                    -1.06466   0.08208   0.47045 
 C                     1.02345   0.42276  -1.06982 
 C                     1.50964  -0.53103  -0.14166 
 C                     0.16913   0.02824  -0.12187 
 H                     1.14519   1.06382  -1.93339 
 O                    -2.07167   0.12003   0.96139 
 
 Add atom      2 valence  3 ND=      1 dihedral       3      2      4      5
 Add atom      4 valence  3 ND=      2 dihedral       3      2      4      1
 NAtoms=      6 NQM=        6 NQMF=       0 NMMI=      0 NMMIF=      0
                NMic=       0 NMicF=      0.
                    Isotopes and Nuclear Properties:
 (Nuclear quadrupole moments (NQMom) in fm**2, nuclear magnetic moments (NMagM)
  in nuclear magnetons)

  Atom         1           2           3           4           5           6
 IAtWgt=          12          12          12          12           1          16
 AtmWgt=  12.0000000  12.0000000  12.0000000  12.0000000   1.0078250  15.9949146
 NucSpn=           0           0           0           0           1           0
 AtZEff=   0.0000000   0.0000000   0.0000000   0.0000000   0.0000000   0.0000000
 NQMom=    0.0000000   0.0000000   0.0000000   0.0000000   0.0000000   0.0000000
 NMagM=    0.0000000   0.0000000   0.0000000   0.0000000   2.7928460   0.0000000
 AtZNuc=   6.0000000   6.0000000   6.0000000   6.0000000   1.0000000   8.0000000
 Leave Link  101 at Thu Mar  7 12:03:26 2019, MaxMem=    33554432 cpu:         0.2
 (Enter /home/proyectos/fulerenos/M3C-v2.0/M3C-deps_CCC/g09-AM64L-G09RevC.01/l103.exe)

 GradGradGradGradGradGradGradGradGradGradGradGradGradGradGradGradGradGrad
 Berny optimization.
 Initialization pass.
                           ----------------------------
                           !    Initial Parameters    !
                           ! (Angstroms and Degrees)  !
 --------------------------                            --------------------------
 ! Name  Definition              Value          Derivative Info.                !
 --------------------------------------------------------------------------------
 ! R1    R(1,4)                  1.3697         estimate D2E/DX2                !
 ! R2    R(1,6)                  1.121          estimate D2E/DX2                !
 ! R3    R(2,3)                  1.4169         estimate D2E/DX2                !
 ! R4    R(2,4)                  1.3357         estimate D2E/DX2                !
 ! R5    R(2,5)                  1.0824         estimate D2E/DX2                !
 ! R6    R(3,4)                  1.4526         estimate D2E/DX2                !
 ! A1    A(3,2,5)              151.9747         estimate D2E/DX2                !
 ! A2    A(4,2,5)              144.4013         estimate D2E/DX2                !
 ! A3    A(1,4,2)              150.6276         estimate D2E/DX2                !
 ! A4    A(1,4,3)              148.4621         estimate D2E/DX2                !
 ! A5    L(4,1,6,5,-1)         180.4656         estimate D2E/DX2                !
 ! A6    L(4,1,6,5,-2)         180.0019         estimate D2E/DX2                !
 ! D1    D(3,2,4,1)            179.9995         estimate D2E/DX2                !
 ! D2    D(3,2,4,5)           -179.9975         estimate D2E/DX2                !
 ! D3    D(5,2,4,1)             -0.003          estimate D2E/DX2                !
 --------------------------------------------------------------------------------
 Trust Radius=3.00D-01 FncErr=1.00D-07 GrdErr=1.00D-06
 Number of steps in this run=    100 maximum allowed number of steps=    100.
 GradGradGradGradGradGradGradGradGradGradGradGradGradGradGradGradGradGrad

 Leave Link  103 at Thu Mar  7 12:03:26 2019, MaxMem=    33554432 cpu:         0.0
 (Enter /home/proyectos/fulerenos/M3C-v2.0/M3C-deps_CCC/g09-AM64L-G09RevC.01/l202.exe)
                          Input orientation:                          
 ---------------------------------------------------------------------
 Center     Atomic      Atomic             Coordinates (Angstroms)
 Number     Number       Type             X           Y           Z
 ---------------------------------------------------------------------
      1          6           0       -1.064663    0.082078    0.470452
      2          6           0        1.023447    0.422763   -1.069821
      3          6           0        1.509640   -0.531034   -0.141657
      4          6           0        0.169134    0.028241   -0.121866
      5          1           0        1.145193    1.063819   -1.933393
      6          8           0       -2.071675    0.120029    0.961386
 ---------------------------------------------------------------------
                    Distance matrix (angstroms):
                    1          2          3          4          5
     1  C    0.000000
     2  C    2.617004   0.000000
     3  C    2.716177   1.416898   0.000000
     4  C    1.369669   1.335708   1.452631   0.000000
     5  H    3.409655   1.082373   2.426251   2.303637   0.000000
     6  O    1.120950   3.714462   3.803473   2.490599   4.429303
                    6
     6  O    0.000000
 Symmetry turned off by external request.
 Stoichiometry    C4HO
 Rotational constants (GHZ):     34.2202376      3.3966149      3.0899174
 Leave Link  202 at Thu Mar  7 12:03:26 2019, MaxMem=    33554432 cpu:         0.0
 (Enter /home/proyectos/fulerenos/M3C-v2.0/M3C-deps_CCC/g09-AM64L-G09RevC.01/l301.exe)
 Standard basis: 6-311++G(3df,2p) (5D, 7F)
 Ernie: Thresh=  0.10000D-02 Tol=  0.10000D-05 Strict=F.
   205 basis functions,   302 primitive gaussians,   235 cartesian basis functions
    18 alpha electrons       16 beta electrons
       nuclear repulsion energy       122.9059565776 Hartrees.
 IExCor=  402 DFT=T Ex+Corr=B3LYP ExCW=0 ScaHFX=  0.200000
 ScaDFX=  0.800000  0.720000  1.000000  0.810000 ScalE2=  1.000000  1.000000
 IRadAn=      0 IRanWt=     -1 IRanGd=            0 ICorTp=0 IEmpDi=  4
 NAtoms=    6 NActive=    6 NUniq=    6 SFac= 1.00D+00 NAtFMM=   60 NAOKFM=F Big=F
 Integral buffers will be    131072 words long.
 Raffenetti 2 integral format.
 Two-electron integral symmetry is turned off.
 Leave Link  301 at Thu Mar  7 12:03:26 2019, MaxMem=    33554432 cpu:         0.1
 (Enter /home/proyectos/fulerenos/M3C-v2.0/M3C-deps_CCC/g09-AM64L-G09RevC.01/l302.exe)
 NPDir=0 NMtPBC=     1 NCelOv=     1 NCel=       1 NClECP=     1 NCelD=      1
         NCelK=      1 NCelE2=     1 NClLst=     1 CellRange=     0.0.
 One-electron integrals computed using PRISM.
 NBasis=   205 RedAO= T EigKep=  7.85D-06  NBF=   205
 NBsUse=   205 1.00D-06 EigRej= -1.00D+00 NBFU=   205
 Precomputing XC quadrature grid using
 IXCGrd= 4 IRadAn=           0 IRanWt=          -1 IRanGd=           0 AccXCQ= 0.00D+00.
 Generated NRdTot=       0 NPtTot=           0 NUsed=           0 NTot=          32
 NSgBfM=   235   235   235   235   235 MxSgAt=     6 MxSgA2=     6.
 Leave Link  302 at Thu Mar  7 12:03:27 2019, MaxMem=    33554432 cpu:         0.6
 (Enter /home/proyectos/fulerenos/M3C-v2.0/M3C-deps_CCC/g09-AM64L-G09RevC.01/l303.exe)
 DipDrv:  MaxL=1.
 Leave Link  303 at Thu Mar  7 12:03:27 2019, MaxMem=    33554432 cpu:         0.1
 (Enter /home/proyectos/fulerenos/M3C-v2.0/M3C-deps_CCC/g09-AM64L-G09RevC.01/l401.exe)
 ExpMin= 3.60D-02 ExpMax= 8.59D+03 ExpMxC= 1.30D+03 IAcc=3 IRadAn=         5 AccDes= 0.00D+00
 Harris functional with IExCor=  402 and IRadAn=       5 diagonalized for initial guess.
 HarFok:  IExCor=  402 AccDes= 0.00D+00 IRadAn=         5 IDoV= 1 UseB2=F ITyADJ=14
 ICtDFT=  3500011 ScaDFX=  1.000000  1.000000  1.000000  1.000000
 FoFCou: FMM=F IPFlag=           0 FMFlag=      100000 FMFlg1=           0
         NFxFlg=           0 DoJE=T BraDBF=F KetDBF=T FulRan=T
         wScrn=  0.000000 ICntrl=     500 IOpCl=  0 I1Cent=   200000004 NGrid=           0
         NMat0=    1 NMatS0=      1 NMatT0=    0 NMatD0=    1 NMtDS0=    0 NMtDT0=    0
 Symmetry not used in FoFCou.
 Harris En= -228.267158340719    
 JPrj=0 DoOrth=F DoCkMO=F.
 Initial guess <Sx>= 0.0000 <Sy>= 0.0000 <Sz>= 1.0000 <S**2>= 2.0000 S= 1.0000
 Leave Link  401 at Thu Mar  7 12:03:30 2019, MaxMem=    33554432 cpu:         7.0
 (Enter /home/proyectos/fulerenos/M3C-v2.0/M3C-deps_CCC/g09-AM64L-G09RevC.01/l502.exe)
 UHF open shell SCF:
 Using DIIS extrapolation, IDIIS=  1040.
 Two-electron integral symmetry not used.
 IVT=      187057 IEndB=      187057 NGot=    33554432 MDV=    33439476
 LenX=    33439476 LenY=    33383810
 Requested convergence on RMS density matrix=1.00D-08 within 128 cycles.
 Requested convergence on MAX density matrix=1.00D-06.
 Requested convergence on             energy=1.00D-06.
 No special actions if energy rises.
 Fock matrices will be formed incrementally for  20 cycles.

 Cycle   1  Pass 1  IDiag  1:
 FoFJK:  IHMeth= 1 ICntrl=       0 DoSepK=F KAlg= 0 I1Cent=   0 FoldK=F
 IRaf= 970000000 NMat=   1 IRICut=       1 DoRegI=T DoRafI=F ISym2E= 0.
 FoFCou: FMM=F IPFlag=           0 FMFlag=      100000 FMFlg1=           0
         NFxFlg=           0 DoJE=F BraDBF=F KetDBF=F FulRan=T
         wScrn=  0.000000 ICntrl=       0 IOpCl=  1 I1Cent=           0 NGrid=           0
         NMat0=    1 NMatS0=      1 NMatT0=    0 NMatD0=    1 NMtDS0=    0 NMtDT0=    0
 Symmetry not used in FoFCou.
 E= -227.782268746455    
 DIIS: error= 4.21D-02 at cycle   1 NSaved=   1.
 NSaved= 1 IEnMin= 1 EnMin= -227.782268746455     IErMin= 1 ErrMin= 4.21D-02
 ErrMax= 4.21D-02  0.00D+00 EMaxC= 1.00D-01 BMatC= 1.09D+00 BMatP= 1.09D+00
 IDIUse=3 WtCom= 5.79D-01 WtEn= 4.21D-01
 Coeff-Com:  0.100D+01
 Coeff-En:   0.100D+01
 Coeff:      0.100D+01
 Gap=    -0.212 Goal=   None    Shift=    0.000
 Gap=    -0.032 Goal=   None    Shift=    0.000
 GapD=   -0.212 DampG=0.250 DampE=0.500 DampFc=0.2500 IDamp=-1.
 Damping current iteration by 2.50D-01
 RMSDP=8.58D+00 MaxDP=7.69D+02              OVMax= 9.90D-01

 Cycle   2  Pass 1  IDiag  1:
 RMSU=  2.14D+00    CP:  3.00D+00
 E= -227.774369606537     Delta-E=        0.007899139918 Rises=F Damp=T
 DIIS: error= 2.14D-02 at cycle   2 NSaved=   2.
 NSaved= 2 IEnMin= 1 EnMin= -227.782268746455     IErMin= 2 ErrMin= 2.14D-02
 ErrMax= 2.14D-02  0.00D+00 EMaxC= 1.00D-01 BMatC= 1.94D-01 BMatP= 1.09D+00
 IDIUse=3 WtCom= 7.86D-01 WtEn= 2.14D-01
 Coeff-Com:  0.199D-01 0.980D+00
 Coeff-En:   0.513D+00 0.487D+00
 Coeff:      0.125D+00 0.875D+00
 Gap=    -0.057 Goal=   None    Shift=    0.000
 Gap=    -0.015 Goal=   None    Shift=    0.000
 RMSDP=2.14D+00 MaxDP=1.92D+02 DE= 7.90D-03 OVMax= 9.72D-01

 Cycle   3  Pass 1  IDiag  1:
 RMSU=  4.97D-03    CP:  9.17D-01  3.66D-04
 E= -227.902880039146     Delta-E=       -0.128510432610 Rises=F Damp=F
 DIIS: error= 5.07D-02 at cycle   3 NSaved=   3.
 NSaved= 3 IEnMin= 3 EnMin= -227.902880039146     IErMin= 2 ErrMin= 2.14D-02
 ErrMax= 5.07D-02  0.00D+00 EMaxC= 1.00D-01 BMatC= 7.14D-01 BMatP= 1.94D-01
 IDIUse=2 WtCom= 0.00D+00 WtEn= 1.00D+00
 EnCoef did     1 forward-backward iterations
 Coeff-En:   0.360D-01 0.283D+00 0.681D+00
 Coeff:      0.360D-01 0.283D+00 0.681D+00
 Gap=    -0.047 Goal=   None    Shift=    0.000
 Gap=     0.052 Goal=   None    Shift=    0.000
 RMSDP=4.90D+00 MaxDP=7.39D+02 DE=-1.29D-01 OVMax= 9.97D-01

 Cycle   4  Pass 1  IDiag  1:
 RMSU=  3.71D+00    CP:  3.00D+00  1.49D+00  3.00D+00
 E= -227.178962978376     Delta-E=        0.723917060771 Rises=F Damp=F
 DIIS: error= 7.71D-02 at cycle   4 NSaved=   4.
 NSaved= 4 IEnMin= 3 EnMin= -227.902880039146     IErMin= 2 ErrMin= 2.14D-02
 ErrMax= 7.71D-02  0.00D+00 EMaxC= 1.00D-01 BMatC= 3.06D+00 BMatP= 1.94D-01
 IDIUse=2 WtCom= 0.00D+00 WtEn= 1.00D+00
 EnCoef did     4 forward-backward iterations
 Coeff-En:   0.496D-01 0.000D+00 0.697D+00 0.253D+00
 Coeff:      0.496D-01 0.000D+00 0.697D+00 0.253D+00
 Gap=    -0.019 Goal=   None    Shift=    0.000
 Gap=     0.087 Goal=   None    Shift=    0.000
 RMSDP=2.52D+00 MaxDP=2.89D+02 DE= 7.24D-01 OVMax= 6.94D-01

 Cycle   5  Pass 1  IDiag  1:
 RMSU=  2.01D+00    CP:  3.00D+00  1.44D+00 -3.00D+00  5.91D-01
 E= -228.016002244894     Delta-E=       -0.837039266518 Rises=F Damp=F
 DIIS: error= 3.75D-02 at cycle   5 NSaved=   5.
 NSaved= 5 IEnMin= 5 EnMin= -228.016002244894     IErMin= 2 ErrMin= 2.14D-02
 ErrMax= 3.75D-02  0.00D+00 EMaxC= 1.00D-01 BMatC= 3.71D-01 BMatP= 1.94D-01
 IDIUse=2 WtCom= 0.00D+00 WtEn= 1.00D+00
 Coeff-En:   0.000D+00 0.000D+00 0.353D+00 0.000D+00 0.647D+00
 Coeff:      0.000D+00 0.000D+00 0.353D+00 0.000D+00 0.647D+00
 Gap=     0.004 Goal=   None    Shift=    0.000
 Gap=     0.144 Goal=   None    Shift=    0.000
 RMSDP=3.31D+00 MaxDP=3.63D+02 DE=-8.37D-01 OVMax= 4.97D-01

 Cycle   6  Pass 1  IDiag  1:
 RMSU=  1.55D-01    CP:  3.00D+00  3.30D-01 -3.00D+00  1.25D-01  2.54D-01
 E= -228.080587167300     Delta-E=       -0.064584922407 Rises=F Damp=F
 DIIS: error= 1.56D-02 at cycle   6 NSaved=   6.
 NSaved= 6 IEnMin= 6 EnMin= -228.080587167300     IErMin= 6 ErrMin= 1.56D-02
 ErrMax= 1.56D-02  0.00D+00 EMaxC= 1.00D-01 BMatC= 9.53D-02 BMatP= 1.94D-01
 IDIUse=3 WtCom= 8.44D-01 WtEn= 1.56D-01
 EnCoef did     7 forward-backward iterations
 Coeff-Com: -0.349D-01 0.156D+00 0.249D+00-0.654D-01 0.442D+00 0.253D+00
 Coeff-En:   0.000D+00 0.000D+00 0.228D-01 0.000D+00 0.134D+00 0.843D+00
 Coeff:     -0.294D-01 0.132D+00 0.214D+00-0.552D-01 0.394D+00 0.345D+00
 Gap=     0.015 Goal=   None    Shift=    0.000
 Gap=     0.151 Goal=   None    Shift=    0.000
 RMSDP=1.56D+00 MaxDP=1.53D+02 DE=-6.46D-02 OVMax= 4.32D-01

 Cycle   7  Pass 1  IDiag  1:
 RMSU=  1.76D-01    CP:  3.00D+00  8.45D-01 -3.00D+00  2.62D-01  7.33D-01
                    CP:  1.11D+00
 E= -228.102371086715     Delta-E=       -0.021783919415 Rises=F Damp=F
 DIIS: error= 5.75D-03 at cycle   7 NSaved=   7.
 NSaved= 7 IEnMin= 7 EnMin= -228.102371086715     IErMin= 7 ErrMin= 5.75D-03
 ErrMax= 5.75D-03  0.00D+00 EMaxC= 1.00D-01 BMatC= 1.46D-02 BMatP= 9.53D-02
 IDIUse=3 WtCom= 9.43D-01 WtEn= 5.75D-02
 Coeff-Com:  0.126D-01 0.343D-01 0.276D-01-0.635D-02 0.279D-01 0.248D+00
 Coeff-Com:  0.656D+00
 Coeff-En:   0.000D+00 0.000D+00 0.000D+00 0.000D+00 0.000D+00 0.253D+00
 Coeff-En:   0.747D+00
 Coeff:      0.118D-01 0.323D-01 0.260D-01-0.599D-02 0.263D-01 0.248D+00
 Coeff:      0.661D+00
 Gap=     0.037 Goal=   None    Shift=    0.000
 Gap=     0.154 Goal=   None    Shift=    0.000
 RMSDP=1.45D+00 MaxDP=1.43D+02 DE=-2.18D-02 OVMax= 3.13D-01

 Cycle   8  Pass 1  IDiag  1:
 RMSU=  2.17D-02    CP:  3.00D+00  3.60D-01 -3.00D+00  1.08D-01  3.22D-01
                    CP:  1.24D+00  3.80D-01
 E= -228.107304121001     Delta-E=       -0.004933034286 Rises=F Damp=F
 DIIS: error= 4.46D-03 at cycle   8 NSaved=   8.
 NSaved= 8 IEnMin= 8 EnMin= -228.107304121001     IErMin= 8 ErrMin= 4.46D-03
 ErrMax= 4.46D-03  0.00D+00 EMaxC= 1.00D-01 BMatC= 7.98D-03 BMatP= 1.46D-02
 IDIUse=3 WtCom= 9.55D-01 WtEn= 4.46D-02
 Coeff-Com: -0.164D-01 0.476D-01 0.186D-01 0.160D-02-0.639D-01-0.777D-01
 Coeff-Com:  0.385D+00 0.705D+00
 Coeff-En:   0.000D+00 0.000D+00 0.000D+00 0.000D+00 0.000D+00 0.000D+00
 Coeff-En:   0.300D+00 0.700D+00
 Coeff:     -0.157D-01 0.455D-01 0.178D-01 0.153D-02-0.610D-01-0.743D-01
 Coeff:      0.381D+00 0.705D+00
 Gap=     0.032 Goal=   None    Shift=    0.000
 Gap=     0.155 Goal=   None    Shift=    0.000
 RMSDP=8.33D-02 MaxDP=5.87D+00 DE=-4.93D-03 OVMax= 7.42D-02

 Cycle   9  Pass 1  IDiag  1:
 RMSU=  1.05D-02    CP:  3.00D+00  3.77D-01 -3.00D+00  1.04D-01  3.51D-01
                    CP:  1.39D+00  5.82D-01  1.35D+00
 E= -228.110132618666     Delta-E=       -0.002828497665 Rises=F Damp=F
 DIIS: error= 1.10D-03 at cycle   9 NSaved=   9.
 NSaved= 9 IEnMin= 9 EnMin= -228.110132618666     IErMin= 9 ErrMin= 1.10D-03
 ErrMax= 1.10D-03  0.00D+00 EMaxC= 1.00D-01 BMatC= 5.08D-04 BMatP= 7.98D-03
 IDIUse=3 WtCom= 9.89D-01 WtEn= 1.10D-02
 Coeff-Com: -0.114D-01 0.206D-01 0.929D-02 0.177D-02-0.301D-01-0.875D-01
 Coeff-Com:  0.125D+00 0.303D+00 0.669D+00
 Coeff-En:   0.000D+00 0.000D+00 0.000D+00 0.000D+00 0.000D+00 0.000D+00
 Coeff-En:   0.000D+00 0.000D+00 0.100D+01
 Coeff:     -0.113D-01 0.203D-01 0.919D-02 0.175D-02-0.297D-01-0.865D-01
 Coeff:      0.124D+00 0.300D+00 0.673D+00
 Gap=     0.033 Goal=   None    Shift=    0.000
 Gap=     0.157 Goal=   None    Shift=    0.000
 RMSDP=7.79D-02 MaxDP=8.70D+00 DE=-2.83D-03 OVMax= 1.69D-02

 Cycle  10  Pass 1  IDiag  1:
 RMSU=  1.67D-03    CP:  3.00D+00  3.51D-01 -3.00D+00  9.57D-02  3.30D-01
                    CP:  1.43D+00  5.79D-01  1.46D+00  1.63D+00
 E= -228.110261340410     Delta-E=       -0.000128721744 Rises=F Damp=F
 DIIS: error= 7.90D-04 at cycle  10 NSaved=  10.
 NSaved=10 IEnMin=10 EnMin= -228.110261340410     IErMin=10 ErrMin= 7.90D-04
 ErrMax= 7.90D-04  0.00D+00 EMaxC= 1.00D-01 BMatC= 2.82D-04 BMatP= 5.08D-04
 IDIUse=3 WtCom= 9.92D-01 WtEn= 7.90D-03
 Coeff-Com: -0.222D-02 0.131D-02 0.266D-02-0.152D-02 0.159D-01-0.181D-01
 Coeff-Com: -0.721D-01-0.229D+00 0.470D+00 0.833D+00
 Coeff-En:   0.000D+00 0.000D+00 0.000D+00 0.000D+00 0.000D+00 0.000D+00
 Coeff-En:   0.000D+00 0.000D+00 0.000D+00 0.100D+01
 Coeff:     -0.220D-02 0.130D-02 0.264D-02-0.151D-02 0.158D-01-0.180D-01
 Coeff:     -0.716D-01-0.227D+00 0.467D+00 0.834D+00
 Gap=     0.034 Goal=   None    Shift=    0.000
 Gap=     0.156 Goal=   None    Shift=    0.000
 RMSDP=8.42D-02 MaxDP=9.12D+00 DE=-1.29D-04 OVMax= 1.89D-02

 Cycle  11  Pass 1  IDiag  1:
 RMSU=  8.55D-04    CP:  3.00D+00  3.23D-01 -3.00D+00  8.76D-02  3.05D-01
                    CP:  1.45D+00  5.60D-01  1.55D+00  2.29D+00  2.07D+00
 E= -228.110337518548     Delta-E=       -0.000076178138 Rises=F Damp=F
 DIIS: error= 4.69D-04 at cycle  11 NSaved=  11.
 NSaved=11 IEnMin=11 EnMin= -228.110337518548     IErMin=11 ErrMin= 4.69D-04
 ErrMax= 4.69D-04  0.00D+00 EMaxC= 1.00D-01 BMatC= 9.51D-05 BMatP= 2.82D-04
 IDIUse=3 WtCom= 9.95D-01 WtEn= 4.69D-03
 Coeff-Com:  0.718D-03-0.404D-03 0.987D-03-0.433D-03 0.412D-02-0.878D-03
 Coeff-Com: -0.202D-01-0.158D+00 0.843D-01 0.356D+00 0.734D+00
 Coeff-En:   0.000D+00 0.000D+00 0.000D+00 0.000D+00 0.000D+00 0.000D+00
 Coeff-En:   0.000D+00 0.000D+00 0.000D+00 0.000D+00 0.100D+01
 Coeff:      0.715D-03-0.403D-03 0.982D-03-0.431D-03 0.410D-02-0.874D-03
 Coeff:     -0.201D-01-0.157D+00 0.839D-01 0.354D+00 0.736D+00
 Gap=     0.034 Goal=   None    Shift=    0.000
 Gap=     0.157 Goal=   None    Shift=    0.000
 RMSDP=9.59D-03 MaxDP=1.38D+00 DE=-7.62D-05 OVMax= 5.80D-03

 Cycle  12  Pass 1  IDiag  1:
 RMSU=  4.83D-04    CP:  3.00D+00  3.20D-01 -3.00D+00  8.70D-02  3.02D-01
                    CP:  1.46D+00  5.66D-01  1.54D+00  2.62D+00  2.49D+00
                    CP:  1.27D+00
 E= -228.110370643363     Delta-E=       -0.000033124815 Rises=F Damp=F
 DIIS: error= 1.66D-04 at cycle  12 NSaved=  12.
 NSaved=12 IEnMin=12 EnMin= -228.110370643363     IErMin=12 ErrMin= 1.66D-04
 ErrMax= 1.66D-04  0.00D+00 EMaxC= 1.00D-01 BMatC= 1.16D-05 BMatP= 9.51D-05
 IDIUse=3 WtCom= 9.98D-01 WtEn= 1.66D-03
 Coeff-Com:  0.599D-03-0.873D-03 0.667D-03-0.577D-05-0.461D-03-0.146D-02
 Coeff-Com:  0.245D-02-0.383D-01-0.192D-01 0.524D-01 0.151D+00 0.853D+00
 Coeff-En:   0.000D+00 0.000D+00 0.000D+00 0.000D+00 0.000D+00 0.000D+00
 Coeff-En:   0.000D+00 0.000D+00 0.000D+00 0.000D+00 0.000D+00 0.100D+01
 Coeff:      0.598D-03-0.871D-03 0.666D-03-0.576D-05-0.460D-03-0.146D-02
 Coeff:      0.245D-02-0.382D-01-0.192D-01 0.523D-01 0.151D+00 0.854D+00
 Gap=     0.034 Goal=   None    Shift=    0.000
 Gap=     0.157 Goal=   None    Shift=    0.000
 RMSDP=3.30D-03 MaxDP=4.70D-01 DE=-3.31D-05 OVMax= 2.81D-03

 Cycle  13  Pass 1  IDiag  1:
 RMSU=  1.39D-04    CP:  3.00D+00  3.20D-01 -3.00D+00  8.73D-02  3.01D-01
                    CP:  1.47D+00  5.68D-01  1.52D+00  2.82D+00  2.77D+00
                    CP:  1.35D+00  1.68D+00
 E= -228.110375224486     Delta-E=       -0.000004581122 Rises=F Damp=F
 DIIS: error= 5.64D-05 at cycle  13 NSaved=  13.
 NSaved=13 IEnMin=13 EnMin= -228.110375224486     IErMin=13 ErrMin= 5.64D-05
 ErrMax= 5.64D-05  0.00D+00 EMaxC= 1.00D-01 BMatC= 1.05D-06 BMatP= 1.16D-05
 IDIUse=1 WtCom= 1.00D+00 WtEn= 0.00D+00
 Coeff-Com:  0.385D-03-0.494D-03-0.165D-03 0.147D-03-0.101D-02-0.884D-03
 Coeff-Com:  0.352D-02 0.284D-02-0.803D-02-0.450D-02-0.104D+00 0.265D+00
 Coeff-Com:  0.847D+00
 Coeff:      0.385D-03-0.494D-03-0.165D-03 0.147D-03-0.101D-02-0.884D-03
 Coeff:      0.352D-02 0.284D-02-0.803D-02-0.450D-02-0.104D+00 0.265D+00
 Coeff:      0.847D+00
 Gap=     0.034 Goal=   None    Shift=    0.000
 Gap=     0.157 Goal=   None    Shift=    0.000
 RMSDP=4.59D-03 MaxDP=5.26D-01 DE=-4.58D-06 OVMax= 1.64D-03

 Cycle  14  Pass 1  IDiag  1:
 RMSU=  9.91D-05    CP:  3.00D+00  3.18D-01 -3.00D+00  8.72D-02  3.00D-01
                    CP:  1.47D+00  5.66D-01  1.50D+00  2.91D+00  2.93D+00
                    CP:  1.42D+00  1.98D+00  1.73D+00
 E= -228.110375578063     Delta-E=       -0.000000353577 Rises=F Damp=F
 DIIS: error= 3.01D-05 at cycle  14 NSaved=  14.
 NSaved=14 IEnMin=14 EnMin= -228.110375578063     IErMin=14 ErrMin= 3.01D-05
 ErrMax= 3.01D-05  0.00D+00 EMaxC= 1.00D-01 BMatC= 4.43D-07 BMatP= 1.05D-06
 IDIUse=1 WtCom= 1.00D+00 WtEn= 0.00D+00
 Coeff-Com:  0.746D-05-0.296D-04 0.395D-04 0.668D-05-0.776D-04-0.157D-03
 Coeff-Com:  0.132D-02 0.695D-02-0.398D-02-0.141D-01-0.792D-01-0.685D-01
 Coeff-Com:  0.336D+00 0.821D+00
 Coeff:      0.746D-05-0.296D-04 0.395D-04 0.668D-05-0.776D-04-0.157D-03
 Coeff:      0.132D-02 0.695D-02-0.398D-02-0.141D-01-0.792D-01-0.685D-01
 Coeff:      0.336D+00 0.821D+00
 Gap=     0.034 Goal=   None    Shift=    0.000
 Gap=     0.157 Goal=   None    Shift=    0.000
 RMSDP=1.15D-03 MaxDP=1.50D-01 DE=-3.54D-07 OVMax= 8.11D-04

 Cycle  15  Pass 1  IDiag  1:
 RMSU=  4.70D-05    CP:  3.00D+00  3.18D-01 -3.00D+00  8.73D-02  3.00D-01
                    CP:  1.47D+00  5.66D-01  1.49D+00  2.98D+00  3.00D+00
                    CP:  1.46D+00  2.21D+00  2.22D+00  1.48D+00
 E= -228.110375787368     Delta-E=       -0.000000209305 Rises=F Damp=F
 DIIS: error= 4.12D-06 at cycle  15 NSaved=  15.
 NSaved=15 IEnMin=15 EnMin= -228.110375787368     IErMin=15 ErrMin= 4.12D-06
 ErrMax= 4.12D-06  0.00D+00 EMaxC= 1.00D-01 BMatC= 6.11D-09 BMatP= 4.43D-07
 IDIUse=1 WtCom= 1.00D+00 WtEn= 0.00D+00
 Coeff-Com: -0.159D-04 0.207D-04 0.179D-04-0.214D-05 0.586D-04 0.189D-03
 Coeff-Com: -0.941D-04-0.137D-02 0.703D-03 0.276D-02 0.798D-02-0.134D-01
 Coeff-Com: -0.880D-01-0.244D-04 0.109D+01
 Coeff:     -0.159D-04 0.207D-04 0.179D-04-0.214D-05 0.586D-04 0.189D-03
 Coeff:     -0.941D-04-0.137D-02 0.703D-03 0.276D-02 0.798D-02-0.134D-01
 Coeff:     -0.880D-01-0.244D-04 0.109D+01
 Gap=     0.034 Goal=   None    Shift=    0.000
 Gap=     0.157 Goal=   None    Shift=    0.000
 RMSDP=5.09D-04 MaxDP=6.17D-02 DE=-2.09D-07 OVMax= 2.35D-04

 Cycle  16  Pass 1  IDiag  1:
 RMSU=  2.49D-05    CP:  3.00D+00  3.18D-01 -3.00D+00  8.73D-02  2.99D-01
                    CP:  1.47D+00  5.66D-01  1.48D+00  3.00D+00  3.00D+00
                    CP:  1.46D+00  2.25D+00  2.47D+00  1.98D+00  1.78D+00
 E= -228.110375794699     Delta-E=       -0.000000007331 Rises=F Damp=F
 DIIS: error= 1.11D-06 at cycle  16 NSaved=  16.
 NSaved=16 IEnMin=16 EnMin= -228.110375794699     IErMin=16 ErrMin= 1.11D-06
 ErrMax= 1.11D-06  0.00D+00 EMaxC= 1.00D-01 BMatC= 6.72D-10 BMatP= 6.11D-09
 IDIUse=1 WtCom= 1.00D+00 WtEn= 0.00D+00
 Coeff-Com: -0.340D-05 0.118D-05 0.388D-05-0.967D-06 0.109D-04 0.385D-04
 Coeff-Com: -0.106D-03-0.572D-03-0.385D-03 0.142D-02 0.814D-02 0.143D-01
 Coeff-Com: -0.491D-01-0.111D+00 0.539D-01 0.108D+01
 Coeff:     -0.340D-05 0.118D-05 0.388D-05-0.967D-06 0.109D-04 0.385D-04
 Coeff:     -0.106D-03-0.572D-03-0.385D-03 0.142D-02 0.814D-02 0.143D-01
 Coeff:     -0.491D-01-0.111D+00 0.539D-01 0.108D+01
 Gap=     0.034 Goal=   None    Shift=    0.000
 Gap=     0.157 Goal=   None    Shift=    0.000
 RMSDP=2.34D-04 MaxDP=2.74D-02 DE=-7.33D-09 OVMax= 1.04D-04

 Cycle  17  Pass 1  IDiag  1:
 RMSU=  3.31D-05    CP:  3.00D+00  3.18D-01 -3.00D+00  8.73D-02  2.99D-01
                    CP:  1.47D+00  5.67D-01  1.48D+00  3.00D+00  3.00D+00
                    CP:  1.47D+00  2.26D+00  2.56D+00  2.20D+00  2.05D+00
                    CP:  1.46D+00
 E= -228.110375795725     Delta-E=       -0.000000001027 Rises=F Damp=F
 DIIS: error= 5.77D-07 at cycle  17 NSaved=  17.
 NSaved=17 IEnMin=17 EnMin= -228.110375795725     IErMin=17 ErrMin= 5.77D-07
 ErrMax= 5.77D-07  0.00D+00 EMaxC= 1.00D-01 BMatC= 8.58D-11 BMatP= 6.72D-10
 IDIUse=1 WtCom= 1.00D+00 WtEn= 0.00D+00
 Coeff-Com:  0.910D-06-0.368D-06-0.123D-05 0.148D-06-0.660D-05-0.232D-04
 Coeff-Com: -0.625D-05 0.275D-03-0.798D-04-0.312D-03-0.163D-02 0.881D-03
 Coeff-Com:  0.967D-02 0.284D-02-0.775D-01-0.868D-01 0.115D+01
 Coeff:      0.910D-06-0.368D-06-0.123D-05 0.148D-06-0.660D-05-0.232D-04
 Coeff:     -0.625D-05 0.275D-03-0.798D-04-0.312D-03-0.163D-02 0.881D-03
 Coeff:      0.967D-02 0.284D-02-0.775D-01-0.868D-01 0.115D+01
 Gap=     0.034 Goal=   None    Shift=    0.000
 Gap=     0.157 Goal=   None    Shift=    0.000
 RMSDP=5.75D-05 MaxDP=5.54D-03 DE=-1.03D-09 OVMax= 3.18D-05

 Cycle  18  Pass 1  IDiag  1:
 RMSU=  2.27D-06    CP:  3.00D+00  3.18D-01 -3.00D+00  8.73D-02  2.99D-01
                    CP:  1.47D+00  5.67D-01  1.48D+00  3.00D+00  3.00D+00
                    CP:  1.47D+00  2.26D+00  2.58D+00  2.27D+00  2.06D+00
                    CP:  1.62D+00  1.26D+00
 E= -228.110375795836     Delta-E=       -0.000000000111 Rises=F Damp=F
 DIIS: error= 2.37D-07 at cycle  18 NSaved=  18.
 NSaved=18 IEnMin=18 EnMin= -228.110375795836     IErMin=18 ErrMin= 2.37D-07
 ErrMax= 2.37D-07  0.00D+00 EMaxC= 1.00D-01 BMatC= 1.32D-11 BMatP= 8.58D-11
 IDIUse=1 WtCom= 1.00D+00 WtEn= 0.00D+00
 Coeff-Com:  0.412D-06-0.806D-06-0.657D-06 0.377D-06-0.303D-05 0.300D-06
 Coeff-Com:  0.936D-05 0.504D-04 0.657D-04-0.128D-03-0.617D-03-0.196D-02
 Coeff-Com:  0.362D-02 0.100D-01 0.185D-01-0.126D+00-0.285D+00 0.138D+01
 Coeff:      0.412D-06-0.806D-06-0.657D-06 0.377D-06-0.303D-05 0.300D-06
 Coeff:      0.936D-05 0.504D-04 0.657D-04-0.128D-03-0.617D-03-0.196D-02
 Coeff:      0.362D-02 0.100D-01 0.185D-01-0.126D+00-0.285D+00 0.138D+01
 Gap=     0.034 Goal=   None    Shift=    0.000
 Gap=     0.157 Goal=   None    Shift=    0.000
 RMSDP=1.42D-05 MaxDP=1.31D-03 DE=-1.11D-10 OVMax= 1.85D-05

 Cycle  19  Pass 1  IDiag  1:
 RMSU=  6.46D-07    CP:  3.00D+00  3.18D-01 -3.00D+00  8.73D-02  2.99D-01
                    CP:  1.47D+00  5.67D-01  1.48D+00  3.00D+00  3.00D+00
                    CP:  1.47D+00  2.26D+00  2.58D+00  2.29D+00  2.06D+00
                    CP:  1.68D+00  1.30D+00  1.77D+00
 E= -228.110375795869     Delta-E=       -0.000000000033 Rises=F Damp=F
 DIIS: error= 6.64D-08 at cycle  19 NSaved=  19.
 NSaved=19 IEnMin=19 EnMin= -228.110375795869     IErMin=19 ErrMin= 6.64D-08
 ErrMax= 6.64D-08  0.00D+00 EMaxC= 1.00D-01 BMatC= 2.10D-12 BMatP= 1.32D-11
 IDIUse=1 WtCom= 1.00D+00 WtEn= 0.00D+00
 Coeff-Com: -0.158D-06 0.188D-06 0.265D-06-0.462D-08 0.661D-06 0.304D-05
 Coeff-Com: -0.830D-06-0.340D-04 0.852D-05 0.722D-04 0.260D-03-0.163D-03
 Coeff-Com: -0.142D-02-0.527D-03 0.975D-02 0.203D-01-0.161D+00-0.404D-01
 Coeff-Com:  0.117D+01
 Coeff:     -0.158D-06 0.188D-06 0.265D-06-0.462D-08 0.661D-06 0.304D-05
 Coeff:     -0.830D-06-0.340D-04 0.852D-05 0.722D-04 0.260D-03-0.163D-03
 Coeff:     -0.142D-02-0.527D-03 0.975D-02 0.203D-01-0.161D+00-0.404D-01
 Coeff:      0.117D+01
 Gap=     0.034 Goal=   None    Shift=    0.000
 Gap=     0.157 Goal=   None    Shift=    0.000
 RMSDP=3.02D-06 MaxDP=3.99D-04 DE=-3.26D-11 OVMax= 8.87D-06

 Cycle  20  Pass 1  IDiag  1:
 RMSU=  8.58D-08    CP:  3.00D+00  3.18D-01 -3.00D+00  8.73D-02  2.99D-01
                    CP:  1.47D+00  5.67D-01  1.48D+00  3.00D+00  3.00D+00
                    CP:  1.47D+00  2.26D+00  2.58D+00  2.29D+00  2.05D+00
                    CP:  1.68D+00  1.27D+00  2.08D+00  1.95D+00
 E= -228.110375795897     Delta-E=       -0.000000000028 Rises=F Damp=F
 DIIS: error= 4.20D-08 at cycle  20 NSaved=  20.
 NSaved=20 IEnMin=20 EnMin= -228.110375795897     IErMin=20 ErrMin= 4.20D-08
 ErrMax= 4.20D-08  0.00D+00 EMaxC= 1.00D-01 BMatC= 4.49D-13 BMatP= 2.10D-12
 IDIUse=1 WtCom= 1.00D+00 WtEn= 0.00D+00
 Coeff-Com: -0.188D-07 0.851D-07 0.185D-07-0.895D-07 0.681D-06-0.114D-05
 Coeff-Com: -0.216D-05-0.300D-06-0.150D-04 0.409D-05 0.375D-04 0.315D-03
 Coeff-Com: -0.213D-03-0.854D-03-0.856D-02 0.201D-01 0.964D-01-0.244D+00
 Coeff-Com: -0.336D+00 0.147D+01
 Coeff:     -0.188D-07 0.851D-07 0.185D-07-0.895D-07 0.681D-06-0.114D-05
 Coeff:     -0.216D-05-0.300D-06-0.150D-04 0.409D-05 0.375D-04 0.315D-03
 Coeff:     -0.213D-03-0.854D-03-0.856D-02 0.201D-01 0.964D-01-0.244D+00
 Coeff:     -0.336D+00 0.147D+01
 Gap=     0.034 Goal=   None    Shift=    0.000
 Gap=     0.157 Goal=   None    Shift=    0.000
 RMSDP=2.31D-06 MaxDP=2.27D-04 DE=-2.81D-11 OVMax= 6.19D-06

 Cycle  21  Pass 1  IDiag  1:
 Restarting incremental Fock formation.
 E= -228.110375795936     Delta-E=       -0.000000000039 Rises=F Damp=F
 DIIS: error= 1.92D-08 at cycle  21 NSaved=  20.
 NSaved=20 IEnMin=20 EnMin= -228.110375795936     IErMin=20 ErrMin= 1.92D-08
 ErrMax= 1.92D-08  0.00D+00 EMaxC= 1.00D-01 BMatC= 1.05D-13 BMatP= 4.49D-13
 IDIUse=1 WtCom= 1.00D+00 WtEn= 0.00D+00
 Coeff-Com:  0.745D-07-0.114D-06-0.610D-07 0.432D-07-0.571D-06 0.130D-07
 Coeff-Com:  0.379D-05-0.214D-05-0.133D-04-0.442D-04 0.916D-04 0.298D-03
 Coeff-Com:  0.339D-04-0.328D-02-0.272D-02 0.486D-01-0.561D-02-0.341D+00
 Coeff-Com:  0.824D-01 0.122D+01
 Coeff:      0.745D-07-0.114D-06-0.610D-07 0.432D-07-0.571D-06 0.130D-07
 Coeff:      0.379D-05-0.214D-05-0.133D-04-0.442D-04 0.916D-04 0.298D-03
 Coeff:      0.339D-04-0.328D-02-0.272D-02 0.486D-01-0.561D-02-0.341D+00
 Coeff:      0.824D-01 0.122D+01
 Gap=     0.034 Goal=   None    Shift=    0.000
 Gap=     0.157 Goal=   None    Shift=    0.000
 RMSDP=1.48D-06 MaxDP=1.42D-04 DE=-3.91D-11 OVMax= 3.34D-06

 Cycle  22  Pass 1  IDiag  1:
 RMSU=  7.57D-07    CP:  1.00D+00
 E= -228.110375795963     Delta-E=       -0.000000000028 Rises=F Damp=F
 DIIS: error= 1.13D-08 at cycle  22 NSaved=  20.
 NSaved=20 IEnMin=20 EnMin= -228.110375795963     IErMin=20 ErrMin= 1.13D-08
 ErrMax= 1.13D-08  0.00D+00 EMaxC= 1.00D-01 BMatC= 6.26D-14 BMatP= 1.05D-13
 IDIUse=1 WtCom= 1.00D+00 WtEn= 0.00D+00
 Coeff-Com:  0.488D-08 0.476D-08-0.779D-07 0.970D-07 0.643D-06-0.767D-07
 Coeff-Com:  0.306D-05-0.513D-05-0.178D-04-0.285D-04 0.127D-03 0.186D-04
 Coeff-Com:  0.900D-03-0.520D-02-0.285D-02 0.474D-01-0.504D-01-0.316D+00
 Coeff-Com:  0.466D+00 0.860D+00
 Coeff:      0.488D-08 0.476D-08-0.779D-07 0.970D-07 0.643D-06-0.767D-07
 Coeff:      0.306D-05-0.513D-05-0.178D-04-0.285D-04 0.127D-03 0.186D-04
 Coeff:      0.900D-03-0.520D-02-0.285D-02 0.474D-01-0.504D-01-0.316D+00
 Coeff:      0.466D+00 0.860D+00
 Gap=     0.034 Goal=   None    Shift=    0.000
 Gap=     0.157 Goal=   None    Shift=    0.000
 RMSDP=3.70D-07 MaxDP=3.38D-05 DE=-2.76D-11 OVMax= 1.23D-06

 Cycle  23  Pass 1  IDiag  1:
 RMSU=  1.10D-07    CP:  1.00D+00  1.10D+00
 E= -228.110375795923     Delta-E=        0.000000000040 Rises=F Damp=F
 DIIS: error= 6.47D-09 at cycle  23 NSaved=  20.
 NSaved=20 IEnMin=19 EnMin= -228.110375795963     IErMin=20 ErrMin= 6.47D-09
 ErrMax= 6.47D-09  0.00D+00 EMaxC= 1.00D-01 BMatC= 1.29D-14 BMatP= 6.26D-14
 IDIUse=1 WtCom= 1.00D+00 WtEn= 0.00D+00
 Large coefficients: NSaved= 20 BigCof=    0.00 CofMax=   10.00 Det=-8.48D-15
 Inversion failed.  Reducing to 19 matrices.
 Large coefficients: NSaved= 19 BigCof=    0.00 CofMax=   10.00 Det=-8.50D-15
 Inversion failed.  Reducing to 18 matrices.
 Large coefficients: NSaved= 18 BigCof=    0.00 CofMax=   10.00 Det=-8.63D-15
 Inversion failed.  Reducing to 17 matrices.
 Large coefficients: NSaved= 17 BigCof=    0.00 CofMax=   10.00 Det=-9.02D-15
 Inversion failed.  Reducing to 16 matrices.
 Large coefficients: NSaved= 16 BigCof=    0.00 CofMax=   10.00 Det=-9.02D-15
 Inversion failed.  Reducing to 15 matrices.
 Coeff-Com:  0.434D-06-0.174D-05-0.479D-05-0.811D-05 0.150D-04-0.601D-04
 Coeff-Com:  0.300D-03-0.497D-03-0.225D-02 0.176D-02 0.333D-01-0.258D-01
 Coeff-Com: -0.106D+00 0.422D-01 0.106D+01
 Coeff:      0.434D-06-0.174D-05-0.479D-05-0.811D-05 0.150D-04-0.601D-04
 Coeff:      0.300D-03-0.497D-03-0.225D-02 0.176D-02 0.333D-01-0.258D-01
 Coeff:     -0.106D+00 0.422D-01 0.106D+01
 Gap=     0.034 Goal=   None    Shift=    0.000
 Gap=     0.157 Goal=   None    Shift=    0.000
 RMSDP=3.06D-07 MaxDP=3.82D-05 DE= 3.99D-11 OVMax= 2.61D-07

 Cycle  24  Pass 1  IDiag  1:
 RMSU=  4.31D-08    CP:  1.00D+00  8.86D-01  1.97D+00
 E= -228.110375795950     Delta-E=       -0.000000000026 Rises=F Damp=F
 DIIS: error= 1.52D-09 at cycle  24 NSaved=  16.
 NSaved=16 IEnMin=14 EnMin= -228.110375795963     IErMin=16 ErrMin= 1.52D-09
 ErrMax= 1.52D-09  0.00D+00 EMaxC= 1.00D-01 BMatC= 1.23D-15 BMatP= 1.29D-14
 IDIUse=1 WtCom= 1.00D+00 WtEn= 0.00D+00
 Large coefficients: NSaved= 16 BigCof=    0.00 CofMax=   10.00 Det=-9.76D-16
 Inversion failed.  Reducing to 15 matrices.
 Coeff-Com:  0.354D-06 0.369D-05 0.923D-05-0.289D-04-0.224D-04 0.392D-04
 Coeff-Com:  0.782D-03-0.450D-03-0.800D-02 0.143D-01 0.326D-01-0.673D-01
 Coeff-Com: -0.980D-01 0.120D+00 0.101D+01
 Coeff:      0.354D-06 0.369D-05 0.923D-05-0.289D-04-0.224D-04 0.392D-04
 Coeff:      0.782D-03-0.450D-03-0.800D-02 0.143D-01 0.326D-01-0.673D-01
 Coeff:     -0.980D-01 0.120D+00 0.101D+01
 Gap=     0.034 Goal=   None    Shift=    0.000
 Gap=     0.157 Goal=   None    Shift=    0.000
 RMSDP=1.21D-07 MaxDP=1.03D-05 DE=-2.63D-11 OVMax= 6.30D-08

 Cycle  25  Pass 1  IDiag  1:
 RMSU=  4.25D-08    CP:  1.00D+00  8.28D-01  2.00D+00  3.02D-01
 E= -228.110375795963     Delta-E=       -0.000000000013 Rises=F Damp=F
 DIIS: error= 4.92D-10 at cycle  25 NSaved=  16.
 NSaved=16 IEnMin=13 EnMin= -228.110375795963     IErMin=16 ErrMin= 4.92D-10
 ErrMax= 4.92D-10  0.00D+00 EMaxC= 1.00D-01 BMatC= 6.44D-17 BMatP= 1.23D-15
 IDIUse=1 WtCom= 1.00D+00 WtEn= 0.00D+00
 Large coefficients: NSaved= 16 BigCof=    0.00 CofMax=   10.00 Det=-1.11D-16
 Inversion failed.  Reducing to 15 matrices.
 Coeff-Com:  0.272D-06 0.231D-05 0.171D-05 0.859D-05-0.234D-04-0.147D-03
 Coeff-Com:  0.410D-03 0.857D-03-0.342D-02-0.240D-02 0.156D-01 0.198D-02
 Coeff-Com: -0.133D+00-0.549D-01 0.117D+01
 Coeff:      0.272D-06 0.231D-05 0.171D-05 0.859D-05-0.234D-04-0.147D-03
 Coeff:      0.410D-03 0.857D-03-0.342D-02-0.240D-02 0.156D-01 0.198D-02
 Coeff:     -0.133D+00-0.549D-01 0.117D+01
 Gap=     0.034 Goal=   None    Shift=    0.000
 Gap=     0.157 Goal=   None    Shift=    0.000
 RMSDP=9.40D-08 MaxDP=9.02D-06 DE=-1.30D-11 OVMax= 2.99D-08

 Cycle  26  Pass 1  IDiag  1:
 RMSU=  8.92D-09    CP:  1.00D+00  7.88D-01  2.12D+00  1.64D-01  1.02D+00
 E= -228.110375795948     Delta-E=        0.000000000015 Rises=F Damp=F
 DIIS: error= 3.26D-10 at cycle  26 NSaved=  16.
 NSaved=16 IEnMin=12 EnMin= -228.110375795963     IErMin=16 ErrMin= 3.26D-10
 ErrMax= 3.26D-10  0.00D+00 EMaxC= 1.00D-01 BMatC= 6.18D-17 BMatP= 6.44D-17
 IDIUse=1 WtCom= 1.00D+00 WtEn= 0.00D+00
 Large coefficients: NSaved= 16 BigCof=    0.00 CofMax=   10.00 Det=-1.11D-17
 Inversion failed.  Reducing to 15 matrices.
 Coeff-Com: -0.619D-06-0.226D-05-0.709D-05 0.149D-04 0.215D-05 0.155D-03
 Coeff-Com: -0.117D-03-0.810D-03-0.193D-03 0.382D-02 0.278D-02-0.284D-01
 Coeff-Com: -0.458D-01-0.644D-01 0.113D+01
 Coeff:     -0.619D-06-0.226D-05-0.709D-05 0.149D-04 0.215D-05 0.155D-03
 Coeff:     -0.117D-03-0.810D-03-0.193D-03 0.382D-02 0.278D-02-0.284D-01
 Coeff:     -0.458D-01-0.644D-01 0.113D+01
 Gap=     0.034 Goal=   None    Shift=    0.000
 Gap=     0.157 Goal=   None    Shift=    0.000
 RMSDP=3.97D-08 MaxDP=4.90D-06 DE= 1.48D-11 OVMax= 1.98D-08

 Cycle  27  Pass 1  IDiag  1:
 RMSU=  1.07D-09    CP:  1.00D+00  7.67D-01  2.22D+00  1.80D-01  8.15D-01
                    CP:  1.68D+00
 E= -228.110375795957     Delta-E=       -0.000000000009 Rises=F Damp=F
 DIIS: error= 5.88D-11 at cycle  27 NSaved=  16.
 NSaved=16 IEnMin=11 EnMin= -228.110375795963     IErMin=16 ErrMin= 5.88D-11
 ErrMax= 5.88D-11  0.00D+00 EMaxC= 1.00D-01 BMatC= 1.90D-18 BMatP= 6.18D-17
 IDIUse=1 WtCom= 1.00D+00 WtEn= 0.00D+00
 Large coefficients: NSaved= 16 BigCof=    0.00 CofMax=   10.00 Det=-2.49D-18
 Inversion failed.  Reducing to 15 matrices.
 Coeff-Com: -0.110D-05-0.437D-05 0.172D-05 0.112D-04 0.113D-03-0.235D-03
 Coeff-Com: -0.695D-03 0.467D-03 0.190D-02 0.174D-02-0.422D-02-0.111D-01
 Coeff-Com: -0.529D-01 0.368D+00 0.697D+00
 Coeff:     -0.110D-05-0.437D-05 0.172D-05 0.112D-04 0.113D-03-0.235D-03
 Coeff:     -0.695D-03 0.467D-03 0.190D-02 0.174D-02-0.422D-02-0.111D-01
 Coeff:     -0.529D-01 0.368D+00 0.697D+00
 Gap=     0.034 Goal=   None    Shift=    0.000
 Gap=     0.157 Goal=   None    Shift=    0.000
 RMSDP=2.54D-09 MaxDP=3.25D-07 DE=-9.15D-12 OVMax= 1.47D-09

 SCF Done:  E(UB3LYP) =  -228.110375796     A.U. after   27 cycles
            NFock= 27  Conv=0.25D-08     -V/T= 2.0024
 <Sx>= 0.0000 <Sy>= 0.0000 <Sz>= 1.0000 <S**2>= 2.0066 S= 1.0022
 <L.S>= 0.000000000000E+00
 KE= 2.275564049625D+02 PE=-7.842757591308D+02 EE= 2.057030217947D+02
 Annihilation of the first spin contaminant:
 S**2 before annihilation     2.0066,   after     2.0000
 Leave Link  502 at Thu Mar  7 12:09:12 2019, MaxMem=    33554432 cpu:       682.6
 (Enter /home/proyectos/fulerenos/M3C-v2.0/M3C-deps_CCC/g09-AM64L-G09RevC.01/l601.exe)
 Copying SCF densities to generalized density rwf, IOpCl= 1 IROHF=0.

 **********************************************************************

            Population analysis using the SCF density.

 **********************************************************************

 Alpha  occ. eigenvalues --  -19.02222 -10.10547 -10.06899 -10.05128 -10.03874
 Alpha  occ. eigenvalues --   -0.98592  -0.75838  -0.55972  -0.42345  -0.37330
 Alpha  occ. eigenvalues --   -0.32969  -0.32960  -0.28792  -0.22942  -0.18502
 Alpha  occ. eigenvalues --   -0.09718  -0.02463   0.06333
 Alpha virt. eigenvalues --    0.09708   0.11998   0.12699   0.15590   0.16121
 Alpha virt. eigenvalues --    0.17189   0.17788   0.20157   0.20163   0.21460
 Alpha virt. eigenvalues --    0.23329   0.23379   0.24822   0.25114   0.26430
 Alpha virt. eigenvalues --    0.26657   0.28521   0.30119   0.31147   0.32256
 Alpha virt. eigenvalues --    0.34638   0.38370   0.38730   0.39276   0.40583
 Alpha virt. eigenvalues --    0.41860   0.44537   0.47126   0.50815   0.51589
 Alpha virt. eigenvalues --    0.54366   0.55564   0.57257   0.58892   0.59994
 Alpha virt. eigenvalues --    0.62947   0.63463   0.64591   0.66430   0.67483
 Alpha virt. eigenvalues --    0.69933   0.72009   0.72747   0.73599   0.74526
 Alpha virt. eigenvalues --    0.78825   0.80709   0.81342   0.82770   0.84799
 Alpha virt. eigenvalues --    0.88426   0.92349   0.92668   0.94420   0.98129
 Alpha virt. eigenvalues --    0.98843   1.04357   1.07775   1.11498   1.12813
 Alpha virt. eigenvalues --    1.15449   1.16865   1.20106   1.20817   1.23298
 Alpha virt. eigenvalues --    1.27624   1.31871   1.34265   1.40073   1.40362
 Alpha virt. eigenvalues --    1.45177   1.50795   1.53522   1.54671   1.58343
 Alpha virt. eigenvalues --    1.60267   1.61458   1.62943   1.70960   1.71579
 Alpha virt. eigenvalues --    1.72425   1.74656   1.81839   1.89824   1.92119
 Alpha virt. eigenvalues --    1.95222   2.05052   2.10195   2.11762   2.17171
 Alpha virt. eigenvalues --    2.19128   2.24067   2.36533   2.49557   2.51000
 Alpha virt. eigenvalues --    2.67020   2.70300   2.76999   2.78531   2.81870
 Alpha virt. eigenvalues --    2.84289   2.86744   2.89268   2.92766   2.95620
 Alpha virt. eigenvalues --    2.95850   2.99347   3.04424   3.05124   3.09548
 Alpha virt. eigenvalues --    3.14501   3.18023   3.19426   3.21499   3.22264
 Alpha virt. eigenvalues --    3.31675   3.35053   3.44139   3.44356   3.48504
 Alpha virt. eigenvalues --    3.50925   3.57341   3.57835   3.69715   3.73377
 Alpha virt. eigenvalues --    3.73923   3.77616   3.82020   3.93179   3.95836
 Alpha virt. eigenvalues --    4.04637   4.11495   4.23610   4.28468   4.45049
 Alpha virt. eigenvalues --    4.50053   4.54959   4.58944   4.68960   4.85484
 Alpha virt. eigenvalues --    4.86583   5.09511   5.16192   5.16212   5.17318
 Alpha virt. eigenvalues --    5.32669   5.64361   5.68061   5.71399   5.75187
 Alpha virt. eigenvalues --    5.78393   6.15068   6.19456   6.36247   6.78012
 Alpha virt. eigenvalues --    6.91706   7.07133   7.08553   7.18214   7.18386
 Alpha virt. eigenvalues --    7.20244   7.22496   7.36514   7.38676   7.48012
 Alpha virt. eigenvalues --    7.49429   7.57513   7.57785   7.67379   7.70559
 Alpha virt. eigenvalues --    7.79661   7.91225   8.21971   8.35933   8.50465
 Alpha virt. eigenvalues --    8.90949   9.05112  14.43696  14.44279  15.05130
 Alpha virt. eigenvalues --   15.08449  15.29529  24.54676  25.31804  25.61687
 Alpha virt. eigenvalues --   25.98966  50.97949
  Beta  occ. eigenvalues --  -19.01160 -10.09691 -10.06708 -10.04650 -10.03635
  Beta  occ. eigenvalues --   -0.96772  -0.74834  -0.52842  -0.41419  -0.35722
  Beta  occ. eigenvalues --   -0.30840  -0.29051  -0.27036  -0.20227  -0.17697
  Beta  occ. eigenvalues --   -0.08897
  Beta virt. eigenvalues --    0.06832   0.11050   0.12940   0.13320   0.14016
  Beta virt. eigenvalues --    0.16269   0.16497   0.17394   0.17901   0.20281
  Beta virt. eigenvalues --    0.20475   0.22199   0.23604   0.23999   0.25059
  Beta virt. eigenvalues --    0.26298   0.26732   0.28721   0.28811   0.30488
  Beta virt. eigenvalues --    0.31747   0.32894   0.35560   0.38809   0.39136
  Beta virt. eigenvalues --    0.39909   0.41323   0.42590   0.45735   0.48215
  Beta virt. eigenvalues --    0.51370   0.52525   0.54730   0.56348   0.57455
  Beta virt. eigenvalues --    0.60002   0.60511   0.63383   0.63609   0.64889
  Beta virt. eigenvalues --    0.67703   0.68051   0.70704   0.72669   0.73131
  Beta virt. eigenvalues --    0.74576   0.74887   0.79433   0.81689   0.82155
  Beta virt. eigenvalues --    0.83125   0.85585   0.89006   0.92989   0.93115
  Beta virt. eigenvalues --    0.95233   0.98562   0.99282   1.05278   1.09063
  Beta virt. eigenvalues --    1.12299   1.13702   1.16291   1.17407   1.20742
  Beta virt. eigenvalues --    1.21549   1.24113   1.28123   1.32418   1.34889
  Beta virt. eigenvalues --    1.40758   1.41532   1.46006   1.51519   1.54761
  Beta virt. eigenvalues --    1.55056   1.59283   1.61708   1.62520   1.64492
  Beta virt. eigenvalues --    1.72610   1.73294   1.74624   1.76955   1.82871
  Beta virt. eigenvalues --    1.90658   1.93226   1.97045   2.05905   2.11614
  Beta virt. eigenvalues --    2.12630   2.17833   2.20290   2.24864   2.37235
  Beta virt. eigenvalues --    2.51005   2.52048   2.68048   2.71281   2.77734
  Beta virt. eigenvalues --    2.79530   2.83387   2.86010   2.89679   2.91275
  Beta virt. eigenvalues --    2.94696   2.97078   2.97246   3.00381   3.06140
  Beta virt. eigenvalues --    3.06862   3.11600   3.15614   3.20178   3.21202
  Beta virt. eigenvalues --    3.22933   3.23789   3.33343   3.35891   3.45371
  Beta virt. eigenvalues --    3.45519   3.49937   3.52092   3.58453   3.59175
  Beta virt. eigenvalues --    3.71755   3.74176   3.76504   3.78332   3.82680
  Beta virt. eigenvalues --    3.95111   3.96993   4.05821   4.12874   4.24436
  Beta virt. eigenvalues --    4.29530   4.45558   4.51598   4.55350   4.60168
  Beta virt. eigenvalues --    4.69444   4.86785   4.87400   5.10406   5.18469
  Beta virt. eigenvalues --    5.18689   5.18968   5.34974   5.65898   5.69058
  Beta virt. eigenvalues --    5.73392   5.76995   5.80200   6.16248   6.20367
  Beta virt. eigenvalues --    6.36811   6.79522   6.93015   7.11130   7.12720
  Beta virt. eigenvalues --    7.19214   7.19785   7.21923   7.23761   7.37922
  Beta virt. eigenvalues --    7.40433   7.49147   7.50785   7.57867   7.59632
  Beta virt. eigenvalues --    7.68016   7.71854   7.81278   7.92990   8.22893
  Beta virt. eigenvalues --    8.36390   8.50978   8.91403   9.06177  14.47905
  Beta virt. eigenvalues --   14.48487  15.07647  15.10364  15.31320  24.55070
  Beta virt. eigenvalues --   25.32277  25.62632  25.99343  50.98980
          Condensed to atoms (all electrons):
               1          2          3          4          5          6
     1  C   94.137167 -75.076549  -8.776219  19.963200 -24.381665  -1.136617
     2  C  -75.076549 101.299343   7.285051 -58.543262  30.197896   0.664039
     3  C   -8.776219   7.285051   8.984204  -2.787976   1.661066   0.129381
     4  C   19.963200 -58.543262  -2.787976  78.542779 -31.989109   0.010149
     5  H  -24.381665  30.197896   1.661066 -31.989109  27.532144   0.054531
     6  O   -1.136617   0.664039   0.129381   0.010149   0.054531   8.956530
          Atomic-Atomic Spin Densities.
               1          2          3          4          5          6
     1  C   88.066641 -74.984971  -8.765298  20.573344 -24.389324  -1.234818
     2  C  -74.984971  94.602224   8.123016 -57.980766  29.936501   0.663241
     3  C   -8.765298   8.123016   1.381866  -2.429802   1.693686   0.135495
     4  C   20.573344 -57.980766  -2.429802  71.535335 -32.026762  -0.056111
     5  H  -24.389324  29.936501   1.693686 -32.026762  27.055115   0.052949
     6  O   -1.234818   0.663241   0.135495  -0.056111   0.052949   0.738058
 Mulliken charges and spin densities:
               1          2
     1  C    1.270684  -0.734427
     2  C    0.173482   0.359246
     3  C   -0.495508   0.138964
     4  C    0.804219  -0.384762
     5  H   -2.074864   2.322165
     6  O   -0.678013   0.298814
 Sum of Mulliken charges =  -1.00000   2.00000
 Mulliken charges and spin densities with hydrogens summed into heavy atoms:
               1          2
     1  C    1.270684  -0.734427
     2  C   -1.901382   2.681410
     3  C   -0.495508   0.138964
     4  C    0.804219  -0.384762
     6  O   -0.678013   0.298814
 Electronic spatial extent (au):  <R**2>=            424.0095
 Charge=             -1.0000 electrons
 Dipole moment (field-independent basis, Debye):
    X=             -2.7001    Y=             -2.5213    Z=              4.5642  Tot=              5.8719
 Quadrupole moment (field-independent basis, Debye-Ang):
   XX=            -53.6112   YY=            -46.6339   ZZ=            -56.1662
   XY=              0.3105   XZ=              8.4344   YZ=             11.7162
 Traceless Quadrupole moment (field-independent basis, Debye-Ang):
   XX=             -1.4741   YY=              5.5032   ZZ=             -4.0291
   XY=              0.3105   XZ=              8.4344   YZ=             11.7162
 Octapole moment (field-independent basis, Debye-Ang**2):
  XXX=            -24.1699  YYY=            -52.0533  ZZZ=            110.5731  XYY=            -19.5024
  XXY=            -11.6338  XXZ=             18.6180  XZZ=            -22.8815  YZZ=            -44.8388
  YYZ=             40.6753  XYZ=             13.1182
 Hexadecapole moment (field-independent basis, Debye-Ang**3):
 XXXX=           -549.0084 YYYY=           -284.2601 ZZZZ=           -654.8477 XXXY=            -13.0809
 XXXZ=            152.0319 YYYX=            -33.8689 YYYZ=            142.3605 ZZZX=            190.7387
 ZZZY=            193.7987 XXYY=           -141.3105 XXZZ=           -197.9730 YYZZ=           -182.7419
 XXYZ=             52.0627 YYXZ=             65.0316 ZZXY=            -43.2741
 N-N= 1.229059565776D+02 E-N=-7.842757591311D+02  KE= 2.275564049625D+02
                          Isotropic Fermi Contact Couplings
        Atom                 a.u.       MegaHertz       Gauss      10(-4) cm-1
     1  C(13)             -0.00007      -0.04013      -0.01432      -0.01338
     2  C(13)              0.13588      76.37800      27.25357      25.47696
     3  C(13)              0.02575      14.47560       5.16525       4.82854
     4  C(13)             -0.03984     -22.39483      -7.99103      -7.47011
     5  H(1)              -0.00323      -7.21747      -2.57537      -2.40749
     6  O(17)              0.04578     -13.87614      -4.95135      -4.62858
 --------------------------------------------------------
       Center         ----  Spin Dipole Couplings  ----
                      3XX-RR        3YY-RR        3ZZ-RR
 --------------------------------------------------------
     1   Atom       -0.249966      0.172669      0.077297
     2   Atom       -0.057289      0.076520     -0.019231
     3   Atom        0.029524      0.008214     -0.037738
     4   Atom       -0.061528      0.063481     -0.001953
     5   Atom       -0.018410      0.000229      0.018181
     6   Atom       -0.626488      0.457216      0.169273
 --------------------------------------------------------
                        XY            XZ            YZ
 --------------------------------------------------------
     1   Atom        0.005730      0.207414     -0.029450
     2   Atom        0.062778      0.083444      0.176420
     3   Atom        0.006702      0.019248      0.087074
     4   Atom        0.103600      0.044795      0.194124
     5   Atom        0.011364     -0.009398     -0.018204
     6   Atom        0.142800      0.508922      0.174446
 --------------------------------------------------------


 ---------------------------------------------------------------------------------
              Anisotropic Spin Dipole Couplings in Principal Axis System
 ---------------------------------------------------------------------------------

       Atom             a.u.   MegaHertz   Gauss  10(-4) cm-1        Axes

              Baa    -0.3511   -47.120   -16.814   -15.718  0.8986 -0.0344 -0.4374
     1 C(13)  Bbb     0.1515    20.327     7.253     6.780  0.3174  0.7394  0.5938
              Bcc     0.1997    26.793     9.560     8.937  0.3030 -0.6724  0.6753
 
              Baa    -0.1641   -22.017    -7.856    -7.344 -0.3311 -0.5003  0.8001
     2 C(13)  Bbb    -0.0810   -10.874    -3.880    -3.627  0.8886 -0.4505  0.0861
              Bcc     0.2451    32.891    11.736    10.971  0.3173  0.7395  0.5937
 
              Baa    -0.1057   -14.190    -5.063    -4.733 -0.0832 -0.6019  0.7942
     3 C(13)  Bbb     0.0247     3.319     1.184     1.107  0.9444 -0.3020 -0.1300
              Bcc     0.0810    10.872     3.879     3.626  0.3181  0.7392  0.5936
 
              Baa    -0.1782   -23.919    -8.535    -7.978 -0.3468  0.6732 -0.6531
     4 C(13)  Bbb    -0.0855   -11.478    -4.096    -3.829  0.8826 -0.0013 -0.4701
              Bcc     0.2638    35.397    12.630    11.807  0.3173  0.7395  0.5937
 
              Baa    -0.0238   -12.701    -4.532    -4.237  0.9111 -0.4114  0.0256
     5 H(1)   Bbb    -0.0095    -5.075    -1.811    -1.693  0.3172  0.7395  0.5937
              Bcc     0.0333    17.776     6.343     5.930 -0.2632 -0.5328  0.8042
 
              Baa    -0.8767    63.436    22.636    21.160  0.9011 -0.0400 -0.4318
     6 O(17)  Bbb     0.2181   -15.784    -5.632    -5.265  0.2955 -0.6720  0.6790
              Bcc     0.6585   -47.652   -17.003   -15.895  0.3173  0.7395  0.5937
 

 ---------------------------------------------------------------------------------

 No NMR shielding tensors so no spin-rotation constants.
 Leave Link  601 at Thu Mar  7 12:09:13 2019, MaxMem=    33554432 cpu:         1.2
 (Enter /home/proyectos/fulerenos/M3C-v2.0/M3C-deps_CCC/g09-AM64L-G09RevC.01/l701.exe)
 Compute integral first derivatives.
 ... and contract with generalized density number  0.
 Leave Link  701 at Thu Mar  7 12:09:13 2019, MaxMem=    33554432 cpu:         0.7
 (Enter /home/proyectos/fulerenos/M3C-v2.0/M3C-deps_CCC/g09-AM64L-G09RevC.01/l702.exe)
 L702 exits ... SP integral derivatives will be done elsewhere.
 Leave Link  702 at Thu Mar  7 12:09:13 2019, MaxMem=    33554432 cpu:         0.0
 (Enter /home/proyectos/fulerenos/M3C-v2.0/M3C-deps_CCC/g09-AM64L-G09RevC.01/l703.exe)
 Compute integral first derivatives, UseDBF=F ICtDFT=           0.
 Integral derivatives from FoFJK, PRISM(SPDF).
 Calling FoFJK, ICntrl=      2127 FMM=F ISym2X=0 I1Cent= 0 IOpClX= 1 NMat=1 NMatS=1 NMatT=0.
 FoFJK:  IHMeth= 1 ICntrl=    2127 DoSepK=F KAlg= 0 I1Cent=   0 FoldK=F
 IRaf=         0 NMat=   1 IRICut=       1 DoRegI=T DoRafI=F ISym2E= 0.
 FoFCou: FMM=F IPFlag=           0 FMFlag=      100000 FMFlg1=         800
         NFxFlg=           0 DoJE=F BraDBF=F KetDBF=F FulRan=T
         wScrn=  0.000000 ICntrl=    2127 IOpCl=  1 I1Cent=           0 NGrid=           0
         NMat0=    1 NMatS0=      1 NMatT0=    0 NMatD0=    1 NMtDS0=    0 NMtDT0=    0
 Symmetry not used in FoFCou.
 Leave Link  703 at Thu Mar  7 12:09:56 2019, MaxMem=    33554432 cpu:        85.3
 (Enter /home/proyectos/fulerenos/M3C-v2.0/M3C-deps_CCC/g09-AM64L-G09RevC.01/l716.exe)
 Dipole        =-1.06228254D+00-9.91959894D-01 1.79571290D+00
 -------------------------------------------------------------------
 Center     Atomic                   Forces (Hartrees/Bohr)
 Number     Number              X              Y              Z
 -------------------------------------------------------------------
      1        6           0.173794827    0.002561417   -0.096042854
      2        6           0.036673576   -0.014990254   -0.000946024
      3        6           0.005245795    0.017588668   -0.024710866
      4        6          -0.070003505   -0.008477601    0.047954074
      5        1           0.003036121    0.003170034   -0.005570365
      6        8          -0.148746814    0.000147736    0.079316035
 -------------------------------------------------------------------
 Cartesian Forces:  Max     0.173794827 RMS     0.065698137
 Leave Link  716 at Thu Mar  7 12:09:56 2019, MaxMem=    33554432 cpu:         0.1
 (Enter /home/proyectos/fulerenos/M3C-v2.0/M3C-deps_CCC/g09-AM64L-G09RevC.01/l103.exe)

 GradGradGradGradGradGradGradGradGradGradGradGradGradGradGradGradGradGrad
 Berny optimization.
 FormGI is forming the generalized inverse of G from B-inverse, IUseBI=4.
 Internal  Forces:  Max     0.168370368 RMS     0.046805407
 Search for a local minimum.
 Step number   1 out of a maximum of  100
 All quantities printed in internal units (Hartrees-Bohrs-Radians)
 RMS Force = .46805D-01 SwitMx=.10000D-02 MixMth= 1
 Mixed Optimization -- RFO/linear search
 Second derivative matrix not updated -- first step.
 The second derivative matrix:
                          R1        R2        R3        R4        R5
           R1           0.51040
           R2           0.00000   1.57175
           R3           0.00000   0.00000   0.42931
           R4           0.00000   0.00000   0.00000   0.58178
           R5           0.00000   0.00000   0.00000   0.00000   0.35709
           R6           0.00000   0.00000   0.00000   0.00000   0.00000
           A1           0.00000   0.00000   0.00000   0.00000   0.00000
           A2           0.00000   0.00000   0.00000   0.00000   0.00000
           A3           0.00000   0.00000   0.00000   0.00000   0.00000
           A4           0.00000   0.00000   0.00000   0.00000   0.00000
           A5           0.00000   0.00000   0.00000   0.00000   0.00000
           A6           0.00000   0.00000   0.00000   0.00000   0.00000
           D1           0.00000   0.00000   0.00000   0.00000   0.00000
           D2           0.00000   0.00000   0.00000   0.00000   0.00000
           D3           0.00000   0.00000   0.00000   0.00000   0.00000
                          R6        A1        A2        A3        A4
           R6           0.37902
           A1           0.00000   0.16000
           A2           0.00000   0.00000   0.16000
           A3           0.00000   0.00000   0.00000   0.25000
           A4           0.00000   0.00000   0.00000   0.00000   0.25000
           A5           0.00000   0.00000   0.00000   0.00000   0.00000
           A6           0.00000   0.00000   0.00000   0.00000   0.00000
           D1           0.00000   0.00000   0.00000   0.00000   0.00000
           D2           0.00000   0.00000   0.00000   0.00000   0.00000
           D3           0.00000   0.00000   0.00000   0.00000   0.00000
                          A5        A6        D1        D2        D3
           A5           0.05383
           A6           0.00000   0.05383
           D1           0.00000   0.00000   0.02939
           D2           0.00000   0.00000   0.00000   0.02939
           D3           0.00000   0.00000   0.00000   0.00000   0.02939
 ITU=  0
     Eigenvalues ---    0.02939   0.02939   0.05383   0.05383   0.16000
     Eigenvalues ---    0.25000   0.35137   0.35709   0.41353   0.51040
     Eigenvalues ---    0.56656   1.57175
 RFO step:  Lambda=-2.96949839D-02 EMin= 2.93921004D-02
 Linear search not attempted -- first point.
 Iteration  1 RMS(Cart)=  0.09362193 RMS(Int)=  0.00935724
 Iteration  2 RMS(Cart)=  0.01228508 RMS(Int)=  0.00035409
 Iteration  3 RMS(Cart)=  0.00016419 RMS(Int)=  0.00031983
 Iteration  4 RMS(Cart)=  0.00000002 RMS(Int)=  0.00031983
 ITry= 1 IFail=0 DXMaxC= 2.02D-01 DCOld= 1.00D+10 DXMaxT= 3.00D-01 DXLimC= 3.00D+00 Rises=F
 Variable       Old X    -DE/DX   Delta X   Delta X   Delta X     New X
                                 (Linear)    (Quad)   (Total)
    R1        2.58830  -0.02969   0.00000  -0.05497  -0.05497   2.53333
    R2        2.11829   0.16837   0.00000   0.10514   0.10514   2.22343
    R3        2.67755  -0.03093   0.00000  -0.07255  -0.07294   2.60461
    R4        2.52412   0.04198   0.00000   0.07003   0.07003   2.59416
    R5        2.04539   0.00666   0.00000   0.01722   0.01722   2.06261
    R6        2.74507   0.01437   0.00000   0.03893   0.03929   2.78436
    A1        2.65246  -0.00509   0.00000  -0.02354  -0.02308   2.62938
    A2        2.52028  -0.00012   0.00000   0.00268   0.00314   2.52342
    A3        2.62895   0.01406   0.00000   0.03245   0.03180   2.66075
    A4        2.59115   0.01147   0.00000   0.02315   0.02251   2.61366
    A5        3.14972   0.01749   0.00000   0.20937   0.20937   3.35909
    A6        3.14163  -0.00001   0.00000  -0.00008  -0.00008   3.14155
    D1        3.14158  -0.00000   0.00000  -0.00008  -0.00008   3.14150
    D2       -3.14155  -0.00001   0.00000  -0.00009  -0.00009   3.14155
    D3       -0.00005   0.00000   0.00000   0.00001   0.00001  -0.00004
         Item               Value     Threshold  Converged?
 Maximum Force            0.168370     0.000450     NO 
 RMS     Force            0.046805     0.000300     NO 
 Maximum Displacement     0.202470     0.001800     NO 
 RMS     Displacement     0.100036     0.001200     NO 
 Predicted change in Energy=-1.590836D-02
 Lowest energy point so far.  Saving SCF results.
 GradGradGradGradGradGradGradGradGradGradGradGradGradGradGradGradGradGrad

 Leave Link  103 at Thu Mar  7 12:09:56 2019, MaxMem=    33554432 cpu:         0.1
 (Enter /home/proyectos/fulerenos/M3C-v2.0/M3C-deps_CCC/g09-AM64L-G09RevC.01/l202.exe)
                          Input orientation:                          
 ---------------------------------------------------------------------
 Center     Atomic      Atomic             Coordinates (Angstroms)
 Number     Number       Type             X           Y           Z
 ---------------------------------------------------------------------
      1          6           0       -1.099526    0.139218    0.417934
      2          6           0        1.051707    0.417646   -1.078588
      3          6           0        1.476599   -0.509208   -0.151160
      4          6           0        0.118454    0.061933   -0.136780
      5          1           0        1.238177    1.041157   -1.954834
      6          8           0       -2.074334    0.035150    1.068528
 ---------------------------------------------------------------------
                    Distance matrix (angstroms):
                    1          2          3          4          5
     1  C    0.000000
     2  C    2.635318   0.000000
     3  C    2.716752   1.378301   0.000000
     4  C    1.340580   1.372769   1.473420   0.000000
     5  H    3.450851   1.091488   2.390338   2.349038   0.000000
     6  O    1.176586   3.811633   3.793823   2.502360   4.596248
                    6
     6  O    0.000000
 Symmetry turned off by external request.
 Stoichiometry    C4HO
 Rotational constants (GHZ):     35.5323176      3.3155120      3.0325459
 Leave Link  202 at Thu Mar  7 12:09:56 2019, MaxMem=    33554432 cpu:         0.0
 (Enter /home/proyectos/fulerenos/M3C-v2.0/M3C-deps_CCC/g09-AM64L-G09RevC.01/l301.exe)
 Standard basis: 6-311++G(3df,2p) (5D, 7F)
 Ernie: Thresh=  0.10000D-02 Tol=  0.10000D-05 Strict=F.
   205 basis functions,   302 primitive gaussians,   235 cartesian basis functions
    18 alpha electrons       16 beta electrons
       nuclear repulsion energy       121.6080705313 Hartrees.
 IExCor=  402 DFT=T Ex+Corr=B3LYP ExCW=0 ScaHFX=  0.200000
 ScaDFX=  0.800000  0.720000  1.000000  0.810000 ScalE2=  1.000000  1.000000
 IRadAn=      0 IRanWt=     -1 IRanGd=            0 ICorTp=0 IEmpDi=  4
 NAtoms=    6 NActive=    6 NUniq=    6 SFac= 1.00D+00 NAtFMM=   60 NAOKFM=F Big=F
 Integral buffers will be    131072 words long.
 Raffenetti 2 integral format.
 Two-electron integral symmetry is turned off.
 Leave Link  301 at Thu Mar  7 12:09:56 2019, MaxMem=    33554432 cpu:         0.1
 (Enter /home/proyectos/fulerenos/M3C-v2.0/M3C-deps_CCC/g09-AM64L-G09RevC.01/l302.exe)
 NPDir=0 NMtPBC=     1 NCelOv=     1 NCel=       1 NClECP=     1 NCelD=      1
         NCelK=      1 NCelE2=     1 NClLst=     1 CellRange=     0.0.
 One-electron integrals computed using PRISM.
 NBasis=   205 RedAO= T EigKep=  7.38D-06  NBF=   205
 NBsUse=   205 1.00D-06 EigRej= -1.00D+00 NBFU=   205
 Precomputing XC quadrature grid using
 IXCGrd= 4 IRadAn=           0 IRanWt=          -1 IRanGd=           0 AccXCQ= 0.00D+00.
 Generated NRdTot=       0 NPtTot=           0 NUsed=           0 NTot=          32
 NSgBfM=   235   235   235   235   235 MxSgAt=     6 MxSgA2=     6.
 Leave Link  302 at Thu Mar  7 12:09:57 2019, MaxMem=    33554432 cpu:         0.8
 (Enter /home/proyectos/fulerenos/M3C-v2.0/M3C-deps_CCC/g09-AM64L-G09RevC.01/l303.exe)
 DipDrv:  MaxL=1.
 Leave Link  303 at Thu Mar  7 12:09:57 2019, MaxMem=    33554432 cpu:         0.1
 (Enter /home/proyectos/fulerenos/M3C-v2.0/M3C-deps_CCC/g09-AM64L-G09RevC.01/l401.exe)
 Initial guess from the checkpoint file:  "/scratch/naguirre/gaussian/Gau-34505.chk"
 B after Tr=    -0.026166    0.000456    0.013411
         Rot=    0.999958   -0.002889   -0.006748   -0.005420 Ang=  -1.05 deg.
 Guess basis will be translated and rotated to current coordinates.
 JPrj=2 DoOrth=T DoCkMO=T.
 Initial guess <Sx>= 0.0000 <Sy>= 0.0000 <Sz>= 1.0000 <S**2>= 2.0077 S= 1.0026
 Generating alternative initial guess.
 ExpMin= 3.60D-02 ExpMax= 8.59D+03 ExpMxC= 1.30D+03 IAcc=3 IRadAn=         5 AccDes= 0.00D+00
 Harris functional with IExCor=  402 and IRadAn=       5 diagonalized for initial guess.
 HarFok:  IExCor=  402 AccDes= 0.00D+00 IRadAn=         5 IDoV= 1 UseB2=F ITyADJ=14
 ICtDFT=  3500011 ScaDFX=  1.000000  1.000000  1.000000  1.000000
 FoFCou: FMM=F IPFlag=           0 FMFlag=      100000 FMFlg1=           0
         NFxFlg=           0 DoJE=T BraDBF=F KetDBF=T FulRan=T
         wScrn=  0.000000 ICntrl=     500 IOpCl=  0 I1Cent=   200000004 NGrid=           0
         NMat0=    1 NMatS0=      1 NMatT0=    0 NMatD0=    1 NMtDS0=    0 NMtDT0=    0
 Symmetry not used in FoFCou.
 Harris En= -228.278280460108    
 Leave Link  401 at Thu Mar  7 12:10:00 2019, MaxMem=    33554432 cpu:         7.5
 (Enter /home/proyectos/fulerenos/M3C-v2.0/M3C-deps_CCC/g09-AM64L-G09RevC.01/l502.exe)
 UHF open shell SCF:
 Using DIIS extrapolation, IDIIS=  1040.
 Two-electron integral symmetry not used.
 IVT=      187057 IEndB=      187057 NGot=    33554432 MDV=    33439476
 LenX=    33439476 LenY=    33383810
 Requested convergence on RMS density matrix=1.00D-08 within 128 cycles.
 Requested convergence on MAX density matrix=1.00D-06.
 Requested convergence on             energy=1.00D-06.
 No special actions if energy rises.
 Fock matrices will be formed incrementally for  20 cycles.

 Cycle   1  Pass 1  IDiag  1:
 FoFJK:  IHMeth= 1 ICntrl=       0 DoSepK=F KAlg= 0 I1Cent=   0 FoldK=F
 IRaf= 970000000 NMat=   1 IRICut=       1 DoRegI=T DoRafI=F ISym2E= 0.
 FoFCou: FMM=F IPFlag=           0 FMFlag=      100000 FMFlg1=           0
         NFxFlg=           0 DoJE=F BraDBF=F KetDBF=F FulRan=T
         wScrn=  0.000000 ICntrl=       0 IOpCl=  1 I1Cent=           0 NGrid=           0
         NMat0=    1 NMatS0=      1 NMatT0=    0 NMatD0=    1 NMtDS0=    0 NMtDT0=    0
 Symmetry not used in FoFCou.
 E= -228.042173443251    
 DIIS: error= 1.31D-02 at cycle   1 NSaved=   1.
 NSaved= 1 IEnMin= 1 EnMin= -228.042173443251     IErMin= 1 ErrMin= 1.31D-02
 ErrMax= 1.31D-02  0.00D+00 EMaxC= 1.00D-01 BMatC= 2.06D-01 BMatP= 2.06D-01
 IDIUse=3 WtCom= 8.69D-01 WtEn= 1.31D-01
 Coeff-Com:  0.100D+01
 Coeff-En:   0.100D+01
 Coeff:      0.100D+01
 Recover alternate guess density for next cycle.
 RMSDP=9.77D-01 MaxDP=8.76D+01              OVMax= 0.00D+00

 Cycle   2  Pass 1  IDiag  1:
 RMSU=  1.89D-02    CP:  1.92D-03
 E= -227.957254618528     Delta-E=        0.084918824724 Rises=F Damp=F
 Switch densities from cycles 1 and 2 for lowest energy.
 DIIS: error= 3.51D-02 at cycle   2 NSaved=   2.
 NSaved= 2 IEnMin= 1 EnMin= -228.042173443251     IErMin= 1 ErrMin= 1.31D-02
 ErrMax= 3.51D-02  0.00D+00 EMaxC= 1.00D+00 BMatC= 6.96D-01 BMatP= 2.06D-01
 IDIUse=1 WtCom= 1.00D+00 WtEn= 0.00D+00
 Coeff-Com:  0.780D+00 0.220D+00
 Coeff:      0.780D+00 0.220D+00
 Gap=     0.088 Goal=   None    Shift=    0.000
 Gap=     0.127 Goal=   None    Shift=    0.000
 RMSDP=3.37D-01 MaxDP=4.53D+01 DE= 8.49D-02 OVMax= 6.47D-01

 Cycle   3  Pass 1  IDiag  1:
 RMSU=  2.73D-01    CP:  1.20D+00  1.15D+00
 E= -228.113677407107     Delta-E=       -0.156422788579 Rises=F Damp=F
 DIIS: error= 9.26D-03 at cycle   3 NSaved=   3.
 NSaved= 3 IEnMin= 3 EnMin= -228.113677407107     IErMin= 3 ErrMin= 9.26D-03
 ErrMax= 9.26D-03  0.00D+00 EMaxC= 1.00D+00 BMatC= 6.26D-02 BMatP= 2.06D-01
 IDIUse=1 WtCom= 1.00D+00 WtEn= 0.00D+00
 Coeff-Com:  0.440D-01 0.204D+00 0.752D+00
 Coeff:      0.440D-01 0.204D+00 0.752D+00
 Gap=     0.031 Goal=   None    Shift=    0.000
 Gap=     0.156 Goal=   None    Shift=    0.000
 RMSDP=6.94D-01 MaxDP=8.41D+01 DE=-1.56D-01 OVMax= 2.20D-01

 Cycle   4  Pass 1  IDiag  1:
 RMSU=  5.30D-02    CP:  5.37D-01  3.78D-01  1.28D-01
 E= -228.127085615920     Delta-E=       -0.013408208813 Rises=F Damp=F
 DIIS: error= 7.65D-03 at cycle   4 NSaved=   4.
 NSaved= 4 IEnMin= 4 EnMin= -228.127085615920     IErMin= 4 ErrMin= 7.65D-03
 ErrMax= 7.65D-03  0.00D+00 EMaxC= 1.00D+00 BMatC= 2.04D-02 BMatP= 6.26D-02
 IDIUse=1 WtCom= 1.00D+00 WtEn= 0.00D+00
 Coeff-Com: -0.470D-02 0.931D-01 0.459D+00 0.452D+00
 Coeff:     -0.470D-02 0.931D-01 0.459D+00 0.452D+00
 Gap=     0.039 Goal=   None    Shift=    0.000
 Gap=     0.140 Goal=   None    Shift=    0.000
 RMSDP=1.21D-01 MaxDP=1.31D+01 DE=-1.34D-02 OVMax= 4.34D-02

 Cycle   5  Pass 1  IDiag  1:
 RMSU=  1.09D-02    CP:  4.19D-01  3.75D-01  8.65D-03  1.13D+00
 E= -228.131914010296     Delta-E=       -0.004828394376 Rises=F Damp=F
 DIIS: error= 2.04D-03 at cycle   5 NSaved=   5.
 NSaved= 5 IEnMin= 5 EnMin= -228.131914010296     IErMin= 5 ErrMin= 2.04D-03
 ErrMax= 2.04D-03  0.00D+00 EMaxC= 1.00D+00 BMatC= 1.87D-03 BMatP= 2.04D-02
 IDIUse=1 WtCom= 1.00D+00 WtEn= 0.00D+00
 Coeff-Com: -0.203D-02-0.489D-02 0.988D-01 0.237D+00 0.671D+00
 Coeff:     -0.203D-02-0.489D-02 0.988D-01 0.237D+00 0.671D+00
 Gap=     0.037 Goal=   None    Shift=    0.000
 Gap=     0.144 Goal=   None    Shift=    0.000
 RMSDP=9.90D-02 MaxDP=7.73D+00 DE=-4.83D-03 OVMax= 5.73D-02

 Cycle   6  Pass 1  IDiag  1:
 RMSU=  9.82D-03    CP:  5.18D-01  2.50D-01 -2.87D-02  1.34D+00  1.42D+00
 E= -228.132452936145     Delta-E=       -0.000538925848 Rises=F Damp=F
 DIIS: error= 9.87D-04 at cycle   6 NSaved=   6.
 NSaved= 6 IEnMin= 6 EnMin= -228.132452936145     IErMin= 6 ErrMin= 9.87D-04
 ErrMax= 9.87D-04  0.00D+00 EMaxC= 1.00D+00 BMatC= 4.07D-04 BMatP= 1.87D-03
 IDIUse=1 WtCom= 1.00D+00 WtEn= 0.00D+00
 Coeff-Com: -0.842D-03-0.251D-02 0.281D-01 0.971D-01 0.391D+00 0.487D+00
 Coeff:     -0.842D-03-0.251D-02 0.281D-01 0.971D-01 0.391D+00 0.487D+00
 Gap=     0.039 Goal=   None    Shift=    0.000
 Gap=     0.142 Goal=   None    Shift=    0.000
 RMSDP=6.29D-02 MaxDP=6.51D+00 DE=-5.39D-04 OVMax= 3.44D-02

 Cycle   7  Pass 1  IDiag  1:
 RMSU=  5.26D-03    CP:  4.56D-01  2.66D-01 -7.86D-02  1.38D+00  1.69D+00
                    CP:  1.07D+00
 E= -228.132593176900     Delta-E=       -0.000140240756 Rises=F Damp=F
 DIIS: error= 5.39D-04 at cycle   7 NSaved=   7.
 NSaved= 7 IEnMin= 7 EnMin= -228.132593176900     IErMin= 7 ErrMin= 5.39D-04
 ErrMax= 5.39D-04  0.00D+00 EMaxC= 1.00D+00 BMatC= 1.79D-04 BMatP= 4.07D-04
 IDIUse=1 WtCom= 1.00D+00 WtEn= 0.00D+00
 Coeff-Com:  0.400D-04-0.166D-02-0.224D-01-0.193D-01 0.555D-01 0.442D+00
 Coeff-Com:  0.546D+00
 Coeff:      0.400D-04-0.166D-02-0.224D-01-0.193D-01 0.555D-01 0.442D+00
 Coeff:      0.546D+00
 Gap=     0.040 Goal=   None    Shift=    0.000
 Gap=     0.143 Goal=   None    Shift=    0.000
 RMSDP=1.20D-02 MaxDP=1.10D+00 DE=-1.40D-04 OVMax= 1.02D-02

 Cycle   8  Pass 1  IDiag  1:
 RMSU=  7.30D-04    CP:  4.58D-01  2.39D-01 -1.14D-01  1.45D+00  1.86D+00
                    CP:  1.47D+00  1.70D+00
 E= -228.132660802763     Delta-E=       -0.000067625862 Rises=F Damp=F
 DIIS: error= 1.86D-04 at cycle   8 NSaved=   8.
 NSaved= 8 IEnMin= 8 EnMin= -228.132660802763     IErMin= 8 ErrMin= 1.86D-04
 ErrMax= 1.86D-04  0.00D+00 EMaxC= 1.00D+00 BMatC= 1.15D-05 BMatP= 1.79D-04
 IDIUse=1 WtCom= 1.00D+00 WtEn= 0.00D+00
 Coeff-Com:  0.460D-03-0.731D-03-0.143D-01-0.223D-01-0.564D-01 0.147D+00
 Coeff-Com:  0.125D+00 0.822D+00
 Coeff:      0.460D-03-0.731D-03-0.143D-01-0.223D-01-0.564D-01 0.147D+00
 Coeff:      0.125D+00 0.822D+00
 Gap=     0.040 Goal=   None    Shift=    0.000
 Gap=     0.143 Goal=   None    Shift=    0.000
 RMSDP=7.48D-03 MaxDP=6.43D-01 DE=-6.76D-05 OVMax= 6.07D-03

 Cycle   9  Pass 1  IDiag  1:
 RMSU=  3.15D-04    CP:  4.61D-01  2.23D-01 -1.33D-01  1.49D+00  1.96D+00
                    CP:  1.73D+00  2.24D+00  1.61D+00
 E= -228.132668842052     Delta-E=       -0.000008039289 Rises=F Damp=F
 DIIS: error= 1.53D-04 at cycle   9 NSaved=   9.
 NSaved= 9 IEnMin= 9 EnMin= -228.132668842052     IErMin= 9 ErrMin= 1.53D-04
 ErrMax= 1.53D-04  0.00D+00 EMaxC= 1.00D+00 BMatC= 5.59D-06 BMatP= 1.15D-05
 IDIUse=1 WtCom= 1.00D+00 WtEn= 0.00D+00
 Coeff-Com:  0.297D-03-0.389D-03-0.537D-02-0.117D-01-0.567D-01 0.275D-01
 Coeff-Com: -0.252D-01 0.554D+00 0.517D+00
 Coeff:      0.297D-03-0.389D-03-0.537D-02-0.117D-01-0.567D-01 0.275D-01
 Coeff:     -0.252D-01 0.554D+00 0.517D+00
 Gap=     0.040 Goal=   None    Shift=    0.000
 Gap=     0.143 Goal=   None    Shift=    0.000
 RMSDP=3.37D-03 MaxDP=2.70D-01 DE=-8.04D-06 OVMax= 2.46D-03

 Cycle  10  Pass 1  IDiag  1:
 RMSU=  5.00D-05    CP:  4.63D-01  2.16D-01 -1.40D-01  1.51D+00  1.98D+00
                    CP:  1.84D+00  2.49D+00  1.89D+00  1.48D+00
 E= -228.132671014835     Delta-E=       -0.000002172783 Rises=F Damp=F
 DIIS: error= 3.85D-05 at cycle  10 NSaved=  10.
 NSaved=10 IEnMin=10 EnMin= -228.132671014835     IErMin=10 ErrMin= 3.85D-05
 ErrMax= 3.85D-05  0.00D+00 EMaxC= 1.00D+00 BMatC= 8.11D-07 BMatP= 5.59D-06
 IDIUse=1 WtCom= 1.00D+00 WtEn= 0.00D+00
 Coeff-Com:  0.282D-05-0.148D-04 0.726D-03 0.360D-04-0.124D-01-0.114D-01
 Coeff-Com: -0.317D-01-0.469D-01 0.284D+00 0.818D+00
 Coeff:      0.282D-05-0.148D-04 0.726D-03 0.360D-04-0.124D-01-0.114D-01
 Coeff:     -0.317D-01-0.469D-01 0.284D+00 0.818D+00
 Gap=     0.040 Goal=   None    Shift=    0.000
 Gap=     0.143 Goal=   None    Shift=    0.000
 RMSDP=2.43D-03 MaxDP=2.07D-01 DE=-2.17D-06 OVMax= 1.81D-03

 Cycle  11  Pass 1  IDiag  1:
 RMSU=  6.34D-05    CP:  4.64D-01  2.12D-01 -1.44D-01  1.52D+00  1.98D+00
                    CP:  1.91D+00  2.68D+00  2.11D+00  2.19D+00  1.44D+00
 E= -228.132671505154     Delta-E=       -0.000000490319 Rises=F Damp=F
 DIIS: error= 1.58D-05 at cycle  11 NSaved=  11.
 NSaved=11 IEnMin=11 EnMin= -228.132671505154     IErMin=11 ErrMin= 1.58D-05
 ErrMax= 1.58D-05  0.00D+00 EMaxC= 1.00D+00 BMatC= 1.21D-07 BMatP= 8.11D-07
 IDIUse=1 WtCom= 1.00D+00 WtEn= 0.00D+00
 Coeff-Com: -0.858D-05 0.662D-04 0.909D-03 0.927D-03-0.210D-02-0.539D-02
 Coeff-Com: -0.122D-01-0.880D-01 0.791D-01 0.364D+00 0.663D+00
 Coeff:     -0.858D-05 0.662D-04 0.909D-03 0.927D-03-0.210D-02-0.539D-02
 Coeff:     -0.122D-01-0.880D-01 0.791D-01 0.364D+00 0.663D+00
 Gap=     0.040 Goal=   None    Shift=    0.000
 Gap=     0.143 Goal=   None    Shift=    0.000
 RMSDP=3.67D-04 MaxDP=2.36D-02 DE=-4.90D-07 OVMax= 6.17D-04

 Cycle  12  Pass 1  IDiag  1:
 RMSU=  1.45D-05    CP:  4.64D-01  2.11D-01 -1.45D-01  1.52D+00  1.98D+00
                    CP:  1.92D+00  2.72D+00  2.16D+00  2.36D+00  1.67D+00
                    CP:  1.33D+00
 E= -228.132671556498     Delta-E=       -0.000000051344 Rises=F Damp=F
 DIIS: error= 8.67D-06 at cycle  12 NSaved=  12.
 NSaved=12 IEnMin=12 EnMin= -228.132671556498     IErMin=12 ErrMin= 8.67D-06
 ErrMax= 8.67D-06  0.00D+00 EMaxC= 1.00D+00 BMatC= 4.17D-08 BMatP= 1.21D-07
 IDIUse=1 WtCom= 1.00D+00 WtEn= 0.00D+00
 Coeff-Com:  0.155D-05-0.594D-06 0.149D-04 0.138D-03 0.126D-02 0.459D-02
 Coeff-Com:  0.242D-02-0.265D-01-0.451D-01-0.775D-01 0.309D+00 0.832D+00
 Coeff:      0.155D-05-0.594D-06 0.149D-04 0.138D-03 0.126D-02 0.459D-02
 Coeff:      0.242D-02-0.265D-01-0.451D-01-0.775D-01 0.309D+00 0.832D+00
 Gap=     0.040 Goal=   None    Shift=    0.000
 Gap=     0.143 Goal=   None    Shift=    0.000
 RMSDP=3.12D-04 MaxDP=3.21D-02 DE=-5.13D-08 OVMax= 2.23D-04

 Cycle  13  Pass 1  IDiag  1:
 RMSU=  5.83D-06    CP:  4.65D-01  2.11D-01 -1.45D-01  1.52D+00  1.98D+00
                    CP:  1.93D+00  2.74D+00  2.17D+00  2.47D+00  1.84D+00
                    CP:  1.64D+00  1.92D+00
 E= -228.132671576120     Delta-E=       -0.000000019622 Rises=F Damp=F
 DIIS: error= 2.33D-06 at cycle  13 NSaved=  13.
 NSaved=13 IEnMin=13 EnMin= -228.132671576120     IErMin=13 ErrMin= 2.33D-06
 ErrMax= 2.33D-06  0.00D+00 EMaxC= 1.00D+00 BMatC= 2.94D-09 BMatP= 4.17D-08
 IDIUse=1 WtCom= 1.00D+00 WtEn= 0.00D+00
 Coeff-Com:  0.266D-05-0.761D-05-0.124D-03-0.188D-03-0.747D-03 0.231D-02
 Coeff-Com:  0.857D-03 0.138D-01-0.621D-02-0.387D-01-0.603D-01-0.240D-01
 Coeff-Com:  0.111D+01
 Coeff:      0.266D-05-0.761D-05-0.124D-03-0.188D-03-0.747D-03 0.231D-02
 Coeff:      0.857D-03 0.138D-01-0.621D-02-0.387D-01-0.603D-01-0.240D-01
 Coeff:      0.111D+01
 Gap=     0.040 Goal=   None    Shift=    0.000
 Gap=     0.143 Goal=   None    Shift=    0.000
 RMSDP=1.47D-04 MaxDP=1.06D-02 DE=-1.96D-08 OVMax= 5.86D-05

 Cycle  14  Pass 1  IDiag  1:
 RMSU=  2.53D-06    CP:  4.65D-01  2.11D-01 -1.45D-01  1.52D+00  1.98D+00
                    CP:  1.93D+00  2.74D+00  2.16D+00  2.46D+00  1.88D+00
                    CP:  1.70D+00  2.52D+00  1.41D+00
 E= -228.132671577885     Delta-E=       -0.000000001765 Rises=F Damp=F
 DIIS: error= 7.97D-07 at cycle  14 NSaved=  14.
 NSaved=14 IEnMin=14 EnMin= -228.132671577885     IErMin=14 ErrMin= 7.97D-07
 ErrMax= 7.97D-07  0.00D+00 EMaxC= 1.00D+00 BMatC= 3.62D-10 BMatP= 2.94D-09
 IDIUse=1 WtCom= 1.00D+00 WtEn= 0.00D+00
 Coeff-Com:  0.138D-05-0.466D-05-0.156D-04-0.434D-04-0.403D-03-0.318D-04
 Coeff-Com: -0.111D-03 0.410D-02 0.383D-02-0.907D-03-0.317D-01-0.105D+00
[...]
 ITry= 2 IFail=1 DXMaxC= 4.40D-03 DCOld= 1.00D+10 DXMaxT= 4.24D-01 DXLimC= 3.00D+00 Rises=F
 Iteration  1 RMS(Cart)=  0.00125123 RMS(Int)=  0.08660722
 SLEqS3 Cycle:    15 Max:0.111700     RMS: 10469.4     Conv:0.329866E-01
 Iteration  2 RMS(Cart)=  0.00013494 RMS(Int)=  0.08657120
 SLEqS3 Cycle:    64 Max:0.802295E-01 RMS: 10628.2     Conv:0.334827E-01
 New curvilinear step failed, DQL= 3.15D+00 SP=-1.85D-01.
 ITry= 3 IFail=1 DXMaxC= 3.81D-03 DCOld= 1.00D+10 DXMaxT= 4.24D-01 DXLimC= 3.00D+00 Rises=F
 Iteration  1 RMS(Cart)=  0.00109745 RMS(Int)=  0.07572663
 SLEqS3 Cycle:    15 Max:0.112061     RMS: 9503.40     Conv:0.299501E-01
 Iteration  2 RMS(Cart)=  0.00009246 RMS(Int)=  0.07570176
 New curvilinear step failed, DQL= 3.15D+00 SP=-1.98D-01.
 ITry= 4 IFail=1 DXMaxC= 3.25D-03 DCOld= 1.00D+10 DXMaxT= 4.24D-01 DXLimC= 3.00D+00 Rises=F
 SLEqS3 Cycle:    60 Max:0.117191     RMS: 35961.3     Conv:0.113869    
 Iteration  1 RMS(Cart)=  0.01372838 RMS(Int)=  0.06447006
 SLEqS3 Cycle:    30 Max:0.637645E-02 RMS: 582.261     Conv:0.184438E-02
 New curvilinear step failed, DQL= 3.14D+00 SP=-2.71D-01.
 ITry= 5 IFail=1 DXMaxC= 3.61D-02 DCOld= 1.00D+10 DXMaxT= 4.24D-01 DXLimC= 3.00D+00 Rises=F
 SLEqS3 Cycle:    60 Max:0.108638     RMS: 29967.7     Conv:0.948911E-01
 Iteration  1 RMS(Cart)=  0.01193104 RMS(Int)=  0.05368709
 SLEqS3 Cycle:    43 Max:0.188206E-02 RMS: 327.132     Conv:0.103614E-02
 New curvilinear step failed, DQL= 3.14D+00 SP=-2.47D-01.
 ITry= 6 IFail=1 DXMaxC= 3.16D-02 DCOld= 1.00D+10 DXMaxT= 4.24D-01 DXLimC= 3.00D+00 Rises=F
 SLEqS3 Cycle:    15 Max:0.913186E-01 RMS: 23974.2     Conv:0.759129E-01
 Iteration  1 RMS(Cart)=  0.00065065 RMS(Int)=  0.04315324
 New curvilinear step failed, DQL= 3.14D+00 SP=-1.39D-01.
 ITry= 7 IFail=1 DXMaxC= 1.71D-03 DCOld= 1.00D+10 DXMaxT= 4.24D-01 DXLimC= 3.00D+00 Rises=F
 SLEqS3 Cycle:    15 Max:0.684890E-01 RMS: 17980.6     Conv:0.569347E-01
 Iteration  1 RMS(Cart)=  0.00048798 RMS(Int)=  0.03232970
 SLEqS3 Cycle:    59 Max:0.597838E-01 RMS:0.245655E-01 Conv:0.137614E-01
 Iteration  2 RMS(Cart)=  0.01660595 RMS(Int)=  0.03152681
 SLEqS3 Cycle:   181 Max:0.152121E-03 RMS:0.540193E-04 Conv:0.100585E-05
 New curvilinear step failed, DQL= 3.14D+00 SP=-1.19D-01.
 ITry= 8 IFail=1 DXMaxC= 3.74D-02 DCOld= 1.00D+10 DXMaxT= 4.24D-01 DXLimC= 3.00D+00 Rises=F
 SLEqS3 Cycle:    15 Max:0.456593E-01 RMS: 11987.1     Conv:0.379565E-01
 Iteration  1 RMS(Cart)=  0.00032532 RMS(Int)=  0.02152731
 New curvilinear step failed, DQL= 3.14D+00 SP=-8.85D-02.
 ITry= 9 IFail=1 DXMaxC= 8.55D-04 DCOld= 1.00D+10 DXMaxT= 4.24D-01 DXLimC= 3.00D+00 Rises=F
 SLEqS3 Cycle:    15 Max:0.228297E-01 RMS: 5993.55     Conv:0.189782E-01
 Iteration  1 RMS(Cart)=  0.00016266 RMS(Int)=  0.01075069
 SLEqS3 Cycle:    15 Max:0.212455E-01 RMS: 987.412     Conv:0.312217E-02
 Iteration  2 RMS(Cart)=  0.00295935 RMS(Int)=  0.01053983
 SLEqS3 Cycle:    15 Max:0.216825E-01 RMS: 204.390     Conv:0.645993E-03
 Iteration  3 RMS(Cart)=  0.00017654 RMS(Int)=  0.01053449
 SLEqS3 Cycle:    86 Max:0.931666E-02 RMS:0.381989E-02 Conv:0.203255E-04
 New curvilinear step failed, DQL= 3.14D+00 SP=-1.48D-03.
 ITry=10 IFail=1 DXMaxC= 7.76D-03 DCOld= 1.00D+10 DXMaxT= 4.24D-01 DXLimC= 3.00D+00 Rises=F
 RedQX1 iteration     1 Try  1 RMS(Cart)=  0.03445112 RMS(Int)=  0.84017908 XScale=  0.13513571
 RedQX1 iteration     2 Try  1 RMS(Cart)=  0.00689022 RMS(Int)=  0.83861921 XScale=  0.13507619
 RedQX1 iteration     3 Try  1 RMS(Cart)=  0.00137804 RMS(Int)=  0.83836553 XScale=  0.13505364
 RedQX1 iteration     4 Try  1 RMS(Cart)=  0.00027561 RMS(Int)=  0.83831713 XScale=  0.13504870
 RedQX1 iteration     5 Try  1 RMS(Cart)=  0.00005512 RMS(Int)=  0.83830755 XScale=  0.13504770
 RedQX1 iteration     6 Try  1 RMS(Cart)=  0.00001102 RMS(Int)=  0.83830563 XScale=  0.13504750
 RedQX1 iteration     7 Try  1 RMS(Cart)=  0.00000220 RMS(Int)=  0.83830525 XScale=  0.13504746
 RedQX1 iteration     8 Try  1 RMS(Cart)=  0.00000044 RMS(Int)=  0.83830518 XScale=  0.13504745
 RedQX1 iteration     9 Try  1 RMS(Cart)=  0.00000009 RMS(Int)=  0.10954444 XScale=************
 B after Tr=    -0.000000    0.000000    0.000000
         Rot=    1.000000    0.000000   -0.000000    0.000000 Ang=   0.00 deg.
 Variable       Old X    -DE/DX   Delta X   Delta X   Delta X     New X
                                 (Linear)    (Quad)   (Total)
    R1        2.57173   0.00107   0.00000   0.01197   0.00000   2.57173
    R2        2.33350  -0.01182   0.00000   0.03788   0.00000   2.33350
    R3        2.56359   0.00723   0.00000  -0.04027  -0.00000   2.56359
    R4        2.67149  -0.03007   0.00000  -0.05855  -0.00000   2.67149
    R5        2.11403  -0.01867   0.00000  -0.10767  -0.00000   2.11403
    R6        2.86878  -0.00158   0.00000   0.05775   0.00000   2.86878
    A1        2.59215  -0.00414   0.00000  -0.04172  -0.00000   2.59215
    A2        2.53176  -0.00130   0.00000  -0.00962  -0.00000   2.53176
    A3        2.56786  -0.00338   0.00000   0.05561   0.00000   2.56786
    A4        2.75564  -0.00482   0.00000  -0.03644  -0.00000   2.75564
    A5        3.68714   0.03142   0.00000   0.38218   0.00000   3.68714
    A6        2.66325  -0.00000   0.00000   0.07826   0.00000   2.66325
    D1        3.14149   0.00000   0.00000  -0.00003  -0.00000   3.14149
    D2        3.14153   0.00000   0.00000  -0.00005  -0.00000   3.14153
    D3       -0.00005  -0.00000   0.00000   0.00002   0.00000  -0.00005
         Item               Value     Threshold  Converged?
 Maximum Force            0.031420     0.000450     NO 
 RMS     Force            0.012882     0.000300     NO 
 Maximum Displacement     0.000000     0.001800     YES
 RMS     Displacement     0.000000     0.001200     YES
 Predicted change in Energy=-7.833297D-09
 Lowest energy point so far.  Saving SCF results.
 GradGradGradGradGradGradGradGradGradGradGradGradGradGradGradGradGradGrad

 Leave Link  103 at Thu Mar  7 12:37:05 2019, MaxMem=    33554432 cpu:         0.3
 (Enter /home/proyectos/fulerenos/M3C-v2.0/M3C-deps_CCC/g09-AM64L-G09RevC.01/l202.exe)
                          Input orientation:                          
 ---------------------------------------------------------------------
 Center     Atomic      Atomic             Coordinates (Angstroms)
 Number     Number       Type             X           Y           Z
 ---------------------------------------------------------------------
      1          6           0       -1.180119    0.238550    0.337254
      2          6           0        1.069824    0.406242   -1.074095
      3          6           0        1.498722   -0.506252   -0.166488
      4          6           0        0.090151    0.057685   -0.116350
      5          1           0        1.290533    1.033652   -1.973609
      6          8           0       -2.058034   -0.043980    1.158390
 ---------------------------------------------------------------------
                    Distance matrix (angstroms):
                    1          2          3          4          5
     1  C    0.000000
     2  C    2.661253   0.000000
     3  C    2.825717   1.356595   0.000000
     4  C    1.360902   1.413693   1.518095   0.000000
     5  H    3.475110   1.118695   2.383345   2.417196   0.000000
     6  O    1.234837   3.869133   3.823548   2.500000   4.709947
                    6
     6  O    0.000000
 Symmetry turned off by external request.
 Stoichiometry    C4HO
 Rotational constants (GHZ):     33.8007551      3.2273478      2.9460541
 Leave Link  202 at Thu Mar  7 12:37:05 2019, MaxMem=    33554432 cpu:         0.0
 (Enter /home/proyectos/fulerenos/M3C-v2.0/M3C-deps_CCC/g09-AM64L-G09RevC.01/l301.exe)
 Standard basis: 6-311++G(3df,2p) (5D, 7F)
 Ernie: Thresh=  0.10000D-02 Tol=  0.10000D-05 Strict=F.
   205 basis functions,   302 primitive gaussians,   235 cartesian basis functions
    18 alpha electrons       16 beta electrons
       nuclear repulsion energy       119.2004350993 Hartrees.
 IExCor=  402 DFT=T Ex+Corr=B3LYP ExCW=0 ScaHFX=  0.200000
 ScaDFX=  0.800000  0.720000  1.000000  0.810000 ScalE2=  1.000000  1.000000
 IRadAn=      0 IRanWt=     -1 IRanGd=            0 ICorTp=0 IEmpDi=  4
 NAtoms=    6 NActive=    6 NUniq=    6 SFac= 1.00D+00 NAtFMM=   60 NAOKFM=F Big=F
 Integral buffers will be    131072 words long.
 Raffenetti 2 integral format.
 Two-electron integral symmetry is turned off.
 Leave Link  301 at Thu Mar  7 12:37:05 2019, MaxMem=    33554432 cpu:         0.1
 (Enter /home/proyectos/fulerenos/M3C-v2.0/M3C-deps_CCC/g09-AM64L-G09RevC.01/l302.exe)
 NPDir=0 NMtPBC=     1 NCelOv=     1 NCel=       1 NClECP=     1 NCelD=      1
         NCelK=      1 NCelE2=     1 NClLst=     1 CellRange=     0.0.
 One-electron integrals computed using PRISM.
 NBasis=   205 RedAO= T EigKep=  9.80D-06  NBF=   205
 NBsUse=   205 1.00D-06 EigRej= -1.00D+00 NBFU=   205
 Precomputing XC quadrature grid using
 IXCGrd= 4 IRadAn=           0 IRanWt=          -1 IRanGd=           0 AccXCQ= 0.00D+00.
 Generated NRdTot=       0 NPtTot=           0 NUsed=           0 NTot=          32
 NSgBfM=   235   235   235   235   235 MxSgAt=     6 MxSgA2=     6.
 Leave Link  302 at Thu Mar  7 12:37:05 2019, MaxMem=    33554432 cpu:         0.5
 (Enter /home/proyectos/fulerenos/M3C-v2.0/M3C-deps_CCC/g09-AM64L-G09RevC.01/l303.exe)
 DipDrv:  MaxL=1.
 Leave Link  303 at Thu Mar  7 12:37:05 2019, MaxMem=    33554432 cpu:         0.1
 (Enter /home/proyectos/fulerenos/M3C-v2.0/M3C-deps_CCC/g09-AM64L-G09RevC.01/l401.exe)
 Initial guess from the checkpoint file:  "/scratch/naguirre/gaussian/Gau-34505.chk"
 B after Tr=    -0.000000    0.000000   -0.000000
         Rot=    1.000000    0.000000   -0.000000   -0.000000 Ang=   0.00 deg.
 Guess basis will be translated and rotated to current coordinates.
 JPrj=2 DoOrth=T DoCkMO=T.
 Initial guess <Sx>= 0.0000 <Sy>= 0.0000 <Sz>= 1.0000 <S**2>= 2.0070 S= 1.0023
 Leave Link  401 at Thu Mar  7 12:37:06 2019, MaxMem=    33554432 cpu:         0.5
 (Enter /home/proyectos/fulerenos/M3C-v2.0/M3C-deps_CCC/g09-AM64L-G09RevC.01/l502.exe)
 UHF open shell SCF:
 Using DIIS extrapolation, IDIIS=  1040.
 Two-electron integral symmetry not used.
 IVT=      187057 IEndB=      187057 NGot=    33554432 MDV=    33439476
 LenX=    33439476 LenY=    33383810
 Requested convergence on RMS density matrix=1.00D-08 within 128 cycles.
 Requested convergence on MAX density matrix=1.00D-06.
 Requested convergence on             energy=1.00D-06.
 No special actions if energy rises.
 Fock matrices will be formed incrementally for  20 cycles.

 Cycle   1  Pass 1  IDiag  1:
 FoFJK:  IHMeth= 1 ICntrl=       0 DoSepK=F KAlg= 0 I1Cent=   0 FoldK=F
 IRaf= 970000000 NMat=   1 IRICut=       1 DoRegI=T DoRafI=F ISym2E= 0.
 FoFCou: FMM=F IPFlag=           0 FMFlag=      100000 FMFlg1=           0
         NFxFlg=           0 DoJE=F BraDBF=F KetDBF=F FulRan=T
         wScrn=  0.000000 ICntrl=       0 IOpCl=  1 I1Cent=           0 NGrid=           0
         NMat0=    1 NMatS0=      1 NMatT0=    0 NMatD0=    1 NMtDS0=    0 NMtDT0=    0
 Symmetry not used in FoFCou.
 E= -228.148346858358    
 DIIS: error= 8.07D-09 at cycle   1 NSaved=   1.
 NSaved= 1 IEnMin= 1 EnMin= -228.148346858358     IErMin= 1 ErrMin= 8.07D-09
 ErrMax= 8.07D-09  0.00D+00 EMaxC= 1.00D-01 BMatC= 1.05D-13 BMatP= 1.05D-13
 IDIUse=1 WtCom= 1.00D+00 WtEn= 0.00D+00
 Coeff-Com:  0.100D+01
 Coeff:      0.100D+01
 Gap=     0.316 Goal=   None    Shift=    0.000
 Gap=     0.383 Goal=   None    Shift=    0.000
 RMSDP=1.65D-08 MaxDP=1.53D-06              OVMax= 8.48D-08

 Cycle   2  Pass 1  IDiag  1:
 RMSU=  1.65D-08    CP:  1.00D+00
 E= -228.148346858358     Delta-E=       -0.000000000000 Rises=F Damp=F
 DIIS: error= 1.56D-08 at cycle   2 NSaved=   2.
 NSaved= 2 IEnMin= 2 EnMin= -228.148346858358     IErMin= 1 ErrMin= 8.07D-09
 ErrMax= 1.56D-08  0.00D+00 EMaxC= 1.00D-01 BMatC= 8.13D-14 BMatP= 1.05D-13
 IDIUse=1 WtCom= 1.00D+00 WtEn= 0.00D+00
 Coeff-Com:  0.452D+00 0.548D+00
 Coeff:      0.452D+00 0.548D+00
 Gap=     0.075 Goal=   None    Shift=    0.000
 Gap=     0.135 Goal=   None    Shift=    0.000
 RMSDP=1.71D-08 MaxDP=2.71D-06 DE=-3.98D-13 OVMax= 9.01D-08

 Cycle   3  Pass 1  IDiag  1:
 RMSU=  8.12D-09    CP:  1.00D+00  1.11D+00
 E= -228.148346858359     Delta-E=       -0.000000000001 Rises=F Damp=F
 DIIS: error= 1.42D-08 at cycle   3 NSaved=   3.
 NSaved= 3 IEnMin= 3 EnMin= -228.148346858359     IErMin= 1 ErrMin= 8.07D-09
 ErrMax= 1.42D-08  0.00D+00 EMaxC= 1.00D-01 BMatC= 5.89D-14 BMatP= 8.13D-14
 IDIUse=1 WtCom= 1.00D+00 WtEn= 0.00D+00
 Coeff-Com: -0.208D-01 0.464D+00 0.557D+00
 Coeff:     -0.208D-01 0.464D+00 0.557D+00
 Gap=     0.075 Goal=   None    Shift=    0.000
 Gap=     0.135 Goal=   None    Shift=    0.000
 RMSDP=5.51D-09 MaxDP=9.87D-07 DE=-9.09D-13 OVMax= 4.36D-08

 SCF Done:  E(UB3LYP) =  -228.148346858     A.U. after    3 cycles
            NFock=  3  Conv=0.55D-08     -V/T= 2.0046
 <Sx>= 0.0000 <Sy>= 0.0000 <Sz>= 1.0000 <S**2>= 2.0070 S= 1.0023
 <L.S>= 0.000000000000E+00
 KE= 2.270967230876D+02 PE=-7.782422227595D+02 EE= 2.037967177143D+02
 Annihilation of the first spin contaminant:
 S**2 before annihilation     2.0070,   after     2.0000
 Leave Link  502 at Thu Mar  7 12:37:33 2019, MaxMem=    33554432 cpu:        54.5
 (Enter /home/proyectos/fulerenos/M3C-v2.0/M3C-deps_CCC/g09-AM64L-G09RevC.01/l701.exe)
 Compute integral first derivatives.
 ... and contract with generalized density number  0.
 Leave Link  701 at Thu Mar  7 12:37:33 2019, MaxMem=    33554432 cpu:         0.4
 (Enter /home/proyectos/fulerenos/M3C-v2.0/M3C-deps_CCC/g09-AM64L-G09RevC.01/l702.exe)
 L702 exits ... SP integral derivatives will be done elsewhere.
 Leave Link  702 at Thu Mar  7 12:37:33 2019, MaxMem=    33554432 cpu:         0.0
 (Enter /home/proyectos/fulerenos/M3C-v2.0/M3C-deps_CCC/g09-AM64L-G09RevC.01/l703.exe)
 Compute integral first derivatives, UseDBF=F ICtDFT=           0.
 Integral derivatives from FoFJK, PRISM(SPDF).
 Calling FoFJK, ICntrl=      2127 FMM=F ISym2X=0 I1Cent= 0 IOpClX= 1 NMat=1 NMatS=1 NMatT=0.
 FoFJK:  IHMeth= 1 ICntrl=    2127 DoSepK=F KAlg= 0 I1Cent=   0 FoldK=F
 IRaf=         0 NMat=   1 IRICut=       1 DoRegI=T DoRafI=F ISym2E= 0.
 FoFCou: FMM=F IPFlag=           0 FMFlag=      100000 FMFlg1=         800
         NFxFlg=           0 DoJE=F BraDBF=F KetDBF=F FulRan=T
         wScrn=  0.000000 ICntrl=    2127 IOpCl=  1 I1Cent=           0 NGrid=           0
         NMat0=    1 NMatS0=      1 NMatT0=    0 NMatD0=    1 NMtDS0=    0 NMtDT0=    0
 Symmetry not used in FoFCou.
 Leave Link  703 at Thu Mar  7 12:37:55 2019, MaxMem=    33554432 cpu:        42.6
 (Enter /home/proyectos/fulerenos/M3C-v2.0/M3C-deps_CCC/g09-AM64L-G09RevC.01/l716.exe)
 Dipole        = 2.55099098D-01 5.14456698D-01-7.84594743D-01
 -------------------------------------------------------------------
 Center     Atomic                   Forces (Hartrees/Bohr)
 Number     Number              X              Y              Z
 -------------------------------------------------------------------
      1        6          -0.021261433    0.015115447   -0.007479489
      2        6          -0.022631923    0.008956438    0.000941208
      3        6           0.001935794   -0.005261868    0.005516274
      4        6           0.026090115   -0.000555837   -0.013250276
      5        1          -0.002061161   -0.011353938    0.015247396
      6        8           0.017928608   -0.006900243   -0.000975114
 -------------------------------------------------------------------
 Cartesian Forces:  Max     0.026090115 RMS     0.012875159
 Leave Link  716 at Thu Mar  7 12:37:55 2019, MaxMem=    33554432 cpu:         0.0
 (Enter /home/proyectos/fulerenos/M3C-v2.0/M3C-deps_CCC/g09-AM64L-G09RevC.01/l103.exe)

 GradGradGradGradGradGradGradGradGradGradGradGradGradGradGradGradGradGrad
 Berny optimization.
 Using GEDIIS/GDIIS optimizer.
 FormGI is forming the generalized inverse of G from B-inverse, IUseBI=4.
 Internal  Forces:  Max     0.038051289 RMS     0.014031588
 Search for a local minimum.
 Step number  12 out of a maximum of  100
 All quantities printed in internal units (Hartrees-Bohrs-Radians)
 RMS Force = .14032D-01 SwitMx=.10000D-02 MixMth= 1
 Mixed Optimization -- RFO/linear search
 Update second derivatives using D2CorX and points    3    5    4    6    7
                                                      8    9   12
 DE= -7.75D-09 DEPred=-7.83D-09 R= 9.89D-01
 Trust test= 9.89D-01 RLast= 4.65D-07 DXMaxT set to 4.24D-01
 The second derivative matrix:
                          R1        R2        R3        R4        R5
           R1           0.58514
           R2          -0.04752   0.85947
           R3           0.03945  -0.02697   0.44952
           R4          -0.02627   0.04946  -0.04926   0.59692
           R5           0.03971   0.02968  -0.02677  -0.00982   0.33511
           R6          -0.06411   0.01498   0.02915   0.04810   0.07569
           A1           0.03876   0.01054  -0.01665  -0.00193  -0.02189
           A2          -0.04841  -0.00817   0.02266   0.00595   0.02587
           A3          -0.03656  -0.00859   0.02581   0.08552   0.08022
           A4           0.01214   0.05457  -0.05301  -0.04134  -0.06135
           A5          -0.20089  -0.11657   0.14943   0.02805   0.14736
           A6          -0.00331   0.01754   0.00319   0.00179   0.00338
           D1           0.00003  -0.00008  -0.00000  -0.00001  -0.00001
           D2           0.00003  -0.00006  -0.00000  -0.00001  -0.00001
           D3          -0.00000  -0.00001  -0.00000   0.00000   0.00000
                          R6        A1        A2        A3        A4
           R6           0.30273
           A1           0.02923   0.15008
           A2          -0.01690   0.00367   0.17155
           A3          -0.00419   0.00031   0.01540   0.20877
           A4           0.00453   0.00670  -0.02616   0.04320   0.22948
           A5          -0.09476   0.00479   0.07563   0.08089  -0.14787
           A6          -0.00088   0.00175   0.00050  -0.00074   0.00036
           D1          -0.00000  -0.00000  -0.00000   0.00000  -0.00001
           D2           0.00000  -0.00000  -0.00000   0.00000  -0.00001
           D3          -0.00000  -0.00000  -0.00000  -0.00000   0.00000
                          A5        A6        D1        D2        D3
           A5           0.50370
           A6          -0.00109   0.00276
           D1          -0.00001  -0.00001   0.02939
           D2          -0.00000  -0.00001   0.00000   0.02939
           D3          -0.00000  -0.00000   0.00000   0.00000   0.02939
 ITU=  0  0  1  0  0  1  0 -1  1  1  1  0
 Use linear search instead of GDIIS.
     Eigenvalues ---    0.00180   0.02700   0.02939   0.02939   0.08764
     Eigenvalues ---    0.15477   0.36241   0.40849   0.53959   0.60214
     Eigenvalues ---    0.81408   0.94234
 RFO step:  Lambda=-2.07055461D-02 EMin= 1.79756348D-03
 Skip linear search -- no minimum in search direction.
 Maximum step size (   0.424) exceeded in Quadratic search.
    -- Step size scaled by   0.681
 Iteration  1 RMS(Cart)=  0.00504737 RMS(Int)=  0.10583820
 Iteration  2 RMS(Cart)=  0.00036902 RMS(Int)=  0.10562415
 Iteration  3 RMS(Cart)=  0.00012868 RMS(Int)=  0.10555025
 Iteration  4 RMS(Cart)=  0.00490034 RMS(Int)=  0.10314824
 Iteration  5 RMS(Cart)=  0.01468608 RMS(Int)=  0.09439910
 Iteration  6 RMS(Cart)=  0.00026719 RMS(Int)=  0.81634949
 New curvilinear step failed, DQL= 3.17D+00 SP=-4.79D-01.
 ITry= 1 IFail=1 DXMaxC= 5.30D-02 DCOld= 1.00D+10 DXMaxT= 4.24D-01 DXLimC= 3.00D+00 Rises=F
 Iteration  1 RMS(Cart)=  0.00452422 RMS(Int)=  0.09519733
 Iteration  2 RMS(Cart)=  0.00025934 RMS(Int)=  0.09504251
 Linear angle in Tors.
 Error termination via Lnk1e in /home/proyectos/fulerenos/M3C-v2.0/M3C-deps_CCC/g09-AM64L-G09RevC.01/l103.exe at Thu Mar  7 12:37:55 2019.
 Job cpu time:       0 days  1 hours  8 minutes 42.6 seconds.
 File lengths (MBytes):  RWF=     47 Int=      0 D2E=      0 Chk=      4 Scr=      1
