 Entering Gaussian System, Link 0=/home/proyectos/fulerenos/M3C-v2.0/M3C-deps_CCC/g09-AM64L-G09RevC.01/g09
 Initial command:
 /home/proyectos/fulerenos/M3C-v2.0/M3C-deps_CCC/g09-AM64L-G09RevC.01/l1.exe "/scratch/naguirre/gaussian/Gau-22591.inp" -scrdir="/scratch/naguirre/gaussian/"
 Entering Link 1 = /home/proyectos/fulerenos/M3C-v2.0/M3C-deps_CCC/g09-AM64L-G09RevC.01/l1.exe PID=     22592.
  
 Copyright (c) 1988,1990,1992,1993,1995,1998,2003,2009,2015,
            Gaussian, Inc.  All Rights Reserved.
  
 This is part of the Gaussian(R) 09 program.  It is based on
 the Gaussian(R) 03 system (copyright 2003, Gaussian, Inc.),
 the Gaussian(R) 98 system (copyright 1998, Gaussian, Inc.),
 the Gaussian(R) 94 system (copyright 1995, Gaussian, Inc.),
 the Gaussian 92(TM) system (copyright 1992, Gaussian, Inc.),
 the Gaussian 90(TM) system (copyright 1990, Gaussian, Inc.),
 the Gaussian 88(TM) system (copyright 1988, Gaussian, Inc.),
 the Gaussian 86(TM) system (copyright 1986, Carnegie Mellon
 University), and the Gaussian 82(TM) system (copyright 1983,
 Carnegie Mellon University). Gaussian is a federally registered
 trademark of Gaussian, Inc.
  
 This software contains proprietary and confidential information,
 including trade secrets, belonging to Gaussian, Inc.
  
 This software is provided under written license and may be
 used, copied, transmitted, or stored only in accord with that
 written license.
  
 The following legend is applicable only to US Government
 contracts under FAR:
  
                    RESTRICTED RIGHTS LEGEND
  
 Use, reproduction and disclosure by the US Government is
 subject to restrictions as set forth in subparagraphs (a)
 and (c) of the Commercial Computer Software - Restricted
 Rights clause in FAR 52.227-19.
  
 Gaussian, Inc.
 340 Quinnipiac St., Bldg. 40, Wallingford CT 06492
  
  
 ---------------------------------------------------------------
 Warning -- This program may not be used in any manner that
 competes with the business of Gaussian, Inc. or will provide
 assistance to any competitor of Gaussian, Inc.  The licensee
 of this program is prohibited from giving any competitor of
 Gaussian, Inc. access to this program.  By using this program,
 the user acknowledges that Gaussian, Inc. is engaged in the
 business of creating and licensing software in the field of
 computational chemistry and represents and warrants to the
 licensee that it is not a competitor of Gaussian, Inc. and that
 it will not use this program in any manner prohibited above.
 ---------------------------------------------------------------
  

 Cite this work as:
 Gaussian 09, Revision E.01,
 M. J. Frisch, G. W. Trucks, H. B. Schlegel, G. E. Scuseria, 
 M. A. Robb, J. R. Cheeseman, G. Scalmani, V. Barone, B. Mennucci, 
 G. A. Petersson, H. Nakatsuji, M. Caricato, X. Li, H. P. Hratchian, 
 A. F. Izmaylov, J. Bloino, G. Zheng, J. L. Sonnenberg, M. Hada, 
 M. Ehara, K. Toyota, R. Fukuda, J. Hasegawa, M. Ishida, T. Nakajima, 
 Y. Honda, O. Kitao, H. Nakai, T. Vreven, J. A. Montgomery, Jr., 
 J. E. Peralta, F. Ogliaro, M. Bearpark, J. J. Heyd, E. Brothers, 
 K. N. Kudin, V. N. Staroverov, T. Keith, R. Kobayashi, J. Normand, 
 K. Raghavachari, A. Rendell, J. C. Burant, S. S. Iyengar, J. Tomasi, 
 M. Cossi, N. Rega, J. M. Millam, M. Klene, J. E. Knox, J. B. Cross, 
 V. Bakken, C. Adamo, J. Jaramillo, R. Gomperts, R. E. Stratmann, 
 O. Yazyev, A. J. Austin, R. Cammi, C. Pomelli, J. W. Ochterski, 
 R. L. Martin, K. Morokuma, V. G. Zakrzewski, G. A. Voth, 
 P. Salvador, J. J. Dannenberg, S. Dapprich, A. D. Daniels, 
 O. Farkas, J. B. Foresman, J. V. Ortiz, J. Cioslowski, 
 and D. J. Fox, Gaussian, Inc., Wallingford CT, 2013.
 
 ******************************************
 Gaussian 09:  EM64L-G09RevE.01 30-Nov-2015
                 7-Mar-2019 
 ******************************************
 %NProcShared=2
 Will use up to    2 processors via shared memory.
 ------------------------------------------------------
 #p b3lyp/6-311++G(3df,2p) freq IOp(2/17=3) IOp(2/18=3)
 ------------------------------------------------------
 1/10=4,30=1,38=1/1,3;
 2/12=2,17=3,18=3,40=1/2;
 3/5=4,6=6,7=1216,11=2,16=1,25=1,30=1,71=2,74=-5,140=1/1,2,3;
 4//1;
 5/5=2,38=5,98=1/2;
 8/6=4,10=90,11=11/1;
 11/6=1,8=1,9=11,15=111,16=1/1,2,10;
 10/6=1/2;
 6/7=2,8=2,9=2,10=2,18=1,28=1/1;
 7/8=1,10=1,25=1/1,2,3,16;
 1/10=4,30=1/3;
 99//99;
 Leave Link    1 at Thu Mar  7 08:12:50 2019, MaxMem=           0 cpu:         0.5
 (Enter /home/proyectos/fulerenos/M3C-v2.0/M3C-deps_CCC/g09-AM64L-G09RevC.01/l101.exe)
 ---------
 b3lyp opt
 ---------
 Symbolic Z-matrix:
 Charge = -1 Multiplicity = 4
 C                     0.16948   1.00118   0. 
 C                     0.86439  -0.6449    0. 
 O                    -0.47085  -0.23893   0. 
 
 NAtoms=      3 NQM=        3 NQMF=       0 NMMI=      0 NMMIF=      0
                NMic=       0 NMicF=      0.
                    Isotopes and Nuclear Properties:
 (Nuclear quadrupole moments (NQMom) in fm**2, nuclear magnetic moments (NMagM)
  in nuclear magnetons)

  Atom         1           2           3
 IAtWgt=          12          12          16
 AtmWgt=  12.0000000  12.0000000  15.9949146
 NucSpn=           0           0           0
 AtZEff=   0.0000000   0.0000000   0.0000000
 NQMom=    0.0000000   0.0000000   0.0000000
 NMagM=    0.0000000   0.0000000   0.0000000
 AtZNuc=   6.0000000   6.0000000   8.0000000
 Leave Link  101 at Thu Mar  7 08:12:51 2019, MaxMem=    33554432 cpu:         0.7
 (Enter /home/proyectos/fulerenos/M3C-v2.0/M3C-deps_CCC/g09-AM64L-G09RevC.01/l103.exe)

 GradGradGradGradGradGradGradGradGradGradGradGradGradGradGradGradGradGrad
 Berny optimization.
 Initialization pass.
 Trust Radius=3.00D-01 FncErr=1.00D-07 GrdErr=1.00D-07
 Number of steps in this run=      2 maximum allowed number of steps=      2.
 GradGradGradGradGradGradGradGradGradGradGradGradGradGradGradGradGradGrad

 Leave Link  103 at Thu Mar  7 08:12:52 2019, MaxMem=    33554432 cpu:         0.2
 (Enter /home/proyectos/fulerenos/M3C-v2.0/M3C-deps_CCC/g09-AM64L-G09RevC.01/l202.exe)
                          Input orientation:                          
 ---------------------------------------------------------------------
 Center     Atomic      Atomic             Coordinates (Angstroms)
 Number     Number       Type             X           Y           Z
 ---------------------------------------------------------------------
      1          6           0        0.169483    1.001179    0.000000
      2          6           0        0.864392   -0.644901    0.000000
      3          8           0       -0.470854   -0.238930    0.000000
 ---------------------------------------------------------------------
                    Distance matrix (angstroms):
                    1          2          3
     1  C    0.000000
     2  C    1.786751   0.000000
     3  O    1.395673   1.395598   0.000000
 Stoichiometry    C2O(1-,4)
 Framework group  C2V[C2(O),SGV(C2)]
 Deg. of freedom     2
 Full point group                 C2V     NOp   4
 Largest Abelian subgroup         C2V     NOp   4
 Largest concise Abelian subgroup C2      NOp   2
                         Standard orientation:                         
 ---------------------------------------------------------------------
 Center     Atomic      Atomic             Coordinates (Angstroms)
 Number     Number       Type             X           Y           Z
 ---------------------------------------------------------------------
      1          6           0       -0.000000    0.893430   -0.428826
      2          6           0       -0.000000   -0.893430   -0.428826
      3          8           0        0.000000    0.000000    0.643338
 ---------------------------------------------------------------------
 Rotational constants (GHZ):     45.8042357     26.3806065     16.7395741
 Leave Link  202 at Thu Mar  7 08:12:52 2019, MaxMem=    33554432 cpu:         0.3
 (Enter /home/proyectos/fulerenos/M3C-v2.0/M3C-deps_CCC/g09-AM64L-G09RevC.01/l301.exe)
 Standard basis: 6-311++G(3df,2p) (5D, 7F)
 Ernie: Thresh=  0.10000D-02 Tol=  0.10000D-05 Strict=F.
 There are    52 symmetry adapted cartesian basis functions of A1  symmetry.
 There are    18 symmetry adapted cartesian basis functions of A2  symmetry.
 There are    24 symmetry adapted cartesian basis functions of B1  symmetry.
 There are    41 symmetry adapted cartesian basis functions of B2  symmetry.
 There are    43 symmetry adapted basis functions of A1  symmetry.
 There are    17 symmetry adapted basis functions of A2  symmetry.
 There are    22 symmetry adapted basis functions of B1  symmetry.
 There are    35 symmetry adapted basis functions of B2  symmetry.
   117 basis functions,   174 primitive gaussians,   135 cartesian basis functions
    12 alpha electrons        9 beta electrons
       nuclear repulsion energy        47.0616913281 Hartrees.
 IExCor=  402 DFT=T Ex+Corr=B3LYP ExCW=0 ScaHFX=  0.200000
 ScaDFX=  0.800000  0.720000  1.000000  0.810000 ScalE2=  1.000000  1.000000
 IRadAn=      0 IRanWt=     -1 IRanGd=            0 ICorTp=0 IEmpDi=  4
 NAtoms=    3 NActive=    3 NUniq=    2 SFac= 2.25D+00 NAtFMM=   60 NAOKFM=F Big=F
 Integral buffers will be    131072 words long.
 Raffenetti 2 integral format.
 Two-electron integral symmetry is turned on.
 Leave Link  301 at Thu Mar  7 08:12:53 2019, MaxMem=    33554432 cpu:         0.9
 (Enter /home/proyectos/fulerenos/M3C-v2.0/M3C-deps_CCC/g09-AM64L-G09RevC.01/l302.exe)
 NPDir=0 NMtPBC=     1 NCelOv=     1 NCel=       1 NClECP=     1 NCelD=      1
         NCelK=      1 NCelE2=     1 NClLst=     1 CellRange=     0.0.
 One-electron integrals computed using PRISM.
 One-electron integral symmetry used in STVInt
 NBasis=   117 RedAO= T EigKep=  3.47D-04  NBF=    43    17    22    35
 NBsUse=   117 1.00D-06 EigRej= -1.00D+00 NBFU=    43    17    22    35
 Precomputing XC quadrature grid using
 IXCGrd= 4 IRadAn=           0 IRanWt=          -1 IRanGd=           0 AccXCQ= 0.00D+00.
 Generated NRdTot=       0 NPtTot=           0 NUsed=           0 NTot=          32
 NSgBfM=   135   135   135   135   135 MxSgAt=     3 MxSgA2=     3.
 Leave Link  302 at Thu Mar  7 08:12:56 2019, MaxMem=    33554432 cpu:         2.2
 (Enter /home/proyectos/fulerenos/M3C-v2.0/M3C-deps_CCC/g09-AM64L-G09RevC.01/l303.exe)
 DipDrv:  MaxL=1.
 Leave Link  303 at Thu Mar  7 08:12:58 2019, MaxMem=    33554432 cpu:         0.4
 (Enter /home/proyectos/fulerenos/M3C-v2.0/M3C-deps_CCC/g09-AM64L-G09RevC.01/l401.exe)
 ExpMin= 4.38D-02 ExpMax= 8.59D+03 ExpMxC= 1.30D+03 IAcc=2 IRadAn=         4 AccDes= 0.00D+00
 Harris functional with IExCor=  402 and IRadAn=       4 diagonalized for initial guess.
 HarFok:  IExCor=  402 AccDes= 0.00D+00 IRadAn=         4 IDoV= 1 UseB2=F ITyADJ=14
 ICtDFT=  3500011 ScaDFX=  1.000000  1.000000  1.000000  1.000000
 FoFCou: FMM=F IPFlag=           0 FMFlag=      100000 FMFlg1=           0
         NFxFlg=           0 DoJE=T BraDBF=F KetDBF=T FulRan=T
         wScrn=  0.000000 ICntrl=     500 IOpCl=  0 I1Cent=   200000004 NGrid=           0
         NMat0=    1 NMatS0=      1 NMatT0=    0 NMatD0=    1 NMtDS0=    0 NMtDT0=    0
 Petite list used in FoFCou.
 Harris En= -151.261141487582    
 JPrj=0 DoOrth=F DoCkMO=F.
 Initial guess orbital symmetries:
 Alpha Orbitals:
       Occupied  (A1) (A1) (B2) (A1) (B2) (A1) (B1) (A1) (B2) (A1)
                 (B1) (A2)
       Virtual   (B2) (A1) (A1) (B2) (B1) (A1) (B2) (A2) (B2) (A1)
                 (A1) (B2) (B1) (B2) (A1) (A1) (B1) (A2) (B1) (A1)
                 (B2) (B2) (A2) (A1) (B2) (A1) (B1) (B2) (A2) (A1)
                 (B2) (A1) (B1) (A1) (A2) (A1) (B2) (B1) (B2) (A1)
                 (B1) (A1) (B2) (A2) (A1) (B2) (A2) (B1) (B2) (A1)
                 (B2) (A1) (B1) (A1) (A1) (A2) (B1) (B1) (B2) (A1)
                 (B1) (B2) (A2) (A1) (A2) (B2) (B2) (A1) (A1) (A2)
                 (B2) (B1) (A2) (A1) (A1) (B2) (B2) (B1) (B1) (A1)
                 (B2) (B2) (B1) (A2) (A1) (A1) (B2) (B1) (A1) (A2)
                 (B2) (A1) (B1) (A2) (A1) (B2) (B2) (A2) (B1) (A1)
                 (A1) (B2) (B2) (A1) (A1)
 Beta  Orbitals:
       Occupied  (A1) (A1) (B2) (A1) (B2) (A1) (B1) (A1) (B2)
       Virtual   (A1) (B1) (A2) (B2) (A1) (A1) (B2) (B1) (A1) (B2)
                 (A2) (B2) (A1) (A1) (B2) (B1) (B2) (A1) (A1) (B1)
                 (A2) (B1) (A1) (B2) (B2) (A2) (A1) (B2) (A1) (B1)
                 (B2) (A2) (A1) (B2) (A1) (B1) (A1) (A2) (A1) (B2)
                 (B1) (B2) (A1) (B1) (A1) (B2) (A2) (A1) (B2) (A2)
                 (B1) (B2) (A1) (B2) (A1) (B1) (A1) (A1) (A2) (B1)
                 (B1) (B2) (A1) (B1) (B2) (A2) (A1) (A2) (B2) (B2)
                 (A1) (A1) (A2) (B2) (B1) (A2) (A1) (A1) (B2) (B2)
                 (B1) (B1) (A1) (B2) (B2) (B1) (A2) (A1) (A1) (B2)
                 (B1) (A1) (A2) (B2) (A1) (B1) (A2) (A1) (B2) (B2)
                 (A2) (B1) (A1) (A1) (B2) (B2) (A1) (A1)
 The electronic state of the initial guess is 4-B2.
 Initial guess <Sx>= 0.0000 <Sy>= 0.0000 <Sz>= 1.5000 <S**2>= 3.7500 S= 1.5000
 Leave Link  401 at Thu Mar  7 08:13:01 2019, MaxMem=    33554432 cpu:         2.5
 (Enter /home/proyectos/fulerenos/M3C-v2.0/M3C-deps_CCC/g09-AM64L-G09RevC.01/l502.exe)
 UHF open shell SCF:
 Using DIIS extrapolation, IDIIS=  1040.
 Integral symmetry usage will be decided dynamically.
 Keep R1 and R2 ints in memory in symmetry-blocked form, NReq=29967906.
 IVT=       75205 IEndB=       75205 NGot=    33554432 MDV=    21369025
 LenX=    21369025 LenY=    21350359
 Requested convergence on RMS density matrix=1.00D-08 within 128 cycles.
 Requested convergence on MAX density matrix=1.00D-06.
 Requested convergence on             energy=1.00D-06.
 No special actions if energy rises.
 FoFCou: FMM=F IPFlag=           0 FMFlag=           0 FMFlg1=           0
         NFxFlg=           0 DoJE=F BraDBF=F KetDBF=F FulRan=T
         wScrn=  0.000000 ICntrl=     600 IOpCl=  0 I1Cent=           0 NGrid=           0
         NMat0=    1 NMatS0=   6903 NMatT0=    0 NMatD0=    1 NMtDS0=    0 NMtDT0=    0
 Petite list used in FoFCou.

 Cycle   1  Pass 1  IDiag  1:
 E= -151.170285353784    
 DIIS: error= 2.27D-02 at cycle   1 NSaved=   1.
 NSaved= 1 IEnMin= 1 EnMin= -151.170285353784     IErMin= 1 ErrMin= 2.27D-02
 ErrMax= 2.27D-02  0.00D+00 EMaxC= 1.00D-01 BMatC= 1.79D-01 BMatP= 1.79D-01
 IDIUse=3 WtCom= 7.73D-01 WtEn= 2.27D-01
 Coeff-Com:  0.100D+01
 Coeff-En:   0.100D+01
 Coeff:      0.100D+01
 Gap=     0.114 Goal=   None    Shift=    0.000
 Gap=     0.154 Goal=   None    Shift=    0.000
 GapD=    0.114 DampG=1.000 DampE=0.500 DampFc=0.5000 IDamp=-1.
 Damping current iteration by 5.00D-01
 RMSDP=4.59D-03 MaxDP=1.65D-01              OVMax= 2.05D-01

 Cycle   2  Pass 1  IDiag  1:
 E= -151.187276417416     Delta-E=       -0.016991063633 Rises=F Damp=T
 DIIS: error= 9.36D-03 at cycle   2 NSaved=   2.
 NSaved= 2 IEnMin= 2 EnMin= -151.187276417416     IErMin= 2 ErrMin= 9.36D-03
 ErrMax= 9.36D-03  0.00D+00 EMaxC= 1.00D-01 BMatC= 1.88D-02 BMatP= 1.79D-01
 IDIUse=3 WtCom= 9.06D-01 WtEn= 9.36D-02
 Coeff-Com:  0.722D-01 0.928D+00
 Coeff-En:   0.117D+00 0.883D+00
 Coeff:      0.764D-01 0.924D+00
 Gap=     0.132 Goal=   None    Shift=    0.000
 Gap=     0.157 Goal=   None    Shift=    0.000
 RMSDP=1.03D-03 MaxDP=2.30D-02 DE=-1.70D-02 OVMax= 1.23D-01

 Cycle   3  Pass 1  IDiag  1:
 E= -151.208603546751     Delta-E=       -0.021327129335 Rises=F Damp=F
 DIIS: error= 1.40D-02 at cycle   3 NSaved=   3.
 NSaved= 3 IEnMin= 3 EnMin= -151.208603546751     IErMin= 2 ErrMin= 9.36D-03
 ErrMax= 1.40D-02  0.00D+00 EMaxC= 1.00D-01 BMatC= 2.39D-02 BMatP= 1.88D-02
 IDIUse=2 WtCom= 0.00D+00 WtEn= 1.00D+00
 Coeff-En:   0.000D+00 0.000D+00 0.100D+01
 Coeff:      0.000D+00 0.000D+00 0.100D+01
 Gap=     0.126 Goal=   None    Shift=    0.000
 Gap=     0.160 Goal=   None    Shift=    0.000
 RMSDP=1.10D-03 MaxDP=2.90D-02 DE=-2.13D-02 OVMax= 7.76D-02

 Cycle   4  Pass 1  IDiag  1:
 E= -151.192720754018     Delta-E=        0.015882792733 Rises=F Damp=F
 DIIS: error= 3.09D-02 at cycle   4 NSaved=   4.
 NSaved= 4 IEnMin= 3 EnMin= -151.208603546751     IErMin= 2 ErrMin= 9.36D-03
 ErrMax= 3.09D-02  0.00D+00 EMaxC= 1.00D-01 BMatC= 1.13D-01 BMatP= 1.88D-02
 IDIUse=2 WtCom= 0.00D+00 WtEn= 1.00D+00
 Coeff-En:   0.000D+00 0.000D+00 0.766D+00 0.234D+00
 Coeff:      0.000D+00 0.000D+00 0.766D+00 0.234D+00
 Gap=     0.134 Goal=   None    Shift=    0.000
 Gap=     0.159 Goal=   None    Shift=    0.000
 RMSDP=5.22D-04 MaxDP=1.48D-02 DE= 1.59D-02 OVMax= 4.27D-02

 Cycle   5  Pass 1  IDiag  1:
 E= -151.211967565445     Delta-E=       -0.019246811427 Rises=F Damp=F
 DIIS: error= 7.85D-03 at cycle   5 NSaved=   5.
 NSaved= 5 IEnMin= 5 EnMin= -151.211967565445     IErMin= 5 ErrMin= 7.85D-03
 ErrMax= 7.85D-03  0.00D+00 EMaxC= 1.00D-01 BMatC= 7.00D-03 BMatP= 1.88D-02
 IDIUse=3 WtCom= 9.21D-01 WtEn= 7.85D-02
 Coeff-Com:  0.111D-01-0.545D-01 0.183D+00-0.147D+00 0.101D+01
 Coeff-En:   0.000D+00 0.000D+00 0.260D+00 0.000D+00 0.740D+00
 Coeff:      0.102D-01-0.502D-01 0.189D+00-0.135D+00 0.986D+00
 Gap=     0.135 Goal=   None    Shift=    0.000
 Gap=     0.158 Goal=   None    Shift=    0.000
 RMSDP=1.91D-04 MaxDP=5.30D-03 DE=-1.92D-02 OVMax= 1.48D-02

 Cycle   6  Pass 1  IDiag  1:
 E= -151.213257818683     Delta-E=       -0.001290253238 Rises=F Damp=F
 DIIS: error= 2.90D-04 at cycle   6 NSaved=   6.
 NSaved= 6 IEnMin= 6 EnMin= -151.213257818683     IErMin= 6 ErrMin= 2.90D-04
 ErrMax= 2.90D-04  0.00D+00 EMaxC= 1.00D-01 BMatC= 1.05D-05 BMatP= 7.00D-03
 IDIUse=3 WtCom= 9.97D-01 WtEn= 2.90D-03
 Coeff-Com:  0.876D-03-0.692D-02-0.234D-01 0.838D-03-0.337D-02 0.103D+01
 Coeff-En:   0.000D+00 0.000D+00 0.000D+00 0.000D+00 0.000D+00 0.100D+01
 Coeff:      0.874D-03-0.690D-02-0.233D-01 0.836D-03-0.336D-02 0.103D+01
 Gap=     0.135 Goal=   None    Shift=    0.000
 Gap=     0.158 Goal=   None    Shift=    0.000
 RMSDP=2.00D-05 MaxDP=6.20D-04 DE=-1.29D-03 OVMax= 1.05D-03

 Cycle   7  Pass 1  IDiag  1:
 E= -151.213261291272     Delta-E=       -0.000003472589 Rises=F Damp=F
 DIIS: error= 8.88D-05 at cycle   7 NSaved=   7.
 NSaved= 7 IEnMin= 7 EnMin= -151.213261291272     IErMin= 7 ErrMin= 8.88D-05
 ErrMax= 8.88D-05  0.00D+00 EMaxC= 1.00D-01 BMatC= 8.17D-07 BMatP= 1.05D-05
 IDIUse=1 WtCom= 1.00D+00 WtEn= 0.00D+00
 Coeff-Com: -0.132D-02 0.434D-02-0.205D-01 0.101D-01-0.740D-01 0.138D+00
 Coeff-Com:  0.944D+00
 Coeff:     -0.132D-02 0.434D-02-0.205D-01 0.101D-01-0.740D-01 0.138D+00
 Coeff:      0.944D+00
 Gap=     0.135 Goal=   None    Shift=    0.000
 Gap=     0.158 Goal=   None    Shift=    0.000
 RMSDP=6.96D-06 MaxDP=1.39D-04 DE=-3.47D-06 OVMax= 7.34D-04

 Cycle   8  Pass 1  IDiag  1:
 E= -151.213261788698     Delta-E=       -0.000000497426 Rises=F Damp=F
 DIIS: error= 3.00D-05 at cycle   8 NSaved=   8.
 NSaved= 8 IEnMin= 8 EnMin= -151.213261788698     IErMin= 8 ErrMin= 3.00D-05
 ErrMax= 3.00D-05  0.00D+00 EMaxC= 1.00D-01 BMatC= 1.13D-07 BMatP= 8.17D-07
 IDIUse=1 WtCom= 1.00D+00 WtEn= 0.00D+00
 Coeff-Com: -0.522D-03 0.195D-02 0.697D-03-0.111D-02 0.380D-04-0.137D+00
 Coeff-Com:  0.800D-01 0.106D+01
 Coeff:     -0.522D-03 0.195D-02 0.697D-03-0.111D-02 0.380D-04-0.137D+00
 Coeff:      0.800D-01 0.106D+01
 Gap=     0.135 Goal=   None    Shift=    0.000
 Gap=     0.158 Goal=   None    Shift=    0.000
 RMSDP=3.34D-06 MaxDP=4.78D-05 DE=-4.97D-07 OVMax= 2.86D-04

 Cycle   9  Pass 1  IDiag  1:
 E= -151.213261877741     Delta-E=       -0.000000089043 Rises=F Damp=F
 DIIS: error= 6.44D-06 at cycle   9 NSaved=   9.
 NSaved= 9 IEnMin= 9 EnMin= -151.213261877741     IErMin= 9 ErrMin= 6.44D-06
 ErrMax= 6.44D-06  0.00D+00 EMaxC= 1.00D-01 BMatC= 7.39D-09 BMatP= 1.13D-07
 IDIUse=1 WtCom= 1.00D+00 WtEn= 0.00D+00
 Coeff-Com:  0.233D-03-0.650D-03 0.356D-02-0.176D-02 0.124D-01-0.331D-01
 Coeff-Com: -0.121D+00 0.154D-02 0.114D+01
 Coeff:      0.233D-03-0.650D-03 0.356D-02-0.176D-02 0.124D-01-0.331D-01
 Coeff:     -0.121D+00 0.154D-02 0.114D+01
 Gap=     0.135 Goal=   None    Shift=    0.000
 Gap=     0.158 Goal=   None    Shift=    0.000
 RMSDP=1.39D-06 MaxDP=2.84D-05 DE=-8.90D-08 OVMax= 1.70D-04

 Cycle  10  Pass 1  IDiag  1:
 E= -151.213261888963     Delta-E=       -0.000000011222 Rises=F Damp=F
 DIIS: error= 1.40D-06 at cycle  10 NSaved=  10.
 NSaved=10 IEnMin=10 EnMin= -151.213261888963     IErMin=10 ErrMin= 1.40D-06
 ErrMax= 1.40D-06  0.00D+00 EMaxC= 1.00D-01 BMatC= 5.25D-10 BMatP= 7.39D-09
 IDIUse=1 WtCom= 1.00D+00 WtEn= 0.00D+00
 Coeff-Com:  0.388D-04-0.889D-04-0.485D-03 0.323D-03-0.160D-02 0.101D-01
 Coeff-Com:  0.201D-01-0.815D-01-0.145D+00 0.120D+01
 Coeff:      0.388D-04-0.889D-04-0.485D-03 0.323D-03-0.160D-02 0.101D-01
 Coeff:      0.201D-01-0.815D-01-0.145D+00 0.120D+01
 Gap=     0.135 Goal=   None    Shift=    0.000
 Gap=     0.158 Goal=   None    Shift=    0.000
 RMSDP=3.23D-07 MaxDP=5.74D-06 DE=-1.12D-08 OVMax= 3.03D-05

 Cycle  11  Pass 1  IDiag  1:
 E= -151.213261889437     Delta-E=       -0.000000000474 Rises=F Damp=F
 DIIS: error= 4.86D-07 at cycle  11 NSaved=  11.
 NSaved=11 IEnMin=11 EnMin= -151.213261889437     IErMin=11 ErrMin= 4.86D-07
 ErrMax= 4.86D-07  0.00D+00 EMaxC= 1.00D-01 BMatC= 1.37D-11 BMatP= 5.25D-10
 IDIUse=1 WtCom= 1.00D+00 WtEn= 0.00D+00
 Coeff-Com: -0.141D-04 0.327D-04-0.104D-03 0.212D-04-0.262D-03 0.514D-03
 Coeff-Com:  0.392D-02 0.137D-02-0.294D-01-0.812D-01 0.111D+01
 Coeff:     -0.141D-04 0.327D-04-0.104D-03 0.212D-04-0.262D-03 0.514D-03
 Coeff:      0.392D-02 0.137D-02-0.294D-01-0.812D-01 0.111D+01
 Gap=     0.135 Goal=   None    Shift=    0.000
 Gap=     0.158 Goal=   None    Shift=    0.000
 RMSDP=4.50D-08 MaxDP=1.48D-06 DE=-4.74D-10 OVMax= 3.28D-06

 Cycle  12  Pass 1  IDiag  1:
 E= -151.213261889445     Delta-E=       -0.000000000009 Rises=F Damp=F
 DIIS: error= 6.35D-08 at cycle  12 NSaved=  12.
 NSaved=12 IEnMin=12 EnMin= -151.213261889445     IErMin=12 ErrMin= 6.35D-08
 ErrMax= 6.35D-08  0.00D+00 EMaxC= 1.00D-01 BMatC= 7.18D-13 BMatP= 1.37D-11
 IDIUse=1 WtCom= 1.00D+00 WtEn= 0.00D+00
 Coeff-Com: -0.682D-06 0.197D-05 0.105D-04-0.806D-05 0.262D-04-0.183D-03
 Coeff-Com: -0.620D-03 0.159D-02 0.570D-02-0.207D-01-0.133D+00 0.115D+01
 Coeff:     -0.682D-06 0.197D-05 0.105D-04-0.806D-05 0.262D-04-0.183D-03
 Coeff:     -0.620D-03 0.159D-02 0.570D-02-0.207D-01-0.133D+00 0.115D+01
 Gap=     0.135 Goal=   None    Shift=    0.000
 Gap=     0.158 Goal=   None    Shift=    0.000
 RMSDP=5.18D-09 MaxDP=1.45D-07 DE=-8.61D-12 OVMax= 3.38D-07

 SCF Done:  E(UB3LYP) =  -151.213261889     A.U. after   12 cycles
            NFock= 12  Conv=0.52D-08     -V/T= 2.0033
 <Sx>= 0.0000 <Sy>= 0.0000 <Sz>= 1.5000 <S**2>= 3.7650 S= 1.5037
 <L.S>= 0.000000000000E+00
 KE= 1.507167136273D+02 PE=-4.538656210697D+02 EE= 1.048739542249D+02
 Annihilation of the first spin contaminant:
 S**2 before annihilation     3.7650,   after     3.7501
 Leave Link  502 at Thu Mar  7 08:13:13 2019, MaxMem=    33554432 cpu:        19.1
 (Enter /home/proyectos/fulerenos/M3C-v2.0/M3C-deps_CCC/g09-AM64L-G09RevC.01/l801.exe)
 DoSCS=F DFT=T ScalE2(SS,OS)=  1.000000  1.000000
 Range of M.O.s used for correlation:     1   117
 NBasis=   117 NAE=    12 NBE=     9 NFC=     0 NFV=     0
 NROrb=    117 NOA=    12 NOB=     9 NVA=   105 NVB=   108

 **** Warning!!: The largest alpha MO coefficient is  0.20286217D+02


 **** Warning!!: The largest beta MO coefficient is  0.20960182D+02

 Leave Link  801 at Thu Mar  7 08:13:13 2019, MaxMem=    33554432 cpu:         0.1
 (Enter /home/proyectos/fulerenos/M3C-v2.0/M3C-deps_CCC/g09-AM64L-G09RevC.01/l1101.exe)
 Using compressed storage, NAtomX=     3.
 Will process      4 centers per pass.
 Leave Link 1101 at Thu Mar  7 08:13:15 2019, MaxMem=    33554432 cpu:         0.9
 (Enter /home/proyectos/fulerenos/M3C-v2.0/M3C-deps_CCC/g09-AM64L-G09RevC.01/l1102.exe)
 Symmetrizing basis deriv contribution to polar:
 IMax=3 JMax=2 DiffMx= 0.00D+00
 Leave Link 1102 at Thu Mar  7 08:13:18 2019, MaxMem=    33554432 cpu:         0.3
 (Enter /home/proyectos/fulerenos/M3C-v2.0/M3C-deps_CCC/g09-AM64L-G09RevC.01/l1110.exe)
 Forming Gx(P) for the SCF density, NAtomX=     3.
 Integral derivatives from FoFJK, PRISM(SPDF).
 Do as many integral derivatives as possible in FoFJK.
 G2DrvN: MDV=      33554304.
 G2DrvN: will do     4 centers at a time, making    1 passes.
 Calling FoFCou, ICntrl=  3107 FMM=F I1Cent=   0 AccDes= 0.00D+00.
 FoFJK:  IHMeth= 1 ICntrl=    3107 DoSepK=F KAlg= 0 I1Cent=   0 FoldK=F
 IRaf=         0 NMat=   1 IRICut=       1 DoRegI=T DoRafI=F ISym2E= 1.
 FoFCou: FMM=F IPFlag=           0 FMFlag=      100000 FMFlg1=           0
         NFxFlg=           0 DoJE=F BraDBF=F KetDBF=F FulRan=T
         wScrn=  0.000000 ICntrl=    3107 IOpCl=  1 I1Cent=           0 NGrid=           0
         NMat0=    1 NMatS0=      1 NMatT0=    0 NMatD0=    1 NMtDS0=    0 NMtDT0=    0
 Petite list used in FoFCou.
 End of G2Drv F.D. properties file   721 does not exist.
 End of G2Drv F.D. properties file   722 does not exist.
 End of G2Drv F.D. properties file   788 does not exist.
 Leave Link 1110 at Thu Mar  7 08:13:39 2019, MaxMem=    33554432 cpu:        39.2
 (Enter /home/proyectos/fulerenos/M3C-v2.0/M3C-deps_CCC/g09-AM64L-G09RevC.01/l1002.exe)
 Minotr:  UHF open shell wavefunction.
          IDoAtm=111
          Direct CPHF calculation.
          Differentiating once with respect to electric field.
                with respect to dipole field.
          Differentiating once with respect to nuclear coordinates.
          Using symmetry in CPHF.
          Requested convergence is 1.0D-08 RMS, and 1.0D-07 maximum.
          Secondary convergence is 1.0D-12 RMS, and 1.0D-12 maximum.
          NewPWx=T KeepS1=F KeepF1=F KeepIn=T MapXYZ=F SortEE=F KeepMc=T.
          MDV=      33554164 using IRadAn=       2.
 Generate precomputed XC quadrature information.
 Keep R1 and R2 ints in memory in symmetry-blocked form, NReq=29895007.
 FoFCou: FMM=F IPFlag=           0 FMFlag=           0 FMFlg1=           0
         NFxFlg=           0 DoJE=F BraDBF=F KetDBF=F FulRan=T
         wScrn=  0.000000 ICntrl=     600 IOpCl=  0 I1Cent=           0 NGrid=           0
         NMat0=    1 NMatS0=   6903 NMatT0=    0 NMatD0=    1 NMtDS0=    0 NMtDT0=    0
 Petite list used in FoFCou.
          Solving linear equations simultaneously, MaxMat=       0.
          There are     9 degrees of freedom in the 1st order CPHF.  IDoFFX=4 NUNeed=     9.
      9 vectors produced by pass  0 Test12= 2.48D-14 1.11D-08 XBig12= 1.33D+02 5.96D+00.
 AX will form     9 AO Fock derivatives at one time.
      9 vectors produced by pass  1 Test12= 2.48D-14 1.11D-08 XBig12= 7.58D+01 4.40D+00.
      9 vectors produced by pass  2 Test12= 2.48D-14 1.11D-08 XBig12= 7.70D+00 8.33D-01.
      9 vectors produced by pass  3 Test12= 2.48D-14 1.11D-08 XBig12= 6.39D-01 2.40D-01.
      9 vectors produced by pass  4 Test12= 2.48D-14 1.11D-08 XBig12= 1.11D-02 2.47D-02.
      9 vectors produced by pass  5 Test12= 2.48D-14 1.11D-08 XBig12= 7.16D-05 2.35D-03.
      9 vectors produced by pass  6 Test12= 2.48D-14 1.11D-08 XBig12= 8.91D-07 2.47D-04.
      9 vectors produced by pass  7 Test12= 2.48D-14 1.11D-08 XBig12= 7.84D-09 2.53D-05.
      5 vectors produced by pass  8 Test12= 2.48D-14 1.11D-08 XBig12= 1.05D-10 2.93D-06.
      3 vectors produced by pass  9 Test12= 2.48D-14 1.11D-08 XBig12= 1.14D-12 3.03D-07.
      1 vectors produced by pass 10 Test12= 2.48D-14 1.11D-08 XBig12= 9.04D-15 2.61D-08.
 InvSVY:  IOpt=1 It=  1 EMax= 3.21D-15
 Solved reduced A of dimension    81 with     9 vectors.
 FullF1:  Do perturbations    1 to     9.
 Isotropic polarizability for W=    0.000000       48.30 Bohr**3.
 End of Minotr F.D. properties file   721 does not exist.
 End of Minotr F.D. properties file   722 does not exist.
 End of Minotr F.D. properties file   788 does not exist.
 Leave Link 1002 at Thu Mar  7 08:14:17 2019, MaxMem=    33554432 cpu:        72.6
 (Enter /home/proyectos/fulerenos/M3C-v2.0/M3C-deps_CCC/g09-AM64L-G09RevC.01/l601.exe)
 Copying SCF densities to generalized density rwf, IOpCl= 1 IROHF=0.

 **********************************************************************

            Population analysis using the SCF density.

 **********************************************************************

 Orbital symmetries:
 Alpha Orbitals:
       Occupied  (A1) (A1) (B2) (A1) (B2) (A1) (B1) (A1) (B2) (A1)
                 (B1) (A2)
       Virtual   (B2) (A1) (A1) (B1) (B2) (A2) (A1) (B2) (B2) (A1)
                 (B1) (A1) (B2) (B2) (A1) (A1) (B1) (A2) (A1) (B1)
                 (B2) (A2) (B2) (A1) (B2) (B2) (B1) (A1) (A2) (A1)
                 (B2) (A1) (B1) (A1) (A2) (A1) (B2) (B1) (B2) (A1)
                 (B1) (A1) (B2) (A2) (A1) (B2) (A2) (B1) (B2) (A1)
                 (B2) (A1) (B1) (A1) (A1) (B1) (A2) (B1) (B2) (A1)
                 (B1) (B2) (A2) (A2) (A1) (B2) (B2) (A1) (A1) (A2)
                 (B2) (B1) (A2) (A1) (A1) (B2) (B2) (B1) (B1) (A1)
                 (B2) (B2) (B1) (A2) (A1) (A1) (B2) (B1) (A1) (A2)
                 (B2) (A1) (B1) (A2) (A1) (B2) (B2) (A2) (B1) (A1)
                 (A1) (B2) (B2) (A1) (A1)
 Beta  Orbitals:
       Occupied  (A1) (A1) (B2) (A1) (B2) (A1) (B1) (A1) (B2)
       Virtual   (A1) (B1) (B2) (A2) (A1) (A1) (B2) (B1) (A1) (A2)
                 (B2) (B2) (A1) (B1) (A1) (B2) (A1) (B2) (A1) (B1)
                 (A2) (A1) (B1) (B2) (B2) (A2) (A1) (B2) (B2) (A1)
                 (B1) (A2) (A1) (B2) (A1) (B1) (A1) (A2) (A1) (B2)
                 (B1) (B2) (A1) (B1) (A1) (B2) (A2) (A1) (B2) (B1)
                 (A2) (B2) (A1) (A1) (B2) (B1) (A1) (A1) (B1) (A2)
                 (B2) (B1) (A1) (B1) (A2) (B2) (A2) (A1) (B2) (B2)
                 (A1) (A1) (B2) (A2) (B1) (A2) (A1) (A1) (B2) (B2)
                 (B1) (B1) (A1) (B2) (B2) (B1) (A2) (A1) (A1) (B2)
                 (B1) (A1) (A2) (B2) (A1) (B1) (A2) (A1) (B2) (B2)
                 (A2) (B1) (A1) (A1) (B2) (B2) (A1) (A1)
 The electronic state is 4-B2.
 Alpha  occ. eigenvalues --  -18.97605 -10.02269 -10.02262  -0.89860  -0.40092
 Alpha  occ. eigenvalues --   -0.38672  -0.24362  -0.16740  -0.11042  -0.04312
 Alpha  occ. eigenvalues --    0.03826   0.04163
 Alpha virt. eigenvalues --    0.17658   0.18301   0.19596   0.21418   0.21597
 Alpha virt. eigenvalues --    0.24387   0.24569   0.26839   0.29664   0.34474
 Alpha virt. eigenvalues --    0.36854   0.39208   0.41610   0.48056   0.48616
 Alpha virt. eigenvalues --    0.56255   0.56957   0.61910   0.63586   0.64171
 Alpha virt. eigenvalues --    0.64997   0.69614   0.70862   0.73156   0.74832
 Alpha virt. eigenvalues --    0.76174   0.76867   0.77777   0.89399   0.92582
 Alpha virt. eigenvalues --    0.97398   1.04852   1.13744   1.23033   1.23389
 Alpha virt. eigenvalues --    1.24411   1.32376   1.36814   1.48754   1.52623
 Alpha virt. eigenvalues --    1.67212   1.68194   1.80921   1.89612   1.95119
 Alpha virt. eigenvalues --    1.95255   1.98034   2.00577   2.06455   2.08982
 Alpha virt. eigenvalues --    2.32095   2.32524   2.74827   2.78412   2.86429
 Alpha virt. eigenvalues --    2.92032   2.93909   3.01613   3.03763   3.04361
 Alpha virt. eigenvalues --    3.10309   3.14575   3.15724   3.18590   3.22533
 Alpha virt. eigenvalues --    3.28444   3.38423   3.41856   3.51679   3.74418
 Alpha virt. eigenvalues --    3.75981   3.95517   3.96408   4.04766   4.13251
 Alpha virt. eigenvalues --    4.37325   4.56900   5.26149   5.40592   5.55831
 Alpha virt. eigenvalues --    5.58102   5.89152   5.90410   6.00884   6.04442
 Alpha virt. eigenvalues --    6.43638   6.53293   7.08791   7.14827   7.25112
 Alpha virt. eigenvalues --    7.29719   7.41314   7.41505   7.51369   7.70291
 Alpha virt. eigenvalues --    7.95391   8.14271  14.57765  14.58917  14.63225
 Alpha virt. eigenvalues --   14.77055  15.18016  24.13687  24.21205  50.33371
  Beta  occ. eigenvalues --  -18.96553 -10.00272 -10.00270  -0.87266  -0.35394
  Beta  occ. eigenvalues --   -0.33385  -0.18148  -0.12440  -0.06838
  Beta virt. eigenvalues --    0.08992   0.16617   0.18412   0.18644   0.18697
  Beta virt. eigenvalues --    0.20010   0.22034   0.24777   0.25153   0.27695
  Beta virt. eigenvalues --    0.29956   0.32811   0.35035   0.37149   0.40605
  Beta virt. eigenvalues --    0.42802   0.50371   0.50402   0.58216   0.60393
  Beta virt. eigenvalues --    0.63731   0.65782   0.66721   0.67964   0.73215
  Beta virt. eigenvalues --    0.73697   0.74656   0.75802   0.77145   0.79288
  Beta virt. eigenvalues --    0.81483   0.93061   0.95727   0.99042   1.06223
  Beta virt. eigenvalues --    1.15353   1.24604   1.24848   1.25836   1.33116
  Beta virt. eigenvalues --    1.39484   1.52159   1.54864   1.74300   1.74790
  Beta virt. eigenvalues --    1.83371   1.95689   1.97850   2.01687   2.04751
  Beta virt. eigenvalues --    2.04825   2.09481   2.13169   2.33921   2.35684
  Beta virt. eigenvalues --    2.81606   2.84052   2.89250   2.97176   3.00883
  Beta virt. eigenvalues --    3.08190   3.09456   3.10550   3.13504   3.19443
  Beta virt. eigenvalues --    3.21339   3.24951   3.25144   3.30198   3.42692
  Beta virt. eigenvalues --    3.45450   3.56153   3.79227   3.80430   3.99032
  Beta virt. eigenvalues --    3.99698   4.06479   4.15580   4.41691   4.58278
  Beta virt. eigenvalues --    5.29770   5.42416   5.58419   5.60210   5.90439
  Beta virt. eigenvalues --    5.93456   6.03488   6.06025   6.45076   6.54436
  Beta virt. eigenvalues --    7.18495   7.23990   7.34209   7.38221   7.44689
  Beta virt. eigenvalues --    7.47310   7.57619   7.74593   7.99427   8.18232
  Beta virt. eigenvalues --   14.61019  14.63002  14.65214  14.80635  15.19263
  Beta virt. eigenvalues --   24.15879  24.23401  50.34418
          Condensed to atoms (all electrons):
               1          2          3
     1  C    6.787255  -0.157326  -0.218875
     2  C   -0.157326   6.787255  -0.218875
     3  O   -0.218875  -0.218875   8.615642
          Atomic-Atomic Spin Densities.
               1          2          3
     1  C    1.740091  -0.075471  -0.237135
     2  C   -0.075471   1.740091  -0.237135
     3  O   -0.237135  -0.237135   0.619303
 Mulliken charges and spin densities:
               1          2
     1  C   -0.411054   1.427484
     2  C   -0.411054   1.427484
     3  O   -0.177892   0.145032
 Sum of Mulliken charges =  -1.00000   3.00000
 Mulliken charges and spin densities with hydrogens summed into heavy atoms:
               1          2
     1  C   -0.411054   1.427484
     2  C   -0.411054   1.427484
     3  O   -0.177892   0.145032
 APT charges:
               1
     1  C   -0.260356
     2  C   -0.260356
     3  O   -0.479288
 Sum of APT charges =  -1.00000
 APT charges with hydrogens summed into heavy atoms:
               1
     1  C   -0.260356
     2  C   -0.260356
     3  O   -0.479288
 Electronic spatial extent (au):  <R**2>=            110.1990
 Charge=             -1.0000 electrons
 Dipole moment (field-independent basis, Debye):
    X=              0.0000    Y=             -0.0000    Z=              2.4845  Tot=              2.4845
 Quadrupole moment (field-independent basis, Debye-Ang):
   XX=            -23.5624   YY=            -28.2034   ZZ=            -23.9445
   XY=             -0.0000   XZ=             -0.0000   YZ=              0.0000
 Traceless Quadrupole moment (field-independent basis, Debye-Ang):
   XX=              1.6743   YY=             -2.9666   ZZ=              1.2923
   XY=             -0.0000   XZ=             -0.0000   YZ=              0.0000
 Octapole moment (field-independent basis, Debye-Ang**2):
  XXX=              0.0000  YYY=             -0.0000  ZZZ=             11.8962  XYY=              0.0000
  XXY=             -0.0000  XXZ=              5.7089  XZZ=              0.0000  YZZ=             -0.0000
  YYZ=             10.0628  XYZ=              0.0000
 Hexadecapole moment (field-independent basis, Debye-Ang**3):
 XXXX=            -46.0416 YYYY=           -132.0682 ZZZZ=            -66.4685 XXXY=             -0.0000
 XXXZ=             -0.0000 YYYX=             -0.0000 YYYZ=             -0.0000 ZZZX=             -0.0000
 ZZZY=             -0.0000 XXYY=            -32.4630 XXZZ=            -19.6767 YYZZ=            -33.6871
 XXYZ=              0.0000 YYXZ=             -0.0000 ZZXY=             -0.0000
 N-N= 4.706169132810D+01 E-N=-4.538656213014D+02  KE= 1.507167136273D+02
 Symmetry A1   KE= 1.044591471151D+02
 Symmetry A2   KE= 1.312003576382D+00
 Symmetry B1   KE= 5.524298753178D+00
 Symmetry B2   KE= 3.942126418270D+01
  Exact polarizability:  48.766   0.000  62.820   0.000   0.000  33.300
 Approx polarizability:  50.627   0.000  75.151   0.000  -0.000  47.803
                          Isotropic Fermi Contact Couplings
        Atom                 a.u.       MegaHertz       Gauss      10(-4) cm-1
     1  C(13)              0.12090      45.30386      16.16554      15.11174
     2  C(13)              0.12090      45.30386      16.16554      15.11174
     3  O(17)              0.14150     -28.59228     -10.20244      -9.53736
 --------------------------------------------------------
       Center         ----  Spin Dipole Couplings  ----
                      3XX-RR        3YY-RR        3ZZ-RR
 --------------------------------------------------------
     1   Atom        0.863979     -0.319683     -0.544296
     2   Atom        0.863979     -0.319683     -0.544296
     3   Atom        1.188485     -0.906028     -0.282457
 --------------------------------------------------------
                        XY            XZ            YZ
 --------------------------------------------------------
     1   Atom        0.000000      0.000000      0.465415
     2   Atom        0.000000      0.000000     -0.465415
     3   Atom        0.000000      0.000000      0.000000
 --------------------------------------------------------


 ---------------------------------------------------------------------------------
              Anisotropic Spin Dipole Couplings in Principal Axis System
 ---------------------------------------------------------------------------------

       Atom             a.u.   MegaHertz   Gauss  10(-4) cm-1        Axes

              Baa    -0.9108  -122.216   -43.610   -40.767 -0.0000 -0.6186  0.7857
     1 C(13)  Bbb     0.0468     6.278     2.240     2.094  0.0000  0.7857  0.6186
              Bcc     0.8640   115.938    41.369    38.673  1.0000 -0.0000  0.0000
 
              Baa    -0.9108  -122.216   -43.610   -40.767 -0.0000  0.6186  0.7857
     2 C(13)  Bbb     0.0468     6.278     2.240     2.094 -0.0000  0.7857 -0.6186
              Bcc     0.8640   115.938    41.369    38.673  1.0000  0.0000  0.0000
 
              Baa    -0.9060    65.560    23.393    21.868  0.0000  1.0000 -0.0000
     3 O(17)  Bbb    -0.2825    20.438     7.293     6.818  0.0000  0.0000  1.0000
              Bcc     1.1885   -85.998   -30.686   -28.686  1.0000 -0.0000 -0.0000
 

 ---------------------------------------------------------------------------------

 No NMR shielding tensors so no spin-rotation constants.
 Leave Link  601 at Thu Mar  7 08:14:19 2019, MaxMem=    33554432 cpu:         1.9
 (Enter /home/proyectos/fulerenos/M3C-v2.0/M3C-deps_CCC/g09-AM64L-G09RevC.01/l701.exe)
 Compute integral second derivatives.
 ... and contract with generalized density number  0.
 Leave Link  701 at Thu Mar  7 08:14:22 2019, MaxMem=    33554432 cpu:         3.7
 (Enter /home/proyectos/fulerenos/M3C-v2.0/M3C-deps_CCC/g09-AM64L-G09RevC.01/l702.exe)
 L702 exits ... SP integral derivatives will be done elsewhere.
 Leave Link  702 at Thu Mar  7 08:14:23 2019, MaxMem=    33554432 cpu:         0.2
 (Enter /home/proyectos/fulerenos/M3C-v2.0/M3C-deps_CCC/g09-AM64L-G09RevC.01/l703.exe)
 Compute integral second derivatives, UseDBF=F ICtDFT=           0.
 Integral derivatives from FoFJK, PRISM(SPDF).
 Calling FoFJK, ICntrl=    100127 FMM=F ISym2X=1 I1Cent= 0 IOpClX= 1 NMat=1 NMatS=1 NMatT=0.
 FoFJK:  IHMeth= 1 ICntrl=  100127 DoSepK=F KAlg= 0 I1Cent=   0 FoldK=F
 IRaf=         0 NMat=   1 IRICut=       1 DoRegI=T DoRafI=F ISym2E= 1.
 FoFCou: FMM=F IPFlag=           0 FMFlag=      100000 FMFlg1=         800
         NFxFlg=           0 DoJE=F BraDBF=F KetDBF=F FulRan=T
         wScrn=  0.000000 ICntrl=  100127 IOpCl=  1 I1Cent=           0 NGrid=           0
         NMat0=    1 NMatS0=      1 NMatT0=    0 NMatD0=    1 NMtDS0=    0 NMtDT0=    0
 Petite list used in FoFCou.
 Leave Link  703 at Thu Mar  7 08:14:58 2019, MaxMem=    33554432 cpu:        67.5
 (Enter /home/proyectos/fulerenos/M3C-v2.0/M3C-deps_CCC/g09-AM64L-G09RevC.01/l716.exe)
 Dipole        = 1.02335611D-16 1.42733861D-15 9.77466717D-01
 Polarizability= 4.87662093D+01 7.08779268D-09 6.28202867D+01
                 2.44538382D-09 2.08929515D-07 3.33003914D+01
 Full mass-weighted force constant matrix:
 Low frequencies ---  -28.2345   -7.7271   -0.0012   -0.0011   -0.0002   12.0543
 Low frequencies ---  382.3983  543.6639 1128.0672
 Diagonal vibrational polarizability:
        0.0000000       0.0526091       2.2508503
 Harmonic frequencies (cm**-1), IR intensities (KM/Mole), Raman scattering
 activities (A**4/AMU), depolarization ratios for plane and unpolarized
 incident light, reduced masses (AMU), force constants (mDyne/A),
 and normal coordinates:
                      1                      2                      3
                     A1                     B2                     A1
 Frequencies --    382.3983               543.6638              1128.0672
 Red. masses --     12.5782                13.2612                13.3915
 Frc consts  --      1.0837                 2.3094                10.0404
 IR Inten    --      2.9582                 0.5778                80.6915
  Atom  AN      X      Y      Z        X      Y      Z        X      Y      Z
     1   6     0.00   0.60   0.25     0.00  -0.37   0.45     0.00   0.41  -0.39
     2   6    -0.00  -0.60   0.25    -0.00  -0.37  -0.45    -0.00  -0.41  -0.39
     3   8    -0.00  -0.00  -0.38     0.00   0.56   0.00     0.00  -0.00   0.59

 -------------------
 - Thermochemistry -
 -------------------
 Temperature   298.150 Kelvin.  Pressure   1.00000 Atm.
 Atom     1 has atomic number  6 and mass  12.00000
 Atom     2 has atomic number  6 and mass  12.00000
 Atom     3 has atomic number  8 and mass  15.99491
 Molecular mass:    39.99491 amu.
 Principal axes and moments of inertia in atomic units:
                           1         2         3
     Eigenvalues --    39.40119  68.41166 107.81285
           X            0.00000   0.00000   1.00000
           Y            1.00000   0.00000   0.00000
           Z            0.00000   1.00000   0.00000
 This molecule is an asymmetric top.
 Rotational symmetry number  2.
 Rotational temperatures (Kelvin)      2.19825     1.26607     0.80337
 Rotational constants (GHZ):          45.80424    26.38061    16.73957
 Zero-point vibrational energy      12286.4 (Joules/Mol)
                                    2.93653 (Kcal/Mol)
 Warning -- explicit consideration of   2 degrees of freedom as
           vibrations may cause significant error
 Vibrational temperatures:    550.19   782.21  1623.04
          (Kelvin)
 
 Zero-point correction=                           0.004680 (Hartree/Particle)
 Thermal correction to Energy=                    0.008055
 Thermal correction to Enthalpy=                  0.008999
 Thermal correction to Gibbs Free Energy=        -0.019655
 Sum of electronic and zero-point Energies=           -151.208582
 Sum of electronic and thermal Energies=              -151.205207
 Sum of electronic and thermal Enthalpies=            -151.204263
 Sum of electronic and thermal Free Energies=         -151.232917
 
                     E (Thermal)             CV                S
                      KCal/Mol        Cal/Mol-Kelvin    Cal/Mol-Kelvin
 Total                    5.055              8.880             60.309
 Electronic               0.000              0.000              2.755
 Translational            0.889              2.981             36.986
 Rotational               0.889              2.981             18.925
 Vibrational              3.277              2.918              1.643
 Vibration     1          0.752              1.508              1.030
 Vibration     2          0.899              1.154              0.557
                       Q            Log10(Q)             Ln(Q)
 Total Bot       0.109843D+10          9.040771         20.817146
 Total V=0       0.156048D+12         11.193257         25.773426
 Vib (Bot)       0.905269D-02         -2.043222         -4.704693
 Vib (Bot)    1  0.472026D+00         -0.326034         -0.750722
 Vib (Bot)    2  0.290410D+00         -0.536988         -1.236461
 Vib (V=0)       0.128607D+01          0.109263          0.251588
 Vib (V=0)    1  0.118761D+01          0.074674          0.171943
 Vib (V=0)    2  0.107822D+01          0.032707          0.075311
 Electronic      0.400000D+01          0.602060          1.386294
 Translational   0.994174D+07          6.997462         16.112253
 Rotational      0.305121D+04          3.484471          8.023292
 
                                                              b3lyp opt
                                                             IR Spectrum
 
     1                                                                                                                               
     1                                                                 5                 3                                           
     2                                                                 4                 8                                           
     8                                                                 4                 2                                           
 
     X                                                                 X                 X                                           
     X                                                                                                                               
     X                                                                                                                               
     X                                                                                                                               
     X                                                                                                                               
     X                                                                                                                               
     X                                                                                                                               
     X                                                                                                                               
     X                                                                                                                               
     X                                                                                                                               
     X                                                                                                                               
     X                                                                                                                               
     X                                                                                                                               
     X                                                                                                                               
     X                                                                                                                               
     X                                                                                                                               
     X                                                                                                                               
     X                                                                                                                               
     X                                                                                                                               
     X                                                                                                                               
 
 ***** Axes restored to original set *****
 -------------------------------------------------------------------
 Center     Atomic                   Forces (Hartrees/Bohr)
 Number     Number              X              Y              Z
 -------------------------------------------------------------------
      1        6           0.000028351    0.000061532   -0.000000000
      2        6           0.000063866   -0.000022610    0.000000000
      3        8          -0.000092217   -0.000038922   -0.000000000
 -------------------------------------------------------------------
 Cartesian Forces:  Max     0.000092217 RMS     0.000046187
 Z-matrix is all fixed cartesians, so copy forces.
 Force constants in Cartesian coordinates: 
                1             2             3             4             5 
      1  0.437081D-01
      2  0.591589D-01  0.193728D+00
      3  0.000000D+00  0.000000D+00 -0.859517D-04
      4  0.362760D-01  0.109389D+00  0.000000D+00  0.179862D+00
      5  0.110670D-02 -0.713014D-01  0.000000D+00 -0.734000D-01  0.575732D-01
      6  0.000000D+00  0.000000D+00 -0.588372D-04  0.000000D+00  0.000000D+00
      7 -0.799841D-01 -0.168548D+00  0.000000D+00 -0.216139D+00  0.722933D-01
      8 -0.602656D-01 -0.122426D+00  0.000000D+00 -0.359887D-01  0.137282D-01
      9  0.000000D+00  0.000000D+00  0.144784D-03  0.000000D+00  0.000000D+00
                6             7             8             9 
      6 -0.859517D-04
      7  0.000000D+00  0.296123D+00
      8  0.000000D+00  0.962542D-01  0.108698D+00
      9  0.144779D-03  0.000000D+00  0.000000D+00 -0.289549D-03
 Leave Link  716 at Thu Mar  7 08:14:59 2019, MaxMem=    33554432 cpu:         0.5
 (Enter /home/proyectos/fulerenos/M3C-v2.0/M3C-deps_CCC/g09-AM64L-G09RevC.01/l103.exe)

 GradGradGradGradGradGradGradGradGradGradGradGradGradGradGradGradGradGrad
 Berny optimization.
 Search for a local minimum.
 Step number   1 out of a maximum of    2
 All quantities printed in internal units (Hartrees-Bohrs-Radians)
 Second derivative matrix not updated -- analytic derivatives used.
 The second derivative matrix:
                          X1        Y1        Z1        X2        Y2
           X1           0.04371
           Y1           0.05916   0.19373
           Z1           0.00000  -0.00000  -0.00009
           X2           0.03628   0.10939  -0.00000   0.17986
           Y2           0.00111  -0.07130   0.00000  -0.07340   0.05757
           Z2           0.00000   0.00000  -0.00006   0.00000  -0.00000
           X3          -0.07998  -0.16855  -0.00000  -0.21614   0.07229
           Y3          -0.06027  -0.12243   0.00000  -0.03599   0.01373
           Z3          -0.00000   0.00000   0.00014   0.00000   0.00000
                          Z2        X3        Y3        Z3
           Z2          -0.00009
           X3           0.00000   0.29612
           Y3          -0.00000   0.09625   0.10870
           Z3           0.00014   0.00000  -0.00000  -0.00029
 ITU=  0
     Eigenvalues ---    0.06983   0.15047   0.65615
 Angle between quadratic step and forces=  23.02 degrees.
 ClnCor:  largest displacement from symmetrization is 2.63D-12 for atom     2.
 Linear search not attempted -- first point.
 ClnCor:  largest displacement from symmetrization is 2.22D-16 for atom     2.
 B after Tr=    -0.000009   -0.000004   -0.000000
         Rot=    1.000000    0.000000    0.000000    0.000000 Ang=   0.00 deg.
 Variable       Old X    -DE/DX   Delta X   Delta X   Delta X     New X
                                 (Linear)    (Quad)   (Total)
    X1        0.32028   0.00003   0.00000   0.00009   0.00008   0.32036
    Y1        1.89195   0.00006   0.00000   0.00005   0.00005   1.89200
    Z1        0.00000  -0.00000   0.00000  -0.00000  -0.00000   0.00000
    X2        1.63332   0.00006   0.00000   0.00010   0.00009   1.63341
    Y2       -1.21897  -0.00002   0.00000   0.00003   0.00002  -1.21895
    Z2       -0.00000   0.00000   0.00000  -0.00000   0.00000  -0.00000
    X3       -0.88985  -0.00009   0.00000  -0.00017  -0.00017  -0.89002
    Y3       -0.45137  -0.00004   0.00000  -0.00007  -0.00007  -0.45144
    Z3        0.00000  -0.00000   0.00000   0.00000  -0.00000   0.00000
         Item               Value     Threshold  Converged?
 Maximum Force            0.000092     0.000450     YES
 RMS     Force            0.000046     0.000300     YES
 Maximum Displacement     0.000175     0.001800     YES
 RMS     Displacement     0.000078     0.001200     YES
 Predicted change in Energy=-1.489530D-08
 Optimization completed.
    -- Stationary point found.
 GradGradGradGradGradGradGradGradGradGradGradGradGradGradGradGradGradGrad

 Leave Link  103 at Thu Mar  7 08:15:00 2019, MaxMem=    33554432 cpu:         0.5
 (Enter /home/proyectos/fulerenos/M3C-v2.0/M3C-deps_CCC/g09-AM64L-G09RevC.01/l9999.exe)

 Test job not archived.
 1\1\GINC-BERQUELIO\Freq\UB3LYP\6-311++G(3df,2p)\C2O1(1-,4)\NAGUIRRE\07
 -Mar-2019\0\\#p b3lyp/6-311++G(3df,2p) freq IOp(2/17=3) IOp(2/18=3)\\b
 3lyp opt\\-1,4\C,0.169483,1.001179,0.\C,0.864313433,-0.6450531174,0.\O
 ,-0.4708859623,-0.2388542731,0.\\Version=EM64L-G09RevE.01\State=4-B2\H
 F=-151.2132619\S2=3.764967\S2-1=0.\S2A=3.750082\RMSD=5.175e-09\RMSF=4.
 619e-05\ZeroPoint=0.0046797\Thermal=0.0080552\Dipole=-0.9005389,-0.380
 0933,0.\DipoleDeriv=-0.1319545,0.3149812,0.,0.3733576,-0.1078136,0.,0.
 ,0.,-0.5412992,0.224485,0.0263308,0.,-0.0320456,-0.4642532,0.,0.,0.,-0
 .5412992,-1.0925305,-0.341312,0.,-0.341312,-0.4279333,0.,0.,0.,0.08259
 85\Polar=37.7640536,-10.5755643,58.3566245,0.,0.,48.7662093\PG=C02V [C
 2(O1),SGV(C2)]\NImag=0\\0.04370811,0.05915885,0.19372753,0.,0.,-0.0000
 8595,0.03627603,0.10938866,0.,0.17986249,0.00110670,-0.07130137,0.,-0.
 07339997,0.05757316,0.,0.,-0.00005884,0.,0.,-0.00008595,-0.07998415,-0
 .16854750,0.,-0.21613852,0.07229327,0.,0.29612267,-0.06026555,-0.12242
 617,0.,-0.03598868,0.01372821,0.,0.09625423,0.10869796,0.,0.,0.0001447
 8,0.,0.,0.00014478,0.,0.,-0.00028955\\-0.00002835,-0.00006153,0.,-0.00
 006387,0.00002261,0.,0.00009222,0.00003892,0.\\\@


 GOOD SENSE ABOUT TRIVIALITIES IS BETTER THAN NONSENSE
 ABOUT THINGS THAT MATTER

                                       -- MAX BEERBOHM
 Job cpu time:       0 days  0 hours  3 minutes 36.3 seconds.
 File lengths (MBytes):  RWF=     12 Int=      0 D2E=      0 Chk=      2 Scr=      1
 Normal termination of Gaussian 09 at Thu Mar  7 08:15:01 2019.
