 Entering Gaussian System, Link 0=/home/proyectos/fulerenos/M3C-v2.0/M3C-deps_CCC/g09-AM64L-G09RevC.01/g09
 Initial command:
 /home/proyectos/fulerenos/M3C-v2.0/M3C-deps_CCC/g09-AM64L-G09RevC.01/l1.exe "/scratch/naguirre/gaussian/Gau-26017.inp" -scrdir="/scratch/naguirre/gaussian/"
 Entering Link 1 = /home/proyectos/fulerenos/M3C-v2.0/M3C-deps_CCC/g09-AM64L-G09RevC.01/l1.exe PID=     26020.
  
 Copyright (c) 1988,1990,1992,1993,1995,1998,2003,2009,2015,
            Gaussian, Inc.  All Rights Reserved.
  
 This is part of the Gaussian(R) 09 program.  It is based on
 the Gaussian(R) 03 system (copyright 2003, Gaussian, Inc.),
 the Gaussian(R) 98 system (copyright 1998, Gaussian, Inc.),
 the Gaussian(R) 94 system (copyright 1995, Gaussian, Inc.),
 the Gaussian 92(TM) system (copyright 1992, Gaussian, Inc.),
 the Gaussian 90(TM) system (copyright 1990, Gaussian, Inc.),
 the Gaussian 88(TM) system (copyright 1988, Gaussian, Inc.),
 the Gaussian 86(TM) system (copyright 1986, Carnegie Mellon
 University), and the Gaussian 82(TM) system (copyright 1983,
 Carnegie Mellon University). Gaussian is a federally registered
 trademark of Gaussian, Inc.
  
 This software contains proprietary and confidential information,
 including trade secrets, belonging to Gaussian, Inc.
  
 This software is provided under written license and may be
 used, copied, transmitted, or stored only in accord with that
 written license.
  
 The following legend is applicable only to US Government
 contracts under FAR:
  
                    RESTRICTED RIGHTS LEGEND
  
 Use, reproduction and disclosure by the US Government is
 subject to restrictions as set forth in subparagraphs (a)
 and (c) of the Commercial Computer Software - Restricted
 Rights clause in FAR 52.227-19.
  
 Gaussian, Inc.
 340 Quinnipiac St., Bldg. 40, Wallingford CT 06492
  
  
 ---------------------------------------------------------------
 Warning -- This program may not be used in any manner that
 competes with the business of Gaussian, Inc. or will provide
 assistance to any competitor of Gaussian, Inc.  The licensee
 of this program is prohibited from giving any competitor of
 Gaussian, Inc. access to this program.  By using this program,
 the user acknowledges that Gaussian, Inc. is engaged in the
 business of creating and licensing software in the field of
 computational chemistry and represents and warrants to the
 licensee that it is not a competitor of Gaussian, Inc. and that
 it will not use this program in any manner prohibited above.
 ---------------------------------------------------------------
  

 Cite this work as:
 Gaussian 09, Revision E.01,
 M. J. Frisch, G. W. Trucks, H. B. Schlegel, G. E. Scuseria, 
 M. A. Robb, J. R. Cheeseman, G. Scalmani, V. Barone, B. Mennucci, 
 G. A. Petersson, H. Nakatsuji, M. Caricato, X. Li, H. P. Hratchian, 
 A. F. Izmaylov, J. Bloino, G. Zheng, J. L. Sonnenberg, M. Hada, 
 M. Ehara, K. Toyota, R. Fukuda, J. Hasegawa, M. Ishida, T. Nakajima, 
 Y. Honda, O. Kitao, H. Nakai, T. Vreven, J. A. Montgomery, Jr., 
 J. E. Peralta, F. Ogliaro, M. Bearpark, J. J. Heyd, E. Brothers, 
 K. N. Kudin, V. N. Staroverov, T. Keith, R. Kobayashi, J. Normand, 
 K. Raghavachari, A. Rendell, J. C. Burant, S. S. Iyengar, J. Tomasi, 
 M. Cossi, N. Rega, J. M. Millam, M. Klene, J. E. Knox, J. B. Cross, 
 V. Bakken, C. Adamo, J. Jaramillo, R. Gomperts, R. E. Stratmann, 
 O. Yazyev, A. J. Austin, R. Cammi, C. Pomelli, J. W. Ochterski, 
 R. L. Martin, K. Morokuma, V. G. Zakrzewski, G. A. Voth, 
 P. Salvador, J. J. Dannenberg, S. Dapprich, A. D. Daniels, 
 O. Farkas, J. B. Foresman, J. V. Ortiz, J. Cioslowski, 
 and D. J. Fox, Gaussian, Inc., Wallingford CT, 2013.
 
 ******************************************
 Gaussian 09:  EM64L-G09RevE.01 30-Nov-2015
                 7-Mar-2019 
 ******************************************
 %NProcShared=2
 Will use up to    2 processors via shared memory.
 ------------------------------------------------------
 #p b3lyp/6-311++G(3df,2p) freq IOp(2/17=3) IOp(2/18=3)
 ------------------------------------------------------
 1/10=4,30=1,38=1/1,3;
 2/12=2,17=3,18=3,40=1/2;
 3/5=4,6=6,7=1216,11=2,16=1,25=1,30=1,71=2,74=-5,140=1/1,2,3;
 4//1;
 5/5=2,38=5,98=1/2;
 8/6=4,10=90,11=11/1;
 11/6=1,8=1,9=11,15=111,16=1/1,2,10;
 10/6=1/2;
 6/7=2,8=2,9=2,10=2,18=1,28=1/1;
 7/8=1,10=1,25=1/1,2,3,16;
 1/10=4,30=1/3;
 99//99;
 Leave Link    1 at Thu Mar  7 09:55:16 2019, MaxMem=           0 cpu:         0.1
 (Enter /home/proyectos/fulerenos/M3C-v2.0/M3C-deps_CCC/g09-AM64L-G09RevC.01/l101.exe)
 ---------
 b3lyp opt
 ---------
 Symbolic Z-matrix:
 Charge = -1 Multiplicity = 2
 C                     1.08577   0.28791  -0.71175 
 C                    -0.01922   0.23286  -0.23945 
 H                     2.06005   0.31969  -1.12689 
 H                    -1.65152   1.04214   0.34135 
 O                    -1.20991   0.14895   0.27292 
 
 NAtoms=      5 NQM=        5 NQMF=       0 NMMI=      0 NMMIF=      0
                NMic=       0 NMicF=      0.
                    Isotopes and Nuclear Properties:
 (Nuclear quadrupole moments (NQMom) in fm**2, nuclear magnetic moments (NMagM)
  in nuclear magnetons)

  Atom         1           2           3           4           5
 IAtWgt=          12          12           1           1          16
 AtmWgt=  12.0000000  12.0000000   1.0078250   1.0078250  15.9949146
 NucSpn=           0           0           1           1           0
 AtZEff=   0.0000000   0.0000000   0.0000000   0.0000000   0.0000000
 NQMom=    0.0000000   0.0000000   0.0000000   0.0000000   0.0000000
 NMagM=    0.0000000   0.0000000   2.7928460   2.7928460   0.0000000
 AtZNuc=   6.0000000   6.0000000   1.0000000   1.0000000   8.0000000
 Leave Link  101 at Thu Mar  7 09:55:16 2019, MaxMem=    33554432 cpu:         0.3
 (Enter /home/proyectos/fulerenos/M3C-v2.0/M3C-deps_CCC/g09-AM64L-G09RevC.01/l103.exe)

 GradGradGradGradGradGradGradGradGradGradGradGradGradGradGradGradGradGrad
 Berny optimization.
 Initialization pass.
 Trust Radius=3.00D-01 FncErr=1.00D-07 GrdErr=1.00D-07
 Number of steps in this run=      2 maximum allowed number of steps=      2.
 GradGradGradGradGradGradGradGradGradGradGradGradGradGradGradGradGradGrad

 Leave Link  103 at Thu Mar  7 09:55:16 2019, MaxMem=    33554432 cpu:         0.1
 (Enter /home/proyectos/fulerenos/M3C-v2.0/M3C-deps_CCC/g09-AM64L-G09RevC.01/l202.exe)
                          Input orientation:                          
 ---------------------------------------------------------------------
 Center     Atomic      Atomic             Coordinates (Angstroms)
 Number     Number       Type             X           Y           Z
 ---------------------------------------------------------------------
      1          6           0        1.085772    0.287912   -0.711745
      2          6           0       -0.019218    0.232859   -0.239446
      3          1           0        2.060049    0.319690   -1.126885
      4          1           0       -1.651518    1.042144    0.341347
      5          8           0       -1.209908    0.148948    0.272923
 ---------------------------------------------------------------------
                    Distance matrix (angstroms):
                    1          2          3          4          5
     1  C    0.000000
     2  C    1.202955   0.000000
     3  H    1.059512   2.262397   0.000000
     4  H    3.028304   1.912241   4.056276   0.000000
     5  O    2.501805   1.298963   3.561072   0.998749   0.000000
 Stoichiometry    C2H2O(1-,2)
 Framework group  CS[SG(C2H2O)]
 Deg. of freedom     7
 Full point group                 CS      NOp   2
 Largest Abelian subgroup         CS      NOp   2
 Largest concise Abelian subgroup C1      NOp   1
                         Standard orientation:                         
 ---------------------------------------------------------------------
 Center     Atomic      Atomic             Coordinates (Angstroms)
 Number     Number       Type             X           Y           Z
 ---------------------------------------------------------------------
      1          6           0        0.608734   -1.172951    0.000000
      2          6           0        0.029797   -0.118469    0.000000
      3          1           0        1.103898   -2.109636    0.000000
      4          1           0       -0.000000    1.793540   -0.000000
      5          8           0       -0.616886    1.008077   -0.000000
 ---------------------------------------------------------------------
 Rotational constants (GHZ):    638.9118319      9.7921684      9.6443559
 Leave Link  202 at Thu Mar  7 09:55:16 2019, MaxMem=    33554432 cpu:         0.0
 (Enter /home/proyectos/fulerenos/M3C-v2.0/M3C-deps_CCC/g09-AM64L-G09RevC.01/l301.exe)
 Standard basis: 6-311++G(3df,2p) (5D, 7F)
 Ernie: Thresh=  0.10000D-02 Tol=  0.10000D-05 Strict=F.
 There are   109 symmetry adapted cartesian basis functions of A'  symmetry.
 There are    46 symmetry adapted cartesian basis functions of A"  symmetry.
 There are    94 symmetry adapted basis functions of A'  symmetry.
 There are    43 symmetry adapted basis functions of A"  symmetry.
   137 basis functions,   198 primitive gaussians,   155 cartesian basis functions
    12 alpha electrons       11 beta electrons
       nuclear repulsion energy        58.2106004786 Hartrees.
 IExCor=  402 DFT=T Ex+Corr=B3LYP ExCW=0 ScaHFX=  0.200000
 ScaDFX=  0.800000  0.720000  1.000000  0.810000 ScalE2=  1.000000  1.000000
 IRadAn=      0 IRanWt=     -1 IRanGd=            0 ICorTp=0 IEmpDi=  4
 NAtoms=    5 NActive=    5 NUniq=    5 SFac= 1.00D+00 NAtFMM=   60 NAOKFM=F Big=F
 Integral buffers will be    131072 words long.
 Raffenetti 2 integral format.
 Two-electron integral symmetry is turned on.
 Leave Link  301 at Thu Mar  7 09:55:17 2019, MaxMem=    33554432 cpu:         0.3
 (Enter /home/proyectos/fulerenos/M3C-v2.0/M3C-deps_CCC/g09-AM64L-G09RevC.01/l302.exe)
 NPDir=0 NMtPBC=     1 NCelOv=     1 NCel=       1 NClECP=     1 NCelD=      1
         NCelK=      1 NCelE2=     1 NClLst=     1 CellRange=     0.0.
 One-electron integrals computed using PRISM.
 NBasis=   137 RedAO= T EigKep=  1.65D-05  NBF=    94    43
 NBsUse=   137 1.00D-06 EigRej= -1.00D+00 NBFU=    94    43
 Precomputing XC quadrature grid using
 IXCGrd= 4 IRadAn=           0 IRanWt=          -1 IRanGd=           0 AccXCQ= 0.00D+00.
 Generated NRdTot=       0 NPtTot=           0 NUsed=           0 NTot=          32
 NSgBfM=   155   155   155   155   155 MxSgAt=     5 MxSgA2=     5.
 Leave Link  302 at Thu Mar  7 09:55:17 2019, MaxMem=    33554432 cpu:         0.6
 (Enter /home/proyectos/fulerenos/M3C-v2.0/M3C-deps_CCC/g09-AM64L-G09RevC.01/l303.exe)
 DipDrv:  MaxL=1.
 Leave Link  303 at Thu Mar  7 09:55:17 2019, MaxMem=    33554432 cpu:         0.2
 (Enter /home/proyectos/fulerenos/M3C-v2.0/M3C-deps_CCC/g09-AM64L-G09RevC.01/l401.exe)
 ExpMin= 3.60D-02 ExpMax= 8.59D+03 ExpMxC= 1.30D+03 IAcc=3 IRadAn=         5 AccDes= 0.00D+00
 Harris functional with IExCor=  402 and IRadAn=       5 diagonalized for initial guess.
 HarFok:  IExCor=  402 AccDes= 0.00D+00 IRadAn=         5 IDoV= 1 UseB2=F ITyADJ=14
 ICtDFT=  3500011 ScaDFX=  1.000000  1.000000  1.000000  1.000000
 FoFCou: FMM=F IPFlag=           0 FMFlag=      100000 FMFlg1=           0
         NFxFlg=           0 DoJE=T BraDBF=F KetDBF=T FulRan=T
         wScrn=  0.000000 ICntrl=     500 IOpCl=  0 I1Cent=   200000004 NGrid=           0
         NMat0=    1 NMatS0=      1 NMatT0=    0 NMatD0=    1 NMtDS0=    0 NMtDT0=    0
 Petite list used in FoFCou.
 Harris En= -152.736152998717    
 JPrj=0 DoOrth=F DoCkMO=F.
 Initial guess orbital symmetries:
 Alpha Orbitals:
       Occupied  (A') (A') (A') (A') (A') (A') (A') (A') (A") (A')
                 (A") (A')
       Virtual   (A') (A") (A') (A') (A') (A") (A') (A') (A") (A')
                 (A') (A') (A') (A') (A') (A") (A") (A') (A') (A')
                 (A') (A') (A") (A") (A') (A") (A') (A') (A') (A')
                 (A') (A") (A') (A") (A') (A") (A') (A') (A') (A")
                 (A') (A') (A') (A") (A") (A') (A') (A') (A') (A")
                 (A") (A') (A') (A') (A") (A') (A') (A") (A') (A')
                 (A") (A') (A') (A') (A") (A') (A") (A') (A") (A')
                 (A') (A") (A') (A') (A") (A') (A") (A') (A') (A")
                 (A') (A") (A') (A') (A') (A") (A') (A") (A') (A')
                 (A") (A') (A') (A') (A") (A") (A') (A') (A") (A')
                 (A") (A') (A') (A") (A') (A') (A") (A') (A") (A')
                 (A') (A") (A') (A") (A') (A') (A') (A") (A') (A")
                 (A') (A') (A') (A') (A')
 Beta  Orbitals:
       Occupied  (A') (A') (A') (A') (A') (A') (A') (A') (A") (A')
                 (A")
       Virtual   (A') (A') (A") (A') (A') (A') (A") (A') (A') (A")
                 (A') (A') (A') (A') (A') (A') (A") (A") (A') (A')
                 (A') (A') (A') (A") (A") (A') (A") (A') (A') (A')
                 (A') (A') (A") (A') (A") (A') (A") (A') (A') (A')
                 (A") (A') (A') (A') (A") (A") (A') (A') (A') (A')
                 (A") (A") (A') (A') (A') (A") (A') (A') (A") (A')
                 (A') (A") (A') (A') (A') (A") (A') (A") (A') (A")
                 (A') (A') (A") (A') (A') (A") (A') (A") (A') (A')
                 (A") (A') (A") (A') (A') (A') (A") (A') (A") (A')
                 (A') (A") (A') (A') (A') (A") (A") (A') (A') (A")
                 (A') (A") (A') (A') (A") (A') (A') (A") (A') (A")
                 (A') (A') (A") (A') (A") (A') (A') (A') (A") (A')
                 (A") (A') (A') (A') (A') (A')
 The electronic state of the initial guess is 2-A'.
 Initial guess <Sx>= 0.0000 <Sy>= 0.0000 <Sz>= 0.5000 <S**2>= 0.7500 S= 0.5000
 Leave Link  401 at Thu Mar  7 09:55:18 2019, MaxMem=    33554432 cpu:         2.2
 (Enter /home/proyectos/fulerenos/M3C-v2.0/M3C-deps_CCC/g09-AM64L-G09RevC.01/l502.exe)
 UHF open shell SCF:
 Using DIIS extrapolation, IDIIS=  1040.
 Integral symmetry usage will be decided dynamically.
 IVT=       92714 IEndB=       92714 NGot=    33554432 MDV=    33502539
 LenX=    33502539 LenY=    33478073
 Requested convergence on RMS density matrix=1.00D-08 within 128 cycles.
 Requested convergence on MAX density matrix=1.00D-06.
 Requested convergence on             energy=1.00D-06.
 No special actions if energy rises.
 Fock matrices will be formed incrementally for  20 cycles.

 Cycle   1  Pass 1  IDiag  1:
 FoFJK:  IHMeth= 1 ICntrl=       0 DoSepK=F KAlg= 0 I1Cent=   0 FoldK=F
 IRaf= 990000000 NMat=   1 IRICut=       1 DoRegI=T DoRafI=F ISym2E= 1.
 FoFCou: FMM=F IPFlag=           0 FMFlag=      100000 FMFlg1=           0
         NFxFlg=           0 DoJE=F BraDBF=F KetDBF=F FulRan=T
         wScrn=  0.000000 ICntrl=       0 IOpCl=  1 I1Cent=           0 NGrid=           0
         NMat0=    1 NMatS0=      1 NMatT0=    0 NMatD0=    1 NMtDS0=    0 NMtDT0=    0
 Petite list used in FoFCou.
 E= -152.270034220215    
 DIIS: error= 4.90D-02 at cycle   1 NSaved=   1.
 NSaved= 1 IEnMin= 1 EnMin= -152.270034220215     IErMin= 1 ErrMin= 4.90D-02
 ErrMax= 4.90D-02  0.00D+00 EMaxC= 1.00D-01 BMatC= 9.63D-01 BMatP= 9.63D-01
 IDIUse=3 WtCom= 5.10D-01 WtEn= 4.90D-01
 Coeff-Com:  0.100D+01
 Coeff-En:   0.100D+01
 Coeff:      0.100D+01
 Gap=    -0.043 Goal=   None    Shift=    0.000
 Gap=     0.198 Goal=   None    Shift=    0.000
 GapD=   -0.043 DampG=0.250 DampE=0.500 DampFc=0.2500 IDamp=-1.
 Damping current iteration by 2.50D-01
 RMSDP=1.94D+01 MaxDP=1.51D+03              OVMax= 9.97D-01

 Cycle   2  Pass 1  IDiag  1:
 RMSU=  4.82D+00    CP:  3.00D+00
 E= -152.283565049744     Delta-E=       -0.013530829529 Rises=F Damp=T
 DIIS: error= 1.59D-02 at cycle   2 NSaved=   2.
 NSaved= 2 IEnMin= 2 EnMin= -152.283565049744     IErMin= 2 ErrMin= 1.59D-02
 ErrMax= 1.59D-02  0.00D+00 EMaxC= 1.00D-01 BMatC= 9.38D-02 BMatP= 9.63D-01
 IDIUse=3 WtCom= 8.41D-01 WtEn= 1.59D-01
 Coeff-Com: -0.226D+00 0.123D+01
 Coeff-En:   0.466D+00 0.534D+00
 Coeff:     -0.116D+00 0.112D+01
 Gap=     0.168 Goal=   None    Shift=    0.000
 Gap=    -0.002 Goal=   None    Shift=    0.000
 RMSDP=4.85D+00 MaxDP=3.75D+02 DE=-1.35D-02 OVMax= 9.83D-01

 Cycle   3  Pass 1  IDiag  1:
 RMSU=  5.89D-02    CP:  5.57D-01  2.54D-03
 E= -152.517702192612     Delta-E=       -0.234137142868 Rises=F Damp=F
 DIIS: error= 2.11D-02 at cycle   3 NSaved=   3.
 NSaved= 3 IEnMin= 3 EnMin= -152.517702192612     IErMin= 2 ErrMin= 1.59D-02
 ErrMax= 2.11D-02  0.00D+00 EMaxC= 1.00D-01 BMatC= 1.58D-01 BMatP= 9.38D-02
 IDIUse=2 WtCom= 0.00D+00 WtEn= 1.00D+00
 Coeff-En:   0.000D+00 0.000D+00 0.100D+01
 Coeff:      0.000D+00 0.000D+00 0.100D+01
 Gap=    -0.002 Goal=   None    Shift=    0.000
 Gap=     0.117 Goal=   None    Shift=    0.000
 RMSDP=2.05D-01 MaxDP=2.18D+01 DE=-2.34D-01 OVMax= 5.35D-01

 Cycle   4  Pass 1  IDiag  1:
 RMSU=  1.13D-01    CP:  1.08D+00  1.86D-02  3.00D+00
 E= -152.458360931454     Delta-E=        0.059341261158 Rises=F Damp=F
 DIIS: error= 4.28D-02 at cycle   4 NSaved=   4.
 NSaved= 4 IEnMin= 3 EnMin= -152.517702192612     IErMin= 2 ErrMin= 1.59D-02
 ErrMax= 4.28D-02  0.00D+00 EMaxC= 1.00D-01 BMatC= 4.68D-01 BMatP= 9.38D-02
 IDIUse=2 WtCom= 0.00D+00 WtEn= 1.00D+00
 Coeff-En:   0.000D+00 0.000D+00 0.643D+00 0.357D+00
 Coeff:      0.000D+00 0.000D+00 0.643D+00 0.357D+00
 Gap=     0.031 Goal=   None    Shift=    0.000
 Gap=     0.174 Goal=   None    Shift=    0.000
 RMSDP=5.97D-02 MaxDP=6.33D+00 DE= 5.93D-02 OVMax= 1.34D-01

 Cycle   5  Pass 1  IDiag  1:
 RMSU=  2.69D-02    CP:  9.30D-01  1.43D-02  2.90D+00  6.17D-01
 E= -152.585089033447     Delta-E=       -0.126728101993 Rises=F Damp=F
 DIIS: error= 5.18D-03 at cycle   5 NSaved=   5.
 NSaved= 5 IEnMin= 5 EnMin= -152.585089033447     IErMin= 5 ErrMin= 5.18D-03
 ErrMax= 5.18D-03  0.00D+00 EMaxC= 1.00D-01 BMatC= 1.02D-02 BMatP= 9.38D-02
 IDIUse=3 WtCom= 9.48D-01 WtEn= 5.18D-02
 Coeff-Com:  0.611D-02 0.740D-01 0.255D+00 0.117D+00 0.549D+00
 Coeff-En:   0.000D+00 0.000D+00 0.000D+00 0.000D+00 0.100D+01
 Coeff:      0.580D-02 0.701D-01 0.241D+00 0.110D+00 0.572D+00
 Gap=     0.024 Goal=   None    Shift=    0.000
 Gap=     0.195 Goal=   None    Shift=    0.000
 RMSDP=2.82D-01 MaxDP=3.23D+01 DE=-1.27D-01 OVMax= 1.33D-01

 Cycle   6  Pass 1  IDiag  1:
 RMSU=  1.34D-01    CP:  3.00D+00  4.66D-02  3.00D+00  2.12D+00 -5.08D-01
 E= -152.587338361534     Delta-E=       -0.002249328087 Rises=F Damp=F
 DIIS: error= 4.47D-03 at cycle   6 NSaved=   6.
 NSaved= 6 IEnMin= 6 EnMin= -152.587338361534     IErMin= 6 ErrMin= 4.47D-03
 ErrMax= 4.47D-03  0.00D+00 EMaxC= 1.00D-01 BMatC= 7.28D-03 BMatP= 1.02D-02
 IDIUse=3 WtCom= 9.55D-01 WtEn= 4.47D-02
 Coeff-Com:  0.209D-01-0.988D-02-0.135D-01-0.371D-01 0.517D+00 0.523D+00
 Coeff-En:   0.000D+00 0.000D+00 0.000D+00 0.000D+00 0.291D+00 0.709D+00
 Coeff:      0.200D-01-0.944D-02-0.129D-01-0.355D-01 0.506D+00 0.531D+00
 Gap=     0.027 Goal=   None    Shift=    0.000
 Gap=     0.199 Goal=   None    Shift=    0.000
 RMSDP=5.45D-02 MaxDP=6.11D+00 DE=-2.25D-03 OVMax= 4.70D-02

 Cycle   7  Pass 1  IDiag  1:
 RMSU=  1.57D-02    CP:  3.00D+00  5.41D-02  3.00D+00  2.38D+00 -7.20D-01
                    CP:  1.17D+00
 E= -152.589461915745     Delta-E=       -0.002123554211 Rises=F Damp=F
 DIIS: error= 7.61D-04 at cycle   7 NSaved=   7.
 NSaved= 7 IEnMin= 7 EnMin= -152.589461915745     IErMin= 7 ErrMin= 7.61D-04
 ErrMax= 7.61D-04  0.00D+00 EMaxC= 1.00D-01 BMatC= 3.13D-04 BMatP= 7.28D-03
 IDIUse=3 WtCom= 9.92D-01 WtEn= 7.61D-03
 Coeff-Com: -0.120D-01 0.310D-01 0.104D-02-0.231D-01 0.833D-01 0.163D+00
 Coeff-Com:  0.756D+00
 Coeff-En:   0.000D+00 0.000D+00 0.000D+00 0.000D+00 0.000D+00 0.000D+00
 Coeff-En:   0.100D+01
 Coeff:     -0.119D-01 0.308D-01 0.104D-02-0.229D-01 0.826D-01 0.162D+00
 Coeff:      0.758D+00
 Gap=     0.028 Goal=   None    Shift=    0.000
 Gap=     0.203 Goal=   None    Shift=    0.000
 RMSDP=1.61D-02 MaxDP=1.59D+00 DE=-2.12D-03 OVMax= 1.65D-02

 Cycle   8  Pass 1  IDiag  1:
 RMSU=  2.78D-03    CP:  3.00D+00  5.63D-02  3.00D+00  2.44D+00 -7.56D-01
                    CP:  1.23D+00  1.38D+00
 E= -152.589579889155     Delta-E=       -0.000117973409 Rises=F Damp=F
 DIIS: error= 5.09D-04 at cycle   8 NSaved=   8.
 NSaved= 8 IEnMin= 8 EnMin= -152.589579889155     IErMin= 8 ErrMin= 5.09D-04
 ErrMax= 5.09D-04  0.00D+00 EMaxC= 1.00D-01 BMatC= 9.53D-05 BMatP= 3.13D-04
 IDIUse=3 WtCom= 9.95D-01 WtEn= 5.09D-03
 Coeff-Com: -0.110D-01 0.153D-01-0.684D-03 0.363D-03-0.231D-01 0.836D-02
 Coeff-Com:  0.154D+00 0.857D+00
 Coeff-En:   0.000D+00 0.000D+00 0.000D+00 0.000D+00 0.000D+00 0.000D+00
 Coeff-En:   0.000D+00 0.100D+01
 Coeff:     -0.110D-01 0.153D-01-0.681D-03 0.361D-03-0.229D-01 0.832D-02
 Coeff:      0.153D+00 0.858D+00
 Gap=     0.028 Goal=   None    Shift=    0.000
 Gap=     0.202 Goal=   None    Shift=    0.000
 RMSDP=6.68D-02 MaxDP=7.56D+00 DE=-1.18D-04 OVMax= 2.86D-02

 Cycle   9  Pass 1  IDiag  1:
 RMSU=  3.82D-03    CP:  3.00D+00  6.55D-02  3.00D+00  2.76D+00 -1.13D+00
                    CP:  1.43D+00  2.47D+00  4.20D-01
 E= -152.589642143127     Delta-E=       -0.000062253973 Rises=F Damp=F
 DIIS: error= 3.37D-04 at cycle   9 NSaved=   9.
 NSaved= 9 IEnMin= 9 EnMin= -152.589642143127     IErMin= 9 ErrMin= 3.37D-04
 ErrMax= 3.37D-04  0.00D+00 EMaxC= 1.00D-01 BMatC= 3.33D-05 BMatP= 9.53D-05
 IDIUse=3 WtCom= 9.97D-01 WtEn= 3.37D-03
 Coeff-Com: -0.669D-03-0.145D-03-0.306D-02 0.670D-02 0.572D-02-0.414D-01
 Coeff-Com: -0.149D+00 0.185D+00 0.997D+00
 Coeff-En:   0.000D+00 0.000D+00 0.000D+00 0.000D+00 0.000D+00 0.000D+00
 Coeff-En:   0.000D+00 0.000D+00 0.100D+01
 Coeff:     -0.666D-03-0.144D-03-0.305D-02 0.667D-02 0.570D-02-0.413D-01
 Coeff:     -0.149D+00 0.185D+00 0.997D+00
 Gap=     0.028 Goal=   None    Shift=    0.000
 Gap=     0.202 Goal=   None    Shift=    0.000
 RMSDP=4.24D-03 MaxDP=2.58D-01 DE=-6.23D-05 OVMax= 8.48D-03

 Cycle  10  Pass 1  IDiag  1:
 RMSU=  1.26D-03    CP:  3.00D+00  6.55D-02  3.00D+00  2.78D+00 -1.21D+00
                    CP:  1.43D+00  2.54D+00  1.39D+00  8.24D-01
 E= -152.589662163722     Delta-E=       -0.000020020594 Rises=F Damp=F
 DIIS: error= 4.61D-05 at cycle  10 NSaved=  10.
 NSaved=10 IEnMin=10 EnMin= -152.589662163722     IErMin=10 ErrMin= 4.61D-05
 ErrMax= 4.61D-05  0.00D+00 EMaxC= 1.00D-01 BMatC= 1.05D-06 BMatP= 3.33D-05
 IDIUse=1 WtCom= 1.00D+00 WtEn= 0.00D+00
 Coeff-Com:  0.123D-02-0.141D-02-0.142D-02 0.161D-02 0.241D-02-0.906D-02
 Coeff-Com: -0.436D-01-0.296D-01 0.177D+00 0.903D+00
 Coeff:      0.123D-02-0.141D-02-0.142D-02 0.161D-02 0.241D-02-0.906D-02
 Coeff:     -0.436D-01-0.296D-01 0.177D+00 0.903D+00
 Gap=     0.028 Goal=   None    Shift=    0.000
 Gap=     0.202 Goal=   None    Shift=    0.000
 RMSDP=6.46D-03 MaxDP=7.17D-01 DE=-2.00D-05 OVMax= 3.49D-03

 Cycle  11  Pass 1  IDiag  1:
 RMSU=  1.27D-04    CP:  3.00D+00  6.64D-02  3.00D+00  2.81D+00 -1.27D+00
                    CP:  1.45D+00  2.65D+00  1.53D+00  9.21D-01  1.34D+00
 E= -152.589663106166     Delta-E=       -0.000000942444 Rises=F Damp=F
 DIIS: error= 3.00D-05 at cycle  11 NSaved=  11.
 NSaved=11 IEnMin=11 EnMin= -152.589663106166     IErMin=11 ErrMin= 3.00D-05
 ErrMax= 3.00D-05  0.00D+00 EMaxC= 1.00D-01 BMatC= 2.11D-07 BMatP= 1.05D-06
 IDIUse=1 WtCom= 1.00D+00 WtEn= 0.00D+00
 Coeff-Com: -0.192D-03 0.129D-03 0.755D-03-0.471D-03-0.412D-02 0.275D-02
 Coeff-Com:  0.146D-01 0.365D-01-0.125D+00-0.164D+00 0.124D+01
 Coeff:     -0.192D-03 0.129D-03 0.755D-03-0.471D-03-0.412D-02 0.275D-02
 Coeff:      0.146D-01 0.365D-01-0.125D+00-0.164D+00 0.124D+01
 Gap=     0.028 Goal=   None    Shift=    0.000
 Gap=     0.203 Goal=   None    Shift=    0.000
 RMSDP=9.99D-04 MaxDP=8.74D-02 DE=-9.42D-07 OVMax= 5.66D-04

 Cycle  12  Pass 1  IDiag  1:
 RMSU=  7.81D-05    CP:  3.00D+00  6.62D-02  3.00D+00  2.81D+00 -1.29D+00
                    CP:  1.45D+00  2.64D+00  1.69D+00  9.09D-01  1.59D+00
                    CP:  1.48D+00
 E= -152.589663271011     Delta-E=       -0.000000164845 Rises=F Damp=F
 DIIS: error= 9.53D-06 at cycle  12 NSaved=  12.
 NSaved=12 IEnMin=12 EnMin= -152.589663271011     IErMin=12 ErrMin= 9.53D-06
 ErrMax= 9.53D-06  0.00D+00 EMaxC= 1.00D-01 BMatC= 1.82D-08 BMatP= 2.11D-07
 IDIUse=1 WtCom= 1.00D+00 WtEn= 0.00D+00
 Coeff-Com: -0.630D-04 0.245D-04 0.146D-03-0.117D-03 0.177D-03 0.773D-04
 Coeff-Com: -0.736D-04-0.168D-02-0.123D-01-0.658D-01-0.782D-02 0.109D+01
 Coeff:     -0.630D-04 0.245D-04 0.146D-03-0.117D-03 0.177D-03 0.773D-04
 Coeff:     -0.736D-04-0.168D-02-0.123D-01-0.658D-01-0.782D-02 0.109D+01
 Gap=     0.028 Goal=   None    Shift=    0.000
 Gap=     0.203 Goal=   None    Shift=    0.000
 RMSDP=3.83D-04 MaxDP=3.71D-02 DE=-1.65D-07 OVMax= 1.94D-04

 Cycle  13  Pass 1  IDiag  1:
 RMSU=  1.16D-05    CP:  3.00D+00  6.62D-02  3.00D+00  2.81D+00 -1.29D+00
                    CP:  1.45D+00  2.64D+00  1.74D+00  8.98D-01  1.65D+00
                    CP:  1.47D+00  1.29D+00
 E= -152.589663291482     Delta-E=       -0.000000020471 Rises=F Damp=F
 DIIS: error= 4.97D-06 at cycle  13 NSaved=  13.
 NSaved=13 IEnMin=13 EnMin= -152.589663291482     IErMin=13 ErrMin= 4.97D-06
 ErrMax= 4.97D-06  0.00D+00 EMaxC= 1.00D-01 BMatC= 3.87D-09 BMatP= 1.82D-08
 IDIUse=1 WtCom= 1.00D+00 WtEn= 0.00D+00
 Coeff-Com:  0.518D-05 0.167D-04-0.720D-04 0.747D-04 0.602D-03-0.109D-03
 Coeff-Com: -0.117D-02-0.691D-02 0.217D-01 0.198D-01-0.176D+00-0.116D-01
 Coeff-Com:  0.115D+01
 Coeff:      0.518D-05 0.167D-04-0.720D-04 0.747D-04 0.602D-03-0.109D-03
 Coeff:     -0.117D-02-0.691D-02 0.217D-01 0.198D-01-0.176D+00-0.116D-01
 Coeff:      0.115D+01
 Gap=     0.028 Goal=   None    Shift=    0.000
 Gap=     0.203 Goal=   None    Shift=    0.000
 RMSDP=4.05D-05 MaxDP=4.23D-03 DE=-2.05D-08 OVMax= 6.92D-05

 Cycle  14  Pass 1  IDiag  1:
 RMSU=  1.30D-06    CP:  3.00D+00  6.62D-02  3.00D+00  2.81D+00 -1.29D+00
                    CP:  1.45D+00  2.64D+00  1.74D+00  8.98D-01  1.66D+00
                    CP:  1.43D+00  1.42D+00  1.28D+00
 E= -152.589663296412     Delta-E=       -0.000000004931 Rises=F Damp=F
 DIIS: error= 1.35D-06 at cycle  14 NSaved=  14.
 NSaved=14 IEnMin=14 EnMin= -152.589663296412     IErMin=14 ErrMin= 1.35D-06
 ErrMax= 1.35D-06  0.00D+00 EMaxC= 1.00D-01 BMatC= 5.06D-10 BMatP= 3.87D-09
 IDIUse=1 WtCom= 1.00D+00 WtEn= 0.00D+00
 Coeff-Com:  0.131D-04-0.416D-05-0.288D-04 0.147D-04-0.123D-03-0.100D-03
 Coeff-Com:  0.503D-03 0.539D-03 0.107D-03 0.760D-02 0.170D-01-0.230D+00
 Coeff-Com: -0.703D-01 0.127D+01
 Coeff:      0.131D-04-0.416D-05-0.288D-04 0.147D-04-0.123D-03-0.100D-03
 Coeff:      0.503D-03 0.539D-03 0.107D-03 0.760D-02 0.170D-01-0.230D+00
 Coeff:     -0.703D-01 0.127D+01
 Gap=     0.028 Goal=   None    Shift=    0.000
 Gap=     0.203 Goal=   None    Shift=    0.000
 RMSDP=6.88D-05 MaxDP=7.40D-03 DE=-4.93D-09 OVMax= 3.37D-05

 Cycle  15  Pass 1  IDiag  1:
 RMSU=  7.22D-07    CP:  3.00D+00  6.62D-02  3.00D+00  2.81D+00 -1.29D+00
                    CP:  1.44D+00  2.64D+00  1.74D+00  8.96D-01  1.65D+00
                    CP:  1.41D+00  1.41D+00  1.32D+00  1.54D+00
 E= -152.589663297234     Delta-E=       -0.000000000821 Rises=F Damp=F
 DIIS: error= 4.44D-07 at cycle  15 NSaved=  15.
 NSaved=15 IEnMin=15 EnMin= -152.589663297234     IErMin=15 ErrMin= 4.44D-07
 ErrMax= 4.44D-07  0.00D+00 EMaxC= 1.00D-01 BMatC= 3.25D-11 BMatP= 5.06D-10
 IDIUse=1 WtCom= 1.00D+00 WtEn= 0.00D+00
 Coeff-Com: -0.198D-05 0.792D-06 0.660D-05-0.374D-05-0.534D-04 0.284D-04
 Coeff-Com:  0.592D-04 0.341D-03-0.926D-03-0.824D-03 0.881D-02 0.485D-02
 Coeff-Com: -0.690D-01-0.200D-01 0.108D+01
 Coeff:     -0.198D-05 0.792D-06 0.660D-05-0.374D-05-0.534D-04 0.284D-04
 Coeff:      0.592D-04 0.341D-03-0.926D-03-0.824D-03 0.881D-02 0.485D-02
 Coeff:     -0.690D-01-0.200D-01 0.108D+01
 Gap=     0.028 Goal=   None    Shift=    0.000
 Gap=     0.203 Goal=   None    Shift=    0.000
 RMSDP=3.33D-05 MaxDP=3.50D-03 DE=-8.21D-10 OVMax= 8.37D-06

 Cycle  16  Pass 1  IDiag  1:
 RMSU=  2.75D-07    CP:  3.00D+00  6.62D-02  3.00D+00  2.81D+00 -1.29D+00
                    CP:  1.45D+00  2.64D+00  1.73D+00  8.97D-01  1.65D+00
                    CP:  1.42D+00  1.38D+00  1.24D+00  1.55D+00  1.14D+00
 E= -152.589663297264     Delta-E=       -0.000000000030 Rises=F Damp=F
 DIIS: error= 7.96D-08 at cycle  16 NSaved=  16.
 NSaved=16 IEnMin=16 EnMin= -152.589663297264     IErMin=16 ErrMin= 7.96D-08
 ErrMax= 7.96D-08  0.00D+00 EMaxC= 1.00D-01 BMatC= 1.16D-12 BMatP= 3.25D-11
 IDIUse=1 WtCom= 1.00D+00 WtEn= 0.00D+00
 Coeff-Com: -0.693D-06 0.812D-06 0.109D-05 0.183D-06 0.109D-04-0.205D-05
 Coeff-Com: -0.221D-04-0.697D-04 0.912D-04-0.662D-04-0.198D-02 0.102D-01
 Coeff-Com:  0.115D-01-0.640D-01-0.161D+00 0.121D+01
 Coeff:     -0.693D-06 0.812D-06 0.109D-05 0.183D-06 0.109D-04-0.205D-05
 Coeff:     -0.221D-04-0.697D-04 0.912D-04-0.662D-04-0.198D-02 0.102D-01
 Coeff:      0.115D-01-0.640D-01-0.161D+00 0.121D+01
 Gap=     0.028 Goal=   None    Shift=    0.000
 Gap=     0.203 Goal=   None    Shift=    0.000
 RMSDP=1.23D-05 MaxDP=1.34D-03 DE=-3.01D-11 OVMax= 2.35D-06

 Cycle  17  Pass 1  IDiag  1:
 RMSU=  4.64D-08    CP:  3.00D+00  6.62D-02  3.00D+00  2.81D+00 -1.29D+00
                    CP:  1.45D+00  2.64D+00  1.73D+00  8.97D-01  1.65D+00
                    CP:  1.42D+00  1.36D+00  1.22D+00  1.49D+00  1.10D+00
                    CP:  1.63D+00
 E= -152.589663297263     Delta-E=        0.000000000001 Rises=F Damp=F
 DIIS: error= 2.53D-08 at cycle  17 NSaved=  17.
 NSaved=17 IEnMin=16 EnMin= -152.589663297264     IErMin=17 ErrMin= 2.53D-08
 ErrMax= 2.53D-08  0.00D+00 EMaxC= 1.00D-01 BMatC= 1.51D-13 BMatP= 1.16D-12
 IDIUse=1 WtCom= 1.00D+00 WtEn= 0.00D+00
 Coeff-Com:  0.237D-06-0.133D-06-0.697D-06 0.314D-06 0.498D-05-0.434D-05
 Coeff-Com: -0.791D-05-0.391D-04 0.752D-04 0.737D-04-0.624D-03-0.393D-03
 Coeff-Com:  0.413D-02 0.311D-02-0.735D-01-0.990D-02 0.108D+01
 Coeff:      0.237D-06-0.133D-06-0.697D-06 0.314D-06 0.498D-05-0.434D-05
 Coeff:     -0.791D-05-0.391D-04 0.752D-04 0.737D-04-0.624D-03-0.393D-03
 Coeff:      0.413D-02 0.311D-02-0.735D-01-0.990D-02 0.108D+01
 Gap=     0.028 Goal=   None    Shift=    0.000
 Gap=     0.203 Goal=   None    Shift=    0.000
 RMSDP=2.32D-06 MaxDP=2.69D-04 DE= 1.08D-12 OVMax= 5.63D-07

 Cycle  18  Pass 1  IDiag  1:
 RMSU=  1.13D-08    CP:  3.00D+00  6.62D-02  3.00D+00  2.81D+00 -1.29D+00
                    CP:  1.45D+00  2.64D+00  1.73D+00  8.98D-01  1.65D+00
                    CP:  1.42D+00  1.36D+00  1.21D+00  1.47D+00  1.08D+00
                    CP:  1.74D+00  1.24D+00
 E= -152.589663297263     Delta-E=       -0.000000000000 Rises=F Damp=F
 DIIS: error= 8.38D-09 at cycle  18 NSaved=  18.
 NSaved=18 IEnMin=16 EnMin= -152.589663297264     IErMin=18 ErrMin= 8.38D-09
 ErrMax= 8.38D-09  0.00D+00 EMaxC= 1.00D-01 BMatC= 1.41D-14 BMatP= 1.51D-13
 IDIUse=1 WtCom= 1.00D+00 WtEn= 0.00D+00
 Coeff-Com:  0.122D-07-0.257D-07-0.221D-07-0.687D-07-0.140D-05 0.145D-05
 Coeff-Com:  0.312D-05 0.959D-05-0.907D-05-0.165D-04 0.209D-03-0.772D-03
 Coeff-Com: -0.108D-02 0.499D-02 0.177D-01-0.983D-01-0.101D+00 0.118D+01
 Coeff:      0.122D-07-0.257D-07-0.221D-07-0.687D-07-0.140D-05 0.145D-05
 Coeff:      0.312D-05 0.959D-05-0.907D-05-0.165D-04 0.209D-03-0.772D-03
 Coeff:     -0.108D-02 0.499D-02 0.177D-01-0.983D-01-0.101D+00 0.118D+01
 Gap=     0.028 Goal=   None    Shift=    0.000
 Gap=     0.203 Goal=   None    Shift=    0.000
 RMSDP=2.26D-07 MaxDP=1.66D-05 DE=-5.68D-14 OVMax= 1.56D-07

 Cycle  19  Pass 1  IDiag  1:
 RMSU=  3.27D-09    CP:  3.00D+00  6.62D-02  3.00D+00  2.81D+00 -1.29D+00
                    CP:  1.45D+00  2.64D+00  1.73D+00  8.98D-01  1.65D+00
                    CP:  1.42D+00  1.36D+00  1.21D+00  1.47D+00  1.08D+00
                    CP:  1.74D+00  1.28D+00  1.53D+00
 E= -152.589663297265     Delta-E=       -0.000000000002 Rises=F Damp=F
 DIIS: error= 3.46D-09 at cycle  19 NSaved=  19.
 NSaved=19 IEnMin=19 EnMin= -152.589663297265     IErMin=19 ErrMin= 3.46D-09
 ErrMax= 3.46D-09  0.00D+00 EMaxC= 1.00D-01 BMatC= 1.51D-15 BMatP= 1.41D-14
 IDIUse=1 WtCom= 1.00D+00 WtEn= 0.00D+00
 Large coefficients: NSaved= 19 BigCof=    0.00 CofMax=   10.00 Det=-2.00D-15
 Inversion failed.  Reducing to 18 matrices.
 Large coefficients: NSaved= 18 BigCof=    0.00 CofMax=   10.00 Det=-2.00D-15
 Inversion failed.  Reducing to 17 matrices.
 Large coefficients: NSaved= 17 BigCof=    0.00 CofMax=   10.00 Det=-2.00D-15
 Inversion failed.  Reducing to 16 matrices.
 Large coefficients: NSaved= 16 BigCof=    0.00 CofMax=   10.00 Det=-2.06D-15
 Inversion failed.  Reducing to 15 matrices.
 Coeff-Com:  0.110D-06-0.631D-07-0.763D-06 0.126D-05-0.386D-06 0.642D-05
 Coeff-Com: -0.434D-04 0.994D-04 0.204D-03-0.952D-03 0.137D-02 0.113D-01
 Coeff-Com: -0.591D-01-0.768D-01 0.112D+01
 Coeff:      0.110D-06-0.631D-07-0.763D-06 0.126D-05-0.386D-06 0.642D-05
 Coeff:     -0.434D-04 0.994D-04 0.204D-03-0.952D-03 0.137D-02 0.113D-01
 Coeff:     -0.591D-01-0.768D-01 0.112D+01
 Gap=     0.028 Goal=   None    Shift=    0.000
 Gap=     0.203 Goal=   None    Shift=    0.000
 RMSDP=4.41D-07 MaxDP=5.02D-05 DE=-1.93D-12 OVMax= 5.48D-08

 Cycle  20  Pass 1  IDiag  1:
 RMSU=  5.63D-10    CP:  3.00D+00  6.62D-02  3.00D+00  2.81D+00 -1.29D+00
                    CP:  1.45D+00  2.64D+00  1.73D+00  8.98D-01  1.65D+00
                    CP:  1.42D+00  1.36D+00  1.21D+00  1.47D+00  1.08D+00
                    CP:  1.73D+00  1.26D+00  1.57D+00  1.21D+00
 E= -152.589663297264     Delta-E=        0.000000000001 Rises=F Damp=F
 DIIS: error= 6.08D-10 at cycle  20 NSaved=  16.
 NSaved=16 IEnMin=15 EnMin= -152.589663297265     IErMin=16 ErrMin= 6.08D-10
 ErrMax= 6.08D-10  0.00D+00 EMaxC= 1.00D-01 BMatC= 8.80D-17 BMatP= 1.51D-15
 IDIUse=1 WtCom= 1.00D+00 WtEn= 0.00D+00
 Large coefficients: NSaved= 16 BigCof=    0.00 CofMax=   10.00 Det=-2.41D-16
 Inversion failed.  Reducing to 15 matrices.
 Coeff-Com: -0.156D-07 0.181D-07 0.658D-07-0.727D-06 0.985D-07 0.852D-05
 Coeff-Com:  0.575D-05-0.324D-05-0.126D-03-0.404D-03 0.351D-02 0.120D-02
 Coeff-Com: -0.681D-01 0.891D-01 0.975D+00
 Coeff:     -0.156D-07 0.181D-07 0.658D-07-0.727D-06 0.985D-07 0.852D-05
 Coeff:      0.575D-05-0.324D-05-0.126D-03-0.404D-03 0.351D-02 0.120D-02
 Coeff:     -0.681D-01 0.891D-01 0.975D+00
 Gap=     0.028 Goal=   None    Shift=    0.000
 Gap=     0.203 Goal=   None    Shift=    0.000
 RMSDP=1.92D-08 MaxDP=1.74D-06 DE= 5.68D-13 OVMax= 2.24D-08

 Cycle  21  Pass 1  IDiag  1:
 Restarting incremental Fock formation.
 E= -152.589663297189     Delta-E=        0.000000000075 Rises=F Damp=F
 DIIS: error= 2.10D-10 at cycle  21 NSaved=  16.
 NSaved=16 IEnMin=14 EnMin= -152.589663297265     IErMin=16 ErrMin= 2.10D-10
 ErrMax= 2.10D-10  0.00D+00 EMaxC= 1.00D-01 BMatC= 1.51D-17 BMatP= 8.80D-17
 IDIUse=1 WtCom= 1.00D+00 WtEn= 0.00D+00
 Large coefficients: NSaved= 16 BigCof=    0.00 CofMax=   10.00 Det=-2.56D-17
 Inversion failed.  Reducing to 15 matrices.
 Coeff-Com:  0.255D-07 0.267D-07-0.337D-06-0.242D-07 0.516D-05-0.465D-05
 Coeff-Com: -0.695D-05-0.731D-05-0.196D-03 0.810D-03 0.314D-02-0.201D-01
 Coeff-Com: -0.255D-01 0.372D+00 0.670D+00
 Coeff:      0.255D-07 0.267D-07-0.337D-06-0.242D-07 0.516D-05-0.465D-05
 Coeff:     -0.695D-05-0.731D-05-0.196D-03 0.810D-03 0.314D-02-0.201D-01
 Coeff:     -0.255D-01 0.372D+00 0.670D+00
 Gap=     0.028 Goal=   None    Shift=    0.000
 Gap=     0.203 Goal=   None    Shift=    0.000
 RMSDP=4.63D-08 MaxDP=5.37D-06 DE= 7.51D-11 OVMax= 5.35D-09

 Cycle  22  Pass 1  IDiag  1:
 RMSU=  1.34D-08    CP:  1.00D+00
 E= -152.589663297190     Delta-E=       -0.000000000001 Rises=F Damp=F
 DIIS: error= 7.82D-11 at cycle  22 NSaved=  16.
 NSaved=16 IEnMin=13 EnMin= -152.589663297265     IErMin=16 ErrMin= 7.82D-11
 ErrMax= 7.82D-11  0.00D+00 EMaxC= 1.00D-01 BMatC= 1.80D-18 BMatP= 1.51D-17
 IDIUse=1 WtCom= 1.00D+00 WtEn= 0.00D+00
 Large coefficients: NSaved= 16 BigCof=    0.00 CofMax=   10.00 Det=-3.49D-18
 Inversion failed.  Reducing to 15 matrices.
 Coeff-Com: -0.121D-07 0.230D-07 0.190D-07-0.365D-06 0.647D-06-0.535D-06
 Coeff-Com:  0.174D-05-0.509D-05-0.324D-04 0.662D-04 0.969D-03-0.137D-02
 Coeff-Com: -0.214D-01-0.557D+00 0.158D+01
 Coeff:     -0.121D-07 0.230D-07 0.190D-07-0.365D-06 0.647D-06-0.535D-06
 Coeff:      0.174D-05-0.509D-05-0.324D-04 0.662D-04 0.969D-03-0.137D-02
 Coeff:     -0.214D-01-0.557D+00 0.158D+01
 Gap=     0.028 Goal=   None    Shift=    0.000
 Gap=     0.203 Goal=   None    Shift=    0.000
 RMSDP=3.38D-08 MaxDP=3.93D-06 DE=-1.08D-12 OVMax= 3.40D-09

 Cycle  23  Pass 1  IDiag  1:
 RMSU=  2.51D-10    CP:  1.00D+00  1.70D+00
 E= -152.589663297192     Delta-E=       -0.000000000002 Rises=F Damp=F
 DIIS: error= 6.30D-12 at cycle  23 NSaved=  16.
 NSaved=16 IEnMin=12 EnMin= -152.589663297265     IErMin=16 ErrMin= 6.30D-12
 ErrMax= 6.30D-12  0.00D+00 EMaxC= 1.00D-01 BMatC= 9.64D-21 BMatP= 1.80D-18
 IDIUse=1 WtCom= 1.00D+00 WtEn= 0.00D+00
 Large coefficients: NSaved= 16 BigCof=    0.00 CofMax=   10.00 Det=-2.07D-20
 Inversion failed.  Reducing to 15 matrices.
 Coeff-Com: -0.230D-08-0.170D-07 0.734D-07-0.691D-07 0.274D-07-0.363D-06
 Coeff-Com:  0.182D-05-0.609D-06 0.572D-04-0.231D-04-0.184D-02 0.390D-02
 Coeff-Com:  0.158D+00-0.399D+00 0.124D+01
 Coeff:     -0.230D-08-0.170D-07 0.734D-07-0.691D-07 0.274D-07-0.363D-06
 Coeff:      0.182D-05-0.609D-06 0.572D-04-0.231D-04-0.184D-02 0.390D-02
 Coeff:      0.158D+00-0.399D+00 0.124D+01
 Gap=     0.028 Goal=   None    Shift=    0.000
 Gap=     0.203 Goal=   None    Shift=    0.000
 RMSDP=2.32D-09 MaxDP=2.67D-07 DE=-1.73D-12 OVMax= 3.03D-10

 SCF Done:  E(UB3LYP) =  -152.589663297     A.U. after   23 cycles
            NFock= 23  Conv=0.23D-08     -V/T= 2.0037
 <Sx>= 0.0000 <Sy>= 0.0000 <Sz>= 0.5000 <S**2>= 0.7502 S= 0.5001
 <L.S>= 0.000000000000E+00
 KE= 1.520249295451D+02 PE=-4.772069036931D+02 EE= 1.143817103722D+02
 Annihilation of the first spin contaminant:
 S**2 before annihilation     0.7502,   after     0.7500
 Leave Link  502 at Thu Mar  7 09:56:42 2019, MaxMem=    33554432 cpu:       167.6
 (Enter /home/proyectos/fulerenos/M3C-v2.0/M3C-deps_CCC/g09-AM64L-G09RevC.01/l801.exe)
 DoSCS=F DFT=T ScalE2(SS,OS)=  1.000000  1.000000
 Range of M.O.s used for correlation:     1   137
 NBasis=   137 NAE=    12 NBE=    11 NFC=     0 NFV=     0
 NROrb=    137 NOA=    12 NOB=    11 NVA=   125 NVB=   126

 **** Warning!!: The largest alpha MO coefficient is  0.85446936D+02


 **** Warning!!: The smallest alpha delta epsilon is  0.27646709D-01


 **** Warning!!: The largest beta MO coefficient is  0.86079355D+02

 Leave Link  801 at Thu Mar  7 09:56:42 2019, MaxMem=    33554432 cpu:         0.2
 (Enter /home/proyectos/fulerenos/M3C-v2.0/M3C-deps_CCC/g09-AM64L-G09RevC.01/l1101.exe)
 Using compressed storage, NAtomX=     5.
 Will process      6 centers per pass.
 Leave Link 1101 at Thu Mar  7 09:56:43 2019, MaxMem=    33554432 cpu:         1.1
 (Enter /home/proyectos/fulerenos/M3C-v2.0/M3C-deps_CCC/g09-AM64L-G09RevC.01/l1102.exe)
 Symmetrizing basis deriv contribution to polar:
 IMax=3 JMax=2 DiffMx= 0.00D+00
 Leave Link 1102 at Thu Mar  7 09:56:43 2019, MaxMem=    33554432 cpu:         0.2
 (Enter /home/proyectos/fulerenos/M3C-v2.0/M3C-deps_CCC/g09-AM64L-G09RevC.01/l1110.exe)
 Forming Gx(P) for the SCF density, NAtomX=     5.
 Integral derivatives from FoFJK, PRISM(SPDF).
 Do as many integral derivatives as possible in FoFJK.
 G2DrvN: MDV=      33554288.
 G2DrvN: will do     6 centers at a time, making    1 passes.
 Calling FoFCou, ICntrl=  3107 FMM=F I1Cent=   0 AccDes= 0.00D+00.
 FoFJK:  IHMeth= 1 ICntrl=    3107 DoSepK=F KAlg= 0 I1Cent=   0 FoldK=F
 IRaf=         0 NMat=   1 IRICut=       1 DoRegI=T DoRafI=F ISym2E= 1.
 FoFCou: FMM=F IPFlag=           0 FMFlag=      100000 FMFlg1=           0
         NFxFlg=           0 DoJE=F BraDBF=F KetDBF=F FulRan=T
         wScrn=  0.000000 ICntrl=    3107 IOpCl=  1 I1Cent=           0 NGrid=           0
         NMat0=    1 NMatS0=      1 NMatT0=    0 NMatD0=    1 NMtDS0=    0 NMtDT0=    0
 Petite list used in FoFCou.
 End of G2Drv F.D. properties file   721 does not exist.
 End of G2Drv F.D. properties file   722 does not exist.
 End of G2Drv F.D. properties file   788 does not exist.
 Leave Link 1110 at Thu Mar  7 09:57:20 2019, MaxMem=    33554432 cpu:        73.5
 (Enter /home/proyectos/fulerenos/M3C-v2.0/M3C-deps_CCC/g09-AM64L-G09RevC.01/l1002.exe)
 Minotr:  UHF open shell wavefunction.
          IDoAtm=11111
          Direct CPHF calculation.
          Differentiating once with respect to electric field.
                with respect to dipole field.
          Differentiating once with respect to nuclear coordinates.
          Using symmetry in CPHF.
          Requested convergence is 1.0D-08 RMS, and 1.0D-07 maximum.
          Secondary convergence is 1.0D-12 RMS, and 1.0D-12 maximum.
          NewPWx=T KeepS1=F KeepF1=F KeepIn=T MapXYZ=F SortEE=F KeepMc=T.
          MDV=      33554104 using IRadAn=       2.
 Generate precomputed XC quadrature information.
          Solving linear equations simultaneously, MaxMat=       0.
 FoFJK:  IHMeth= 1 ICntrl=       0 DoSepK=F KAlg= 0 I1Cent=   0 FoldK=F
 IRaf= 990000000 NMat=  18 IRICut=      45 DoRegI=T DoRafI=T ISym2E= 2.
 FoFCou: FMM=F IPFlag=           0 FMFlag=      100000 FMFlg1=           0
         NFxFlg=           0 DoJE=F BraDBF=F KetDBF=F FulRan=T
         wScrn=  0.000000 ICntrl=       0 IOpCl=  1 I1Cent=           0 NGrid=           0
         NMat0=   18 NMatS0=     18 NMatT0=    0 NMatD0=   18 NMtDS0=    0 NMtDT0=    0
 Integrals replicated using symmetry in FoFCou.
          There are    18 degrees of freedom in the 1st order CPHF.  IDoFFX=6 NUNeed=     3.
     15 vectors produced by pass  0 Test12= 1.60D-14 5.56D-09 XBig12= 7.98D+03 6.87D+01.
 AX will form    15 AO Fock derivatives at one time.
     15 vectors produced by pass  1 Test12= 1.60D-14 5.56D-09 XBig12= 2.80D+02 5.09D+00.
     15 vectors produced by pass  2 Test12= 1.60D-14 5.56D-09 XBig12= 1.07D+01 7.34D-01.
     15 vectors produced by pass  3 Test12= 1.60D-14 5.56D-09 XBig12= 1.45D-01 1.01D-01.
     15 vectors produced by pass  4 Test12= 1.60D-14 5.56D-09 XBig12= 1.81D-03 8.77D-03.
     15 vectors produced by pass  5 Test12= 1.60D-14 5.56D-09 XBig12= 1.92D-05 1.10D-03.
     15 vectors produced by pass  6 Test12= 1.60D-14 5.56D-09 XBig12= 1.45D-07 6.51D-05.
      9 vectors produced by pass  7 Test12= 1.60D-14 5.56D-09 XBig12= 7.87D-10 6.07D-06.
      4 vectors produced by pass  8 Test12= 1.60D-14 5.56D-09 XBig12= 4.36D-12 4.01D-07.
      3 vectors produced by pass  9 Test12= 1.60D-14 5.56D-09 XBig12= 4.74D-13 2.11D-07.
      3 vectors produced by pass 10 Test12= 1.60D-14 5.56D-09 XBig12= 1.01D-13 7.72D-08.
      1 vectors produced by pass 11 Test12= 1.60D-14 5.56D-09 XBig12= 1.61D-15 9.58D-09.
 InvSVY:  IOpt=1 It=  1 EMax= 6.66D-16
 Solved reduced A of dimension   125 with    15 vectors.
 FullF1:  Do perturbations    1 to     3.
 Isotropic polarizability for W=    0.000000      671.40 Bohr**3.
 End of Minotr F.D. properties file   721 does not exist.
 End of Minotr F.D. properties file   722 does not exist.
 End of Minotr F.D. properties file   788 does not exist.
 Leave Link 1002 at Thu Mar  7 09:59:22 2019, MaxMem=    33554432 cpu:       244.0
 (Enter /home/proyectos/fulerenos/M3C-v2.0/M3C-deps_CCC/g09-AM64L-G09RevC.01/l601.exe)
 Copying SCF densities to generalized density rwf, IOpCl= 1 IROHF=0.

 **********************************************************************

            Population analysis using the SCF density.

 **********************************************************************

 Orbital symmetries:
 Alpha Orbitals:
       Occupied  (A') (A') (A') (A') (A') (A') (A') (A') (A") (A')
                 (A") (A')
       Virtual   (A') (A') (A') (A") (A') (A") (A') (A') (A') (A")
                 (A') (A') (A') (A') (A') (A") (A') (A") (A') (A')
                 (A') (A') (A') (A") (A") (A') (A") (A') (A') (A')
                 (A') (A") (A') (A") (A') (A") (A') (A') (A') (A")
                 (A') (A') (A") (A') (A') (A") (A') (A') (A') (A")
                 (A') (A") (A') (A') (A") (A') (A') (A") (A') (A')
                 (A") (A') (A') (A') (A") (A') (A') (A") (A") (A')
                 (A') (A") (A') (A') (A") (A') (A") (A') (A') (A")
                 (A') (A") (A') (A') (A') (A") (A") (A') (A') (A')
                 (A") (A') (A') (A') (A") (A") (A') (A') (A") (A')
                 (A") (A') (A') (A") (A') (A') (A") (A') (A") (A')
                 (A') (A") (A') (A") (A') (A') (A') (A") (A') (A")
                 (A') (A') (A') (A') (A')
 Beta  Orbitals:
       Occupied  (A') (A') (A') (A') (A') (A') (A') (A') (A") (A')
                 (A")
       Virtual   (A') (A') (A') (A") (A') (A") (A') (A') (A') (A')
                 (A") (A') (A') (A') (A') (A") (A') (A') (A") (A')
                 (A') (A') (A') (A") (A") (A') (A') (A") (A') (A')
                 (A') (A') (A") (A') (A") (A') (A") (A') (A') (A')
                 (A") (A') (A') (A") (A') (A") (A') (A') (A') (A')
                 (A") (A') (A") (A') (A') (A") (A') (A') (A") (A')
                 (A') (A") (A') (A') (A') (A") (A') (A") (A') (A")
                 (A') (A') (A") (A') (A') (A") (A') (A") (A') (A')
                 (A") (A') (A") (A') (A') (A') (A") (A") (A') (A')
                 (A') (A") (A') (A') (A') (A") (A") (A') (A') (A")
                 (A') (A") (A') (A') (A") (A') (A') (A") (A') (A")
                 (A') (A') (A") (A') (A") (A') (A') (A') (A") (A')
                 (A") (A') (A') (A') (A') (A')
 The electronic state is 2-A'.
 Alpha  occ. eigenvalues --  -19.03857 -10.08571 -10.01295  -0.94538  -0.60305
 Alpha  occ. eigenvalues --   -0.46818  -0.37770  -0.31440  -0.27695  -0.13113
 Alpha  occ. eigenvalues --   -0.10968   0.05926
 Alpha virt. eigenvalues --    0.08690   0.15186   0.16725   0.16981   0.18641
 Alpha virt. eigenvalues --    0.19138   0.20027   0.21879   0.22635   0.25117
 Alpha virt. eigenvalues --    0.26002   0.29151   0.32608   0.35315   0.36402
 Alpha virt. eigenvalues --    0.36579   0.40284   0.44115   0.46822   0.48704
 Alpha virt. eigenvalues --    0.50128   0.57465   0.58926   0.59083   0.59274
 Alpha virt. eigenvalues --    0.64373   0.65236   0.68040   0.70450   0.74746
 Alpha virt. eigenvalues --    0.77928   0.80053   0.90202   0.90415   0.94452
 Alpha virt. eigenvalues --    0.95916   1.01791   1.05002   1.09973   1.12542
 Alpha virt. eigenvalues --    1.23886   1.24442   1.28807   1.29822   1.32544
 Alpha virt. eigenvalues --    1.32636   1.39686   1.50756   1.53120   1.58937
 Alpha virt. eigenvalues --    1.60654   1.61593   1.63233   1.67912   1.79439
 Alpha virt. eigenvalues --    1.80450   1.89105   1.92710   1.96789   2.24452
 Alpha virt. eigenvalues --    2.53164   2.53710   2.61313   2.74595   2.79702
 Alpha virt. eigenvalues --    2.82436   2.87829   2.87922   2.90391   2.91902
 Alpha virt. eigenvalues --    2.94506   3.04053   3.07506   3.15332   3.20734
 Alpha virt. eigenvalues --    3.25603   3.29638   3.34536   3.36854   3.37566
 Alpha virt. eigenvalues --    3.48711   3.76710   3.77308   3.84378   3.91355
 Alpha virt. eigenvalues --    3.91930   4.13756   4.19207   4.20495   4.48109
 Alpha virt. eigenvalues --    4.52042   4.56546   4.78850   5.09734   5.24658
 Alpha virt. eigenvalues --    5.34869   5.38391   5.45747   5.60323   5.61974
 Alpha virt. eigenvalues --    5.67516   5.73394   6.49027   6.81430   6.85003
 Alpha virt. eigenvalues --    6.98701   7.09622   7.11415   7.23242   7.24067
 Alpha virt. eigenvalues --    7.24310   7.40598   7.45467   7.66066   7.70008
 Alpha virt. eigenvalues --    8.57840   8.65603  14.44181  14.57414  14.75916
 Alpha virt. eigenvalues --   15.01277  15.32496  24.24680  27.14290  50.38985
  Beta  occ. eigenvalues --  -19.03682 -10.08550 -10.01247  -0.94169  -0.60172
  Beta  occ. eigenvalues --   -0.46453  -0.37695  -0.31260  -0.27526  -0.12985
  Beta  occ. eigenvalues --   -0.10878
  Beta virt. eigenvalues --    0.09384   0.11623   0.15502   0.16815   0.17328
  Beta virt. eigenvalues --    0.19375   0.19416   0.20553   0.22724   0.22884
  Beta virt. eigenvalues --    0.25176   0.26346   0.29971   0.33095   0.35624
  Beta virt. eigenvalues --    0.36573   0.36585   0.40439   0.44185   0.47003
  Beta virt. eigenvalues --    0.48917   0.50130   0.57841   0.59099   0.59350
  Beta virt. eigenvalues --    0.59842   0.65019   0.65338   0.68218   0.70717
  Beta virt. eigenvalues --    0.74945   0.78132   0.80087   0.90396   0.90795
  Beta virt. eigenvalues --    0.94553   0.95969   1.01806   1.05262   1.10023
  Beta virt. eigenvalues --    1.12618   1.23972   1.24643   1.29400   1.30018
  Beta virt. eigenvalues --    1.32592   1.32861   1.40183   1.51209   1.53292
  Beta virt. eigenvalues --    1.58910   1.61223   1.61665   1.63357   1.68250
  Beta virt. eigenvalues --    1.79487   1.80601   1.89249   1.92794   1.96897
  Beta virt. eigenvalues --    2.24582   2.53200   2.53851   2.61412   2.74793
  Beta virt. eigenvalues --    2.79768   2.82501   2.87991   2.88042   2.90441
  Beta virt. eigenvalues --    2.91966   2.94625   3.04096   3.07639   3.15448
  Beta virt. eigenvalues --    3.20822   3.25741   3.29820   3.34634   3.37098
  Beta virt. eigenvalues --    3.37762   3.49132   3.76861   3.77582   3.84627
  Beta virt. eigenvalues --    3.91456   3.92025   4.14134   4.19290   4.20786
  Beta virt. eigenvalues --    4.48198   4.52079   4.56788   4.79322   5.09839
  Beta virt. eigenvalues --    5.24749   5.35055   5.38570   5.45885   5.60450
  Beta virt. eigenvalues --    5.62091   5.67731   5.73662   6.49093   6.81523
  Beta virt. eigenvalues --    6.85193   6.99095   7.09696   7.11490   7.23301
  Beta virt. eigenvalues --    7.24231   7.24422   7.40647   7.45540   7.66115
  Beta virt. eigenvalues --    7.70092   8.57923   8.65672  14.44514  14.57751
  Beta virt. eigenvalues --   14.76109  15.01560  15.32761  24.24721  27.14337
  Beta virt. eigenvalues --   50.39185
          Condensed to atoms (all electrons):
               1          2          3          4          5
     1  C   21.546280 -22.383119   1.739076   5.868240   0.808493
     2  C  -22.383119  58.949071 -20.726234 -11.624859  -2.115358
     3  H    1.739076 -20.726234  17.888628   2.705741   0.864156
     4  H    5.868240 -11.624859   2.705741   4.772121   0.495886
     5  O    0.808493  -2.115358   0.864156   0.495886   8.579857
          Atomic-Atomic Spin Densities.
               1          2          3          4          5
     1  C   14.236459 -20.814104   1.310299   5.877003   0.906285
     2  C  -20.814104  51.296919 -20.629752 -11.567512  -2.212629
     3  H    1.310299 -20.629752  17.519065   2.705042   0.865484
     4  H    5.877003 -11.567512   2.705042   4.339225   0.215794
     5  O    0.906285  -2.212629   0.865484   0.215794   0.296510
 Mulliken charges and spin densities:
               1          2
     1  C   -1.578970   1.515943
     2  C    3.900498  -3.927077
     3  H   -1.471367   1.770139
     4  H   -1.217128   1.569552
     5  O   -0.633033   0.071444
 Sum of Mulliken charges =  -1.00000   1.00000
 Mulliken charges and spin densities with hydrogens summed into heavy atoms:
               1          2
     1  C   -3.050337   3.286081
     2  C    3.900498  -3.927077
     5  O   -1.850161   1.640996
 APT charges:
               1
     1  C    0.887590
     2  C   -1.307908
     3  H   -0.681273
     4  H   -1.533131
     5  O    1.634722
 Sum of APT charges =  -1.00000
 APT charges with hydrogens summed into heavy atoms:
               1
     1  C    0.206317
     2  C   -1.307908
     5  O    0.101591
 Electronic spatial extent (au):  <R**2>=            203.4229
 Charge=             -1.0000 electrons
 Dipole moment (field-independent basis, Debye):
    X=             -2.4477    Y=             -3.4074    Z=             -0.0000  Tot=              4.1955
 Quadrupole moment (field-independent basis, Debye-Ang):
   XX=            -36.6676   YY=            -57.4910   ZZ=            -32.3404
   XY=              3.8130   XZ=             -0.0000   YZ=              0.0000
 Traceless Quadrupole moment (field-independent basis, Debye-Ang):
   XX=              5.4988   YY=            -15.3247   ZZ=              9.8259
   XY=              3.8130   XZ=             -0.0000   YZ=              0.0000
 Octapole moment (field-independent basis, Debye-Ang**2):
  XXX=            -39.7945  YYY=            -38.4506  ZZZ=             -0.0000  XYY=            -26.1413
  XXY=              2.5483  XXZ=             -0.0000  XZZ=            -11.6810  YZZ=             -3.9355
  YYZ=             -0.0000  XYZ=              0.0000
 Hexadecapole moment (field-independent basis, Debye-Ang**3):
 XXXX=           -248.9581 YYYY=           -890.4474 ZZZZ=           -130.6507 XXXY=             86.6377
 XXXZ=             -0.0000 YYYX=            108.4654 YYYZ=              0.0000 ZZZX=             -0.0000
 ZZZY=              0.0000 XXYY=           -183.2819 XXZZ=            -61.9772 YYZZ=           -141.0265
 XXYZ=              0.0000 YYXZ=             -0.0000 ZZXY=             24.4068
 N-N= 5.821060047856D+01 E-N=-4.772069036932D+02  KE= 1.520249295451D+02
 Symmetry A'   KE= 1.451799282530D+02
 Symmetry A"   KE= 6.845001292070D+00
  Exact polarizability: 260.215-369.4761645.404   0.000  -0.000 108.581
 Approx polarizability: 264.564-447.1821891.520   0.000  -0.000 103.360
                          Isotropic Fermi Contact Couplings
        Atom                 a.u.       MegaHertz       Gauss      10(-4) cm-1
     1  C(13)              0.05755      64.70196      23.08727      21.58225
     2  C(13)              0.00321       3.60658       1.28692       1.20303
     3  H(1)              -0.00020      -0.88345      -0.31524      -0.29469
     4  H(1)               0.00611      27.30885       9.74448       9.10925
     5  O(17)              0.25476    -154.43265     -55.10541     -51.51319
 --------------------------------------------------------
       Center         ----  Spin Dipole Couplings  ----
                      3XX-RR        3YY-RR        3ZZ-RR
 --------------------------------------------------------
     1   Atom       -0.003555      0.006465     -0.002910
     2   Atom        0.014532     -0.004401     -0.010131
     3   Atom        0.000735      0.001909     -0.002644
     4   Atom       -0.001628      0.013302     -0.011674
     5   Atom        0.040773     -0.011833     -0.028940
 --------------------------------------------------------
                        XY            XZ            YZ
 --------------------------------------------------------
     1   Atom       -0.001955     -0.000000      0.000000
     2   Atom       -0.005150      0.000000     -0.000000
     3   Atom       -0.003479     -0.000000      0.000000
     4   Atom        0.015547      0.000000     -0.000000
     5   Atom        0.043023      0.000000     -0.000000
 --------------------------------------------------------


 ---------------------------------------------------------------------------------
              Anisotropic Spin Dipole Couplings in Principal Axis System
 ---------------------------------------------------------------------------------

       Atom             a.u.   MegaHertz   Gauss  10(-4) cm-1        Axes

              Baa    -0.0039    -0.526    -0.188    -0.176  0.9828  0.1849  0.0000
     1 C(13)  Bbb    -0.0029    -0.390    -0.139    -0.130 -0.0000 -0.0000  1.0000
              Bcc     0.0068     0.917     0.327     0.306 -0.1849  0.9828  0.0000
 
              Baa    -0.0101    -1.359    -0.485    -0.453  0.0000  0.0000  1.0000
     2 C(13)  Bbb    -0.0057    -0.766    -0.273    -0.256  0.2465  0.9691 -0.0000
              Bcc     0.0158     2.126     0.759     0.709  0.9691 -0.2465  0.0000
 
              Baa    -0.0026    -1.411    -0.503    -0.471 -0.0000 -0.0000  1.0000
     3 H(1)   Bbb    -0.0022    -1.177    -0.420    -0.393  0.7637  0.6456  0.0000
              Bcc     0.0049     2.588     0.923     0.863 -0.6456  0.7637  0.0000
 
              Baa    -0.0117    -6.228    -2.222    -2.078 -0.0000  0.0000  1.0000
     4 H(1)   Bbb    -0.0114    -6.088    -2.172    -2.031  0.8464 -0.5325  0.0000
              Bcc     0.0231    12.316     4.395     4.108  0.5325  0.8464 -0.0000
 
              Baa    -0.0360     2.602     0.928     0.868 -0.4891  0.8722  0.0000
     5 O(17)  Bbb    -0.0289     2.094     0.747     0.699  0.0000 -0.0000  1.0000
              Bcc     0.0649    -4.696    -1.676    -1.566  0.8722  0.4891  0.0000
 

 ---------------------------------------------------------------------------------

 No NMR shielding tensors so no spin-rotation constants.
 Leave Link  601 at Thu Mar  7 09:59:23 2019, MaxMem=    33554432 cpu:         1.0
 (Enter /home/proyectos/fulerenos/M3C-v2.0/M3C-deps_CCC/g09-AM64L-G09RevC.01/l701.exe)
 Compute integral second derivatives.
 ... and contract with generalized density number  0.
 Leave Link  701 at Thu Mar  7 09:59:23 2019, MaxMem=    33554432 cpu:         1.1
 (Enter /home/proyectos/fulerenos/M3C-v2.0/M3C-deps_CCC/g09-AM64L-G09RevC.01/l702.exe)
 L702 exits ... SP integral derivatives will be done elsewhere.
 Leave Link  702 at Thu Mar  7 09:59:23 2019, MaxMem=    33554432 cpu:         0.1
 (Enter /home/proyectos/fulerenos/M3C-v2.0/M3C-deps_CCC/g09-AM64L-G09RevC.01/l703.exe)
 Compute integral second derivatives, UseDBF=F ICtDFT=           0.
 Integral derivatives from FoFJK, PRISM(SPDF).
 Calling FoFJK, ICntrl=    100127 FMM=F ISym2X=1 I1Cent= 0 IOpClX= 1 NMat=1 NMatS=1 NMatT=0.
 FoFJK:  IHMeth= 1 ICntrl=  100127 DoSepK=F KAlg= 0 I1Cent=   0 FoldK=F
 IRaf=         0 NMat=   1 IRICut=       1 DoRegI=T DoRafI=F ISym2E= 1.
 FoFCou: FMM=F IPFlag=           0 FMFlag=      100000 FMFlg1=         800
         NFxFlg=           0 DoJE=F BraDBF=F KetDBF=F FulRan=T
         wScrn=  0.000000 ICntrl=  100127 IOpCl=  1 I1Cent=           0 NGrid=           0
         NMat0=    1 NMatS0=      1 NMatT0=    0 NMatD0=    1 NMtDS0=    0 NMtDT0=    0
 Petite list used in FoFCou.
 Leave Link  703 at Thu Mar  7 10:00:55 2019, MaxMem=    33554432 cpu:       182.2
 (Enter /home/proyectos/fulerenos/M3C-v2.0/M3C-deps_CCC/g09-AM64L-G09RevC.01/l716.exe)
 Dipole        =-9.63007150D-01-1.34058637D+00-1.25189941D-16
 Polarizability= 2.60215010D+02-3.69475565D+02 1.64540444D+03
                 1.77498434D-06-9.70295510D-06 1.08580529D+02
 Full mass-weighted force constant matrix:
 Low frequencies ---  -17.2241   -0.0007   -0.0005    0.0005   17.0467   72.2212
 Low frequencies ---  355.5962  419.7204  534.5312
 Diagonal vibrational polarizability:
       43.1862101     100.1240617      45.0203945
 Harmonic frequencies (cm**-1), IR intensities (KM/Mole), Raman scattering
 activities (A**4/AMU), depolarization ratios for plane and unpolarized
 incident light, reduced masses (AMU), force constants (mDyne/A),
 and normal coordinates:
                      1                      2                      3
                     A'                     A"                     A"
 Frequencies --    355.5895               419.7201               534.5285
 Red. masses --      4.9182                 9.0399                 1.1904
 Frc consts  --      0.3664                 0.9383                 0.2004
 IR Inten    --     50.2166                26.6088               434.8325
  Atom  AN      X      Y      Z        X      Y      Z        X      Y      Z
     1   6    -0.21  -0.12   0.00    -0.00  -0.00  -0.42     0.00   0.00  -0.07
     2   6     0.46   0.24  -0.00     0.00   0.00   0.69    -0.00  -0.00  -0.08
     3   1    -0.37  -0.20   0.00     0.00   0.00   0.53    -0.00  -0.00   0.99
     4   1    -0.64   0.27   0.00    -0.00   0.00  -0.09     0.00   0.00   0.04
     5   8    -0.12  -0.09   0.00    -0.00  -0.00  -0.23     0.00   0.00   0.05
                      4                      5                      6
                     A'                     A'                     A'
 Frequencies --    631.0541              1065.1532              1169.8093
 Red. masses --      1.1947                 8.9639                 1.1851
 Frc consts  --      0.2803                 5.9920                 0.9555
 IR Inten    --    306.1544              1008.1426              1315.4073
  Atom  AN      X      Y      Z        X      Y      Z        X      Y      Z
     1   6    -0.11  -0.06   0.00     0.22  -0.40  -0.00    -0.03   0.05   0.00
     2   6     0.02   0.01  -0.00     0.16  -0.19   0.00     0.06   0.05  -0.00
     3   1     0.88   0.46   0.00     0.23  -0.48   0.00    -0.07   0.04   0.00
     4   1     0.04  -0.01   0.00     0.33  -0.09  -0.00     0.73  -0.67   0.00
     5   8     0.01   0.01   0.00    -0.32   0.48  -0.00    -0.06  -0.03   0.00
                      7                      8                      9
                     A'                     A'                     A'
 Frequencies --   2205.6866              2961.4110              3464.7654
 Red. masses --      6.0067                 1.0732                 1.1572
 Frc consts  --     17.2178                 5.5456                 8.1848
 IR Inten    --   2112.0361             15906.8528               739.9022
  Atom  AN      X      Y      Z        X      Y      Z        X      Y      Z
     1   6     0.18  -0.32  -0.00    -0.01   0.01  -0.00     0.05  -0.10   0.00
     2   6    -0.25   0.49   0.00     0.02  -0.02   0.00    -0.01   0.03   0.00
     3   1     0.31  -0.60  -0.00    -0.05   0.08  -0.00    -0.46   0.88  -0.00
     4   1     0.29   0.08  -0.00     0.61   0.78  -0.00    -0.04  -0.06  -0.00
     5   8     0.02  -0.09  -0.00    -0.04  -0.04  -0.00     0.00   0.00  -0.00

 -------------------
 - Thermochemistry -
 -------------------
 Temperature   298.150 Kelvin.  Pressure   1.00000 Atm.
 Atom     1 has atomic number  6 and mass  12.00000
 Atom     2 has atomic number  6 and mass  12.00000
 Atom     3 has atomic number  1 and mass   1.00783
 Atom     4 has atomic number  1 and mass   1.00783
 Atom     5 has atomic number  8 and mass  15.99491
 Molecular mass:    42.01056 amu.
 Principal axes and moments of inertia in atomic units:
                           1         2         3
     Eigenvalues --     2.82471 184.30455 187.12926
           X           -0.46425   0.88571  -0.00000
           Y            0.88571   0.46425   0.00000
           Z           -0.00000   0.00000   1.00000
 This molecule is an asymmetric top.
 Rotational symmetry number  1.
 Rotational temperatures (Kelvin)     30.66290     0.46995     0.46286
 Rotational constants (GHZ):         638.91183     9.79217     9.64436
 Zero-point vibrational energy      76607.2 (Joules/Mol)
                                   18.30955 (Kcal/Mol)
 Warning -- explicit consideration of   3 degrees of freedom as
           vibrations may cause significant error
 Vibrational temperatures:    511.61   603.88   769.07   907.94  1532.52
          (Kelvin)           1683.09  3173.49  4260.80  4985.02
 
 Zero-point correction=                           0.029178 (Hartree/Particle)
 Thermal correction to Energy=                    0.033048
 Thermal correction to Enthalpy=                  0.033992
 Thermal correction to Gibbs Free Energy=         0.005077
 Sum of electronic and zero-point Energies=           -152.560485
 Sum of electronic and thermal Energies=              -152.556616
 Sum of electronic and thermal Enthalpies=            -152.555671
 Sum of electronic and thermal Free Energies=         -152.584586
 
                     E (Thermal)             CV                S
                      KCal/Mol        Cal/Mol-Kelvin    Cal/Mol-Kelvin
 Total                   20.738             11.635             60.857
 Electronic               0.000              0.000              1.377
 Translational            0.889              2.981             37.133
 Rotational               0.889              2.981             19.216
 Vibrational             18.960              5.674              3.130
 Vibration     1          0.731              1.564              1.141
 Vibration     2          0.782              1.427              0.893
 Vibration     3          0.890              1.174              0.577
                       Q            Log10(Q)             Ln(Q)
 Total Bot       0.462120D-02         -2.335245         -5.377101
 Total V=0       0.121824D+12         11.085733         25.525844
 Vib (Bot)       0.611026D-13        -13.213941        -30.426223
 Vib (Bot)    1  0.516963D+00         -0.286540         -0.659784
 Vib (Bot)    2  0.418438D+00         -0.378369         -0.871226
 Vib (Bot)    3  0.297933D+00         -0.525882         -1.210888
 Vib (V=0)       0.161079D+01          0.207038          0.476723
 Vib (V=0)    1  0.121920D+01          0.086076          0.198196
 Vib (V=0)    2  0.115199D+01          0.061449          0.141491
 Vib (V=0)    3  0.108203D+01          0.034241          0.078843
 Electronic      0.200000D+01          0.301030          0.693147
 Translational   0.107027D+08          7.029493         16.186006
 Rotational      0.353323D+04          3.548172          8.169969
 
                                                              b3lyp opt
                                                             IR Spectrum
 
     3                  2                           2                                     1  1                                       
     4                  9                           2                                     1  0               6   5   4 3             
     6                  6                           0                                     7  6               3   3   2 5             
     5                  1                           6                                     0  5               1   5   0 6             
 
     X                  X                           X                                     X  X               X   X   X X             
                        X                           X                                     X                                          
                        X                           X                                                                                
                        X                                                                                                            
                        X                                                                                                            
                        X                                                                                                            
                        X                                                                                                            
                        X                                                                                                            
                        X                                                                                                            
                        X                                                                                                            
                        X                                                                                                            
                        X                                                                                                            
                        X                                                                                                            
                        X                                                                                                            
                        X                                                                                                            
                        X                                                                                                            
                        X                                                                                                            
                        X                                                                                                            
                        X                                                                                                            
                        X                                                                                                            
 
 ***** Axes restored to original set *****
 -------------------------------------------------------------------
 Center     Atomic                   Forces (Hartrees/Bohr)
 Number     Number              X              Y              Z
 -------------------------------------------------------------------
      1        6          -0.000118467   -0.000016268    0.000052019
      2        6           0.000149561    0.000027262   -0.000066557
      3        1          -0.000026739   -0.000005211    0.000011944
      4        1           0.000163383   -0.000402187   -0.000015876
      5        8          -0.000167739    0.000396404    0.000018471
 -------------------------------------------------------------------
 Cartesian Forces:  Max     0.000402187 RMS     0.000167281
 Z-matrix is all fixed cartesians, so copy forces.
 Force constants in Cartesian coordinates: 
                1             2             3             4             5 
      1  0.125534D+01
      2  0.472763D-01  0.393102D-01
      3 -0.523724D+00 -0.216281D-01  0.249564D+00
      4 -0.864803D+00 -0.363234D-01  0.359177D+00  0.126571D+01
      5 -0.273514D-01 -0.239022D-01  0.116251D-01  0.262488D-01  0.747284D-01
      6  0.357996D+00  0.154026D-01 -0.175827D+00 -0.510982D+00 -0.129530D-01
      7 -0.355195D+00 -0.893732D-02  0.146519D+00 -0.123293D-03 -0.129022D-02
      8 -0.925118D-02 -0.182279D-01  0.497895D-02  0.601998D-04 -0.131478D-02
      9  0.146561D+00  0.484681D-02 -0.723342D-01 -0.246538D-02 -0.679234D-04
     10  0.164749D-01  0.276571D-02 -0.729075D-02 -0.594520D-01  0.222643D-01
     11 -0.243646D-01 -0.476114D-02  0.108878D-01  0.356886D-01  0.257445D-01
     12 -0.372136D-02 -0.535056D-03  0.166005D-02  0.199371D-01 -0.128857D-01
     13 -0.518150D-01 -0.478132D-02  0.253189D-01 -0.341331D+00 -0.198714D-01
     14  0.136910D-01  0.758104D-02 -0.586373D-02 -0.256742D-01 -0.752559D-01
     15  0.228886D-01  0.191374D-02 -0.306282D-02  0.134334D+00  0.142816D-01
                6             7             8             9            10 
      6  0.277122D+00
      7 -0.228771D-02  0.348625D+00
      8 -0.636495D-03  0.985460D-02  0.130575D-01
      9 -0.491306D-02 -0.144165D+00 -0.464387D-02  0.706065D-01
     10  0.217033D-01 -0.111528D-02 -0.360809D-03  0.660411D-03  0.932323D-01
     11 -0.185378D-01  0.246152D-02 -0.136677D-02 -0.811766D-03 -0.109949D+00
     12 -0.764624D-02  0.289092D-03  0.376532D-03  0.169265D-03 -0.247010D-01
     13  0.133570D+00  0.780866D-02 -0.302806D-03 -0.590302D-03 -0.491398D-01
     14  0.167247D-01 -0.208859D-02  0.785200D-02  0.676759D-03  0.852802D-01
     15 -0.887351D-01 -0.355355D-03 -0.751165D-04  0.647151D-02  0.962799D-02
               11            12            13            14            15 
     11  0.257000D+00
     12  0.125077D-01  0.896237D-02
     13  0.961639D-01  0.819607D-02  0.434477D+00
     14 -0.276616D+00  0.536517D-03 -0.712084D-01  0.336439D+00
     15 -0.404591D-02 -0.314544D-02 -0.166495D+00 -0.120743D-01  0.884719D-01
 Leave Link  716 at Thu Mar  7 10:00:55 2019, MaxMem=    33554432 cpu:         0.2
 (Enter /home/proyectos/fulerenos/M3C-v2.0/M3C-deps_CCC/g09-AM64L-G09RevC.01/l103.exe)

 GradGradGradGradGradGradGradGradGradGradGradGradGradGradGradGradGradGrad
 Berny optimization.
 Search for a local minimum.
 Step number   1 out of a maximum of    2
 All quantities printed in internal units (Hartrees-Bohrs-Radians)
 Second derivative matrix not updated -- analytic derivatives used.
 The second derivative matrix:
                          X1        Y1        Z1        X2        Y2
           X1           1.25534
           Y1           0.04728   0.03931
           Z1          -0.52372  -0.02163   0.24956
           X2          -0.86480  -0.03632   0.35918   1.26571
           Y2          -0.02735  -0.02390   0.01163   0.02625   0.07473
           Z2           0.35800   0.01540  -0.17583  -0.51098  -0.01295
           X3          -0.35519  -0.00894   0.14652  -0.00012  -0.00129
           Y3          -0.00925  -0.01823   0.00498   0.00006  -0.00131
           Z3           0.14656   0.00485  -0.07233  -0.00247  -0.00007
           X4           0.01647   0.00277  -0.00729  -0.05945   0.02226
           Y4          -0.02436  -0.00476   0.01089   0.03569   0.02574
           Z4          -0.00372  -0.00054   0.00166   0.01994  -0.01289
           X5          -0.05182  -0.00478   0.02532  -0.34133  -0.01987
           Y5           0.01369   0.00758  -0.00586  -0.02567  -0.07526
           Z5           0.02289   0.00191  -0.00306   0.13433   0.01428
                          Z2        X3        Y3        Z3        X4
           Z2           0.27712
           X3          -0.00229   0.34862
           Y3          -0.00064   0.00985   0.01306
           Z3          -0.00491  -0.14417  -0.00464   0.07061
           X4           0.02170  -0.00112  -0.00036   0.00066   0.09323
           Y4          -0.01854   0.00246  -0.00137  -0.00081  -0.10995
           Z4          -0.00765   0.00029   0.00038   0.00017  -0.02470
           X5           0.13357   0.00781  -0.00030  -0.00059  -0.04914
           Y5           0.01672  -0.00209   0.00785   0.00068   0.08528
           Z5          -0.08874  -0.00036  -0.00008   0.00647   0.00963
                          Y4        Z4        X5        Y5        Z5
           Y4           0.25700
           Z4           0.01251   0.00896
           X5           0.09616   0.00820   0.43448
           Y5          -0.27662   0.00054  -0.07121   0.33644
           Z5          -0.00405  -0.00315  -0.16649  -0.01207   0.08847
 ITU=  0
     Eigenvalues ---    0.01805   0.02202   0.04626   0.08509   0.13248
     Eigenvalues ---    0.32439   0.55213   0.90777   2.56573
 Angle between quadratic step and forces=  64.87 degrees.
 ClnCor:  largest displacement from symmetrization is 1.13D-11 for atom     2.
 Linear search not attempted -- first point.
 ClnCor:  largest displacement from symmetrization is 9.58D-15 for atom     3.
 B after Tr=     0.000045    0.000380   -0.000069
         Rot=    1.000000    0.000008    0.000002    0.000019 Ang=   0.00 deg.
 Variable       Old X    -DE/DX   Delta X   Delta X   Delta X     New X
                                 (Linear)    (Quad)   (Total)
    X1        2.05171  -0.00012   0.00000   0.00003   0.00010   2.05181
    Y1        0.54404  -0.00002   0.00000  -0.00028   0.00000   0.54404
    Z1       -1.34525   0.00005   0.00000   0.00002  -0.00004  -1.34529
    X2       -0.03630   0.00015   0.00000   0.00007   0.00014  -0.03616
    Y2        0.44005   0.00003   0.00000   0.00135   0.00173   0.44177
    Z2       -0.45244  -0.00007   0.00000  -0.00021  -0.00028  -0.45273
    X3        3.89333  -0.00003   0.00000   0.00004   0.00012   3.89344
    Y3        0.60425  -0.00001   0.00000  -0.00115  -0.00095   0.60330
    Z3       -2.12856   0.00001   0.00000   0.00014   0.00008  -2.12848
    X4       -3.12091   0.00016   0.00000  -0.00065  -0.00054  -3.12144
    Y4        1.96937  -0.00040   0.00000  -0.00191  -0.00141   1.96796
    Z4        0.64508  -0.00002   0.00000   0.00053   0.00041   0.64549
    X5       -2.28638  -0.00017   0.00000   0.00013   0.00018  -2.28620
    Y5        0.28148   0.00040   0.00000   0.00016   0.00063   0.28211
    Z5        0.51578   0.00002   0.00000  -0.00008  -0.00016   0.51562
         Item               Value     Threshold  Converged?
 Maximum Force            0.000402     0.000450     YES
 RMS     Force            0.000167     0.000300     YES
 Maximum Displacement     0.001726     0.001800     YES
 RMS     Displacement     0.000678     0.001200     YES
 Predicted change in Energy=-3.805597D-07
 Optimization completed.
    -- Stationary point found.
 GradGradGradGradGradGradGradGradGradGradGradGradGradGradGradGradGradGrad

 Leave Link  103 at Thu Mar  7 10:00:55 2019, MaxMem=    33554432 cpu:         0.1
 (Enter /home/proyectos/fulerenos/M3C-v2.0/M3C-deps_CCC/g09-AM64L-G09RevC.01/l9999.exe)

 Test job not archived.
 1\1\GINC-BERQUELIO\Freq\UB3LYP\6-311++G(3df,2p)\C2H2O1(1-,2)\NAGUIRRE\
 07-Mar-2019\0\\#p b3lyp/6-311++G(3df,2p) freq IOp(2/17=3) IOp(2/18=3)\
 \b3lyp opt\\-1,2\C,1.0857170766,0.2878948375,-0.7118754487\C,-0.019208
 4052,0.2328619982,-0.2394232114\H,2.0602601132,0.3197559686,-1.1263835
 846\H,-1.6515125165,1.0421457135,0.3413600239\O,-1.2099010781,0.148950
 163,0.2729394402\\Version=EM64L-G09RevE.01\State=2-A'\HF=-152.5896633\
 S2=0.750152\S2-1=0.\S2A=0.75\RMSD=2.323e-09\RMSF=1.673e-04\ZeroPoint=0
 .0291781\Thermal=0.0330477\Dipole=0.7864207,-1.4443659,-0.1410826\Dipo
 leDeriv=1.6063744,-0.3344285,-0.4307654,0.2603248,0.3834977,-0.0970725
 ,-0.5090139,0.1533391,0.6728988,-3.311934,1.2076327,1.2359346,-0.53710
 37,-0.0614851,0.2343466,1.4654801,-0.5002476,-0.5503053,-0.8399314,0.2
 348402,0.0423554,-0.1154604,-0.5162991,0.028924,0.0884427,-0.1185647,-
 0.6875888,-2.5948914,0.1095521,0.6882038,2.7663421,-0.941608,-1.162686
 ,0.3386637,-0.0440855,-1.0628935,4.1403824,-1.2175965,-1.5357284,-2.37
 41027,0.1358944,0.9964879,-1.3835725,0.5095586,0.6278888\Polar=1461.95
 24425,-300.0631141,234.8126067,-530.338636,109.7292484,317.4349294\PG=
 CS [SG(C2H2O1)]\NImag=0\\1.25533810,0.04727628,0.03931019,-0.52372414,
 -0.02162810,0.24956434,-0.86480308,-0.03632336,0.35917676,1.26570909,-
 0.02735144,-0.02390218,0.01162512,0.02624880,0.07472838,0.35799638,0.0
 1540261,-0.17582734,-0.51098230,-0.01295303,0.27712177,-0.35519489,-0.
 00893732,0.14651925,-0.00012329,-0.00129022,-0.00228771,0.34862480,-0.
 00925118,-0.01822791,0.00497895,0.00006020,-0.00131478,-0.00063650,0.0
 0985460,0.01305746,0.14656054,0.00484681,-0.07233422,-0.00246538,-0.00
 006792,-0.00491306,-0.14416527,-0.00464387,0.07060651,0.01647489,0.002
 76571,-0.00729075,-0.05945204,0.02226430,0.02170331,-0.00111528,-0.000
 36081,0.00066041,0.09323225,-0.02436463,-0.00476114,0.01088775,0.03568
 859,0.02574445,-0.01853783,0.00246152,-0.00136677,-0.00081177,-0.10994
 943,0.25699980,-0.00372136,-0.00053506,0.00166005,0.01993715,-0.012885
 74,-0.00764624,0.00028909,0.00037653,0.00016926,-0.02470096,0.01250775
 ,0.00896237,-0.05181502,-0.00478132,0.02531888,-0.34133068,-0.01987144
 ,0.13357032,0.00780866,-0.00030281,-0.00059030,-0.04913983,0.09616395,
 0.00819607,0.43447688,0.01369097,0.00758104,-0.00586373,-0.02567423,-0
 .07525587,0.01672474,-0.00208859,0.00785200,0.00067676,0.08528023,-0.2
 7661635,0.00053652,-0.07120839,0.33643918,0.02288858,0.00191374,-0.003
 06282,0.13433376,0.01428157,-0.08873513,-0.00035536,-0.00007512,0.0064
 7151,0.00962799,-0.00404591,-0.00314544,-0.16649497,-0.01207429,0.0884
 7188\\0.00011847,0.00001627,-0.00005202,-0.00014956,-0.00002726,0.0000
 6656,0.00002674,0.00000521,-0.00001194,-0.00016338,0.00040219,0.000015
 88,0.00016774,-0.00039640,-0.00001847\\\@


 BE CAREFUL NOT TO BECOME TOO GOOD OF A SONGBIRD OR 
 THEY'LL THROW YOU INTO A CAGE.

                                    -- SNOOPY TO WOODSTOCK
 Job cpu time:       0 days  0 hours 11 minutes 16.3 seconds.
 File lengths (MBytes):  RWF=     22 Int=      0 D2E=      0 Chk=      3 Scr=      1
 Normal termination of Gaussian 09 at Thu Mar  7 10:00:55 2019.
