 Entering Gaussian System, Link 0=/home/proyectos/fulerenos/M3C-v2.0/M3C-deps_CCC/g09-AM64L-G09RevC.01/g09
 Initial command:
 /home/proyectos/fulerenos/M3C-v2.0/M3C-deps_CCC/g09-AM64L-G09RevC.01/l1.exe "/scratch/naguirre/gaussian/Gau-26904.inp" -scrdir="/scratch/naguirre/gaussian/"
 Entering Link 1 = /home/proyectos/fulerenos/M3C-v2.0/M3C-deps_CCC/g09-AM64L-G09RevC.01/l1.exe PID=     26908.
  
 Copyright (c) 1988,1990,1992,1993,1995,1998,2003,2009,2015,
            Gaussian, Inc.  All Rights Reserved.
  
 This is part of the Gaussian(R) 09 program.  It is based on
 the Gaussian(R) 03 system (copyright 2003, Gaussian, Inc.),
 the Gaussian(R) 98 system (copyright 1998, Gaussian, Inc.),
 the Gaussian(R) 94 system (copyright 1995, Gaussian, Inc.),
 the Gaussian 92(TM) system (copyright 1992, Gaussian, Inc.),
 the Gaussian 90(TM) system (copyright 1990, Gaussian, Inc.),
 the Gaussian 88(TM) system (copyright 1988, Gaussian, Inc.),
 the Gaussian 86(TM) system (copyright 1986, Carnegie Mellon
 University), and the Gaussian 82(TM) system (copyright 1983,
 Carnegie Mellon University). Gaussian is a federally registered
 trademark of Gaussian, Inc.
  
 This software contains proprietary and confidential information,
 including trade secrets, belonging to Gaussian, Inc.
  
 This software is provided under written license and may be
 used, copied, transmitted, or stored only in accord with that
 written license.
  
 The following legend is applicable only to US Government
 contracts under FAR:
  
                    RESTRICTED RIGHTS LEGEND
  
 Use, reproduction and disclosure by the US Government is
 subject to restrictions as set forth in subparagraphs (a)
 and (c) of the Commercial Computer Software - Restricted
 Rights clause in FAR 52.227-19.
  
 Gaussian, Inc.
 340 Quinnipiac St., Bldg. 40, Wallingford CT 06492
  
  
 ---------------------------------------------------------------
 Warning -- This program may not be used in any manner that
 competes with the business of Gaussian, Inc. or will provide
 assistance to any competitor of Gaussian, Inc.  The licensee
 of this program is prohibited from giving any competitor of
 Gaussian, Inc. access to this program.  By using this program,
 the user acknowledges that Gaussian, Inc. is engaged in the
 business of creating and licensing software in the field of
 computational chemistry and represents and warrants to the
 licensee that it is not a competitor of Gaussian, Inc. and that
 it will not use this program in any manner prohibited above.
 ---------------------------------------------------------------
  

 Cite this work as:
 Gaussian 09, Revision E.01,
 M. J. Frisch, G. W. Trucks, H. B. Schlegel, G. E. Scuseria, 
 M. A. Robb, J. R. Cheeseman, G. Scalmani, V. Barone, B. Mennucci, 
 G. A. Petersson, H. Nakatsuji, M. Caricato, X. Li, H. P. Hratchian, 
 A. F. Izmaylov, J. Bloino, G. Zheng, J. L. Sonnenberg, M. Hada, 
 M. Ehara, K. Toyota, R. Fukuda, J. Hasegawa, M. Ishida, T. Nakajima, 
 Y. Honda, O. Kitao, H. Nakai, T. Vreven, J. A. Montgomery, Jr., 
 J. E. Peralta, F. Ogliaro, M. Bearpark, J. J. Heyd, E. Brothers, 
 K. N. Kudin, V. N. Staroverov, T. Keith, R. Kobayashi, J. Normand, 
 K. Raghavachari, A. Rendell, J. C. Burant, S. S. Iyengar, J. Tomasi, 
 M. Cossi, N. Rega, J. M. Millam, M. Klene, J. E. Knox, J. B. Cross, 
 V. Bakken, C. Adamo, J. Jaramillo, R. Gomperts, R. E. Stratmann, 
 O. Yazyev, A. J. Austin, R. Cammi, C. Pomelli, J. W. Ochterski, 
 R. L. Martin, K. Morokuma, V. G. Zakrzewski, G. A. Voth, 
 P. Salvador, J. J. Dannenberg, S. Dapprich, A. D. Daniels, 
 O. Farkas, J. B. Foresman, J. V. Ortiz, J. Cioslowski, 
 and D. J. Fox, Gaussian, Inc., Wallingford CT, 2013.
 
 ******************************************
 Gaussian 09:  EM64L-G09RevE.01 30-Nov-2015
                 7-Mar-2019 
 ******************************************
 %NProcShared=2
 Will use up to    2 processors via shared memory.
 ------------------------------------------------------
 #p b3lyp/6-311++G(3df,2p) freq IOp(2/17=3) IOp(2/18=3)
 ------------------------------------------------------
 1/10=4,30=1,38=1/1,3;
 2/12=2,17=3,18=3,40=1/2;
 3/5=4,6=6,7=1216,11=2,16=1,25=1,30=1,71=2,74=-5,140=1/1,2,3;
 4//1;
 5/5=2,38=5,98=1/2;
 8/6=4,10=90,11=11/1;
 11/6=1,8=1,9=11,15=111,16=1/1,2,10;
 10/6=1/2;
 6/7=2,8=2,9=2,10=2,18=1,28=1/1;
 7/8=1,10=1,25=1/1,2,3,16;
 1/10=4,30=1/3;
 99//99;
 Leave Link    1 at Thu Mar  7 10:15:16 2019, MaxMem=           0 cpu:         0.1
 (Enter /home/proyectos/fulerenos/M3C-v2.0/M3C-deps_CCC/g09-AM64L-G09RevC.01/l101.exe)
 ---------
 b3lyp opt
 ---------
 Symbolic Z-matrix:
 Charge = -1 Multiplicity = 4
 C                     0.81414  -0.5575    0.43476 
 C                    -0.01724   0.48839  -0.06292 
 H                     1.85575  -0.3699    0.68513 
 H                     0.43811  -1.56841   0.5791 
 O                    -1.17208   0.48482  -0.39152 
 
 NAtoms=      5 NQM=        5 NQMF=       0 NMMI=      0 NMMIF=      0
                NMic=       0 NMicF=      0.
                    Isotopes and Nuclear Properties:
 (Nuclear quadrupole moments (NQMom) in fm**2, nuclear magnetic moments (NMagM)
  in nuclear magnetons)

  Atom         1           2           3           4           5
 IAtWgt=          12          12           1           1          16
 AtmWgt=  12.0000000  12.0000000   1.0078250   1.0078250  15.9949146
 NucSpn=           0           0           1           1           0
 AtZEff=   0.0000000   0.0000000   0.0000000   0.0000000   0.0000000
 NQMom=    0.0000000   0.0000000   0.0000000   0.0000000   0.0000000
 NMagM=    0.0000000   0.0000000   2.7928460   2.7928460   0.0000000
 AtZNuc=   6.0000000   6.0000000   1.0000000   1.0000000   8.0000000
 Leave Link  101 at Thu Mar  7 10:15:16 2019, MaxMem=    33554432 cpu:         0.3
 (Enter /home/proyectos/fulerenos/M3C-v2.0/M3C-deps_CCC/g09-AM64L-G09RevC.01/l103.exe)

 GradGradGradGradGradGradGradGradGradGradGradGradGradGradGradGradGradGrad
 Berny optimization.
 Initialization pass.
 Trust Radius=3.00D-01 FncErr=1.00D-07 GrdErr=1.00D-07
 Number of steps in this run=      2 maximum allowed number of steps=      2.
 GradGradGradGradGradGradGradGradGradGradGradGradGradGradGradGradGradGrad

 Leave Link  103 at Thu Mar  7 10:15:16 2019, MaxMem=    33554432 cpu:         0.1
 (Enter /home/proyectos/fulerenos/M3C-v2.0/M3C-deps_CCC/g09-AM64L-G09RevC.01/l202.exe)
                          Input orientation:                          
 ---------------------------------------------------------------------
 Center     Atomic      Atomic             Coordinates (Angstroms)
 Number     Number       Type             X           Y           Z
 ---------------------------------------------------------------------
      1          6           0        0.814139   -0.557504    0.434758
      2          6           0       -0.017240    0.488394   -0.062919
      3          1           0        1.855752   -0.369902    0.685128
      4          1           0        0.438111   -1.568407    0.579101
      5          8           0       -1.172079    0.484822   -0.391515
 ---------------------------------------------------------------------
                    Distance matrix (angstroms):
                    1          2          3          4          5
     1  C    0.000000
     2  C    1.425755   0.000000
     3  H    1.087583   2.191882   0.000000
     4  H    1.088190   2.202264   1.859398   0.000000
     5  O    2.390446   1.200684   3.325278   2.783982   0.000000
 Stoichiometry    C2H2O(1-,4)
 Framework group  CS[SG(C2H2O)]
 Deg. of freedom     7
 Full point group                 CS      NOp   2
 Largest Abelian subgroup         CS      NOp   2
 Largest concise Abelian subgroup C1      NOp   1
                         Standard orientation:                         
 ---------------------------------------------------------------------
 Center     Atomic      Atomic             Coordinates (Angstroms)
 Number     Number       Type             X           Y           Z
 ---------------------------------------------------------------------
      1          6           0       -0.252760   -1.161070   -0.000000
      2          6           0        0.425287    0.093134    0.000000
      3          1           0        0.303920   -2.095385    0.000000
      4          1           0       -1.339082   -1.224807   -0.000000
      5          8           0        0.000000    1.215976    0.000000
 ---------------------------------------------------------------------
 Rotational constants (GHZ):    119.6025009     10.9395563     10.0228104
 Leave Link  202 at Thu Mar  7 10:15:16 2019, MaxMem=    33554432 cpu:         0.0
 (Enter /home/proyectos/fulerenos/M3C-v2.0/M3C-deps_CCC/g09-AM64L-G09RevC.01/l301.exe)
 Standard basis: 6-311++G(3df,2p) (5D, 7F)
 Ernie: Thresh=  0.10000D-02 Tol=  0.10000D-05 Strict=F.
 There are   109 symmetry adapted cartesian basis functions of A'  symmetry.
 There are    46 symmetry adapted cartesian basis functions of A"  symmetry.
 There are    94 symmetry adapted basis functions of A'  symmetry.
 There are    43 symmetry adapted basis functions of A"  symmetry.
   137 basis functions,   198 primitive gaussians,   155 cartesian basis functions
    13 alpha electrons       10 beta electrons
       nuclear repulsion energy        56.9482297823 Hartrees.
 IExCor=  402 DFT=T Ex+Corr=B3LYP ExCW=0 ScaHFX=  0.200000
 ScaDFX=  0.800000  0.720000  1.000000  0.810000 ScalE2=  1.000000  1.000000
 IRadAn=      0 IRanWt=     -1 IRanGd=            0 ICorTp=0 IEmpDi=  4
 NAtoms=    5 NActive=    5 NUniq=    5 SFac= 1.00D+00 NAtFMM=   60 NAOKFM=F Big=F
 Integral buffers will be    131072 words long.
 Raffenetti 2 integral format.
 Two-electron integral symmetry is turned on.
 Leave Link  301 at Thu Mar  7 10:15:16 2019, MaxMem=    33554432 cpu:         0.3
 (Enter /home/proyectos/fulerenos/M3C-v2.0/M3C-deps_CCC/g09-AM64L-G09RevC.01/l302.exe)
 NPDir=0 NMtPBC=     1 NCelOv=     1 NCel=       1 NClECP=     1 NCelD=      1
         NCelK=      1 NCelE2=     1 NClLst=     1 CellRange=     0.0.
 One-electron integrals computed using PRISM.
 NBasis=   137 RedAO= T EigKep=  9.52D-05  NBF=    94    43
 NBsUse=   137 1.00D-06 EigRej= -1.00D+00 NBFU=    94    43
 Precomputing XC quadrature grid using
 IXCGrd= 4 IRadAn=           0 IRanWt=          -1 IRanGd=           0 AccXCQ= 0.00D+00.
 Generated NRdTot=       0 NPtTot=           0 NUsed=           0 NTot=          32
 NSgBfM=   155   155   155   155   155 MxSgAt=     5 MxSgA2=     5.
 Leave Link  302 at Thu Mar  7 10:15:17 2019, MaxMem=    33554432 cpu:         0.7
 (Enter /home/proyectos/fulerenos/M3C-v2.0/M3C-deps_CCC/g09-AM64L-G09RevC.01/l303.exe)
 DipDrv:  MaxL=1.
 Leave Link  303 at Thu Mar  7 10:15:17 2019, MaxMem=    33554432 cpu:         0.2
 (Enter /home/proyectos/fulerenos/M3C-v2.0/M3C-deps_CCC/g09-AM64L-G09RevC.01/l401.exe)
 ExpMin= 3.60D-02 ExpMax= 8.59D+03 ExpMxC= 1.30D+03 IAcc=3 IRadAn=         5 AccDes= 0.00D+00
 Harris functional with IExCor=  402 and IRadAn=       5 diagonalized for initial guess.
 HarFok:  IExCor=  402 AccDes= 0.00D+00 IRadAn=         5 IDoV= 1 UseB2=F ITyADJ=14
 ICtDFT=  3500011 ScaDFX=  1.000000  1.000000  1.000000  1.000000
 FoFCou: FMM=F IPFlag=           0 FMFlag=      100000 FMFlg1=           0
         NFxFlg=           0 DoJE=T BraDBF=F KetDBF=T FulRan=T
         wScrn=  0.000000 ICntrl=     500 IOpCl=  0 I1Cent=   200000004 NGrid=           0
         NMat0=    1 NMatS0=      1 NMatT0=    0 NMatD0=    1 NMtDS0=    0 NMtDT0=    0
 Petite list used in FoFCou.
 Harris En= -152.620324035385    
 JPrj=0 DoOrth=F DoCkMO=F.
 Initial guess orbital symmetries:
 Alpha Orbitals:
       Occupied  (A') (A') (A') (A') (A') (A') (A') (A') (A") (A')
                 (A") (A') (A")
       Virtual   (A') (A') (A') (A") (A') (A') (A") (A') (A') (A')
                 (A') (A') (A") (A') (A') (A') (A") (A') (A') (A')
                 (A') (A") (A') (A") (A') (A") (A') (A") (A') (A')
                 (A') (A') (A") (A') (A') (A') (A') (A") (A") (A')
                 (A") (A") (A') (A') (A') (A') (A") (A') (A') (A')
                 (A') (A") (A') (A") (A') (A') (A") (A') (A') (A")
                 (A') (A') (A') (A') (A") (A') (A") (A") (A') (A")
                 (A') (A") (A') (A") (A') (A') (A') (A") (A') (A")
                 (A') (A') (A') (A') (A') (A") (A') (A") (A') (A")
                 (A") (A') (A') (A') (A") (A') (A") (A') (A') (A')
                 (A") (A') (A') (A") (A') (A') (A") (A") (A') (A")
                 (A') (A") (A') (A') (A') (A') (A") (A') (A") (A')
                 (A') (A') (A') (A')
 Beta  Orbitals:
       Occupied  (A') (A') (A') (A') (A') (A') (A') (A') (A") (A')
       Virtual   (A") (A') (A") (A') (A') (A') (A") (A') (A') (A")
                 (A') (A') (A') (A') (A') (A") (A') (A') (A') (A")
                 (A') (A') (A') (A') (A") (A') (A") (A') (A") (A')
                 (A") (A') (A') (A') (A') (A") (A') (A') (A') (A')
                 (A") (A") (A') (A") (A") (A') (A') (A') (A') (A")
                 (A') (A') (A') (A') (A") (A') (A") (A') (A') (A")
                 (A') (A') (A") (A') (A') (A') (A') (A") (A') (A")
                 (A") (A') (A") (A') (A") (A') (A") (A') (A') (A')
                 (A") (A') (A") (A') (A') (A') (A') (A') (A") (A')
                 (A") (A') (A") (A") (A') (A') (A') (A") (A') (A")
                 (A') (A') (A') (A") (A') (A') (A") (A') (A') (A")
                 (A") (A') (A") (A') (A") (A') (A') (A') (A') (A")
                 (A') (A") (A') (A') (A') (A') (A')
 The electronic state of the initial guess is 4-A'.
 Initial guess <Sx>= 0.0000 <Sy>= 0.0000 <Sz>= 1.5000 <S**2>= 3.7500 S= 1.5000
 Leave Link  401 at Thu Mar  7 10:15:18 2019, MaxMem=    33554432 cpu:         2.3
 (Enter /home/proyectos/fulerenos/M3C-v2.0/M3C-deps_CCC/g09-AM64L-G09RevC.01/l502.exe)
 UHF open shell SCF:
 Using DIIS extrapolation, IDIIS=  1040.
 Integral symmetry usage will be decided dynamically.
 IVT=       92714 IEndB=       92714 NGot=    33554432 MDV=    33502539
 LenX=    33502539 LenY=    33478073
 Requested convergence on RMS density matrix=1.00D-08 within 128 cycles.
 Requested convergence on MAX density matrix=1.00D-06.
 Requested convergence on             energy=1.00D-06.
 No special actions if energy rises.
 Fock matrices will be formed incrementally for  20 cycles.

 Cycle   1  Pass 1  IDiag  1:
 FoFJK:  IHMeth= 1 ICntrl=       0 DoSepK=F KAlg= 0 I1Cent=   0 FoldK=F
 IRaf= 990000000 NMat=   1 IRICut=       1 DoRegI=T DoRafI=F ISym2E= 1.
 FoFCou: FMM=F IPFlag=           0 FMFlag=      100000 FMFlg1=           0
         NFxFlg=           0 DoJE=F BraDBF=F KetDBF=F FulRan=T
         wScrn=  0.000000 ICntrl=       0 IOpCl=  1 I1Cent=           0 NGrid=           0
         NMat0=    1 NMatS0=      1 NMatT0=    0 NMatD0=    1 NMtDS0=    0 NMtDT0=    0
 Petite list used in FoFCou.
 E= -152.334435132930    
 DIIS: error= 2.92D-02 at cycle   1 NSaved=   1.
 NSaved= 1 IEnMin= 1 EnMin= -152.334435132930     IErMin= 1 ErrMin= 2.92D-02
 ErrMax= 2.92D-02  0.00D+00 EMaxC= 1.00D-01 BMatC= 6.41D-01 BMatP= 6.41D-01
 IDIUse=3 WtCom= 7.08D-01 WtEn= 2.92D-01
 Coeff-Com:  0.100D+01
 Coeff-En:   0.100D+01
 Coeff:      0.100D+01
 Gap=     0.017 Goal=   None    Shift=    0.000
 Gap=     0.159 Goal=   None    Shift=    0.000
 GapD=    0.017 DampG=0.250 DampE=0.500 DampFc=0.2500 IDamp=-1.
 Damping current iteration by 2.50D-01
 RMSDP=5.37D-01 MaxDP=3.91D+01              OVMax= 9.94D-01

 Cycle   2  Pass 1  IDiag  1:
 RMSU=  1.34D-01    CP:  1.47D+00
 E= -152.394733797588     Delta-E=       -0.060298664659 Rises=F Damp=T
 DIIS: error= 9.96D-03 at cycle   2 NSaved=   2.
 NSaved= 2 IEnMin= 2 EnMin= -152.394733797588     IErMin= 2 ErrMin= 9.96D-03
 ErrMax= 9.96D-03  0.00D+00 EMaxC= 1.00D-01 BMatC= 6.86D-02 BMatP= 6.41D-01
 IDIUse=3 WtCom= 9.00D-01 WtEn= 9.96D-02
 Coeff-Com: -0.193D+00 0.119D+01
 Coeff-En:   0.191D+00 0.809D+00
 Coeff:     -0.155D+00 0.116D+01
 Gap=    -0.013 Goal=   None    Shift=    0.000
 Gap=     0.272 Goal=   None    Shift=    0.000
 RMSDP=2.04D-01 MaxDP=1.62D+01 DE=-6.03D-02 OVMax= 9.03D-01

 Cycle   3  Pass 1  IDiag  1:
 RMSU=  2.03D-01    CP:  2.04D+00  8.37D-01
 E= -152.502082721372     Delta-E=       -0.107348923783 Rises=F Damp=F
 DIIS: error= 3.13D-02 at cycle   3 NSaved=   3.
 NSaved= 3 IEnMin= 3 EnMin= -152.502082721372     IErMin= 2 ErrMin= 9.96D-03
 ErrMax= 3.13D-02  0.00D+00 EMaxC= 1.00D-01 BMatC= 1.94D-01 BMatP= 6.86D-02
 IDIUse=2 WtCom= 0.00D+00 WtEn= 1.00D+00
 Coeff-En:   0.305D-01 0.000D+00 0.969D+00
 Coeff:      0.305D-01 0.000D+00 0.969D+00
 Gap=     0.019 Goal=   None    Shift=    0.000
 Gap=     0.158 Goal=   None    Shift=    0.000
 RMSDP=9.34D-02 MaxDP=1.07D+01 DE=-1.07D-01 OVMax= 3.53D-01

 Cycle   4  Pass 1  IDiag  1:
 RMSU=  1.55D-02    CP:  1.61D+00  4.83D-01  6.12D-01
 E= -152.268133142620     Delta-E=        0.233949578752 Rises=F Damp=F
 DIIS: error= 7.96D-02 at cycle   4 NSaved=   4.
 NSaved= 4 IEnMin= 3 EnMin= -152.502082721372     IErMin= 2 ErrMin= 9.96D-03
 ErrMax= 7.96D-02  0.00D+00 EMaxC= 1.00D-01 BMatC= 1.38D+00 BMatP= 6.86D-02
 IDIUse=2 WtCom= 0.00D+00 WtEn= 1.00D+00
 Coeff-En:   0.000D+00 0.000D+00 0.803D+00 0.197D+00
 Coeff:      0.000D+00 0.000D+00 0.803D+00 0.197D+00
 Gap=     0.023 Goal=   None    Shift=    0.000
 Gap=     0.182 Goal=   None    Shift=    0.000
 RMSDP=1.52D-02 MaxDP=1.22D+00 DE= 2.34D-01 OVMax= 2.07D-01

 Cycle   5  Pass 1  IDiag  1:
 RMSU=  1.12D-02    CP:  1.58D+00  4.80D-01  6.29D-01  1.62D+00
 E= -152.534571860522     Delta-E=       -0.266438717902 Rises=F Damp=F
 DIIS: error= 1.93D-02 at cycle   5 NSaved=   5.
 NSaved= 5 IEnMin= 5 EnMin= -152.534571860522     IErMin= 2 ErrMin= 9.96D-03
 ErrMax= 1.93D-02  0.00D+00 EMaxC= 1.00D-01 BMatC= 7.88D-02 BMatP= 6.86D-02
 IDIUse=2 WtCom= 0.00D+00 WtEn= 1.00D+00
 Coeff-En:   0.000D+00 0.000D+00 0.291D+00 0.000D+00 0.709D+00
 Coeff:      0.000D+00 0.000D+00 0.291D+00 0.000D+00 0.709D+00
 Gap=     0.036 Goal=   None    Shift=    0.000
 Gap=     0.225 Goal=   None    Shift=    0.000
 RMSDP=5.94D-03 MaxDP=4.97D-01 DE=-2.66D-01 OVMax= 8.89D-02

 Cycle   6  Pass 1  IDiag  1:
 RMSU=  4.73D-03    CP:  1.54D+00  4.91D-01  6.43D-01  1.63D+00  1.14D+00
 E= -152.546972340417     Delta-E=       -0.012400479895 Rises=F Damp=F
 DIIS: error= 1.05D-02 at cycle   6 NSaved=   6.
 NSaved= 6 IEnMin= 6 EnMin= -152.546972340417     IErMin= 2 ErrMin= 9.96D-03
 ErrMax= 1.05D-02  0.00D+00 EMaxC= 1.00D-01 BMatC= 2.44D-02 BMatP= 6.86D-02
 IDIUse=3 WtCom= 8.95D-01 WtEn= 1.05D-01
 Coeff-Com: -0.357D-01 0.125D-01-0.536D-01 0.182D-01 0.265D+00 0.793D+00
 Coeff-En:   0.000D+00 0.000D+00 0.000D+00 0.000D+00 0.269D+00 0.731D+00
 Coeff:     -0.319D-01 0.112D-01-0.480D-01 0.163D-01 0.266D+00 0.787D+00
 Gap=     0.038 Goal=   None    Shift=    0.000
 Gap=     0.213 Goal=   None    Shift=    0.000
 RMSDP=1.05D-02 MaxDP=1.20D+00 DE=-1.24D-02 OVMax= 3.74D-02

 Cycle   7  Pass 1  IDiag  1:
 RMSU=  2.61D-03    CP:  1.48D+00  4.56D-01  6.04D-01  1.59D+00  8.27D-01
                    CP:  1.50D+00
 E= -152.551794897633     Delta-E=       -0.004822557216 Rises=F Damp=F
 DIIS: error= 1.25D-03 at cycle   7 NSaved=   7.
 NSaved= 7 IEnMin= 7 EnMin= -152.551794897633     IErMin= 7 ErrMin= 1.25D-03
 ErrMax= 1.25D-03  0.00D+00 EMaxC= 1.00D-01 BMatC= 5.29D-04 BMatP= 2.44D-02
 IDIUse=3 WtCom= 9.87D-01 WtEn= 1.25D-02
 Coeff-Com: -0.297D-01 0.411D-01-0.188D-01-0.138D-01 0.153D+00 0.308D+00
 Coeff-Com:  0.560D+00
 Coeff-En:   0.000D+00 0.000D+00 0.000D+00 0.000D+00 0.000D+00 0.000D+00
 Coeff-En:   0.100D+01
 Coeff:     -0.293D-01 0.406D-01-0.185D-01-0.136D-01 0.151D+00 0.304D+00
 Coeff:      0.565D+00
 Gap=     0.037 Goal=   None    Shift=    0.000
 Gap=     0.213 Goal=   None    Shift=    0.000
 RMSDP=2.27D-03 MaxDP=1.72D-01 DE=-4.82D-03 OVMax= 8.12D-03

 Cycle   8  Pass 1  IDiag  1:
 RMSU=  2.20D-04    CP:  1.49D+00  4.60D-01  6.08D-01  1.63D+00  9.48D-01
                    CP:  1.31D+00  5.91D-01
 E= -152.551924686818     Delta-E=       -0.000129789184 Rises=F Damp=F
 DIIS: error= 5.26D-04 at cycle   8 NSaved=   8.
 NSaved= 8 IEnMin= 8 EnMin= -152.551924686818     IErMin= 8 ErrMin= 5.26D-04
 ErrMax= 5.26D-04  0.00D+00 EMaxC= 1.00D-01 BMatC= 4.77D-05 BMatP= 5.29D-04
 IDIUse=3 WtCom= 9.95D-01 WtEn= 5.26D-03
 Coeff-Com: -0.440D-02 0.726D-02-0.116D-01 0.299D-02-0.421D-01-0.261D-01
 Coeff-Com:  0.112D+00 0.962D+00
 Coeff-En:   0.000D+00 0.000D+00 0.000D+00 0.000D+00 0.000D+00 0.000D+00
 Coeff-En:   0.000D+00 0.100D+01
 Coeff:     -0.438D-02 0.722D-02-0.116D-01 0.298D-02-0.419D-01-0.260D-01
 Coeff:      0.111D+00 0.962D+00
 Gap=     0.037 Goal=   None    Shift=    0.000
 Gap=     0.213 Goal=   None    Shift=    0.000
 RMSDP=1.69D-03 MaxDP=1.40D-01 DE=-1.30D-04 OVMax= 3.81D-03

 Cycle   9  Pass 1  IDiag  1:
 RMSU=  3.36D-04    CP:  1.49D+00  4.56D-01  6.01D-01  1.64D+00  9.88D-01
                    CP:  1.30D+00  3.81D-01  8.92D-01
 E= -152.551943036333     Delta-E=       -0.000018349516 Rises=F Damp=F
 DIIS: error= 1.02D-04 at cycle   9 NSaved=   9.
 NSaved= 9 IEnMin= 9 EnMin= -152.551943036333     IErMin= 9 ErrMin= 1.02D-04
 ErrMax= 1.02D-04  0.00D+00 EMaxC= 1.00D-01 BMatC= 2.56D-06 BMatP= 4.77D-05
 IDIUse=3 WtCom= 9.99D-01 WtEn= 1.02D-03
 Coeff-Com:  0.131D-02-0.884D-03-0.280D-02 0.144D-02-0.225D-01-0.298D-01
 Coeff-Com: -0.145D-01 0.191D+00 0.877D+00
 Coeff-En:   0.000D+00 0.000D+00 0.000D+00 0.000D+00 0.000D+00 0.000D+00
 Coeff-En:   0.000D+00 0.000D+00 0.100D+01
 Coeff:      0.131D-02-0.883D-03-0.280D-02 0.143D-02-0.225D-01-0.298D-01
 Coeff:     -0.145D-01 0.191D+00 0.877D+00
 Gap=     0.037 Goal=   None    Shift=    0.000
 Gap=     0.213 Goal=   None    Shift=    0.000
 RMSDP=6.06D-04 MaxDP=4.85D-02 DE=-1.83D-05 OVMax= 1.83D-03

 Cycle  10  Pass 1  IDiag  1:
 RMSU=  5.81D-05    CP:  1.49D+00  4.55D-01  6.00D-01  1.63D+00  9.63D-01
                    CP:  1.33D+00  3.69D-01  5.47D-01  1.57D+00
 E= -152.551944733606     Delta-E=       -0.000001697273 Rises=F Damp=F
 DIIS: error= 6.64D-05 at cycle  10 NSaved=  10.
 NSaved=10 IEnMin=10 EnMin= -152.551944733606     IErMin=10 ErrMin= 6.64D-05
 ErrMax= 6.64D-05  0.00D+00 EMaxC= 1.00D-01 BMatC= 9.67D-07 BMatP= 2.56D-06
 IDIUse=1 WtCom= 1.00D+00 WtEn= 0.00D+00
 Coeff-Com:  0.982D-03-0.136D-02 0.661D-03-0.126D-02 0.354D-02-0.257D-02
 Coeff-Com: -0.102D-01-0.744D-01 0.162D+00 0.922D+00
 Coeff:      0.982D-03-0.136D-02 0.661D-03-0.126D-02 0.354D-02-0.257D-02
 Coeff:     -0.102D-01-0.744D-01 0.162D+00 0.922D+00
 Gap=     0.037 Goal=   None    Shift=    0.000
 Gap=     0.213 Goal=   None    Shift=    0.000
 RMSDP=2.74D-04 MaxDP=2.37D-02 DE=-1.70D-06 OVMax= 1.13D-03

 Cycle  11  Pass 1  IDiag  1:
 RMSU=  1.77D-05    CP:  1.49D+00  4.54D-01  5.99D-01  1.63D+00  9.76D-01
                    CP:  1.32D+00  3.18D-01  4.73D-01  1.78D+00  9.69D-01
 E= -152.551945200085     Delta-E=       -0.000000466478 Rises=F Damp=F
 DIIS: error= 4.08D-05 at cycle  11 NSaved=  11.
 NSaved=11 IEnMin=11 EnMin= -152.551945200085     IErMin=11 ErrMin= 4.08D-05
 ErrMax= 4.08D-05  0.00D+00 EMaxC= 1.00D-01 BMatC= 2.05D-07 BMatP= 9.67D-07
 IDIUse=1 WtCom= 1.00D+00 WtEn= 0.00D+00
 Coeff-Com: -0.509D-04 0.157D-03 0.429D-03-0.601D-03 0.389D-02 0.512D-02
 Coeff-Com:  0.148D-02-0.332D-01-0.152D+00 0.937D-01 0.108D+01
 Coeff:     -0.509D-04 0.157D-03 0.429D-03-0.601D-03 0.389D-02 0.512D-02
 Coeff:      0.148D-02-0.332D-01-0.152D+00 0.937D-01 0.108D+01
 Gap=     0.037 Goal=   None    Shift=    0.000
 Gap=     0.213 Goal=   None    Shift=    0.000
 RMSDP=9.52D-05 MaxDP=6.43D-03 DE=-4.66D-07 OVMax= 2.41D-04

 Cycle  12  Pass 1  IDiag  1:
 RMSU=  1.11D-05    CP:  1.49D+00  4.55D-01  5.99D-01  1.63D+00  9.75D-01
                    CP:  1.32D+00  3.01D-01  4.08D-01  1.86D+00  1.15D+00
                    CP:  1.74D+00
 E= -152.551945289279     Delta-E=       -0.000000089194 Rises=F Damp=F
 DIIS: error= 5.26D-06 at cycle  12 NSaved=  12.
 NSaved=12 IEnMin=12 EnMin= -152.551945289279     IErMin=12 ErrMin= 5.26D-06
 ErrMax= 5.26D-06  0.00D+00 EMaxC= 1.00D-01 BMatC= 5.90D-09 BMatP= 2.05D-07
 IDIUse=1 WtCom= 1.00D+00 WtEn= 0.00D+00
 Coeff-Com: -0.693D-04 0.113D-03 0.879D-05 0.237D-04-0.914D-04 0.141D-03
 Coeff-Com: -0.635D-03 0.252D-02-0.234D-01-0.740D-01 0.906D-01 0.100D+01
 Coeff:     -0.693D-04 0.113D-03 0.879D-05 0.237D-04-0.914D-04 0.141D-03
 Coeff:     -0.635D-03 0.252D-02-0.234D-01-0.740D-01 0.906D-01 0.100D+01
 Gap=     0.037 Goal=   None    Shift=    0.000
 Gap=     0.213 Goal=   None    Shift=    0.000
 RMSDP=2.28D-05 MaxDP=2.36D-03 DE=-8.92D-08 OVMax= 8.27D-05

 Cycle  13  Pass 1  IDiag  1:
 RMSU=  1.39D-06    CP:  1.49D+00  4.55D-01  5.99D-01  1.63D+00  9.76D-01
                    CP:  1.32D+00  2.97D-01  4.12D-01  1.86D+00  1.13D+00
                    CP:  1.97D+00  1.27D+00
 E= -152.551945294438     Delta-E=       -0.000000005160 Rises=F Damp=F
 DIIS: error= 2.11D-06 at cycle  13 NSaved=  13.
 NSaved=13 IEnMin=13 EnMin= -152.551945294438     IErMin=13 ErrMin= 2.11D-06
 ErrMax= 2.11D-06  0.00D+00 EMaxC= 1.00D-01 BMatC= 8.14D-10 BMatP= 5.90D-09
 IDIUse=1 WtCom= 1.00D+00 WtEn= 0.00D+00
 Coeff-Com: -0.165D-04 0.230D-04-0.330D-04 0.227D-04-0.126D-03-0.294D-03
 Coeff-Com: -0.565D-03 0.822D-03 0.996D-02 0.224D-02-0.806D-01-0.112D-01
 Coeff-Com:  0.108D+01
 Coeff:     -0.165D-04 0.230D-04-0.330D-04 0.227D-04-0.126D-03-0.294D-03
 Coeff:     -0.565D-03 0.822D-03 0.996D-02 0.224D-02-0.806D-01-0.112D-01
 Coeff:      0.108D+01
 Gap=     0.037 Goal=   None    Shift=    0.000
 Gap=     0.213 Goal=   None    Shift=    0.000
 RMSDP=1.00D-05 MaxDP=1.22D-03 DE=-5.16D-09 OVMax= 2.70D-05

 Cycle  14  Pass 1  IDiag  1:
 RMSU=  2.78D-07    CP:  1.49D+00  4.55D-01  5.99D-01  1.63D+00  9.76D-01
                    CP:  1.32D+00  2.97D-01  4.18D-01  1.85D+00  1.13D+00
                    CP:  2.01D+00  1.39D+00  1.50D+00
 E= -152.551945294910     Delta-E=       -0.000000000472 Rises=F Damp=F
 DIIS: error= 4.83D-07 at cycle  14 NSaved=  14.
 NSaved=14 IEnMin=14 EnMin= -152.551945294910     IErMin=14 ErrMin= 4.83D-07
 ErrMax= 4.83D-07  0.00D+00 EMaxC= 1.00D-01 BMatC= 4.19D-11 BMatP= 8.14D-10
 IDIUse=1 WtCom= 1.00D+00 WtEn= 0.00D+00
 Coeff-Com: -0.120D-05 0.616D-06-0.417D-05-0.366D-05 0.342D-04 0.261D-04
 Coeff-Com: -0.523D-04-0.375D-03 0.146D-02 0.614D-02-0.794D-02-0.686D-01
 Coeff-Com: -0.239D-01 0.109D+01
 Coeff:     -0.120D-05 0.616D-06-0.417D-05-0.366D-05 0.342D-04 0.261D-04
 Coeff:     -0.523D-04-0.375D-03 0.146D-02 0.614D-02-0.794D-02-0.686D-01
 Coeff:     -0.239D-01 0.109D+01
 Gap=     0.037 Goal=   None    Shift=    0.000
 Gap=     0.213 Goal=   None    Shift=    0.000
 RMSDP=3.02D-06 MaxDP=2.91D-04 DE=-4.72D-10 OVMax= 6.83D-06

 Cycle  15  Pass 1  IDiag  1:
 RMSU=  6.40D-08    CP:  1.49D+00  4.55D-01  5.99D-01  1.63D+00  9.76D-01
                    CP:  1.32D+00  2.97D-01  4.20D-01  1.85D+00  1.12D+00
                    CP:  2.01D+00  1.41D+00  1.67D+00  1.56D+00
 E= -152.551945294939     Delta-E=       -0.000000000030 Rises=F Damp=F
 DIIS: error= 7.58D-08 at cycle  15 NSaved=  15.
 NSaved=15 IEnMin=15 EnMin= -152.551945294939     IErMin=15 ErrMin= 7.58D-08
 ErrMax= 7.58D-08  0.00D+00 EMaxC= 1.00D-01 BMatC= 2.14D-12 BMatP= 4.19D-11
 IDIUse=1 WtCom= 1.00D+00 WtEn= 0.00D+00
 Coeff-Com:  0.419D-06-0.997D-06 0.255D-05-0.144D-05 0.809D-05 0.139D-04
 Coeff-Com:  0.263D-04-0.870D-04-0.430D-03 0.213D-03 0.416D-02-0.202D-02
 Coeff-Com: -0.707D-01 0.684D-01 0.100D+01
 Coeff:      0.419D-06-0.997D-06 0.255D-05-0.144D-05 0.809D-05 0.139D-04
 Coeff:      0.263D-04-0.870D-04-0.430D-03 0.213D-03 0.416D-02-0.202D-02
 Coeff:     -0.707D-01 0.684D-01 0.100D+01
 Gap=     0.037 Goal=   None    Shift=    0.000
 Gap=     0.213 Goal=   None    Shift=    0.000
 RMSDP=5.63D-07 MaxDP=3.90D-05 DE=-2.95D-11 OVMax= 1.36D-06

 Cycle  16  Pass 1  IDiag  1:
 RMSU=  1.86D-08    CP:  1.49D+00  4.55D-01  5.99D-01  1.63D+00  9.76D-01
                    CP:  1.32D+00  2.97D-01  4.20D-01  1.85D+00  1.12D+00
                    CP:  2.01D+00  1.41D+00  1.69D+00  1.71D+00  1.36D+00
 E= -152.551945294944     Delta-E=       -0.000000000004 Rises=F Damp=F
 DIIS: error= 1.79D-08 at cycle  16 NSaved=  16.
 NSaved=16 IEnMin=16 EnMin= -152.551945294944     IErMin=16 ErrMin= 1.79D-08
 ErrMax= 1.79D-08  0.00D+00 EMaxC= 1.00D-01 BMatC= 1.50D-13 BMatP= 2.14D-12
 IDIUse=1 WtCom= 1.00D+00 WtEn= 0.00D+00
 Coeff-Com:  0.327D-06-0.458D-06 0.107D-05 0.104D-06-0.189D-05-0.269D-05
 Coeff-Com:  0.113D-04 0.783D-05-0.136D-03-0.256D-03 0.625D-03 0.486D-02
 Coeff-Com: -0.335D-02-0.756D-01 0.147D-01 0.106D+01
 Coeff:      0.327D-06-0.458D-06 0.107D-05 0.104D-06-0.189D-05-0.269D-05
 Coeff:      0.113D-04 0.783D-05-0.136D-03-0.256D-03 0.625D-03 0.486D-02
 Coeff:     -0.335D-02-0.756D-01 0.147D-01 0.106D+01
 Gap=     0.037 Goal=   None    Shift=    0.000
 Gap=     0.213 Goal=   None    Shift=    0.000
 RMSDP=2.32D-07 MaxDP=2.35D-05 DE=-4.09D-12 OVMax= 7.11D-07

 Cycle  17  Pass 1  IDiag  1:
 RMSU=  3.28D-09    CP:  1.49D+00  4.55D-01  5.99D-01  1.63D+00  9.76D-01
                    CP:  1.32D+00  2.97D-01  4.20D-01  1.85D+00  1.12D+00
                    CP:  2.01D+00  1.41D+00  1.69D+00  1.74D+00  1.47D+00
                    CP:  1.31D+00
 E= -152.551945294942     Delta-E=        0.000000000001 Rises=F Damp=F
 DIIS: error= 8.45D-09 at cycle  17 NSaved=  17.
 NSaved=17 IEnMin=16 EnMin= -152.551945294944     IErMin=17 ErrMin= 8.45D-09
 ErrMax= 8.45D-09  0.00D+00 EMaxC= 1.00D-01 BMatC= 2.65D-14 BMatP= 1.50D-13
 IDIUse=1 WtCom= 1.00D+00 WtEn= 0.00D+00
 Coeff-Com:  0.343D-07-0.255D-07-0.204D-06 0.414D-07-0.274D-06-0.463D-07
 Coeff-Com: -0.618D-06 0.540D-05 0.413D-04-0.282D-04-0.230D-03-0.368D-03
 Coeff-Com:  0.433D-02 0.366D-02-0.566D-01-0.640D-01 0.111D+01
 Coeff:      0.343D-07-0.255D-07-0.204D-06 0.414D-07-0.274D-06-0.463D-07
 Coeff:     -0.618D-06 0.540D-05 0.413D-04-0.282D-04-0.230D-03-0.368D-03
 Coeff:      0.433D-02 0.366D-02-0.566D-01-0.640D-01 0.111D+01
 Gap=     0.037 Goal=   None    Shift=    0.000
 Gap=     0.213 Goal=   None    Shift=    0.000
 RMSDP=8.27D-08 MaxDP=1.11D-05 DE= 1.36D-12 OVMax= 1.18D-07

 Cycle  18  Pass 1  IDiag  1:
 RMSU=  1.48D-09    CP:  1.49D+00  4.55D-01  5.99D-01  1.63D+00  9.76D-01
                    CP:  1.32D+00  2.97D-01  4.20D-01  1.85D+00  1.12D+00
                    CP:  2.01D+00  1.41D+00  1.68D+00  1.73D+00  1.46D+00
                    CP:  1.41D+00  1.36D+00
 E= -152.551945294942     Delta-E=       -0.000000000000 Rises=F Damp=F
 DIIS: error= 1.53D-09 at cycle  18 NSaved=  18.
 NSaved=18 IEnMin=16 EnMin= -152.551945294944     IErMin=18 ErrMin= 1.53D-09
 ErrMax= 1.53D-09  0.00D+00 EMaxC= 1.00D-01 BMatC= 5.10D-16 BMatP= 2.65D-14
 IDIUse=1 WtCom= 1.00D+00 WtEn= 0.00D+00
 Large coefficients: NSaved= 18 BigCof=    0.00 CofMax=   10.00 Det=-1.20D-15
 Inversion failed.  Reducing to 17 matrices.
 Large coefficients: NSaved= 17 BigCof=    0.00 CofMax=   10.00 Det=-1.21D-15
 Inversion failed.  Reducing to 16 matrices.
 Large coefficients: NSaved= 16 BigCof=    0.00 CofMax=   10.00 Det=-1.21D-15
 Inversion failed.  Reducing to 15 matrices.
 Coeff-Com: -0.287D-07 0.413D-07-0.184D-07-0.110D-06-0.119D-05 0.224D-05
 Coeff-Com:  0.124D-04 0.159D-04-0.151D-03-0.592D-03 0.230D-02 0.980D-02
 Coeff-Com: -0.296D-01-0.172D+00 0.119D+01
 Coeff:     -0.287D-07 0.413D-07-0.184D-07-0.110D-06-0.119D-05 0.224D-05
 Coeff:      0.124D-04 0.159D-04-0.151D-03-0.592D-03 0.230D-02 0.980D-02
 Coeff:     -0.296D-01-0.172D+00 0.119D+01
 Gap=     0.037 Goal=   None    Shift=    0.000
 Gap=     0.213 Goal=   None    Shift=    0.000
 RMSDP=1.84D-08 MaxDP=2.44D-06 DE=-5.68D-14 OVMax= 3.59D-08

 Cycle  19  Pass 1  IDiag  1:
 RMSU=  2.18D-10    CP:  1.49D+00  4.55D-01  5.99D-01  1.63D+00  9.76D-01
                    CP:  1.32D+00  2.97D-01  4.20D-01  1.85D+00  1.12D+00
                    CP:  2.01D+00  1.41D+00  1.68D+00  1.72D+00  1.45D+00
                    CP:  1.42D+00  1.45D+00  1.36D+00
 E= -152.551945294943     Delta-E=       -0.000000000001 Rises=F Damp=F
 DIIS: error= 1.91D-10 at cycle  19 NSaved=  16.
 NSaved=16 IEnMin=13 EnMin= -152.551945294944     IErMin=16 ErrMin= 1.91D-10
 ErrMax= 1.91D-10  0.00D+00 EMaxC= 1.00D-01 BMatC= 1.57D-17 BMatP= 5.10D-16
 IDIUse=1 WtCom= 1.00D+00 WtEn= 0.00D+00
 Large coefficients: NSaved= 16 BigCof=    0.00 CofMax=   10.00 Det=-5.67D-17
 Inversion failed.  Reducing to 15 matrices.
 Coeff-Com: -0.552D-08-0.650D-08 0.513D-08-0.299D-06-0.565D-06 0.110D-05
 Coeff-Com:  0.945D-05-0.371D-05-0.169D-03 0.693D-04 0.162D-02 0.342D-03
 Coeff-Com: -0.435D-01 0.213D-01 0.102D+01
 Coeff:     -0.552D-08-0.650D-08 0.513D-08-0.299D-06-0.565D-06 0.110D-05
 Coeff:      0.945D-05-0.371D-05-0.169D-03 0.693D-04 0.162D-02 0.342D-03
 Coeff:     -0.435D-01 0.213D-01 0.102D+01
 Gap=     0.037 Goal=   None    Shift=    0.000
 Gap=     0.213 Goal=   None    Shift=    0.000
 RMSDP=1.72D-09 MaxDP=2.07D-07 DE=-6.82D-13 OVMax= 3.80D-09

 SCF Done:  E(UB3LYP) =  -152.551945295     A.U. after   19 cycles
            NFock= 19  Conv=0.17D-08     -V/T= 2.0033
 <Sx>= 0.0000 <Sy>= 0.0000 <Sz>= 1.5000 <S**2>= 3.7589 S= 1.5022
 <L.S>= 0.000000000000E+00
 KE= 1.520539070915D+02 PE=-4.742676247830D+02 EE= 1.127135426142D+02
 Annihilation of the first spin contaminant:
 S**2 before annihilation     3.7589,   after     3.7500
 Leave Link  502 at Thu Mar  7 10:16:27 2019, MaxMem=    33554432 cpu:       138.6
 (Enter /home/proyectos/fulerenos/M3C-v2.0/M3C-deps_CCC/g09-AM64L-G09RevC.01/l801.exe)
 DoSCS=F DFT=T ScalE2(SS,OS)=  1.000000  1.000000
 Range of M.O.s used for correlation:     1   137
 NBasis=   137 NAE=    13 NBE=    10 NFC=     0 NFV=     0
 NROrb=    137 NOA=    13 NOB=    10 NVA=   124 NVB=   127

 **** Warning!!: The largest alpha MO coefficient is  0.40053824D+02


 **** Warning!!: The smallest alpha delta epsilon is  0.37271874D-01


 **** Warning!!: The largest beta MO coefficient is  0.42061756D+02

 Leave Link  801 at Thu Mar  7 10:16:27 2019, MaxMem=    33554432 cpu:         0.1
 (Enter /home/proyectos/fulerenos/M3C-v2.0/M3C-deps_CCC/g09-AM64L-G09RevC.01/l1101.exe)
 Using compressed storage, NAtomX=     5.
 Will process      6 centers per pass.
 Leave Link 1101 at Thu Mar  7 10:16:28 2019, MaxMem=    33554432 cpu:         1.0
 (Enter /home/proyectos/fulerenos/M3C-v2.0/M3C-deps_CCC/g09-AM64L-G09RevC.01/l1102.exe)
 Symmetrizing basis deriv contribution to polar:
 IMax=3 JMax=2 DiffMx= 0.00D+00
 Leave Link 1102 at Thu Mar  7 10:16:28 2019, MaxMem=    33554432 cpu:         0.2
 (Enter /home/proyectos/fulerenos/M3C-v2.0/M3C-deps_CCC/g09-AM64L-G09RevC.01/l1110.exe)
 Forming Gx(P) for the SCF density, NAtomX=     5.
 Integral derivatives from FoFJK, PRISM(SPDF).
 Do as many integral derivatives as possible in FoFJK.
 G2DrvN: MDV=      33554288.
 G2DrvN: will do     6 centers at a time, making    1 passes.
 Calling FoFCou, ICntrl=  3107 FMM=F I1Cent=   0 AccDes= 0.00D+00.
 FoFJK:  IHMeth= 1 ICntrl=    3107 DoSepK=F KAlg= 0 I1Cent=   0 FoldK=F
 IRaf=         0 NMat=   1 IRICut=       1 DoRegI=T DoRafI=F ISym2E= 1.
 FoFCou: FMM=F IPFlag=           0 FMFlag=      100000 FMFlg1=           0
         NFxFlg=           0 DoJE=F BraDBF=F KetDBF=F FulRan=T
         wScrn=  0.000000 ICntrl=    3107 IOpCl=  1 I1Cent=           0 NGrid=           0
         NMat0=    1 NMatS0=      1 NMatT0=    0 NMatD0=    1 NMtDS0=    0 NMtDT0=    0
 Petite list used in FoFCou.
 End of G2Drv F.D. properties file   721 does not exist.
 End of G2Drv F.D. properties file   722 does not exist.
 End of G2Drv F.D. properties file   788 does not exist.
 Leave Link 1110 at Thu Mar  7 10:17:16 2019, MaxMem=    33554432 cpu:        95.4
 (Enter /home/proyectos/fulerenos/M3C-v2.0/M3C-deps_CCC/g09-AM64L-G09RevC.01/l1002.exe)
 Minotr:  UHF open shell wavefunction.
          IDoAtm=11111
          Direct CPHF calculation.
          Differentiating once with respect to electric field.
                with respect to dipole field.
          Differentiating once with respect to nuclear coordinates.
          Using symmetry in CPHF.
          Requested convergence is 1.0D-08 RMS, and 1.0D-07 maximum.
          Secondary convergence is 1.0D-12 RMS, and 1.0D-12 maximum.
          NewPWx=T KeepS1=F KeepF1=F KeepIn=T MapXYZ=F SortEE=F KeepMc=T.
          MDV=      33554104 using IRadAn=       2.
 Generate precomputed XC quadrature information.
          Solving linear equations simultaneously, MaxMat=       0.
 FoFJK:  IHMeth= 1 ICntrl=       0 DoSepK=F KAlg= 0 I1Cent=   0 FoldK=F
 IRaf= 990000000 NMat=  18 IRICut=      45 DoRegI=T DoRafI=T ISym2E= 2.
 FoFCou: FMM=F IPFlag=           0 FMFlag=      100000 FMFlg1=           0
         NFxFlg=           0 DoJE=F BraDBF=F KetDBF=F FulRan=T
         wScrn=  0.000000 ICntrl=       0 IOpCl=  1 I1Cent=           0 NGrid=           0
         NMat0=   18 NMatS0=     18 NMatT0=    0 NMatD0=   18 NMtDS0=    0 NMtDT0=    0
 Integrals replicated using symmetry in FoFCou.
          There are    18 degrees of freedom in the 1st order CPHF.  IDoFFX=6 NUNeed=     3.
     15 vectors produced by pass  0 Test12= 1.60D-14 5.56D-09 XBig12= 1.17D+04 1.07D+02.
 AX will form    15 AO Fock derivatives at one time.
     15 vectors produced by pass  1 Test12= 1.60D-14 5.56D-09 XBig12= 3.22D+02 7.15D+00.
     15 vectors produced by pass  2 Test12= 1.60D-14 5.56D-09 XBig12= 1.13D+01 7.90D-01.
     15 vectors produced by pass  3 Test12= 1.60D-14 5.56D-09 XBig12= 4.43D-01 2.32D-01.
     15 vectors produced by pass  4 Test12= 1.60D-14 5.56D-09 XBig12= 6.30D-03 1.10D-02.
     15 vectors produced by pass  5 Test12= 1.60D-14 5.56D-09 XBig12= 5.59D-05 1.45D-03.
     15 vectors produced by pass  6 Test12= 1.60D-14 5.56D-09 XBig12= 3.92D-07 8.48D-05.
     10 vectors produced by pass  7 Test12= 1.60D-14 5.56D-09 XBig12= 1.91D-09 5.49D-06.
      3 vectors produced by pass  8 Test12= 1.60D-14 5.56D-09 XBig12= 1.16D-11 4.73D-07.
      3 vectors produced by pass  9 Test12= 1.60D-14 5.56D-09 XBig12= 6.89D-14 5.05D-08.
      3 vectors produced by pass 10 Test12= 1.60D-14 5.56D-09 XBig12= 7.95D-15 2.26D-08.
 InvSVY:  IOpt=1 It=  1 EMax= 5.55D-16
 Solved reduced A of dimension   124 with    15 vectors.
 FullF1:  Do perturbations    1 to     3.
 Isotropic polarizability for W=    0.000000      500.09 Bohr**3.
 End of Minotr F.D. properties file   721 does not exist.
 End of Minotr F.D. properties file   722 does not exist.
 End of Minotr F.D. properties file   788 does not exist.
 Leave Link 1002 at Thu Mar  7 10:19:09 2019, MaxMem=    33554432 cpu:       225.3
 (Enter /home/proyectos/fulerenos/M3C-v2.0/M3C-deps_CCC/g09-AM64L-G09RevC.01/l601.exe)
 Copying SCF densities to generalized density rwf, IOpCl= 1 IROHF=0.

 **********************************************************************

            Population analysis using the SCF density.

 **********************************************************************

 Orbital symmetries:
 Alpha Orbitals:
       Occupied  (A') (A') (A') (A') (A') (A') (A') (A') (A") (A')
                 (A") (A') (A')
       Virtual   (A') (A") (A') (A") (A') (A') (A") (A') (A') (A')
                 (A') (A') (A") (A') (A') (A') (A') (A") (A') (A')
                 (A') (A") (A') (A") (A') (A") (A') (A") (A') (A')
                 (A') (A") (A') (A') (A') (A') (A') (A") (A") (A")
                 (A') (A") (A') (A') (A') (A') (A') (A") (A') (A')
                 (A') (A") (A') (A") (A') (A") (A') (A') (A') (A")
                 (A') (A') (A') (A') (A") (A') (A") (A") (A') (A")
                 (A') (A") (A') (A") (A') (A') (A') (A") (A') (A")
                 (A') (A') (A') (A') (A') (A") (A") (A') (A") (A')
                 (A") (A') (A') (A') (A") (A') (A") (A') (A') (A')
                 (A") (A') (A') (A") (A') (A') (A") (A") (A') (A")
                 (A') (A") (A') (A') (A') (A') (A") (A') (A") (A')
                 (A') (A') (A') (A')
 Beta  Orbitals:
       Occupied  (A') (A') (A') (A') (A') (A') (A') (A') (A") (A')
       Virtual   (A") (A') (A') (A') (A') (A") (A") (A') (A') (A')
                 (A") (A') (A') (A') (A') (A") (A') (A') (A') (A')
                 (A") (A') (A') (A") (A') (A') (A") (A') (A") (A')
                 (A") (A') (A') (A') (A") (A') (A') (A') (A') (A')
                 (A") (A") (A") (A') (A") (A') (A') (A') (A') (A')
                 (A") (A') (A') (A') (A") (A') (A") (A') (A') (A")
                 (A') (A') (A") (A') (A') (A') (A') (A") (A') (A")
                 (A") (A') (A") (A') (A") (A') (A") (A') (A') (A')
                 (A") (A') (A") (A') (A') (A') (A') (A') (A") (A')
                 (A") (A") (A') (A") (A') (A') (A') (A") (A') (A")
                 (A') (A') (A') (A") (A') (A') (A") (A') (A') (A")
                 (A") (A') (A") (A') (A") (A') (A') (A') (A') (A")
                 (A') (A") (A') (A') (A') (A') (A')
 The electronic state is 4-A".
 Alpha  occ. eigenvalues --  -19.04292 -10.12884 -10.09311  -0.96204  -0.63896
 Alpha  occ. eigenvalues --   -0.42726  -0.35346  -0.34970  -0.31432  -0.27007
 Alpha  occ. eigenvalues --   -0.15087  -0.07707   0.06960
 Alpha virt. eigenvalues --    0.10687   0.12692   0.13767   0.16619   0.17833
 Alpha virt. eigenvalues --    0.18762   0.20624   0.21874   0.24614   0.24707
 Alpha virt. eigenvalues --    0.26875   0.29923   0.32843   0.34245   0.35780
 Alpha virt. eigenvalues --    0.39332   0.42168   0.42693   0.49355   0.50957
 Alpha virt. eigenvalues --    0.52141   0.52522   0.57902   0.60534   0.62167
 Alpha virt. eigenvalues --    0.64104   0.65784   0.69158   0.71578   0.76313
 Alpha virt. eigenvalues --    0.77448   0.82260   0.83581   0.87135   0.90369
 Alpha virt. eigenvalues --    0.93771   1.03867   1.05583   1.10685   1.11519
 Alpha virt. eigenvalues --    1.12520   1.18309   1.20980   1.22562   1.28910
 Alpha virt. eigenvalues --    1.33904   1.40651   1.41427   1.45667   1.49744
 Alpha virt. eigenvalues --    1.51793   1.53960   1.64215   1.67995   1.73779
 Alpha virt. eigenvalues --    1.89785   1.91639   2.06383   2.11641   2.13900
 Alpha virt. eigenvalues --    2.17971   2.37463   2.50085   2.74226   2.76724
 Alpha virt. eigenvalues --    2.80571   2.82773   2.92530   2.95238   2.98668
 Alpha virt. eigenvalues --    2.99718   3.06182   3.10514   3.14115   3.17279
 Alpha virt. eigenvalues --    3.27285   3.37581   3.41525   3.55054   3.57387
 Alpha virt. eigenvalues --    3.63189   3.65916   3.77588   3.95546   4.05598
 Alpha virt. eigenvalues --    4.16710   4.28630   4.29698   4.38057   4.40450
 Alpha virt. eigenvalues --    4.47673   4.53245   4.67359   5.10428   5.15447
 Alpha virt. eigenvalues --    5.16110   5.28238   5.39403   5.55688   5.57647
 Alpha virt. eigenvalues --    5.61128   5.68604   5.77938   6.41806   6.45642
 Alpha virt. eigenvalues --    6.64942   7.07901   7.14966   7.17641   7.25529
 Alpha virt. eigenvalues --    7.34538   7.61981   7.82490   7.85173   8.00093
 Alpha virt. eigenvalues --    8.32943  14.39565  14.41028  14.75551  14.84287
 Alpha virt. eigenvalues --   15.06602  24.47855  25.37888  50.49697
  Beta  occ. eigenvalues --  -19.02798 -10.11888 -10.07799  -0.93413  -0.59266
  Beta  occ. eigenvalues --   -0.39892  -0.33103  -0.31915  -0.27362  -0.22778
  Beta virt. eigenvalues --   -0.01503   0.05908   0.12247   0.13437   0.14306
  Beta virt. eigenvalues --    0.16364   0.17437   0.18759   0.20001   0.23039
  Beta virt. eigenvalues --    0.23055   0.25474   0.25779   0.28476   0.30658
  Beta virt. eigenvalues --    0.33335   0.34675   0.36321   0.40593   0.43273
  Beta virt. eigenvalues --    0.43838   0.51485   0.51853   0.53929   0.54339
  Beta virt. eigenvalues --    0.60451   0.62369   0.63919   0.66518   0.67812
  Beta virt. eigenvalues --    0.70579   0.73199   0.77006   0.78735   0.83880
  Beta virt. eigenvalues --    0.84535   0.88135   0.91178   0.94622   1.05126
  Beta virt. eigenvalues --    1.06509   1.11951   1.12840   1.13827   1.19127
  Beta virt. eigenvalues --    1.22406   1.23608   1.29970   1.35072   1.42840
  Beta virt. eigenvalues --    1.43003   1.47975   1.51064   1.53514   1.58086
  Beta virt. eigenvalues --    1.65282   1.71745   1.76706   1.93730   1.93802
  Beta virt. eigenvalues --    2.09028   2.13199   2.17086   2.21367   2.39720
  Beta virt. eigenvalues --    2.52442   2.75938   2.80927   2.83132   2.87016
  Beta virt. eigenvalues --    2.95170   2.98353   3.01220   3.02187   3.10236
  Beta virt. eigenvalues --    3.13312   3.17835   3.20537   3.31154   3.41094
  Beta virt. eigenvalues --    3.44440   3.56411   3.61533   3.64769   3.69007
  Beta virt. eigenvalues --    3.80237   3.97885   4.07057   4.18849   4.29938
  Beta virt. eigenvalues --    4.29946   4.41035   4.42164   4.49386   4.55069
  Beta virt. eigenvalues --    4.69160   5.12463   5.18839   5.19400   5.31355
  Beta virt. eigenvalues --    5.42268   5.57512   5.59909   5.63649   5.69712
  Beta virt. eigenvalues --    5.79625   6.43438   6.46994   6.67066   7.12928
  Beta virt. eigenvalues --    7.20427   7.22482   7.29309   7.42112   7.65242
  Beta virt. eigenvalues --    7.85056   7.86758   8.02428   8.35381  14.45251
  Beta virt. eigenvalues --   14.46734  14.78515  14.87869  15.09249  24.49461
  Beta virt. eigenvalues --   25.39194  50.51176
          Condensed to atoms (all electrons):
               1          2          3          4          5
     1  C   25.119694  -4.937586  -8.518621  -7.555289  -0.022670
     2  C   -4.937586   8.173370   1.193712   1.332087  -0.000640
     3  H   -8.518621   1.193712   5.936501   3.809408   0.031113
     4  H   -7.555289   1.332087   3.809408   4.680004  -0.047357
     5  O   -0.022670  -0.000640   0.031113  -0.047357   8.522116
          Atomic-Atomic Spin Densities.
               1          2          3          4          5
     1  C   20.486448  -4.836406  -8.960226  -8.021003   0.026061
     2  C   -4.836406   3.353507   1.262395   1.412793  -0.363257
     3  H   -8.960226   1.262395   5.447282   3.837064   0.027288
     4  H   -8.021003   1.412793   3.837064   4.227760  -0.036629
     5  O    0.026061  -0.363257   0.027288  -0.036629   0.788839
 Mulliken charges and spin densities:
               1          2
     1  C    1.914473  -1.305125
     2  C    0.239057   0.829033
     3  H   -1.452113   1.613804
     4  H   -1.218854   1.419985
     5  O   -0.482563   0.442303
 Sum of Mulliken charges =  -1.00000   3.00000
 Mulliken charges and spin densities with hydrogens summed into heavy atoms:
               1          2
     1  C   -0.756494   1.728664
     2  C    0.239057   0.829033
     5  O   -0.482563   0.442303
 APT charges:
               1
     1  C   -0.397236
     2  C    0.502732
     3  H   -0.488501
     4  H   -0.316061
     5  O   -0.300935
 Sum of APT charges =  -1.00000
 APT charges with hydrogens summed into heavy atoms:
               1
     1  C   -1.201797
     2  C    0.502732
     5  O   -0.300935
 Electronic spatial extent (au):  <R**2>=            209.8999
 Charge=             -1.0000 electrons
 Dipole moment (field-independent basis, Debye):
    X=              2.3210    Y=              8.2856    Z=             -0.0000  Tot=              8.6045
 Quadrupole moment (field-independent basis, Debye-Ang):
   XX=            -45.9431   YY=            -63.4836   ZZ=            -32.5744
   XY=             -0.9008   XZ=             -0.0000   YZ=              0.0000
 Traceless Quadrupole moment (field-independent basis, Debye-Ang):
   XX=              1.3906   YY=            -16.1499   ZZ=             14.7593
   XY=             -0.9008   XZ=             -0.0000   YZ=              0.0000
 Octapole moment (field-independent basis, Debye-Ang**2):
  XXX=             45.7453  YYY=            177.6036  ZZZ=             -0.0000  XYY=              3.7279
  XXY=             52.6268  XXZ=             -0.0000  XZZ=              9.2501  YZZ=             35.2381
  YYZ=             -0.0000  XYZ=              0.0000
 Hexadecapole moment (field-independent basis, Debye-Ang**3):
 XXXX=           -392.1276 YYYY=           -962.4398 ZZZZ=           -144.0271 XXXY=            -49.3182
 XXXZ=             -0.0000 YYYX=             -6.2349 YYYZ=              0.0000 ZZZX=             -0.0000
 ZZZY=              0.0000 XXYY=           -214.3280 XXZZ=            -83.0331 YYZZ=           -150.7012
 XXYZ=              0.0000 YYXZ=             -0.0000 ZZXY=             -8.9274
 N-N= 5.694822978232D+01 E-N=-4.742676247801D+02  KE= 1.520539070915D+02
 Symmetry A'   KE= 1.469492903688D+02
 Symmetry A"   KE= 5.104616722682D+00
  Exact polarizability: 884.273-315.359 411.281  -0.000   0.000 204.721
 Approx polarizability: 926.111-374.240 419.540   0.000  -0.000 163.830
                          Isotropic Fermi Contact Couplings
        Atom                 a.u.       MegaHertz       Gauss      10(-4) cm-1
     1  C(13)              0.28362     106.28121      37.92378      35.45160
     2  C(13)              0.26342      98.71269      35.22314      32.92701
     3  H(1)              -0.01153     -17.18362      -6.13154      -5.73184
     4  H(1)               0.00593       8.83534       3.15267       2.94715
     5  O(17)              0.09083     -18.35339      -6.54894      -6.12203
 --------------------------------------------------------
       Center         ----  Spin Dipole Couplings  ----
                      3XX-RR        3YY-RR        3ZZ-RR
 --------------------------------------------------------
     1   Atom       -0.502064     -0.351116      0.853180
     2   Atom        0.725869     -0.343274     -0.382595
     3   Atom       -0.037906      0.061779     -0.023873
     4   Atom        0.083500     -0.060711     -0.022789
     5   Atom        0.902910     -1.150950      0.248041
 --------------------------------------------------------
                        XY            XZ            YZ
 --------------------------------------------------------
     1   Atom        0.115772      0.000000      0.000000
     2   Atom       -0.036613      0.000000     -0.000000
     3   Atom       -0.060223      0.000000      0.000000
     4   Atom        0.013745     -0.000000      0.000000
     5   Atom        0.257015      0.000000     -0.000000
 --------------------------------------------------------


 ---------------------------------------------------------------------------------
              Anisotropic Spin Dipole Couplings in Principal Axis System
 ---------------------------------------------------------------------------------

       Atom             a.u.   MegaHertz   Gauss  10(-4) cm-1        Axes

              Baa    -0.5648   -75.789   -27.044   -25.281  0.8792 -0.4764 -0.0000
     1 C(13)  Bbb    -0.2884   -38.699   -13.809   -12.909  0.4764  0.8792 -0.0000
              Bcc     0.8532   114.489    40.852    38.189  0.0000  0.0000  1.0000
 
              Baa    -0.3826   -51.341   -18.320   -17.125  0.0000  0.0000  1.0000
     2 C(13)  Bbb    -0.3445   -46.232   -16.497   -15.421  0.0342  0.9994 -0.0000
              Bcc     0.7271    97.573    34.816    32.547  0.9994 -0.0342  0.0000
 
              Baa    -0.0662   -35.341   -12.610   -11.788  0.9049  0.4257  0.0000
     3 H(1)   Bbb    -0.0239   -12.737    -4.545    -4.249  0.0000  0.0000  1.0000
              Bcc     0.0901    48.078    17.155    16.037 -0.4257  0.9049 -0.0000
 
              Baa    -0.0620   -33.085   -11.806   -11.036 -0.0940  0.9956 -0.0000
     4 H(1)   Bbb    -0.0228   -12.159    -4.339    -4.056  0.0000  0.0000  1.0000
              Bcc     0.0848    45.244    16.144    15.092  0.9956  0.0940  0.0000
 
              Baa    -1.1826    85.574    30.535    28.544 -0.1223  0.9925 -0.0000
     5 O(17)  Bbb     0.2480   -17.948    -6.404    -5.987  0.0000  0.0000  1.0000
              Bcc     0.9346   -67.626   -24.131   -22.558  0.9925  0.1223  0.0000
 

 ---------------------------------------------------------------------------------

 No NMR shielding tensors so no spin-rotation constants.
 Leave Link  601 at Thu Mar  7 10:19:09 2019, MaxMem=    33554432 cpu:         1.0
 (Enter /home/proyectos/fulerenos/M3C-v2.0/M3C-deps_CCC/g09-AM64L-G09RevC.01/l701.exe)
 Compute integral second derivatives.
 ... and contract with generalized density number  0.
 Leave Link  701 at Thu Mar  7 10:19:10 2019, MaxMem=    33554432 cpu:         1.0
 (Enter /home/proyectos/fulerenos/M3C-v2.0/M3C-deps_CCC/g09-AM64L-G09RevC.01/l702.exe)
 L702 exits ... SP integral derivatives will be done elsewhere.
 Leave Link  702 at Thu Mar  7 10:19:10 2019, MaxMem=    33554432 cpu:         0.1
 (Enter /home/proyectos/fulerenos/M3C-v2.0/M3C-deps_CCC/g09-AM64L-G09RevC.01/l703.exe)
 Compute integral second derivatives, UseDBF=F ICtDFT=           0.
 Integral derivatives from FoFJK, PRISM(SPDF).
 Calling FoFJK, ICntrl=    100127 FMM=F ISym2X=1 I1Cent= 0 IOpClX= 1 NMat=1 NMatS=1 NMatT=0.
 FoFJK:  IHMeth= 1 ICntrl=  100127 DoSepK=F KAlg= 0 I1Cent=   0 FoldK=F
 IRaf=         0 NMat=   1 IRICut=       1 DoRegI=T DoRafI=F ISym2E= 1.
 FoFCou: FMM=F IPFlag=           0 FMFlag=      100000 FMFlg1=         800
         NFxFlg=           0 DoJE=F BraDBF=F KetDBF=F FulRan=T
         wScrn=  0.000000 ICntrl=  100127 IOpCl=  1 I1Cent=           0 NGrid=           0
         NMat0=    1 NMatS0=      1 NMatT0=    0 NMatD0=    1 NMtDS0=    0 NMtDT0=    0
 Petite list used in FoFCou.
 Leave Link  703 at Thu Mar  7 10:20:40 2019, MaxMem=    33554432 cpu:       176.7
 (Enter /home/proyectos/fulerenos/M3C-v2.0/M3C-deps_CCC/g09-AM64L-G09RevC.01/l716.exe)
 Dipole        = 9.13142963D-01 3.25980484D+00-2.46452397D-17
 Polarizability= 8.84273194D+02-3.15358734D+02 4.11280970D+02
                -3.77630560D-07 5.97781285D-08 2.04721376D+02
 Full mass-weighted force constant matrix:
 Low frequencies ---  -21.6462  -11.7474   -7.5918    0.0002    0.0012    0.0013
 Low frequencies ---  403.2657  453.3619  813.6426
 Diagonal vibrational polarizability:
       18.5006189      12.8224923      67.2237666
 Harmonic frequencies (cm**-1), IR intensities (KM/Mole), Raman scattering
 activities (A**4/AMU), depolarization ratios for plane and unpolarized
 incident light, reduced masses (AMU), force constants (mDyne/A),
 and normal coordinates:
                      1                      2                      3
                     A"                     A'                     A"
 Frequencies --    403.2653               453.3614               813.6398
 Red. masses --      1.4071                 2.8847                 1.3835
 Frc consts  --      0.1348                 0.3493                 0.5396
 IR Inten    --    165.8754                16.4559               978.4400
  Atom  AN      X      Y      Z        X      Y      Z        X      Y      Z
     1   6     0.00   0.00   0.01    -0.01   0.16  -0.00    -0.00  -0.00  -0.17
     2   6     0.00   0.00  -0.16     0.27   0.00   0.00     0.00   0.00   0.07
     3   1    -0.00  -0.00   0.88    -0.49  -0.10  -0.00     0.00  -0.00   0.59
     4   1    -0.00   0.00  -0.44    -0.05   0.77   0.00    -0.00  -0.00   0.78
     5   8    -0.00  -0.00   0.09    -0.16  -0.16  -0.00    -0.00   0.00  -0.01
                      4                      5                      6
                     A'                     A'                     A'
 Frequencies --    973.2072              1067.7751              1423.7677
 Red. masses --      1.7750                 3.8986                 1.1478
 Frc consts  --      0.9905                 2.6189                 1.3709
 IR Inten    --    408.9078               334.8830               620.2252
  Atom  AN      X      Y      Z        X      Y      Z        X      Y      Z
     1   6    -0.07   0.21  -0.00    -0.25  -0.21   0.00    -0.05  -0.10   0.00
     2   6     0.01  -0.06  -0.00     0.33   0.20  -0.00     0.01   0.01  -0.00
     3   1     0.56   0.59   0.00     0.12   0.00  -0.00     0.65   0.33  -0.00
     4   1    -0.01  -0.52  -0.00    -0.22  -0.82  -0.00    -0.09   0.67  -0.00
     5   8     0.01  -0.12   0.00    -0.06   0.06   0.00     0.00   0.00  -0.00
                      7                      8                      9
                     A'                     A'                     A'
 Frequencies --   1761.3475              3006.4041              3139.7186
 Red. masses --     12.4028                 1.0520                 1.1190
 Frc consts  --     22.6705                 5.6024                 6.4991
 IR Inten    --    111.9839                57.2617                98.8837
  Atom  AN      X      Y      Z        X      Y      Z        X      Y      Z
     1   6     0.02  -0.05   0.00    -0.03  -0.06   0.00    -0.09   0.05   0.00
     2   6    -0.27   0.74   0.00    -0.00   0.00  -0.00    -0.00   0.00  -0.00
     3   1    -0.21  -0.16  -0.00    -0.37   0.61   0.00     0.35  -0.59  -0.00
     4   1    -0.00   0.05  -0.00     0.69   0.03  -0.00     0.72   0.05  -0.00
     5   8     0.20  -0.51  -0.00     0.00   0.00   0.00    -0.00  -0.00   0.00

 -------------------
 - Thermochemistry -
 -------------------
 Temperature   298.150 Kelvin.  Pressure   1.00000 Atm.
 Atom     1 has atomic number  6 and mass  12.00000
 Atom     2 has atomic number  6 and mass  12.00000
 Atom     3 has atomic number  1 and mass   1.00783
 Atom     4 has atomic number  1 and mass   1.00783
 Atom     5 has atomic number  8 and mass  15.99491
 Molecular mass:    42.01056 amu.
 Principal axes and moments of inertia in atomic units:
                           1         2         3
     Eigenvalues --    15.08949 164.97389 180.06339
           X            0.11823   0.99299   0.00000
           Y            0.99299  -0.11823   0.00000
           Z           -0.00000  -0.00000   1.00000
 This molecule is an asymmetric top.
 Rotational symmetry number  1.
 Rotational temperatures (Kelvin)      5.74001     0.52502     0.48102
 Rotational constants (GHZ):         119.60250    10.93956    10.02281
 Zero-point vibrational energy      78011.4 (Joules/Mol)
                                   18.64517 (Kcal/Mol)
 Warning -- explicit consideration of   2 degrees of freedom as
           vibrations may cause significant error
 Vibrational temperatures:    580.21   652.29  1170.64  1400.23  1536.29
          (Kelvin)           2048.48  2534.18  4325.54  4517.35
 
 Zero-point correction=                           0.029713 (Hartree/Particle)
 Thermal correction to Energy=                    0.033265
 Thermal correction to Enthalpy=                  0.034209
 Thermal correction to Gibbs Free Energy=         0.004395
 Sum of electronic and zero-point Energies=           -152.522232
 Sum of electronic and thermal Energies=              -152.518681
 Sum of electronic and thermal Enthalpies=            -152.517736
 Sum of electronic and thermal Free Energies=         -152.547550
 
                     E (Thermal)             CV                S
                      KCal/Mol        Cal/Mol-Kelvin    Cal/Mol-Kelvin
 Total                   20.874             10.250             62.749
 Electronic               0.000              0.000              2.755
 Translational            0.889              2.981             37.133
 Rotational               0.889              2.981             20.733
 Vibrational             19.097              4.288              2.128
 Vibration     1          0.769              1.463              0.951
 Vibration     2          0.812              1.353              0.786
                       Q            Log10(Q)             Ln(Q)
 Total Bot       0.951621D-02         -2.021536         -4.654759
 Total V=0       0.442031D+12         11.645453         26.814646
 Vib (Bot)       0.293296D-13        -13.532693        -31.160178
 Vib (Bot)    1  0.440924D+00         -0.355636         -0.818883
 Vib (Bot)    2  0.377224D+00         -0.423401         -0.974917
 Vib (V=0)       0.136237D+01          0.134296          0.309227
 Vib (V=0)    1  0.116664D+01          0.066938          0.154131
 Vib (V=0)    2  0.112634D+01          0.051668          0.118971
 Electronic      0.400000D+01          0.602060          1.386294
 Translational   0.107027D+08          7.029493         16.186006
 Rotational      0.757886D+04          3.879604          8.933119
 
                                                              b3lyp opt
                                                             IR Spectrum
 
     3     3                                                 1             1             1                                           
     1     0                                                 7             4             0   9      8             4 4                
     4     0                                                 6             2             6   7      1             5 0                
     0     6                                                 1             4             8   3      4             3 3                
 
     X     X                                                 X             X             X   X      X             X X                
     X                                                       X             X             X   X      X               X                
                                                                           X             X   X      X               X                
                                                                           X             X   X      X                                
                                                                           X             X   X      X                                
                                                                           X             X   X      X                                
                                                                           X             X   X      X                                
                                                                           X                 X      X                                
                                                                           X                        X                                
                                                                           X                        X                                
                                                                           X                        X                                
                                                                           X                        X                                
                                                                           X                        X                                
                                                                                                    X                                
                                                                                                    X                                
                                                                                                    X                                
                                                                                                    X                                
                                                                                                    X                                
                                                                                                    X                                
                                                                                                    X                                
 
 ***** Axes restored to original set *****
 -------------------------------------------------------------------
 Center     Atomic                   Forces (Hartrees/Bohr)
 Number     Number              X              Y              Z
 -------------------------------------------------------------------
      1        6           0.000026803   -0.000467102    0.000123959
      2        6          -0.000033234    0.000314452   -0.000087783
      3        1          -0.000009551    0.000148550   -0.000039715
      4        1          -0.000008804    0.000056545   -0.000016592
      5        8           0.000024785   -0.000052445    0.000020131
 -------------------------------------------------------------------
 Cartesian Forces:  Max     0.000467102 RMS     0.000157695
 Z-matrix is all fixed cartesians, so copy forces.
 Force constants in Cartesian coordinates: 
                1             2             3             4             5 
      1  0.547655D+00
      2  0.547714D-01  0.509282D+00
      3  0.121072D+00 -0.923868D-01  0.133053D+00
      4 -0.105673D+00  0.386283D-01 -0.305837D-01  0.804427D+00
      5  0.453521D-01 -0.181429D+00  0.501005D-01 -0.237486D-01  0.243714D+00
      6 -0.322580D-01  0.481821D-01 -0.533940D-01  0.227072D+00 -0.601699D-01
      7 -0.296262D+00 -0.544823D-01 -0.648271D-01 -0.123021D-01  0.347653D-02
      8 -0.520651D-01 -0.593779D-01 -0.542278D-02  0.231521D-01  0.594402D-02
      9 -0.654290D-01 -0.611243D-02 -0.386449D-01 -0.970710D-02 -0.111097D-03
     10 -0.845829D-01 -0.885456D-01  0.634892D-02  0.859415D-02  0.197339D-01
     11 -0.919510D-01 -0.279975D+00  0.361211D-01 -0.817063D-02 -0.185870D-01
     12  0.719691D-02  0.370927D-01 -0.367401D-01 -0.344426D-04  0.142044D-01
     13 -0.611360D-01  0.496282D-01 -0.320104D-01 -0.695046D+00 -0.448139D-01
     14  0.438927D-01  0.115002D-01  0.115881D-01 -0.298612D-01 -0.496425D-01
     15 -0.305822D-01  0.132245D-01 -0.427364D-02 -0.186746D+00 -0.402385D-02
                6             7             8             9            10 
      6  0.109056D+00
      7 -0.480773D-02  0.305964D+00
      8  0.550260D-02  0.488809D-01  0.557538D-01
      9 -0.122745D-02  0.723090D-01  0.251984D-02  0.298687D-01
     10 -0.698288D-02 -0.130056D-02 -0.230657D-01  0.342074D-02  0.777502D-01
     11  0.624284D-02  0.384180D-02  0.133288D-02  0.246760D-02  0.947366D-01
     12  0.122990D-01 -0.327944D-02 -0.520948D-02  0.720220D-02 -0.489127D-02
     13 -0.183023D+00  0.390153D-02  0.309781D-02 -0.593665D-03 -0.460876D-03
     14  0.242350D-03 -0.171698D-02 -0.365275D-02  0.123610D-02 -0.285914D-02
     15 -0.667334D-01  0.605255D-03  0.260982D-02  0.280148D-02  0.210449D-02
               11            12            13            14            15 
     11  0.292896D+00
     12 -0.428627D-01  0.214899D-01
     13  0.154329D-02  0.100825D-02  0.752741D+00
     14  0.433322D-02 -0.322486D-02 -0.945537D-02  0.374618D-01
     15 -0.196878D-02 -0.425093D-02  0.214619D+00 -0.984164D-02  0.724565D-01
 Leave Link  716 at Thu Mar  7 10:20:40 2019, MaxMem=    33554432 cpu:         0.2
 (Enter /home/proyectos/fulerenos/M3C-v2.0/M3C-deps_CCC/g09-AM64L-G09RevC.01/l103.exe)

 GradGradGradGradGradGradGradGradGradGradGradGradGradGradGradGradGradGrad
 Berny optimization.
 Search for a local minimum.
 Step number   1 out of a maximum of    2
 All quantities printed in internal units (Hartrees-Bohrs-Radians)
 Second derivative matrix not updated -- analytic derivatives used.
 The second derivative matrix:
                          X1        Y1        Z1        X2        Y2
           X1           0.54765
           Y1           0.05477   0.50928
           Z1           0.12107  -0.09239   0.13305
           X2          -0.10567   0.03863  -0.03058   0.80443
           Y2           0.04535  -0.18143   0.05010  -0.02375   0.24371
           Z2          -0.03226   0.04818  -0.05339   0.22707  -0.06017
           X3          -0.29626  -0.05448  -0.06483  -0.01230   0.00348
           Y3          -0.05207  -0.05938  -0.00542   0.02315   0.00594
           Z3          -0.06543  -0.00611  -0.03864  -0.00971  -0.00011
           X4          -0.08458  -0.08855   0.00635   0.00859   0.01973
           Y4          -0.09195  -0.27997   0.03612  -0.00817  -0.01859
           Z4           0.00720   0.03709  -0.03674  -0.00003   0.01420
           X5          -0.06114   0.04963  -0.03201  -0.69505  -0.04481
           Y5           0.04389   0.01150   0.01159  -0.02986  -0.04964
           Z5          -0.03058   0.01322  -0.00427  -0.18675  -0.00402
                          Z2        X3        Y3        Z3        X4
           Z2           0.10906
           X3          -0.00481   0.30596
           Y3           0.00550   0.04888   0.05575
           Z3          -0.00123   0.07231   0.00252   0.02987
           X4          -0.00698  -0.00130  -0.02307   0.00342   0.07775
           Y4           0.00624   0.00384   0.00133   0.00247   0.09474
           Z4           0.01230  -0.00328  -0.00521   0.00720  -0.00489
           X5          -0.18302   0.00390   0.00310  -0.00059  -0.00046
           Y5           0.00024  -0.00172  -0.00365   0.00124  -0.00286
           Z5          -0.06673   0.00061   0.00261   0.00280   0.00210
                          Y4        Z4        X5        Y5        Z5
           Y4           0.29290
           Z4          -0.04286   0.02149
           X5           0.00154   0.00101   0.75274
           Y5           0.00433  -0.00322  -0.00946   0.03746
           Z5          -0.00197  -0.00425   0.21462  -0.00984   0.07246
 ITU=  0
     Eigenvalues ---    0.02066   0.02778   0.08907   0.09521   0.17381
     Eigenvalues ---    0.30923   0.74337   0.79505   1.58544
 Angle between quadratic step and forces=  52.63 degrees.
 ClnCor:  largest displacement from symmetrization is 2.62D-12 for atom     2.
 Linear search not attempted -- first point.
 ClnCor:  largest displacement from symmetrization is 5.17D-15 for atom     3.
 B after Tr=     0.000139   -0.000052    0.000053
         Rot=    1.000000   -0.000013    0.000012    0.000046 Ang=  -0.01 deg.
 Variable       Old X    -DE/DX   Delta X   Delta X   Delta X     New X
                                 (Linear)    (Quad)   (Total)
    X1        1.53851   0.00003   0.00000  -0.00018  -0.00015   1.53836
    Y1       -1.05354  -0.00047   0.00000  -0.00098  -0.00119  -1.05474
    Z1        0.82152   0.00012   0.00000   0.00019   0.00025   0.82178
    X2       -0.03258  -0.00003   0.00000   0.00016   0.00038  -0.03220
    Y2        0.92293   0.00031   0.00000   0.00050   0.00045   0.92339
    Z2       -0.11889  -0.00009   0.00000  -0.00008  -0.00000  -0.11889
    X3        3.50683  -0.00001   0.00000  -0.00048  -0.00043   3.50639
    Y3       -0.69898   0.00015   0.00000   0.00184   0.00143  -0.69755
    Z3        1.29482  -0.00004   0.00000  -0.00060  -0.00048   1.29434
    X4        0.82788  -0.00001   0.00000  -0.00010  -0.00026   0.82762
    Y4       -2.96383   0.00006   0.00000  -0.00072  -0.00088  -2.96472
    Z4        1.09445  -0.00002   0.00000   0.00015   0.00015   1.09459
    X5       -2.21491   0.00002   0.00000   0.00022   0.00046  -2.21445
    Y5        0.91618  -0.00005   0.00000   0.00002   0.00019   0.91637
    Z5       -0.73985   0.00002   0.00000   0.00006   0.00008  -0.73977
         Item               Value     Threshold  Converged?
 Maximum Force            0.000467     0.000450     NO 
 RMS     Force            0.000158     0.000300     YES
 Maximum Displacement     0.001430     0.001800     YES
 RMS     Displacement     0.000603     0.001200     YES
 Predicted change in Energy=-4.541803D-07
 GradGradGradGradGradGradGradGradGradGradGradGradGradGradGradGradGradGrad

 Leave Link  103 at Thu Mar  7 10:20:40 2019, MaxMem=    33554432 cpu:         0.1
 (Enter /home/proyectos/fulerenos/M3C-v2.0/M3C-deps_CCC/g09-AM64L-G09RevC.01/l9999.exe)

 Test job not archived.
 1\1\GINC-BERQUELIO\Freq\UB3LYP\6-311++G(3df,2p)\C2H2O1(1-,4)\NAGUIRRE\
 07-Mar-2019\0\\#p b3lyp/6-311++G(3df,2p) freq IOp(2/17=3) IOp(2/18=3)\
 \b3lyp opt\\-1,4\C,0.8141466023,-0.5575106349,0.4347313544\C,-0.017241
 6405,0.4883954318,-0.06291325\H,1.8557342191,-0.3698864817,0.685190320
 5\H,0.4380952283,-1.5683932352,0.5791562785\O,-1.1720792773,0.48482224
 2,-0.3915140282\\Version=EM64L-G09RevE.01\State=4-A"\HF=-152.5519453\S
 2=3.758856\S2-1=0.\S2A=3.750031\RMSD=1.723e-09\RMSF=1.577e-04\ZeroPoin
 t=0.029713\Thermal=0.0332648\Dipole=-2.4985576,1.9452398,-1.197251\Dip
 oleDeriv=-1.0462961,-0.9585976,-0.2572271,-1.4826293,-0.7780903,-0.056
 9798,-0.1267393,0.0925334,0.6326796,0.5482934,-0.2429721,0.2089255,0.4
 312749,0.851779,-0.0820586,0.0410329,-0.2744302,0.1081231,-0.2187795,-
 0.2441055,0.2520708,0.6145705,-0.4151509,0.0572974,0.038254,-0.1876943
 ,-0.8315722,0.0845928,0.6102781,0.0677275,0.168154,-0.3740497,-0.02955
 39,0.1778198,0.09659,-0.658725,-0.3678106,0.835397,-0.2714966,0.268629
 9,-0.2844881,0.1112949,-0.1303674,0.2730011,-0.2505055\Polar=691.56613
 6,393.3179709,595.9836321,40.9641449,14.791597,212.7257719\PG=CS [SG(C
 2H2O1)]\NImag=0\\0.54765461,0.05477137,0.50928151,0.12107234,-0.092386
 85,0.13305265,-0.10567318,0.03862832,-0.03058372,0.80442726,0.04535207
 ,-0.18142886,0.05010049,-0.02374858,0.24371432,-0.03225798,0.04818212,
 -0.05339398,0.22707151,-0.06016991,0.10905587,-0.29626248,-0.05448229,
 -0.06482712,-0.01230213,0.00347653,-0.00480773,0.30596364,-0.05206510,
 -0.05937792,-0.00542278,0.02315210,0.00594402,0.00550260,0.04888093,0.
 05575377,-0.06542901,-0.00611243,-0.03864492,-0.00970710,-0.00011110,-
 0.00122745,0.07230904,0.00251984,0.02986870,-0.08458292,-0.08854556,0.
 00634892,0.00859415,0.01973388,-0.00698288,-0.00130056,-0.02306574,0.0
 0342074,0.07775021,-0.09195103,-0.27997497,0.03612108,-0.00817063,-0.0
 1858700,0.00624284,0.00384180,0.00133288,0.00246760,0.09473657,0.29289
 587,0.00719691,0.03709271,-0.03674011,-0.00003444,0.01420436,0.0122989
 8,-0.00327944,-0.00520948,0.00720220,-0.00489127,-0.04286273,0.0214898
 6,-0.06113602,0.04962817,-0.03201042,-0.69504609,-0.04481390,-0.183022
 92,0.00390153,0.00309781,-0.00059366,-0.00046088,0.00154329,0.00100825
 ,0.75274146,0.04389269,0.01150024,0.01158805,-0.02986120,-0.04964248,0
 .00024235,-0.00171698,-0.00365275,0.00123610,-0.00285914,0.00433322,-0
 .00322486,-0.00945537,0.03746177,-0.03058225,0.01322446,-0.00427364,-0
 .18674625,-0.00402385,-0.06673341,0.00060525,0.00260982,0.00280148,0.0
 0210449,-0.00196878,-0.00425093,0.21461876,-0.00984164,0.07245650\\-0.
 00002680,0.00046710,-0.00012396,0.00003323,-0.00031445,0.00008778,0.00
 000955,-0.00014855,0.00003972,0.00000880,-0.00005655,0.00001659,-0.000
 02479,0.00005244,-0.00002013\\\@


 FLOATING POINT NUMBERS ARE LIKE SANDPILES:
 EVERY TIME THAT YOU MOVE ONE, YOU LOSE A LITTLE SAND 
 AND YOU PICK UP A LITTLE DIRT.
 Job cpu time:       0 days  0 hours 10 minutes 44.7 seconds.
 File lengths (MBytes):  RWF=     22 Int=      0 D2E=      0 Chk=      3 Scr=      1
 Normal termination of Gaussian 09 at Thu Mar  7 10:20:40 2019.
