 Entering Gaussian System, Link 0=/home/proyectos/fulerenos/M3C-v2.0/M3C-deps_CCC/g09-AM64L-G09RevC.01/g09
 Initial command:
 /home/proyectos/fulerenos/M3C-v2.0/M3C-deps_CCC/g09-AM64L-G09RevC.01/l1.exe "/scratch/naguirre/gaussian/Gau-12712.inp" -scrdir="/scratch/naguirre/gaussian/"
 Entering Link 1 = /home/proyectos/fulerenos/M3C-v2.0/M3C-deps_CCC/g09-AM64L-G09RevC.01/l1.exe PID=     12714.
  
 Copyright (c) 1988,1990,1992,1993,1995,1998,2003,2009,2015,
            Gaussian, Inc.  All Rights Reserved.
  
 This is part of the Gaussian(R) 09 program.  It is based on
 the Gaussian(R) 03 system (copyright 2003, Gaussian, Inc.),
 the Gaussian(R) 98 system (copyright 1998, Gaussian, Inc.),
 the Gaussian(R) 94 system (copyright 1995, Gaussian, Inc.),
 the Gaussian 92(TM) system (copyright 1992, Gaussian, Inc.),
 the Gaussian 90(TM) system (copyright 1990, Gaussian, Inc.),
 the Gaussian 88(TM) system (copyright 1988, Gaussian, Inc.),
 the Gaussian 86(TM) system (copyright 1986, Carnegie Mellon
 University), and the Gaussian 82(TM) system (copyright 1983,
 Carnegie Mellon University). Gaussian is a federally registered
 trademark of Gaussian, Inc.
  
 This software contains proprietary and confidential information,
 including trade secrets, belonging to Gaussian, Inc.
  
 This software is provided under written license and may be
 used, copied, transmitted, or stored only in accord with that
 written license.
  
 The following legend is applicable only to US Government
 contracts under FAR:
  
                    RESTRICTED RIGHTS LEGEND
  
 Use, reproduction and disclosure by the US Government is
 subject to restrictions as set forth in subparagraphs (a)
 and (c) of the Commercial Computer Software - Restricted
 Rights clause in FAR 52.227-19.
  
 Gaussian, Inc.
 340 Quinnipiac St., Bldg. 40, Wallingford CT 06492
  
  
 ---------------------------------------------------------------
 Warning -- This program may not be used in any manner that
 competes with the business of Gaussian, Inc. or will provide
 assistance to any competitor of Gaussian, Inc.  The licensee
 of this program is prohibited from giving any competitor of
 Gaussian, Inc. access to this program.  By using this program,
 the user acknowledges that Gaussian, Inc. is engaged in the
 business of creating and licensing software in the field of
 computational chemistry and represents and warrants to the
 licensee that it is not a competitor of Gaussian, Inc. and that
 it will not use this program in any manner prohibited above.
 ---------------------------------------------------------------
  

 Cite this work as:
 Gaussian 09, Revision E.01,
 M. J. Frisch, G. W. Trucks, H. B. Schlegel, G. E. Scuseria, 
 M. A. Robb, J. R. Cheeseman, G. Scalmani, V. Barone, B. Mennucci, 
 G. A. Petersson, H. Nakatsuji, M. Caricato, X. Li, H. P. Hratchian, 
 A. F. Izmaylov, J. Bloino, G. Zheng, J. L. Sonnenberg, M. Hada, 
 M. Ehara, K. Toyota, R. Fukuda, J. Hasegawa, M. Ishida, T. Nakajima, 
 Y. Honda, O. Kitao, H. Nakai, T. Vreven, J. A. Montgomery, Jr., 
 J. E. Peralta, F. Ogliaro, M. Bearpark, J. J. Heyd, E. Brothers, 
 K. N. Kudin, V. N. Staroverov, T. Keith, R. Kobayashi, J. Normand, 
 K. Raghavachari, A. Rendell, J. C. Burant, S. S. Iyengar, J. Tomasi, 
 M. Cossi, N. Rega, J. M. Millam, M. Klene, J. E. Knox, J. B. Cross, 
 V. Bakken, C. Adamo, J. Jaramillo, R. Gomperts, R. E. Stratmann, 
 O. Yazyev, A. J. Austin, R. Cammi, C. Pomelli, J. W. Ochterski, 
 R. L. Martin, K. Morokuma, V. G. Zakrzewski, G. A. Voth, 
 P. Salvador, J. J. Dannenberg, S. Dapprich, A. D. Daniels, 
 O. Farkas, J. B. Foresman, J. V. Ortiz, J. Cioslowski, 
 and D. J. Fox, Gaussian, Inc., Wallingford CT, 2013.
 
 ******************************************
 Gaussian 09:  EM64L-G09RevE.01 30-Nov-2015
                 7-Mar-2019 
 ******************************************
 %NProcShared=4
 Will use up to    4 processors via shared memory.
 ------------------------------------------------------
 #p b3lyp/6-311++G(3df,2p) freq IOp(2/17=3) IOp(2/18=3)
 ------------------------------------------------------
 1/10=4,30=1,38=1/1,3;
 2/12=2,17=3,18=3,40=1/2;
 3/5=4,6=6,7=1216,11=2,16=1,25=1,30=1,71=2,74=-5,140=1/1,2,3;
 4//1;
 5/5=2,38=5,98=1/2;
 8/6=4,10=90,11=11/1;
 11/6=1,8=1,9=11,15=111,16=1/1,2,10;
 10/6=1/2;
 6/7=2,8=2,9=2,10=2,18=1,28=1/1;
 7/8=1,10=1,25=1/1,2,3,16;
 1/10=4,30=1/3;
 99//99;
 Leave Link    1 at Thu Mar  7 10:29:57 2019, MaxMem=           0 cpu:         0.2
 (Enter /home/proyectos/fulerenos/M3C-v2.0/M3C-deps_CCC/g09-AM64L-G09RevC.01/l101.exe)
 ---------
 b3lyp opt
 ---------
 Symbolic Z-matrix:
 Charge = -1 Multiplicity = 3
 C                    -0.1178   -0.20716  -0.4205 
 H                    -0.50052   0.54749   0.28391 
 H                    -0.46301   0.13422  -1.42419 
 H                    -0.60284  -1.184    -0.26991 
 O                     1.23763  -0.26671  -0.48522 
 
 NAtoms=      5 NQM=        5 NQMF=       0 NMMI=      0 NMMIF=      0
                NMic=       0 NMicF=      0.
                    Isotopes and Nuclear Properties:
 (Nuclear quadrupole moments (NQMom) in fm**2, nuclear magnetic moments (NMagM)
  in nuclear magnetons)

  Atom         1           2           3           4           5
 IAtWgt=          12           1           1           1          16
 AtmWgt=  12.0000000   1.0078250   1.0078250   1.0078250  15.9949146
 NucSpn=           0           1           1           1           0
 AtZEff=   0.0000000   0.0000000   0.0000000   0.0000000   0.0000000
 NQMom=    0.0000000   0.0000000   0.0000000   0.0000000   0.0000000
 NMagM=    0.0000000   2.7928460   2.7928460   2.7928460   0.0000000
 AtZNuc=   6.0000000   1.0000000   1.0000000   1.0000000   8.0000000
 Leave Link  101 at Thu Mar  7 10:29:57 2019, MaxMem=    33554432 cpu:         0.2
 (Enter /home/proyectos/fulerenos/M3C-v2.0/M3C-deps_CCC/g09-AM64L-G09RevC.01/l103.exe)

 GradGradGradGradGradGradGradGradGradGradGradGradGradGradGradGradGradGrad
 Berny optimization.
 Initialization pass.
 Trust Radius=3.00D-01 FncErr=1.00D-07 GrdErr=1.00D-07
 Number of steps in this run=      2 maximum allowed number of steps=      2.
 GradGradGradGradGradGradGradGradGradGradGradGradGradGradGradGradGradGrad

 Leave Link  103 at Thu Mar  7 10:29:57 2019, MaxMem=    33554432 cpu:         0.1
 (Enter /home/proyectos/fulerenos/M3C-v2.0/M3C-deps_CCC/g09-AM64L-G09RevC.01/l202.exe)
                          Input orientation:                          
 ---------------------------------------------------------------------
 Center     Atomic      Atomic             Coordinates (Angstroms)
 Number     Number       Type             X           Y           Z
 ---------------------------------------------------------------------
      1          6           0       -0.117800   -0.207155   -0.420503
      2          1           0       -0.500519    0.547489    0.283911
      3          1           0       -0.463013    0.134221   -1.424190
      4          1           0       -0.602836   -1.184002   -0.269914
      5          8           0        1.237628   -0.266706   -0.485218
 ---------------------------------------------------------------------
                    Distance matrix (angstroms):
                    1          2          3          4          5
     1  C    0.000000
     2  H    1.100982   0.000000
     3  H    1.114943   1.757784   0.000000
     4  H    1.100985   1.820783   1.757730   0.000000
     5  O    1.358278   2.067759   1.983580   2.067630   0.000000
 Stoichiometry    CH3O(1-,3)
 Framework group  CS[SG(CHO),X(H2)]
 Deg. of freedom     6
 Full point group                 CS      NOp   2
 Largest Abelian subgroup         CS      NOp   2
 Largest concise Abelian subgroup CS      NOp   2
                         Standard orientation:                         
 ---------------------------------------------------------------------
 Center     Atomic      Atomic             Coordinates (Angstroms)
 Number     Number       Type             X           Y           Z
 ---------------------------------------------------------------------
      1          6           0        0.012749   -0.568098   -0.000000
      2          1           0        0.439340   -1.016659    0.910497
      3          1           0       -1.057756   -0.879733   -0.000000
      4          1           0        0.439340   -1.016659   -0.910497
      5          8           0        0.012749    0.790180    0.000000
 ---------------------------------------------------------------------
 Rotational constants (GHZ):    158.3970268     28.1158571     27.8810430
 Leave Link  202 at Thu Mar  7 10:29:57 2019, MaxMem=    33554432 cpu:         0.0
 (Enter /home/proyectos/fulerenos/M3C-v2.0/M3C-deps_CCC/g09-AM64L-G09RevC.01/l301.exe)
 Standard basis: 6-311++G(3df,2p) (5D, 7F)
 Ernie: Thresh=  0.10000D-02 Tol=  0.10000D-05 Strict=F.
 There are    80 symmetry adapted cartesian basis functions of A'  symmetry.
 There are    40 symmetry adapted cartesian basis functions of A"  symmetry.
 There are    70 symmetry adapted basis functions of A'  symmetry.
 There are    38 symmetry adapted basis functions of A"  symmetry.
   108 basis functions,   152 primitive gaussians,   120 cartesian basis functions
    10 alpha electrons        8 beta electrons
       nuclear repulsion energy        34.4375564720 Hartrees.
 IExCor=  402 DFT=T Ex+Corr=B3LYP ExCW=0 ScaHFX=  0.200000
 ScaDFX=  0.800000  0.720000  1.000000  0.810000 ScalE2=  1.000000  1.000000
 IRadAn=      0 IRanWt=     -1 IRanGd=            0 ICorTp=0 IEmpDi=  4
 NAtoms=    5 NActive=    5 NUniq=    4 SFac= 1.56D+00 NAtFMM=   60 NAOKFM=F Big=F
 Integral buffers will be    131072 words long.
 Raffenetti 2 integral format.
 Two-electron integral symmetry is turned on.
 Leave Link  301 at Thu Mar  7 10:29:57 2019, MaxMem=    33554432 cpu:         0.2
 (Enter /home/proyectos/fulerenos/M3C-v2.0/M3C-deps_CCC/g09-AM64L-G09RevC.01/l302.exe)
 NPDir=0 NMtPBC=     1 NCelOv=     1 NCel=       1 NClECP=     1 NCelD=      1
         NCelK=      1 NCelE2=     1 NClLst=     1 CellRange=     0.0.
 One-electron integrals computed using PRISM.
 One-electron integral symmetry used in STVInt
 NBasis=   108 RedAO= T EigKep=  8.63D-04  NBF=    70    38
 NBsUse=   108 1.00D-06 EigRej= -1.00D+00 NBFU=    70    38
 Precomputing XC quadrature grid using
 IXCGrd= 4 IRadAn=           0 IRanWt=          -1 IRanGd=           0 AccXCQ= 0.00D+00.
 Generated NRdTot=       0 NPtTot=           0 NUsed=           0 NTot=          32
 NSgBfM=   120   120   120   120   120 MxSgAt=     5 MxSgA2=     5.
 Leave Link  302 at Thu Mar  7 10:29:57 2019, MaxMem=    33554432 cpu:         0.8
 (Enter /home/proyectos/fulerenos/M3C-v2.0/M3C-deps_CCC/g09-AM64L-G09RevC.01/l303.exe)
 DipDrv:  MaxL=1.
 Leave Link  303 at Thu Mar  7 10:29:57 2019, MaxMem=    33554432 cpu:         0.1
 (Enter /home/proyectos/fulerenos/M3C-v2.0/M3C-deps_CCC/g09-AM64L-G09RevC.01/l401.exe)
 ExpMin= 3.60D-02 ExpMax= 8.59D+03 ExpMxC= 1.30D+03 IAcc=3 IRadAn=         5 AccDes= 0.00D+00
 Harris functional with IExCor=  402 and IRadAn=       5 diagonalized for initial guess.
 HarFok:  IExCor=  402 AccDes= 0.00D+00 IRadAn=         5 IDoV= 1 UseB2=F ITyADJ=14
 ICtDFT=  3500011 ScaDFX=  1.000000  1.000000  1.000000  1.000000
 FoFCou: FMM=F IPFlag=           0 FMFlag=      100000 FMFlg1=           0
         NFxFlg=           0 DoJE=T BraDBF=F KetDBF=T FulRan=T
         wScrn=  0.000000 ICntrl=     500 IOpCl=  0 I1Cent=   200000004 NGrid=           0
         NMat0=    1 NMatS0=      1 NMatT0=    0 NMatD0=    1 NMtDS0=    0 NMtDT0=    0
 Petite list used in FoFCou.
 Harris En= -115.120021931986    
 JPrj=0 DoOrth=F DoCkMO=F.
 Initial guess orbital symmetries:
 Alpha Orbitals:
       Occupied  (A') (A') (A') (A') (A") (A') (A') (A") (A') (A')
       Virtual   (A') (A") (A') (A') (A") (A') (A') (A') (A") (A')
                 (A') (A") (A') (A') (A') (A") (A") (A') (A') (A')
                 (A") (A') (A') (A") (A') (A') (A") (A") (A') (A')
                 (A") (A') (A") (A") (A') (A') (A') (A") (A') (A')
                 (A") (A') (A') (A') (A") (A') (A') (A") (A') (A')
                 (A') (A") (A") (A') (A") (A') (A') (A') (A") (A')
                 (A") (A') (A") (A') (A") (A') (A') (A') (A") (A')
                 (A") (A') (A") (A') (A') (A") (A") (A') (A") (A')
                 (A') (A") (A') (A') (A") (A') (A") (A') (A') (A")
                 (A') (A") (A') (A') (A") (A') (A') (A')
 Beta  Orbitals:
       Occupied  (A') (A') (A') (A') (A") (A') (A') (A")
       Virtual   (A') (A') (A') (A") (A') (A') (A") (A') (A') (A')
                 (A") (A') (A') (A") (A') (A') (A') (A") (A") (A')
                 (A') (A') (A") (A') (A') (A") (A') (A') (A") (A")
                 (A') (A') (A") (A') (A") (A") (A') (A') (A') (A")
                 (A') (A') (A") (A') (A') (A') (A") (A') (A') (A")
                 (A') (A') (A') (A") (A") (A') (A") (A') (A') (A')
                 (A") (A') (A") (A') (A") (A') (A") (A') (A') (A')
                 (A") (A') (A") (A') (A") (A') (A') (A") (A") (A')
                 (A") (A') (A') (A") (A') (A') (A") (A') (A") (A')
                 (A') (A") (A') (A") (A') (A') (A") (A') (A') (A')
 The electronic state of the initial guess is 3-A'.
 Initial guess <Sx>= 0.0000 <Sy>= 0.0000 <Sz>= 1.0000 <S**2>= 2.0000 S= 1.0000
 Leave Link  401 at Thu Mar  7 10:29:57 2019, MaxMem=    33554432 cpu:         1.9
 (Enter /home/proyectos/fulerenos/M3C-v2.0/M3C-deps_CCC/g09-AM64L-G09RevC.01/l502.exe)
 UHF open shell SCF:
 Using DIIS extrapolation, IDIIS=  1040.
 Integral symmetry usage will be decided dynamically.
 Keep R1 and R2 ints in memory in symmetry-blocked form, NReq=26309499.
 IVT=       63492 IEndB=       63492 NGot=    33554432 MDV=    15989323
 LenX=    15989323 LenY=    15974482
 Requested convergence on RMS density matrix=1.00D-08 within 128 cycles.
 Requested convergence on MAX density matrix=1.00D-06.
 Requested convergence on             energy=1.00D-06.
 No special actions if energy rises.
 FoFCou: FMM=F IPFlag=           0 FMFlag=           0 FMFlg1=           0
         NFxFlg=           0 DoJE=F BraDBF=F KetDBF=F FulRan=T
         wScrn=  0.000000 ICntrl=     600 IOpCl=  0 I1Cent=           0 NGrid=           0
         NMat0=    1 NMatS0=   5886 NMatT0=    0 NMatD0=    1 NMtDS0=    0 NMtDT0=    0
 Petite list used in FoFCou.

 Cycle   1  Pass 1  IDiag  1:
 E= -114.987757595550    
 DIIS: error= 3.07D-02 at cycle   1 NSaved=   1.
 NSaved= 1 IEnMin= 1 EnMin= -114.987757595550     IErMin= 1 ErrMin= 3.07D-02
 ErrMax= 3.07D-02  0.00D+00 EMaxC= 1.00D-01 BMatC= 2.74D-01 BMatP= 2.74D-01
 IDIUse=3 WtCom= 6.93D-01 WtEn= 3.07D-01
 Coeff-Com:  0.100D+01
 Coeff-En:   0.100D+01
 Coeff:      0.100D+01
 Gap=     0.051 Goal=   None    Shift=    0.000
 Gap=     0.120 Goal=   None    Shift=    0.000
 GapD=    0.051 DampG=0.500 DampE=0.500 DampFc=0.2500 IDamp=-1.
 Damping current iteration by 2.50D-01
 RMSDP=2.80D-01 MaxDP=3.20D+01              OVMax= 4.48D-01

 Cycle   2  Pass 1  IDiag  1:
 E= -115.016653798173     Delta-E=       -0.028896202623 Rises=F Damp=T
 DIIS: error= 1.50D-02 at cycle   2 NSaved=   2.
 NSaved= 2 IEnMin= 2 EnMin= -115.016653798173     IErMin= 2 ErrMin= 1.50D-02
 ErrMax= 1.50D-02  0.00D+00 EMaxC= 1.00D-01 BMatC= 7.24D-02 BMatP= 2.74D-01
 IDIUse=3 WtCom= 8.50D-01 WtEn= 1.50D-01
 Coeff-Com: -0.854D+00 0.185D+01
 Coeff-En:   0.000D+00 0.100D+01
 Coeff:     -0.726D+00 0.173D+01
 Gap=     0.051 Goal=   None    Shift=    0.000
 Gap=     0.120 Goal=   None    Shift=    0.000
 RMSDP=1.85D-01 MaxDP=2.11D+01 DE=-2.89D-02 OVMax= 8.83D-02

 Cycle   3  Pass 1  IDiag  1:
 E= -115.074059784407     Delta-E=       -0.057405986235 Rises=F Damp=F
 DIIS: error= 4.82D-03 at cycle   3 NSaved=   3.
 NSaved= 3 IEnMin= 3 EnMin= -115.074059784407     IErMin= 3 ErrMin= 4.82D-03
 ErrMax= 4.82D-03  0.00D+00 EMaxC= 1.00D-01 BMatC= 3.28D-03 BMatP= 7.24D-02
 IDIUse=3 WtCom= 9.52D-01 WtEn= 4.82D-02
 Coeff-Com: -0.113D+00 0.289D+00 0.823D+00
 Coeff-En:   0.000D+00 0.000D+00 0.100D+01
 Coeff:     -0.108D+00 0.276D+00 0.832D+00
 Gap=     0.051 Goal=   None    Shift=    0.000
 Gap=     0.121 Goal=   None    Shift=    0.000
 RMSDP=2.50D-02 MaxDP=2.93D+00 DE=-5.74D-02 OVMax= 3.93D-02

 Cycle   4  Pass 1  IDiag  1:
 E= -115.074573655093     Delta-E=       -0.000513870686 Rises=F Damp=F
 DIIS: error= 2.92D-03 at cycle   4 NSaved=   4.
 NSaved= 4 IEnMin= 4 EnMin= -115.074573655093     IErMin= 4 ErrMin= 2.92D-03
 ErrMax= 2.92D-03  0.00D+00 EMaxC= 1.00D-01 BMatC= 3.77D-03 BMatP= 3.28D-03
 IDIUse=3 WtCom= 1.56D-01 WtEn= 8.44D-01
 Coeff-Com:  0.197D-01-0.142D-01 0.526D+00 0.469D+00
 Coeff-En:   0.000D+00 0.000D+00 0.323D+00 0.677D+00
 Coeff:      0.307D-02-0.222D-02 0.354D+00 0.645D+00
 Gap=     0.051 Goal=   None    Shift=    0.000
 Gap=     0.123 Goal=   None    Shift=    0.000
 RMSDP=1.70D-02 MaxDP=1.99D+00 DE=-5.14D-04 OVMax= 1.70D-02

 Cycle   5  Pass 1  IDiag  1:
 E= -115.075093726344     Delta-E=       -0.000520071250 Rises=F Damp=F
 DIIS: error= 2.07D-03 at cycle   5 NSaved=   5.
 NSaved= 5 IEnMin= 5 EnMin= -115.075093726344     IErMin= 5 ErrMin= 2.07D-03
 ErrMax= 2.07D-03  0.00D+00 EMaxC= 1.00D-01 BMatC= 1.61D-03 BMatP= 3.28D-03
 IDIUse=3 WtCom= 9.79D-01 WtEn= 2.07D-02
 Coeff-Com:  0.499D-02-0.336D-01-0.684D-02 0.405D+00 0.630D+00
 Coeff-En:   0.000D+00 0.000D+00 0.000D+00 0.282D+00 0.718D+00
 Coeff:      0.489D-02-0.329D-01-0.669D-02 0.403D+00 0.632D+00
 Gap=     0.051 Goal=   None    Shift=    0.000
 Gap=     0.124 Goal=   None    Shift=    0.000
 RMSDP=9.18D-03 MaxDP=1.07D+00 DE=-5.20D-04 OVMax= 1.08D-02

 Cycle   6  Pass 1  IDiag  1:
 E= -115.075415841727     Delta-E=       -0.000322115383 Rises=F Damp=F
 DIIS: error= 1.12D-04 at cycle   6 NSaved=   6.
 NSaved= 6 IEnMin= 6 EnMin= -115.075415841727     IErMin= 6 ErrMin= 1.12D-04
 ErrMax= 1.12D-04  0.00D+00 EMaxC= 1.00D-01 BMatC= 5.44D-06 BMatP= 1.61D-03
 IDIUse=3 WtCom= 9.99D-01 WtEn= 1.12D-03
 Coeff-Com: -0.671D-02 0.937D-02-0.351D-01-0.490D-01-0.150D-02 0.108D+01
 Coeff-En:   0.000D+00 0.000D+00 0.000D+00 0.000D+00 0.000D+00 0.100D+01
 Coeff:     -0.670D-02 0.936D-02-0.350D-01-0.489D-01-0.150D-02 0.108D+01
 Gap=     0.051 Goal=   None    Shift=    0.000
 Gap=     0.124 Goal=   None    Shift=    0.000
 RMSDP=5.44D-03 MaxDP=6.28D-01 DE=-3.22D-04 OVMax= 4.90D-03

 Cycle   7  Pass 1  IDiag  1:
 E= -115.075420405801     Delta-E=       -0.000004564074 Rises=F Damp=F
 DIIS: error= 3.75D-05 at cycle   7 NSaved=   7.
 NSaved= 7 IEnMin= 7 EnMin= -115.075420405801     IErMin= 7 ErrMin= 3.75D-05
 ErrMax= 3.75D-05  0.00D+00 EMaxC= 1.00D-01 BMatC= 3.14D-07 BMatP= 5.44D-06
 IDIUse=1 WtCom= 1.00D+00 WtEn= 0.00D+00
 Coeff-Com:  0.153D-02-0.125D-02 0.153D-02-0.197D-01-0.246D-01 0.197D-01
 Coeff-Com:  0.102D+01
 Coeff:      0.153D-02-0.125D-02 0.153D-02-0.197D-01-0.246D-01 0.197D-01
 Coeff:      0.102D+01
 Gap=     0.051 Goal=   None    Shift=    0.000
 Gap=     0.124 Goal=   None    Shift=    0.000
 RMSDP=1.07D-03 MaxDP=1.22D-01 DE=-4.56D-06 OVMax= 8.81D-04

 Cycle   8  Pass 1  IDiag  1:
 E= -115.075420589844     Delta-E=       -0.000000184042 Rises=F Damp=F
 DIIS: error= 8.44D-06 at cycle   8 NSaved=   8.
 NSaved= 8 IEnMin= 8 EnMin= -115.075420589844     IErMin= 8 ErrMin= 8.44D-06
 ErrMax= 8.44D-06  0.00D+00 EMaxC= 1.00D-01 BMatC= 1.33D-08 BMatP= 3.14D-07
 IDIUse=1 WtCom= 1.00D+00 WtEn= 0.00D+00
 Coeff-Com:  0.442D-03-0.453D-03 0.137D-02-0.625D-03-0.312D-02-0.397D-01
 Coeff-Com:  0.143D+00 0.899D+00
 Coeff:      0.442D-03-0.453D-03 0.137D-02-0.625D-03-0.312D-02-0.397D-01
 Coeff:      0.143D+00 0.899D+00
 Gap=     0.051 Goal=   None    Shift=    0.000
 Gap=     0.124 Goal=   None    Shift=    0.000
 RMSDP=1.52D-04 MaxDP=1.66D-02 DE=-1.84D-07 OVMax= 1.54D-04

 Cycle   9  Pass 1  IDiag  1:
 E= -115.075420596996     Delta-E=       -0.000000007152 Rises=F Damp=F
 DIIS: error= 2.91D-06 at cycle   9 NSaved=   9.
 NSaved= 9 IEnMin= 9 EnMin= -115.075420596996     IErMin= 9 ErrMin= 2.91D-06
 ErrMax= 2.91D-06  0.00D+00 EMaxC= 1.00D-01 BMatC= 2.27D-09 BMatP= 1.33D-08
 IDIUse=1 WtCom= 1.00D+00 WtEn= 0.00D+00
 Coeff-Com: -0.579D-04 0.654D-04 0.220D-03 0.151D-02 0.122D-02-0.129D-01
 Coeff-Com: -0.571D-01 0.265D+00 0.802D+00
 Coeff:     -0.579D-04 0.654D-04 0.220D-03 0.151D-02 0.122D-02-0.129D-01
 Coeff:     -0.571D-01 0.265D+00 0.802D+00
 Gap=     0.051 Goal=   None    Shift=    0.000
 Gap=     0.124 Goal=   None    Shift=    0.000
 RMSDP=4.48D-05 MaxDP=4.05D-03 DE=-7.15D-09 OVMax= 7.93D-05

 Cycle  10  Pass 1  IDiag  1:
 E= -115.075420598105     Delta-E=       -0.000000001110 Rises=F Damp=F
 DIIS: error= 8.95D-07 at cycle  10 NSaved=  10.
 NSaved=10 IEnMin=10 EnMin= -115.075420598105     IErMin=10 ErrMin= 8.95D-07
 ErrMax= 8.95D-07  0.00D+00 EMaxC= 1.00D-01 BMatC= 1.54D-10 BMatP= 2.27D-09
 IDIUse=1 WtCom= 1.00D+00 WtEn= 0.00D+00
 Coeff-Com: -0.534D-04 0.631D-04-0.281D-04 0.361D-03 0.406D-03-0.214D-03
 Coeff-Com: -0.230D-01-0.990D-02 0.180D+00 0.852D+00
 Coeff:     -0.534D-04 0.631D-04-0.281D-04 0.361D-03 0.406D-03-0.214D-03
 Coeff:     -0.230D-01-0.990D-02 0.180D+00 0.852D+00
 Gap=     0.051 Goal=   None    Shift=    0.000
 Gap=     0.124 Goal=   None    Shift=    0.000
 RMSDP=7.29D-06 MaxDP=3.75D-04 DE=-1.11D-09 OVMax= 1.74D-05

 Cycle  11  Pass 1  IDiag  1:
 E= -115.075420598193     Delta-E=       -0.000000000088 Rises=F Damp=F
 DIIS: error= 1.73D-07 at cycle  11 NSaved=  11.
 NSaved=11 IEnMin=11 EnMin= -115.075420598193     IErMin=11 ErrMin= 1.73D-07
 ErrMax= 1.73D-07  0.00D+00 EMaxC= 1.00D-01 BMatC= 1.10D-11 BMatP= 1.54D-10
 IDIUse=1 WtCom= 1.00D+00 WtEn= 0.00D+00
 Coeff-Com:  0.343D-05-0.147D-05-0.208D-04-0.137D-03-0.156D-03 0.122D-02
 Coeff-Com:  0.615D-02-0.208D-01-0.615D-01-0.139D+00 0.121D+01
 Coeff:      0.343D-05-0.147D-05-0.208D-04-0.137D-03-0.156D-03 0.122D-02
 Coeff:      0.615D-02-0.208D-01-0.615D-01-0.139D+00 0.121D+01
 Gap=     0.051 Goal=   None    Shift=    0.000
 Gap=     0.124 Goal=   None    Shift=    0.000
 RMSDP=5.43D-06 MaxDP=4.25D-04 DE=-8.82D-11 OVMax= 9.55D-06

 Cycle  12  Pass 1  IDiag  1:
 E= -115.075420598206     Delta-E=       -0.000000000013 Rises=F Damp=F
 DIIS: error= 5.37D-08 at cycle  12 NSaved=  12.
 NSaved=12 IEnMin=12 EnMin= -115.075420598206     IErMin=12 ErrMin= 5.37D-08
 ErrMax= 5.37D-08  0.00D+00 EMaxC= 1.00D-01 BMatC= 9.27D-13 BMatP= 1.10D-11
 IDIUse=1 WtCom= 1.00D+00 WtEn= 0.00D+00
 Coeff-Com:  0.330D-05-0.364D-05-0.372D-05-0.297D-04-0.190D-04 0.894D-04
 Coeff-Com:  0.126D-02 0.110D-02-0.106D-01-0.734D-01 0.401D-01 0.104D+01
 Coeff:      0.330D-05-0.364D-05-0.372D-05-0.297D-04-0.190D-04 0.894D-04
 Coeff:      0.126D-02 0.110D-02-0.106D-01-0.734D-01 0.401D-01 0.104D+01
 Gap=     0.051 Goal=   None    Shift=    0.000
 Gap=     0.124 Goal=   None    Shift=    0.000
 RMSDP=1.28D-06 MaxDP=9.69D-05 DE=-1.26D-11 OVMax= 2.30D-06

 Cycle  13  Pass 1  IDiag  1:
 E= -115.075420598205     Delta-E=        0.000000000001 Rises=F Damp=F
 DIIS: error= 1.59D-08 at cycle  13 NSaved=  13.
 NSaved=13 IEnMin=12 EnMin= -115.075420598206     IErMin=13 ErrMin= 1.59D-08
 ErrMax= 1.59D-08  0.00D+00 EMaxC= 1.00D-01 BMatC= 4.27D-14 BMatP= 9.27D-13
 IDIUse=1 WtCom= 1.00D+00 WtEn= 0.00D+00
 Coeff-Com: -0.550D-06 0.572D-06 0.148D-05 0.108D-04 0.121D-04-0.846D-04
 Coeff-Com: -0.551D-03 0.169D-02 0.561D-02 0.820D-02-0.751D-01-0.113D+00
 Coeff-Com:  0.117D+01
 Coeff:     -0.550D-06 0.572D-06 0.148D-05 0.108D-04 0.121D-04-0.846D-04
 Coeff:     -0.551D-03 0.169D-02 0.561D-02 0.820D-02-0.751D-01-0.113D+00
 Coeff:      0.117D+01
 Gap=     0.051 Goal=   None    Shift=    0.000
 Gap=     0.124 Goal=   None    Shift=    0.000
 RMSDP=2.67D-07 MaxDP=2.10D-05 DE= 6.82D-13 OVMax= 5.02D-07

 Cycle  14  Pass 1  IDiag  1:
 E= -115.075420598207     Delta-E=       -0.000000000002 Rises=F Damp=F
 DIIS: error= 3.73D-09 at cycle  14 NSaved=  14.
 NSaved=14 IEnMin=14 EnMin= -115.075420598207     IErMin=14 ErrMin= 3.73D-09
 ErrMax= 3.73D-09  0.00D+00 EMaxC= 1.00D-01 BMatC= 4.39D-15 BMatP= 4.27D-14
 IDIUse=1 WtCom= 1.00D+00 WtEn= 0.00D+00
 Coeff-Com: -0.230D-06 0.288D-06 0.443D-06 0.144D-05-0.443D-06-0.315D-05
 Coeff-Com: -0.396D-04-0.418D-04 0.366D-03 0.324D-02 0.307D-02-0.883D-01
 Coeff-Com:  0.532D-01 0.103D+01
 Coeff:     -0.230D-06 0.288D-06 0.443D-06 0.144D-05-0.443D-06-0.315D-05
 Coeff:     -0.396D-04-0.418D-04 0.366D-03 0.324D-02 0.307D-02-0.883D-01
 Coeff:      0.532D-01 0.103D+01
 Gap=     0.051 Goal=   None    Shift=    0.000
 Gap=     0.124 Goal=   None    Shift=    0.000
 RMSDP=2.14D-08 MaxDP=1.17D-06 DE=-1.76D-12 OVMax= 6.09D-08

 Cycle  15  Pass 1  IDiag  1:
 E= -115.075420598207     Delta-E=        0.000000000000 Rises=F Damp=F
 DIIS: error= 9.48D-10 at cycle  15 NSaved=  15.
 NSaved=15 IEnMin=14 EnMin= -115.075420598207     IErMin=15 ErrMin= 9.48D-10
 ErrMax= 9.48D-10  0.00D+00 EMaxC= 1.00D-01 BMatC= 2.25D-16 BMatP= 4.39D-15
 IDIUse=1 WtCom= 1.00D+00 WtEn= 0.00D+00
 Coeff-Com:  0.630D-07-0.834D-07-0.817D-07-0.686D-06-0.543D-06 0.395D-05
 Coeff-Com:  0.335D-04-0.985D-04-0.324D-03-0.809D-03 0.519D-02 0.479D-02
 Coeff-Com: -0.599D-01-0.532D-01 0.110D+01
 Coeff:      0.630D-07-0.834D-07-0.817D-07-0.686D-06-0.543D-06 0.395D-05
 Coeff:      0.335D-04-0.985D-04-0.324D-03-0.809D-03 0.519D-02 0.479D-02
 Coeff:     -0.599D-01-0.532D-01 0.110D+01
 Gap=     0.051 Goal=   None    Shift=    0.000
 Gap=     0.124 Goal=   None    Shift=    0.000
 RMSDP=2.58D-08 MaxDP=2.73D-06 DE= 3.41D-13 OVMax= 2.17D-08

 Cycle  16  Pass 1  IDiag  1:
 E= -115.075420598207     Delta-E=       -0.000000000000 Rises=F Damp=F
 DIIS: error= 1.62D-10 at cycle  16 NSaved=  16.
 NSaved=16 IEnMin=14 EnMin= -115.075420598207     IErMin=16 ErrMin= 1.62D-10
 ErrMax= 1.62D-10  0.00D+00 EMaxC= 1.00D-01 BMatC= 9.53D-18 BMatP= 2.25D-16
 IDIUse=1 WtCom= 1.00D+00 WtEn= 0.00D+00
 Large coefficients: NSaved= 16 BigCof=    0.00 CofMax=   10.00 Det=-2.47D-17
 Inversion failed.  Reducing to 15 matrices.
 Coeff-Com: -0.121D-08-0.861D-08 0.109D-06 0.185D-06-0.822D-06-0.510D-05
 Coeff-Com:  0.183D-04 0.465D-04 0.933D-04-0.108D-02 0.156D-02 0.155D-01
 Coeff-Com: -0.513D-01-0.206D+00 0.124D+01
 Coeff:     -0.121D-08-0.861D-08 0.109D-06 0.185D-06-0.822D-06-0.510D-05
 Coeff:      0.183D-04 0.465D-04 0.933D-04-0.108D-02 0.156D-02 0.155D-01
 Coeff:     -0.513D-01-0.206D+00 0.124D+01
 Gap=     0.051 Goal=   None    Shift=    0.000
 Gap=     0.124 Goal=   None    Shift=    0.000
 RMSDP=8.37D-09 MaxDP=7.42D-07 DE=-2.27D-13 OVMax= 1.22D-08

 SCF Done:  E(UB3LYP) =  -115.075420598     A.U. after   16 cycles
            NFock= 16  Conv=0.84D-08     -V/T= 2.0032
 <Sx>= 0.0000 <Sy>= 0.0000 <Sz>= 1.0000 <S**2>= 2.0043 S= 1.0014
 <L.S>= 0.000000000000E+00
 KE= 1.147135781134D+02 PE=-3.416830650313D+02 EE= 7.745650984761D+01
 Annihilation of the first spin contaminant:
 S**2 before annihilation     2.0043,   after     2.0000
 Leave Link  502 at Thu Mar  7 10:30:03 2019, MaxMem=    33554432 cpu:        21.4
 (Enter /home/proyectos/fulerenos/M3C-v2.0/M3C-deps_CCC/g09-AM64L-G09RevC.01/l801.exe)
 DoSCS=F DFT=T ScalE2(SS,OS)=  1.000000  1.000000
 Range of M.O.s used for correlation:     1   108
 NBasis=   108 NAE=    10 NBE=     8 NFC=     0 NFV=     0
 NROrb=    108 NOA=    10 NOB=     8 NVA=    98 NVB=   100

 **** Warning!!: The largest alpha MO coefficient is  0.13593674D+02


 **** Warning!!: The smallest alpha delta epsilon is  0.50696083D-01


 **** Warning!!: The largest beta MO coefficient is  0.14328566D+02

 Leave Link  801 at Thu Mar  7 10:30:03 2019, MaxMem=    33554432 cpu:         0.1
 (Enter /home/proyectos/fulerenos/M3C-v2.0/M3C-deps_CCC/g09-AM64L-G09RevC.01/l1101.exe)
 Using compressed storage, NAtomX=     5.
 Will process      6 centers per pass.
 Leave Link 1101 at Thu Mar  7 10:30:05 2019, MaxMem=    33554432 cpu:         6.4
 (Enter /home/proyectos/fulerenos/M3C-v2.0/M3C-deps_CCC/g09-AM64L-G09RevC.01/l1102.exe)
 Symmetrizing basis deriv contribution to polar:
 IMax=3 JMax=2 DiffMx= 0.00D+00
 Leave Link 1102 at Thu Mar  7 10:30:05 2019, MaxMem=    33554432 cpu:         0.1
 (Enter /home/proyectos/fulerenos/M3C-v2.0/M3C-deps_CCC/g09-AM64L-G09RevC.01/l1110.exe)
 Forming Gx(P) for the SCF density, NAtomX=     5.
 Integral derivatives from FoFJK, PRISM(SPDF).
 Do as many integral derivatives as possible in FoFJK.
 G2DrvN: MDV=      33554288.
 G2DrvN: will do     6 centers at a time, making    1 passes.
 Calling FoFCou, ICntrl=  3107 FMM=F I1Cent=   0 AccDes= 0.00D+00.
 FoFJK:  IHMeth= 1 ICntrl=    3107 DoSepK=F KAlg= 0 I1Cent=   0 FoldK=F
 IRaf=         0 NMat=   1 IRICut=       1 DoRegI=T DoRafI=F ISym2E= 1.
 FoFCou: FMM=F IPFlag=           0 FMFlag=      100000 FMFlg1=           0
         NFxFlg=           0 DoJE=F BraDBF=F KetDBF=F FulRan=T
         wScrn=  0.000000 ICntrl=    3107 IOpCl=  1 I1Cent=           0 NGrid=           0
         NMat0=    1 NMatS0=      1 NMatT0=    0 NMatD0=    1 NMtDS0=    0 NMtDT0=    0
 Petite list used in FoFCou.
 End of G2Drv F.D. properties file   721 does not exist.
 End of G2Drv F.D. properties file   722 does not exist.
 End of G2Drv F.D. properties file   788 does not exist.
 Leave Link 1110 at Thu Mar  7 10:30:12 2019, MaxMem=    33554432 cpu:        27.0
 (Enter /home/proyectos/fulerenos/M3C-v2.0/M3C-deps_CCC/g09-AM64L-G09RevC.01/l1002.exe)
 Minotr:  UHF open shell wavefunction.
          IDoAtm=11111
          Direct CPHF calculation.
          Differentiating once with respect to electric field.
                with respect to dipole field.
          Differentiating once with respect to nuclear coordinates.
          Using symmetry in CPHF.
          Requested convergence is 1.0D-08 RMS, and 1.0D-07 maximum.
          Secondary convergence is 1.0D-12 RMS, and 1.0D-12 maximum.
          NewPWx=T KeepS1=F KeepF1=F KeepIn=T MapXYZ=F SortEE=F KeepMc=T.
          MDV=      33554162 using IRadAn=       2.
 Generate precomputed XC quadrature information.
 Keep R1 and R2 ints in memory in symmetry-blocked form, NReq=26248484.
 FoFCou: FMM=F IPFlag=           0 FMFlag=           0 FMFlg1=           0
         NFxFlg=           0 DoJE=F BraDBF=F KetDBF=F FulRan=T
         wScrn=  0.000000 ICntrl=     600 IOpCl=  0 I1Cent=           0 NGrid=           0
         NMat0=    1 NMatS0=   5886 NMatT0=    0 NMatD0=    1 NMtDS0=    0 NMtDT0=    0
 Petite list used in FoFCou.
          Solving linear equations simultaneously, MaxMat=       0.
          There are    15 degrees of freedom in the 1st order CPHF.  IDoFFX=4 NUNeed=    15.
     15 vectors produced by pass  0 Test12= 1.19D-14 6.67D-09 XBig12= 6.17D+03 7.81D+01.
 AX will form    15 AO Fock derivatives at one time.
     15 vectors produced by pass  1 Test12= 1.19D-14 6.67D-09 XBig12= 1.11D+02 3.26D+00.
     15 vectors produced by pass  2 Test12= 1.19D-14 6.67D-09 XBig12= 3.81D+00 5.79D-01.
     15 vectors produced by pass  3 Test12= 1.19D-14 6.67D-09 XBig12= 7.65D-02 8.32D-02.
     15 vectors produced by pass  4 Test12= 1.19D-14 6.67D-09 XBig12= 8.22D-04 5.67D-03.
     15 vectors produced by pass  5 Test12= 1.19D-14 6.67D-09 XBig12= 5.25D-06 5.53D-04.
     15 vectors produced by pass  6 Test12= 1.19D-14 6.67D-09 XBig12= 2.38D-08 3.66D-05.
      6 vectors produced by pass  7 Test12= 1.19D-14 6.67D-09 XBig12= 1.27D-10 2.06D-06.
      3 vectors produced by pass  8 Test12= 1.19D-14 6.67D-09 XBig12= 3.83D-13 1.23D-07.
      2 vectors produced by pass  9 Test12= 1.19D-14 6.67D-09 XBig12= 1.93D-15 1.59D-08.
 InvSVY:  IOpt=1 It=  1 EMax= 4.26D-14
 Solved reduced A of dimension   116 with    15 vectors.
 FullF1:  Do perturbations    1 to    15.
 Isotropic polarizability for W=    0.000000      619.00 Bohr**3.
 End of Minotr F.D. properties file   721 does not exist.
 End of Minotr F.D. properties file   722 does not exist.
 End of Minotr F.D. properties file   788 does not exist.
 Leave Link 1002 at Thu Mar  7 10:30:32 2019, MaxMem=    33554432 cpu:        80.4
 (Enter /home/proyectos/fulerenos/M3C-v2.0/M3C-deps_CCC/g09-AM64L-G09RevC.01/l601.exe)
 Copying SCF densities to generalized density rwf, IOpCl= 1 IROHF=0.

 **********************************************************************

            Population analysis using the SCF density.

 **********************************************************************

 Orbital symmetries:
 Alpha Orbitals:
       Occupied  (A') (A') (A') (A') (A') (A") (A') (A') (A") (A')
       Virtual   (A") (A') (A') (A') (A") (A') (A') (A') (A") (A')
                 (A') (A") (A') (A') (A") (A') (A") (A') (A') (A')
                 (A") (A') (A') (A") (A') (A') (A") (A') (A") (A')
                 (A") (A') (A") (A') (A") (A') (A') (A") (A') (A')
                 (A") (A') (A') (A') (A") (A') (A') (A") (A') (A')
                 (A') (A") (A') (A") (A") (A') (A') (A') (A") (A')
                 (A") (A') (A") (A') (A") (A') (A') (A") (A') (A')
                 (A") (A') (A") (A') (A') (A") (A") (A') (A") (A')
                 (A') (A') (A") (A') (A") (A') (A") (A') (A') (A")
                 (A') (A") (A') (A') (A") (A') (A') (A')
 Beta  Orbitals:
       Occupied  (A') (A') (A') (A') (A") (A') (A') (A")
       Virtual   (A') (A') (A") (A') (A') (A') (A") (A') (A') (A')
                 (A") (A') (A") (A') (A') (A') (A") (A') (A") (A')
                 (A') (A') (A") (A') (A') (A") (A') (A') (A") (A")
                 (A') (A') (A") (A") (A') (A") (A') (A') (A') (A")
                 (A') (A') (A") (A') (A') (A') (A") (A') (A') (A")
                 (A') (A') (A') (A") (A") (A') (A") (A') (A') (A')
                 (A") (A') (A") (A') (A") (A') (A") (A') (A') (A')
                 (A") (A') (A") (A') (A") (A') (A") (A") (A') (A')
                 (A") (A') (A') (A') (A") (A') (A") (A') (A") (A')
                 (A') (A") (A') (A") (A') (A") (A') (A') (A') (A')
 The electronic state is 3-A'.
 Alpha  occ. eigenvalues --  -19.03203 -10.07560  -0.89328  -0.53059  -0.34217
 Alpha  occ. eigenvalues --   -0.32073  -0.30508  -0.19066  -0.15279   0.06495
 Alpha virt. eigenvalues --    0.11564   0.11614   0.14516   0.19739   0.20544
 Alpha virt. eigenvalues --    0.22517   0.28087   0.28856   0.30073   0.32589
 Alpha virt. eigenvalues --    0.32737   0.34073   0.36673   0.44804   0.45747
 Alpha virt. eigenvalues --    0.46296   0.52370   0.52908   0.65846   0.70770
 Alpha virt. eigenvalues --    0.71787   0.72402   0.77643   0.78940   0.81440
 Alpha virt. eigenvalues --    0.87874   0.97973   1.07884   1.08341   1.11979
 Alpha virt. eigenvalues --    1.14817   1.17509   1.18016   1.18100   1.18526
 Alpha virt. eigenvalues --    1.20532   1.25587   1.36914   1.38414   1.42505
 Alpha virt. eigenvalues --    1.48034   1.52104   1.63210   2.03648   2.06611
 Alpha virt. eigenvalues --    2.12889   2.16683   2.20535   2.24091   2.63444
 Alpha virt. eigenvalues --    2.70794   2.73736   2.99152   2.99346   3.04271
 Alpha virt. eigenvalues --    3.29442   3.37148   3.37666   3.40187   3.53154
 Alpha virt. eigenvalues --    3.55243   3.58900   3.60997   3.91104   3.93422
 Alpha virt. eigenvalues --    3.96573   4.27289   4.33520   4.34713   4.40206
 Alpha virt. eigenvalues --    4.43895   4.46947   4.55941   4.96599   5.13473
 Alpha virt. eigenvalues --    5.13965   5.21404   5.23425   5.37182   5.42272
 Alpha virt. eigenvalues --    5.56570   5.79553   5.81208   6.07847   6.11027
 Alpha virt. eigenvalues --    6.69714   7.37488   7.44996   8.01409   8.05474
 Alpha virt. eigenvalues --    8.15405  14.37834  14.38048  14.58049  14.63257
 Alpha virt. eigenvalues --   14.99063  24.49016  50.24071
  Beta  occ. eigenvalues --  -19.00901 -10.07481  -0.84241  -0.50913  -0.31353
  Beta  occ. eigenvalues --   -0.29080  -0.28346  -0.13329
  Beta virt. eigenvalues --   -0.00904   0.10683   0.13751   0.14070   0.15055
  Beta virt. eigenvalues --    0.20469   0.21058   0.23156   0.28246   0.29752
  Beta virt. eigenvalues --    0.30685   0.33840   0.34036   0.34250   0.37041
  Beta virt. eigenvalues --    0.45721   0.46319   0.47123   0.52457   0.53868
  Beta virt. eigenvalues --    0.66581   0.71567   0.71946   0.73033   0.78595
  Beta virt. eigenvalues --    0.79604   0.81767   0.87854   0.98695   1.09219
  Beta virt. eigenvalues --    1.09850   1.15312   1.15594   1.18494   1.18687
  Beta virt. eigenvalues --    1.18858   1.19657   1.21434   1.26329   1.37571
  Beta virt. eigenvalues --    1.40576   1.44573   1.48583   1.53120   1.64369
  Beta virt. eigenvalues --    2.04192   2.06911   2.13274   2.17772   2.20672
  Beta virt. eigenvalues --    2.25628   2.64157   2.71980   2.74156   2.99713
  Beta virt. eigenvalues --    3.01378   3.04809   3.31396   3.37884   3.38825
  Beta virt. eigenvalues --    3.41119   3.56417   3.57883   3.64448   3.64820
  Beta virt. eigenvalues --    3.92411   3.94271   4.01336   4.28537   4.35594
  Beta virt. eigenvalues --    4.35730   4.41532   4.44439   4.48829   4.56565
  Beta virt. eigenvalues --    4.99159   5.20269   5.22949   5.23459   5.27913
  Beta virt. eigenvalues --    5.40396   5.46332   5.59323   5.81938   5.82212
  Beta virt. eigenvalues --    6.11448   6.11592   6.71054   7.37639   7.45386
  Beta virt. eigenvalues --    8.01694   8.05618   8.16165  14.46799  14.47910
  Beta virt. eigenvalues --   14.64662  14.67371  15.03294  24.49128  50.26416
          Condensed to atoms (all electrons):
               1          2          3          4          5
     1  C   51.058448 -13.060540 -16.214104 -13.060540  -6.336232
     2  H  -13.060540   5.421377   4.577155   3.684166   1.599049
     3  H  -16.214104   4.577155   7.542445   4.577155   2.030092
     4  H  -13.060540   3.684166   4.577155   5.421377   1.599049
     5  O   -6.336232   1.599049   2.030092   1.599049   9.765854
          Atomic-Atomic Spin Densities.
               1          2          3          4          5
     1  C   46.389554 -13.473035 -16.545221 -13.473035  -6.529548
     2  H  -13.473035   4.838095   4.585892   3.765298   1.659705
     3  H  -16.545221   4.585892   7.141629   4.585892   2.028660
     4  H  -13.473035   3.765298   4.585892   4.838095   1.659705
     5  O   -6.529548   1.659705   2.028660   1.659705   2.264000
 Mulliken charges and spin densities:
               1          2
     1  C    3.612969  -3.631285
     2  H   -1.221207   1.375955
     3  H   -1.512743   1.796852
     4  H   -1.221207   1.375955
     5  O   -0.657811   1.082523
 Sum of Mulliken charges =  -1.00000   2.00000
 Mulliken charges and spin densities with hydrogens summed into heavy atoms:
               1          2
     1  C   -0.342189   0.917477
     5  O   -0.657811   1.082523
 APT charges:
               1
     1  C    0.341591
     2  H   -0.361958
     3  H   -0.633009
     4  H   -0.361958
     5  O    0.015334
 Sum of APT charges =  -1.00000
 APT charges with hydrogens summed into heavy atoms:
               1
     1  C   -1.015334
     5  O    0.015334
 Electronic spatial extent (au):  <R**2>=            133.2626
 Charge=             -1.0000 electrons
 Dipole moment (field-independent basis, Debye):
    X=              1.0079    Y=              5.8090    Z=             -0.0000  Tot=              5.8958
 Quadrupole moment (field-independent basis, Debye-Ang):
   XX=            -37.7891   YY=            -41.4495   ZZ=            -37.8614
   XY=             -1.0084   XZ=              0.0000   YZ=              0.0000
 Traceless Quadrupole moment (field-independent basis, Debye-Ang):
   XX=              1.2442   YY=             -2.4161   ZZ=              1.1719
   XY=             -1.0084   XZ=              0.0000   YZ=              0.0000
 Octapole moment (field-independent basis, Debye-Ang**2):
  XXX=             20.3308  YYY=             90.1314  ZZZ=              0.0000  XYY=              4.2074
  XXY=             38.3549  XXZ=             -0.0000  XZZ=             -0.6767  YZZ=             37.6508
  YYZ=             -0.0000  XYZ=             -0.0000
 Hexadecapole moment (field-independent basis, Debye-Ang**3):
 XXXX=           -328.7492 YYYY=           -422.5980 ZZZZ=           -312.2503 XXXY=            -20.5478
 XXXZ=              0.0000 YYYX=            -10.4005 YYYZ=              0.0000 ZZZX=             -0.0000
 ZZZY=             -0.0000 XXYY=           -133.1496 XXZZ=           -105.2281 YYZZ=           -133.5605
 XXYZ=              0.0000 YYXZ=              0.0000 ZZXY=              1.6177
 N-N= 3.443755647204D+01 E-N=-3.416830650316D+02  KE= 1.147135781134D+02
 Symmetry A'   KE= 1.079267907927D+02
 Symmetry A"   KE= 6.786787320786D+00
  Exact polarizability: 777.082 -50.507 252.459  -0.000  -0.000 827.470
 Approx polarizability: 661.591 -39.922 190.744  -0.000   0.000 645.588
                          Isotropic Fermi Contact Couplings
        Atom                 a.u.       MegaHertz       Gauss      10(-4) cm-1
     1  C(13)              0.07073      39.75752      14.18647      13.26168
     2  H(1)               0.01104      24.67670       8.80526       8.23126
     3  H(1)               0.06226     139.15792      49.65501      46.41809
     4  H(1)               0.01104      24.67670       8.80526       8.23126
     5  O(17)              0.06555     -19.86867      -7.08963      -6.62747
 --------------------------------------------------------
       Center         ----  Spin Dipole Couplings  ----
                      3XX-RR        3YY-RR        3ZZ-RR
 --------------------------------------------------------
     1   Atom        0.035027      0.038095     -0.073122
     2   Atom       -0.012660      0.002691      0.009969
     3   Atom        0.023729     -0.000131     -0.023598
     4   Atom       -0.012660      0.002691      0.009969
     5   Atom        3.509288     -1.740670     -1.768617
 --------------------------------------------------------
                        XY            XZ            YZ
 --------------------------------------------------------
     1   Atom        0.003852     -0.000000      0.000000
     2   Atom       -0.006994      0.009013     -0.016941
     3   Atom        0.019386     -0.000000      0.000000
     4   Atom       -0.006994     -0.009013      0.016941
     5   Atom        0.150587      0.000000      0.000000
 --------------------------------------------------------


 ---------------------------------------------------------------------------------
              Anisotropic Spin Dipole Couplings in Principal Axis System
 ---------------------------------------------------------------------------------

       Atom             a.u.   MegaHertz   Gauss  10(-4) cm-1        Axes

              Baa    -0.0731    -9.812    -3.501    -3.273  0.0000 -0.0000  1.0000
     1 C(13)  Bbb     0.0324     4.350     1.552     1.451  0.8276 -0.5613 -0.0000
              Bcc     0.0407     5.462     1.949     1.822  0.5613  0.8276  0.0000
 
              Baa    -0.0160    -8.513    -3.038    -2.840  0.9601  0.1400 -0.2423
     2 H(1)   Bbb    -0.0110    -5.863    -2.092    -1.956  0.0412  0.7856  0.6173
              Bcc     0.0269    14.376     5.130     4.795  0.2768 -0.6027  0.7485
 
              Baa    -0.0236   -12.591    -4.493    -4.200  0.0000 -0.0000  1.0000
     3 H(1)   Bbb    -0.0110    -5.850    -2.087    -1.951 -0.4878  0.8730  0.0000
              Bcc     0.0346    18.440     6.580     6.151  0.8730  0.4878 -0.0000
 
              Baa    -0.0160    -8.513    -3.038    -2.840  0.9601  0.1400  0.2423
     4 H(1)   Bbb    -0.0110    -5.863    -2.092    -1.956  0.0412  0.7856 -0.6173
              Bcc     0.0269    14.376     5.130     4.795 -0.2768  0.6027  0.7485
 
              Baa    -1.7686   127.976    45.665    42.688  0.0000 -0.0000  1.0000
     5 O(17)  Bbb    -1.7450   126.266    45.055    42.118 -0.0286  0.9996  0.0000
              Bcc     3.5136  -254.242   -90.720   -84.806  0.9996  0.0286  0.0000
 

 ---------------------------------------------------------------------------------

 No NMR shielding tensors so no spin-rotation constants.
 Leave Link  601 at Thu Mar  7 10:30:33 2019, MaxMem=    33554432 cpu:         1.5
 (Enter /home/proyectos/fulerenos/M3C-v2.0/M3C-deps_CCC/g09-AM64L-G09RevC.01/l701.exe)
 Compute integral second derivatives.
 ... and contract with generalized density number  0.
 Leave Link  701 at Thu Mar  7 10:30:33 2019, MaxMem=    33554432 cpu:         1.3
 (Enter /home/proyectos/fulerenos/M3C-v2.0/M3C-deps_CCC/g09-AM64L-G09RevC.01/l702.exe)
 L702 exits ... SP integral derivatives will be done elsewhere.
 Leave Link  702 at Thu Mar  7 10:30:33 2019, MaxMem=    33554432 cpu:         0.1
 (Enter /home/proyectos/fulerenos/M3C-v2.0/M3C-deps_CCC/g09-AM64L-G09RevC.01/l703.exe)
 Compute integral second derivatives, UseDBF=F ICtDFT=           0.
 Integral derivatives from FoFJK, PRISM(SPDF).
 Calling FoFJK, ICntrl=    100127 FMM=F ISym2X=1 I1Cent= 0 IOpClX= 1 NMat=1 NMatS=1 NMatT=0.
 FoFJK:  IHMeth= 1 ICntrl=  100127 DoSepK=F KAlg= 0 I1Cent=   0 FoldK=F
 IRaf=         0 NMat=   1 IRICut=       1 DoRegI=T DoRafI=F ISym2E= 1.
 FoFCou: FMM=F IPFlag=           0 FMFlag=      100000 FMFlg1=         800
         NFxFlg=           0 DoJE=F BraDBF=F KetDBF=F FulRan=T
         wScrn=  0.000000 ICntrl=  100127 IOpCl=  1 I1Cent=           0 NGrid=           0
         NMat0=    1 NMatS0=      1 NMatT0=    0 NMatD0=    1 NMtDS0=    0 NMtDT0=    0
 Petite list used in FoFCou.
 Leave Link  703 at Thu Mar  7 10:30:45 2019, MaxMem=    33554432 cpu:        46.3
 (Enter /home/proyectos/fulerenos/M3C-v2.0/M3C-deps_CCC/g09-AM64L-G09RevC.01/l716.exe)
 Dipole        = 3.96537110D-01 2.28542823D+00 1.58429751D-14
 Polarizability= 7.77081961D+02-5.05073283D+01 2.52458793D+02
                -7.04800019D-07-1.42985659D-05 8.27469797D+02
 Full mass-weighted force constant matrix:
 Low frequencies ---   -0.0010   -0.0006    0.0006   16.8588   19.9970   31.9968
 Low frequencies ---  619.4693  949.1927 1096.3254
 Diagonal vibrational polarizability:
        8.7701537       8.6328268     140.2682754
 Harmonic frequencies (cm**-1), IR intensities (KM/Mole), Raman scattering
 activities (A**4/AMU), depolarization ratios for plane and unpolarized
 incident light, reduced masses (AMU), force constants (mDyne/A),
 and normal coordinates:
                      1                      2                      3
                     A"                     A'                     A'
 Frequencies --    619.4632               949.1926              1096.3253
 Red. masses --      1.3167                 1.5581                 3.8802
 Frc consts  --      0.2977                 0.8271                 2.7478
 IR Inten    --   1841.7815                83.2474                49.4189
  Atom  AN      X      Y      Z        X      Y      Z        X      Y      Z
     1   6     0.00  -0.00  -0.16     0.15   0.10  -0.00    -0.08   0.37  -0.00
     2   1    -0.29   0.36   0.21    -0.32  -0.23   0.06    -0.02   0.40   0.04
     3   1    -0.00   0.00   0.67    -0.12   0.79   0.00     0.16  -0.65   0.00
     4   1     0.29  -0.36   0.21    -0.32  -0.23  -0.06    -0.02   0.40  -0.04
     5   8    -0.00   0.00   0.05    -0.06  -0.10   0.00     0.05  -0.29   0.00
                      4                      5                      6
                     A'                     A"                     A'
 Frequencies --   1322.5212              1330.0068              1499.9489
 Red. masses --      1.0984                 1.0402                 1.1083
 Frc consts  --      1.1320                 1.0841                 1.4691
 IR Inten    --    512.6946               725.4157               478.3182
  Atom  AN      X      Y      Z        X      Y      Z        X      Y      Z
     1   6    -0.05  -0.03   0.00    -0.00  -0.00  -0.03     0.04  -0.08   0.00
     2   1     0.43   0.34  -0.05     0.31   0.54   0.06    -0.32   0.47   0.41
     3   1    -0.20   0.58   0.00    -0.00   0.00  -0.47     0.01  -0.00  -0.00
     4   1     0.43   0.34   0.05    -0.31  -0.54   0.06    -0.32   0.47  -0.41
     5   8    -0.00  -0.06  -0.00    -0.00  -0.00   0.04     0.01   0.00   0.00
                      7                      8                      9
                     A'                     A'                     A"
 Frequencies --   2778.9961              2893.9365              2958.5101
 Red. masses --      1.0522                 1.0604                 1.0983
 Frc consts  --      4.7876                 5.2326                 5.6641
 IR Inten    --     54.3449                 3.3895                22.3271
  Atom  AN      X      Y      Z        X      Y      Z        X      Y      Z
     1   6    -0.06  -0.02   0.00    -0.06   0.03   0.00    -0.00   0.00  -0.09
     2   1    -0.10   0.06  -0.15     0.26  -0.27   0.58     0.30  -0.28   0.57
     3   1     0.92   0.27   0.00     0.22   0.08   0.00     0.00   0.00  -0.05
     4   1    -0.10   0.06   0.15     0.26  -0.27  -0.58    -0.30   0.28   0.57
     5   8    -0.00  -0.01   0.00    -0.00   0.00   0.00    -0.00  -0.00  -0.00

 -------------------
 - Thermochemistry -
 -------------------
 Temperature   298.150 Kelvin.  Pressure   1.00000 Atm.
 Atom     1 has atomic number  6 and mass  12.00000
 Atom     2 has atomic number  1 and mass   1.00783
 Atom     3 has atomic number  1 and mass   1.00783
 Atom     4 has atomic number  1 and mass   1.00783
 Atom     5 has atomic number  8 and mass  15.99491
 Molecular mass:    31.01839 amu.
 Principal axes and moments of inertia in atomic units:
                           1         2         3
     Eigenvalues --    11.39378  64.18944  64.73005
           X            0.00638   0.00000   0.99998
           Y            0.99998   0.00000  -0.00638
           Z            0.00000   1.00000   0.00000
 This molecule is an asymmetric top.
 Rotational symmetry number  1.
 Rotational temperatures (Kelvin)      7.60185     1.34935     1.33808
 Rotational constants (GHZ):         158.39703    28.11586    27.88104
 Zero-point vibrational energy      92404.9 (Joules/Mol)
                                   22.08531 (Kcal/Mol)
 Warning -- explicit consideration of   1 degrees of freedom as
           vibrations may cause significant error
 Vibrational temperatures:    891.27  1365.67  1577.37  1902.81  1913.58
          (Kelvin)           2158.09  3998.35  4163.72  4256.63
 
 Zero-point correction=                           0.035195 (Hartree/Particle)
 Thermal correction to Energy=                    0.038272
 Thermal correction to Enthalpy=                  0.039217
 Thermal correction to Gibbs Free Energy=         0.011865
 Sum of electronic and zero-point Energies=           -115.040225
 Sum of electronic and thermal Energies=              -115.037148
 Sum of electronic and thermal Enthalpies=            -115.036204
 Sum of electronic and thermal Free Energies=         -115.063556
 
                     E (Thermal)             CV                S
                      KCal/Mol        Cal/Mol-Kelvin    Cal/Mol-Kelvin
 Total                   24.016              8.019             57.567
 Electronic               0.000              0.000              2.183
 Translational            0.889              2.981             36.229
 Rotational               0.889              2.981             18.499
 Vibrational             22.239              2.058              0.656
 Vibration     1          0.979              0.991              0.417
                       Q            Log10(Q)             Ln(Q)
 Total Bot       0.348894D-05         -5.457307        -12.565913
 Total V=0       0.538667D+11         10.731320         24.709778
 Vib (Bot)       0.695381D-16        -16.157777        -37.204657
 Vib (Bot)    1  0.236210D+00         -0.626701         -1.443033
 Vib (V=0)       0.107362D+01          0.030850          0.071034
 Vib (V=0)    1  0.105299D+01          0.022423          0.051631
 Electronic      0.300000D+01          0.477121          1.098612
 Translational   0.679022D+07          6.831884         15.730994
 Rotational      0.246300D+04          3.391465          7.809137
 
                                                              b3lyp opt
                                                             IR Spectrum
 
     2  2    2                                                      1      11        1                                               
     9  8    7                                                      5      33        0      9             6                          
     5  9    7                                                      0      32        9      4             1                          
     9  4    9                                                      0      03        6      9             9                          
 
     X  X    X                                                      X      XX        X      X             X                          
                                                                    X      XX                             X                          
                                                                    X      XX                             X                          
                                                                    X      XX                             X                          
                                                                    X      XX                             X                          
                                                                           XX                             X                          
                                                                           X                              X                          
                                                                           X                              X                          
                                                                                                          X                          
                                                                                                          X                          
                                                                                                          X                          
                                                                                                          X                          
                                                                                                          X                          
                                                                                                          X                          
                                                                                                          X                          
                                                                                                          X                          
                                                                                                          X                          
                                                                                                          X                          
                                                                                                          X                          
                                                                                                          X                          
 
 ***** Axes restored to original set *****
 -------------------------------------------------------------------
 Center     Atomic                   Forces (Hartrees/Bohr)
 Number     Number              X              Y              Z
 -------------------------------------------------------------------
      1        6           0.000129032    0.000021007   -0.000089469
      2        1           0.000036528   -0.000063915    0.000014401
      3        1           0.000076482   -0.000014251    0.000030361
      4        1           0.000042647    0.000039409    0.000047486
      5        8          -0.000284688    0.000017749   -0.000002779
 -------------------------------------------------------------------
 Cartesian Forces:  Max     0.000284688 RMS     0.000091175
 Z-matrix is all fixed cartesians, so copy forces.
 Force constants in Cartesian coordinates: 
                1             2             3             4             5 
      1  0.419197D+00
      2  0.181054D-01  0.402815D+00
      3 -0.595668D-01 -0.324984D-02  0.424013D+00
      4 -0.585676D-01  0.502442D-01  0.517239D-01  0.840263D-01
      5  0.311955D-01 -0.137362D+00 -0.965984D-01 -0.569896D-01  0.161732D+00
      6  0.498076D-01 -0.121246D+00 -0.145547D+00 -0.549820D-01  0.120070D+00
      7 -0.409526D-01  0.218264D-01 -0.582222D-01  0.297897D-02 -0.159641D-02
      8  0.151726D-01 -0.110169D-01  0.715694D-01 -0.876372D-02 -0.481533D-02
      9 -0.374426D-01  0.703388D-01 -0.199943D+00 -0.742505D-02  0.360146D-02
     10 -0.724984D-01 -0.874675D-01  0.166953D-01  0.554040D-02  0.100072D-01
     11 -0.716861D-01 -0.227808D+00  0.275580D-01 -0.819935D-02 -0.176135D-01
     12  0.288153D-01  0.516013D-01 -0.411705D-01 -0.114798D-01 -0.248172D-01
     13 -0.247179D+00 -0.270847D-02  0.493697D-01 -0.339781D-01  0.173833D-01
     14  0.721258D-02 -0.266283D-01  0.720857D-03  0.237084D-01 -0.194054D-02
     15  0.183865D-01  0.255570D-02 -0.373522D-01  0.221629D-01 -0.225611D-02
                6             7             8             9            10 
      6  0.149684D+00
      7  0.698303D-02  0.669505D-01
      8 -0.137822D-01 -0.243139D-01  0.445325D-01
      9 -0.177663D-01  0.673242D-01 -0.708379D-01  0.229184D+00
     10 -0.370821D-02  0.394526D-02  0.100725D-01 -0.145717D-02  0.101751D+00
     11  0.797098D-02 -0.470452D-02 -0.147565D-01 -0.656005D-03  0.953498D-01
     12  0.745253D-02  0.789977D-02  0.153203D-01 -0.879141D-02 -0.170952D-01
     13  0.189961D-02 -0.329221D-01  0.783247D-02 -0.209993D-01 -0.387384D-01
     14  0.698693D-02  0.878843D-02 -0.139438D-01 -0.244635D-02 -0.279620D-01
     15  0.617612D-02 -0.239848D-01 -0.226955D-02 -0.268309D-02  0.556527D-02
               11            12            13            14            15 
     11  0.252502D+00
     12 -0.348111D-01  0.411892D-01
     13 -0.107598D-01 -0.814006D-02  0.352817D+00
     14  0.767581D-02 -0.729331D-02 -0.117475D-01  0.348369D-01
     15 -0.619074D-04  0.132010D-02 -0.221299D-01  0.203187D-02  0.325391D-01
 Leave Link  716 at Thu Mar  7 10:30:45 2019, MaxMem=    33554432 cpu:         0.1
 (Enter /home/proyectos/fulerenos/M3C-v2.0/M3C-deps_CCC/g09-AM64L-G09RevC.01/l103.exe)

 GradGradGradGradGradGradGradGradGradGradGradGradGradGradGradGradGradGrad
 Berny optimization.
 Search for a local minimum.
 Step number   1 out of a maximum of    2
 All quantities printed in internal units (Hartrees-Bohrs-Radians)
 Second derivative matrix not updated -- analytic derivatives used.
 The second derivative matrix:
                          X1        Y1        Z1        X2        Y2
           X1           0.41920
           Y1           0.01811   0.40282
           Z1          -0.05957  -0.00325   0.42401
           X2          -0.05857   0.05024   0.05172   0.08403
           Y2           0.03120  -0.13736  -0.09660  -0.05699   0.16173
           Z2           0.04981  -0.12125  -0.14555  -0.05498   0.12007
           X3          -0.04095   0.02183  -0.05822   0.00298  -0.00160
           Y3           0.01517  -0.01102   0.07157  -0.00876  -0.00482
           Z3          -0.03744   0.07034  -0.19994  -0.00743   0.00360
           X4          -0.07250  -0.08747   0.01670   0.00554   0.01001
           Y4          -0.07169  -0.22781   0.02756  -0.00820  -0.01761
           Z4           0.02882   0.05160  -0.04117  -0.01148  -0.02482
           X5          -0.24718  -0.00271   0.04937  -0.03398   0.01738
           Y5           0.00721  -0.02663   0.00072   0.02371  -0.00194
           Z5           0.01839   0.00256  -0.03735   0.02216  -0.00226
                          Z2        X3        Y3        Z3        X4
           Z2           0.14968
           X3           0.00698   0.06695
           Y3          -0.01378  -0.02431   0.04453
           Z3          -0.01777   0.06732  -0.07084   0.22918
           X4          -0.00371   0.00395   0.01007  -0.00146   0.10175
           Y4           0.00797  -0.00470  -0.01476  -0.00066   0.09535
           Z4           0.00745   0.00790   0.01532  -0.00879  -0.01710
           X5           0.00190  -0.03292   0.00783  -0.02100  -0.03874
           Y5           0.00699   0.00879  -0.01394  -0.00245  -0.02796
           Z5           0.00618  -0.02398  -0.00227  -0.00268   0.00557
                          Y4        Z4        X5        Y5        Z5
           Y4           0.25250
           Z4          -0.03481   0.04119
           X5          -0.01076  -0.00814   0.35282
           Y5           0.00768  -0.00729  -0.01175   0.03484
           Z5          -0.00006   0.00132  -0.02213   0.00203   0.03254
 ITU=  0
     Eigenvalues ---    0.03091   0.06819   0.08929   0.10554   0.12034
     Eigenvalues ---    0.32866   0.52950   0.61302   0.69840
 Angle between quadratic step and forces=  47.82 degrees.
 ClnCor:  largest displacement from symmetrization is 1.51D-10 for atom     4.
 Linear search not attempted -- first point.
 ClnCor:  largest displacement from symmetrization is 1.42D-15 for atom     4.
 B after Tr=    -0.000160    0.000034   -0.000076
         Rot=    1.000000   -0.000001   -0.000017   -0.000005 Ang=  -0.00 deg.
 Variable       Old X    -DE/DX   Delta X   Delta X   Delta X     New X
                                 (Linear)    (Quad)   (Total)
    X1       -0.22261   0.00013   0.00000   0.00009  -0.00010  -0.22271
    Y1       -0.39150   0.00002   0.00000   0.00004   0.00007  -0.39143
    Z1       -0.79465  -0.00009   0.00000  -0.00013  -0.00020  -0.79485
    X2       -0.94584   0.00004   0.00000   0.00023   0.00007  -0.94577
    Y2        1.03460  -0.00006   0.00000  -0.00045  -0.00043   1.03418
    Z2        0.53651   0.00001   0.00000   0.00031   0.00027   0.53678
    X3       -0.87492   0.00008   0.00000   0.00092   0.00067  -0.87425
    Y3        0.25439  -0.00001   0.00000   0.00002   0.00005   0.25444
    Z3       -2.69109   0.00003   0.00000  -0.00024  -0.00029  -2.69138
    X4       -1.13962   0.00004   0.00000   0.00026   0.00011  -1.13951
    Y4       -2.23746   0.00004   0.00000   0.00016   0.00018  -2.23728
    Z4       -0.51123   0.00005   0.00000   0.00051   0.00047  -0.51076
    X5        2.33878  -0.00028   0.00000  -0.00057  -0.00076   2.33802
    Y5       -0.50402   0.00002   0.00000   0.00006   0.00012  -0.50390
    Z5       -0.91694  -0.00000   0.00000  -0.00009  -0.00024  -0.91718
         Item               Value     Threshold  Converged?
 Maximum Force            0.000285     0.000450     YES
 RMS     Force            0.000091     0.000300     YES
 Maximum Displacement     0.000758     0.001800     YES
 RMS     Displacement     0.000343     0.001200     YES
 Predicted change in Energy=-1.682622D-07
 Optimization completed.
    -- Stationary point found.
 GradGradGradGradGradGradGradGradGradGradGradGradGradGradGradGradGradGrad

 Leave Link  103 at Thu Mar  7 10:30:45 2019, MaxMem=    33554432 cpu:         0.1
 (Enter /home/proyectos/fulerenos/M3C-v2.0/M3C-deps_CCC/g09-AM64L-G09RevC.01/l9999.exe)

 Test job not archived.
 1\1\GINC-BELVIS21\Freq\UB3LYP\6-311++G(3df,2p)\C1H3O1(1-,3)\ROOT\07-Ma
 r-2019\0\\#p b3lyp/6-311++G(3df,2p) freq IOp(2/17=3) IOp(2/18=3)\\b3ly
 p opt\\-1,3\C,-0.1178009533,-0.2071710977,-0.4205081546\H,-0.500519,0.
 547489,0.283911\H,-0.4629895617,0.1346167813,-1.424063268\H,-0.6030593
 435,-1.1840138751,-0.2705288402\O,1.2376272709,-0.2667183124,-0.485221
 9425\\Version=EM64L-G09RevE.01\State=3-A'\HF=-115.0754206\S2=2.004265\
 S2-1=0.\S2A=2.000009\RMSD=8.369e-09\RMSF=9.117e-05\ZeroPoint=0.0351952
 \Thermal=0.0382725\Dipole=2.2933042,-0.2217382,0.2683505\DipoleDeriv=0
 .2842016,-0.0899491,0.395121,0.1131047,0.8036103,0.2855286,-0.2390179,
 0.3230827,-0.0630381,-0.3900756,-0.0646251,0.022037,-0.15015,-0.481183
 5,0.2900712,-0.0638106,0.6082796,-0.2146157,-0.4295991,-0.0214148,-0.1
 108052,-0.1618216,-1.2616066,-0.3720876,0.327684,-0.3980551,-0.2078209
 ,-0.3633387,0.0677089,0.0306162,0.1979956,0.0084718,-0.1238044,-0.0233
 256,-0.4337345,-0.7310079,-0.101188,0.1082802,-0.336969,0.000871,-0.06
 92919,-0.0797078,-0.0015305,-0.0995726,0.2164827\Polar=251.5966391,41.
 1687544,820.2732362,-22.0648128,14.860781,785.1406753\PG=CS [SG(C1H1O1
 ),X(H2)]\NImag=0\\0.41919742,0.01810538,0.40281527,-0.05956681,-0.0032
 4984,0.42401258,-0.05856756,0.05024422,0.05172395,0.08402626,0.0311955
 3,-0.13736227,-0.09659843,-0.05698958,0.16173164,0.04980758,-0.1212459
 3,-0.14554680,-0.05498201,0.12007027,0.14968444,-0.04095258,0.02182637
 ,-0.05822223,0.00297897,-0.00159641,0.00698303,0.06695047,0.01517260,-
 0.01101688,0.07156941,-0.00876372,-0.00481533,-0.01378224,-0.02431387,
 0.04453252,-0.03744265,0.07033882,-0.19994308,-0.00742505,0.00360146,-
 0.01776629,0.06732421,-0.07083793,0.22918386,-0.07249841,-0.08746750,0
 .01669535,0.00554040,0.01000718,-0.00370821,0.00394526,0.01007251,-0.0
 0145717,0.10175113,-0.07168610,-0.22780779,0.02755801,-0.00819935,-0.0
 1761350,0.00797098,-0.00470452,-0.01475650,-0.00065601,0.09534980,0.25
 250197,0.02881532,0.05160125,-0.04117045,-0.01147980,-0.02481719,0.007
 45253,0.00789977,0.01532032,-0.00879141,-0.01709523,-0.03481107,0.0411
 8924,-0.24717886,-0.00270847,0.04936974,-0.03397807,0.01738329,0.00189
 961,-0.03292211,0.00783247,-0.02099934,-0.03873838,-0.01075984,-0.0081
 4006,0.35281742,0.00721258,-0.02662833,0.00072086,0.02370843,-0.001940
 54,0.00698693,0.00878843,-0.01394381,-0.00244635,-0.02796199,0.0076758
 1,-0.00729331,-0.01174745,0.03483686,0.01838652,0.00255570,-0.03735224
 ,0.02216293,-0.00225611,0.00617612,-0.02398477,-0.00226955,-0.00268309
 ,0.00556527,-0.00006191,0.00132010,-0.02212994,0.00203187,0.03253911\\
 -0.00012903,-0.00002101,0.00008947,-0.00003653,0.00006391,-0.00001440,
 -0.00007648,0.00001425,-0.00003036,-0.00004265,-0.00003941,-0.00004749
 ,0.00028469,-0.00001775,0.00000278\\\@


 IT'S WHAT A FELLER THINKS HE KNOWS THAT HURTS HIM...
                    ------
           KIN HUBBARD
 Job cpu time:       0 days  0 hours  3 minutes  8.4 seconds.
 File lengths (MBytes):  RWF=     13 Int=      0 D2E=      0 Chk=      2 Scr=      1
 Normal termination of Gaussian 09 at Thu Mar  7 10:30:45 2019.
