 Entering Gaussian System, Link 0=/home/proyectos/fulerenos/M3C-v2.0/M3C-deps_CCC/g09-AM64L-G09RevC.01/g09
 Initial command:
 /home/proyectos/fulerenos/M3C-v2.0/M3C-deps_CCC/g09-AM64L-G09RevC.01/l1.exe "/scratch/naguirre/gaussian/Gau-13936.inp" -scrdir="/scratch/naguirre/gaussian/"
 Entering Link 1 = /home/proyectos/fulerenos/M3C-v2.0/M3C-deps_CCC/g09-AM64L-G09RevC.01/l1.exe PID=     13938.
  
 Copyright (c) 1988,1990,1992,1993,1995,1998,2003,2009,2015,
            Gaussian, Inc.  All Rights Reserved.
  
 This is part of the Gaussian(R) 09 program.  It is based on
 the Gaussian(R) 03 system (copyright 2003, Gaussian, Inc.),
 the Gaussian(R) 98 system (copyright 1998, Gaussian, Inc.),
 the Gaussian(R) 94 system (copyright 1995, Gaussian, Inc.),
 the Gaussian 92(TM) system (copyright 1992, Gaussian, Inc.),
 the Gaussian 90(TM) system (copyright 1990, Gaussian, Inc.),
 the Gaussian 88(TM) system (copyright 1988, Gaussian, Inc.),
 the Gaussian 86(TM) system (copyright 1986, Carnegie Mellon
 University), and the Gaussian 82(TM) system (copyright 1983,
 Carnegie Mellon University). Gaussian is a federally registered
 trademark of Gaussian, Inc.
  
 This software contains proprietary and confidential information,
 including trade secrets, belonging to Gaussian, Inc.
  
 This software is provided under written license and may be
 used, copied, transmitted, or stored only in accord with that
 written license.
  
 The following legend is applicable only to US Government
 contracts under FAR:
  
                    RESTRICTED RIGHTS LEGEND
  
 Use, reproduction and disclosure by the US Government is
 subject to restrictions as set forth in subparagraphs (a)
 and (c) of the Commercial Computer Software - Restricted
 Rights clause in FAR 52.227-19.
  
 Gaussian, Inc.
 340 Quinnipiac St., Bldg. 40, Wallingford CT 06492
  
  
 ---------------------------------------------------------------
 Warning -- This program may not be used in any manner that
 competes with the business of Gaussian, Inc. or will provide
 assistance to any competitor of Gaussian, Inc.  The licensee
 of this program is prohibited from giving any competitor of
 Gaussian, Inc. access to this program.  By using this program,
 the user acknowledges that Gaussian, Inc. is engaged in the
 business of creating and licensing software in the field of
 computational chemistry and represents and warrants to the
 licensee that it is not a competitor of Gaussian, Inc. and that
 it will not use this program in any manner prohibited above.
 ---------------------------------------------------------------
  

 Cite this work as:
 Gaussian 09, Revision E.01,
 M. J. Frisch, G. W. Trucks, H. B. Schlegel, G. E. Scuseria, 
 M. A. Robb, J. R. Cheeseman, G. Scalmani, V. Barone, B. Mennucci, 
 G. A. Petersson, H. Nakatsuji, M. Caricato, X. Li, H. P. Hratchian, 
 A. F. Izmaylov, J. Bloino, G. Zheng, J. L. Sonnenberg, M. Hada, 
 M. Ehara, K. Toyota, R. Fukuda, J. Hasegawa, M. Ishida, T. Nakajima, 
 Y. Honda, O. Kitao, H. Nakai, T. Vreven, J. A. Montgomery, Jr., 
 J. E. Peralta, F. Ogliaro, M. Bearpark, J. J. Heyd, E. Brothers, 
 K. N. Kudin, V. N. Staroverov, T. Keith, R. Kobayashi, J. Normand, 
 K. Raghavachari, A. Rendell, J. C. Burant, S. S. Iyengar, J. Tomasi, 
 M. Cossi, N. Rega, J. M. Millam, M. Klene, J. E. Knox, J. B. Cross, 
 V. Bakken, C. Adamo, J. Jaramillo, R. Gomperts, R. E. Stratmann, 
 O. Yazyev, A. J. Austin, R. Cammi, C. Pomelli, J. W. Ochterski, 
 R. L. Martin, K. Morokuma, V. G. Zakrzewski, G. A. Voth, 
 P. Salvador, J. J. Dannenberg, S. Dapprich, A. D. Daniels, 
 O. Farkas, J. B. Foresman, J. V. Ortiz, J. Cioslowski, 
 and D. J. Fox, Gaussian, Inc., Wallingford CT, 2013.
 
 ******************************************
 Gaussian 09:  EM64L-G09RevE.01 30-Nov-2015
                 7-Mar-2019 
 ******************************************
 %NProcShared=4
 Will use up to    4 processors via shared memory.
 ------------------------------------------------------
 #p b3lyp/6-311++G(3df,2p) freq IOp(2/17=3) IOp(2/18=3)
 ------------------------------------------------------
 1/10=4,30=1,38=1/1,3;
 2/12=2,17=3,18=3,40=1/2;
 3/5=4,6=6,7=1216,11=2,16=1,25=1,30=1,71=2,74=-5,140=1/1,2,3;
 4//1;
 5/5=2,38=5,98=1/2;
 8/6=4,10=90,11=11/1;
 11/6=1,8=1,9=11,15=111,16=1/1,2,10;
 10/6=1/2;
 6/7=2,8=2,9=2,10=2,18=1,28=1/1;
 7/8=1,10=1,25=1/1,2,3,16;
 1/10=4,30=1/3;
 99//99;
 Leave Link    1 at Thu Mar  7 10:44:53 2019, MaxMem=           0 cpu:         0.2
 (Enter /home/proyectos/fulerenos/M3C-v2.0/M3C-deps_CCC/g09-AM64L-G09RevC.01/l101.exe)
 ---------
 b3lyp opt
 ---------
 Symbolic Z-matrix:
 Charge = -1 Multiplicity = 4
 C                     0.07935   0.40679   0.34913 
 C                    -1.18275   0.2751   -0.35343 
 H                    -2.07405  -0.12787   0.1271 
 H                     0.67185  -1.38138  -0.0925 
 H                     0.25879   1.17207   1.09091 
 H                    -1.27642   0.48962  -1.4155 
 O                     0.90414  -0.68073   0.53851 
 
 NAtoms=      7 NQM=        7 NQMF=       0 NMMI=      0 NMMIF=      0
                NMic=       0 NMicF=      0.
                    Isotopes and Nuclear Properties:
 (Nuclear quadrupole moments (NQMom) in fm**2, nuclear magnetic moments (NMagM)
  in nuclear magnetons)

  Atom         1           2           3           4           5           6           7
 IAtWgt=          12          12           1           1           1           1          16
 AtmWgt=  12.0000000  12.0000000   1.0078250   1.0078250   1.0078250   1.0078250  15.9949146
 NucSpn=           0           0           1           1           1           1           0
 AtZEff=   0.0000000   0.0000000   0.0000000   0.0000000   0.0000000   0.0000000   0.0000000
 NQMom=    0.0000000   0.0000000   0.0000000   0.0000000   0.0000000   0.0000000   0.0000000
 NMagM=    0.0000000   0.0000000   2.7928460   2.7928460   2.7928460   2.7928460   0.0000000
 AtZNuc=   6.0000000   6.0000000   1.0000000   1.0000000   1.0000000   1.0000000   8.0000000
 Leave Link  101 at Thu Mar  7 10:44:53 2019, MaxMem=    33554432 cpu:         0.2
 (Enter /home/proyectos/fulerenos/M3C-v2.0/M3C-deps_CCC/g09-AM64L-G09RevC.01/l103.exe)

 GradGradGradGradGradGradGradGradGradGradGradGradGradGradGradGradGradGrad
 Berny optimization.
 Initialization pass.
 Trust Radius=3.00D-01 FncErr=1.00D-07 GrdErr=1.00D-07
 Number of steps in this run=      2 maximum allowed number of steps=      2.
 GradGradGradGradGradGradGradGradGradGradGradGradGradGradGradGradGradGrad

 Leave Link  103 at Thu Mar  7 10:44:53 2019, MaxMem=    33554432 cpu:         0.1
 (Enter /home/proyectos/fulerenos/M3C-v2.0/M3C-deps_CCC/g09-AM64L-G09RevC.01/l202.exe)
                          Input orientation:                          
 ---------------------------------------------------------------------
 Center     Atomic      Atomic             Coordinates (Angstroms)
 Number     Number       Type             X           Y           Z
 ---------------------------------------------------------------------
      1          6           0        0.079346    0.406787    0.349132
      2          6           0       -1.182747    0.275096   -0.353431
      3          1           0       -2.074047   -0.127869    0.127097
      4          1           0        0.671846   -1.381379   -0.092500
      5          1           0        0.258787    1.172069    1.090912
      6          1           0       -1.276423    0.489620   -1.415495
      7          8           0        0.904141   -0.680734    0.538513
 ---------------------------------------------------------------------
                    Distance matrix (angstroms):
                    1          2          3          4          5
     1  C    0.000000
     2  C    1.450454   0.000000
     3  H    2.229856   1.089818   0.000000
     4  H    1.934847   2.500302   3.026456   0.000000
     5  H    1.080784   2.229060   2.839171   2.844500   0.000000
     6  H    2.226854   1.087555   1.843119   3.007774   3.017397
     7  O    1.377989   2.462575   3.056882   0.971103   2.038260
                    6          7
     6  H    0.000000
     7  O    3.153210   0.000000
 Stoichiometry    C2H4O(1-,4)
 Framework group  C1[X(C2H4O)]
 Deg. of freedom    15
 Full point group                 C1      NOp   1
 Largest Abelian subgroup         C1      NOp   1
 Largest concise Abelian subgroup C1      NOp   1
                         Standard orientation:                         
 ---------------------------------------------------------------------
 Center     Atomic      Atomic             Coordinates (Angstroms)
 Number     Number       Type             X           Y           Z
 ---------------------------------------------------------------------
      1          6           0        0.030204    0.506584   -0.092310
      2          6           0       -1.256290   -0.154241    0.017507
      3          1           0       -1.693467   -0.414691    0.981222
      4          1           0        1.035457   -1.146587   -0.103556
      5          1           0        0.171965    1.552836    0.138671
      6          1           0       -1.803640   -0.499232   -0.856658
      7          8           0        1.205775   -0.200797    0.036142
 ---------------------------------------------------------------------
 Rotational constants (GHZ):     50.3505247      9.8654882      8.7783129
 Leave Link  202 at Thu Mar  7 10:44:53 2019, MaxMem=    33554432 cpu:         0.0
 (Enter /home/proyectos/fulerenos/M3C-v2.0/M3C-deps_CCC/g09-AM64L-G09RevC.01/l301.exe)
 Standard basis: 6-311++G(3df,2p) (5D, 7F)
 Ernie: Thresh=  0.10000D-02 Tol=  0.10000D-05 Strict=F.
 There are   175 symmetry adapted cartesian basis functions of A   symmetry.
 There are   157 symmetry adapted basis functions of A   symmetry.
   157 basis functions,   222 primitive gaussians,   175 cartesian basis functions
    14 alpha electrons       11 beta electrons
       nuclear repulsion energy        68.1867617875 Hartrees.
 IExCor=  402 DFT=T Ex+Corr=B3LYP ExCW=0 ScaHFX=  0.200000
 ScaDFX=  0.800000  0.720000  1.000000  0.810000 ScalE2=  1.000000  1.000000
 IRadAn=      0 IRanWt=     -1 IRanGd=            0 ICorTp=0 IEmpDi=  4
 NAtoms=    7 NActive=    7 NUniq=    7 SFac= 1.00D+00 NAtFMM=   60 NAOKFM=F Big=F
 Integral buffers will be    131072 words long.
 Raffenetti 2 integral format.
 Two-electron integral symmetry is turned on.
 Leave Link  301 at Thu Mar  7 10:44:53 2019, MaxMem=    33554432 cpu:         0.2
 (Enter /home/proyectos/fulerenos/M3C-v2.0/M3C-deps_CCC/g09-AM64L-G09RevC.01/l302.exe)
 NPDir=0 NMtPBC=     1 NCelOv=     1 NCel=       1 NClECP=     1 NCelD=      1
         NCelK=      1 NCelE2=     1 NClLst=     1 CellRange=     0.0.
 One-electron integrals computed using PRISM.
 NBasis=   157 RedAO= T EigKep=  7.55D-05  NBF=   157
 NBsUse=   157 1.00D-06 EigRej= -1.00D+00 NBFU=   157
 Precomputing XC quadrature grid using
 IXCGrd= 4 IRadAn=           0 IRanWt=          -1 IRanGd=           0 AccXCQ= 0.00D+00.
 Generated NRdTot=       0 NPtTot=           0 NUsed=           0 NTot=          32
 NSgBfM=   175   175   175   175   175 MxSgAt=     7 MxSgA2=     7.
 Leave Link  302 at Thu Mar  7 10:44:53 2019, MaxMem=    33554432 cpu:         0.9
 (Enter /home/proyectos/fulerenos/M3C-v2.0/M3C-deps_CCC/g09-AM64L-G09RevC.01/l303.exe)
 DipDrv:  MaxL=1.
 Leave Link  303 at Thu Mar  7 10:44:53 2019, MaxMem=    33554432 cpu:         0.1
 (Enter /home/proyectos/fulerenos/M3C-v2.0/M3C-deps_CCC/g09-AM64L-G09RevC.01/l401.exe)
 ExpMin= 3.60D-02 ExpMax= 8.59D+03 ExpMxC= 1.30D+03 IAcc=3 IRadAn=         5 AccDes= 0.00D+00
 Harris functional with IExCor=  402 and IRadAn=       5 diagonalized for initial guess.
 HarFok:  IExCor=  402 AccDes= 0.00D+00 IRadAn=         5 IDoV= 1 UseB2=F ITyADJ=14
 ICtDFT=  3500011 ScaDFX=  1.000000  1.000000  1.000000  1.000000
 FoFCou: FMM=F IPFlag=           0 FMFlag=      100000 FMFlg1=           0
         NFxFlg=           0 DoJE=T BraDBF=F KetDBF=T FulRan=T
         wScrn=  0.000000 ICntrl=     500 IOpCl=  0 I1Cent=   200000004 NGrid=           0
         NMat0=    1 NMatS0=      1 NMatT0=    0 NMatD0=    1 NMtDS0=    0 NMtDT0=    0
 Petite list used in FoFCou.
 Harris En= -153.788956735485    
 JPrj=0 DoOrth=F DoCkMO=F.
 Initial guess <Sx>= 0.0000 <Sy>= 0.0000 <Sz>= 1.5000 <S**2>= 3.7500 S= 1.5000
 Leave Link  401 at Thu Mar  7 10:44:54 2019, MaxMem=    33554432 cpu:         5.4
 (Enter /home/proyectos/fulerenos/M3C-v2.0/M3C-deps_CCC/g09-AM64L-G09RevC.01/l502.exe)
 UHF open shell SCF:
 Using DIIS extrapolation, IDIIS=  1040.
 Integral symmetry usage will be decided dynamically.
 IVT=      112747 IEndB=      112747 NGot=    33554432 MDV=    33489126
 LenX=    33489126 LenY=    33458060
 Requested convergence on RMS density matrix=1.00D-08 within 128 cycles.
 Requested convergence on MAX density matrix=1.00D-06.
 Requested convergence on             energy=1.00D-06.
 No special actions if energy rises.
 Fock matrices will be formed incrementally for  20 cycles.

 Cycle   1  Pass 1  IDiag  1:
 FoFJK:  IHMeth= 1 ICntrl=       0 DoSepK=F KAlg= 0 I1Cent=   0 FoldK=F
 IRaf= 990000000 NMat=   1 IRICut=       1 DoRegI=T DoRafI=F ISym2E= 0.
 FoFCou: FMM=F IPFlag=           0 FMFlag=      100000 FMFlg1=           0
         NFxFlg=           0 DoJE=F BraDBF=F KetDBF=F FulRan=T
         wScrn=  0.000000 ICntrl=       0 IOpCl=  1 I1Cent=           0 NGrid=           0
         NMat0=    1 NMatS0=      1 NMatT0=    0 NMatD0=    1 NMtDS0=    0 NMtDT0=    0
 Symmetry not used in FoFCou.
 E= -153.626500957238    
 DIIS: error= 1.84D-02 at cycle   1 NSaved=   1.
 NSaved= 1 IEnMin= 1 EnMin= -153.626500957238     IErMin= 1 ErrMin= 1.84D-02
 ErrMax= 1.84D-02  0.00D+00 EMaxC= 1.00D-01 BMatC= 4.69D-01 BMatP= 4.69D-01
 IDIUse=3 WtCom= 8.16D-01 WtEn= 1.84D-01
 Coeff-Com:  0.100D+01
 Coeff-En:   0.100D+01
 Coeff:      0.100D+01
 Gap=     0.038 Goal=   None    Shift=    0.000
 Gap=     0.224 Goal=   None    Shift=    0.000
 GapD=    0.038 DampG=0.250 DampE=0.500 DampFc=0.2500 IDamp=-1.
 Damping current iteration by 2.50D-01
 RMSDP=1.02D-01 MaxDP=9.83D+00              OVMax= 4.75D-01

 Cycle   2  Pass 1  IDiag  1:
 RMSU=  2.10D-02    CP:  1.66D+00
 E= -153.666893721880     Delta-E=       -0.040392764641 Rises=F Damp=T
 DIIS: error= 8.62D-03 at cycle   2 NSaved=   2.
 NSaved= 2 IEnMin= 2 EnMin= -153.666893721880     IErMin= 2 ErrMin= 8.62D-03
 ErrMax= 8.62D-03  0.00D+00 EMaxC= 1.00D-01 BMatC= 9.64D-02 BMatP= 4.69D-01
 IDIUse=3 WtCom= 9.14D-01 WtEn= 8.62D-02
 Coeff-Com: -0.628D+00 0.163D+01
 Coeff-En:   0.000D+00 0.100D+01
 Coeff:     -0.574D+00 0.157D+01
 Gap=     0.112 Goal=   None    Shift=    0.000
 Gap=     0.306 Goal=   None    Shift=    0.000
 RMSDP=4.53D-02 MaxDP=2.77D+00 DE=-4.04D-02 OVMax= 2.11D-01

 Cycle   3  Pass 1  IDiag  1:
 RMSU=  2.07D-02    CP:  2.92D+00  2.40D+00
 E= -153.742018456049     Delta-E=       -0.075124734170 Rises=F Damp=F
 DIIS: error= 5.78D-03 at cycle   3 NSaved=   3.
 NSaved= 3 IEnMin= 3 EnMin= -153.742018456049     IErMin= 3 ErrMin= 5.78D-03
 ErrMax= 5.78D-03  0.00D+00 EMaxC= 1.00D-01 BMatC= 2.58D-02 BMatP= 9.64D-02
 IDIUse=3 WtCom= 9.42D-01 WtEn= 5.78D-02
 Coeff-Com: -0.370D+00 0.806D+00 0.564D+00
 Coeff-En:   0.000D+00 0.000D+00 0.100D+01
 Coeff:     -0.349D+00 0.759D+00 0.589D+00
 Gap=     0.037 Goal=   None    Shift=    0.000
 Gap=     0.246 Goal=   None    Shift=    0.000
 RMSDP=8.22D-03 MaxDP=6.46D-01 DE=-7.51D-02 OVMax= 5.57D-02

 Cycle   4  Pass 1  IDiag  1:
 RMSU=  3.59D-03    CP:  3.00D+00  2.70D+00  1.09D+00
 E= -153.746179446799     Delta-E=       -0.004160990750 Rises=F Damp=F
 DIIS: error= 3.45D-03 at cycle   4 NSaved=   4.
 NSaved= 4 IEnMin= 4 EnMin= -153.746179446799     IErMin= 4 ErrMin= 3.45D-03
 ErrMax= 3.45D-03  0.00D+00 EMaxC= 1.00D-01 BMatC= 6.27D-03 BMatP= 2.58D-02
 IDIUse=3 WtCom= 9.66D-01 WtEn= 3.45D-02
 Coeff-Com: -0.990D-01 0.157D+00 0.348D+00 0.593D+00
 Coeff-En:   0.000D+00 0.000D+00 0.196D+00 0.804D+00
 Coeff:     -0.956D-01 0.152D+00 0.343D+00 0.601D+00
 Gap=     0.037 Goal=   None    Shift=    0.000
 Gap=     0.251 Goal=   None    Shift=    0.000
 RMSDP=6.30D-03 MaxDP=3.94D-01 DE=-4.16D-03 OVMax= 2.61D-02

 Cycle   5  Pass 1  IDiag  1:
 RMSU=  3.58D-03    CP:  3.00D+00  2.87D+00  1.25D+00  1.57D+00
 E= -153.747791311829     Delta-E=       -0.001611865030 Rises=F Damp=F
 DIIS: error= 4.44D-04 at cycle   5 NSaved=   5.
 NSaved= 5 IEnMin= 5 EnMin= -153.747791311829     IErMin= 5 ErrMin= 4.44D-04
 ErrMax= 4.44D-04  0.00D+00 EMaxC= 1.00D-01 BMatC= 1.53D-04 BMatP= 6.27D-03
 IDIUse=3 WtCom= 9.96D-01 WtEn= 4.44D-03
 Coeff-Com: -0.795D-02-0.738D-02 0.361D-01 0.140D+00 0.839D+00
 Coeff-En:   0.000D+00 0.000D+00 0.000D+00 0.000D+00 0.100D+01
 Coeff:     -0.792D-02-0.734D-02 0.360D-01 0.140D+00 0.839D+00
 Gap=     0.037 Goal=   None    Shift=    0.000
 Gap=     0.251 Goal=   None    Shift=    0.000
 RMSDP=4.09D-03 MaxDP=2.51D-01 DE=-1.61D-03 OVMax= 1.33D-02

 Cycle   6  Pass 1  IDiag  1:
 RMSU=  4.65D-04    CP:  3.00D+00  3.00D+00  1.34D+00  2.08D+00  1.42D+00
 E= -153.747858302981     Delta-E=       -0.000066991152 Rises=F Damp=F
 DIIS: error= 2.13D-04 at cycle   6 NSaved=   6.
 NSaved= 6 IEnMin= 6 EnMin= -153.747858302981     IErMin= 6 ErrMin= 2.13D-04
 ErrMax= 2.13D-04  0.00D+00 EMaxC= 1.00D-01 BMatC= 2.92D-05 BMatP= 1.53D-04
 IDIUse=3 WtCom= 9.98D-01 WtEn= 2.13D-03
 Coeff-Com:  0.578D-02-0.169D-01-0.215D-01-0.103D-01 0.325D+00 0.718D+00
 Coeff-En:   0.000D+00 0.000D+00 0.000D+00 0.000D+00 0.000D+00 0.100D+01
 Coeff:      0.577D-02-0.169D-01-0.214D-01-0.103D-01 0.324D+00 0.719D+00
 Gap=     0.037 Goal=   None    Shift=    0.000
 Gap=     0.251 Goal=   None    Shift=    0.000
 RMSDP=1.80D-03 MaxDP=8.12D-02 DE=-6.70D-05 OVMax= 5.86D-03

 Cycle   7  Pass 1  IDiag  1:
 RMSU=  1.08D-03    CP:  3.00D+00  3.00D+00  1.38D+00  2.29D+00  1.61D+00
                    CP:  1.74D+00
 E= -153.747871226423     Delta-E=       -0.000012923442 Rises=F Damp=F
 DIIS: error= 7.57D-05 at cycle   7 NSaved=   7.
 NSaved= 7 IEnMin= 7 EnMin= -153.747871226423     IErMin= 7 ErrMin= 7.57D-05
 ErrMax= 7.57D-05  0.00D+00 EMaxC= 1.00D-01 BMatC= 4.62D-06 BMatP= 2.92D-05
 IDIUse=1 WtCom= 1.00D+00 WtEn= 0.00D+00
 Coeff-Com:  0.292D-02-0.326D-02-0.131D-01-0.304D-01-0.546D-01 0.276D+00
 Coeff-Com:  0.822D+00
 Coeff:      0.292D-02-0.326D-02-0.131D-01-0.304D-01-0.546D-01 0.276D+00
 Coeff:      0.822D+00
 Gap=     0.037 Goal=   None    Shift=    0.000
 Gap=     0.251 Goal=   None    Shift=    0.000
 RMSDP=1.03D-03 MaxDP=4.65D-02 DE=-1.29D-05 OVMax= 2.81D-03

 Cycle   8  Pass 1  IDiag  1:
 RMSU=  1.14D-04    CP:  3.00D+00  3.00D+00  1.41D+00  2.41D+00  1.73D+00
                    CP:  2.29D+00  1.51D+00
 E= -153.747873637887     Delta-E=       -0.000002411464 Rises=F Damp=F
 DIIS: error= 1.02D-05 at cycle   8 NSaved=   8.
 NSaved= 8 IEnMin= 8 EnMin= -153.747873637887     IErMin= 8 ErrMin= 1.02D-05
 ErrMax= 1.02D-05  0.00D+00 EMaxC= 1.00D-01 BMatC= 9.93D-08 BMatP= 4.62D-06
 IDIUse=1 WtCom= 1.00D+00 WtEn= 0.00D+00
 Coeff-Com: -0.476D-03 0.119D-02 0.848D-03 0.122D-02-0.185D-01-0.446D-01
 Coeff-Com: -0.312D-01 0.109D+01
 Coeff:     -0.476D-03 0.119D-02 0.848D-03 0.122D-02-0.185D-01-0.446D-01
 Coeff:     -0.312D-01 0.109D+01
 Gap=     0.037 Goal=   None    Shift=    0.000
 Gap=     0.251 Goal=   None    Shift=    0.000
 RMSDP=3.97D-04 MaxDP=1.90D-02 DE=-2.41D-06 OVMax= 1.26D-03

 Cycle   9  Pass 1  IDiag  1:
 RMSU=  6.35D-05    CP:  3.00D+00  3.00D+00  1.42D+00  2.44D+00  1.76D+00
                    CP:  2.62D+00  1.63D+00  2.60D+00
 E= -153.747873790575     Delta-E=       -0.000000152688 Rises=F Damp=F
 DIIS: error= 5.84D-06 at cycle   9 NSaved=   9.
 NSaved= 9 IEnMin= 9 EnMin= -153.747873790575     IErMin= 9 ErrMin= 5.84D-06
 ErrMax= 5.84D-06  0.00D+00 EMaxC= 1.00D-01 BMatC= 1.42D-08 BMatP= 9.93D-08
 IDIUse=1 WtCom= 1.00D+00 WtEn= 0.00D+00
 Coeff-Com: -0.324D-03 0.519D-03 0.995D-03 0.216D-02 0.262D-03-0.246D-01
 Coeff-Com: -0.665D-01 0.223D+00 0.865D+00
 Coeff:     -0.324D-03 0.519D-03 0.995D-03 0.216D-02 0.262D-03-0.246D-01
 Coeff:     -0.665D-01 0.223D+00 0.865D+00
 Gap=     0.037 Goal=   None    Shift=    0.000
 Gap=     0.251 Goal=   None    Shift=    0.000
 RMSDP=1.19D-04 MaxDP=7.65D-03 DE=-1.53D-07 OVMax= 4.18D-04

 Cycle  10  Pass 1  IDiag  1:
 RMSU=  4.24D-05    CP:  3.00D+00  3.00D+00  1.43D+00  2.45D+00  1.77D+00
                    CP:  2.71D+00  1.65D+00  3.00D+00  1.58D+00
 E= -153.747873810057     Delta-E=       -0.000000019483 Rises=F Damp=F
 DIIS: error= 1.25D-06 at cycle  10 NSaved=  10.
 NSaved=10 IEnMin=10 EnMin= -153.747873810057     IErMin=10 ErrMin= 1.25D-06
 ErrMax= 1.25D-06  0.00D+00 EMaxC= 1.00D-01 BMatC= 1.43D-09 BMatP= 1.42D-08
 IDIUse=1 WtCom= 1.00D+00 WtEn= 0.00D+00
 Coeff-Com: -0.103D-04-0.296D-04 0.102D-03 0.253D-03 0.158D-02 0.288D-03
 Coeff-Com: -0.974D-02-0.598D-01 0.112D+00 0.955D+00
 Coeff:     -0.103D-04-0.296D-04 0.102D-03 0.253D-03 0.158D-02 0.288D-03
 Coeff:     -0.974D-02-0.598D-01 0.112D+00 0.955D+00
 Gap=     0.037 Goal=   None    Shift=    0.000
 Gap=     0.251 Goal=   None    Shift=    0.000
 RMSDP=8.14D-05 MaxDP=5.52D-03 DE=-1.95D-08 OVMax= 3.02D-04

 Cycle  11  Pass 1  IDiag  1:
 RMSU=  1.50D-05    CP:  3.00D+00  3.00D+00  1.43D+00  2.45D+00  1.77D+00
                    CP:  2.75D+00  1.64D+00  3.00D+00  2.07D+00  2.53D+00
 E= -153.747873816579     Delta-E=       -0.000000006522 Rises=F Damp=F
 DIIS: error= 1.06D-06 at cycle  11 NSaved=  11.
 NSaved=11 IEnMin=11 EnMin= -153.747873816579     IErMin=11 ErrMin= 1.06D-06
 ErrMax= 1.06D-06  0.00D+00 EMaxC= 1.00D-01 BMatC= 4.90D-10 BMatP= 1.43D-09
 IDIUse=1 WtCom= 1.00D+00 WtEn= 0.00D+00
 Coeff-Com:  0.272D-04-0.394D-04-0.120D-03-0.231D-03-0.205D-03 0.344D-02
 Coeff-Com:  0.725D-02-0.171D-01-0.148D+00 0.133D+00 0.102D+01
 Coeff:      0.272D-04-0.394D-04-0.120D-03-0.231D-03-0.205D-03 0.344D-02
 Coeff:      0.725D-02-0.171D-01-0.148D+00 0.133D+00 0.102D+01
 Gap=     0.037 Goal=   None    Shift=    0.000
 Gap=     0.251 Goal=   None    Shift=    0.000
 RMSDP=5.10D-05 MaxDP=3.55D-03 DE=-6.52D-09 OVMax= 2.01D-04

 Cycle  12  Pass 1  IDiag  1:
 RMSU=  2.31D-05    CP:  3.00D+00  3.00D+00  1.43D+00  2.45D+00  1.77D+00
                    CP:  2.77D+00  1.63D+00  3.00D+00  2.40D+00  3.00D+00
                    CP:  1.48D+00
 E= -153.747873819110     Delta-E=       -0.000000002531 Rises=F Damp=F
 DIIS: error= 4.54D-07 at cycle  12 NSaved=  12.
 NSaved=12 IEnMin=12 EnMin= -153.747873819110     IErMin=12 ErrMin= 4.54D-07
 ErrMax= 4.54D-07  0.00D+00 EMaxC= 1.00D-01 BMatC= 1.01D-10 BMatP= 4.90D-10
 IDIUse=1 WtCom= 1.00D+00 WtEn= 0.00D+00
 Coeff-Com:  0.561D-05-0.253D-05-0.272D-04-0.649D-04-0.355D-03 0.259D-03
 Coeff-Com:  0.116D-02 0.163D-01-0.533D-01-0.169D+00-0.580D-01 0.126D+01
 Coeff:      0.561D-05-0.253D-05-0.272D-04-0.649D-04-0.355D-03 0.259D-03
 Coeff:      0.116D-02 0.163D-01-0.533D-01-0.169D+00-0.580D-01 0.126D+01
 Gap=     0.037 Goal=   None    Shift=    0.000
 Gap=     0.251 Goal=   None    Shift=    0.000
 RMSDP=4.23D-05 MaxDP=2.99D-03 DE=-2.53D-09 OVMax= 1.67D-04

 Cycle  13  Pass 1  IDiag  1:
 RMSU=  1.26D-06    CP:  3.00D+00  3.00D+00  1.43D+00  2.45D+00  1.77D+00
                    CP:  2.79D+00  1.63D+00  3.00D+00  2.66D+00  3.00D+00
                    CP:  1.94D+00  2.54D+00
 E= -153.747873820113     Delta-E=       -0.000000001003 Rises=F Damp=F
 DIIS: error= 2.42D-07 at cycle  13 NSaved=  13.
 NSaved=13 IEnMin=13 EnMin= -153.747873820113     IErMin=13 ErrMin= 2.42D-07
 ErrMax= 2.42D-07  0.00D+00 EMaxC= 1.00D-01 BMatC= 2.28D-11 BMatP= 1.01D-10
 IDIUse=1 WtCom= 1.00D+00 WtEn= 0.00D+00
 Coeff-Com: -0.119D-04 0.183D-04 0.331D-04 0.609D-04 0.279D-04-0.706D-03
 Coeff-Com: -0.184D-02 0.616D-02 0.298D-01-0.111D-02-0.301D+00 0.847D-01
 Coeff-Com:  0.118D+01
 Coeff:     -0.119D-04 0.183D-04 0.331D-04 0.609D-04 0.279D-04-0.706D-03
 Coeff:     -0.184D-02 0.616D-02 0.298D-01-0.111D-02-0.301D+00 0.847D-01
 Coeff:      0.118D+01
 Gap=     0.037 Goal=   None    Shift=    0.000
 Gap=     0.251 Goal=   None    Shift=    0.000
 RMSDP=1.89D-05 MaxDP=1.35D-03 DE=-1.00D-09 OVMax= 7.60D-05

 Cycle  14  Pass 1  IDiag  1:
 RMSU=  5.63D-06    CP:  3.00D+00  3.00D+00  1.43D+00  2.45D+00  1.77D+00
                    CP:  2.79D+00  1.63D+00  3.00D+00  2.77D+00  3.00D+00
                    CP:  2.13D+00  3.00D+00  1.16D+00
 E= -153.747873820280     Delta-E=       -0.000000000167 Rises=F Damp=F
 DIIS: error= 5.00D-08 at cycle  14 NSaved=  14.
 NSaved=14 IEnMin=14 EnMin= -153.747873820280     IErMin=14 ErrMin= 5.00D-08
 ErrMax= 5.00D-08  0.00D+00 EMaxC= 1.00D-01 BMatC= 2.29D-12 BMatP= 2.28D-11
 IDIUse=1 WtCom= 1.00D+00 WtEn= 0.00D+00
 Coeff-Com: -0.335D-05 0.364D-05 0.140D-04 0.260D-04 0.448D-04-0.265D-03
 Coeff-Com: -0.781D-03-0.196D-03 0.146D-01 0.262D-01-0.808D-01-0.124D+00
 Coeff-Com:  0.267D+00 0.898D+00
 Coeff:     -0.335D-05 0.364D-05 0.140D-04 0.260D-04 0.448D-04-0.265D-03
 Coeff:     -0.781D-03-0.196D-03 0.146D-01 0.262D-01-0.808D-01-0.124D+00
 Coeff:      0.267D+00 0.898D+00
 Gap=     0.037 Goal=   None    Shift=    0.000
 Gap=     0.251 Goal=   None    Shift=    0.000
 RMSDP=4.76D-06 MaxDP=3.46D-04 DE=-1.67D-10 OVMax= 1.94D-05

 Cycle  15  Pass 1  IDiag  1:
 RMSU=  1.30D-07    CP:  3.00D+00  3.00D+00  1.43D+00  2.45D+00  1.77D+00
                    CP:  2.79D+00  1.63D+00  3.00D+00  2.79D+00  3.00D+00
                    CP:  2.17D+00  3.00D+00  1.32D+00  1.72D+00
 E= -153.747873820293     Delta-E=       -0.000000000013 Rises=F Damp=F
 DIIS: error= 4.56D-08 at cycle  15 NSaved=  15.
 NSaved=15 IEnMin=15 EnMin= -153.747873820293     IErMin=15 ErrMin= 4.56D-08
 ErrMax= 4.56D-08  0.00D+00 EMaxC= 1.00D-01 BMatC= 5.89D-13 BMatP= 2.29D-12
 IDIUse=1 WtCom= 1.00D+00 WtEn= 0.00D+00
 Coeff-Com:  0.104D-05-0.169D-05-0.741D-06-0.210D-05 0.522D-05 0.426D-04
 Coeff-Com:  0.110D-03-0.993D-03-0.998D-03 0.706D-02 0.299D-01-0.526D-01
 Coeff-Com: -0.176D+00 0.233D+00 0.960D+00
 Coeff:      0.104D-05-0.169D-05-0.741D-06-0.210D-05 0.522D-05 0.426D-04
 Coeff:      0.110D-03-0.993D-03-0.998D-03 0.706D-02 0.299D-01-0.526D-01
 Coeff:     -0.176D+00 0.233D+00 0.960D+00
 Gap=     0.037 Goal=   None    Shift=    0.000
 Gap=     0.251 Goal=   None    Shift=    0.000
 RMSDP=2.49D-06 MaxDP=1.80D-04 DE=-1.31D-11 OVMax= 9.66D-06

 Cycle  16  Pass 1  IDiag  1:
 RMSU=  4.10D-08    CP:  3.00D+00  3.00D+00  1.43D+00  2.45D+00  1.77D+00
                    CP:  2.79D+00  1.63D+00  3.00D+00  2.80D+00  3.00D+00
                    CP:  2.19D+00  3.00D+00  1.43D+00  2.10D+00  1.44D+00
 E= -153.747873820293     Delta-E=       -0.000000000000 Rises=F Damp=F
 DIIS: error= 6.44D-09 at cycle  16 NSaved=  16.
 NSaved=16 IEnMin=16 EnMin= -153.747873820293     IErMin=16 ErrMin= 6.44D-09
 ErrMax= 6.44D-09  0.00D+00 EMaxC= 1.00D-01 BMatC= 1.93D-14 BMatP= 5.89D-13
 IDIUse=1 WtCom= 1.00D+00 WtEn= 0.00D+00
 Coeff-Com:  0.390D-06-0.518D-06-0.653D-06-0.119D-05-0.177D-05 0.184D-04
 Coeff-Com:  0.562D-04-0.772D-04-0.126D-02-0.143D-02 0.107D-01 0.841D-02
 Coeff-Com: -0.449D-01-0.368D-01 0.107D+00 0.958D+00
 Coeff:      0.390D-06-0.518D-06-0.653D-06-0.119D-05-0.177D-05 0.184D-04
 Coeff:      0.562D-04-0.772D-04-0.126D-02-0.143D-02 0.107D-01 0.841D-02
 Coeff:     -0.449D-01-0.368D-01 0.107D+00 0.958D+00
 Gap=     0.037 Goal=   None    Shift=    0.000
 Gap=     0.251 Goal=   None    Shift=    0.000
 RMSDP=1.18D-07 MaxDP=9.60D-06 DE=-3.41D-13 OVMax= 4.60D-07

 Cycle  17  Pass 1  IDiag  1:
 RMSU=  4.28D-08    CP:  3.00D+00  3.00D+00  1.43D+00  2.45D+00  1.77D+00
                    CP:  2.79D+00  1.63D+00  3.00D+00  2.80D+00  3.00D+00
                    CP:  2.19D+00  3.00D+00  1.46D+00  2.11D+00  1.49D+00
                    CP:  7.22D-01
 E= -153.747873820294     Delta-E=       -0.000000000001 Rises=F Damp=F
 DIIS: error= 1.94D-09 at cycle  17 NSaved=  17.
 NSaved=17 IEnMin=17 EnMin= -153.747873820294     IErMin=17 ErrMin= 1.94D-09
 ErrMax= 1.94D-09  0.00D+00 EMaxC= 1.00D-01 BMatC= 1.59D-15 BMatP= 1.93D-14
 IDIUse=1 WtCom= 1.00D+00 WtEn= 0.00D+00
 Large coefficients: NSaved= 17 BigCof=    0.00 CofMax=   10.00 Det=-8.65D-15
 Inversion failed.  Reducing to 16 matrices.
 Large coefficients: NSaved= 16 BigCof=    0.00 CofMax=   10.00 Det=-9.96D-15
 Inversion failed.  Reducing to 15 matrices.
 Coeff-Com: -0.210D-06-0.224D-06-0.937D-06 0.263D-05 0.491D-05 0.352D-04
 Coeff-Com: -0.143D-03-0.548D-03-0.239D-03 0.300D-02 0.384D-02-0.806D-02
 Coeff-Com: -0.598D-01 0.458D-01 0.102D+01
 Coeff:     -0.210D-06-0.224D-06-0.937D-06 0.263D-05 0.491D-05 0.352D-04
 Coeff:     -0.143D-03-0.548D-03-0.239D-03 0.300D-02 0.384D-02-0.806D-02
 Coeff:     -0.598D-01 0.458D-01 0.102D+01
 Gap=     0.037 Goal=   None    Shift=    0.000
 Gap=     0.251 Goal=   None    Shift=    0.000
 RMSDP=6.37D-08 MaxDP=6.17D-06 DE=-1.08D-12 OVMax= 2.15D-07

 Cycle  18  Pass 1  IDiag  1:
 RMSU=  3.19D-09    CP:  3.00D+00  3.00D+00  1.43D+00  2.45D+00  1.77D+00
                    CP:  2.79D+00  1.63D+00  3.00D+00  2.80D+00  3.00D+00
                    CP:  2.19D+00  3.00D+00  1.48D+00  2.12D+00  1.53D+00
                    CP:  7.33D-01  1.22D+00
 E= -153.747873820296     Delta-E=       -0.000000000002 Rises=F Damp=F
 DIIS: error= 3.03D-10 at cycle  18 NSaved=  16.
 NSaved=16 IEnMin=16 EnMin= -153.747873820296     IErMin=16 ErrMin= 3.03D-10
 ErrMax= 3.03D-10  0.00D+00 EMaxC= 1.00D-01 BMatC= 6.11D-17 BMatP= 1.59D-15
 IDIUse=1 WtCom= 1.00D+00 WtEn= 0.00D+00
 Large coefficients: NSaved= 16 BigCof=    0.00 CofMax=   10.00 Det=-2.55D-16
 Inversion failed.  Reducing to 15 matrices.
 Coeff-Com: -0.195D-08-0.243D-07 0.642D-07 0.986D-07-0.419D-05 0.258D-04
 Coeff-Com:  0.349D-04-0.462D-04-0.648D-03 0.793D-03 0.327D-02-0.193D-02
 Coeff-Com: -0.332D-01-0.444D-01 0.108D+01
 Coeff:     -0.195D-08-0.243D-07 0.642D-07 0.986D-07-0.419D-05 0.258D-04
 Coeff:      0.349D-04-0.462D-04-0.648D-03 0.793D-03 0.327D-02-0.193D-02
 Coeff:     -0.332D-01-0.444D-01 0.108D+01
 Gap=     0.037 Goal=   None    Shift=    0.000
 Gap=     0.251 Goal=   None    Shift=    0.000
 RMSDP=1.13D-08 MaxDP=8.86D-07 DE=-1.76D-12 OVMax= 3.67D-08

 Cycle  19  Pass 1  IDiag  1:
 RMSU=  4.02D-10    CP:  3.00D+00  3.00D+00  1.43D+00  2.45D+00  1.77D+00
                    CP:  2.79D+00  1.63D+00  3.00D+00  2.80D+00  3.00D+00
                    CP:  2.19D+00  3.00D+00  1.48D+00  2.12D+00  1.54D+00
                    CP:  7.05D-01  1.30D+00  1.48D+00
 E= -153.747873820294     Delta-E=        0.000000000003 Rises=F Damp=F
 DIIS: error= 1.41D-10 at cycle  19 NSaved=  16.
 NSaved=16 IEnMin=15 EnMin= -153.747873820296     IErMin=16 ErrMin= 1.41D-10
 ErrMax= 1.41D-10  0.00D+00 EMaxC= 1.00D-01 BMatC= 8.41D-18 BMatP= 6.11D-17
 IDIUse=1 WtCom= 1.00D+00 WtEn= 0.00D+00
 Large coefficients: NSaved= 16 BigCof=    0.00 CofMax=   10.00 Det=-2.47D-17
 Inversion failed.  Reducing to 15 matrices.
 Coeff-Com:  0.504D-07-0.279D-07-0.111D-06 0.395D-07 0.977D-05 0.630D-05
 Coeff-Com: -0.610D-05-0.103D-03 0.191D-03 0.781D-03-0.849D-03-0.533D-02
 Coeff-Com: -0.353D-01 0.575D-01 0.983D+00
 Coeff:      0.504D-07-0.279D-07-0.111D-06 0.395D-07 0.977D-05 0.630D-05
 Coeff:     -0.610D-05-0.103D-03 0.191D-03 0.781D-03-0.849D-03-0.533D-02
 Coeff:     -0.353D-01 0.575D-01 0.983D+00
 Gap=     0.037 Goal=   None    Shift=    0.000
 Gap=     0.251 Goal=   None    Shift=    0.000
 RMSDP=5.15D-09 MaxDP=3.70D-07 DE= 2.61D-12 OVMax= 1.76D-08

 SCF Done:  E(UB3LYP) =  -153.747873820     A.U. after   19 cycles
            NFock= 19  Conv=0.51D-08     -V/T= 2.0035
 <Sx>= 0.0000 <Sy>= 0.0000 <Sz>= 1.5000 <S**2>= 3.7554 S= 1.5013
 <L.S>= 0.000000000000E+00
 KE= 1.532142742137D+02 PE=-4.996803557448D+02 EE= 1.245314459233D+02
 Annihilation of the first spin contaminant:
 S**2 before annihilation     3.7554,   after     3.7500
 Leave Link  502 at Thu Mar  7 10:45:56 2019, MaxMem=    33554432 cpu:       244.2
 (Enter /home/proyectos/fulerenos/M3C-v2.0/M3C-deps_CCC/g09-AM64L-G09RevC.01/l801.exe)
 DoSCS=F DFT=T ScalE2(SS,OS)=  1.000000  1.000000
 Range of M.O.s used for correlation:     1   157
 NBasis=   157 NAE=    14 NBE=    11 NFC=     0 NFV=     0
 NROrb=    157 NOA=    14 NOB=    11 NVA=   143 NVB=   146

 **** Warning!!: The largest alpha MO coefficient is  0.35003582D+02


 **** Warning!!: The smallest alpha delta epsilon is  0.36614863D-01


 **** Warning!!: The largest beta MO coefficient is  0.37617884D+02

 Leave Link  801 at Thu Mar  7 10:45:56 2019, MaxMem=    33554432 cpu:         0.1
 (Enter /home/proyectos/fulerenos/M3C-v2.0/M3C-deps_CCC/g09-AM64L-G09RevC.01/l1101.exe)
 Using compressed storage, NAtomX=     7.
 Will process      8 centers per pass.
 Leave Link 1101 at Thu Mar  7 10:45:56 2019, MaxMem=    33554432 cpu:         1.0
 (Enter /home/proyectos/fulerenos/M3C-v2.0/M3C-deps_CCC/g09-AM64L-G09RevC.01/l1102.exe)
 Symmetrizing basis deriv contribution to polar:
 IMax=3 JMax=2 DiffMx= 0.00D+00
 Leave Link 1102 at Thu Mar  7 10:45:56 2019, MaxMem=    33554432 cpu:         0.1
 (Enter /home/proyectos/fulerenos/M3C-v2.0/M3C-deps_CCC/g09-AM64L-G09RevC.01/l1110.exe)
 Forming Gx(P) for the SCF density, NAtomX=     7.
 Integral derivatives from FoFJK, PRISM(SPDF).
 Do as many integral derivatives as possible in FoFJK.
 G2DrvN: MDV=      33554272.
 G2DrvN: will do     8 centers at a time, making    1 passes.
 Calling FoFCou, ICntrl=  3107 FMM=F I1Cent=   0 AccDes= 0.00D+00.
 FoFJK:  IHMeth= 1 ICntrl=    3107 DoSepK=F KAlg= 0 I1Cent=   0 FoldK=F
 IRaf=         0 NMat=   1 IRICut=       1 DoRegI=T DoRafI=F ISym2E= 0.
 FoFCou: FMM=F IPFlag=           0 FMFlag=      100000 FMFlg1=           0
         NFxFlg=           0 DoJE=F BraDBF=F KetDBF=F FulRan=T
         wScrn=  0.000000 ICntrl=    3107 IOpCl=  1 I1Cent=           0 NGrid=           0
         NMat0=    1 NMatS0=      1 NMatT0=    0 NMatD0=    1 NMtDS0=    0 NMtDT0=    0
 Symmetry not used in FoFCou.
 End of G2Drv F.D. properties file   721 does not exist.
 End of G2Drv F.D. properties file   722 does not exist.
 End of G2Drv F.D. properties file   788 does not exist.
 Leave Link 1110 at Thu Mar  7 10:46:33 2019, MaxMem=    33554432 cpu:       145.9
 (Enter /home/proyectos/fulerenos/M3C-v2.0/M3C-deps_CCC/g09-AM64L-G09RevC.01/l1002.exe)
 Minotr:  UHF open shell wavefunction.
          IDoAtm=1111111
          Direct CPHF calculation.
          Differentiating once with respect to electric field.
                with respect to dipole field.
          Differentiating once with respect to nuclear coordinates.
          Requested convergence is 1.0D-08 RMS, and 1.0D-07 maximum.
          Secondary convergence is 1.0D-12 RMS, and 1.0D-12 maximum.
          NewPWx=T KeepS1=F KeepF1=F KeepIn=T MapXYZ=F SortEE=F KeepMc=T.
          MDV=      33554044 using IRadAn=       2.
 Generate precomputed XC quadrature information.
          Solving linear equations simultaneously, MaxMat=       0.
 FoFJK:  IHMeth= 1 ICntrl=       0 DoSepK=F KAlg= 0 I1Cent=   0 FoldK=F
 IRaf= 990000000 NMat=  24 IRICut=      60 DoRegI=T DoRafI=T ISym2E= 2.
 FoFCou: FMM=F IPFlag=           0 FMFlag=      100000 FMFlg1=           0
         NFxFlg=           0 DoJE=F BraDBF=F KetDBF=F FulRan=T
         wScrn=  0.000000 ICntrl=       0 IOpCl=  1 I1Cent=           0 NGrid=           0
         NMat0=   24 NMatS0=     24 NMatT0=    0 NMatD0=   24 NMtDS0=    0 NMtDT0=    0
 Integrals replicated using symmetry in FoFCou.
          There are    24 degrees of freedom in the 1st order CPHF.  IDoFFX=6 NUNeed=     3.
     21 vectors produced by pass  0 Test12= 1.50D-14 4.17D-09 XBig12= 9.68D+03 8.17D+01.
 AX will form    21 AO Fock derivatives at one time.
     21 vectors produced by pass  1 Test12= 1.50D-14 4.17D-09 XBig12= 3.55D+02 6.23D+00.
     21 vectors produced by pass  2 Test12= 1.50D-14 4.17D-09 XBig12= 9.73D+00 9.81D-01.
     21 vectors produced by pass  3 Test12= 1.50D-14 4.17D-09 XBig12= 1.49D-01 7.03D-02.
     21 vectors produced by pass  4 Test12= 1.50D-14 4.17D-09 XBig12= 9.24D-04 6.75D-03.
     21 vectors produced by pass  5 Test12= 1.50D-14 4.17D-09 XBig12= 6.24D-06 4.13D-04.
     21 vectors produced by pass  6 Test12= 1.50D-14 4.17D-09 XBig12= 3.25D-08 2.62D-05.
      8 vectors produced by pass  7 Test12= 1.50D-14 4.17D-09 XBig12= 1.45D-10 1.55D-06.
      3 vectors produced by pass  8 Test12= 1.50D-14 4.17D-09 XBig12= 5.89D-13 1.00D-07.
      3 vectors produced by pass  9 Test12= 1.50D-14 4.17D-09 XBig12= 1.72D-14 3.13D-08.
 InvSVY:  IOpt=1 It=  1 EMax= 4.26D-14
 Solved reduced A of dimension   161 with    24 vectors.
 FullF1:  Do perturbations    1 to     3.
 Isotropic polarizability for W=    0.000000      964.19 Bohr**3.
 End of Minotr F.D. properties file   721 does not exist.
 End of Minotr F.D. properties file   722 does not exist.
 End of Minotr F.D. properties file   788 does not exist.
 Leave Link 1002 at Thu Mar  7 10:48:22 2019, MaxMem=    33554432 cpu:       435.3
 (Enter /home/proyectos/fulerenos/M3C-v2.0/M3C-deps_CCC/g09-AM64L-G09RevC.01/l601.exe)
 Copying SCF densities to generalized density rwf, IOpCl= 1 IROHF=0.

 **********************************************************************

            Population analysis using the SCF density.

 **********************************************************************

 Orbital symmetries:
 Alpha Orbitals:
       Occupied  (A) (A) (A) (A) (A) (A) (A) (A) (A) (A) (A) (A)
                 (A) (A)
       Virtual   (A) (A) (A) (A) (A) (A) (A) (A) (A) (A) (A) (A)
                 (A) (A) (A) (A) (A) (A) (A) (A) (A) (A) (A) (A)
                 (A) (A) (A) (A) (A) (A) (A) (A) (A) (A) (A) (A)
                 (A) (A) (A) (A) (A) (A) (A) (A) (A) (A) (A) (A)
                 (A) (A) (A) (A) (A) (A) (A) (A) (A) (A) (A) (A)
                 (A) (A) (A) (A) (A) (A) (A) (A) (A) (A) (A) (A)
                 (A) (A) (A) (A) (A) (A) (A) (A) (A) (A) (A) (A)
                 (A) (A) (A) (A) (A) (A) (A) (A) (A) (A) (A) (A)
                 (A) (A) (A) (A) (A) (A) (A) (A) (A) (A) (A) (A)
                 (A) (A) (A) (A) (A) (A) (A) (A) (A) (A) (A) (A)
                 (A) (A) (A) (A) (A) (A) (A) (A) (A) (A) (A) (A)
                 (A) (A) (A) (A) (A) (A) (A) (A) (A) (A) (A)
 Beta  Orbitals:
       Occupied  (A) (A) (A) (A) (A) (A) (A) (A) (A) (A) (A)
       Virtual   (A) (A) (A) (A) (A) (A) (A) (A) (A) (A) (A) (A)
                 (A) (A) (A) (A) (A) (A) (A) (A) (A) (A) (A) (A)
                 (A) (A) (A) (A) (A) (A) (A) (A) (A) (A) (A) (A)
                 (A) (A) (A) (A) (A) (A) (A) (A) (A) (A) (A) (A)
                 (A) (A) (A) (A) (A) (A) (A) (A) (A) (A) (A) (A)
                 (A) (A) (A) (A) (A) (A) (A) (A) (A) (A) (A) (A)
                 (A) (A) (A) (A) (A) (A) (A) (A) (A) (A) (A) (A)
                 (A) (A) (A) (A) (A) (A) (A) (A) (A) (A) (A) (A)
                 (A) (A) (A) (A) (A) (A) (A) (A) (A) (A) (A) (A)
                 (A) (A) (A) (A) (A) (A) (A) (A) (A) (A) (A) (A)
                 (A) (A) (A) (A) (A) (A) (A) (A) (A) (A) (A) (A)
                 (A) (A) (A) (A) (A) (A) (A) (A) (A) (A) (A) (A)
                 (A) (A)
 The electronic state is 4-A.
 Alpha  occ. eigenvalues --  -19.02048 -10.08361 -10.05323  -0.92105  -0.61480
 Alpha  occ. eigenvalues --   -0.49257  -0.36653  -0.33228  -0.31206  -0.25042
 Alpha  occ. eigenvalues --   -0.23175  -0.10063  -0.03647   0.06487
 Alpha virt. eigenvalues --    0.10148   0.11011   0.11061   0.17615   0.18686
 Alpha virt. eigenvalues --    0.18873   0.19003   0.21694   0.22795   0.24105
 Alpha virt. eigenvalues --    0.25022   0.25596   0.29386   0.30316   0.32593
 Alpha virt. eigenvalues --    0.34079   0.35270   0.37517   0.40810   0.42115
 Alpha virt. eigenvalues --    0.44485   0.46732   0.48820   0.52533   0.53340
 Alpha virt. eigenvalues --    0.55992   0.59906   0.60983   0.63596   0.63857
 Alpha virt. eigenvalues --    0.66250   0.69673   0.72141   0.73675   0.78165
 Alpha virt. eigenvalues --    0.80007   0.82568   0.84835   0.87872   0.90616
 Alpha virt. eigenvalues --    0.93214   0.96390   1.06892   1.08850   1.11777
 Alpha virt. eigenvalues --    1.16864   1.17750   1.20207   1.21887   1.23402
 Alpha virt. eigenvalues --    1.26364   1.30243   1.33060   1.35091   1.38160
 Alpha virt. eigenvalues --    1.40847   1.41159   1.43480   1.46010   1.52906
 Alpha virt. eigenvalues --    1.55743   1.58668   1.69262   1.77246   1.79684
 Alpha virt. eigenvalues --    1.84471   1.96020   2.00364   2.11318   2.21214
 Alpha virt. eigenvalues --    2.23198   2.28117   2.38410   2.46889   2.74389
 Alpha virt. eigenvalues --    2.77248   2.80265   2.83723   2.88814   2.93433
 Alpha virt. eigenvalues --    2.96314   3.04957   3.11655   3.12316   3.15733
 Alpha virt. eigenvalues --    3.16131   3.21614   3.27580   3.32939   3.37428
 Alpha virt. eigenvalues --    3.42093   3.49945   3.60446   3.64569   3.66860
 Alpha virt. eigenvalues --    3.71215   3.84774   3.90654   4.07183   4.11038
 Alpha virt. eigenvalues --    4.13729   4.18742   4.23759   4.33337   4.34404
 Alpha virt. eigenvalues --    4.37588   4.43868   4.54739   4.67939   4.75639
 Alpha virt. eigenvalues --    4.98303   5.10966   5.23966   5.32620   5.39567
 Alpha virt. eigenvalues --    5.41303   5.61366   5.64409   5.67792   5.73538
 Alpha virt. eigenvalues --    5.83193   5.98267   6.25577   6.66148   7.14699
 Alpha virt. eigenvalues --    7.16222   7.26424   7.38966   7.41546   7.47180
 Alpha virt. eigenvalues --    7.48908   7.94683   8.06941   8.12257   8.27269
 Alpha virt. eigenvalues --   14.47839  14.57178  14.59636  14.89823  15.17202
 Alpha virt. eigenvalues --   24.29020  24.99890  50.26236
  Beta  occ. eigenvalues --  -19.01307 -10.07118 -10.03959  -0.90377  -0.57279
  Beta  occ. eigenvalues --   -0.46828  -0.34803  -0.31391  -0.28568  -0.22588
  Beta  occ. eigenvalues --   -0.20744
  Beta virt. eigenvalues --    0.04390   0.09610   0.10381   0.11517   0.12920
  Beta virt. eigenvalues --    0.13138   0.18100   0.19438   0.20148   0.20577
  Beta virt. eigenvalues --    0.22995   0.23693   0.24812   0.25618   0.27061
  Beta virt. eigenvalues --    0.30283   0.31530   0.33902   0.34320   0.35982
  Beta virt. eigenvalues --    0.39360   0.41331   0.43561   0.45415   0.47950
  Beta virt. eigenvalues --    0.51127   0.53958   0.54672   0.58443   0.62104
  Beta virt. eigenvalues --    0.62929   0.64758   0.66507   0.67511   0.72420
  Beta virt. eigenvalues --    0.74279   0.75587   0.79644   0.81171   0.83197
  Beta virt. eigenvalues --    0.86044   0.88977   0.91495   0.94105   0.97071
  Beta virt. eigenvalues --    1.07952   1.10198   1.12688   1.17617   1.18652
  Beta virt. eigenvalues --    1.21330   1.22527   1.24345   1.27532   1.31371
  Beta virt. eigenvalues --    1.34064   1.36396   1.39563   1.41934   1.42551
  Beta virt. eigenvalues --    1.44539   1.46904   1.55181   1.56928   1.60039
  Beta virt. eigenvalues --    1.73191   1.78685   1.82663   1.86986   2.00935
  Beta virt. eigenvalues --    2.04410   2.14582   2.23550   2.25416   2.30127
  Beta virt. eigenvalues --    2.40351   2.48461   2.76077   2.79971   2.82088
  Beta virt. eigenvalues --    2.86474   2.93443   2.99434   3.00437   3.08102
  Beta virt. eigenvalues --    3.14979   3.15659   3.18160   3.18584   3.24999
  Beta virt. eigenvalues --    3.30368   3.34875   3.40551   3.44025   3.52536
  Beta virt. eigenvalues --    3.62164   3.66160   3.68237   3.73209   3.86377
  Beta virt. eigenvalues --    3.92704   4.08265   4.12537   4.15297   4.20121
  Beta virt. eigenvalues --    4.25132   4.34218   4.35545   4.38601   4.45373
  Beta virt. eigenvalues --    4.56461   4.69556   4.76381   4.99517   5.12278
  Beta virt. eigenvalues --    5.26096   5.33963   5.41002   5.42750   5.62369
  Beta virt. eigenvalues --    5.65714   5.68881   5.74714   5.84202   6.00348
  Beta virt. eigenvalues --    6.26379   6.67192   7.15454   7.22574   7.32333
  Beta virt. eigenvalues --    7.45568   7.49381   7.52856   7.55321   7.96355
  Beta virt. eigenvalues --    8.08691   8.13305   8.28533  14.50308  14.59442
  Beta virt. eigenvalues --   14.61941  14.91507  15.18188  24.30501  25.01359
  Beta virt. eigenvalues --   50.26979
          Condensed to atoms (all electrons):
               1          2          3          4          5          6
     1  C    9.347242   3.485161  -2.024000  -2.468651  -0.242981  -2.182617
     2  C    3.485161  16.302130  -4.544465  -2.783127  -0.933402  -5.229090
     3  H   -2.024000  -4.544465   3.584257   1.384539   0.420888   2.529875
     4  H   -2.468651  -2.783127   1.384539   2.763076   0.402209   1.556217
     5  H   -0.242981  -0.933402   0.420888   0.402209   0.798310   0.487720
     6  H   -2.182617  -5.229090   2.529875   1.556217   0.487720   4.271537
     7  O   -1.057121  -1.396758   0.557947   0.796943   0.137772   0.583110
               7
     1  C   -1.057121
     2  C   -1.396758
     3  H    0.557947
     4  H    0.796943
     5  H    0.137772
     6  H    0.583110
     7  O    8.973113
          Atomic-Atomic Spin Densities.
               1          2          3          4          5          6
     1  C    4.899219   3.555174  -1.978066  -2.431510  -0.695296  -2.106408
     2  C    3.555174  11.527005  -4.963237  -2.762270  -0.835611  -5.675651
     3  H   -1.978066  -4.963237   3.084376   1.385116   0.413550   2.569437
     4  H   -2.431510  -2.762270   1.385116   2.237568   0.386254   1.554787
     5  H   -0.695296  -0.835611   0.413550   0.386254   0.238777   0.486109
     6  H   -2.106408  -5.675651   2.569437   1.554787   0.486109   3.760061
     7  O   -1.309523  -1.344248   0.562907   0.551209   0.194362   0.581280
               7
     1  C   -1.309523
     2  C   -1.344248
     3  H    0.562907
     4  H    0.551209
     5  H    0.194362
     6  H    0.581280
     7  O    0.976266
 Mulliken charges and spin densities:
               1          2
     1  C    1.142968  -0.066410
     2  C    1.099552  -0.498838
     3  H   -0.909040   1.074081
     4  H   -0.651207   0.921155
     5  H   -0.070515   0.188145
     6  H   -1.016752   1.169614
     7  O   -0.595006   0.212253
 Sum of Mulliken charges =  -1.00000   3.00000
 Mulliken charges and spin densities with hydrogens summed into heavy atoms:
               1          2
     1  C    1.072453   0.121735
     2  C   -0.826240   1.744857
     7  O   -1.246212   1.133408
 APT charges:
               1
     1  C   -0.889138
     2  C    0.198530
     3  H   -0.255785
     4  H   -1.134091
     5  H    0.377483
     6  H   -0.381156
     7  O    1.084157
 Sum of APT charges =  -1.00000
 APT charges with hydrogens summed into heavy atoms:
               1
     1  C   -0.511655
     2  C   -0.438411
     7  O   -0.049934
 Electronic spatial extent (au):  <R**2>=            232.8472
 Charge=             -1.0000 electrons
 Dipole moment (field-independent basis, Debye):
    X=              2.9792    Y=              4.2066    Z=              0.3378  Tot=              5.1658
 Quadrupole moment (field-independent basis, Debye-Ang):
   XX=            -51.6580   YY=            -43.3931   ZZ=            -43.9187
   XY=              0.6165   XZ=             -0.1380   YZ=             -0.5211
 Traceless Quadrupole moment (field-independent basis, Debye-Ang):
   XX=             -5.3347   YY=              2.9302   ZZ=              2.4046
   XY=              0.6165   XZ=             -0.1380   YZ=             -0.5211
 Octapole moment (field-independent basis, Debye-Ang**2):
  XXX=             68.8694  YYY=             54.0931  ZZZ=              1.3991  XYY=             14.6717
  XXY=             22.7399  XXZ=              2.2775  XZZ=             29.7682  YZZ=             19.3381
  YYZ=              2.4134  XYZ=              0.6423
 Hexadecapole moment (field-independent basis, Debye-Ang**3):
 XXXX=           -616.8518 YYYY=           -363.2362 ZZZZ=           -301.0089 XXXY=             -9.5612
 XXXZ=             -3.0850 YYYX=             10.3487 YYYZ=             -9.2070 ZZZX=              2.1805
 ZZZY=             -7.7375 XXYY=           -160.3853 XXZZ=           -168.9373 YYZZ=           -111.6650
 XXYZ=             -5.4804 YYXZ=              0.3889 ZZXY=             -6.4631
 N-N= 6.818676178751D+01 E-N=-4.996803557537D+02  KE= 1.532142742137D+02
  Exact polarizability: 925.601-185.796 971.003  -6.847  60.361 995.958
 Approx polarizability: 860.078-271.091 576.769 -18.534  52.992 710.388
                          Isotropic Fermi Contact Couplings
        Atom                 a.u.       MegaHertz       Gauss      10(-4) cm-1
     1  C(13)              0.07036      26.36719       9.40847       8.79515
     2  C(13)              0.10074      37.75014      13.47019      12.59209
     3  H(1)               0.01089      16.23257       5.79218       5.41460
     4  H(1)              -0.00388      -5.78805      -2.06532      -1.93069
     5  H(1)               0.00399       5.94284       2.12055       1.98232
     6  H(1)               0.00412       6.14121       2.19134       2.04849
     7  O(17)              0.13387     -27.05022      -9.65219      -9.02298
 --------------------------------------------------------
       Center         ----  Spin Dipole Couplings  ----
                      3XX-RR        3YY-RR        3ZZ-RR
 --------------------------------------------------------
     1   Atom       -0.533928     -0.525539      1.059468
     2   Atom       -0.163988      0.749471     -0.585483
     3   Atom       -0.027640     -0.016736      0.044376
     4   Atom       -0.021234      0.058423     -0.037189
     5   Atom       -0.059620      0.065745     -0.006124
     6   Atom       -0.009247     -0.010143      0.019390
     7   Atom       -0.223976     -0.466126      0.690101
 --------------------------------------------------------
                        XY            XZ            YZ
 --------------------------------------------------------
     1   Atom        0.022748     -0.055339     -0.120746
     2   Atom       -0.681241      0.004205     -0.019670
     3   Atom       -0.011390     -0.060676     -0.031580
     4   Atom       -0.006387     -0.000300      0.008129
     5   Atom        0.030230      0.000443      0.018204
     6   Atom        0.000728      0.068771      0.037273
     7   Atom        0.031352     -0.044601     -0.140844
 --------------------------------------------------------


 ---------------------------------------------------------------------------------
              Anisotropic Spin Dipole Couplings in Principal Axis System
 ---------------------------------------------------------------------------------

       Atom             a.u.   MegaHertz   Gauss  10(-4) cm-1        Axes

              Baa    -0.5538   -74.317   -26.518   -24.790  0.7186 -0.6949 -0.0274
     1 C(13)  Bbb    -0.5168   -69.351   -24.746   -23.133  0.6945  0.7151  0.0792
              Bcc     1.0706   143.668    51.264    47.923 -0.0354 -0.0759  0.9965
 
              Baa    -0.5862   -78.666   -28.070   -26.240  0.0776  0.0542  0.9955
     2 C(13)  Bbb    -0.5269   -70.707   -25.230   -23.585  0.8789  0.4676 -0.0939
              Bcc     1.1131   149.373    53.300    49.825 -0.4706  0.8822 -0.0114
 
              Baa    -0.0742   -39.578   -14.122   -13.202  0.7552  0.4244  0.4996
     3 H(1)   Bbb    -0.0097    -5.171    -1.845    -1.725 -0.4779  0.8781 -0.0235
              Bcc     0.0839    44.749    15.968    14.927 -0.4486 -0.2210  0.8660
 
              Baa    -0.0379   -20.210    -7.212    -6.741 -0.0147 -0.0851  0.9963
     4 H(1)   Bbb    -0.0217   -11.597    -4.138    -3.868  0.9968  0.0773  0.0213
              Bcc     0.0596    31.807    11.350    10.610 -0.0788  0.9934  0.0837
 
              Baa    -0.0668   -35.617   -12.709   -11.881  0.9712 -0.2301  0.0620
     5 H(1)   Bbb    -0.0098    -5.206    -1.858    -1.736 -0.1078 -0.1920  0.9755
              Bcc     0.0765    40.823    14.567    13.617  0.2125  0.9540  0.2113
 
              Baa    -0.0742   -39.595   -14.129   -13.208  0.6747  0.3654 -0.6413
     6 H(1)   Bbb    -0.0105    -5.629    -2.008    -1.877 -0.4764  0.8792 -0.0003
              Bcc     0.0848    45.224    16.137    15.085  0.5637  0.3057  0.7673
 
              Baa    -0.4856    35.138    12.538    11.721 -0.0989  0.9885  0.1147
     7 O(17)  Bbb    -0.2239    16.200     5.781     5.404  0.9938  0.0922  0.0627
              Bcc     0.7095   -51.338   -18.319   -17.124 -0.0514 -0.1201  0.9914
 

 ---------------------------------------------------------------------------------

 No NMR shielding tensors so no spin-rotation constants.
 Leave Link  601 at Thu Mar  7 10:48:22 2019, MaxMem=    33554432 cpu:         1.6
 (Enter /home/proyectos/fulerenos/M3C-v2.0/M3C-deps_CCC/g09-AM64L-G09RevC.01/l701.exe)
 Compute integral second derivatives.
 ... and contract with generalized density number  0.
 Leave Link  701 at Thu Mar  7 10:48:23 2019, MaxMem=    33554432 cpu:         1.3
 (Enter /home/proyectos/fulerenos/M3C-v2.0/M3C-deps_CCC/g09-AM64L-G09RevC.01/l702.exe)
 L702 exits ... SP integral derivatives will be done elsewhere.
 Leave Link  702 at Thu Mar  7 10:48:23 2019, MaxMem=    33554432 cpu:         0.1
 (Enter /home/proyectos/fulerenos/M3C-v2.0/M3C-deps_CCC/g09-AM64L-G09RevC.01/l703.exe)
 Compute integral second derivatives, UseDBF=F ICtDFT=           0.
 Integral derivatives from FoFJK, PRISM(SPDF).
 Calling FoFJK, ICntrl=    100127 FMM=F ISym2X=0 I1Cent= 0 IOpClX= 1 NMat=1 NMatS=1 NMatT=0.
 FoFJK:  IHMeth= 1 ICntrl=  100127 DoSepK=F KAlg= 0 I1Cent=   0 FoldK=F
 IRaf=         0 NMat=   1 IRICut=       1 DoRegI=T DoRafI=F ISym2E= 0.
 FoFCou: FMM=F IPFlag=           0 FMFlag=      100000 FMFlg1=         800
         NFxFlg=           0 DoJE=F BraDBF=F KetDBF=F FulRan=T
         wScrn=  0.000000 ICntrl=  100127 IOpCl=  1 I1Cent=           0 NGrid=           0
         NMat0=    1 NMatS0=      1 NMatT0=    0 NMatD0=    1 NMtDS0=    0 NMtDT0=    0
 Symmetry not used in FoFCou.
 Leave Link  703 at Thu Mar  7 10:49:26 2019, MaxMem=    33554432 cpu:       251.8
 (Enter /home/proyectos/fulerenos/M3C-v2.0/M3C-deps_CCC/g09-AM64L-G09RevC.01/l716.exe)
 Dipole        = 1.17211591D+00 1.65499300D+00 1.32917069D-01
 Polarizability= 9.25600694D+02-1.85796266D+02 9.71003142D+02
                -6.84729643D+00 6.03612470D+01 9.95958155D+02
 Full mass-weighted force constant matrix:
 Low frequencies ---  -15.2172   -0.0011   -0.0006    0.0003   13.5861   17.1207
 Low frequencies ---  283.7747  374.4476  408.9842
 Diagonal vibrational polarizability:
       76.1268120     102.3448143     139.8163037
 Harmonic frequencies (cm**-1), IR intensities (KM/Mole), Raman scattering
 activities (A**4/AMU), depolarization ratios for plane and unpolarized
 incident light, reduced masses (AMU), force constants (mDyne/A),
 and normal coordinates:
                      1                      2                      3
                      A                      A                      A
 Frequencies --    283.7680               374.4463               408.9842
 Red. masses --      1.4649                 1.6133                 1.1927
 Frc consts  --      0.0695                 0.1333                 0.1175
 IR Inten    --    334.4786               119.2617               396.0988
  Atom  AN      X      Y      Z        X      Y      Z        X      Y      Z
     1   6    -0.01  -0.03   0.15     0.01   0.15  -0.03     0.00  -0.02  -0.12
     2   6    -0.02  -0.00  -0.03     0.10  -0.01  -0.00     0.00  -0.03   0.01
     3   1    -0.20  -0.04  -0.12     0.36  -0.38   0.01     0.22  -0.20   0.06
     4   1    -0.10  -0.09   0.85    -0.38  -0.07   0.42     0.00  -0.03   0.40
     5   1     0.01   0.06  -0.34     0.07   0.07   0.27    -0.06  -0.11   0.40
     6   1     0.03   0.16  -0.14     0.31  -0.41   0.03    -0.45   0.60   0.05
     7   8     0.04   0.02  -0.10    -0.11  -0.05  -0.02     0.02   0.02   0.02
                      4                      5                      6
                      A                      A                      A
 Frequencies --    555.9133               588.4882               956.5545
 Red. masses --      1.0498                 2.0367                 1.3380
 Frc consts  --      0.1911                 0.4156                 0.7213
 IR Inten    --    200.8749               508.0730                83.2046
  Atom  AN      X      Y      Z        X      Y      Z        X      Y      Z
     1   6     0.00   0.00  -0.01     0.00   0.10   0.03    -0.01  -0.01   0.10
     2   6    -0.00  -0.03  -0.01     0.19  -0.18   0.00     0.01   0.01  -0.14
     3   1    -0.31   0.61   0.02    -0.24   0.51  -0.01     0.61   0.31   0.23
     4   1    -0.02  -0.02   0.19    -0.29   0.05  -0.18    -0.02   0.00   0.00
     5   1    -0.08  -0.12   0.63     0.01   0.17  -0.32    -0.08   0.02  -0.05
     6   1     0.08  -0.24   0.03    -0.19   0.55  -0.05    -0.53  -0.26   0.32
     7   8     0.02   0.01  -0.04    -0.10  -0.02   0.01     0.00  -0.00  -0.00
                      7                      8                      9
                      A                      A                      A
 Frequencies --   1006.3396              1178.6632              1239.5246
 Red. masses --      4.3793                 1.6174                 1.9741
 Frc consts  --      2.6130                 1.3239                 1.7870
 IR Inten    --    650.1714               361.8066               106.2877
  Atom  AN      X      Y      Z        X      Y      Z        X      Y      Z
     1   6    -0.00   0.32  -0.03     0.15   0.04   0.01    -0.24   0.11  -0.00
     2   6    -0.26  -0.16  -0.00    -0.09  -0.08  -0.01     0.07   0.01  -0.00
     3   1    -0.20  -0.12   0.04    -0.08  -0.01   0.01     0.10   0.10   0.03
     4   1    -0.58   0.05  -0.10     0.48  -0.06   0.08     0.86  -0.24   0.11
     5   1     0.17   0.31  -0.11     0.81  -0.04   0.02     0.24   0.05   0.00
     6   1    -0.39  -0.15   0.07    -0.20  -0.09   0.06     0.11   0.09  -0.06
     7   8     0.26  -0.12   0.03    -0.10   0.05  -0.01     0.04  -0.09   0.00
                     10                     11                     12
                      A                      A                      A
 Frequencies --   1389.8848              1438.7777              3012.7668
 Red. masses --      1.3189                 1.1853                 1.0503
 Frc consts  --      1.5012                 1.4456                 5.6168
 IR Inten    --    850.3302               504.3789               178.5595
  Atom  AN      X      Y      Z        X      Y      Z        X      Y      Z
     1   6    -0.13  -0.07  -0.01     0.04   0.01   0.00    -0.00  -0.00  -0.00
     2   6     0.02   0.00  -0.01    -0.11  -0.05   0.01     0.05   0.03  -0.02
     3   1     0.15   0.09   0.07     0.51   0.29   0.36    -0.31  -0.18   0.70
     4   1    -0.50   0.16  -0.06     0.05  -0.01   0.01     0.00   0.00   0.00
     5   1     0.76  -0.22   0.05    -0.13   0.04  -0.02    -0.00   0.01   0.01
     6   1     0.14   0.05  -0.10     0.46   0.26  -0.45    -0.30  -0.19  -0.50
     7   8     0.04   0.05   0.01    -0.01  -0.00  -0.00    -0.00  -0.00   0.00
                     13                     14                     15
                      A                      A                      A
 Frequencies --   3118.8647              3162.4641              3598.2658
 Red. masses --      1.1134                 1.0848                 1.0668
 Frc consts  --      6.3811                 6.3923                 8.1378
 IR Inten    --     99.4169               922.3354              6077.2016
  Atom  AN      X      Y      Z        X      Y      Z        X      Y      Z
     1   6     0.00   0.00   0.00    -0.01  -0.08  -0.01    -0.00  -0.00  -0.00
     2   6    -0.01  -0.01  -0.10     0.00  -0.00  -0.00    -0.00   0.00  -0.00
     3   1    -0.25  -0.15   0.53    -0.00   0.00   0.00    -0.00  -0.00  -0.00
     4   1    -0.00  -0.01   0.00    -0.01  -0.03  -0.01     0.17   0.97   0.14
     5   1    -0.00  -0.02  -0.01     0.13   0.97   0.20    -0.00   0.03   0.01
     6   1     0.40   0.25   0.63     0.01   0.00   0.02     0.01   0.00   0.01
     7   8     0.00   0.00  -0.00     0.00   0.00  -0.00    -0.01  -0.06  -0.01

 -------------------
 - Thermochemistry -
 -------------------
 Temperature   298.150 Kelvin.  Pressure   1.00000 Atm.
 Atom     1 has atomic number  6 and mass  12.00000
 Atom     2 has atomic number  6 and mass  12.00000
 Atom     3 has atomic number  1 and mass   1.00783
 Atom     4 has atomic number  1 and mass   1.00783
 Atom     5 has atomic number  1 and mass   1.00783
 Atom     6 has atomic number  1 and mass   1.00783
 Atom     7 has atomic number  8 and mass  15.99491
 Molecular mass:    44.02621 amu.
 Principal axes and moments of inertia in atomic units:
                           1         2         3
     Eigenvalues --    35.84354 182.93481 205.59089
           X            0.99984   0.01729  -0.00353
           Y           -0.01707   0.99835   0.05479
           Z            0.00447  -0.05472   0.99849
 This molecule is an asymmetric top.
 Rotational symmetry number  1.
 Rotational temperatures (Kelvin)      2.41644     0.47347     0.42129
 Rotational constants (GHZ):          50.35052     9.86549     8.77831
 Zero-point vibrational energy     133465.6 (Joules/Mol)
                                   31.89904 (Kcal/Mol)
 Warning -- explicit consideration of   5 degrees of freedom as
           vibrations may cause significant error
 Vibrational temperatures:    408.28   538.74   588.44   799.83   846.70
          (Kelvin)           1376.27  1447.90  1695.83  1783.40  1999.73
                             2070.08  4334.69  4487.35  4550.07  5177.10
 
 Zero-point correction=                           0.050834 (Hartree/Particle)
 Thermal correction to Energy=                    0.055222
 Thermal correction to Enthalpy=                  0.056166
 Thermal correction to Gibbs Free Energy=         0.024486
 Sum of electronic and zero-point Energies=           -153.697039
 Sum of electronic and thermal Energies=              -153.692652
 Sum of electronic and thermal Enthalpies=            -153.691708
 Sum of electronic and thermal Free Energies=         -153.723387
 
                     E (Thermal)             CV                S
                      KCal/Mol        Cal/Mol-Kelvin    Cal/Mol-Kelvin
 Total                   34.652             14.224             66.676
 Electronic               0.000              0.000              2.755
 Translational            0.889              2.981             37.273
 Rotational               0.889              2.981             21.827
 Vibrational             32.875              8.262              4.821
 Vibration     1          0.682              1.704              1.511
 Vibration     2          0.746              1.525              1.062
 Vibration     3          0.773              1.451              0.930
 Vibration     4          0.911              1.127              0.532
 Vibration     5          0.946              1.056              0.470
                       Q            Log10(Q)             Ln(Q)
 Total Bot       0.545828D-11        -11.262944        -25.933887
 Total V=0       0.131580D+13         12.119189         27.905464
 Vib (Bot)       0.904215D-23        -23.043728        -53.060146
 Vib (Bot)    1  0.676178D+00         -0.169939         -0.391299
 Vib (Bot)    2  0.484728D+00         -0.314502         -0.724168
 Vib (Bot)    3  0.432918D+00         -0.363594         -0.837207
 Vib (Bot)    4  0.280692D+00         -0.551770         -1.270497
 Vib (Bot)    5  0.256734D+00         -0.590517         -1.359715
 Vib (V=0)       0.217974D+01          0.338405          0.779206
 Vib (V=0)    1  0.134096D+01          0.127416          0.293387
 Vib (V=0)    2  0.119639D+01          0.077873          0.179310
 Vib (V=0)    3  0.116138D+01          0.064973          0.149605
 Vib (V=0)    4  0.107340D+01          0.030762          0.070832
 Vib (V=0)    5  0.106206D+01          0.026149          0.060211
 Electronic      0.400000D+01          0.602060          1.386294
 Translational   0.114821D+08          7.060022         16.256302
 Rotational      0.131432D+05          4.118702          9.483662
 
                                                              b3lyp opt
                                                             IR Spectrum
 
     3               33   3                                                       11     1 1     1                                   
     5               11   0                                                       43     2 1     0 9            55    43  2          
     9               61   1                                                       39     4 7     0 5            85    07  8          
     8               29   3                                                       90     0 9     6 7            86    94  4          
 
     X               XX   X                                                       XX     X X     X X            XX    XX  X          
     X               X                                                            XX             X              X                    
     X               X                                                             X                                                 
     X                                                                                                                               
     X                                                                                                                               
     X                                                                                                                               
     X                                                                                                                               
     X                                                                                                                               
     X                                                                                                                               
     X                                                                                                                               
     X                                                                                                                               
     X                                                                                                                               
     X                                                                                                                               
     X                                                                                                                               
     X                                                                                                                               
     X                                                                                                                               
     X                                                                                                                               
     X                                                                                                                               
     X                                                                                                                               
     X                                                                                                                               
 
 ***** Axes restored to original set *****
 -------------------------------------------------------------------
 Center     Atomic                   Forces (Hartrees/Bohr)
 Number     Number              X              Y              Z
 -------------------------------------------------------------------
      1        6           0.000033560   -0.000115766    0.000051539
      2        6          -0.000009740    0.000041637    0.000042863
      3        1          -0.000009011   -0.000006226   -0.000037548
      4        1           0.000013521   -0.000024363    0.000017625
      5        1           0.000004138    0.000032243   -0.000017311
      6        1          -0.000009723   -0.000014903   -0.000023444
      7        8          -0.000022746    0.000087379   -0.000033724
 -------------------------------------------------------------------
 Cartesian Forces:  Max     0.000115766 RMS     0.000040813
 Z-matrix is all fixed cartesians, so copy forces.
 Force constants in Cartesian coordinates: 
                1             2             3             4             5 
      1  0.380456D+00
      2 -0.571803D-01  0.457478D+00
      3  0.201981D+00  0.176645D+00  0.315617D+00
      4 -0.195148D+00 -0.213906D-01 -0.971935D-01  0.487132D+00
      5 -0.275734D-01 -0.512976D-01 -0.200885D-01  0.106889D+00  0.124209D+00
      6 -0.813590D-01 -0.967525D-02 -0.105460D+00  0.327655D-01 -0.105517D+00
      7 -0.199388D-01 -0.127427D-01  0.415515D-02 -0.215828D+00 -0.886515D-01
      8 -0.453014D-02  0.971676D-03  0.203486D-02 -0.869949D-01 -0.535227D-01
      9 -0.131068D-01 -0.674299D-02  0.943883D-02  0.900768D-01  0.522284D-01
     10  0.281865D-02  0.254509D-01  0.171988D-01  0.788930D-03 -0.125552D-02
     11 -0.163396D-02 -0.337743D-01 -0.204904D-01 -0.209333D-02  0.510469D-02
     12  0.422910D-02  0.582743D-02  0.532718D-02 -0.421622D-03  0.311564D-02
     13 -0.428109D-01 -0.338398D-01 -0.524307D-01 -0.572403D-02 -0.127269D-01
     14 -0.252017D-01 -0.169152D+00 -0.139947D+00 -0.106561D-02  0.210388D-02
     15 -0.557251D-01 -0.161694D+00 -0.167613D+00  0.379830D-03 -0.406327D-02
     16 -0.470170D-02  0.653446D-03 -0.231106D-01 -0.446885D-01 -0.364462D-02
     17  0.254608D-02  0.612030D-02 -0.347244D-02 -0.726370D-02 -0.257706D-01
     18 -0.771810D-02 -0.699114D-03 -0.614928D-02 -0.144997D-01  0.622935D-01
     19 -0.120675D+00  0.990491D-01 -0.506004D-01 -0.265326D-01  0.269626D-01
     20  0.113573D+00 -0.210346D+00  0.531839D-02  0.119188D-01 -0.826927D-03
     21 -0.483015D-01 -0.366048D-02 -0.511609D-01 -0.111073D-01  0.120313D-01
                6             7             8             9            10 
      6  0.516935D+00
      7  0.997551D-01  0.232924D+00
      8  0.544077D-01  0.949654D-01  0.527788D-01
      9 -0.101613D+00 -0.992593D-01 -0.554541D-01  0.101321D+00
     10  0.232013D-02 -0.126293D-03  0.560852D-03 -0.460364D-03  0.539812D-01
     11  0.209766D-02  0.451526D-03 -0.101188D-02 -0.118385D-02  0.584590D-01
     12 -0.101164D-03 -0.390173D-03 -0.831716D-03 -0.283126D-03  0.820611D-01
     13 -0.172257D-01  0.927508D-03 -0.563352D-03 -0.394061D-03 -0.149305D-02
     14 -0.225035D-02  0.108092D-02 -0.113956D-02 -0.167171D-03  0.431444D-02
     15 -0.656133D-02 -0.119251D-02  0.192291D-02  0.322798D-03 -0.111422D-02
     16 -0.225579D-01  0.355827D-02 -0.418629D-02  0.224400D-01 -0.153695D-03
     17  0.591669D-01  0.233514D-02 -0.153106D-02  0.884039D-02  0.270084D-03
     18 -0.304085D+00 -0.418451D-02  0.921769D-03 -0.771108D-02 -0.888884D-04
     19 -0.136982D-01 -0.151643D-02  0.748358D-03  0.703799D-03 -0.558157D-01
     20  0.177043D-02  0.256115D-02  0.345475D-02  0.247930D-02 -0.877998D-01
     21  0.885004D-03  0.111627D-02 -0.300142D-02 -0.147515D-02 -0.999165D-01
               11            12            13            14            15 
     11  0.265135D+00
     12  0.206153D+00  0.201051D+00
     13  0.326520D-02 -0.141649D-02  0.505276D-01
     14 -0.355884D-03  0.149141D-02  0.217649D-01  0.199373D+00
     15  0.123942D-02  0.163742D-02  0.540088D-01  0.158926D+00  0.170772D+00
     16  0.342213D-03  0.153649D-03 -0.182367D-02 -0.420007D-03 -0.130272D-02
     17 -0.144022D-02 -0.788297D-03  0.166427D-03  0.377542D-03 -0.238105D-02
     18  0.515197D-03  0.909529D-03  0.276692D-03  0.102867D-02 -0.157479D-02
     19 -0.587907D-01 -0.842156D-01  0.396484D-03 -0.472941D-03  0.494598D-02
     20 -0.233658D+00 -0.214968D+00  0.219336D-01 -0.312075D-01  0.604985D-02
     21 -0.188331D+00 -0.208540D+00  0.171814D-01 -0.190824D-01  0.301660D-02
               16            17            18            19            20 
     16  0.486001D-01
     17  0.551562D-02  0.227970D-01
     18  0.259916D-01 -0.639129D-01  0.320048D+00
     19 -0.790803D-03 -0.356964D-02  0.222850D-03  0.204934D+00
     20  0.173964D-02 -0.552962D-03 -0.147111D-03 -0.639268D-01  0.473136D+00
     21 -0.161402D-02  0.254739D-02 -0.143774D-02  0.142642D+00  0.199497D+00
               21 
     21  0.258713D+00
 Leave Link  716 at Thu Mar  7 10:49:26 2019, MaxMem=    33554432 cpu:         0.1
 (Enter /home/proyectos/fulerenos/M3C-v2.0/M3C-deps_CCC/g09-AM64L-G09RevC.01/l103.exe)

 GradGradGradGradGradGradGradGradGradGradGradGradGradGradGradGradGradGrad
 Berny optimization.
 Search for a local minimum.
 Step number   1 out of a maximum of    2
 All quantities printed in internal units (Hartrees-Bohrs-Radians)
 Second derivative matrix not updated -- analytic derivatives used.
 ITU=  0
     Eigenvalues ---    0.00535   0.00988   0.01390   0.01766   0.04802
     Eigenvalues ---    0.07670   0.09738   0.11088   0.16521   0.26097
     Eigenvalues ---    0.55242   0.67606   0.73049   0.87192   0.95790
 Angle between quadratic step and forces=  64.42 degrees.
 Linear search not attempted -- first point.
 B after Tr=     0.000005    0.000164    0.000022
         Rot=    1.000000   -0.000112   -0.000058   -0.000095 Ang=  -0.02 deg.
 Variable       Old X    -DE/DX   Delta X   Delta X   Delta X     New X
                                 (Linear)    (Quad)   (Total)
    X1        0.14994   0.00003   0.00000  -0.00121  -0.00127   0.14867
    Y1        0.76872  -0.00012   0.00000  -0.00115  -0.00111   0.76761
    Z1        0.65976   0.00005   0.00000   0.00173   0.00191   0.66167
    X2       -2.23507  -0.00001   0.00000  -0.00046  -0.00063  -2.23570
    Y2        0.51986   0.00004   0.00000   0.00034   0.00023   0.52008
    Z2       -0.66789   0.00004   0.00000   0.00038   0.00078  -0.66711
    X3       -3.91938  -0.00001   0.00000  -0.00131  -0.00123  -3.92062
    Y3       -0.24164  -0.00001   0.00000  -0.00109  -0.00173  -0.24337
    Z3        0.24018  -0.00004   0.00000  -0.00241  -0.00199   0.23819
    X4        1.26960   0.00001   0.00000  -0.00133  -0.00085   1.26875
    Y4       -2.61043  -0.00002   0.00000  -0.00157  -0.00112  -2.61155
    Z4       -0.17480   0.00002   0.00000   0.00225   0.00154  -0.17326
    X5        0.48904   0.00000   0.00000   0.00182   0.00164   0.49068
    Y5        2.21489   0.00003   0.00000   0.00144   0.00124   2.21613
    Z5        2.06152  -0.00002   0.00000  -0.00178  -0.00132   2.06021
    X6       -2.41209  -0.00001   0.00000   0.00112   0.00064  -2.41145
    Y6        0.92525  -0.00001   0.00000   0.00123   0.00153   0.92678
    Z6       -2.67490  -0.00002   0.00000   0.00027   0.00078  -2.67412
    X7        1.70858  -0.00002   0.00000   0.00134   0.00171   1.71029
    Y7       -1.28640   0.00009   0.00000   0.00070   0.00096  -1.28544
    Z7        1.01764  -0.00003   0.00000  -0.00124  -0.00170   1.01594
         Item               Value     Threshold  Converged?
 Maximum Force            0.000116     0.000450     YES
 RMS     Force            0.000041     0.000300     YES
 Maximum Displacement     0.001989     0.001800     NO 
 RMS     Displacement     0.001317     0.001200     NO 
 Predicted change in Energy=-2.427491D-07
 GradGradGradGradGradGradGradGradGradGradGradGradGradGradGradGradGradGrad

 Leave Link  103 at Thu Mar  7 10:49:26 2019, MaxMem=    33554432 cpu:         0.1
 (Enter /home/proyectos/fulerenos/M3C-v2.0/M3C-deps_CCC/g09-AM64L-G09RevC.01/l9999.exe)

 Test job not archived.
 1\1\GINC-BELVIS21\Freq\UB3LYP\6-311++G(3df,2p)\C2H4O1(1-,4)\ROOT\07-Ma
 r-2019\0\\#p b3lyp/6-311++G(3df,2p) freq IOp(2/17=3) IOp(2/18=3)\\b3ly
 p opt\\-1,4\C,0.079346,0.406787,0.349132\C,-1.182747,0.275096,-0.35343
 1\H,-2.074047,-0.127869,0.127097\H,0.671846,-1.381379,-0.0925\H,0.2587
 87,1.172069,1.090912\H,-1.276423,0.48962,-1.415495\O,0.904141,-0.68073
 4,0.538513\\Version=EM64L-G09RevE.01\State=4-A\HF=-153.7478738\S2=3.75
 5369\S2-1=0.\S2A=3.750012\RMSD=5.147e-09\RMSF=4.081e-05\ZeroPoint=0.05
 08344\Thermal=0.055222\Dipole=1.2083128,0.9426436,1.3348886\DipoleDeri
 v=-0.8339053,0.9200087,-0.3567586,0.7619407,-1.8376735,-0.679184,-0.34
 82641,0.1600079,0.004164,0.4163909,-0.5595956,0.7544148,-0.696126,0.61
 23545,0.6105473,0.5631681,0.6772245,-0.4331565,-0.3265667,0.085797,-0.
 2249645,0.1802134,-0.3785147,-0.2087901,-0.2629782,-0.3161422,-0.06227
 22,-0.6564936,0.0566645,0.1177569,1.2514532,-2.0247255,0.0417417,0.903
 5988,-0.8954001,-0.7210538,0.1712987,0.08096,0.2264282,0.021939,0.6937
 03,0.3694366,0.1871344,0.2811672,0.2674469,-0.4162824,0.2109742,-0.204
 5502,0.1135875,-0.5099557,-0.3013658,-0.2790073,-0.2172083,-0.2172298,
 0.6455585,-0.7948088,-0.3123266,-1.6330078,2.4448119,0.1676144,-0.7636
 518,0.310351,0.1621014\Polar=887.6550612,-134.7432357,1047.4207807,-12
 1.8671091,7.7923085,957.4861489\PG=C01 [X(C2H4O1)]\NImag=0\\0.38045623
 ,-0.05718030,0.45747754,0.20198136,0.17664469,0.31561741,-0.19514829,-
 0.02139064,-0.09719350,0.48713243,-0.02757341,-0.05129760,-0.02008853,
 0.10688938,0.12420929,-0.08135897,-0.00967525,-0.10546013,0.03276548,-
 0.10551712,0.51693523,-0.01993876,-0.01274270,0.00415515,-0.21582795,-
 0.08865148,0.09975509,0.23292366,-0.00453014,0.00097168,0.00203486,-0.
 08699486,-0.05352274,0.05440769,0.09496544,0.05277882,-0.01310678,-0.0
 0674299,0.00943883,0.09007676,0.05222842,-0.10161311,-0.09925933,-0.05
 545410,0.10132084,0.00281865,0.02545087,0.01719875,0.00078893,-0.00125
 552,0.00232013,-0.00012629,0.00056085,-0.00046036,0.05398120,-0.001633
 96,-0.03377432,-0.02049038,-0.00209333,0.00510469,0.00209766,0.0004515
 3,-0.00101188,-0.00118385,0.05845903,0.26513514,0.00422910,0.00582743,
 0.00532718,-0.00042162,0.00311564,-0.00010116,-0.00039017,-0.00083172,
 -0.00028313,0.08206112,0.20615320,0.20105064,-0.04281086,-0.03383978,-
 0.05243067,-0.00572403,-0.01272694,-0.01722567,0.00092751,-0.00056335,
 -0.00039406,-0.00149305,0.00326520,-0.00141649,0.05052763,-0.02520167,
 -0.16915173,-0.13994659,-0.00106561,0.00210388,-0.00225035,0.00108092,
 -0.00113956,-0.00016717,0.00431444,-0.00035588,0.00149141,0.02176486,0
 .19937325,-0.05572514,-0.16169429,-0.16761313,0.00037983,-0.00406327,-
 0.00656133,-0.00119251,0.00192291,0.00032280,-0.00111422,0.00123942,0.
 00163742,0.05400878,0.15892643,0.17077244,-0.00470170,0.00065345,-0.02
 311064,-0.04468850,-0.00364462,-0.02255787,0.00355827,-0.00418629,0.02
 243997,-0.00015369,0.00034221,0.00015365,-0.00182367,-0.00042001,-0.00
 130272,0.04860010,0.00254608,0.00612030,-0.00347244,-0.00726370,-0.025
 77060,0.05916694,0.00233514,-0.00153106,0.00884039,0.00027008,-0.00144
 022,-0.00078830,0.00016643,0.00037754,-0.00238105,0.00551562,0.0227970
 0,-0.00771810,-0.00069911,-0.00614928,-0.01449968,0.06229353,-0.304084
 50,-0.00418451,0.00092177,-0.00771108,-0.00008889,0.00051520,0.0009095
 3,0.00027669,0.00102867,-0.00157479,0.02599164,-0.06391294,0.32004787,
 -0.12067527,0.09904910,-0.05060044,-0.02653259,0.02696259,-0.01369820,
 -0.00151643,0.00074836,0.00070380,-0.05581575,-0.05879068,-0.08421558,
 0.00039648,-0.00047294,0.00494598,-0.00079080,-0.00356964,0.00022285,0
 .20493436,0.11357339,-0.21034587,0.00531839,0.01191877,-0.00082693,0.0
 0177043,0.00256115,0.00345475,0.00247930,-0.08779976,-0.23365751,-0.21
 496767,0.02193358,-0.03120749,0.00604985,0.00173964,-0.00055296,-0.000
 14711,-0.06392679,0.47313601,-0.04830147,-0.00366048,-0.05116089,-0.01
 110726,0.01203134,0.00088500,0.00111627,-0.00300142,-0.00147515,-0.099
 91652,-0.18833124,-0.20854048,0.01718141,-0.01908240,0.00301660,-0.001
 61402,0.00254739,-0.00143774,0.14264160,0.19949681,0.25871266\\-0.0000
 3356,0.00011577,-0.00005154,0.00000974,-0.00004164,-0.00004286,0.00000
 901,0.00000623,0.00003755,-0.00001352,0.00002436,-0.00001763,-0.000004
 14,-0.00003224,0.00001731,0.00000972,0.00001490,0.00002344,0.00002275,
 -0.00008738,0.00003372\\\@


 ALMOST ANYTHING IS EASIER TO GET INTO THAN OUT OF.

                         -- AGNES ALLEN'S LAW FROM
                PAUL DICKSON'S "THE OFFICIAL RULES"
 Job cpu time:       0 days  0 hours 18 minutes  9.0 seconds.
 File lengths (MBytes):  RWF=     32 Int=      0 D2E=      0 Chk=      3 Scr=      1
 Normal termination of Gaussian 09 at Thu Mar  7 10:49:26 2019.
