 Entering Gaussian System, Link 0=/home/proyectos/fulerenos/M3C-v2.0/M3C-deps_CCC/g09-AM64L-G09RevC.01/g09
 Initial command:
 /home/proyectos/fulerenos/M3C-v2.0/M3C-deps_CCC/g09-AM64L-G09RevC.01/l1.exe "/scratch/naguirre/gaussian/Gau-14204.inp" -scrdir="/scratch/naguirre/gaussian/"
 Entering Link 1 = /home/proyectos/fulerenos/M3C-v2.0/M3C-deps_CCC/g09-AM64L-G09RevC.01/l1.exe PID=     14206.
  
 Copyright (c) 1988,1990,1992,1993,1995,1998,2003,2009,2015,
            Gaussian, Inc.  All Rights Reserved.
  
 This is part of the Gaussian(R) 09 program.  It is based on
 the Gaussian(R) 03 system (copyright 2003, Gaussian, Inc.),
 the Gaussian(R) 98 system (copyright 1998, Gaussian, Inc.),
 the Gaussian(R) 94 system (copyright 1995, Gaussian, Inc.),
 the Gaussian 92(TM) system (copyright 1992, Gaussian, Inc.),
 the Gaussian 90(TM) system (copyright 1990, Gaussian, Inc.),
 the Gaussian 88(TM) system (copyright 1988, Gaussian, Inc.),
 the Gaussian 86(TM) system (copyright 1986, Carnegie Mellon
 University), and the Gaussian 82(TM) system (copyright 1983,
 Carnegie Mellon University). Gaussian is a federally registered
 trademark of Gaussian, Inc.
  
 This software contains proprietary and confidential information,
 including trade secrets, belonging to Gaussian, Inc.
  
 This software is provided under written license and may be
 used, copied, transmitted, or stored only in accord with that
 written license.
  
 The following legend is applicable only to US Government
 contracts under FAR:
  
                    RESTRICTED RIGHTS LEGEND
  
 Use, reproduction and disclosure by the US Government is
 subject to restrictions as set forth in subparagraphs (a)
 and (c) of the Commercial Computer Software - Restricted
 Rights clause in FAR 52.227-19.
  
 Gaussian, Inc.
 340 Quinnipiac St., Bldg. 40, Wallingford CT 06492
  
  
 ---------------------------------------------------------------
 Warning -- This program may not be used in any manner that
 competes with the business of Gaussian, Inc. or will provide
 assistance to any competitor of Gaussian, Inc.  The licensee
 of this program is prohibited from giving any competitor of
 Gaussian, Inc. access to this program.  By using this program,
 the user acknowledges that Gaussian, Inc. is engaged in the
 business of creating and licensing software in the field of
 computational chemistry and represents and warrants to the
 licensee that it is not a competitor of Gaussian, Inc. and that
 it will not use this program in any manner prohibited above.
 ---------------------------------------------------------------
  

 Cite this work as:
 Gaussian 09, Revision E.01,
 M. J. Frisch, G. W. Trucks, H. B. Schlegel, G. E. Scuseria, 
 M. A. Robb, J. R. Cheeseman, G. Scalmani, V. Barone, B. Mennucci, 
 G. A. Petersson, H. Nakatsuji, M. Caricato, X. Li, H. P. Hratchian, 
 A. F. Izmaylov, J. Bloino, G. Zheng, J. L. Sonnenberg, M. Hada, 
 M. Ehara, K. Toyota, R. Fukuda, J. Hasegawa, M. Ishida, T. Nakajima, 
 Y. Honda, O. Kitao, H. Nakai, T. Vreven, J. A. Montgomery, Jr., 
 J. E. Peralta, F. Ogliaro, M. Bearpark, J. J. Heyd, E. Brothers, 
 K. N. Kudin, V. N. Staroverov, T. Keith, R. Kobayashi, J. Normand, 
 K. Raghavachari, A. Rendell, J. C. Burant, S. S. Iyengar, J. Tomasi, 
 M. Cossi, N. Rega, J. M. Millam, M. Klene, J. E. Knox, J. B. Cross, 
 V. Bakken, C. Adamo, J. Jaramillo, R. Gomperts, R. E. Stratmann, 
 O. Yazyev, A. J. Austin, R. Cammi, C. Pomelli, J. W. Ochterski, 
 R. L. Martin, K. Morokuma, V. G. Zakrzewski, G. A. Voth, 
 P. Salvador, J. J. Dannenberg, S. Dapprich, A. D. Daniels, 
 O. Farkas, J. B. Foresman, J. V. Ortiz, J. Cioslowski, 
 and D. J. Fox, Gaussian, Inc., Wallingford CT, 2013.
 
 ******************************************
 Gaussian 09:  EM64L-G09RevE.01 30-Nov-2015
                 7-Mar-2019 
 ******************************************
 %NProcShared=4
 Will use up to    4 processors via shared memory.
 ------------------------------------------------------
 #p b3lyp/6-311++G(3df,2p) freq IOp(2/17=3) IOp(2/18=3)
 ------------------------------------------------------
 1/10=4,30=1,38=1/1,3;
 2/12=2,17=3,18=3,40=1/2;
 3/5=4,6=6,7=1216,11=2,16=1,25=1,30=1,71=2,74=-5,140=1/1,2,3;
 4//1;
 5/5=2,38=5,98=1/2;
 8/6=4,10=90,11=11/1;
 11/6=1,8=1,9=11,15=111,16=1/1,2,10;
 10/6=1/2;
 6/7=2,8=2,9=2,10=2,18=1,28=1/1;
 7/8=1,10=1,25=1/1,2,3,16;
 1/10=4,30=1/3;
 99//99;
 Leave Link    1 at Thu Mar  7 10:49:26 2019, MaxMem=           0 cpu:         0.3
 (Enter /home/proyectos/fulerenos/M3C-v2.0/M3C-deps_CCC/g09-AM64L-G09RevC.01/l101.exe)
 ---------
 b3lyp opt
 ---------
 Symbolic Z-matrix:
 Charge = -1 Multiplicity = 2
 C                    -0.25419   0.99756  -0.17987 
 C                     0.63905  -0.17551  -0.06342 
 C                    -0.50037  -0.45907  -0.59919 
 H                     2.0185   -1.45627   0.23393 
 H                    -0.05788   1.75956  -0.93944 
 H                    -0.74481   1.40043   0.71069 
 H                    -1.20232  -1.13605  -1.03789 
 O                     1.85004  -0.4945    0.37139 
 
 NAtoms=      8 NQM=        8 NQMF=       0 NMMI=      0 NMMIF=      0
                NMic=       0 NMicF=      0.
                    Isotopes and Nuclear Properties:
 (Nuclear quadrupole moments (NQMom) in fm**2, nuclear magnetic moments (NMagM)
  in nuclear magnetons)

  Atom         1           2           3           4           5           6           7           8
 IAtWgt=          12          12          12           1           1           1           1          16
 AtmWgt=  12.0000000  12.0000000  12.0000000   1.0078250   1.0078250   1.0078250   1.0078250  15.9949146
 NucSpn=           0           0           0           1           1           1           1           0
 AtZEff=   0.0000000   0.0000000   0.0000000   0.0000000   0.0000000   0.0000000   0.0000000   0.0000000
 NQMom=    0.0000000   0.0000000   0.0000000   0.0000000   0.0000000   0.0000000   0.0000000   0.0000000
 NMagM=    0.0000000   0.0000000   0.0000000   2.7928460   2.7928460   2.7928460   2.7928460   0.0000000
 AtZNuc=   6.0000000   6.0000000   6.0000000   1.0000000   1.0000000   1.0000000   1.0000000   8.0000000
 Leave Link  101 at Thu Mar  7 10:49:26 2019, MaxMem=    33554432 cpu:         0.2
 (Enter /home/proyectos/fulerenos/M3C-v2.0/M3C-deps_CCC/g09-AM64L-G09RevC.01/l103.exe)

 GradGradGradGradGradGradGradGradGradGradGradGradGradGradGradGradGradGrad
 Berny optimization.
 Initialization pass.
 Trust Radius=3.00D-01 FncErr=1.00D-07 GrdErr=1.00D-07
 Number of steps in this run=      2 maximum allowed number of steps=      2.
 GradGradGradGradGradGradGradGradGradGradGradGradGradGradGradGradGradGrad

 Leave Link  103 at Thu Mar  7 10:49:26 2019, MaxMem=    33554432 cpu:         0.1
 (Enter /home/proyectos/fulerenos/M3C-v2.0/M3C-deps_CCC/g09-AM64L-G09RevC.01/l202.exe)
                          Input orientation:                          
 ---------------------------------------------------------------------
 Center     Atomic      Atomic             Coordinates (Angstroms)
 Number     Number       Type             X           Y           Z
 ---------------------------------------------------------------------
      1          6           0       -0.254189    0.997561   -0.179870
      2          6           0        0.639049   -0.175511   -0.063418
      3          6           0       -0.500366   -0.459067   -0.599190
      4          1           0        2.018504   -1.456267    0.233930
      5          1           0       -0.057876    1.759564   -0.939435
      6          1           0       -0.744808    1.400431    0.710689
      7          1           0       -1.202319   -1.136048   -1.037889
      8          8           0        1.850042   -0.494498    0.371391
 ---------------------------------------------------------------------
                    Distance matrix (angstroms):
                    1          2          3          4          5
     1  C    0.000000
     2  C    1.479031   0.000000
     3  C    1.535642   1.290629   0.000000
     4  H    3.370109   1.905688   2.834291   0.000000
     5  H    1.093676   2.235537   2.287769   4.003712   0.000000
     6  H    1.093667   2.235597   2.287634   4.002988   1.823119
     7  H    2.487455   2.294093   1.069345   3.477609   3.115126
     8  O    2.637786   1.325638   2.543167   0.986040   3.230977
                    6          7          8
     6  H    0.000000
     7  H    3.114573   0.000000
     8  O    3.230964   3.422655   0.000000
 Stoichiometry    C3H4O(1-,2)
 Framework group  C1[X(C3H4O)]
 Deg. of freedom    18
 Full point group                 C1      NOp   1
 Largest Abelian subgroup         C1      NOp   1
 Largest concise Abelian subgroup C1      NOp   1
                         Standard orientation:                         
 ---------------------------------------------------------------------
 Center     Atomic      Atomic             Coordinates (Angstroms)
 Number     Number       Type             X           Y           Z
 ---------------------------------------------------------------------
      1          6           0        1.087197   -0.653057    0.000126
      2          6           0       -0.213772    0.050513   -0.000208
      3          6           0        0.795711    0.854668   -0.000162
      4          1           0       -2.029572    0.628889    0.001218
      5          1           0        1.443681   -1.141299   -0.911282
      6          1           0        1.443614   -1.140765    0.911836
      7          1           0        1.234007    1.830062    0.000343
      8          8           0       -1.513318   -0.211204   -0.000082
 ---------------------------------------------------------------------
 Rotational constants (GHZ):     22.3711028      7.1628605      5.6280540
 Leave Link  202 at Thu Mar  7 10:49:26 2019, MaxMem=    33554432 cpu:         0.0
 (Enter /home/proyectos/fulerenos/M3C-v2.0/M3C-deps_CCC/g09-AM64L-G09RevC.01/l301.exe)
 Standard basis: 6-311++G(3df,2p) (5D, 7F)
 Ernie: Thresh=  0.10000D-02 Tol=  0.10000D-05 Strict=F.
 There are   220 symmetry adapted cartesian basis functions of A   symmetry.
 There are   196 symmetry adapted basis functions of A   symmetry.
   196 basis functions,   280 primitive gaussians,   220 cartesian basis functions
    16 alpha electrons       15 beta electrons
       nuclear repulsion energy       108.8024386290 Hartrees.
 IExCor=  402 DFT=T Ex+Corr=B3LYP ExCW=0 ScaHFX=  0.200000
 ScaDFX=  0.800000  0.720000  1.000000  0.810000 ScalE2=  1.000000  1.000000
 IRadAn=      0 IRanWt=     -1 IRanGd=            0 ICorTp=0 IEmpDi=  4
 NAtoms=    8 NActive=    8 NUniq=    8 SFac= 1.00D+00 NAtFMM=   60 NAOKFM=F Big=F
 Integral buffers will be    131072 words long.
 Raffenetti 2 integral format.
 Two-electron integral symmetry is turned on.
 Leave Link  301 at Thu Mar  7 10:49:26 2019, MaxMem=    33554432 cpu:         0.2
 (Enter /home/proyectos/fulerenos/M3C-v2.0/M3C-deps_CCC/g09-AM64L-G09RevC.01/l302.exe)
 NPDir=0 NMtPBC=     1 NCelOv=     1 NCel=       1 NClECP=     1 NCelD=      1
         NCelK=      1 NCelE2=     1 NClLst=     1 CellRange=     0.0.
 One-electron integrals computed using PRISM.
 NBasis=   196 RedAO= T EigKep=  1.94D-05  NBF=   196
 NBsUse=   196 1.00D-06 EigRej= -1.00D+00 NBFU=   196
 Precomputing XC quadrature grid using
 IXCGrd= 4 IRadAn=           0 IRanWt=          -1 IRanGd=           0 AccXCQ= 0.00D+00.
 Generated NRdTot=       0 NPtTot=           0 NUsed=           0 NTot=          32
 NSgBfM=   220   220   220   220   220 MxSgAt=     8 MxSgA2=     8.
 Leave Link  302 at Thu Mar  7 10:49:26 2019, MaxMem=    33554432 cpu:         1.0
 (Enter /home/proyectos/fulerenos/M3C-v2.0/M3C-deps_CCC/g09-AM64L-G09RevC.01/l303.exe)
 DipDrv:  MaxL=1.
 Leave Link  303 at Thu Mar  7 10:49:26 2019, MaxMem=    33554432 cpu:         0.1
 (Enter /home/proyectos/fulerenos/M3C-v2.0/M3C-deps_CCC/g09-AM64L-G09RevC.01/l401.exe)
 ExpMin= 3.60D-02 ExpMax= 8.59D+03 ExpMxC= 1.30D+03 IAcc=3 IRadAn=         5 AccDes= 0.00D+00
 Harris functional with IExCor=  402 and IRadAn=       5 diagonalized for initial guess.
 HarFok:  IExCor=  402 AccDes= 0.00D+00 IRadAn=         5 IDoV= 1 UseB2=F ITyADJ=14
 ICtDFT=  3500011 ScaDFX=  1.000000  1.000000  1.000000  1.000000
 FoFCou: FMM=F IPFlag=           0 FMFlag=      100000 FMFlg1=           0
         NFxFlg=           0 DoJE=T BraDBF=F KetDBF=T FulRan=T
         wScrn=  0.000000 ICntrl=     500 IOpCl=  0 I1Cent=   200000004 NGrid=           0
         NMat0=    1 NMatS0=      1 NMatT0=    0 NMatD0=    1 NMtDS0=    0 NMtDT0=    0
 Petite list used in FoFCou.
 Harris En= -192.058338320335    
 JPrj=0 DoOrth=F DoCkMO=F.
 Initial guess <Sx>= 0.0000 <Sy>= 0.0000 <Sz>= 0.5000 <S**2>= 0.7500 S= 0.5000
 Leave Link  401 at Thu Mar  7 10:49:28 2019, MaxMem=    33554432 cpu:         8.0
 (Enter /home/proyectos/fulerenos/M3C-v2.0/M3C-deps_CCC/g09-AM64L-G09RevC.01/l502.exe)
 UHF open shell SCF:
 Using DIIS extrapolation, IDIIS=  1040.
 Integral symmetry usage will be decided dynamically.
 IVT=      166662 IEndB=      166662 NGot=    33554432 MDV=    33453031
 LenX=    33453031 LenY=    33404190
 Requested convergence on RMS density matrix=1.00D-08 within 128 cycles.
 Requested convergence on MAX density matrix=1.00D-06.
 Requested convergence on             energy=1.00D-06.
 No special actions if energy rises.
 Fock matrices will be formed incrementally for  20 cycles.

 Cycle   1  Pass 1  IDiag  1:
 FoFJK:  IHMeth= 1 ICntrl=       0 DoSepK=F KAlg= 0 I1Cent=   0 FoldK=F
 IRaf= 990000000 NMat=   1 IRICut=       1 DoRegI=T DoRafI=F ISym2E= 0.
 FoFCou: FMM=F IPFlag=           0 FMFlag=      100000 FMFlg1=           0
         NFxFlg=           0 DoJE=F BraDBF=F KetDBF=F FulRan=T
         wScrn=  0.000000 ICntrl=       0 IOpCl=  1 I1Cent=           0 NGrid=           0
         NMat0=    1 NMatS0=      1 NMatT0=    0 NMatD0=    1 NMtDS0=    0 NMtDT0=    0
 Symmetry not used in FoFCou.
 E= -191.499893178990    
 DIIS: error= 5.18D-02 at cycle   1 NSaved=   1.
 NSaved= 1 IEnMin= 1 EnMin= -191.499893178990     IErMin= 1 ErrMin= 5.18D-02
 ErrMax= 5.18D-02  0.00D+00 EMaxC= 1.00D-01 BMatC= 1.19D+00 BMatP= 1.19D+00
 IDIUse=3 WtCom= 4.82D-01 WtEn= 5.18D-01
 Coeff-Com:  0.100D+01
 Coeff-En:   0.100D+01
 Coeff:      0.100D+01
 Gap=    -0.192 Goal=   None    Shift=    0.000
 Gap=     0.270 Goal=   None    Shift=    0.000
 GapD=   -0.192 DampG=0.250 DampE=0.500 DampFc=0.2500 IDamp=-1.
 Damping current iteration by 2.50D-01
 RMSDP=2.98D+00 MaxDP=4.35D+02              OVMax= 9.95D-01

 Cycle   2  Pass 1  IDiag  1:
 RMSU=  7.44D-01    CP:  3.00D+00
 E= -191.555498803495     Delta-E=       -0.055605624506 Rises=F Damp=T
 DIIS: error= 1.38D-02 at cycle   2 NSaved=   2.
 NSaved= 2 IEnMin= 2 EnMin= -191.555498803495     IErMin= 2 ErrMin= 1.38D-02
 ErrMax= 1.38D-02  0.00D+00 EMaxC= 1.00D-01 BMatC= 1.06D-01 BMatP= 1.19D+00
 IDIUse=3 WtCom= 8.62D-01 WtEn= 1.38D-01
 Coeff-Com: -0.173D+00 0.117D+01
 Coeff-En:   0.382D+00 0.618D+00
 Coeff:     -0.963D-01 0.110D+01
 Gap=    -0.047 Goal=   None    Shift=    0.000
 Gap=     0.142 Goal=   None    Shift=    0.000
 RMSDP=7.45D-01 MaxDP=1.09D+02 DE=-5.56D-02 OVMax= 9.95D-01

 Cycle   3  Pass 1  IDiag  1:
 RMSU=  9.69D-03    CP:  9.88D-01  1.38D-05
 E= -191.753729437165     Delta-E=       -0.198230633670 Rises=F Damp=F
 DIIS: error= 1.84D-02 at cycle   3 NSaved=   3.
 NSaved= 3 IEnMin= 3 EnMin= -191.753729437165     IErMin= 2 ErrMin= 1.38D-02
 ErrMax= 1.84D-02  0.00D+00 EMaxC= 1.00D-01 BMatC= 2.35D-01 BMatP= 1.06D-01
 IDIUse=2 WtCom= 0.00D+00 WtEn= 1.00D+00
 Coeff-En:   0.000D+00 0.000D+00 0.100D+01
 Coeff:      0.000D+00 0.000D+00 0.100D+01
 Gap=    -0.142 Goal=   None    Shift=    0.000
 Gap=     0.019 Goal=   None    Shift=    0.000
 RMSDP=3.71D-01 MaxDP=5.25D+01 DE=-1.98D-01 OVMax= 9.98D-01

 Cycle   4  Pass 1  IDiag  1:
 RMSU=  3.57D-01    CP:  1.11D+00  1.36D-01  6.22D-01
 E= -191.591746641545     Delta-E=        0.161982795620 Rises=F Damp=F
 DIIS: error= 4.75D-02 at cycle   4 NSaved=   4.
 NSaved= 4 IEnMin= 3 EnMin= -191.753729437165     IErMin= 2 ErrMin= 1.38D-02
 ErrMax= 4.75D-02  0.00D+00 EMaxC= 1.00D-01 BMatC= 1.04D+00 BMatP= 1.06D-01
 IDIUse=2 WtCom= 0.00D+00 WtEn= 1.00D+00
 Coeff-En:   0.000D+00 0.000D+00 0.673D+00 0.327D+00
 Coeff:      0.000D+00 0.000D+00 0.673D+00 0.327D+00
 Gap=     0.016 Goal=   None    Shift=    0.000
 Gap=     0.141 Goal=   None    Shift=    0.000
 RMSDP=2.16D-01 MaxDP=2.01D+01 DE= 1.62D-01 OVMax= 2.32D-01

 Cycle   5  Pass 1  IDiag  1:
 RMSU=  1.62D-01    CP:  1.74D+00  3.24D-01  4.93D-01  9.31D-01
 E= -191.884865203435     Delta-E=       -0.293118561889 Rises=F Damp=F
 DIIS: error= 6.92D-03 at cycle   5 NSaved=   5.
 NSaved= 5 IEnMin= 5 EnMin= -191.884865203435     IErMin= 5 ErrMin= 6.92D-03
 ErrMax= 6.92D-03  0.00D+00 EMaxC= 1.00D-01 BMatC= 3.58D-02 BMatP= 1.06D-01
 IDIUse=3 WtCom= 9.31D-01 WtEn= 6.92D-02
 Coeff-Com: -0.425D-01 0.136D+00 0.210D+00-0.635D-01 0.759D+00
 Coeff-En:   0.000D+00 0.000D+00 0.000D+00 0.000D+00 0.100D+01
 Coeff:     -0.395D-01 0.127D+00 0.196D+00-0.591D-01 0.776D+00
 Gap=     0.025 Goal=   None    Shift=    0.000
 Gap=     0.179 Goal=   None    Shift=    0.000
 RMSDP=1.07D-01 MaxDP=1.25D+01 DE=-2.93D-01 OVMax= 1.42D-01

 Cycle   6  Pass 1  IDiag  1:
 RMSU=  4.41D-02    CP:  1.92D+00  3.84D-01  1.13D-01  6.95D-01  1.15D+00
 E= -191.896536979954     Delta-E=       -0.011671776520 Rises=F Damp=F
 DIIS: error= 1.94D-03 at cycle   6 NSaved=   6.
 NSaved= 6 IEnMin= 6 EnMin= -191.896536979954     IErMin= 6 ErrMin= 1.94D-03
 ErrMax= 1.94D-03  0.00D+00 EMaxC= 1.00D-01 BMatC= 2.75D-03 BMatP= 3.58D-02
 IDIUse=3 WtCom= 9.81D-01 WtEn= 1.94D-02
 Coeff-Com: -0.376D-01 0.826D-01 0.781D-01-0.509D-01 0.236D+00 0.692D+00
 Coeff-En:   0.000D+00 0.000D+00 0.000D+00 0.000D+00 0.000D+00 0.100D+01
 Coeff:     -0.369D-01 0.810D-01 0.766D-01-0.500D-01 0.231D+00 0.698D+00
 Gap=     0.030 Goal=   None    Shift=    0.000
 Gap=     0.185 Goal=   None    Shift=    0.000
 RMSDP=7.20D-02 MaxDP=6.76D+00 DE=-1.17D-02 OVMax= 2.78D-02

 Cycle   7  Pass 1  IDiag  1:
 RMSU=  7.04D-03    CP:  1.75D+00  3.19D-01 -1.68D-02  5.80D-01  9.56D-01
                    CP:  1.32D+00
 E= -191.897126631058     Delta-E=       -0.000589651103 Rises=F Damp=F
 DIIS: error= 1.04D-03 at cycle   7 NSaved=   7.
 NSaved= 7 IEnMin= 7 EnMin= -191.897126631058     IErMin= 7 ErrMin= 1.04D-03
 ErrMax= 1.04D-03  0.00D+00 EMaxC= 1.00D-01 BMatC= 7.06D-04 BMatP= 2.75D-03
 IDIUse=3 WtCom= 9.90D-01 WtEn= 1.04D-02
 Coeff-Com: -0.162D-01 0.294D-01 0.175D-01 0.569D-02-0.141D+00 0.302D+00
 Coeff-Com:  0.803D+00
 Coeff-En:   0.000D+00 0.000D+00 0.000D+00 0.000D+00 0.000D+00 0.000D+00
 Coeff-En:   0.100D+01
 Coeff:     -0.160D-01 0.291D-01 0.173D-01 0.563D-02-0.140D+00 0.299D+00
 Coeff:      0.805D+00
 Gap=     0.032 Goal=   None    Shift=    0.000
 Gap=     0.188 Goal=   None    Shift=    0.000
 RMSDP=4.35D-02 MaxDP=3.79D+00 DE=-5.90D-04 OVMax= 2.53D-02

 Cycle   8  Pass 1  IDiag  1:
 RMSU=  2.02D-03    CP:  1.66D+00  2.85D-01 -9.03D-02  5.00D-01  8.46D-01
                    CP:  1.50D+00  1.65D+00
 E= -191.897311926352     Delta-E=       -0.000185295295 Rises=F Damp=F
 DIIS: error= 5.45D-04 at cycle   8 NSaved=   8.
 NSaved= 8 IEnMin= 8 EnMin= -191.897311926352     IErMin= 8 ErrMin= 5.45D-04
 ErrMax= 5.45D-04  0.00D+00 EMaxC= 1.00D-01 BMatC= 1.46D-04 BMatP= 7.06D-04
 IDIUse=3 WtCom= 9.95D-01 WtEn= 5.45D-03
 Coeff-Com: -0.486D-02 0.846D-02 0.199D-02 0.906D-02-0.925D-01 0.232D-01
 Coeff-Com:  0.416D+00 0.638D+00
 Coeff-En:   0.000D+00 0.000D+00 0.000D+00 0.000D+00 0.000D+00 0.000D+00
 Coeff-En:   0.000D+00 0.100D+01
 Coeff:     -0.483D-02 0.841D-02 0.198D-02 0.901D-02-0.920D-01 0.231D-01
 Coeff:      0.414D+00 0.640D+00
 Gap=     0.032 Goal=   None    Shift=    0.000
 Gap=     0.189 Goal=   None    Shift=    0.000
 RMSDP=1.17D-02 MaxDP=1.31D+00 DE=-1.85D-04 OVMax= 1.89D-02

 Cycle   9  Pass 1  IDiag  1:
 RMSU=  1.39D-03    CP:  1.69D+00  2.94D-01 -1.24D-01  4.80D-01  8.60D-01
                    CP:  1.61D+00  1.65D+00  1.93D+00
 E= -191.897360263004     Delta-E=       -0.000048336652 Rises=F Damp=F
 DIIS: error= 3.59D-04 at cycle   9 NSaved=   9.
 NSaved= 9 IEnMin= 9 EnMin= -191.897360263004     IErMin= 9 ErrMin= 3.59D-04
 ErrMax= 3.59D-04  0.00D+00 EMaxC= 1.00D-01 BMatC= 5.86D-05 BMatP= 1.46D-04
 IDIUse=3 WtCom= 9.96D-01 WtEn= 3.59D-03
 Coeff-Com:  0.423D-03-0.583D-03-0.265D-02 0.617D-02-0.395D-01-0.356D-01
 Coeff-Com:  0.920D-01 0.419D+00 0.561D+00
 Coeff-En:   0.000D+00 0.000D+00 0.000D+00 0.000D+00 0.000D+00 0.000D+00
 Coeff-En:   0.000D+00 0.113D+00 0.887D+00
 Coeff:      0.421D-03-0.581D-03-0.264D-02 0.615D-02-0.394D-01-0.355D-01
 Coeff:      0.917D-01 0.417D+00 0.562D+00
 Gap=     0.032 Goal=   None    Shift=    0.000
 Gap=     0.189 Goal=   None    Shift=    0.000
 RMSDP=7.91D-03 MaxDP=7.39D-01 DE=-4.83D-05 OVMax= 9.09D-03

 Cycle  10  Pass 1  IDiag  1:
 RMSU=  6.05D-04    CP:  1.67D+00  2.89D-01 -1.34D-01  4.65D-01  8.40D-01
                    CP:  1.62D+00  1.81D+00  2.53D+00  8.32D-01
 E= -191.897381603153     Delta-E=       -0.000021340149 Rises=F Damp=F
 DIIS: error= 1.57D-04 at cycle  10 NSaved=  10.
 NSaved=10 IEnMin=10 EnMin= -191.897381603153     IErMin=10 ErrMin= 1.57D-04
 ErrMax= 1.57D-04  0.00D+00 EMaxC= 1.00D-01 BMatC= 1.28D-05 BMatP= 5.86D-05
 IDIUse=3 WtCom= 9.98D-01 WtEn= 1.57D-03
 Coeff-Com:  0.103D-02-0.794D-03-0.115D-02 0.109D-02 0.242D-02-0.228D-01
 Coeff-Com: -0.449D-01 0.102D+00 0.349D+00 0.614D+00
 Coeff-En:   0.000D+00 0.000D+00 0.000D+00 0.000D+00 0.000D+00 0.000D+00
 Coeff-En:   0.000D+00 0.000D+00 0.000D+00 0.100D+01
 Coeff:      0.103D-02-0.793D-03-0.114D-02 0.109D-02 0.242D-02-0.227D-01
 Coeff:     -0.448D-01 0.102D+00 0.349D+00 0.614D+00
 Gap=     0.033 Goal=   None    Shift=    0.000
 Gap=     0.189 Goal=   None    Shift=    0.000
 RMSDP=3.16D-03 MaxDP=4.24D-01 DE=-2.13D-05 OVMax= 5.86D-03

 Cycle  11  Pass 1  IDiag  1:
 RMSU=  4.32D-04    CP:  1.67D+00  2.90D-01 -1.39D-01  4.58D-01  8.40D-01
                    CP:  1.63D+00  1.90D+00  3.00D+00  7.53D-01  2.20D+00
 E= -191.897387236426     Delta-E=       -0.000005633273 Rises=F Damp=F
 DIIS: error= 5.62D-05 at cycle  11 NSaved=  11.
 NSaved=11 IEnMin=11 EnMin= -191.897387236426     IErMin=11 ErrMin= 5.62D-05
 ErrMax= 5.62D-05  0.00D+00 EMaxC= 1.00D-01 BMatC= 1.11D-06 BMatP= 1.28D-05
 IDIUse=1 WtCom= 1.00D+00 WtEn= 0.00D+00
 Coeff-Com:  0.190D-03 0.131D-04-0.342D-04-0.701D-03 0.699D-02-0.313D-02
 Coeff-Com: -0.278D-01-0.486D-01 0.252D-01 0.191D+00 0.857D+00
 Coeff:      0.190D-03 0.131D-04-0.342D-04-0.701D-03 0.699D-02-0.313D-02
 Coeff:     -0.278D-01-0.486D-01 0.252D-01 0.191D+00 0.857D+00
 Gap=     0.033 Goal=   None    Shift=    0.000
 Gap=     0.189 Goal=   None    Shift=    0.000
 RMSDP=3.54D-03 MaxDP=4.72D-01 DE=-5.63D-06 OVMax= 4.01D-03

 Cycle  12  Pass 1  IDiag  1:
 RMSU=  5.17D-04    CP:  1.68D+00  2.94D-01 -1.43D-01  4.55D-01  8.46D-01
                    CP:  1.64D+00  1.93D+00  3.00D+00  7.79D-01  3.00D+00
                    CP:  3.00D+00
 E= -191.897388962064     Delta-E=       -0.000001725638 Rises=F Damp=F
 DIIS: error= 2.25D-05 at cycle  12 NSaved=  12.
 NSaved=12 IEnMin=12 EnMin= -191.897388962064     IErMin=12 ErrMin= 2.25D-05
 ErrMax= 2.25D-05  0.00D+00 EMaxC= 1.00D-01 BMatC= 1.38D-07 BMatP= 1.11D-06
 IDIUse=1 WtCom= 1.00D+00 WtEn= 0.00D+00
 Coeff-Com: -0.295D-03 0.237D-03 0.506D-03-0.274D-03 0.240D-03 0.381D-02
 Coeff-Com:  0.667D-02-0.266D-01-0.601D-01-0.111D+00-0.573D-01 0.124D+01
 Coeff:     -0.295D-03 0.237D-03 0.506D-03-0.274D-03 0.240D-03 0.381D-02
 Coeff:      0.667D-02-0.266D-01-0.601D-01-0.111D+00-0.573D-01 0.124D+01
 Gap=     0.033 Goal=   None    Shift=    0.000
 Gap=     0.189 Goal=   None    Shift=    0.000
 RMSDP=3.36D-03 MaxDP=4.52D-01 DE=-1.73D-06 OVMax= 3.88D-03

 Cycle  13  Pass 1  IDiag  1:
 RMSU=  8.73D-04    CP:  1.69D+00  2.98D-01 -1.45D-01  4.52D-01  8.52D-01
                    CP:  1.65D+00  1.96D+00  3.00D+00  7.76D-01  3.00D+00
                    CP:  3.00D+00  2.88D+00
 E= -191.897389669430     Delta-E=       -0.000000707366 Rises=F Damp=F
 DIIS: error= 1.21D-05 at cycle  13 NSaved=  13.
 NSaved=13 IEnMin=13 EnMin= -191.897389669430     IErMin=13 ErrMin= 1.21D-05
 ErrMax= 1.21D-05  0.00D+00 EMaxC= 1.00D-01 BMatC= 2.80D-08 BMatP= 1.38D-07
 IDIUse=1 WtCom= 1.00D+00 WtEn= 0.00D+00
 Coeff-Com:  0.822D-04-0.121D-03-0.164D-03 0.122D-03-0.874D-03-0.141D-02
 Coeff-Com:  0.665D-03 0.120D-01 0.514D-02-0.160D-02-0.160D+00-0.155D+00
 Coeff-Com:  0.130D+01
 Coeff:      0.822D-04-0.121D-03-0.164D-03 0.122D-03-0.874D-03-0.141D-02
 Coeff:      0.665D-03 0.120D-01 0.514D-02-0.160D-02-0.160D+00-0.155D+00
 Coeff:      0.130D+01
 Gap=     0.033 Goal=   None    Shift=    0.000
 Gap=     0.189 Goal=   None    Shift=    0.000
 RMSDP=1.81D-03 MaxDP=2.39D-01 DE=-7.07D-07 OVMax= 1.96D-03

 Cycle  14  Pass 1  IDiag  1:
 RMSU=  4.36D-04    CP:  1.70D+00  3.00D-01 -1.47D-01  4.51D-01  8.56D-01
                    CP:  1.66D+00  1.98D+00  3.00D+00  7.92D-01  3.00D+00
                    CP:  3.00D+00  3.00D+00  1.50D+00
 E= -191.897389800228     Delta-E=       -0.000000130798 Rises=F Damp=F
 DIIS: error= 3.42D-06 at cycle  14 NSaved=  14.
 NSaved=14 IEnMin=14 EnMin= -191.897389800228     IErMin=14 ErrMin= 3.42D-06
 ErrMax= 3.42D-06  0.00D+00 EMaxC= 1.00D-01 BMatC= 3.84D-09 BMatP= 2.80D-08
 IDIUse=1 WtCom= 1.00D+00 WtEn= 0.00D+00
 Coeff-Com:  0.230D-04-0.541D-05-0.345D-04 0.478D-05 0.316D-03-0.332D-03
 Coeff-Com: -0.219D-03 0.366D-02 0.386D-02 0.105D-01 0.438D-01-0.136D+00
 Coeff-Com: -0.203D+00 0.128D+01
 Coeff:      0.230D-04-0.541D-05-0.345D-04 0.478D-05 0.316D-03-0.332D-03
 Coeff:     -0.219D-03 0.366D-02 0.386D-02 0.105D-01 0.438D-01-0.136D+00
 Coeff:     -0.203D+00 0.128D+01
 Gap=     0.033 Goal=   None    Shift=    0.000
 Gap=     0.189 Goal=   None    Shift=    0.000
 RMSDP=5.15D-04 MaxDP=6.36D-02 DE=-1.31D-07 OVMax= 5.15D-04

 Cycle  15  Pass 1  IDiag  1:
 RMSU=  2.25D-05    CP:  1.70D+00  3.00D-01 -1.47D-01  4.51D-01  8.57D-01
                    CP:  1.66D+00  1.98D+00  3.00D+00  7.95D-01  3.00D+00
                    CP:  3.00D+00  3.00D+00  1.64D+00  1.30D+00
 E= -191.897389810340     Delta-E=       -0.000000010113 Rises=F Damp=F
 DIIS: error= 5.79D-07 at cycle  15 NSaved=  15.
 NSaved=15 IEnMin=15 EnMin= -191.897389810340     IErMin=15 ErrMin= 5.79D-07
 ErrMax= 5.79D-07  0.00D+00 EMaxC= 1.00D-01 BMatC= 1.79D-10 BMatP= 3.84D-09
 IDIUse=1 WtCom= 1.00D+00 WtEn= 0.00D+00
 Coeff-Com: -0.578D-05 0.686D-05 0.688D-05-0.106D-04 0.140D-03-0.688D-04
 Coeff-Com: -0.188D-03-0.207D-03 0.546D-03 0.129D-02 0.148D-01 0.152D-02
 Coeff-Com: -0.135D+00 0.140D+00 0.977D+00
 Coeff:     -0.578D-05 0.686D-05 0.688D-05-0.106D-04 0.140D-03-0.688D-04
 Coeff:     -0.188D-03-0.207D-03 0.546D-03 0.129D-02 0.148D-01 0.152D-02
 Coeff:     -0.135D+00 0.140D+00 0.977D+00
 Gap=     0.033 Goal=   None    Shift=    0.000
 Gap=     0.189 Goal=   None    Shift=    0.000
 RMSDP=9.56D-05 MaxDP=1.14D-02 DE=-1.01D-08 OVMax= 1.20D-04

 Cycle  16  Pass 1  IDiag  1:
 RMSU=  2.95D-06    CP:  1.70D+00  3.00D-01 -1.47D-01  4.51D-01  8.57D-01
                    CP:  1.66D+00  1.98D+00  3.00D+00  7.98D-01  3.00D+00
                    CP:  3.00D+00  3.00D+00  1.66D+00  1.36D+00  1.36D+00
 E= -191.897389810914     Delta-E=       -0.000000000574 Rises=F Damp=F
 DIIS: error= 2.58D-07 at cycle  16 NSaved=  16.
 NSaved=16 IEnMin=16 EnMin= -191.897389810914     IErMin=16 ErrMin= 2.58D-07
 ErrMax= 2.58D-07  0.00D+00 EMaxC= 1.00D-01 BMatC= 1.50D-11 BMatP= 1.79D-10
 IDIUse=1 WtCom= 1.00D+00 WtEn= 0.00D+00
 Coeff-Com: -0.192D-06-0.129D-05 0.474D-06 0.100D-06-0.163D-04-0.113D-04
 Coeff-Com: -0.314D-05-0.104D-03-0.256D-03-0.429D-03-0.415D-02 0.836D-02
 Coeff-Com:  0.148D-01-0.729D-01-0.114D+00 0.117D+01
 Coeff:     -0.192D-06-0.129D-05 0.474D-06 0.100D-06-0.163D-04-0.113D-04
 Coeff:     -0.314D-05-0.104D-03-0.256D-03-0.429D-03-0.415D-02 0.836D-02
 Coeff:      0.148D-01-0.729D-01-0.114D+00 0.117D+01
 Gap=     0.033 Goal=   None    Shift=    0.000
 Gap=     0.189 Goal=   None    Shift=    0.000
 RMSDP=2.55D-05 MaxDP=2.74D-03 DE=-5.74D-10 OVMax= 4.34D-05

 Cycle  17  Pass 1  IDiag  1:
 RMSU=  4.53D-07    CP:  1.70D+00  3.00D-01 -1.47D-01  4.51D-01  8.57D-01
                    CP:  1.66D+00  1.98D+00  3.00D+00  8.00D-01  3.00D+00
                    CP:  3.00D+00  3.00D+00  1.67D+00  1.37D+00  1.50D+00
                    CP:  1.57D+00
 E= -191.897389810995     Delta-E=       -0.000000000081 Rises=F Damp=F
 DIIS: error= 6.92D-08 at cycle  17 NSaved=  17.
 NSaved=17 IEnMin=17 EnMin= -191.897389810995     IErMin=17 ErrMin= 6.92D-08
 ErrMax= 6.92D-08  0.00D+00 EMaxC= 1.00D-01 BMatC= 2.11D-12 BMatP= 1.50D-11
 IDIUse=1 WtCom= 1.00D+00 WtEn= 0.00D+00
 Coeff-Com:  0.654D-06-0.809D-06-0.996D-06 0.762D-06-0.143D-04 0.540D-05
 Coeff-Com:  0.293D-04 0.209D-04-0.923D-04-0.260D-03-0.209D-02 0.186D-02
 Coeff-Com:  0.139D-01-0.203D-01-0.112D+00 0.114D+00 0.100D+01
 Coeff:      0.654D-06-0.809D-06-0.996D-06 0.762D-06-0.143D-04 0.540D-05
 Coeff:      0.293D-04 0.209D-04-0.923D-04-0.260D-03-0.209D-02 0.186D-02
 Coeff:      0.139D-01-0.203D-01-0.112D+00 0.114D+00 0.100D+01
 Gap=     0.033 Goal=   None    Shift=    0.000
 Gap=     0.189 Goal=   None    Shift=    0.000
 RMSDP=7.43D-06 MaxDP=7.96D-04 DE=-8.05D-11 OVMax= 1.29D-05

 Cycle  18  Pass 1  IDiag  1:
 RMSU=  2.32D-07    CP:  1.70D+00  3.00D-01 -1.47D-01  4.51D-01  8.57D-01
                    CP:  1.66D+00  1.98D+00  3.00D+00  8.00D-01  3.00D+00
                    CP:  3.00D+00  3.00D+00  1.67D+00  1.38D+00  1.54D+00
                    CP:  1.76D+00  1.53D+00
 E= -191.897389810998     Delta-E=       -0.000000000003 Rises=F Damp=F
 DIIS: error= 4.82D-08 at cycle  18 NSaved=  18.
 NSaved=18 IEnMin=18 EnMin= -191.897389810998     IErMin=18 ErrMin= 4.82D-08
 ErrMax= 4.82D-08  0.00D+00 EMaxC= 1.00D-01 BMatC= 6.78D-13 BMatP= 2.11D-12
 IDIUse=1 WtCom= 1.00D+00 WtEn= 0.00D+00
 Coeff-Com:  0.150D-06 0.115D-06-0.479D-06-0.935D-08 0.191D-05 0.307D-05
 Coeff-Com:  0.966D-05 0.304D-04 0.394D-04 0.253D-04 0.236D-03-0.726D-03
 Coeff-Com: -0.142D-02 0.122D-01 0.633D-02-0.227D+00 0.247D+00 0.963D+00
 Coeff:      0.150D-06 0.115D-06-0.479D-06-0.935D-08 0.191D-05 0.307D-05
 Coeff:      0.966D-05 0.304D-04 0.394D-04 0.253D-04 0.236D-03-0.726D-03
 Coeff:     -0.142D-02 0.122D-01 0.633D-02-0.227D+00 0.247D+00 0.963D+00
 Gap=     0.033 Goal=   None    Shift=    0.000
 Gap=     0.189 Goal=   None    Shift=    0.000
 RMSDP=4.90D-06 MaxDP=6.03D-04 DE=-3.18D-12 OVMax= 6.76D-06

 Cycle  19  Pass 1  IDiag  1:
 RMSU=  3.32D-08    CP:  1.70D+00  3.00D-01 -1.47D-01  4.51D-01  8.57D-01
                    CP:  1.66D+00  1.98D+00  3.00D+00  8.00D-01  3.00D+00
                    CP:  3.00D+00  3.00D+00  1.67D+00  1.38D+00  1.55D+00
                    CP:  1.81D+00  1.79D+00  1.35D+00
 E= -191.897389810999     Delta-E=       -0.000000000001 Rises=F Damp=F
 DIIS: error= 2.50D-08 at cycle  19 NSaved=  19.
 NSaved=19 IEnMin=19 EnMin= -191.897389810999     IErMin=19 ErrMin= 2.50D-08
 ErrMax= 2.50D-08  0.00D+00 EMaxC= 1.00D-01 BMatC= 1.41D-13 BMatP= 6.78D-13
 IDIUse=1 WtCom= 1.00D+00 WtEn= 0.00D+00
 Coeff-Com: -0.147D-06 0.184D-06 0.715D-07-0.205D-06 0.422D-05-0.153D-05
 Coeff-Com: -0.598D-05 0.159D-05 0.337D-04 0.811D-04 0.347D-03-0.300D-03
 Coeff-Com: -0.351D-02 0.667D-02 0.236D-01-0.625D-01-0.150D+00 0.612D-01
 Coeff-Com:  0.112D+01
 Coeff:     -0.147D-06 0.184D-06 0.715D-07-0.205D-06 0.422D-05-0.153D-05
 Coeff:     -0.598D-05 0.159D-05 0.337D-04 0.811D-04 0.347D-03-0.300D-03
 Coeff:     -0.351D-02 0.667D-02 0.236D-01-0.625D-01-0.150D+00 0.612D-01
 Coeff:      0.112D+01
 Gap=     0.033 Goal=   None    Shift=    0.000
 Gap=     0.189 Goal=   None    Shift=    0.000
 RMSDP=3.77D-06 MaxDP=4.87D-04 DE=-1.14D-12 OVMax= 4.25D-06

 Cycle  20  Pass 1  IDiag  1:
 RMSU=  1.63D-08    CP:  1.70D+00  3.00D-01 -1.47D-01  4.51D-01  8.57D-01
                    CP:  1.66D+00  1.98D+00  3.00D+00  8.00D-01  3.00D+00
                    CP:  3.00D+00  3.00D+00  1.68D+00  1.39D+00  1.55D+00
                    CP:  1.82D+00  1.87D+00  1.71D+00  1.13D+00
 E= -191.897389811007     Delta-E=       -0.000000000008 Rises=F Damp=F
 DIIS: error= 4.47D-09 at cycle  20 NSaved=  20.
 NSaved=20 IEnMin=20 EnMin= -191.897389811007     IErMin=20 ErrMin= 4.47D-09
 ErrMax= 4.47D-09  0.00D+00 EMaxC= 1.00D-01 BMatC= 1.48D-14 BMatP= 1.41D-13
 IDIUse=1 WtCom= 1.00D+00 WtEn= 0.00D+00
 Coeff-Com: -0.296D-07-0.127D-08 0.404D-07-0.387D-07 0.224D-06-0.723D-06
 Coeff-Com: -0.209D-05-0.591D-05 0.518D-06 0.504D-05-0.167D-05 0.126D-03
 Coeff-Com: -0.133D-03-0.109D-02-0.845D-03 0.323D-01-0.219D-01-0.166D+00
 Coeff-Com: -0.879D-01 0.125D+01
 Coeff:     -0.296D-07-0.127D-08 0.404D-07-0.387D-07 0.224D-06-0.723D-06
 Coeff:     -0.209D-05-0.591D-05 0.518D-06 0.504D-05-0.167D-05 0.126D-03
 Coeff:     -0.133D-03-0.109D-02-0.845D-03 0.323D-01-0.219D-01-0.166D+00
 Coeff:     -0.879D-01 0.125D+01
 Gap=     0.033 Goal=   None    Shift=    0.000
 Gap=     0.189 Goal=   None    Shift=    0.000
 RMSDP=1.64D-06 MaxDP=2.21D-04 DE=-7.79D-12 OVMax= 1.56D-06

 Cycle  21  Pass 1  IDiag  1:
 Restarting incremental Fock formation.
 E= -191.897389811040     Delta-E=       -0.000000000034 Rises=F Damp=F
 DIIS: error= 1.61D-09 at cycle  21 NSaved=  20.
 NSaved=20 IEnMin=20 EnMin= -191.897389811040     IErMin=20 ErrMin= 1.61D-09
 ErrMax= 1.61D-09  0.00D+00 EMaxC= 1.00D-01 BMatC= 1.25D-15 BMatP= 1.48D-14
 IDIUse=1 WtCom= 1.00D+00 WtEn= 0.00D+00
 Large coefficients: NSaved= 20 BigCof=    0.00 CofMax=   10.00 Det=-5.33D-15
 Inversion failed.  Reducing to 19 matrices.
 Large coefficients: NSaved= 19 BigCof=    0.00 CofMax=   10.00 Det=-5.51D-15
 Inversion failed.  Reducing to 18 matrices.
 Large coefficients: NSaved= 18 BigCof=    0.00 CofMax=   10.00 Det=-3.92D-15
 Inversion failed.  Reducing to 17 matrices.
 Large coefficients: NSaved= 17 BigCof=    0.00 CofMax=   10.00 Det=-3.92D-15
 Inversion failed.  Reducing to 16 matrices.
 Large coefficients: NSaved= 16 BigCof=    0.00 CofMax=   10.00 Det=-3.92D-15
 Inversion failed.  Reducing to 15 matrices.
 Coeff-Com:  0.782D-07-0.116D-05-0.633D-06-0.737D-06 0.159D-04 0.145D-04
 Coeff-Com: -0.140D-03-0.353D-04 0.244D-03 0.495D-02 0.137D-02-0.247D-01
 Coeff-Com: -0.903D-01 0.165D+00 0.944D+00
 Coeff:      0.782D-07-0.116D-05-0.633D-06-0.737D-06 0.159D-04 0.145D-04
 Coeff:     -0.140D-03-0.353D-04 0.244D-03 0.495D-02 0.137D-02-0.247D-01
 Coeff:     -0.903D-01 0.165D+00 0.944D+00
 Gap=     0.033 Goal=   None    Shift=    0.000
 Gap=     0.189 Goal=   None    Shift=    0.000
 RMSDP=4.39D-07 MaxDP=6.00D-05 DE=-3.36D-11 OVMax= 3.95D-07

 Cycle  22  Pass 1  IDiag  1:
 RMSU=  3.04D-07    CP:  1.00D+00
 E= -191.897389811036     Delta-E=        0.000000000005 Rises=F Damp=F
 DIIS: error= 4.03D-10 at cycle  22 NSaved=  16.
 NSaved=16 IEnMin=15 EnMin= -191.897389811040     IErMin=16 ErrMin= 4.03D-10
 ErrMax= 4.03D-10  0.00D+00 EMaxC= 1.00D-01 BMatC= 1.00D-16 BMatP= 1.25D-15
 IDIUse=1 WtCom= 1.00D+00 WtEn= 0.00D+00
 Large coefficients: NSaved= 16 BigCof=    0.00 CofMax=   10.00 Det=-5.77D-16
 Inversion failed.  Reducing to 15 matrices.
 Coeff-Com:  0.232D-06-0.601D-06-0.132D-05-0.260D-05 0.105D-05 0.289D-04
 Coeff-Com: -0.798D-05-0.139D-03-0.118D-02 0.300D-02 0.101D-01-0.103D-01
 Coeff-Com: -0.821D-01 0.823D-01 0.998D+00
 Coeff:      0.232D-06-0.601D-06-0.132D-05-0.260D-05 0.105D-05 0.289D-04
 Coeff:     -0.798D-05-0.139D-03-0.118D-02 0.300D-02 0.101D-01-0.103D-01
 Coeff:     -0.821D-01 0.823D-01 0.998D+00
 Gap=     0.033 Goal=   None    Shift=    0.000
 Gap=     0.189 Goal=   None    Shift=    0.000
 RMSDP=8.01D-08 MaxDP=1.17D-05 DE= 4.66D-12 OVMax= 6.79D-08

 Cycle  23  Pass 1  IDiag  1:
 RMSU=  9.32D-09    CP:  1.00D+00  1.20D+00
 E= -191.897389811041     Delta-E=       -0.000000000005 Rises=F Damp=F
 DIIS: error= 1.58D-10 at cycle  23 NSaved=  16.
 NSaved=16 IEnMin=16 EnMin= -191.897389811041     IErMin=16 ErrMin= 1.58D-10
 ErrMax= 1.58D-10  0.00D+00 EMaxC= 1.00D-01 BMatC= 1.09D-17 BMatP= 1.00D-16
 IDIUse=1 WtCom= 1.00D+00 WtEn= 0.00D+00
 Large coefficients: NSaved= 16 BigCof=    0.00 CofMax=   10.00 Det=-4.21D-17
 Inversion failed.  Reducing to 15 matrices.
 Coeff-Com: -0.291D-06-0.343D-06 0.206D-06 0.750D-06 0.819D-05-0.825D-05
 Coeff-Com: -0.541D-04-0.532D-03 0.551D-03 0.358D-02 0.930D-03-0.221D-01
 Coeff-Com: -0.109D-01 0.219D+00 0.809D+00
 Coeff:     -0.291D-06-0.343D-06 0.206D-06 0.750D-06 0.819D-05-0.825D-05
 Coeff:     -0.541D-04-0.532D-03 0.551D-03 0.358D-02 0.930D-03-0.221D-01
 Coeff:     -0.109D-01 0.219D+00 0.809D+00
 Gap=     0.033 Goal=   None    Shift=    0.000
 Gap=     0.189 Goal=   None    Shift=    0.000
 RMSDP=6.56D-09 MaxDP=6.63D-07 DE=-5.34D-12 OVMax= 5.82D-09

 SCF Done:  E(UB3LYP) =  -191.897389811     A.U. after   23 cycles
            NFock= 23  Conv=0.66D-08     -V/T= 2.0040
 <Sx>= 0.0000 <Sy>= 0.0000 <Sz>= 0.5000 <S**2>= 0.7501 S= 0.5000
 <L.S>= 0.000000000000E+00
 KE= 1.911393370903D+02 PE=-6.700255992433D+02 EE= 1.781864337130D+02
 Annihilation of the first spin contaminant:
 S**2 before annihilation     0.7501,   after     0.7500
 Leave Link  502 at Thu Mar  7 10:52:03 2019, MaxMem=    33554432 cpu:       614.0
 (Enter /home/proyectos/fulerenos/M3C-v2.0/M3C-deps_CCC/g09-AM64L-G09RevC.01/l801.exe)
 DoSCS=F DFT=T ScalE2(SS,OS)=  1.000000  1.000000
 Range of M.O.s used for correlation:     1   196
 NBasis=   196 NAE=    16 NBE=    15 NFC=     0 NFV=     0
 NROrb=    196 NOA=    16 NOB=    15 NVA=   180 NVB=   181

 **** Warning!!: The largest alpha MO coefficient is  0.74889758D+02


 **** Warning!!: The smallest alpha delta epsilon is  0.32556595D-01


 **** Warning!!: The largest beta MO coefficient is  0.77186598D+02

 Leave Link  801 at Thu Mar  7 10:52:03 2019, MaxMem=    33554432 cpu:         0.1
 (Enter /home/proyectos/fulerenos/M3C-v2.0/M3C-deps_CCC/g09-AM64L-G09RevC.01/l1101.exe)
 Using compressed storage, NAtomX=     8.
 Will process      9 centers per pass.
 Leave Link 1101 at Thu Mar  7 10:52:04 2019, MaxMem=    33554432 cpu:         1.2
 (Enter /home/proyectos/fulerenos/M3C-v2.0/M3C-deps_CCC/g09-AM64L-G09RevC.01/l1102.exe)
 Symmetrizing basis deriv contribution to polar:
 IMax=3 JMax=2 DiffMx= 0.00D+00
 Leave Link 1102 at Thu Mar  7 10:52:04 2019, MaxMem=    33554432 cpu:         0.1
 (Enter /home/proyectos/fulerenos/M3C-v2.0/M3C-deps_CCC/g09-AM64L-G09RevC.01/l1110.exe)
 Forming Gx(P) for the SCF density, NAtomX=     8.
 Integral derivatives from FoFJK, PRISM(SPDF).
 Do as many integral derivatives as possible in FoFJK.
 G2DrvN: MDV=      33554264.
 G2DrvN: will do     9 centers at a time, making    1 passes.
 Calling FoFCou, ICntrl=  3107 FMM=F I1Cent=   0 AccDes= 0.00D+00.
 FoFJK:  IHMeth= 1 ICntrl=    3107 DoSepK=F KAlg= 0 I1Cent=   0 FoldK=F
 IRaf=         0 NMat=   1 IRICut=       1 DoRegI=T DoRafI=F ISym2E= 0.
 FoFCou: FMM=F IPFlag=           0 FMFlag=      100000 FMFlg1=           0
         NFxFlg=           0 DoJE=F BraDBF=F KetDBF=F FulRan=T
         wScrn=  0.000000 ICntrl=    3107 IOpCl=  1 I1Cent=           0 NGrid=           0
         NMat0=    1 NMatS0=      1 NMatT0=    0 NMatD0=    1 NMtDS0=    0 NMtDT0=    0
 Symmetry not used in FoFCou.
 End of G2Drv F.D. properties file   721 does not exist.
 End of G2Drv F.D. properties file   722 does not exist.
 End of G2Drv F.D. properties file   788 does not exist.
 Leave Link 1110 at Thu Mar  7 10:53:18 2019, MaxMem=    33554432 cpu:       299.0
 (Enter /home/proyectos/fulerenos/M3C-v2.0/M3C-deps_CCC/g09-AM64L-G09RevC.01/l1002.exe)
 Minotr:  UHF open shell wavefunction.
          IDoAtm=11111111
          Direct CPHF calculation.
          Differentiating once with respect to electric field.
                with respect to dipole field.
          Differentiating once with respect to nuclear coordinates.
          Requested convergence is 1.0D-08 RMS, and 1.0D-07 maximum.
          Secondary convergence is 1.0D-12 RMS, and 1.0D-12 maximum.
          NewPWx=T KeepS1=F KeepF1=F KeepIn=T MapXYZ=F SortEE=F KeepMc=T.
          MDV=      33553956 using IRadAn=       2.
 Generate precomputed XC quadrature information.
          Solving linear equations simultaneously, MaxMat=       0.
 FoFJK:  IHMeth= 1 ICntrl=       0 DoSepK=F KAlg= 0 I1Cent=   0 FoldK=F
 IRaf= 990000000 NMat=  27 IRICut=      67 DoRegI=T DoRafI=T ISym2E= 2.
 FoFCou: FMM=F IPFlag=           0 FMFlag=      100000 FMFlg1=           0
         NFxFlg=           0 DoJE=F BraDBF=F KetDBF=F FulRan=T
         wScrn=  0.000000 ICntrl=       0 IOpCl=  1 I1Cent=           0 NGrid=           0
         NMat0=   27 NMatS0=     27 NMatT0=    0 NMatD0=   27 NMtDS0=    0 NMtDT0=    0
 Integrals replicated using symmetry in FoFCou.
          There are    27 degrees of freedom in the 1st order CPHF.  IDoFFX=6 NUNeed=     3.
     24 vectors produced by pass  0 Test12= 2.07D-14 3.70D-09 XBig12= 2.11D+04 1.44D+02.
 AX will form    24 AO Fock derivatives at one time.
     24 vectors produced by pass  1 Test12= 2.07D-14 3.70D-09 XBig12= 1.11D+03 9.77D+00.
     24 vectors produced by pass  2 Test12= 2.07D-14 3.70D-09 XBig12= 1.55D+01 1.25D+00.
     24 vectors produced by pass  3 Test12= 2.07D-14 3.70D-09 XBig12= 2.01D-01 1.49D-01.
     24 vectors produced by pass  4 Test12= 2.07D-14 3.70D-09 XBig12= 1.89D-03 9.82D-03.
     24 vectors produced by pass  5 Test12= 2.07D-14 3.70D-09 XBig12= 1.36D-05 6.53D-04.
     24 vectors produced by pass  6 Test12= 2.07D-14 3.70D-09 XBig12= 1.31D-07 5.24D-05.
     12 vectors produced by pass  7 Test12= 2.07D-14 3.70D-09 XBig12= 5.79D-10 3.65D-06.
      4 vectors produced by pass  8 Test12= 2.07D-14 3.70D-09 XBig12= 3.09D-12 2.79D-07.
      3 vectors produced by pass  9 Test12= 2.07D-14 3.70D-09 XBig12= 9.76D-14 7.83D-08.
      2 vectors produced by pass 10 Test12= 2.07D-14 3.70D-09 XBig12= 4.44D-15 1.62D-08.
      1 vectors produced by pass 11 Test12= 2.07D-14 3.70D-09 XBig12= 3.95D-16 8.55D-09.
 InvSVY:  IOpt=1 It=  1 EMax= 4.97D-14
 Solved reduced A of dimension   190 with    27 vectors.
 FullF1:  Do perturbations    1 to     3.
 Isotropic polarizability for W=    0.000000      966.33 Bohr**3.
 End of Minotr F.D. properties file   721 does not exist.
 End of Minotr F.D. properties file   722 does not exist.
 End of Minotr F.D. properties file   788 does not exist.
 Leave Link 1002 at Thu Mar  7 10:57:09 2019, MaxMem=    33554432 cpu:       921.0
 (Enter /home/proyectos/fulerenos/M3C-v2.0/M3C-deps_CCC/g09-AM64L-G09RevC.01/l601.exe)
 Copying SCF densities to generalized density rwf, IOpCl= 1 IROHF=0.

 **********************************************************************

            Population analysis using the SCF density.

 **********************************************************************

 Orbital symmetries:
 Alpha Orbitals:
       Occupied  (A) (A) (A) (A) (A) (A) (A) (A) (A) (A) (A) (A)
                 (A) (A) (A) (A)
       Virtual   (A) (A) (A) (A) (A) (A) (A) (A) (A) (A) (A) (A)
                 (A) (A) (A) (A) (A) (A) (A) (A) (A) (A) (A) (A)
                 (A) (A) (A) (A) (A) (A) (A) (A) (A) (A) (A) (A)
                 (A) (A) (A) (A) (A) (A) (A) (A) (A) (A) (A) (A)
                 (A) (A) (A) (A) (A) (A) (A) (A) (A) (A) (A) (A)
                 (A) (A) (A) (A) (A) (A) (A) (A) (A) (A) (A) (A)
                 (A) (A) (A) (A) (A) (A) (A) (A) (A) (A) (A) (A)
                 (A) (A) (A) (A) (A) (A) (A) (A) (A) (A) (A) (A)
                 (A) (A) (A) (A) (A) (A) (A) (A) (A) (A) (A) (A)
                 (A) (A) (A) (A) (A) (A) (A) (A) (A) (A) (A) (A)
                 (A) (A) (A) (A) (A) (A) (A) (A) (A) (A) (A) (A)
                 (A) (A) (A) (A) (A) (A) (A) (A) (A) (A) (A) (A)
                 (A) (A) (A) (A) (A) (A) (A) (A) (A) (A) (A) (A)
                 (A) (A) (A) (A) (A) (A) (A) (A) (A) (A) (A) (A)
                 (A) (A) (A) (A) (A) (A) (A) (A) (A) (A) (A) (A)
 Beta  Orbitals:
       Occupied  (A) (A) (A) (A) (A) (A) (A) (A) (A) (A) (A) (A)
                 (A) (A) (A)
       Virtual   (A) (A) (A) (A) (A) (A) (A) (A) (A) (A) (A) (A)
                 (A) (A) (A) (A) (A) (A) (A) (A) (A) (A) (A) (A)
                 (A) (A) (A) (A) (A) (A) (A) (A) (A) (A) (A) (A)
                 (A) (A) (A) (A) (A) (A) (A) (A) (A) (A) (A) (A)
                 (A) (A) (A) (A) (A) (A) (A) (A) (A) (A) (A) (A)
                 (A) (A) (A) (A) (A) (A) (A) (A) (A) (A) (A) (A)
                 (A) (A) (A) (A) (A) (A) (A) (A) (A) (A) (A) (A)
                 (A) (A) (A) (A) (A) (A) (A) (A) (A) (A) (A) (A)
                 (A) (A) (A) (A) (A) (A) (A) (A) (A) (A) (A) (A)
                 (A) (A) (A) (A) (A) (A) (A) (A) (A) (A) (A) (A)
                 (A) (A) (A) (A) (A) (A) (A) (A) (A) (A) (A) (A)
                 (A) (A) (A) (A) (A) (A) (A) (A) (A) (A) (A) (A)
                 (A) (A) (A) (A) (A) (A) (A) (A) (A) (A) (A) (A)
                 (A) (A) (A) (A) (A) (A) (A) (A) (A) (A) (A) (A)
                 (A) (A) (A) (A) (A) (A) (A) (A) (A) (A) (A) (A)
                 (A)
 The electronic state is 2-A.
 Alpha  occ. eigenvalues --  -19.03216 -10.10496 -10.05351 -10.03510  -0.93764
 Alpha  occ. eigenvalues --   -0.73499  -0.47447  -0.47186  -0.39125  -0.32286
 Alpha  occ. eigenvalues --   -0.32015  -0.24769  -0.20185  -0.17678  -0.09725
 Alpha  occ. eigenvalues --    0.06061
 Alpha virt. eigenvalues --    0.09317   0.09825   0.11241   0.15403   0.15703
 Alpha virt. eigenvalues --    0.17073   0.17675   0.18867   0.19392   0.20999
 Alpha virt. eigenvalues --    0.22234   0.22686   0.23588   0.24939   0.24971
 Alpha virt. eigenvalues --    0.26438   0.27978   0.31669   0.32202   0.32547
 Alpha virt. eigenvalues --    0.34455   0.36544   0.37759   0.39298   0.40259
 Alpha virt. eigenvalues --    0.41507   0.45736   0.48418   0.48742   0.51578
 Alpha virt. eigenvalues --    0.52569   0.54628   0.56995   0.57438   0.60485
 Alpha virt. eigenvalues --    0.62371   0.64723   0.66669   0.67849   0.68994
 Alpha virt. eigenvalues --    0.69217   0.71723   0.74440   0.75372   0.78939
 Alpha virt. eigenvalues --    0.81742   0.82147   0.82813   0.88268   0.90828
 Alpha virt. eigenvalues --    0.92726   0.96468   0.99104   1.01306   1.05631
 Alpha virt. eigenvalues --    1.07698   1.11997   1.14321   1.15734   1.19109
 Alpha virt. eigenvalues --    1.25261   1.26011   1.26755   1.29354   1.31086
 Alpha virt. eigenvalues --    1.32566   1.35554   1.36940   1.38836   1.39528
 Alpha virt. eigenvalues --    1.45209   1.46301   1.52992   1.53962   1.55828
 Alpha virt. eigenvalues --    1.58957   1.60847   1.62372   1.70308   1.72629
 Alpha virt. eigenvalues --    1.74253   1.78404   1.82302   1.88784   2.06238
 Alpha virt. eigenvalues --    2.07358   2.16180   2.20438   2.27926   2.30412
 Alpha virt. eigenvalues --    2.37746   2.39616   2.49450   2.58323   2.71276
 Alpha virt. eigenvalues --    2.79356   2.82500   2.86476   2.89788   2.95378
 Alpha virt. eigenvalues --    2.96522   2.98508   3.02791   3.04736   3.07213
 Alpha virt. eigenvalues --    3.11501   3.13062   3.19496   3.22298   3.27022
 Alpha virt. eigenvalues --    3.32896   3.35890   3.43550   3.45449   3.51134
 Alpha virt. eigenvalues --    3.52974   3.55950   3.60342   3.62034   3.70526
 Alpha virt. eigenvalues --    3.76408   3.86193   3.86241   3.97362   4.03007
 Alpha virt. eigenvalues --    4.09056   4.09714   4.10985   4.21240   4.31113
 Alpha virt. eigenvalues --    4.41584   4.42793   4.44896   4.52637   4.56408
 Alpha virt. eigenvalues --    4.66523   4.67869   4.83305   4.97211   4.98378
 Alpha virt. eigenvalues --    5.09873   5.14454   5.40117   5.41604   5.43738
 Alpha virt. eigenvalues --    5.52509   5.62668   5.72407   5.73094   5.75087
 Alpha virt. eigenvalues --    5.81638   6.34431   6.39356   6.55709   7.07941
 Alpha virt. eigenvalues --    7.16819   7.20035   7.23196   7.33260   7.43084
 Alpha virt. eigenvalues --    7.44035   7.45736   7.65645   7.70525   7.87262
 Alpha virt. eigenvalues --    8.00499   8.05089   8.23093   8.27313   8.62662
 Alpha virt. eigenvalues --    8.77713  14.48323  14.60540  14.67158  15.02157
 Alpha virt. eigenvalues --   15.27045  24.33445  24.85749  26.32737  50.36735
  Beta  occ. eigenvalues --  -19.03095 -10.10491 -10.05318 -10.03481  -0.93522
  Beta  occ. eigenvalues --   -0.73458  -0.47284  -0.46995  -0.39016  -0.32237
  Beta  occ. eigenvalues --   -0.31918  -0.24669  -0.20107  -0.17560  -0.09679
  Beta virt. eigenvalues --    0.09193   0.10769   0.11471   0.11792   0.15398
  Beta virt. eigenvalues --    0.15810   0.17427   0.18040   0.19322   0.20342
  Beta virt. eigenvalues --    0.21362   0.22381   0.22727   0.24027   0.24988
  Beta virt. eigenvalues --    0.25262   0.26574   0.28397   0.32087   0.32647
  Beta virt. eigenvalues --    0.32663   0.34707   0.36512   0.37972   0.39362
  Beta virt. eigenvalues --    0.40348   0.41637   0.46114   0.48530   0.48777
  Beta virt. eigenvalues --    0.51770   0.52723   0.54847   0.57048   0.57529
  Beta virt. eigenvalues --    0.60544   0.63050   0.64886   0.66671   0.67851
  Beta virt. eigenvalues --    0.68981   0.69340   0.71772   0.74525   0.75483
  Beta virt. eigenvalues --    0.78943   0.81810   0.82210   0.82867   0.88285
  Beta virt. eigenvalues --    0.90913   0.92768   0.96546   0.99154   1.01476
  Beta virt. eigenvalues --    1.05766   1.07717   1.12007   1.14397   1.15766
  Beta virt. eigenvalues --    1.19167   1.25301   1.26065   1.26720   1.29359
  Beta virt. eigenvalues --    1.31121   1.32675   1.35615   1.37067   1.38858
  Beta virt. eigenvalues --    1.39598   1.45403   1.46371   1.53363   1.53934
  Beta virt. eigenvalues --    1.55954   1.59020   1.60982   1.62409   1.70551
  Beta virt. eigenvalues --    1.72659   1.74459   1.78415   1.82356   1.88882
  Beta virt. eigenvalues --    2.06291   2.07413   2.16244   2.20477   2.27972
  Beta virt. eigenvalues --    2.30492   2.37794   2.39639   2.49517   2.58409
  Beta virt. eigenvalues --    2.71300   2.79408   2.82516   2.86567   2.89861
  Beta virt. eigenvalues --    2.95529   2.96546   2.98528   3.02827   3.04780
  Beta virt. eigenvalues --    3.07250   3.11542   3.13098   3.19542   3.22333
  Beta virt. eigenvalues --    3.27074   3.32953   3.35987   3.43672   3.45529
  Beta virt. eigenvalues --    3.51269   3.53024   3.56171   3.60412   3.62182
  Beta virt. eigenvalues --    3.70553   3.76507   3.86264   3.86323   3.97421
  Beta virt. eigenvalues --    4.03075   4.09081   4.09828   4.11117   4.21306
  Beta virt. eigenvalues --    4.31169   4.41613   4.42842   4.45006   4.52735
  Beta virt. eigenvalues --    4.56474   4.66603   4.67893   4.83396   4.97451
  Beta virt. eigenvalues --    4.98421   5.09881   5.14504   5.40199   5.41712
  Beta virt. eigenvalues --    5.43862   5.52613   5.62716   5.72506   5.73167
  Beta virt. eigenvalues --    5.75159   5.81767   6.34484   6.39418   6.55809
  Beta virt. eigenvalues --    7.08299   7.16884   7.20109   7.23226   7.33312
  Beta virt. eigenvalues --    7.43125   7.44076   7.45779   7.65738   7.70561
  Beta virt. eigenvalues --    7.87301   8.00572   8.05143   8.23129   8.27348
  Beta virt. eigenvalues --    8.62712   8.77771  14.48566  14.60766  14.67297
  Beta virt. eigenvalues --   15.02396  15.27247  24.33474  24.85780  26.32758
  Beta virt. eigenvalues --   50.36871
          Condensed to atoms (all electrons):
               1          2          3          4          5          6
     1  C   26.728465  16.647469 -18.500417  -4.383946  -1.374152  -1.370224
     2  C   16.647469  30.994101 -19.438448  -8.406822  -1.412837  -1.408551
     3  C  -18.500417 -19.438448  27.176369   5.842866   1.533919   1.529354
     4  H   -4.383946  -8.406822   5.842866   4.676205   0.334848   0.334294
     5  H   -1.374152  -1.412837   1.533919   0.334848   0.942357   0.042951
     6  H   -1.370224  -1.408551   1.529354   0.334294   0.042951   0.941287
     7  H  -10.608790 -12.045096   7.227051   3.061436   0.867716   0.865868
     8  O   -2.105000  -1.829048   1.988790   0.672333   0.148426   0.148042
               7          8
     1  C  -10.608790  -2.105000
     2  C  -12.045096  -1.829048
     3  C    7.227051   1.988790
     4  H    3.061436   0.672333
     5  H    0.867716   0.148426
     6  H    0.865868   0.148042
     7  H   12.394167   0.797505
     8  O    0.797505   8.827977
          Atomic-Atomic Spin Densities.
               1          2          3          4          5          6
     1  C   20.823341  16.821761 -18.359258  -4.415465  -1.836188  -1.831353
     2  C   16.821761  23.725981 -18.218534  -8.368422  -1.344688  -1.341764
     3  C  -18.359258 -18.218534  19.951415   5.903422   1.596493   1.592325
     4  H   -4.415465  -8.368422   5.903422   4.207653   0.335318   0.334724
     5  H   -1.836188  -1.344688   1.596493   0.335318   0.221719   0.181903
     6  H   -1.831353  -1.341764   1.592325   0.334724   0.181903   0.220632
     7  H  -10.550696 -12.033689   6.870783   3.056557   0.868307   0.866533
     8  O   -2.021076  -1.856384   2.037899   0.386171   0.143838   0.143455
               7          8
     1  C  -10.550696  -2.021076
     2  C  -12.033689  -1.856384
     3  C    6.870783   2.037899
     4  H    3.056557   0.386171
     5  H    0.868307   0.143838
     6  H    0.866533   0.143455
     7  H   11.904529   0.805876
     8  O    0.805876   0.409033
 Mulliken charges and spin densities:
               1          2
     1  C    0.966596  -1.368935
     2  C    2.899232  -2.615738
     3  C   -1.359484   1.374545
     4  H   -1.131214   1.439958
     5  H   -0.083227   0.166702
     6  H   -0.083020   0.166457
     7  H   -1.559858   1.788200
     8  O   -0.649025   0.048811
 Sum of Mulliken charges =  -1.00000   1.00000
 Mulliken charges and spin densities with hydrogens summed into heavy atoms:
               1          2
     1  C    0.800349  -1.035776
     2  C    2.899232  -2.615738
     3  C   -2.919342   3.162745
     8  O   -1.780239   1.488770
 APT charges:
               1
     1  C    0.261443
     2  C   -1.273053
     3  C    0.254379
     4  H   -0.892656
     5  H   -0.088360
     6  H   -0.088543
     7  H   -0.271117
     8  O    1.097907
 Sum of APT charges =  -1.00000
 APT charges with hydrogens summed into heavy atoms:
               1
     1  C    0.084540
     2  C   -1.273053
     3  C   -0.016738
     8  O    0.205251
 Electronic spatial extent (au):  <R**2>=            312.6300
 Charge=             -1.0000 electrons
 Dipole moment (field-independent basis, Debye):
    X=              4.0580    Y=             -5.1580    Z=             -0.0080  Tot=              6.5629
 Quadrupole moment (field-independent basis, Debye-Ang):
   XX=            -62.9032   YY=            -53.2886   ZZ=            -41.9525
   XY=              2.8687   XZ=              0.0106   YZ=             -0.0129
 Traceless Quadrupole moment (field-independent basis, Debye-Ang):
   XX=            -10.1884   YY=             -0.5738   ZZ=             10.7623
   XY=              2.8687   XZ=              0.0106   YZ=             -0.0129
 Octapole moment (field-independent basis, Debye-Ang**2):
  XXX=             63.7734  YYY=            -88.9291  ZZZ=             -0.0823  XYY=              2.3683
  XXY=            -40.7812  XXZ=             -0.0696  XZZ=              4.9044  YZZ=            -21.4787
  YYZ=             -0.0518  XYZ=              0.0088
 Hexadecapole moment (field-independent basis, Debye-Ang**3):
 XXXX=           -846.0758 YYYY=           -555.9754 ZZZZ=           -192.0280 XXXY=             62.9939
 XXXZ=              0.1676 YYYX=             -1.9755 YYYZ=             -0.1539 ZZZX=              0.0870
 ZZZY=             -0.1082 XXYY=           -239.2103 XXZZ=           -154.8456 YYZZ=           -113.1166
 XXYZ=             -0.0830 YYXZ=              0.0270 ZZXY=              6.8865
 N-N= 1.088024386290D+02 E-N=-6.700255992527D+02  KE= 1.911393370903D+02
  Exact polarizability:1314.729 125.7231112.567  -0.205  -0.169 471.691
 Approx polarizability:1463.997 171.280 617.556  -0.188  -0.058 302.923
                          Isotropic Fermi Contact Couplings
        Atom                 a.u.       MegaHertz       Gauss      10(-4) cm-1
     1  C(13)              0.01668      18.75472       6.69215       6.25590
     2  C(13)              0.00132       1.47922       0.52782       0.49342
     3  C(13)              0.02801      31.48334      11.23404      10.50171
     4  H(1)               0.00182       8.11976       2.89733       2.70846
     5  H(1)              -0.00021      -0.93595      -0.33397      -0.31220
     6  H(1)              -0.00021      -0.93704      -0.33436      -0.31256
     7  H(1)               0.00116       5.18986       1.85187       1.73115
     8  O(17)              0.15430     -93.53771     -33.37658     -31.20082
 --------------------------------------------------------
       Center         ----  Spin Dipole Couplings  ----
                      3XX-RR        3YY-RR        3ZZ-RR
 --------------------------------------------------------
     1   Atom       -0.002825      0.011697     -0.008872
     2   Atom        0.002654      0.000396     -0.003050
     3   Atom       -0.001338      0.007610     -0.006272
     4   Atom       -0.000101      0.009684     -0.009583
     5   Atom        0.000182     -0.001796      0.001613
     6   Atom        0.000183     -0.001796      0.001613
     7   Atom        0.000433      0.002948     -0.003381
     8   Atom       -0.017917      0.047164     -0.029247
 --------------------------------------------------------
                        XY            XZ            YZ
 --------------------------------------------------------
     1   Atom        0.010106     -0.000009     -0.000012
     2   Atom        0.003596      0.000017      0.000025
     3   Atom        0.000281      0.000000     -0.000023
     4   Atom       -0.014244     -0.000025      0.000037
     5   Atom       -0.000666     -0.002636      0.000049
     6   Atom       -0.000665      0.002638     -0.000045
     7   Atom        0.003534      0.000004      0.000012
     8   Atom       -0.032080     -0.000008      0.000052
 --------------------------------------------------------


 ---------------------------------------------------------------------------------
              Anisotropic Spin Dipole Couplings in Principal Axis System
 ---------------------------------------------------------------------------------

       Atom             a.u.   MegaHertz   Gauss  10(-4) cm-1        Axes

              Baa    -0.0089    -1.191    -0.425    -0.397  0.0032 -0.0010  1.0000
     1 C(13)  Bbb    -0.0080    -1.075    -0.383    -0.358  0.8898 -0.4563 -0.0033
              Bcc     0.0169     2.265     0.808     0.756  0.4563  0.8898 -0.0006
 
              Baa    -0.0031    -0.409    -0.146    -0.137  0.0049 -0.0125  0.9999
     2 C(13)  Bbb    -0.0022    -0.301    -0.107    -0.100 -0.5918  0.8060  0.0129
              Bcc     0.0053     0.710     0.254     0.237  0.8061  0.5918  0.0034
 
              Baa    -0.0063    -0.842    -0.300    -0.281 -0.0001  0.0017  1.0000
     3 C(13)  Bbb    -0.0013    -0.181    -0.064    -0.060  0.9995 -0.0313  0.0002
              Bcc     0.0076     1.022     0.365     0.341  0.0313  0.9995 -0.0017
 
              Baa    -0.0103    -5.479    -1.955    -1.828  0.8139  0.5810 -0.0007
     4 H(1)   Bbb    -0.0096    -5.113    -1.824    -1.706  0.0015 -0.0008  1.0000
              Bcc     0.0199    10.592     3.780     3.533 -0.5810  0.8139  0.0015
 
              Baa    -0.0023    -1.243    -0.444    -0.415  0.5942  0.7042  0.3885
     5 H(1)   Bbb    -0.0013    -0.713    -0.254    -0.238 -0.5227  0.7053 -0.4790
              Bcc     0.0037     1.956     0.698     0.652 -0.6113  0.0816  0.7872
 
              Baa    -0.0023    -1.244    -0.444    -0.415  0.5942  0.7038 -0.3893
     6 H(1)   Bbb    -0.0013    -0.712    -0.254    -0.237 -0.5226  0.7058  0.4784
              Bcc     0.0037     1.956     0.698     0.653  0.6114 -0.0808  0.7872
 
              Baa    -0.0034    -1.804    -0.644    -0.602  0.0013 -0.0026  1.0000
     7 H(1)   Bbb    -0.0021    -1.099    -0.392    -0.367  0.8171 -0.5765 -0.0026
              Bcc     0.0054     2.903     1.036     0.968  0.5765  0.8171  0.0014
 
              Baa    -0.0311     2.248     0.802     0.750  0.9252  0.3794 -0.0068
     8 O(17)  Bbb    -0.0292     2.116     0.755     0.706  0.0065  0.0020  1.0000
              Bcc     0.0603    -4.365    -1.557    -1.456 -0.3794  0.9252  0.0006
 

 ---------------------------------------------------------------------------------

 No NMR shielding tensors so no spin-rotation constants.
 Leave Link  601 at Thu Mar  7 10:57:09 2019, MaxMem=    33554432 cpu:         1.8
 (Enter /home/proyectos/fulerenos/M3C-v2.0/M3C-deps_CCC/g09-AM64L-G09RevC.01/l701.exe)
 Compute integral second derivatives.
 ... and contract with generalized density number  0.
 Leave Link  701 at Thu Mar  7 10:57:09 2019, MaxMem=    33554432 cpu:         1.4
 (Enter /home/proyectos/fulerenos/M3C-v2.0/M3C-deps_CCC/g09-AM64L-G09RevC.01/l702.exe)
 L702 exits ... SP integral derivatives will be done elsewhere.
 Leave Link  702 at Thu Mar  7 10:57:09 2019, MaxMem=    33554432 cpu:         0.1
 (Enter /home/proyectos/fulerenos/M3C-v2.0/M3C-deps_CCC/g09-AM64L-G09RevC.01/l703.exe)
 Compute integral second derivatives, UseDBF=F ICtDFT=           0.
 Integral derivatives from FoFJK, PRISM(SPDF).
 Calling FoFJK, ICntrl=    100127 FMM=F ISym2X=0 I1Cent= 0 IOpClX= 1 NMat=1 NMatS=1 NMatT=0.
 FoFJK:  IHMeth= 1 ICntrl=  100127 DoSepK=F KAlg= 0 I1Cent=   0 FoldK=F
 IRaf=         0 NMat=   1 IRICut=       1 DoRegI=T DoRafI=F ISym2E= 0.
 FoFCou: FMM=F IPFlag=           0 FMFlag=      100000 FMFlg1=         800
         NFxFlg=           0 DoJE=F BraDBF=F KetDBF=F FulRan=T
         wScrn=  0.000000 ICntrl=  100127 IOpCl=  1 I1Cent=           0 NGrid=           0
         NMat0=    1 NMatS0=      1 NMatT0=    0 NMatD0=    1 NMtDS0=    0 NMtDT0=    0
 Symmetry not used in FoFCou.
 Leave Link  703 at Thu Mar  7 10:59:17 2019, MaxMem=    33554432 cpu:       508.9
 (Enter /home/proyectos/fulerenos/M3C-v2.0/M3C-deps_CCC/g09-AM64L-G09RevC.01/l716.exe)
 Dipole        = 1.59653100D+00-2.02929762D+00-3.13046864D-03
 Polarizability= 1.31472930D+03 1.25722544D+02 1.11256668D+03
                -2.05072651D-01-1.68966676D-01 4.71690558D+02
 Full mass-weighted force constant matrix:
 Low frequencies ---    0.0010    0.0010    0.0017   22.9417   26.3427   29.0960
 Low frequencies ---  315.0109  412.9481  484.4295
 Diagonal vibrational polarizability:
       61.8834033      21.4082627     266.9498902
 Harmonic frequencies (cm**-1), IR intensities (KM/Mole), Raman scattering
 activities (A**4/AMU), depolarization ratios for plane and unpolarized
 incident light, reduced masses (AMU), force constants (mDyne/A),
 and normal coordinates:
                      1                      2                      3
                      A                      A                      A
 Frequencies --    314.9922               412.9447               484.4260
 Red. masses --      1.5846                 3.3577                 1.5132
 Frc consts  --      0.0926                 0.3373                 0.2092
 IR Inten    --    811.2027                19.6630               357.1021
  Atom  AN      X      Y      Z        X      Y      Z        X      Y      Z
     1   6     0.00   0.00   0.05     0.25   0.03  -0.00     0.00  -0.00   0.02
     2   6     0.00  -0.00  -0.22    -0.00  -0.24   0.00    -0.00   0.00   0.15
     3   6    -0.00  -0.00  -0.02    -0.15  -0.09   0.00     0.00  -0.00  -0.04
     4   1     0.00  -0.00   0.75     0.28   0.42  -0.00    -0.00  -0.00   0.90
     5   1     0.23  -0.03   0.16     0.42   0.14   0.01    -0.17  -0.06  -0.02
     6   1    -0.22   0.03   0.16     0.42   0.14  -0.01     0.17   0.06  -0.02
     7   1    -0.00  -0.00   0.49    -0.39   0.02  -0.00     0.00  -0.00  -0.30
     8   8    -0.00   0.00   0.04    -0.12   0.18  -0.00    -0.00   0.00  -0.13
                      4                      5                      6
                      A                      A                      A
 Frequencies --    689.7428               691.8896               940.1839
 Red. masses --      1.5821                 3.2544                 1.3013
 Frc consts  --      0.4435                 0.9179                 0.6777
 IR Inten    --    103.9407                67.8441               456.6503
  Atom  AN      X      Y      Z        X      Y      Z        X      Y      Z
     1   6    -0.00  -0.00  -0.01    -0.15  -0.15   0.00    -0.06   0.05  -0.00
     2   6     0.00  -0.00   0.15     0.12  -0.12  -0.00     0.01  -0.09  -0.00
     3   6    -0.00   0.00  -0.17    -0.20   0.18   0.00    -0.10   0.04   0.00
     4   1     0.00   0.00  -0.14     0.41   0.17   0.00     0.21   0.10  -0.00
     5   1    -0.05  -0.06   0.01    -0.22  -0.18  -0.01     0.04   0.14  -0.01
     6   1     0.05   0.06   0.01    -0.23  -0.18   0.01     0.04   0.14   0.01
     7   1    -0.01   0.00   0.96    -0.58   0.34  -0.02     0.85  -0.40   0.00
     8   8     0.00   0.00  -0.03     0.21   0.06   0.00     0.04  -0.00  -0.00
                      7                      8                      9
                      A                      A                      A
 Frequencies --    991.2289              1018.5153              1043.4015
 Red. masses --      1.1056                 5.0125                 1.4564
 Frc consts  --      0.6400                 3.0636                 0.9342
 IR Inten    --      1.5476               517.8002                19.5270
  Atom  AN      X      Y      Z        X      Y      Z        X      Y      Z
     1   6     0.00  -0.00  -0.01    -0.09   0.36  -0.00    -0.12  -0.08   0.00
     2   6    -0.00   0.00  -0.07    -0.13  -0.07  -0.00    -0.04   0.06  -0.00
     3   6     0.00   0.00   0.06     0.00  -0.35   0.00    -0.01  -0.07  -0.00
     4   1    -0.00  -0.00  -0.04     0.20   0.05   0.00    -0.12  -0.10  -0.00
     5   1    -0.52  -0.46   0.03    -0.44   0.01   0.03     0.53   0.42  -0.01
     6   1     0.52   0.46   0.03    -0.44   0.01  -0.03     0.53   0.42   0.01
     7   1    -0.00   0.00   0.15    -0.45  -0.17  -0.00    -0.15  -0.01  -0.00
     8   8     0.00  -0.00   0.00     0.24   0.05  -0.00     0.08   0.02   0.00
                     10                     11                     12
                      A                      A                      A
 Frequencies --   1104.4126              1132.0247              1341.5914
 Red. masses --      1.3027                 2.3650                 1.9360
 Frc consts  --      0.9362                 1.7857                 2.0530
 IR Inten    --      2.0053               759.5373               339.1299
  Atom  AN      X      Y      Z        X      Y      Z        X      Y      Z
     1   6     0.00   0.00   0.14    -0.17   0.09  -0.00     0.09  -0.07   0.00
     2   6     0.00  -0.00  -0.07     0.11  -0.08   0.00    -0.13   0.19   0.00
     3   6     0.00   0.00  -0.04     0.18   0.02   0.00    -0.07  -0.04  -0.00
     4   1     0.00   0.00  -0.01     0.71   0.42   0.00     0.84   0.45   0.00
     5   1    -0.42   0.48  -0.28     0.08   0.22   0.02    -0.00  -0.03  -0.04
     6   1     0.42  -0.48  -0.28     0.08   0.22  -0.02    -0.00  -0.03   0.04
     7   1     0.00  -0.00   0.06    -0.22   0.21   0.00     0.02  -0.09   0.00
     8   8    -0.00  -0.00   0.01    -0.13  -0.08  -0.00     0.03  -0.08  -0.00
                     13                     14                     15
                      A                      A                      A
 Frequencies --   1513.2567              1847.3874              2967.5389
 Red. masses --      1.0950                 7.1340                 1.0457
 Frc consts  --      1.4774                14.3450                 5.4256
 IR Inten    --     21.8432              1129.8864                 1.6878
  Atom  AN      X      Y      Z        X      Y      Z        X      Y      Z
     1   6     0.05  -0.06   0.00    -0.06   0.08  -0.00     0.04  -0.05  -0.00
     2   6     0.04   0.00  -0.00     0.54   0.28  -0.00    -0.00  -0.00   0.00
     3   6    -0.01  -0.02   0.00    -0.30  -0.26  -0.00     0.00   0.00   0.00
     4   1    -0.04  -0.03  -0.00    -0.06  -0.09  -0.00     0.01  -0.02  -0.00
     5   1    -0.36   0.47  -0.39     0.06  -0.14   0.20    -0.21   0.29   0.61
     6   1    -0.36   0.47   0.39     0.06  -0.14  -0.20    -0.21   0.29  -0.61
     7   1    -0.04  -0.02  -0.00    -0.21  -0.51   0.00     0.00   0.01  -0.00
     8   8    -0.01   0.00   0.00    -0.12  -0.02   0.00     0.00   0.00   0.00
                     16                     17                     18
                      A                      A                      A
 Frequencies --   3013.6936              3285.2522              3316.0428
 Red. masses --      1.1153                 1.0663                 1.1149
 Frc consts  --      5.9681                 6.7806                 7.2229
 IR Inten    --      4.0113              6861.6392               512.9946
  Atom  AN      X      Y      Z        X      Y      Z        X      Y      Z
     1   6    -0.00   0.00  -0.10    -0.00  -0.00  -0.00    -0.00   0.00  -0.00
     2   6     0.00   0.00   0.00     0.01  -0.00   0.00     0.02   0.01   0.00
     3   6    -0.00   0.00   0.00     0.01   0.02   0.00    -0.05  -0.08  -0.00
     4   1     0.00  -0.00  -0.00    -0.52   0.82   0.00    -0.13   0.20   0.00
     5   1    -0.23   0.31   0.59    -0.00   0.01   0.01    -0.00   0.00   0.00
     6   1     0.23  -0.31   0.59    -0.00   0.01  -0.01    -0.00   0.00  -0.00
     7   1     0.00  -0.00  -0.00    -0.10  -0.21  -0.00     0.40   0.88   0.00
     8   8    -0.00  -0.00  -0.00     0.03  -0.05  -0.00     0.01  -0.01  -0.00

 -------------------
 - Thermochemistry -
 -------------------
 Temperature   298.150 Kelvin.  Pressure   1.00000 Atm.
 Atom     1 has atomic number  6 and mass  12.00000
 Atom     2 has atomic number  6 and mass  12.00000
 Atom     3 has atomic number  6 and mass  12.00000
 Atom     4 has atomic number  1 and mass   1.00783
 Atom     5 has atomic number  1 and mass   1.00783
 Atom     6 has atomic number  1 and mass   1.00783
 Atom     7 has atomic number  1 and mass   1.00783
 Atom     8 has atomic number  8 and mass  15.99491
 Molecular mass:    56.02621 amu.
 Principal axes and moments of inertia in atomic units:
                           1         2         3
     Eigenvalues --    80.67288 251.95817 320.66878
           X            0.99886  -0.04772  -0.00002
           Y            0.04772   0.99886   0.00007
           Z            0.00002  -0.00007   1.00000
 This molecule is an asymmetric top.
 Rotational symmetry number  1.
 Rotational temperatures (Kelvin)      1.07364     0.34376     0.27010
 Rotational constants (GHZ):          22.37110     7.16286     5.62805
 Zero-point vibrational energy     156163.7 (Joules/Mol)
                                   37.32401 (Kcal/Mol)
 Warning -- explicit consideration of   3 degrees of freedom as
           vibrations may cause significant error
 Vibrational temperatures:    453.20   594.13   696.98   992.38   995.47
          (Kelvin)           1352.71  1426.16  1465.41  1501.22  1589.00
                             1628.73  1930.25  2177.24  2657.98  4269.62
                             4336.03  4726.74  4771.04
 
 Zero-point correction=                           0.059480 (Hartree/Particle)
 Thermal correction to Energy=                    0.063691
 Thermal correction to Enthalpy=                  0.064635
 Thermal correction to Gibbs Free Energy=         0.032859
 Sum of electronic and zero-point Energies=           -191.837910
 Sum of electronic and thermal Energies=              -191.833699
 Sum of electronic and thermal Enthalpies=            -191.832754
 Sum of electronic and thermal Free Energies=         -191.864531
 
                     E (Thermal)             CV                S
                      KCal/Mol        Cal/Mol-Kelvin    Cal/Mol-Kelvin
 Total                   39.967             14.303             66.880
 Electronic               0.000              0.000              1.377
 Translational            0.889              2.981             37.991
 Rotational               0.889              2.981             23.393
 Vibrational             38.189              8.341              4.119
 Vibration     1          0.702              1.645              1.336
 Vibration     2          0.777              1.442              0.916
 Vibration     3          0.841              1.285              0.698
                       Q            Log10(Q)             Ln(Q)
 Total Bot       0.769346D-15        -15.113879        -34.800991
 Total V=0       0.175703D+13         12.244778         28.194644
 Vib (Bot)       0.807508D-27        -27.092853        -62.383600
 Vib (Bot)    1  0.598561D+00         -0.222892         -0.513228
 Vib (Bot)    2  0.427495D+00         -0.369069         -0.849814
 Vib (Bot)    3  0.343934D+00         -0.463525         -1.067306
 Vib (V=0)       0.184418D+01          0.265803          0.612035
 Vib (V=0)    1  0.127992D+01          0.107183          0.246797
 Vib (V=0)    2  0.115784D+01          0.063648          0.146555
 Vib (V=0)    3  0.110687D+01          0.044096          0.101536
 Electronic      0.200000D+01          0.301030          0.693147
 Translational   0.164832D+08          7.217042         16.617854
 Rotational      0.289003D+05          4.460903         10.271608
 
                                                              b3lyp opt
                                                             IR Spectrum
 
     3 3         3 2                                          1            1     1       11 11                                       
     3 2         0 9                                          8            5     3       11 00 99        66       4  4  3            
     1 8         1 6                                          4            1     4       30 41 94        99       8  1  1            
     6 5         4 8                                          7            3     2       24 39 10        20       4  3  5            
 
     X X         X X                                          X            X     X       XX XX XX        XX       X  X  X            
       X                                                      X                          X   X                          X            
       X                                                      X                                                                      
       X                                                                                                                             
       X                                                                                                                             
       X                                                                                                                             
       X                                                                                                                             
       X                                                                                                                             
       X                                                                                                                             
       X                                                                                                                             
       X                                                                                                                             
       X                                                                                                                             
       X                                                                                                                             
       X                                                                                                                             
       X                                                                                                                             
       X                                                                                                                             
       X                                                                                                                             
       X                                                                                                                             
       X                                                                                                                             
       X                                                                                                                             
 
 ***** Axes restored to original set *****
 -------------------------------------------------------------------
 Center     Atomic                   Forces (Hartrees/Bohr)
 Number     Number              X              Y              Z
 -------------------------------------------------------------------
      1        6           0.000069574   -0.000160591   -0.000023049
      2        6           0.000040097   -0.000304562   -0.000036151
      3        6          -0.000133419    0.000468969    0.000050145
      4        1          -0.000054293    0.000379336    0.000044485
      5        1          -0.000027177    0.000006394    0.000020414
      6        1           0.000012900    0.000026903   -0.000013119
      7        1           0.000095665   -0.000167210   -0.000005092
      8        8          -0.000003347   -0.000249240   -0.000037633
 -------------------------------------------------------------------
 Cartesian Forces:  Max     0.000468969 RMS     0.000160578
 Z-matrix is all fixed cartesians, so copy forces.
 Force constants in Cartesian coordinates: 
                1             2             3             4             5 
      1  0.272098D+00
      2 -0.851859D-01  0.536590D+00
      3 -0.130327D+00 -0.363536D-01  0.478491D+00
      4 -0.871153D-01  0.114793D+00  0.912541D-02  0.916236D+00
      5  0.813582D-01 -0.169456D+00  0.765087D-02 -0.451599D-01  0.390073D+00
      6  0.184471D-02  0.215859D-01 -0.435978D-01  0.323726D+00  0.409849D-01
      7 -0.339383D-01 -0.388714D-01 -0.713498D-02 -0.502009D+00 -0.131118D+00
      8 -0.658983D-02 -0.156368D+00 -0.287089D-01 -0.149001D+00 -0.568499D-01
      9 -0.119437D-03 -0.421182D-01 -0.462863D-01 -0.220087D+00 -0.558489D-01
     10  0.158726D-02 -0.934633D-03 -0.661951D-03 -0.252248D-01  0.500381D-01
     11 -0.930356D-02  0.330163D-02 -0.372246D-02  0.337160D-01 -0.180785D-01
     12 -0.245124D-02 -0.269099D-03  0.159398D-02 -0.450588D-02  0.162213D-01
     13 -0.510302D-01 -0.278916D-01  0.408432D-01  0.620374D-02  0.144395D-01
     14 -0.293777D-01 -0.147457D+00  0.117048D+00 -0.105126D-01 -0.208889D-01
     15  0.414767D-01  0.114398D+00 -0.178874D+00 -0.904205D-03  0.897132D-03
     16 -0.897778D-01  0.350579D-01  0.961724D-01 -0.699786D-02  0.756837D-02
     17  0.361388D-01 -0.697222D-01 -0.600494D-01 -0.156244D-02 -0.161741D-01
     18  0.954447D-01 -0.572365D-01 -0.217887D+00 -0.725326D-02 -0.252067D-02
     19  0.301018D-02  0.294698D-02  0.344386D-03  0.465722D-03 -0.972255D-02
     20 -0.101408D-01 -0.137706D-02 -0.531315D-02  0.801247D-02 -0.362224D-02
     21 -0.249578D-02  0.118268D-03  0.269831D-02 -0.111062D-02 -0.640924D-02
     22 -0.148336D-01  0.860683D-04 -0.836171D-02 -0.301558D+00  0.325960D-01
     23  0.231009D-01  0.448895D-02  0.944823D-02  0.497149D-01 -0.105004D+00
     24 -0.337292D-02 -0.125116D-03  0.386190D-02 -0.989906D-01 -0.975405D-03
                6             7             8             9            10 
      6  0.258494D+00
      7 -0.216276D+00  0.742636D+00
      8 -0.632927D-01  0.284821D+00  0.403931D+00
      9 -0.154519D+00  0.338016D+00  0.189122D+00  0.260409D+00
     10 -0.978993D-03  0.259413D-02 -0.175388D-02  0.818176D-03  0.561665D-01
     11  0.942122D-02 -0.733926D-02  0.313511D-02 -0.232364D-02 -0.646569D-01
     12  0.476421D-02 -0.400325D-03  0.723442D-05 -0.432619D-03  0.672507D-02
     13 -0.176522D-01 -0.248023D-03 -0.448577D-02  0.701824D-02 -0.393296D-03
     14  0.213208D-02  0.657525D-02 -0.207193D-01  0.120343D-01 -0.664305D-03
     15  0.113772D-03 -0.155506D-02 -0.545591D-02  0.134309D-01  0.247742D-04
     16  0.169066D-01  0.744915D-02  0.118961D-02 -0.107923D-01 -0.521531D-03
     17 -0.179365D-01  0.171337D-01 -0.143484D-01 -0.129783D-01 -0.426129D-03
     18  0.862206D-02  0.365343D-02 -0.671452D-02 -0.643516D-03 -0.429764D-03
     19 -0.491356D-02 -0.186240D+00 -0.136461D+00 -0.988608D-01 -0.112210D-03
     20  0.974469D-03 -0.142026D+00 -0.166611D+00 -0.909459D-01 -0.623604D-03
     21  0.536881D-02 -0.100036D+00 -0.886121D-01 -0.804859D-01  0.836255D-03
     22 -0.102657D+00 -0.302435D-01  0.122813D-01 -0.159924D-01 -0.340960D-01
     23  0.613053D-02  0.108244D-01  0.783014D-02  0.305883D-02  0.190214D-01
     24 -0.792459D-01 -0.162668D-01  0.365508D-02  0.852714D-02 -0.633357D-02
               11            12            13            14            15 
     11  0.369295D+00
     12  0.514168D-01  0.203289D-01
     13  0.903233D-03 -0.279538D-03  0.466911D-01
     14  0.166122D-02  0.369196D-03  0.280390D-01  0.178849D+00
     15  0.197001D-03 -0.324668D-03 -0.428250D-01 -0.126722D+00  0.183401D+00
     16  0.348910D-03  0.384796D-03 -0.315685D-02  0.153861D-02  0.373615D-02
     17  0.152939D-02 -0.220073D-04 -0.896597D-02  0.810364D-02  0.159016D-01
     18  0.112747D-02 -0.653600D-04  0.974941D-02 -0.619465D-02 -0.174384D-01
     19  0.399817D-03  0.106360D-02 -0.605295D-03 -0.386653D-03 -0.351981D-03
     20  0.419907D-03  0.365404D-03 -0.135852D-02  0.725830D-03 -0.233496D-03
     21  0.792223D-03 -0.193285D-02  0.359571D-02  0.639837D-03  0.996770D-03
     22  0.459318D-01 -0.536481D-03  0.253886D-02  0.478843D-02  0.398619D-03
     23 -0.361264D+00 -0.680888D-01 -0.679928D-03 -0.274621D-03  0.101765D-02
     24 -0.569086D-01 -0.239316D-01 -0.449719D-03  0.693050D-03 -0.130529D-02
               16            17            18            19            20 
     16  0.910569D-01
     17 -0.453249D-01  0.900159D-01
     18 -0.105386D+00  0.725547D-01  0.227877D+00
     19  0.189310D-02 -0.120477D-03  0.123475D-02  0.181553D+00
     20  0.763205D-04  0.934061D-03  0.299700D-03  0.145137D+00  0.166667D+00
     21 -0.288515D-02 -0.249173D-03 -0.171292D-02  0.101745D+00  0.937842D-01
     22  0.549230D-04  0.312742D-02  0.298689D-02  0.353950D-04  0.923022D-03
     23 -0.454774D-03 -0.338298D-03 -0.131556D-02 -0.179290D-02  0.286291D-02
     24  0.186367D-02  0.277909D-02  0.124813D-02 -0.261774D-03  0.106878D-02
               21            22            23            24 
     21  0.752189D-01
     22  0.350513D-03  0.378102D+00
     23 -0.639863D-04 -0.997340D-01  0.451699D+00
     24 -0.151148D-03  0.123812D+00  0.498131D-01  0.909968D-01
 Leave Link  716 at Thu Mar  7 10:59:17 2019, MaxMem=    33554432 cpu:         0.1
 (Enter /home/proyectos/fulerenos/M3C-v2.0/M3C-deps_CCC/g09-AM64L-G09RevC.01/l103.exe)

 GradGradGradGradGradGradGradGradGradGradGradGradGradGradGradGradGradGrad
 Berny optimization.
 Search for a local minimum.
 Step number   1 out of a maximum of    2
 All quantities printed in internal units (Hartrees-Bohrs-Radians)
 Second derivative matrix not updated -- analytic derivatives used.
 ITU=  0
     Eigenvalues ---    0.00702   0.01998   0.02421   0.03369   0.03533
     Eigenvalues ---    0.06802   0.10131   0.11523   0.17124   0.19092
     Eigenvalues ---    0.23952   0.35521   0.38588   0.70839   0.71131
     Eigenvalues ---    0.74549   0.87262   1.79237
 Angle between quadratic step and forces=  56.23 degrees.
 Linear search not attempted -- first point.
 B after Tr=    -0.000507    0.000041    0.000068
         Rot=    1.000000   -0.000006    0.000015    0.000057 Ang=  -0.01 deg.
 Variable       Old X    -DE/DX   Delta X   Delta X   Delta X     New X
                                 (Linear)    (Quad)   (Total)
    X1       -0.48035   0.00007   0.00000   0.00056   0.00028  -0.48007
    Y1        1.88512  -0.00016   0.00000  -0.00021  -0.00012   1.88500
    Z1       -0.33991  -0.00002   0.00000   0.00008   0.00015  -0.33975
    X2        1.20763   0.00004   0.00000  -0.00078  -0.00132   1.20631
    Y2       -0.33167  -0.00030   0.00000  -0.00137  -0.00146  -0.33313
    Z2       -0.11984  -0.00004   0.00000   0.00001   0.00011  -0.11973
    X3       -0.94555  -0.00013   0.00000  -0.00151  -0.00208  -0.94763
    Y3       -0.86751   0.00047   0.00000   0.00130   0.00146  -0.86605
    Z3       -1.13231   0.00005   0.00000   0.00006   0.00009  -1.13221
    X4        3.81442  -0.00005   0.00000   0.00165   0.00082   3.81524
    Y4       -2.75195   0.00038   0.00000   0.00178   0.00138  -2.75057
    Z4        0.44206   0.00004   0.00000  -0.00107  -0.00092   0.44115
    X5       -0.10937  -0.00003   0.00000   0.00112   0.00105  -0.10832
    Y5        3.32509   0.00001   0.00000  -0.00006   0.00001   3.32511
    Z5       -1.77527   0.00002   0.00000   0.00034   0.00044  -1.77483
    X6       -1.40748   0.00001   0.00000   0.00141   0.00116  -1.40632
    Y6        2.64643   0.00003   0.00000   0.00095   0.00113   2.64756
    Z6        1.34301  -0.00001   0.00000   0.00007   0.00012   1.34313
    X7       -2.27205   0.00010   0.00000   0.00217   0.00148  -2.27057
    Y7       -2.14682  -0.00017   0.00000  -0.00258  -0.00225  -2.14907
    Z7       -1.96133  -0.00001   0.00000  -0.00038  -0.00041  -1.96174
    X8        3.49607  -0.00000   0.00000  -0.00075  -0.00138   3.49469
    Y8       -0.93447  -0.00025   0.00000   0.00022  -0.00015  -0.93461
    Z8        0.70183  -0.00004   0.00000   0.00024   0.00040   0.70223
         Item               Value     Threshold  Converged?
 Maximum Force            0.000469     0.000450     NO 
 RMS     Force            0.000161     0.000300     YES
 Maximum Displacement     0.002253     0.001800     NO 
 RMS     Displacement     0.001067     0.001200     YES
 Predicted change in Energy=-1.196234D-06
 GradGradGradGradGradGradGradGradGradGradGradGradGradGradGradGradGradGrad

 Leave Link  103 at Thu Mar  7 10:59:17 2019, MaxMem=    33554432 cpu:         0.1
 (Enter /home/proyectos/fulerenos/M3C-v2.0/M3C-deps_CCC/g09-AM64L-G09RevC.01/l9999.exe)

 Test job not archived.
 1\1\GINC-BELVIS21\Freq\UB3LYP\6-311++G(3df,2p)\C3H4O1(1-,2)\ROOT\07-Ma
 r-2019\0\\#p b3lyp/6-311++G(3df,2p) freq IOp(2/17=3) IOp(2/18=3)\\b3ly
 p opt\\-1,2\C,-0.254189,0.997561,-0.17987\C,0.639049,-0.175511,-0.0634
 18\C,-0.500366,-0.459067,-0.59919\H,2.018504,-1.456267,0.23393\H,-0.05
 7876,1.759564,-0.939435\H,-0.744808,1.400431,0.710689\H,-1.202319,-1.1
 36048,-1.037889\O,1.850042,-0.494498,0.371391\\Version=EM64L-G09RevE.0
 1\State=2-A\HF=-191.8973898\S2=0.750092\S2-1=0.\S2A=0.75\RMSD=6.556e-0
 9\RMSF=1.606e-04\ZeroPoint=0.0594796\Thermal=0.0636912\Dipole=-0.70934
 87,2.4712301,0.2383616\DipoleDeriv=0.7407215,0.0769605,0.4084142,0.207
 9543,0.0447804,0.1407002,0.4375536,0.0856356,-0.0011731,-3.1089144,0.0
 15275,-1.4343915,0.6931368,-0.4793765,0.1086509,-1.2870654,-0.1716263,
 -0.2308691,0.7365914,0.3584919,0.228097,-0.9032148,-0.331051,-0.529184
 2,-0.0439451,-0.0032606,0.3575968,-1.3888541,-0.321782,-0.2204924,2.25
 75476,-0.4027413,1.0745288,0.3368716,0.0004636,-0.8863724,-0.1470124,0
 .0077373,-0.0236063,-0.023744,-0.0231593,0.0054407,-0.0708092,0.038904
 2,-0.0949087,-0.1695465,0.0256305,-0.037156,-0.0341593,-0.0129159,-0.0
 03862,-0.0097826,0.000352,-0.0831658,-0.2884356,0.0564911,0.1245507,0.
 3981502,-0.0770551,0.2701328,0.1969774,0.1267002,-0.4478612,2.6254501,
 -0.2188043,0.9545843,-2.5956709,0.2815187,-1.0664072,0.4401995,-0.0771
 688,0.3867535\Polar=1244.7466457,-43.0581493,1029.836588,312.6309256,1
 03.442963,624.4033035\PG=C01 [X(C3H4O1)]\NImag=0\\0.27209784,-0.085185
 88,0.53659018,-0.13032672,-0.03635355,0.47849129,-0.08711532,0.1147926
 0,0.00912541,0.91623595,0.08135816,-0.16945630,0.00765087,-0.04515990,
 0.39007343,0.00184471,0.02158588,-0.04359777,0.32372643,0.04098494,0.2
 5849395,-0.03393832,-0.03887139,-0.00713498,-0.50200940,-0.13111763,-0
 .21627579,0.74263573,-0.00658983,-0.15636845,-0.02870888,-0.14900107,-
 0.05684990,-0.06329265,0.28482094,0.40393146,-0.00011944,-0.04211815,-
 0.04628633,-0.22008723,-0.05584892,-0.15451912,0.33801580,0.18912174,0
 .26040940,0.00158726,-0.00093463,-0.00066195,-0.02522481,0.05003806,-0
 .00097899,0.00259413,-0.00175388,0.00081818,0.05616651,-0.00930356,0.0
 0330163,-0.00372246,0.03371603,-0.01807845,0.00942122,-0.00733926,0.00
 313511,-0.00232364,-0.06465693,0.36929533,-0.00245124,-0.00026910,0.00
 159398,-0.00450588,0.01622130,0.00476421,-0.00040033,0.00000723,-0.000
 43262,0.00672507,0.05141676,0.02032891,-0.05103020,-0.02789161,0.04084
 316,0.00620374,0.01443951,-0.01765224,-0.00024802,-0.00448577,0.007018
 24,-0.00039330,0.00090323,-0.00027954,0.04669106,-0.02937774,-0.147456
 77,0.11704834,-0.01051264,-0.02088886,0.00213208,0.00657525,-0.0207192
 9,0.01203434,-0.00066430,0.00166122,0.00036920,0.02803905,0.17884886,0
 .04147673,0.11439825,-0.17887407,-0.00090421,0.00089713,0.00011377,-0.
 00155506,-0.00545591,0.01343089,0.00002477,0.00019700,-0.00032467,-0.0
 4282502,-0.12672219,0.18340095,-0.08977782,0.03505786,0.09617240,-0.00
 699786,0.00756837,0.01690657,0.00744915,0.00118961,-0.01079231,-0.0005
 2153,0.00034891,0.00038480,-0.00315685,0.00153861,0.00373615,0.0910568
 8,0.03613882,-0.06972218,-0.06004940,-0.00156244,-0.01617411,-0.017936
 46,0.01713368,-0.01434844,-0.01297830,-0.00042613,0.00152939,-0.000022
 01,-0.00896597,0.00810364,0.01590156,-0.04532491,0.09001594,0.09544467
 ,-0.05723648,-0.21788731,-0.00725326,-0.00252067,0.00862206,0.00365343
 ,-0.00671452,-0.00064352,-0.00042976,0.00112747,-0.00006536,0.00974941
 ,-0.00619465,-0.01743835,-0.10538613,0.07255470,0.22787727,0.00301018,
 0.00294698,0.00034439,0.00046572,-0.00972255,-0.00491356,-0.18623981,-
 0.13646130,-0.09886080,-0.00011221,0.00039982,0.00106360,-0.00060529,-
 0.00038665,-0.00035198,0.00189310,-0.00012048,0.00123475,0.18155292,-0
 .01014082,-0.00137706,-0.00531315,0.00801247,-0.00362224,0.00097447,-0
 .14202596,-0.16661063,-0.09094588,-0.00062360,0.00041991,0.00036540,-0
 .00135852,0.00072583,-0.00023350,0.00007632,0.00093406,0.00029970,0.14
 513709,0.16666722,-0.00249578,0.00011827,0.00269831,-0.00111062,-0.006
 40924,0.00536881,-0.10003631,-0.08861210,-0.08048585,0.00083625,0.0007
 9222,-0.00193285,0.00359571,0.00063984,0.00099677,-0.00288515,-0.00024
 917,-0.00171292,0.10174537,0.09378417,0.07521889,-0.01483361,0.0000860
 7,-0.00836171,-0.30155802,0.03259596,-0.10265712,-0.03024346,0.0122813
 0,-0.01599243,-0.03409605,0.04593176,-0.00053648,0.00253886,0.00478843
 ,0.00039862,0.00005492,0.00312742,0.00298689,0.00003539,0.00092302,0.0
 0035051,0.37810197,0.02310086,0.00448895,0.00944823,0.04971494,-0.1050
 0356,0.00613053,0.01082435,0.00783014,0.00305883,0.01902142,-0.3612641
 4,-0.06808878,-0.00067993,-0.00027462,0.00101765,-0.00045477,-0.000338
 30,-0.00131556,-0.00179290,0.00286291,-0.00006399,-0.09973396,0.451698
 62,-0.00337292,-0.00012512,0.00386190,-0.09899065,-0.00097540,-0.07924
 590,-0.01626677,0.00365508,0.00852714,-0.00633357,-0.05690857,-0.02393
 160,-0.00044972,0.00069305,-0.00130529,0.00186367,0.00277909,0.0012481
 3,-0.00026177,0.00106878,-0.00015115,0.12381173,0.04981308,0.09099676\
 \-0.00006957,0.00016059,0.00002305,-0.00004010,0.00030456,0.00003615,0
 .00013342,-0.00046897,-0.00005015,0.00005429,-0.00037934,-0.00004449,0
 .00002718,-0.00000639,-0.00002041,-0.00001290,-0.00002690,0.00001312,-
 0.00009567,0.00016721,0.00000509,0.00000335,0.00024924,0.00003763\\\@


 Fatherhood is pretending the present you love most is soap-on-a-rope.
 -- Bill Cosby
 Job cpu time:       0 days  0 hours 39 minutes 18.0 seconds.
 File lengths (MBytes):  RWF=     55 Int=      0 D2E=      0 Chk=      4 Scr=      1
 Normal termination of Gaussian 09 at Thu Mar  7 10:59:17 2019.
