 Entering Gaussian System, Link 0=/home/proyectos/fulerenos/M3C-v2.0/M3C-deps_CCC/g09-AM64L-G09RevC.01/g09
 Initial command:
 /home/proyectos/fulerenos/M3C-v2.0/M3C-deps_CCC/g09-AM64L-G09RevC.01/l1.exe "/scratch/naguirre/gaussian/Gau-19185.inp" -scrdir="/scratch/naguirre/gaussian/"
 Entering Link 1 = /home/proyectos/fulerenos/M3C-v2.0/M3C-deps_CCC/g09-AM64L-G09RevC.01/l1.exe PID=     19189.
  
 Copyright (c) 1988,1990,1992,1993,1995,1998,2003,2009,2015,
            Gaussian, Inc.  All Rights Reserved.
  
 This is part of the Gaussian(R) 09 program.  It is based on
 the Gaussian(R) 03 system (copyright 2003, Gaussian, Inc.),
 the Gaussian(R) 98 system (copyright 1998, Gaussian, Inc.),
 the Gaussian(R) 94 system (copyright 1995, Gaussian, Inc.),
 the Gaussian 92(TM) system (copyright 1992, Gaussian, Inc.),
 the Gaussian 90(TM) system (copyright 1990, Gaussian, Inc.),
 the Gaussian 88(TM) system (copyright 1988, Gaussian, Inc.),
 the Gaussian 86(TM) system (copyright 1986, Carnegie Mellon
 University), and the Gaussian 82(TM) system (copyright 1983,
 Carnegie Mellon University). Gaussian is a federally registered
 trademark of Gaussian, Inc.
  
 This software contains proprietary and confidential information,
 including trade secrets, belonging to Gaussian, Inc.
  
 This software is provided under written license and may be
 used, copied, transmitted, or stored only in accord with that
 written license.
  
 The following legend is applicable only to US Government
 contracts under FAR:
  
                    RESTRICTED RIGHTS LEGEND
  
 Use, reproduction and disclosure by the US Government is
 subject to restrictions as set forth in subparagraphs (a)
 and (c) of the Commercial Computer Software - Restricted
 Rights clause in FAR 52.227-19.
  
 Gaussian, Inc.
 340 Quinnipiac St., Bldg. 40, Wallingford CT 06492
  
  
 ---------------------------------------------------------------
 Warning -- This program may not be used in any manner that
 competes with the business of Gaussian, Inc. or will provide
 assistance to any competitor of Gaussian, Inc.  The licensee
 of this program is prohibited from giving any competitor of
 Gaussian, Inc. access to this program.  By using this program,
 the user acknowledges that Gaussian, Inc. is engaged in the
 business of creating and licensing software in the field of
 computational chemistry and represents and warrants to the
 licensee that it is not a competitor of Gaussian, Inc. and that
 it will not use this program in any manner prohibited above.
 ---------------------------------------------------------------
  

 Cite this work as:
 Gaussian 09, Revision E.01,
 M. J. Frisch, G. W. Trucks, H. B. Schlegel, G. E. Scuseria, 
 M. A. Robb, J. R. Cheeseman, G. Scalmani, V. Barone, B. Mennucci, 
 G. A. Petersson, H. Nakatsuji, M. Caricato, X. Li, H. P. Hratchian, 
 A. F. Izmaylov, J. Bloino, G. Zheng, J. L. Sonnenberg, M. Hada, 
 M. Ehara, K. Toyota, R. Fukuda, J. Hasegawa, M. Ishida, T. Nakajima, 
 Y. Honda, O. Kitao, H. Nakai, T. Vreven, J. A. Montgomery, Jr., 
 J. E. Peralta, F. Ogliaro, M. Bearpark, J. J. Heyd, E. Brothers, 
 K. N. Kudin, V. N. Staroverov, T. Keith, R. Kobayashi, J. Normand, 
 K. Raghavachari, A. Rendell, J. C. Burant, S. S. Iyengar, J. Tomasi, 
 M. Cossi, N. Rega, J. M. Millam, M. Klene, J. E. Knox, J. B. Cross, 
 V. Bakken, C. Adamo, J. Jaramillo, R. Gomperts, R. E. Stratmann, 
 O. Yazyev, A. J. Austin, R. Cammi, C. Pomelli, J. W. Ochterski, 
 R. L. Martin, K. Morokuma, V. G. Zakrzewski, G. A. Voth, 
 P. Salvador, J. J. Dannenberg, S. Dapprich, A. D. Daniels, 
 O. Farkas, J. B. Foresman, J. V. Ortiz, J. Cioslowski, 
 and D. J. Fox, Gaussian, Inc., Wallingford CT, 2013.
 
 ******************************************
 Gaussian 09:  EM64L-G09RevE.01 30-Nov-2015
                 8-Mar-2019 
 ******************************************
 %NProcShared=2
 Will use up to    2 processors via shared memory.
 ------------------------------------------------------
 #p b3lyp/6-311++G(3df,2p) freq IOp(2/17=3) IOp(2/18=3)
 ------------------------------------------------------
 1/10=4,30=1,38=1/1,3;
 2/12=2,17=3,18=3,40=1/2;
 3/5=4,6=6,7=1216,11=2,16=1,25=1,30=1,71=2,74=-5,140=1/1,2,3;
 4//1;
 5/5=2,38=5,98=1/2;
 8/6=4,10=90,11=11/1;
 11/6=1,8=1,9=11,15=111,16=1/1,2,10;
 10/6=1/2;
 6/7=2,8=2,9=2,10=2,18=1,28=1/1;
 7/8=1,10=1,25=1/1,2,3,16;
 1/10=4,30=1/3;
 99//99;
 Leave Link    1 at Fri Mar  8 00:01:29 2019, MaxMem=           0 cpu:         0.1
 (Enter /home/proyectos/fulerenos/M3C-v2.0/M3C-deps_CCC/g09-AM64L-G09RevC.01/l101.exe)
 ---------
 b3lyp opt
 ---------
 Symbolic Z-matrix:
 Charge = -1 Multiplicity = 4
 C                    -0.91922   0.67143  -0.00009 
 C                     1.21718  -0.15045  -0.00052 
 O                     0.39497   1.05599  -0.0004 
 C                     0.19223  -1.22356  -0.00018 
 C                    -1.07844  -0.70123   0.00013 
 H                    -1.64574   1.46749   0.00001 
 H                     1.86334  -0.12916  -0.88811 
 H                     1.86381  -0.12904   0.88673 
 H                    -2.02581  -1.21875   0.0004 
 
 NAtoms=      9 NQM=        9 NQMF=       0 NMMI=      0 NMMIF=      0
                NMic=       0 NMicF=      0.
                    Isotopes and Nuclear Properties:
 (Nuclear quadrupole moments (NQMom) in fm**2, nuclear magnetic moments (NMagM)
  in nuclear magnetons)

  Atom         1           2           3           4           5           6           7           8           9
 IAtWgt=          12          12          16          12          12           1           1           1           1
 AtmWgt=  12.0000000  12.0000000  15.9949146  12.0000000  12.0000000   1.0078250   1.0078250   1.0078250   1.0078250
 NucSpn=           0           0           0           0           0           1           1           1           1
 AtZEff=   0.0000000   0.0000000   0.0000000   0.0000000   0.0000000   0.0000000   0.0000000   0.0000000   0.0000000
 NQMom=    0.0000000   0.0000000   0.0000000   0.0000000   0.0000000   0.0000000   0.0000000   0.0000000   0.0000000
 NMagM=    0.0000000   0.0000000   0.0000000   0.0000000   0.0000000   2.7928460   2.7928460   2.7928460   2.7928460
 AtZNuc=   6.0000000   6.0000000   8.0000000   6.0000000   6.0000000   1.0000000   1.0000000   1.0000000   1.0000000
 Leave Link  101 at Fri Mar  8 00:01:29 2019, MaxMem=    33554432 cpu:         0.3
 (Enter /home/proyectos/fulerenos/M3C-v2.0/M3C-deps_CCC/g09-AM64L-G09RevC.01/l103.exe)

 GradGradGradGradGradGradGradGradGradGradGradGradGradGradGradGradGradGrad
 Berny optimization.
 Initialization pass.
 Trust Radius=3.00D-01 FncErr=1.00D-07 GrdErr=1.00D-07
 Number of steps in this run=      2 maximum allowed number of steps=      2.
 GradGradGradGradGradGradGradGradGradGradGradGradGradGradGradGradGradGrad

 Leave Link  103 at Fri Mar  8 00:01:29 2019, MaxMem=    33554432 cpu:         0.1
 (Enter /home/proyectos/fulerenos/M3C-v2.0/M3C-deps_CCC/g09-AM64L-G09RevC.01/l202.exe)
                          Input orientation:                          
 ---------------------------------------------------------------------
 Center     Atomic      Atomic             Coordinates (Angstroms)
 Number     Number       Type             X           Y           Z
 ---------------------------------------------------------------------
      1          6           0       -0.919222    0.671433   -0.000088
      2          6           0        1.217176   -0.150445   -0.000516
      3          8           0        0.394969    1.055992   -0.000404
      4          6           0        0.192225   -1.223558   -0.000182
      5          6           0       -1.078439   -0.701230    0.000128
      6          1           0       -1.645744    1.467494    0.000010
      7          1           0        1.863344   -0.129158   -0.888109
      8          1           0        1.863809   -0.129035    0.886733
      9          1           0       -2.025805   -1.218752    0.000403
 ---------------------------------------------------------------------
                    Distance matrix (angstroms):
                    1          2          3          4          5
     1  C    0.000000
     2  C    2.289035   0.000000
     3  O    1.369300   1.459971   0.000000
     4  C    2.196885   1.483946   2.288548   0.000000
     5  C    1.381866   2.360765   2.293199   1.373832   0.000000
     6  H    1.077751   3.288470   2.081789   3.258817   2.241696
     7  H    3.028564   1.098093   2.085360   2.186039   3.125751
     8  H    3.028607   1.098091   2.085376   2.186045   3.125748
     9  H    2.190280   3.414412   3.321838   2.218035   1.079505
                    6          7          8          9
     6  H    0.000000
     7  H    3.956229   0.000000
     8  H    3.956279   1.774842   0.000000
     9  H    2.712999   4.135474   4.135476   0.000000
 Stoichiometry    C4H4O(1-,4)
 Framework group  CS[SG(C4H2O),X(H2)]
 Deg. of freedom    14
 Full point group                 CS      NOp   2
 Largest Abelian subgroup         CS      NOp   2
 Largest concise Abelian subgroup CS      NOp   2
                         Standard orientation:                         
 ---------------------------------------------------------------------
 Center     Atomic      Atomic             Coordinates (Angstroms)
 Number     Number       Type             X           Y           Z
 ---------------------------------------------------------------------
      1          6           0        0.554750   -0.985641    0.000000
      2          6           0       -0.000000    1.235154   -0.000000
      3          8           0        1.096965    0.271732   -0.000000
      4          6           0       -1.190280    0.348965   -0.000000
      5          6           0       -0.827082   -0.975988    0.000000
      6          1           0        1.256101   -1.803966    0.000000
      7          1           0        0.100169    1.874090    0.887433
      8          1           0        0.100169    1.874090   -0.887433
      9          1           0       -1.456454   -1.853041    0.000000
 ---------------------------------------------------------------------
 Rotational constants (GHZ):      9.7758557      8.2532055      4.6045632
 Leave Link  202 at Fri Mar  8 00:01:29 2019, MaxMem=    33554432 cpu:         0.0
 (Enter /home/proyectos/fulerenos/M3C-v2.0/M3C-deps_CCC/g09-AM64L-G09RevC.01/l301.exe)
 Standard basis: 6-311++G(3df,2p) (5D, 7F)
 Ernie: Thresh=  0.10000D-02 Tol=  0.10000D-05 Strict=F.
 There are   181 symmetry adapted cartesian basis functions of A'  symmetry.
 There are    84 symmetry adapted cartesian basis functions of A"  symmetry.
 There are   156 symmetry adapted basis functions of A'  symmetry.
 There are    79 symmetry adapted basis functions of A"  symmetry.
   235 basis functions,   338 primitive gaussians,   265 cartesian basis functions
    20 alpha electrons       17 beta electrons
       nuclear repulsion energy       157.9323199413 Hartrees.
 IExCor=  402 DFT=T Ex+Corr=B3LYP ExCW=0 ScaHFX=  0.200000
 ScaDFX=  0.800000  0.720000  1.000000  0.810000 ScalE2=  1.000000  1.000000
 IRadAn=      0 IRanWt=     -1 IRanGd=            0 ICorTp=0 IEmpDi=  4
 NAtoms=    9 NActive=    9 NUniq=    8 SFac= 1.27D+00 NAtFMM=   60 NAOKFM=F Big=F
 Integral buffers will be    131072 words long.
 Raffenetti 2 integral format.
 Two-electron integral symmetry is turned on.
 Leave Link  301 at Fri Mar  8 00:01:29 2019, MaxMem=    33554432 cpu:         0.2
 (Enter /home/proyectos/fulerenos/M3C-v2.0/M3C-deps_CCC/g09-AM64L-G09RevC.01/l302.exe)
 NPDir=0 NMtPBC=     1 NCelOv=     1 NCel=       1 NClECP=     1 NCelD=      1
         NCelK=      1 NCelE2=     1 NClLst=     1 CellRange=     0.0.
 One-electron integrals computed using PRISM.
 One-electron integral symmetry used in STVInt
 NBasis=   235 RedAO= T EigKep=  1.10D-05  NBF=   156    79
 NBsUse=   235 1.00D-06 EigRej= -1.00D+00 NBFU=   156    79
 Precomputing XC quadrature grid using
 IXCGrd= 4 IRadAn=           0 IRanWt=          -1 IRanGd=           0 AccXCQ= 0.00D+00.
 Generated NRdTot=       0 NPtTot=           0 NUsed=           0 NTot=          32
 NSgBfM=   265   265   265   265   265 MxSgAt=     9 MxSgA2=     9.
 Leave Link  302 at Fri Mar  8 00:01:29 2019, MaxMem=    33554432 cpu:         0.9
 (Enter /home/proyectos/fulerenos/M3C-v2.0/M3C-deps_CCC/g09-AM64L-G09RevC.01/l303.exe)
 DipDrv:  MaxL=1.
 Leave Link  303 at Fri Mar  8 00:01:30 2019, MaxMem=    33554432 cpu:         0.1
 (Enter /home/proyectos/fulerenos/M3C-v2.0/M3C-deps_CCC/g09-AM64L-G09RevC.01/l401.exe)
 ExpMin= 3.60D-02 ExpMax= 8.59D+03 ExpMxC= 1.30D+03 IAcc=3 IRadAn=         5 AccDes= 0.00D+00
 Harris functional with IExCor=  402 and IRadAn=       5 diagonalized for initial guess.
 HarFok:  IExCor=  402 AccDes= 0.00D+00 IRadAn=         5 IDoV= 1 UseB2=F ITyADJ=14
 ICtDFT=  3500011 ScaDFX=  1.000000  1.000000  1.000000  1.000000
 FoFCou: FMM=F IPFlag=           0 FMFlag=      100000 FMFlg1=           0
         NFxFlg=           0 DoJE=T BraDBF=F KetDBF=T FulRan=T
         wScrn=  0.000000 ICntrl=     500 IOpCl=  0 I1Cent=   200000004 NGrid=           0
         NMat0=    1 NMatS0=      1 NMatT0=    0 NMatD0=    1 NMtDS0=    0 NMtDT0=    0
 Petite list used in FoFCou.
 Harris En= -230.018733433369    
 JPrj=0 DoOrth=F DoCkMO=F.
 Initial guess orbital symmetries:
 Alpha Orbitals:
       Occupied  (A') (A') (A') (A') (A') (A') (A') (A') (A') (A')
                 (A') (A") (A') (A') (A') (A") (A") (A') (A") (A")
       Virtual   (A') (A') (A') (A') (A") (A') (A') (A") (A') (A')
                 (A") (A') (A') (A') (A') (A') (A') (A") (A") (A')
                 (A") (A') (A') (A') (A') (A") (A') (A') (A') (A')
                 (A') (A') (A") (A') (A") (A') (A') (A") (A') (A")
                 (A') (A") (A') (A") (A') (A') (A') (A") (A') (A')
                 (A") (A') (A") (A') (A") (A') (A") (A') (A') (A')
                 (A') (A') (A") (A') (A") (A') (A') (A") (A') (A')
                 (A") (A') (A") (A') (A') (A") (A') (A') (A") (A')
                 (A") (A') (A") (A') (A") (A') (A') (A') (A') (A")
                 (A") (A') (A') (A') (A") (A') (A") (A') (A') (A')
                 (A') (A") (A') (A') (A") (A") (A') (A') (A") (A')
                 (A') (A') (A') (A') (A") (A') (A") (A') (A") (A")
                 (A') (A') (A") (A") (A") (A') (A") (A') (A") (A')
                 (A") (A') (A') (A') (A") (A') (A") (A') (A') (A')
                 (A') (A') (A") (A') (A') (A") (A") (A') (A') (A')
                 (A') (A") (A') (A") (A') (A') (A") (A') (A') (A')
                 (A") (A") (A') (A") (A') (A') (A") (A") (A') (A')
                 (A") (A') (A') (A") (A') (A') (A") (A') (A") (A')
                 (A") (A') (A') (A') (A') (A") (A") (A") (A') (A')
                 (A') (A") (A") (A') (A") (A") (A') (A') (A') (A')
                 (A") (A') (A') (A') (A') (A") (A") (A') (A') (A')
                 (A') (A') (A') (A') (A')
 Beta  Orbitals:
       Occupied  (A') (A') (A') (A') (A') (A') (A') (A') (A') (A')
                 (A') (A") (A') (A') (A') (A") (A")
       Virtual   (A') (A") (A") (A') (A') (A') (A') (A") (A') (A')
                 (A") (A') (A') (A") (A') (A') (A') (A') (A') (A')
                 (A") (A") (A') (A") (A') (A') (A') (A') (A") (A')
                 (A') (A') (A') (A') (A') (A") (A') (A") (A') (A')
                 (A") (A') (A") (A') (A") (A') (A") (A') (A') (A')
                 (A") (A') (A') (A") (A') (A") (A') (A") (A') (A")
                 (A') (A') (A') (A') (A') (A") (A') (A") (A') (A')
                 (A") (A') (A') (A") (A') (A") (A') (A') (A") (A')
                 (A') (A") (A') (A") (A') (A") (A') (A") (A') (A')
                 (A') (A') (A") (A") (A') (A') (A') (A") (A') (A")
                 (A') (A') (A') (A') (A") (A') (A') (A") (A") (A')
                 (A') (A") (A') (A') (A') (A') (A') (A") (A') (A")
                 (A') (A") (A") (A') (A') (A") (A") (A") (A') (A")
                 (A') (A") (A') (A") (A') (A') (A') (A") (A') (A")
                 (A') (A') (A') (A') (A') (A") (A') (A') (A") (A")
                 (A') (A') (A') (A') (A") (A') (A") (A') (A') (A")
                 (A') (A') (A') (A") (A") (A') (A") (A') (A') (A")
                 (A") (A') (A') (A") (A') (A') (A") (A') (A') (A")
                 (A') (A") (A') (A") (A') (A') (A') (A') (A") (A")
                 (A") (A') (A') (A') (A") (A") (A') (A") (A") (A')
                 (A') (A') (A') (A") (A') (A') (A') (A') (A") (A")
                 (A') (A') (A') (A') (A') (A') (A') (A')
 The electronic state of the initial guess is 4-A'.
 Initial guess <Sx>= 0.0000 <Sy>= 0.0000 <Sz>= 1.5000 <S**2>= 3.7500 S= 1.5000
 Leave Link  401 at Fri Mar  8 00:01:34 2019, MaxMem=    33554432 cpu:         9.1
 (Enter /home/proyectos/fulerenos/M3C-v2.0/M3C-deps_CCC/g09-AM64L-G09RevC.01/l502.exe)
 UHF open shell SCF:
 Using DIIS extrapolation, IDIIS=  1040.
 Integral symmetry usage will be decided dynamically.
 IVT=      233035 IEndB=      233035 NGot=    33554432 MDV=    33408528
 LenX=    33408528 LenY=    33337862
 Requested convergence on RMS density matrix=1.00D-08 within 128 cycles.
 Requested convergence on MAX density matrix=1.00D-06.
 Requested convergence on             energy=1.00D-06.
 No special actions if energy rises.
 Fock matrices will be formed incrementally for  20 cycles.

 Cycle   1  Pass 1  IDiag  1:
 FoFJK:  IHMeth= 1 ICntrl=       0 DoSepK=F KAlg= 0 I1Cent=   0 FoldK=F
 IRaf= 990000000 NMat=   1 IRICut=       1 DoRegI=T DoRafI=F ISym2E= 1.
 FoFCou: FMM=F IPFlag=           0 FMFlag=      100000 FMFlg1=           0
         NFxFlg=           0 DoJE=F BraDBF=F KetDBF=F FulRan=T
         wScrn=  0.000000 ICntrl=       0 IOpCl=  1 I1Cent=           0 NGrid=           0
         NMat0=    1 NMatS0=      1 NMatT0=    0 NMatD0=    1 NMtDS0=    0 NMtDT0=    0
 Petite list used in FoFCou.
 E= -229.621249906333    
 DIIS: error= 3.04D-02 at cycle   1 NSaved=   1.
 NSaved= 1 IEnMin= 1 EnMin= -229.621249906333     IErMin= 1 ErrMin= 3.04D-02
 ErrMax= 3.04D-02  0.00D+00 EMaxC= 1.00D-01 BMatC= 9.37D-01 BMatP= 9.37D-01
 IDIUse=3 WtCom= 6.96D-01 WtEn= 3.04D-01
 Coeff-Com:  0.100D+01
 Coeff-En:   0.100D+01
 Coeff:      0.100D+01
 Gap=     0.067 Goal=   None    Shift=    0.000
 Gap=     0.096 Goal=   None    Shift=    0.000
 GapD=    0.067 DampG=0.500 DampE=0.500 DampFc=0.2500 IDamp=-1.
 Damping current iteration by 2.50D-01
 RMSDP=2.04D+00 MaxDP=2.83D+02              OVMax= 9.70D-01

 Cycle   2  Pass 1  IDiag  1:
 RMSU=  5.08D-01    CP:  3.00D+00
 E= -229.691804521408     Delta-E=       -0.070554615074 Rises=F Damp=T
 DIIS: error= 1.13D-02 at cycle   2 NSaved=   2.
 NSaved= 2 IEnMin= 2 EnMin= -229.691804521408     IErMin= 2 ErrMin= 1.13D-02
 ErrMax= 1.13D-02  0.00D+00 EMaxC= 1.00D-01 BMatC= 1.23D-01 BMatP= 9.37D-01
 IDIUse=3 WtCom= 8.87D-01 WtEn= 1.13D-01
 Coeff-Com: -0.247D+00 0.125D+01
 Coeff-En:   0.266D+00 0.734D+00
 Coeff:     -0.189D+00 0.119D+01
 Gap=     0.026 Goal=   None    Shift=    0.000
 Gap=     0.039 Goal=   None    Shift=    0.000
 RMSDP=4.07D-01 MaxDP=4.97D+01 DE=-7.06D-02 OVMax= 7.01D-01

 Cycle   3  Pass 1  IDiag  1:
 RMSU=  3.46D-01    CP:  2.81D+00  5.78D-01
 E= -229.927297154817     Delta-E=       -0.235492633409 Rises=F Damp=F
 DIIS: error= 8.99D-03 at cycle   3 NSaved=   3.
 NSaved= 3 IEnMin= 3 EnMin= -229.927297154817     IErMin= 3 ErrMin= 8.99D-03
 ErrMax= 8.99D-03  0.00D+00 EMaxC= 1.00D-01 BMatC= 5.26D-02 BMatP= 1.23D-01
 IDIUse=3 WtCom= 9.10D-01 WtEn= 8.99D-02
 Coeff-Com: -0.115D+00 0.530D+00 0.585D+00
 Coeff-En:   0.000D+00 0.000D+00 0.100D+01
 Coeff:     -0.104D+00 0.482D+00 0.622D+00
 Gap=     0.008 Goal=   None    Shift=    0.000
 Gap=     0.143 Goal=   None    Shift=    0.000
 RMSDP=3.23D-01 MaxDP=4.05D+01 DE=-2.35D-01 OVMax= 5.71D-01

 Cycle   4  Pass 1  IDiag  1:
 RMSU=  2.28D-01    CP:  1.97D+00  4.33D-01  3.76D-01
 E= -229.943415723185     Delta-E=       -0.016118568368 Rises=F Damp=F
 DIIS: error= 7.69D-03 at cycle   4 NSaved=   4.
 NSaved= 4 IEnMin= 4 EnMin= -229.943415723185     IErMin= 4 ErrMin= 7.69D-03
 ErrMax= 7.69D-03  0.00D+00 EMaxC= 1.00D-01 BMatC= 2.11D-02 BMatP= 5.26D-02
 IDIUse=3 WtCom= 9.23D-01 WtEn= 7.69D-02
 Coeff-Com: -0.541D-01 0.206D+00 0.367D+00 0.481D+00
 Coeff-En:   0.000D+00 0.000D+00 0.155D+00 0.845D+00
 Coeff:     -0.499D-01 0.190D+00 0.351D+00 0.509D+00
 Gap=     0.020 Goal=   None    Shift=    0.000
 Gap=     0.158 Goal=   None    Shift=    0.000
 RMSDP=5.87D-02 MaxDP=1.34D+01 DE=-1.61D-02 OVMax= 1.52D-01

 Cycle   5  Pass 1  IDiag  1:
 RMSU=  2.47D-02    CP:  1.90D+00  4.01D-01  4.65D-01  8.23D-01
 E= -229.949114188741     Delta-E=       -0.005698465557 Rises=F Damp=F
 DIIS: error= 3.76D-03 at cycle   5 NSaved=   5.
 NSaved= 5 IEnMin= 5 EnMin= -229.949114188741     IErMin= 5 ErrMin= 3.76D-03
 ErrMax= 3.76D-03  0.00D+00 EMaxC= 1.00D-01 BMatC= 5.11D-03 BMatP= 2.11D-02
 IDIUse=3 WtCom= 9.62D-01 WtEn= 3.76D-02
 Coeff-Com: -0.253D-01 0.680D-01 0.136D+00 0.324D+00 0.497D+00
 Coeff-En:   0.000D+00 0.000D+00 0.000D+00 0.151D+00 0.849D+00
 Coeff:     -0.244D-01 0.654D-01 0.131D+00 0.317D+00 0.510D+00
 Gap=     0.023 Goal=   None    Shift=    0.000
 Gap=     0.156 Goal=   None    Shift=    0.000
 RMSDP=5.14D-02 MaxDP=5.38D+00 DE=-5.70D-03 OVMax= 7.01D-02

 Cycle   6  Pass 1  IDiag  1:
 RMSU=  1.89D-02    CP:  1.68D+00  3.42D-01  3.67D-01  8.86D-01  8.55D-01
 E= -229.950687387619     Delta-E=       -0.001573198878 Rises=F Damp=F
 DIIS: error= 9.85D-04 at cycle   6 NSaved=   6.
 NSaved= 6 IEnMin= 6 EnMin= -229.950687387619     IErMin= 6 ErrMin= 9.85D-04
 ErrMax= 9.85D-04  0.00D+00 EMaxC= 1.00D-01 BMatC= 6.59D-04 BMatP= 5.11D-03
 IDIUse=3 WtCom= 9.90D-01 WtEn= 9.85D-03
 Coeff-Com: -0.274D-02 0.344D-02-0.166D-01 0.312D-01 0.254D+00 0.731D+00
 Coeff-En:   0.000D+00 0.000D+00 0.000D+00 0.000D+00 0.000D+00 0.100D+01
 Coeff:     -0.271D-02 0.341D-02-0.164D-01 0.309D-01 0.251D+00 0.734D+00
 Gap=     0.025 Goal=   None    Shift=    0.000
 Gap=     0.162 Goal=   None    Shift=    0.000
 RMSDP=2.52D-02 MaxDP=2.57D+00 DE=-1.57D-03 OVMax= 2.34D-02

 Cycle   7  Pass 1  IDiag  1:
 RMSU=  2.94D-03    CP:  1.57D+00  3.09D-01  3.24D-01  8.93D-01  8.60D-01
                    CP:  1.57D+00
 E= -229.950991889375     Delta-E=       -0.000304501756 Rises=F Damp=F
 DIIS: error= 5.38D-04 at cycle   7 NSaved=   7.
 NSaved= 7 IEnMin= 7 EnMin= -229.950991889375     IErMin= 7 ErrMin= 5.38D-04
 ErrMax= 5.38D-04  0.00D+00 EMaxC= 1.00D-01 BMatC= 1.66D-04 BMatP= 6.59D-04
 IDIUse=3 WtCom= 9.95D-01 WtEn= 5.38D-03
 Coeff-Com:  0.457D-02-0.114D-01-0.312D-01-0.657D-01-0.230D-01 0.366D+00
 Coeff-Com:  0.761D+00
 Coeff-En:   0.000D+00 0.000D+00 0.000D+00 0.000D+00 0.000D+00 0.000D+00
 Coeff-En:   0.100D+01
 Coeff:      0.455D-02-0.113D-01-0.310D-01-0.654D-01-0.229D-01 0.364D+00
 Coeff:      0.762D+00
 Gap=     0.025 Goal=   None    Shift=    0.000
 Gap=     0.162 Goal=   None    Shift=    0.000
 RMSDP=2.60D-02 MaxDP=2.84D+00 DE=-3.05D-04 OVMax= 2.25D-02

 Cycle   8  Pass 1  IDiag  1:
 RMSU=  2.20D-03    CP:  1.46D+00  2.73D-01  2.84D-01  8.95D-01  8.69D-01
                    CP:  2.23D+00  1.48D+00
 E= -229.951070157606     Delta-E=       -0.000078268232 Rises=F Damp=F
 DIIS: error= 3.40D-04 at cycle   8 NSaved=   8.
 NSaved= 8 IEnMin= 8 EnMin= -229.951070157606     IErMin= 8 ErrMin= 3.40D-04
 ErrMax= 3.40D-04  0.00D+00 EMaxC= 1.00D-01 BMatC= 7.19D-05 BMatP= 1.66D-04
 IDIUse=3 WtCom= 9.97D-01 WtEn= 3.40D-03
 Coeff-Com:  0.289D-02-0.309D-02-0.912D-02-0.485D-01-0.741D-01 0.723D-01
 Coeff-Com:  0.497D+00 0.563D+00
 Coeff-En:   0.000D+00 0.000D+00 0.000D+00 0.000D+00 0.000D+00 0.000D+00
 Coeff-En:   0.000D+00 0.100D+01
 Coeff:      0.288D-02-0.308D-02-0.909D-02-0.484D-01-0.739D-01 0.720D-01
 Coeff:      0.495D+00 0.564D+00
 Gap=     0.025 Goal=   None    Shift=    0.000
 Gap=     0.162 Goal=   None    Shift=    0.000
 RMSDP=1.15D-02 MaxDP=1.30D+00 DE=-7.83D-05 OVMax= 9.76D-03

 Cycle   9  Pass 1  IDiag  1:
 RMSU=  3.00D-04    CP:  1.42D+00  2.58D-01  2.67D-01  8.96D-01  8.67D-01
                    CP:  2.54D+00  1.69D+00  1.69D+00
 E= -229.951093784004     Delta-E=       -0.000023626398 Rises=F Damp=F
 DIIS: error= 1.15D-04 at cycle   9 NSaved=   9.
 NSaved= 9 IEnMin= 9 EnMin= -229.951093784004     IErMin= 9 ErrMin= 1.15D-04
 ErrMax= 1.15D-04  0.00D+00 EMaxC= 1.00D-01 BMatC= 6.57D-06 BMatP= 7.19D-05
 IDIUse=3 WtCom= 9.99D-01 WtEn= 1.15D-03
 Coeff-Com:  0.105D-02-0.931D-03 0.132D-02-0.920D-02-0.218D-01-0.522D-01
 Coeff-Com:  0.868D-02 0.217D+00 0.857D+00
 Coeff-En:   0.000D+00 0.000D+00 0.000D+00 0.000D+00 0.000D+00 0.000D+00
 Coeff-En:   0.000D+00 0.000D+00 0.100D+01
 Coeff:      0.105D-02-0.930D-03 0.132D-02-0.919D-02-0.218D-01-0.522D-01
 Coeff:      0.867D-02 0.216D+00 0.857D+00
 Gap=     0.025 Goal=   None    Shift=    0.000
 Gap=     0.163 Goal=   None    Shift=    0.000
 RMSDP=1.09D-02 MaxDP=1.18D+00 DE=-2.36D-05 OVMax= 8.06D-03

 Cycle  10  Pass 1  IDiag  1:
 RMSU=  3.20D-04    CP:  1.37D+00  2.42D-01  2.55D-01  8.89D-01  9.16D-01
                    CP:  2.83D+00  1.85D+00  2.58D+00  2.12D+00
 E= -229.951100368637     Delta-E=       -0.000006584633 Rises=F Damp=F
 DIIS: error= 6.21D-05 at cycle  10 NSaved=  10.
 NSaved=10 IEnMin=10 EnMin= -229.951100368637     IErMin=10 ErrMin= 6.21D-05
 ErrMax= 6.21D-05  0.00D+00 EMaxC= 1.00D-01 BMatC= 8.74D-07 BMatP= 6.57D-06
 IDIUse=1 WtCom= 1.00D+00 WtEn= 0.00D+00
 Coeff-Com: -0.169D-03 0.342D-03 0.146D-02 0.224D-02-0.157D-02-0.200D-01
 Coeff-Com: -0.512D-01 0.331D-02 0.282D+00 0.784D+00
 Coeff:     -0.169D-03 0.342D-03 0.146D-02 0.224D-02-0.157D-02-0.200D-01
 Coeff:     -0.512D-01 0.331D-02 0.282D+00 0.784D+00
 Gap=     0.025 Goal=   None    Shift=    0.000
 Gap=     0.163 Goal=   None    Shift=    0.000
 RMSDP=4.55D-03 MaxDP=5.31D-01 DE=-6.58D-06 OVMax= 3.81D-03

 Cycle  11  Pass 1  IDiag  1:
 RMSU=  9.85D-05    CP:  1.36D+00  2.36D-01  2.49D-01  8.89D-01  9.15D-01
                    CP:  2.96D+00  1.90D+00  2.98D+00  2.82D+00  1.19D+00
 E= -229.951101534590     Delta-E=       -0.000001165953 Rises=F Damp=F
 DIIS: error= 2.03D-05 at cycle  11 NSaved=  11.
 NSaved=11 IEnMin=11 EnMin= -229.951101534590     IErMin=11 ErrMin= 2.03D-05
 ErrMax= 2.03D-05  0.00D+00 EMaxC= 1.00D-01 BMatC= 2.61D-07 BMatP= 8.74D-07
 IDIUse=1 WtCom= 1.00D+00 WtEn= 0.00D+00
 Coeff-Com: -0.272D-03 0.313D-03-0.154D-04 0.123D-02 0.146D-03-0.329D-03
 Coeff-Com: -0.191D-01-0.242D-01-0.237D-01 0.356D+00 0.710D+00
 Coeff:     -0.272D-03 0.313D-03-0.154D-04 0.123D-02 0.146D-03-0.329D-03
 Coeff:     -0.191D-01-0.242D-01-0.237D-01 0.356D+00 0.710D+00
 Gap=     0.025 Goal=   None    Shift=    0.000
 Gap=     0.163 Goal=   None    Shift=    0.000
 RMSDP=3.26D-03 MaxDP=3.58D-01 DE=-1.17D-06 OVMax= 2.27D-03

 Cycle  12  Pass 1  IDiag  1:
 RMSU=  1.19D-03    CP:  1.34D+00  2.31D-01  2.46D-01  8.87D-01  9.30D-01
                    CP:  3.00D+00  1.90D+00  3.00D+00  3.00D+00  1.60D+00
                    CP:  1.71D+00
 E= -229.951101901116     Delta-E=       -0.000000366526 Rises=F Damp=F
 DIIS: error= 1.76D-05 at cycle  12 NSaved=  12.
 NSaved=12 IEnMin=12 EnMin= -229.951101901116     IErMin=12 ErrMin= 1.76D-05
 ErrMax= 1.76D-05  0.00D+00 EMaxC= 1.00D-01 BMatC= 8.69D-08 BMatP= 2.61D-07
 IDIUse=1 WtCom= 1.00D+00 WtEn= 0.00D+00
 Coeff-Com: -0.172D-03 0.293D-03-0.457D-03-0.824D-03-0.104D-02 0.405D-02
 Coeff-Com:  0.122D-01-0.364D-02-0.770D-01-0.871D-01 0.352D+00 0.802D+00
 Coeff:     -0.172D-03 0.293D-03-0.457D-03-0.824D-03-0.104D-02 0.405D-02
 Coeff:      0.122D-01-0.364D-02-0.770D-01-0.871D-01 0.352D+00 0.802D+00
 Gap=     0.025 Goal=   None    Shift=    0.000
 Gap=     0.163 Goal=   None    Shift=    0.000
 RMSDP=2.13D-03 MaxDP=2.33D-01 DE=-3.67D-07 OVMax= 1.39D-03

 Cycle  13  Pass 1  IDiag  1:
 RMSU=  2.16D-04    CP:  1.33D+00  2.28D-01  2.44D-01  8.85D-01  9.39D-01
                    CP:  3.00D+00  1.90D+00  3.00D+00  3.00D+00  1.86D+00
                    CP:  2.31D+00  2.01D+00
 E= -229.951102032913     Delta-E=       -0.000000131797 Rises=F Damp=F
 DIIS: error= 8.83D-06 at cycle  13 NSaved=  13.
 NSaved=13 IEnMin=13 EnMin= -229.951102032913     IErMin=13 ErrMin= 8.83D-06
 ErrMax= 8.83D-06  0.00D+00 EMaxC= 1.00D-01 BMatC= 1.61D-08 BMatP= 8.69D-08
 IDIUse=1 WtCom= 1.00D+00 WtEn= 0.00D+00
 Coeff-Com: -0.249D-04 0.550D-04-0.421D-03-0.103D-02-0.625D-03 0.274D-02
 Coeff-Com:  0.136D-01 0.653D-02-0.291D-01-0.170D+00-0.148D-01 0.189D+00
 Coeff-Com:  0.100D+01
 Coeff:     -0.249D-04 0.550D-04-0.421D-03-0.103D-02-0.625D-03 0.274D-02
 Coeff:      0.136D-01 0.653D-02-0.291D-01-0.170D+00-0.148D-01 0.189D+00
 Coeff:      0.100D+01
 Gap=     0.025 Goal=   None    Shift=    0.000
 Gap=     0.163 Goal=   None    Shift=    0.000
 RMSDP=1.60D-03 MaxDP=1.82D-01 DE=-1.32D-07 OVMax= 1.05D-03

 Cycle  14  Pass 1  IDiag  1:
 RMSU=  1.20D-05    CP:  1.33D+00  2.26D-01  2.42D-01  8.85D-01  9.42D-01
                    CP:  3.00D+00  1.89D+00  3.00D+00  3.00D+00  2.01D+00
                    CP:  2.89D+00  2.78D+00  1.79D+00
 E= -229.951102081575     Delta-E=       -0.000000048662 Rises=F Damp=F
 DIIS: error= 1.48D-06 at cycle  14 NSaved=  14.
 NSaved=14 IEnMin=14 EnMin= -229.951102081575     IErMin=14 ErrMin= 1.48D-06
 ErrMax= 1.48D-06  0.00D+00 EMaxC= 1.00D-01 BMatC= 1.02D-09 BMatP= 1.61D-08
 IDIUse=1 WtCom= 1.00D+00 WtEn= 0.00D+00
 Coeff-Com:  0.231D-04-0.376D-04 0.605D-05-0.710D-04 0.512D-04-0.225D-03
 Coeff-Com: -0.666D-03 0.259D-02 0.533D-02 0.562D-02-0.461D-01-0.101D+00
 Coeff-Com:  0.228D-01 0.111D+01
 Coeff:      0.231D-04-0.376D-04 0.605D-05-0.710D-04 0.512D-04-0.225D-03
 Coeff:     -0.666D-03 0.259D-02 0.533D-02 0.562D-02-0.461D-01-0.101D+00
 Coeff:      0.228D-01 0.111D+01
 Gap=     0.025 Goal=   None    Shift=    0.000
 Gap=     0.163 Goal=   None    Shift=    0.000
 RMSDP=6.28D-04 MaxDP=7.02D-02 DE=-4.87D-08 OVMax= 4.16D-04

 Cycle  15  Pass 1  IDiag  1:
 RMSU=  9.41D-05    CP:  1.33D+00  2.25D-01  2.41D-01  8.84D-01  9.44D-01
                    CP:  3.00D+00  1.89D+00  3.00D+00  3.00D+00  2.06D+00
                    CP:  3.00D+00  3.00D+00  2.07D+00  2.24D+00
 E= -229.951102087408     Delta-E=       -0.000000005833 Rises=F Damp=F
 DIIS: error= 7.94D-07 at cycle  15 NSaved=  15.
 NSaved=15 IEnMin=15 EnMin= -229.951102087408     IErMin=15 ErrMin= 7.94D-07
 ErrMax= 7.94D-07  0.00D+00 EMaxC= 1.00D-01 BMatC= 1.92D-10 BMatP= 1.02D-09
 IDIUse=1 WtCom= 1.00D+00 WtEn= 0.00D+00
 Coeff-Com:  0.102D-04-0.128D-04 0.471D-04 0.449D-04 0.584D-04-0.165D-03
 Coeff-Com: -0.821D-03-0.800D-03 0.734D-03 0.165D-01-0.417D-02-0.273D-01
 Coeff-Com: -0.106D+00-0.104D-02 0.112D+01
 Coeff:      0.102D-04-0.128D-04 0.471D-04 0.449D-04 0.584D-04-0.165D-03
 Coeff:     -0.821D-03-0.800D-03 0.734D-03 0.165D-01-0.417D-02-0.273D-01
 Coeff:     -0.106D+00-0.104D-02 0.112D+01
 Gap=     0.025 Goal=   None    Shift=    0.000
 Gap=     0.163 Goal=   None    Shift=    0.000
 RMSDP=2.44D-04 MaxDP=2.76D-02 DE=-5.83D-09 OVMax= 1.63D-04

 Cycle  16  Pass 1  IDiag  1:
 RMSU=  9.01D-06    CP:  1.32D+00  2.25D-01  2.41D-01  8.84D-01  9.45D-01
                    CP:  3.00D+00  1.89D+00  3.00D+00  3.00D+00  2.08D+00
                    CP:  3.00D+00  3.00D+00  2.19D+00  2.77D+00  2.47D+00
 E= -229.951102088046     Delta-E=       -0.000000000638 Rises=F Damp=F
 DIIS: error= 1.68D-07 at cycle  16 NSaved=  16.
 NSaved=16 IEnMin=16 EnMin= -229.951102088046     IErMin=16 ErrMin= 1.68D-07
 ErrMax= 1.68D-07  0.00D+00 EMaxC= 1.00D-01 BMatC= 1.47D-11 BMatP= 1.92D-10
 IDIUse=1 WtCom= 1.00D+00 WtEn= 0.00D+00
 Coeff-Com:  0.848D-06-0.693D-06 0.552D-05-0.991D-06-0.765D-05 0.769D-05
 Coeff-Com:  0.377D-04-0.231D-03-0.464D-03 0.148D-02 0.237D-02 0.564D-02
 Coeff-Com:  0.936D-04-0.834D-01 0.184D-01 0.106D+01
 Coeff:      0.848D-06-0.693D-06 0.552D-05-0.991D-06-0.765D-05 0.769D-05
 Coeff:      0.377D-04-0.231D-03-0.464D-03 0.148D-02 0.237D-02 0.564D-02
 Coeff:      0.936D-04-0.834D-01 0.184D-01 0.106D+01
 Gap=     0.025 Goal=   None    Shift=    0.000
 Gap=     0.163 Goal=   None    Shift=    0.000
 RMSDP=1.70D-05 MaxDP=1.96D-03 DE=-6.38D-10 OVMax= 1.39D-05

 Cycle  17  Pass 1  IDiag  1:
 RMSU=  6.01D-07    CP:  1.32D+00  2.25D-01  2.41D-01  8.84D-01  9.45D-01
                    CP:  3.00D+00  1.89D+00  3.00D+00  3.00D+00  2.08D+00
                    CP:  3.00D+00  3.00D+00  2.20D+00  2.85D+00  2.57D+00
                    CP:  1.06D+00
 E= -229.951102088061     Delta-E=       -0.000000000014 Rises=F Damp=F
 DIIS: error= 4.08D-08 at cycle  17 NSaved=  17.
 NSaved=17 IEnMin=17 EnMin= -229.951102088061     IErMin=17 ErrMin= 4.08D-08
 ErrMax= 4.08D-08  0.00D+00 EMaxC= 1.00D-01 BMatC= 8.77D-13 BMatP= 1.47D-11
 IDIUse=1 WtCom= 1.00D+00 WtEn= 0.00D+00
 Coeff-Com: -0.338D-06 0.396D-06-0.888D-06-0.409D-06 0.261D-05-0.538D-05
 Coeff-Com:  0.277D-07 0.444D-04 0.134D-03-0.304D-03-0.574D-03-0.739D-03
 Coeff-Com:  0.687D-02 0.185D-01-0.550D-01-0.165D+00 0.120D+01
 Coeff:     -0.338D-06 0.396D-06-0.888D-06-0.409D-06 0.261D-05-0.538D-05
 Coeff:      0.277D-07 0.444D-04 0.134D-03-0.304D-03-0.574D-03-0.739D-03
 Coeff:      0.687D-02 0.185D-01-0.550D-01-0.165D+00 0.120D+01
 Gap=     0.025 Goal=   None    Shift=    0.000
 Gap=     0.163 Goal=   None    Shift=    0.000
 RMSDP=7.77D-06 MaxDP=8.94D-04 DE=-1.44D-11 OVMax= 4.13D-06

 Cycle  18  Pass 1  IDiag  1:
 RMSU=  1.02D-07    CP:  1.32D+00  2.25D-01  2.41D-01  8.84D-01  9.45D-01
                    CP:  3.00D+00  1.89D+00  3.00D+00  3.00D+00  2.08D+00
                    CP:  3.00D+00  3.00D+00  2.19D+00  2.83D+00  2.52D+00
                    CP:  1.03D+00  1.60D+00
 E= -229.951102088065     Delta-E=       -0.000000000004 Rises=F Damp=F
 DIIS: error= 1.26D-08 at cycle  18 NSaved=  18.
 NSaved=18 IEnMin=18 EnMin= -229.951102088065     IErMin=18 ErrMin= 1.26D-08
 ErrMax= 1.26D-08  0.00D+00 EMaxC= 1.00D-01 BMatC= 6.85D-14 BMatP= 8.77D-13
 IDIUse=1 WtCom= 1.00D+00 WtEn= 0.00D+00
 Coeff-Com: -0.139D-06 0.200D-06-0.359D-06-0.576D-06 0.439D-06 0.420D-06
 Coeff-Com:  0.136D-05 0.127D-04 0.681D-05-0.529D-04-0.193D-03-0.643D-03
 Coeff-Com:  0.856D-04 0.558D-02-0.869D-02-0.629D-01 0.563D-01 0.101D+01
 Coeff:     -0.139D-06 0.200D-06-0.359D-06-0.576D-06 0.439D-06 0.420D-06
 Coeff:      0.136D-05 0.127D-04 0.681D-05-0.529D-04-0.193D-03-0.643D-03
 Coeff:      0.856D-04 0.558D-02-0.869D-02-0.629D-01 0.563D-01 0.101D+01
 Gap=     0.025 Goal=   None    Shift=    0.000
 Gap=     0.163 Goal=   None    Shift=    0.000
 RMSDP=2.51D-06 MaxDP=2.76D-04 DE=-4.09D-12 OVMax= 2.20D-06

 Cycle  19  Pass 1  IDiag  1:
 RMSU=  1.92D-08    CP:  1.32D+00  2.25D-01  2.41D-01  8.84D-01  9.45D-01
                    CP:  3.00D+00  1.89D+00  3.00D+00  3.00D+00  2.08D+00
                    CP:  3.00D+00  3.00D+00  2.20D+00  2.83D+00  2.54D+00
                    CP:  1.05D+00  1.76D+00  1.56D+00
 E= -229.951102088058     Delta-E=        0.000000000006 Rises=F Damp=F
 DIIS: error= 3.32D-09 at cycle  19 NSaved=  19.
 NSaved=19 IEnMin=18 EnMin= -229.951102088065     IErMin=19 ErrMin= 3.32D-09
 ErrMax= 3.32D-09  0.00D+00 EMaxC= 1.00D-01 BMatC= 5.51D-15 BMatP= 6.85D-14
 IDIUse=1 WtCom= 1.00D+00 WtEn= 0.00D+00
 Coeff-Com:  0.891D-08-0.145D-07 0.343D-07-0.171D-06-0.263D-06 0.387D-06
 Coeff-Com:  0.469D-06-0.165D-05-0.150D-04 0.442D-04 0.708D-05-0.462D-04
 Coeff-Com: -0.787D-03-0.846D-03 0.451D-02 0.100D-01-0.131D+00 0.769D-01
 Coeff-Com:  0.104D+01
 Coeff:      0.891D-08-0.145D-07 0.343D-07-0.171D-06-0.263D-06 0.387D-06
 Coeff:      0.469D-06-0.165D-05-0.150D-04 0.442D-04 0.708D-05-0.462D-04
 Coeff:     -0.787D-03-0.846D-03 0.451D-02 0.100D-01-0.131D+00 0.769D-01
 Coeff:      0.104D+01
 Gap=     0.025 Goal=   None    Shift=    0.000
 Gap=     0.163 Goal=   None    Shift=    0.000
 RMSDP=4.54D-07 MaxDP=4.41D-05 DE= 6.48D-12 OVMax= 5.61D-07

 Cycle  20  Pass 1  IDiag  1:
 RMSU=  9.46D-09    CP:  1.32D+00  2.25D-01  2.41D-01  8.84D-01  9.45D-01
                    CP:  3.00D+00  1.89D+00  3.00D+00  3.00D+00  2.08D+00
                    CP:  3.00D+00  3.00D+00  2.20D+00  2.82D+00  2.54D+00
                    CP:  1.05D+00  1.82D+00  1.82D+00  1.79D+00
 E= -229.951102088058     Delta-E=        0.000000000000 Rises=F Damp=F
 DIIS: error= 9.37D-10 at cycle  20 NSaved=  20.
 NSaved=20 IEnMin=18 EnMin= -229.951102088065     IErMin=20 ErrMin= 9.37D-10
 ErrMax= 9.37D-10  0.00D+00 EMaxC= 1.00D-01 BMatC= 4.06D-16 BMatP= 5.51D-15
 IDIUse=1 WtCom= 1.00D+00 WtEn= 0.00D+00
 Large coefficients: NSaved= 20 BigCof=    0.00 CofMax=   10.00 Det=-1.16D-15
 Inversion failed.  Reducing to 19 matrices.
 Large coefficients: NSaved= 19 BigCof=    0.00 CofMax=   10.00 Det=-1.17D-15
 Inversion failed.  Reducing to 18 matrices.
 Large coefficients: NSaved= 18 BigCof=    0.00 CofMax=   10.00 Det=-1.17D-15
 Inversion failed.  Reducing to 17 matrices.
 Large coefficients: NSaved= 17 BigCof=    0.00 CofMax=   10.00 Det=-1.17D-15
 Inversion failed.  Reducing to 16 matrices.
 Large coefficients: NSaved= 16 BigCof=    0.00 CofMax=   10.00 Det=-1.28D-15
 Inversion failed.  Reducing to 15 matrices.
 Coeff-Com: -0.339D-07 0.645D-07-0.356D-07-0.424D-06-0.396D-05 0.117D-04
 Coeff-Com:  0.556D-04 0.142D-03-0.181D-03-0.505D-03 0.137D-02 0.598D-02
 Coeff-Com: -0.497D-01-0.824D-01 0.113D+01
 Coeff:     -0.339D-07 0.645D-07-0.356D-07-0.424D-06-0.396D-05 0.117D-04
 Coeff:      0.556D-04 0.142D-03-0.181D-03-0.505D-03 0.137D-02 0.598D-02
 Coeff:     -0.497D-01-0.824D-01 0.113D+01
 Gap=     0.025 Goal=   None    Shift=    0.000
 Gap=     0.163 Goal=   None    Shift=    0.000
 RMSDP=1.42D-07 MaxDP=1.69D-05 DE= 1.14D-13 OVMax= 5.91D-08

 Cycle  21  Pass 1  IDiag  1:
 Restarting incremental Fock formation.
 E= -229.951102087982     Delta-E=        0.000000000076 Rises=F Damp=F
 DIIS: error= 5.30D-10 at cycle  21 NSaved=  16.
 NSaved=16 IEnMin=13 EnMin= -229.951102088065     IErMin=16 ErrMin= 5.30D-10
 ErrMax= 5.30D-10  0.00D+00 EMaxC= 1.00D-01 BMatC= 7.25D-17 BMatP= 4.06D-16
 IDIUse=1 WtCom= 1.00D+00 WtEn= 0.00D+00
 Large coefficients: NSaved= 16 BigCof=    0.00 CofMax=   10.00 Det=-1.11D-16
 Inversion failed.  Reducing to 15 matrices.
 Coeff-Com:  0.860D-07 0.578D-07 0.207D-06-0.259D-05 0.254D-05 0.806D-05
 Coeff-Com:  0.590D-04 0.107D-04-0.308D-03 0.310D-03 0.565D-02-0.139D-01
 Coeff-Com: -0.609D-01 0.315D+00 0.754D+00
 Coeff:      0.860D-07 0.578D-07 0.207D-06-0.259D-05 0.254D-05 0.806D-05
 Coeff:      0.590D-04 0.107D-04-0.308D-03 0.310D-03 0.565D-02-0.139D-01
 Coeff:     -0.609D-01 0.315D+00 0.754D+00
 Gap=     0.025 Goal=   None    Shift=    0.000
 Gap=     0.163 Goal=   None    Shift=    0.000
 RMSDP=6.70D-08 MaxDP=7.51D-06 DE= 7.64D-11 OVMax= 2.10D-08

 Cycle  22  Pass 1  IDiag  1:
 RMSU=  6.13D-08    CP:  1.00D+00
 E= -229.951102087978     Delta-E=        0.000000000004 Rises=F Damp=F
 DIIS: error= 1.46D-10 at cycle  22 NSaved=  16.
 NSaved=16 IEnMin=12 EnMin= -229.951102088065     IErMin=16 ErrMin= 1.46D-10
 ErrMax= 1.46D-10  0.00D+00 EMaxC= 1.00D-01 BMatC= 1.13D-17 BMatP= 7.25D-17
 IDIUse=1 WtCom= 1.00D+00 WtEn= 0.00D+00
 Large coefficients: NSaved= 16 BigCof=    0.00 CofMax=   10.00 Det=-2.91D-17
 Inversion failed.  Reducing to 15 matrices.
 Coeff-Com: -0.761D-08 0.148D-06-0.532D-06 0.844D-06-0.484D-06 0.178D-05
 Coeff-Com: -0.558D-05-0.446D-04 0.110D-04 0.115D-02-0.250D-02-0.207D-01
 Coeff-Com: -0.610D-01-0.248D+00 0.133D+01
 Coeff:     -0.761D-08 0.148D-06-0.532D-06 0.844D-06-0.484D-06 0.178D-05
 Coeff:     -0.558D-05-0.446D-04 0.110D-04 0.115D-02-0.250D-02-0.207D-01
 Coeff:     -0.610D-01-0.248D+00 0.133D+01
 Gap=     0.025 Goal=   None    Shift=    0.000
 Gap=     0.163 Goal=   None    Shift=    0.000
 RMSDP=6.18D-08 MaxDP=7.04D-06 DE= 3.75D-12 OVMax= 2.65D-08

 Cycle  23  Pass 1  IDiag  1:
 RMSU=  8.63D-09    CP:  1.00D+00  1.91D+00
 E= -229.951102087982     Delta-E=       -0.000000000004 Rises=F Damp=F
 DIIS: error= 1.16D-10 at cycle  23 NSaved=  16.
 NSaved=16 IEnMin=11 EnMin= -229.951102088065     IErMin=16 ErrMin= 1.16D-10
 ErrMax= 1.16D-10  0.00D+00 EMaxC= 1.00D-01 BMatC= 5.67D-18 BMatP= 1.13D-17
 IDIUse=1 WtCom= 1.00D+00 WtEn= 0.00D+00
 Large coefficients: NSaved= 16 BigCof=    0.00 CofMax=   10.00 Det=-5.92D-18
 Inversion failed.  Reducing to 15 matrices.
 Coeff-Com: -0.240D-08-0.549D-07 0.323D-07-0.153D-05-0.205D-05 0.688D-05
 Coeff-Com:  0.561D-05-0.530D-04 0.362D-03 0.135D-02-0.334D-02-0.282D-01
 Coeff-Com: -0.162D+00 0.630D+00 0.562D+00
 Coeff:     -0.240D-08-0.549D-07 0.323D-07-0.153D-05-0.205D-05 0.688D-05
 Coeff:      0.561D-05-0.530D-04 0.362D-03 0.135D-02-0.334D-02-0.282D-01
 Coeff:     -0.162D+00 0.630D+00 0.562D+00
 Gap=     0.025 Goal=   None    Shift=    0.000
 Gap=     0.163 Goal=   None    Shift=    0.000
 RMSDP=5.50D-09 MaxDP=5.13D-07 DE=-4.09D-12 OVMax= 6.06D-09

 SCF Done:  E(UB3LYP) =  -229.951102088     A.U. after   23 cycles
            NFock= 23  Conv=0.55D-08     -V/T= 2.0038
 <Sx>= 0.0000 <Sy>= 0.0000 <Sz>= 1.5000 <S**2>= 3.7805 S= 1.5076
 <L.S>= 0.000000000000E+00
 KE= 2.290754372016D+02 PE=-8.570499512169D+02 EE= 2.400910919860D+02
 Annihilation of the first spin contaminant:
 S**2 before annihilation     3.7805,   after     3.7502
 Leave Link  502 at Fri Mar  8 00:13:27 2019, MaxMem=    33554432 cpu:      1410.7
 (Enter /home/proyectos/fulerenos/M3C-v2.0/M3C-deps_CCC/g09-AM64L-G09RevC.01/l801.exe)
 DoSCS=F DFT=T ScalE2(SS,OS)=  1.000000  1.000000
 Range of M.O.s used for correlation:     1   235
 NBasis=   235 NAE=    20 NBE=    17 NFC=     0 NFV=     0
 NROrb=    235 NOA=    20 NOB=    17 NVA=   215 NVB=   218

 **** Warning!!: The largest alpha MO coefficient is  0.11955290D+03


 **** Warning!!: The smallest alpha delta epsilon is  0.25136137D-01


 **** Warning!!: The largest beta MO coefficient is  0.11879174D+03

 Leave Link  801 at Fri Mar  8 00:13:27 2019, MaxMem=    33554432 cpu:         0.1
 (Enter /home/proyectos/fulerenos/M3C-v2.0/M3C-deps_CCC/g09-AM64L-G09RevC.01/l1101.exe)
 Using compressed storage, NAtomX=     9.
 Will process     10 centers per pass.
 Leave Link 1101 at Fri Mar  8 00:13:28 2019, MaxMem=    33554432 cpu:         1.1
 (Enter /home/proyectos/fulerenos/M3C-v2.0/M3C-deps_CCC/g09-AM64L-G09RevC.01/l1102.exe)
 Symmetrizing basis deriv contribution to polar:
 IMax=3 JMax=2 DiffMx= 0.00D+00
 Leave Link 1102 at Fri Mar  8 00:13:28 2019, MaxMem=    33554432 cpu:         0.2
 (Enter /home/proyectos/fulerenos/M3C-v2.0/M3C-deps_CCC/g09-AM64L-G09RevC.01/l1110.exe)
 Forming Gx(P) for the SCF density, NAtomX=     9.
 Integral derivatives from FoFJK, PRISM(SPDF).
 Do as many integral derivatives as possible in FoFJK.
 G2DrvN: MDV=      33554256.
 G2DrvN: will do    10 centers at a time, making    1 passes.
 Calling FoFCou, ICntrl=  3107 FMM=F I1Cent=   0 AccDes= 0.00D+00.
 FoFJK:  IHMeth= 1 ICntrl=    3107 DoSepK=F KAlg= 0 I1Cent=   0 FoldK=F
 IRaf=         0 NMat=   1 IRICut=       1 DoRegI=T DoRafI=F ISym2E= 1.
 FoFCou: FMM=F IPFlag=           0 FMFlag=      100000 FMFlg1=           0
         NFxFlg=           0 DoJE=F BraDBF=F KetDBF=F FulRan=T
         wScrn=  0.000000 ICntrl=    3107 IOpCl=  1 I1Cent=           0 NGrid=           0
         NMat0=    1 NMatS0=      1 NMatT0=    0 NMatD0=    1 NMtDS0=    0 NMtDT0=    0
 Petite list used in FoFCou.
 End of G2Drv F.D. properties file   721 does not exist.
 End of G2Drv F.D. properties file   722 does not exist.
 End of G2Drv F.D. properties file   788 does not exist.
 Leave Link 1110 at Fri Mar  8 00:18:42 2019, MaxMem=    33554432 cpu:       626.5
 (Enter /home/proyectos/fulerenos/M3C-v2.0/M3C-deps_CCC/g09-AM64L-G09RevC.01/l1002.exe)
 Minotr:  UHF open shell wavefunction.
          IDoAtm=111111111
          Direct CPHF calculation.
          Differentiating once with respect to electric field.
                with respect to dipole field.
          Differentiating once with respect to nuclear coordinates.
          Using symmetry in CPHF.
          Requested convergence is 1.0D-08 RMS, and 1.0D-07 maximum.
          Secondary convergence is 1.0D-12 RMS, and 1.0D-12 maximum.
          NewPWx=T KeepS1=F KeepF1=F KeepIn=T MapXYZ=F SortEE=F KeepMc=T.
          MDV=      33553868 using IRadAn=       2.
 Generate precomputed XC quadrature information.
          Solving linear equations simultaneously, MaxMat=       0.
 FoFJK:  IHMeth= 1 ICntrl=       0 DoSepK=F KAlg= 0 I1Cent=   0 FoldK=F
 IRaf= 990000000 NMat=  27 IRICut=      67 DoRegI=T DoRafI=T ISym2E= 2.
 FoFCou: FMM=F IPFlag=           0 FMFlag=      100000 FMFlg1=           0
         NFxFlg=           0 DoJE=F BraDBF=F KetDBF=F FulRan=T
         wScrn=  0.000000 ICntrl=       0 IOpCl=  1 I1Cent=           0 NGrid=           0
         NMat0=   27 NMatS0=     27 NMatT0=    0 NMatD0=   27 NMtDS0=    0 NMtDT0=    0
 Integrals replicated using symmetry in FoFCou.
          There are    27 degrees of freedom in the 1st order CPHF.  IDoFFX=4 NUNeed=    27.
     27 vectors produced by pass  0 Test12= 2.97D-14 3.70D-09 XBig12= 5.70D+04 2.37D+02.
 AX will form    27 AO Fock derivatives at one time.
     27 vectors produced by pass  1 Test12= 2.97D-14 3.70D-09 XBig12= 1.86D+03 1.25D+01.
     27 vectors produced by pass  2 Test12= 2.97D-14 3.70D-09 XBig12= 2.86D+01 1.28D+00.
     27 vectors produced by pass  3 Test12= 2.97D-14 3.70D-09 XBig12= 5.54D-01 1.64D-01.
     27 vectors produced by pass  4 Test12= 2.97D-14 3.70D-09 XBig12= 1.15D-02 2.44D-02.
     27 vectors produced by pass  5 Test12= 2.97D-14 3.70D-09 XBig12= 8.32D-05 1.99D-03.
     27 vectors produced by pass  6 Test12= 2.97D-14 3.70D-09 XBig12= 6.18D-07 1.13D-04.
     17 vectors produced by pass  7 Test12= 2.97D-14 3.70D-09 XBig12= 3.57D-09 8.42D-06.
      4 vectors produced by pass  8 Test12= 2.97D-14 3.70D-09 XBig12= 1.54D-11 4.00D-07.
      4 vectors produced by pass  9 Test12= 2.97D-14 3.70D-09 XBig12= 4.89D-13 1.62D-07.
      3 vectors produced by pass 10 Test12= 2.97D-14 3.70D-09 XBig12= 3.27D-14 4.99D-08.
      2 vectors produced by pass 11 Test12= 2.97D-14 3.70D-09 XBig12= 6.53D-16 5.00D-09.
 InvSVY:  IOpt=1 It=  1 EMax= 7.11D-14
 Solved reduced A of dimension   219 with    27 vectors.
 FullF1:  Do perturbations    1 to    27.
 Isotropic polarizability for W=    0.000000     1685.58 Bohr**3.
 End of Minotr F.D. properties file   721 does not exist.
 End of Minotr F.D. properties file   722 does not exist.
 End of Minotr F.D. properties file   788 does not exist.
 Leave Link 1002 at Fri Mar  8 00:42:04 2019, MaxMem=    33554432 cpu:      2800.1
 (Enter /home/proyectos/fulerenos/M3C-v2.0/M3C-deps_CCC/g09-AM64L-G09RevC.01/l601.exe)
 Copying SCF densities to generalized density rwf, IOpCl= 1 IROHF=0.

 **********************************************************************

            Population analysis using the SCF density.

 **********************************************************************

 Orbital symmetries:
 Alpha Orbitals:
       Occupied  (A') (A') (A') (A') (A') (A') (A') (A') (A') (A')
                 (A') (A") (A') (A') (A') (A") (A") (A') (A") (A')
       Virtual   (A') (A') (A") (A') (A') (A") (A") (A') (A") (A')
                 (A') (A') (A') (A') (A') (A") (A") (A') (A') (A')
                 (A') (A") (A') (A') (A') (A") (A') (A') (A') (A')
                 (A') (A") (A') (A") (A') (A') (A') (A") (A') (A')
                 (A") (A") (A') (A") (A') (A') (A') (A") (A') (A')
                 (A") (A") (A') (A') (A") (A") (A') (A') (A') (A')
                 (A') (A') (A") (A') (A") (A') (A') (A") (A') (A')
                 (A") (A') (A") (A') (A') (A") (A') (A') (A') (A")
                 (A") (A') (A") (A") (A') (A') (A') (A') (A') (A")
                 (A") (A') (A') (A') (A") (A') (A") (A') (A') (A')
                 (A") (A') (A') (A') (A") (A") (A') (A') (A") (A')
                 (A') (A') (A') (A') (A") (A') (A") (A') (A") (A")
                 (A') (A') (A") (A") (A") (A') (A") (A') (A") (A")
                 (A') (A') (A') (A") (A') (A') (A") (A') (A') (A')
                 (A') (A') (A") (A') (A") (A') (A") (A') (A') (A')
                 (A") (A') (A') (A") (A') (A') (A") (A') (A') (A')
                 (A") (A") (A') (A") (A') (A") (A') (A") (A') (A')
                 (A") (A') (A") (A') (A') (A") (A') (A') (A") (A')
                 (A") (A') (A') (A') (A') (A") (A") (A") (A') (A')
                 (A") (A') (A") (A') (A") (A") (A') (A') (A') (A')
                 (A") (A') (A') (A') (A') (A") (A") (A') (A') (A')
                 (A') (A') (A') (A') (A')
 Beta  Orbitals:
       Occupied  (A') (A') (A') (A') (A') (A') (A') (A') (A') (A')
                 (A') (A") (A') (A') (A') (A") (A")
       Virtual   (A') (A") (A') (A') (A') (A") (A') (A') (A") (A')
                 (A") (A") (A') (A') (A') (A') (A') (A') (A") (A")
                 (A') (A') (A') (A') (A") (A') (A') (A') (A") (A')
                 (A') (A') (A') (A') (A") (A') (A') (A") (A') (A")
                 (A') (A') (A") (A') (A") (A') (A") (A') (A') (A')
                 (A") (A') (A') (A") (A") (A') (A') (A") (A") (A')
                 (A') (A') (A') (A') (A') (A") (A') (A") (A') (A')
                 (A") (A') (A') (A") (A') (A") (A') (A') (A") (A')
                 (A') (A') (A") (A") (A') (A") (A") (A') (A') (A')
                 (A') (A') (A") (A') (A") (A') (A') (A") (A') (A")
                 (A') (A') (A') (A') (A") (A') (A') (A") (A") (A')
                 (A') (A") (A') (A') (A') (A') (A') (A') (A") (A')
                 (A") (A") (A") (A') (A') (A") (A") (A") (A') (A")
                 (A') (A") (A') (A") (A') (A') (A") (A') (A') (A")
                 (A') (A') (A') (A') (A') (A") (A') (A") (A') (A")
                 (A') (A') (A') (A") (A') (A') (A") (A') (A') (A")
                 (A') (A') (A') (A") (A") (A') (A") (A') (A") (A')
                 (A") (A') (A') (A") (A') (A") (A') (A') (A") (A')
                 (A') (A") (A') (A") (A') (A') (A') (A') (A") (A")
                 (A") (A') (A') (A") (A') (A") (A') (A") (A") (A')
                 (A') (A') (A') (A") (A') (A') (A') (A') (A") (A")
                 (A') (A') (A') (A') (A') (A') (A') (A')
 The electronic state is 4-A".
 Alpha  occ. eigenvalues --  -19.04500 -10.11546 -10.10734 -10.08462 -10.05754
 Alpha  occ. eigenvalues --   -0.95950  -0.68925  -0.63201  -0.47786  -0.45399
 Alpha  occ. eigenvalues --   -0.39633  -0.36739  -0.32133  -0.29276  -0.24969
 Alpha  occ. eigenvalues --   -0.24738  -0.18362  -0.16223  -0.04290   0.05730
 Alpha virt. eigenvalues --    0.08244   0.09434   0.10313   0.13947   0.14407
 Alpha virt. eigenvalues --    0.14419   0.17038   0.17054   0.19046   0.19377
 Alpha virt. eigenvalues --    0.20583   0.21286   0.21578   0.22020   0.22777
 Alpha virt. eigenvalues --    0.23438   0.24055   0.24858   0.25319   0.26115
 Alpha virt. eigenvalues --    0.28678   0.30185   0.31949   0.33847   0.35726
 Alpha virt. eigenvalues --    0.36660   0.37446   0.39525   0.40498   0.41177
 Alpha virt. eigenvalues --    0.44106   0.47461   0.48623   0.51448   0.51940
 Alpha virt. eigenvalues --    0.53299   0.53720   0.54382   0.54842   0.58486
 Alpha virt. eigenvalues --    0.58510   0.59028   0.62464   0.64736   0.64875
 Alpha virt. eigenvalues --    0.65748   0.67289   0.68289   0.70215   0.72544
 Alpha virt. eigenvalues --    0.75476   0.76325   0.77727   0.78430   0.79741
 Alpha virt. eigenvalues --    0.83101   0.84902   0.87020   0.90149   0.91610
 Alpha virt. eigenvalues --    0.93075   0.93504   0.95625   1.01975   1.03134
 Alpha virt. eigenvalues --    1.04605   1.05983   1.08461   1.10295   1.14125
 Alpha virt. eigenvalues --    1.16883   1.20548   1.23098   1.26243   1.28153
 Alpha virt. eigenvalues --    1.28956   1.30890   1.31338   1.34603   1.35464
 Alpha virt. eigenvalues --    1.37201   1.38490   1.39126   1.40876   1.41500
 Alpha virt. eigenvalues --    1.45096   1.48113   1.49585   1.51232   1.55550
 Alpha virt. eigenvalues --    1.57254   1.57423   1.63509   1.68272   1.72914
 Alpha virt. eigenvalues --    1.81164   1.88750   1.88795   1.92950   1.97862
 Alpha virt. eigenvalues --    2.03022   2.03102   2.08148   2.11178   2.15596
 Alpha virt. eigenvalues --    2.21243   2.23361   2.28664   2.33536   2.39781
 Alpha virt. eigenvalues --    2.43843   2.49814   2.54121   2.69037   2.70587
 Alpha virt. eigenvalues --    2.71851   2.82024   2.83909   2.88769   2.91395
 Alpha virt. eigenvalues --    2.95298   2.98361   3.00082   3.01416   3.06093
 Alpha virt. eigenvalues --    3.07187   3.11903   3.14326   3.16494   3.19197
 Alpha virt. eigenvalues --    3.19457   3.27287   3.30367   3.33270   3.34508
 Alpha virt. eigenvalues --    3.35567   3.41076   3.42881   3.47381   3.52655
 Alpha virt. eigenvalues --    3.59576   3.61421   3.63159   3.77131   3.77799
 Alpha virt. eigenvalues --    3.79539   3.82404   3.95605   3.97820   3.99429
 Alpha virt. eigenvalues --    4.03117   4.04233   4.16516   4.20352   4.26184
 Alpha virt. eigenvalues --    4.29339   4.35437   4.38255   4.43292   4.49512
 Alpha virt. eigenvalues --    4.51856   4.53762   4.55395   4.58049   4.66702
 Alpha virt. eigenvalues --    4.69774   4.72107   4.82086   4.92640   5.13757
 Alpha virt. eigenvalues --    5.26759   5.38942   5.44844   5.46225   5.60985
 Alpha virt. eigenvalues --    5.67489   5.68163   5.80682   5.92880   5.96278
 Alpha virt. eigenvalues --    5.98198   6.31457   6.42786   6.45335   6.78395
 Alpha virt. eigenvalues --    7.16139   7.21412   7.26405   7.26433   7.37175
 Alpha virt. eigenvalues --    7.40505   7.41014   7.54095   7.62685   7.63479
 Alpha virt. eigenvalues --    7.76369   7.83240   7.93094   8.03957   8.15274
 Alpha virt. eigenvalues --    8.21143   8.30390   8.44303   8.59913   8.76792
 Alpha virt. eigenvalues --   14.50954  14.61413  14.62129  14.92426  15.26375
 Alpha virt. eigenvalues --   24.14542  24.65553  25.28712  25.65774  50.32491
  Beta  occ. eigenvalues --  -19.03997 -10.11469 -10.09849 -10.06130 -10.05950
  Beta  occ. eigenvalues --   -0.94779  -0.66771  -0.61792  -0.46052  -0.43877
  Beta  occ. eigenvalues --   -0.37459  -0.35212  -0.31081  -0.28208  -0.23736
  Beta  occ. eigenvalues --   -0.22368  -0.15462
  Beta virt. eigenvalues --    0.00796   0.06962   0.08973   0.10199   0.11064
  Beta virt. eigenvalues --    0.11730   0.14796   0.15521   0.16661   0.17468
  Beta virt. eigenvalues --    0.17745   0.19808   0.20162   0.21079   0.21712
  Beta virt. eigenvalues --    0.22394   0.22425   0.23405   0.24041   0.25161
  Beta virt. eigenvalues --    0.25702   0.25827   0.27154   0.29782   0.31496
  Beta virt. eigenvalues --    0.33035   0.34578   0.36738   0.36844   0.38397
  Beta virt. eigenvalues --    0.40416   0.41163   0.41743   0.45027   0.48335
  Beta virt. eigenvalues --    0.49201   0.52659   0.52867   0.54704   0.54770
  Beta virt. eigenvalues --    0.54794   0.56585   0.59300   0.59895   0.60627
  Beta virt. eigenvalues --    0.63744   0.66314   0.66902   0.67389   0.67984
  Beta virt. eigenvalues --    0.70313   0.70796   0.73375   0.76029   0.76993
  Beta virt. eigenvalues --    0.78375   0.79357   0.80963   0.84201   0.86202
  Beta virt. eigenvalues --    0.87516   0.90454   0.92053   0.93568   0.93764
  Beta virt. eigenvalues --    0.96461   1.03110   1.03728   1.05366   1.07200
  Beta virt. eigenvalues --    1.08970   1.10848   1.14597   1.17394   1.21231
  Beta virt. eigenvalues --    1.23628   1.26990   1.28685   1.29301   1.31532
  Beta virt. eigenvalues --    1.31830   1.35325   1.36230   1.37893   1.39034
  Beta virt. eigenvalues --    1.39856   1.41524   1.42583   1.45808   1.48770
  Beta virt. eigenvalues --    1.50565   1.53492   1.56789   1.58130   1.60216
  Beta virt. eigenvalues --    1.64064   1.69111   1.76296   1.84247   1.91103
  Beta virt. eigenvalues --    1.91209   1.95260   1.98642   2.03682   2.04276
  Beta virt. eigenvalues --    2.09560   2.15149   2.18485   2.22670   2.24234
  Beta virt. eigenvalues --    2.31234   2.35656   2.40127   2.45502   2.51205
  Beta virt. eigenvalues --    2.55400   2.70648   2.72610   2.73048   2.84727
  Beta virt. eigenvalues --    2.84848   2.89887   2.94629   2.96915   2.99354
  Beta virt. eigenvalues --    3.00782   3.02998   3.09041   3.10672   3.13067
  Beta virt. eigenvalues --    3.14949   3.18454   3.21159   3.23185   3.29302
  Beta virt. eigenvalues --    3.31957   3.35037   3.36088   3.37311   3.42141
  Beta virt. eigenvalues --    3.44432   3.50212   3.54422   3.61093   3.63264
  Beta virt. eigenvalues --    3.64185   3.77931   3.79357   3.80845   3.83645
  Beta virt. eigenvalues --    3.97016   3.98979   4.00191   4.04617   4.05461
  Beta virt. eigenvalues --    4.17361   4.22335   4.27289   4.30057   4.36048
  Beta virt. eigenvalues --    4.39780   4.44302   4.50326   4.53336   4.55060
  Beta virt. eigenvalues --    4.56515   4.59352   4.68007   4.70773   4.72977
  Beta virt. eigenvalues --    4.83339   4.93924   5.14708   5.28251   5.39916
  Beta virt. eigenvalues --    5.45757   5.47015   5.61905   5.68426   5.68887
  Beta virt. eigenvalues --    5.81878   5.93733   5.97246   5.99338   6.32133
  Beta virt. eigenvalues --    6.43432   6.45915   6.78844   7.20066   7.25245
  Beta virt. eigenvalues --    7.30231   7.34141   7.39129   7.42874   7.43668
  Beta virt. eigenvalues --    7.55697   7.64269   7.66015   7.78009   7.85351
  Beta virt. eigenvalues --    7.95709   8.05578   8.16389   8.21982   8.30872
  Beta virt. eigenvalues --    8.45898   8.61422   8.77796  14.52851  14.62859
  Beta virt. eigenvalues --   14.63761  14.93498  15.27130  24.15484  24.65941
  Beta virt. eigenvalues --   25.30483  25.66322  50.32989
          Condensed to atoms (all electrons):
               1          2          3          4          5          6
     1  C   11.493707  -0.576887  -0.279963   0.500735   0.860962  -5.873045
     2  C   -0.576887  59.542018  -4.534693  -4.957356  -0.461580 -11.174446
     3  O   -0.279963  -4.534693   9.394181   0.199006   0.065575   1.377547
     4  C    0.500735  -4.957356   0.199006   8.562868  -0.118158   0.055025
     5  C    0.860962  -0.461580   0.065575  -0.118158  10.678277  -2.201657
     6  H   -5.873045 -11.174446   1.377547   0.055025  -2.201657  10.622419
     7  H    0.381429 -12.424534   0.929665   1.187657   0.518516   2.028222
     8  H    0.381429 -12.424534   0.929665   1.187657   0.518516   2.028222
     9  H   -1.672790  -9.819925   0.709076  -0.252392  -4.523368   5.513792
               7          8          9
     1  C    0.381429   0.381429  -1.672790
     2  C  -12.424534 -12.424534  -9.819925
     3  O    0.929665   0.929665   0.709076
     4  C    1.187657   1.187657  -0.252392
     5  C    0.518516   0.518516  -4.523368
     6  H    2.028222   2.028222   5.513792
     7  H    4.590328   2.894167   1.657748
     8  H    2.894167   4.590328   1.657748
     9  H    1.657748   1.657748   8.951804
          Atomic-Atomic Spin Densities.
               1          2          3          4          5          6
     1  C    6.494068  -0.353821  -0.554632   0.434520   1.027046  -6.331382
     2  C   -0.353821  54.158559  -4.739639  -4.648691  -0.474303 -11.179472
     3  O   -0.554632  -4.739639   0.911560   0.311289   0.224023   1.432896
     4  C    0.434520  -4.648691   0.311289   3.382052  -0.005515   0.044071
     5  C    1.027046  -0.474303   0.224023  -0.005515   4.277048  -2.102026
     6  H   -6.331382 -11.179472   1.432896   0.044071  -2.102026  10.139457
     7  H    0.383000 -12.879067   0.982051   1.246526   0.505151   2.028227
     8  H    0.383000 -12.879067   0.982051   1.246526   0.505151   2.028227
     9  H   -1.621988  -9.830076   0.706711  -0.147677  -4.975740   5.505456
               7          8          9
     1  C    0.383000   0.383000  -1.621988
     2  C  -12.879067 -12.879067  -9.830076
     3  O    0.982051   0.982051   0.706711
     4  C    1.246526   1.246526  -0.147677
     5  C    0.505151   0.505151  -4.975740
     6  H    2.028227   2.028227   5.505456
     7  H    4.085644   2.939343   1.657184
     8  H    2.939343   4.085644   1.657184
     9  H    1.657184   1.657184   8.452894
 Mulliken charges and spin densities:
               1          2
     1  C    0.784423  -0.140189
     2  C    2.831936  -2.825577
     3  O   -0.790060   0.256310
     4  C   -0.365042   1.863102
     5  C    0.662916  -1.019166
     6  H   -1.376081   1.565454
     7  H   -0.763199   0.948059
     8  H   -0.763199   0.948059
     9  H   -1.221694   1.403949
 Sum of Mulliken charges =  -1.00000   3.00000
 Mulliken charges and spin densities with hydrogens summed into heavy atoms:
               1          2
     1  C   -0.591658   1.425265
     2  C    1.305538  -0.929459
     3  O   -0.790060   0.256310
     4  C   -0.365042   1.863102
     5  C   -0.558777   0.384783
 APT charges:
               1
     1  C   -0.751961
     2  C   -0.553588
     3  O    1.330578
     4  C    0.522746
     5  C   -0.199228
     6  H   -0.339226
     7  H   -0.271794
     8  H   -0.271794
     9  H   -0.465733
 Sum of APT charges =  -1.00000
 APT charges with hydrogens summed into heavy atoms:
               1
     1  C   -1.091187
     2  C   -1.097176
     3  O    1.330578
     4  C    0.522746
     5  C   -0.664961
 Electronic spatial extent (au):  <R**2>=            373.7902
 Charge=             -1.0000 electrons
 Dipole moment (field-independent basis, Debye):
    X=             -0.0988    Y=              1.7115    Z=              0.0000  Tot=              1.7143
 Quadrupole moment (field-independent basis, Debye-Ang):
   XX=            -57.0812   YY=            -78.4415   ZZ=            -54.5299
   XY=             -0.2557   XZ=              0.0000   YZ=              0.0000
 Traceless Quadrupole moment (field-independent basis, Debye-Ang):
   XX=              6.2697   YY=            -15.0906   ZZ=              8.8209
   XY=             -0.2557   XZ=              0.0000   YZ=              0.0000
 Octapole moment (field-independent basis, Debye-Ang**2):
  XXX=             10.6411  YYY=             39.3416  ZZZ=              0.0000  XYY=              1.8125
  XXY=             22.4478  XXZ=              0.0000  XZZ=              4.0578  YZZ=              1.3307
  YYZ=             -0.0000  XYZ=              0.0000
 Hexadecapole moment (field-independent basis, Debye-Ang**3):
 XXXX=           -506.5550 YYYY=          -1233.6909 ZZZZ=           -309.7059 XXXY=              1.1897
 XXXZ=              0.0000 YYYX=            -14.1107 YYYZ=              0.0000 ZZZX=              0.0000
 ZZZY=              0.0000 XXYY=           -296.2705 XXZZ=           -130.7182 YYZZ=           -237.5402
 XXYZ=              0.0000 YYXZ=              0.0000 ZZXY=             -1.9720
 N-N= 1.579323199413D+02 E-N=-8.570499512231D+02  KE= 2.290754372016D+02
 Symmetry A'   KE= 2.190446277308D+02
 Symmetry A"   KE= 1.003080947083D+01
  Exact polarizability:1567.093  82.1192539.721  -0.000  -0.000 949.917
 Approx polarizability: 939.760  39.8482976.066  -0.000  -0.000 596.511
                          Isotropic Fermi Contact Couplings
        Atom                 a.u.       MegaHertz       Gauss      10(-4) cm-1
     1  C(13)              0.10494      39.32322      14.03150      13.11682
     2  C(13)              0.09142      34.25658      12.22360      11.42676
     3  O(17)              0.02990      -6.04157      -2.15578      -2.01525
     4  C(13)              0.43452     162.82755      58.10092      54.31342
     5  C(13)              0.01904       7.13373       2.54549       2.37956
     6  H(1)              -0.00640      -9.53900      -3.40375      -3.18187
     7  H(1)               0.02170      32.33865      11.53923      10.78701
     8  H(1)               0.02170      32.33865      11.53923      10.78701
     9  H(1)               0.00673      10.02886       3.57855       3.34527
 --------------------------------------------------------
       Center         ----  Spin Dipole Couplings  ----
                      3XX-RR        3YY-RR        3ZZ-RR
 --------------------------------------------------------
     1   Atom       -0.276928     -0.330860      0.607787
     2   Atom        0.019408      0.038831     -0.058239
     3   Atom       -0.030233     -0.405206      0.435439
     4   Atom        0.448753     -0.700532      0.251779
     5   Atom        0.094914      0.165155     -0.260069
     6   Atom       -0.003809      0.010915     -0.007106
     7   Atom       -0.002985      0.008800     -0.005815
     8   Atom       -0.002985      0.008800     -0.005815
     9   Atom       -0.003466      0.025886     -0.022420
 --------------------------------------------------------
                        XY            XZ            YZ
 --------------------------------------------------------
     1   Atom       -0.023662      0.000000     -0.000000
     2   Atom        0.079061      0.000000      0.000000
     3   Atom       -0.116416     -0.000000      0.000000
     4   Atom       -0.472341      0.000000     -0.000000
     5   Atom       -0.050170     -0.000000     -0.000000
     6   Atom       -0.050476     -0.000000      0.000000
     7   Atom        0.016067      0.010668      0.018968
     8   Atom        0.016067     -0.010668     -0.018968
     9   Atom        0.001139     -0.000000      0.000000
 --------------------------------------------------------


 ---------------------------------------------------------------------------------
              Anisotropic Spin Dipole Couplings in Principal Axis System
 ---------------------------------------------------------------------------------

       Atom             a.u.   MegaHertz   Gauss  10(-4) cm-1        Axes

              Baa    -0.3398   -45.594   -16.269   -15.208  0.3524  0.9359  0.0000
     1 C(13)  Bbb    -0.2680   -35.965   -12.833   -11.997  0.9359 -0.3524 -0.0000
              Bcc     0.6078    81.559    29.102    27.205  0.0000 -0.0000  1.0000
 
              Baa    -0.0582    -7.815    -2.789    -2.607  0.0000 -0.0000  1.0000
     2 C(13)  Bbb    -0.0505    -6.781    -2.420    -2.262  0.7490 -0.6626 -0.0000
              Bcc     0.1088    14.597     5.208     4.869  0.6626  0.7490  0.0000
 
              Baa    -0.4384    31.723    11.320    10.582  0.2743  0.9617 -0.0000
     3 O(17)  Bbb     0.0030    -0.215    -0.077    -0.072  0.9617 -0.2743  0.0000
              Bcc     0.4354   -31.508   -11.243   -10.510 -0.0000  0.0000  1.0000
 
              Baa    -0.8697  -116.711   -41.646   -38.931  0.3373  0.9414  0.0000
     4 C(13)  Bbb     0.2518    33.786    12.056    11.270 -0.0000  0.0000  1.0000
              Bcc     0.6180    82.925    29.590    27.661  0.9414 -0.3373  0.0000
 
              Baa    -0.2601   -34.899   -12.453   -11.641  0.0000  0.0000  1.0000
     5 C(13)  Bbb     0.0688     9.231     3.294     3.079  0.8870  0.4618 -0.0000
              Bcc     0.1913    25.667     9.159     8.562 -0.4618  0.8870 -0.0000
 
              Baa    -0.0475   -25.321    -9.035    -8.446  0.7564  0.6541 -0.0000
     6 H(1)   Bbb    -0.0071    -3.791    -1.353    -1.265  0.0000 -0.0000  1.0000
              Bcc     0.0546    29.112    10.388     9.711 -0.6541  0.7564  0.0000
 
              Baa    -0.0188   -10.056    -3.588    -3.354  0.0441 -0.5825  0.8116
     7 H(1)   Bbb    -0.0135    -7.202    -2.570    -2.402  0.8766 -0.3671 -0.3111
              Bcc     0.0323    17.258     6.158     5.757  0.4791  0.7252  0.4944
 
              Baa    -0.0188   -10.056    -3.588    -3.354 -0.0441  0.5825  0.8116
     8 H(1)   Bbb    -0.0135    -7.202    -2.570    -2.402  0.8766 -0.3671  0.3111
              Bcc     0.0323    17.258     6.158     5.757  0.4791  0.7252 -0.4944
 
              Baa    -0.0224   -11.962    -4.268    -3.990  0.0000 -0.0000  1.0000
     9 H(1)   Bbb    -0.0035    -1.873    -0.668    -0.625  0.9992 -0.0387 -0.0000
              Bcc     0.0259    13.835     4.937     4.615  0.0387  0.9992  0.0000
 

 ---------------------------------------------------------------------------------

 No NMR shielding tensors so no spin-rotation constants.
 Leave Link  601 at Fri Mar  8 00:42:05 2019, MaxMem=    33554432 cpu:         2.0
 (Enter /home/proyectos/fulerenos/M3C-v2.0/M3C-deps_CCC/g09-AM64L-G09RevC.01/l701.exe)
 Compute integral second derivatives.
 ... and contract with generalized density number  0.
 Leave Link  701 at Fri Mar  8 00:42:06 2019, MaxMem=    33554432 cpu:         1.8
 (Enter /home/proyectos/fulerenos/M3C-v2.0/M3C-deps_CCC/g09-AM64L-G09RevC.01/l702.exe)
 L702 exits ... SP integral derivatives will be done elsewhere.
 Leave Link  702 at Fri Mar  8 00:42:06 2019, MaxMem=    33554432 cpu:         0.1
 (Enter /home/proyectos/fulerenos/M3C-v2.0/M3C-deps_CCC/g09-AM64L-G09RevC.01/l703.exe)
 Compute integral second derivatives, UseDBF=F ICtDFT=           0.
 Integral derivatives from FoFJK, PRISM(SPDF).
 Calling FoFJK, ICntrl=    100127 FMM=F ISym2X=1 I1Cent= 0 IOpClX= 1 NMat=1 NMatS=1 NMatT=0.
 FoFJK:  IHMeth= 1 ICntrl=  100127 DoSepK=F KAlg= 0 I1Cent=   0 FoldK=F
 IRaf=         0 NMat=   1 IRICut=       1 DoRegI=T DoRafI=F ISym2E= 1.
 FoFCou: FMM=F IPFlag=           0 FMFlag=      100000 FMFlg1=         800
         NFxFlg=           0 DoJE=F BraDBF=F KetDBF=F FulRan=T
         wScrn=  0.000000 ICntrl=  100127 IOpCl=  1 I1Cent=           0 NGrid=           0
         NMat0=    1 NMatS0=      1 NMatT0=    0 NMatD0=    1 NMtDS0=    0 NMtDT0=    0
 Petite list used in FoFCou.
 Leave Link  703 at Fri Mar  8 00:49:17 2019, MaxMem=    33554432 cpu:       860.2
 (Enter /home/proyectos/fulerenos/M3C-v2.0/M3C-deps_CCC/g09-AM64L-G09RevC.01/l716.exe)
 Dipole        =-3.88653123D-02 6.73339419D-01-3.39976519D-14
 Polarizability= 1.56709311D+03 8.21187720D+01 2.53972119D+03
                -4.71863770D-05-3.56239065D-05 9.49916731D+02
 Full mass-weighted force constant matrix:
 Low frequencies ---   -0.0011   -0.0010   -0.0005    5.6591   14.9759   29.1507
 Low frequencies ---  244.3061  503.7737  641.6459
 Diagonal vibrational polarizability:
       31.7797285      32.6663539      53.0401938
 Harmonic frequencies (cm**-1), IR intensities (KM/Mole), Raman scattering
 activities (A**4/AMU), depolarization ratios for plane and unpolarized
 incident light, reduced masses (AMU), force constants (mDyne/A),
 and normal coordinates:
                      1                      2                      3
                     A"                     A"                     A"
 Frequencies --    244.3035               503.7666               641.6402
 Red. masses --      2.5073                 3.1342                 1.2921
 Frc consts  --      0.0882                 0.4686                 0.3134
 IR Inten    --     59.8912                 0.5434               310.4415
  Atom  AN      X      Y      Z        X      Y      Z        X      Y      Z
     1   6     0.00  -0.00  -0.12     0.00   0.00  -0.24    -0.00   0.00  -0.16
     2   6     0.00  -0.00  -0.15     0.00   0.00  -0.01    -0.00   0.00   0.01
     3   8    -0.00  -0.00   0.19    -0.00   0.00   0.15     0.00   0.00   0.02
     4   6    -0.00   0.00   0.21     0.00  -0.00  -0.20     0.00  -0.00   0.01
     5   6     0.00   0.00  -0.07    -0.00  -0.00   0.26    -0.00  -0.00   0.01
     6   1     0.00  -0.00  -0.22    -0.00  -0.00  -0.68    -0.00  -0.00   0.95
     7   1     0.07   0.41  -0.47    -0.17  -0.06   0.06    -0.01  -0.01   0.02
     8   1    -0.07  -0.41  -0.47     0.17   0.06   0.06     0.01   0.01   0.02
     9   1     0.00   0.00  -0.19    -0.00   0.00   0.53    -0.00  -0.00   0.26
                      4                      5                      6
                     A'                     A'                     A"
 Frequencies --    743.0620               820.0799               852.8505
 Red. masses --      7.0745                 7.5766                 1.3038
 Frc consts  --      2.3014                 3.0022                 0.5588
 IR Inten    --     41.9857               274.6151               151.4917
  Atom  AN      X      Y      Z        X      Y      Z        X      Y      Z
     1   6     0.01   0.21  -0.00    -0.26   0.27   0.00     0.00  -0.00   0.05
     2   6    -0.04  -0.29   0.00     0.35  -0.08   0.00    -0.00   0.00  -0.00
     3   8     0.40  -0.01   0.00     0.05   0.25   0.00     0.00  -0.00   0.01
     4   6    -0.41  -0.01   0.00     0.14  -0.20   0.00     0.00   0.00   0.03
     5   6    -0.07   0.16  -0.00    -0.29  -0.31  -0.00     0.00   0.00  -0.15
     6   1    -0.38  -0.11   0.00    -0.15   0.38  -0.00    -0.00  -0.00  -0.18
     7   1    -0.08  -0.31  -0.00     0.09  -0.00  -0.01    -0.04  -0.02   0.02
     8   1    -0.08  -0.31   0.00     0.09  -0.00   0.01     0.04   0.02   0.02
     9   1     0.35  -0.14   0.00    -0.06  -0.49   0.00    -0.00   0.00   0.97
                      7                      8                      9
                     A'                     A'                     A"
 Frequencies --    867.8503               934.5689               995.3790
 Red. masses --      4.1899                 2.5858                 1.5477
 Frc consts  --      1.8593                 1.3307                 0.9035
 IR Inten    --    555.8033               103.1847                 2.9660
  Atom  AN      X      Y      Z        X      Y      Z        X      Y      Z
     1   6    -0.07  -0.08  -0.00    -0.07   0.06   0.00     0.00  -0.00  -0.00
     2   6    -0.24   0.21   0.00     0.01   0.26   0.00    -0.00  -0.00   0.19
     3   8     0.29  -0.00  -0.00     0.03  -0.13  -0.00    -0.00   0.00  -0.04
     4   6     0.19  -0.08  -0.00    -0.14   0.01  -0.00     0.00   0.00  -0.10
     5   6    -0.14  -0.06   0.00     0.08  -0.14   0.00     0.00   0.00   0.00
     6   1    -0.27  -0.26   0.00    -0.20  -0.05  -0.00    -0.00  -0.00  -0.01
     7   1    -0.40   0.18   0.03     0.28   0.18   0.01     0.30   0.56  -0.26
     8   1    -0.40   0.18  -0.03     0.28   0.18  -0.01    -0.30  -0.56  -0.26
     9   1    -0.45   0.15  -0.00     0.58  -0.51  -0.00    -0.00   0.00   0.11
                     10                     11                     12
                     A'                     A'                     A"
 Frequencies --   1061.7738              1130.9362              1159.8769
 Red. masses --      3.7208                 1.9345                 1.0732
 Frc consts  --      2.4715                 1.4578                 0.8507
 IR Inten    --     39.8745               528.2419                 0.0012
  Atom  AN      X      Y      Z        X      Y      Z        X      Y      Z
     1   6    -0.14   0.24   0.00     0.08   0.19  -0.00    -0.00  -0.00   0.00
     2   6    -0.15  -0.14  -0.00    -0.07   0.03   0.00     0.00  -0.00  -0.05
     3   8    -0.06  -0.13   0.00     0.01  -0.15   0.00     0.00   0.00   0.05
     4   6     0.29   0.05   0.00     0.01  -0.04  -0.00    -0.00   0.00  -0.03
     5   6     0.10   0.07   0.00    -0.07  -0.03   0.00     0.00  -0.00  -0.00
     6   1    -0.50  -0.05  -0.00     0.50   0.55  -0.00    -0.00  -0.00  -0.02
     7   1    -0.18  -0.14   0.01     0.23  -0.05   0.01     0.66  -0.25   0.05
     8   1    -0.18  -0.14  -0.01     0.23  -0.05  -0.01    -0.66   0.25   0.05
     9   1     0.59  -0.25  -0.00    -0.44   0.24   0.00     0.00  -0.00   0.04
                     13                     14                     15
                     A'                     A'                     A'
 Frequencies --   1245.7015              1316.5169              1340.8251
 Red. masses --      1.5543                 2.6631                 2.0202
 Frc consts  --      1.4211                 2.7195                 2.1399
 IR Inten    --     81.6146               137.2834                38.5125
  Atom  AN      X      Y      Z        X      Y      Z        X      Y      Z
     1   6    -0.00  -0.08  -0.00    -0.07  -0.03  -0.00    -0.13   0.04   0.00
     2   6    -0.02  -0.04   0.00    -0.16  -0.10  -0.00     0.10  -0.01   0.00
     3   8     0.04  -0.01  -0.00     0.05   0.10   0.00     0.02  -0.05  -0.00
     4   6     0.02   0.17  -0.00     0.01   0.20   0.00    -0.07   0.07  -0.00
     5   6    -0.09  -0.04   0.00     0.10  -0.20   0.00     0.20  -0.10  -0.00
     6   1     0.58   0.41   0.00    -0.08  -0.04  -0.00     0.04   0.22  -0.00
     7   1    -0.26   0.02  -0.01     0.59  -0.12  -0.06    -0.51   0.06   0.02
     8   1    -0.26   0.02   0.01     0.59  -0.12   0.06    -0.51   0.06  -0.02
     9   1     0.38  -0.40  -0.00    -0.33   0.09  -0.00    -0.43   0.37   0.00
                     16                     17                     18
                     A'                     A'                     A'
 Frequencies --   1454.0901              1474.3816              2928.9858
 Red. masses --      2.8045                 1.0888                 1.0548
 Frc consts  --      3.4937                 1.3945                 5.3314
 IR Inten    --    166.9365               758.0218                26.8332
  Atom  AN      X      Y      Z        X      Y      Z        X      Y      Z
     1   6     0.27   0.12   0.00    -0.01   0.00  -0.00    -0.00   0.00   0.00
     2   6     0.05  -0.02  -0.00    -0.01  -0.08  -0.00    -0.01  -0.06   0.00
     3   8    -0.05  -0.04  -0.00     0.01  -0.01   0.00     0.00  -0.00   0.00
     4   6    -0.02   0.17   0.00    -0.00  -0.02   0.00    -0.00  -0.00   0.00
     5   6    -0.11  -0.17  -0.00     0.01   0.02   0.00     0.00   0.00   0.00
     6   1    -0.49  -0.57   0.00     0.02   0.03   0.00     0.00  -0.00  -0.00
     7   1    -0.30   0.13  -0.06     0.06   0.56  -0.43     0.06   0.39   0.59
     8   1    -0.30   0.13   0.06     0.06   0.56   0.43     0.06   0.39  -0.59
     9   1    -0.24  -0.12   0.00     0.01   0.02  -0.00    -0.00   0.00  -0.00
                     19                     20                     21
                     A"                     A'                     A'
 Frequencies --   2961.1292              3188.8857              3218.4941
 Red. masses --      1.1072                 1.0929                 1.0972
 Frc consts  --      5.7202                 6.5477                 6.6966
 IR Inten    --      0.0667               215.0893                 7.8634
  Atom  AN      X      Y      Z        X      Y      Z        X      Y      Z
     1   6     0.00  -0.00  -0.00    -0.01   0.01  -0.00     0.06  -0.06   0.00
     2   6     0.00  -0.00  -0.10     0.00   0.00   0.00    -0.00   0.00   0.00
     3   8     0.00   0.00   0.00     0.00   0.00  -0.00     0.00   0.00  -0.00
     4   6    -0.00   0.00   0.00    -0.00   0.00  -0.00    -0.00   0.00  -0.00
     5   6    -0.00  -0.00  -0.00    -0.05  -0.07   0.00    -0.02  -0.02   0.00
     6   1    -0.00   0.00  -0.00     0.14  -0.17  -0.00    -0.64   0.73  -0.00
     7   1     0.07   0.41   0.56     0.00  -0.00  -0.00     0.00   0.00   0.00
     8   1    -0.07  -0.41   0.56     0.00  -0.00   0.00     0.00   0.00  -0.00
     9   1     0.00   0.00  -0.00     0.57   0.79  -0.00     0.13   0.17  -0.00

 -------------------
 - Thermochemistry -
 -------------------
 Temperature   298.150 Kelvin.  Pressure   1.00000 Atm.
 Atom     1 has atomic number  6 and mass  12.00000
 Atom     2 has atomic number  6 and mass  12.00000
 Atom     3 has atomic number  8 and mass  15.99491
 Atom     4 has atomic number  6 and mass  12.00000
 Atom     5 has atomic number  6 and mass  12.00000
 Atom     6 has atomic number  1 and mass   1.00783
 Atom     7 has atomic number  1 and mass   1.00783
 Atom     8 has atomic number  1 and mass   1.00783
 Atom     9 has atomic number  1 and mass   1.00783
 Molecular mass:    68.02621 amu.
 Principal axes and moments of inertia in atomic units:
                           1         2         3
     Eigenvalues --   184.61209 218.67155 391.94624
           X            0.43311   0.90134   0.00000
           Y            0.90134  -0.43311   0.00000
           Z            0.00000   0.00000   1.00000
 This molecule is an asymmetric top.
 Rotational symmetry number  1.
 Rotational temperatures (Kelvin)      0.46917     0.39609     0.22098
 Rotational constants (GHZ):           9.77586     8.25321     4.60456
 Zero-point vibrational energy     173967.5 (Joules/Mol)
                                   41.57923 (Kcal/Mol)
 Warning -- explicit consideration of   2 degrees of freedom as
           vibrations may cause significant error
 Vibrational temperatures:    351.50   724.81   923.18  1069.10  1179.91
[...]
                                                                          X             X         X                                  
                                                                          X             X         X                                  
                                                                          X             X         X                                  
                                                                          X             X         X                                  
                                                                          X             X         X                                  
                                                                          X             X         X                                  
                                                                          X                       X                                  
                                                                          X                                                          
                                                                          X                                                          
                                                                          X                                                          
                                                                          X                                                          
                                                                          X                                                          
 
 ***** Axes restored to original set *****
 -------------------------------------------------------------------
 Center     Atomic                   Forces (Hartrees/Bohr)
 Number     Number              X              Y              Z
 -------------------------------------------------------------------
      1        6           0.000129610    0.000245833   -0.000000055
      2        6          -0.000081540    0.000450426   -0.000000022
      3        8          -0.000114091   -0.000492546    0.000000074
      4        6          -0.000495652    0.000019447    0.000000121
      5        6           0.000347713   -0.000111344   -0.000000076
      6        1           0.000054524   -0.000037396   -0.000000010
      7        1           0.000058796   -0.000028073   -0.000001311
      8        1           0.000058797   -0.000028073    0.000001287
      9        1           0.000041845   -0.000018275   -0.000000009
 -------------------------------------------------------------------
 Cartesian Forces:  Max     0.000495652 RMS     0.000186258
 Z-matrix is all fixed cartesians, so copy forces.
 Force constants in Cartesian coordinates: 
                1             2             3             4             5 
      1  0.576019D+00
      2 -0.115985D+00  0.712078D+00
      3 -0.112400D-03 -0.300800D-04  0.772965D-01
      4 -0.503567D-01  0.284536D-01  0.977254D-05  0.546048D+00
      5  0.314698D-01  0.568035D-02 -0.830592D-05  0.501292D-01  0.313301D+00
      6  0.949404D-05 -0.756083D-05 -0.111388D-03 -0.765938D-05  0.801975D-05
      7 -0.241884D+00 -0.769338D-01  0.594801D-04 -0.906506D-01  0.240010D-01
      8 -0.396151D-01 -0.115498D+00  0.177084D-04  0.760731D-03 -0.119714D+00
      9  0.560280D-04  0.269221D-04 -0.297873D-01  0.608102D-05  0.000000D+00
     10 -0.157399D-01  0.998020D-01  0.000000D+00 -0.134352D+00 -0.858500D-01
     11  0.373180D-01 -0.684958D-01 -0.107890D-05 -0.422682D-01 -0.115199D+00
     12  0.523609D-05 -0.165051D-04  0.194493D-01  0.210409D-04  0.258423D-04
     13 -0.904327D-01 -0.803184D-01  0.177491D-04 -0.336341D-01 -0.114798D-01
     14 -0.292916D-01 -0.296879D+00  0.301933D-04 -0.175611D-01  0.634142D-02
     15  0.130292D-04  0.427916D-04 -0.486337D-01  0.114639D-04  0.282328D-05
     16 -0.176447D+00  0.141103D+00  0.261327D-04 -0.252786D-02 -0.308457D-02
     17  0.150656D+00 -0.225315D+00 -0.179938D-04 -0.371806D-02 -0.967663D-03
     18  0.252490D-04 -0.156364D-04 -0.177345D-01  0.183224D-05  0.117456D-05
     19 -0.246547D-02  0.222552D-02  0.167418D-03 -0.115507D+00 -0.301003D-02
     20 -0.398053D-02 -0.392334D-02 -0.180484D-02 -0.996032D-02 -0.431717D-01
     21 -0.311371D-03  0.172312D-04 -0.537733D-03  0.108520D+00  0.449414D-02
     22 -0.246540D-02  0.222548D-02 -0.166878D-03 -0.115614D+00 -0.303232D-02
     23 -0.397958D-02 -0.392301D-02  0.180743D-02 -0.998672D-02 -0.431749D-01
     24  0.313059D-03 -0.177039D-04 -0.538136D-03 -0.108564D+00 -0.452337D-02
     25  0.377168D-02 -0.572242D-03  0.000000D+00 -0.340502D-02  0.856839D-03
     26 -0.265914D-01 -0.372489D-02  0.696515D-05  0.415087D-02 -0.309565D-02
     27  0.167602D-05  0.000000D+00  0.596918D-03  0.189960D-05  0.000000D+00
                6             7             8             9            10 
      6  0.533805D+00
      7  0.393229D-05  0.416975D+00
      8  0.480563D-05  0.323924D-01  0.327210D+00
      9 -0.657357D-01 -0.900270D-04 -0.323007D-04  0.644632D-01
     10  0.250721D-04  0.978904D-02 -0.435964D-02 -0.211055D-05  0.482099D+00
     11  0.150824D-04  0.794462D-03 -0.646744D-01  0.574949D-05 -0.335374D-01
     12 -0.649620D-01 -0.258738D-05  0.702201D-05 -0.393303D-03 -0.988930D-04
     13  0.109004D-04 -0.448721D-01 -0.364172D-01  0.173866D-04 -0.295442D+00
     14  0.432417D-05 -0.290523D-01 -0.239178D-01  0.104863D-04  0.487040D-01
     15  0.621863D-02  0.167049D-04  0.123044D-04  0.119065D-01  0.586770D-04
     16  0.177313D-05 -0.241630D-01  0.230814D-01  0.319366D-05 -0.156961D-03
     17  0.133077D-05 -0.969046D-02  0.136405D-01  0.000000D+00 -0.168400D-03
     18  0.349952D-02  0.622482D-05 -0.719865D-05 -0.258012D-02  0.118110D-05
     19  0.108430D+00 -0.136593D-01  0.996735D-02  0.130042D-01 -0.154444D-01
     20  0.127986D-01  0.301098D-01 -0.650078D-02 -0.200673D-01 -0.171184D-01
     21 -0.209335D+00 -0.702743D-03 -0.465111D-02  0.748504D-02  0.131757D-02
     22 -0.108476D+00 -0.136654D-01  0.996725D-02 -0.129956D-01 -0.154520D-01
     23 -0.128244D-01  0.301198D-01 -0.649621D-02  0.200550D-01 -0.171266D-01
     24 -0.209225D+00  0.707614D-03  0.464878D-02  0.748654D-02 -0.130371D-02
     25  0.220403D-05  0.213052D-02  0.422270D-02  0.000000D+00 -0.153006D-01
     26  0.000000D+00 -0.174097D-02 -0.404931D-02  0.146626D-05  0.965442D-02
     27  0.584528D-02  0.140178D-05  0.000000D+00  0.715518D-02  0.275860D-05
               11            12            13            14            15 
     11  0.321873D+00
     12 -0.151122D-04  0.689751D-01
     13  0.689269D-01  0.568067D-04  0.726314D+00
     14 -0.851002D-01 -0.780937D-05  0.160902D+00  0.536748D+00
     15 -0.128021D-04 -0.395282D-01 -0.168715D-03 -0.798236D-04  0.103228D+00
     16 -0.304283D-02  0.144722D-05  0.962660D-02 -0.636268D-02 -0.146468D-05
     17 -0.332785D-02  0.000000D+00  0.181769D-01 -0.885505D-02 -0.354728D-05
     18  0.148151D-05  0.456488D-02 -0.373460D-05  0.251135D-05  0.131087D-02
     19 -0.823030D-02  0.141120D-01  0.334803D-04 -0.160265D-02  0.170790D-04
     20  0.140622D-02  0.161538D-01 -0.510088D-03 -0.351591D-02  0.108627D-02
     21  0.442406D-02  0.619599D-02 -0.134731D-02  0.110543D-03 -0.879725D-03
     22 -0.823509D-02 -0.140998D-01  0.341369D-04 -0.160271D-02 -0.172338D-04
     23  0.140242D-02 -0.161445D-01 -0.510375D-03 -0.351614D-02 -0.108553D-02
     24 -0.441911D-02  0.620741D-02  0.134695D-02 -0.109264D-03 -0.880160D-03
     25 -0.117256D-01  0.473651D-05 -0.271627D+00 -0.124133D+00  0.704594D-04
     26  0.121153D-01 -0.355118D-05 -0.118770D+00 -0.121306D+00  0.375143D-04
     27  0.172761D-05 -0.509203D-03  0.699632D-04  0.388384D-04 -0.327427D-01
               16            17            18            19            20 
     16  0.194572D+00
     17 -0.154073D+00  0.223379D+00
     18 -0.305293D-04  0.185969D-04  0.131909D-01
     19 -0.240574D-03 -0.497958D-03  0.271413D-03  0.137514D+00
     20  0.669048D-03  0.446889D-03  0.102863D-03  0.134678D-02  0.515398D-01
     21 -0.251223D-03 -0.252149D-04 -0.254170D-03 -0.121344D+00 -0.599852D-02
     22 -0.240584D-03 -0.497996D-03 -0.271327D-03  0.976803D-02 -0.282560D-03
     23  0.669044D-03  0.446875D-03 -0.103323D-03 -0.284454D-03  0.329992D-02
     24  0.251093D-03  0.253310D-04 -0.254145D-03 -0.143406D-01 -0.153541D-02
     25 -0.422378D-03 -0.186346D-03  0.000000D+00  0.110020D-05 -0.273738D-03
     26  0.104087D-02  0.552294D-03  0.000000D+00  0.857324D-04  0.418910D-03
     27  0.000000D+00  0.000000D+00 -0.174321D-02 -0.317504D-03 -0.735519D-03
               21            22            23            24            25 
     21  0.220669D+00
     22  0.143245D-01  0.137634D+00
     23  0.153069D-02  0.137220D-02  0.515421D-01
     24 -0.229409D-01  0.121385D+00  0.602913D-02  0.220547D+00
     25 -0.204741D-03  0.135811D-05 -0.273337D-03  0.204592D-03  0.284850D+00
     26  0.981815D-04  0.857426D-04  0.419028D-03 -0.983760D-04  0.132085D+00
     27 -0.402924D-03  0.317289D-03  0.735502D-03 -0.403300D-03 -0.770616D-04
               26            27 
     26  0.118670D+00
     27 -0.415328D-04  0.222039D-01
 Leave Link  716 at Fri Mar  8 00:49:17 2019, MaxMem=    33554432 cpu:         0.1
 (Enter /home/proyectos/fulerenos/M3C-v2.0/M3C-deps_CCC/g09-AM64L-G09RevC.01/l103.exe)

 GradGradGradGradGradGradGradGradGradGradGradGradGradGradGradGradGradGrad
 Berny optimization.
 Search for a local minimum.
 Step number   1 out of a maximum of    2
 All quantities printed in internal units (Hartrees-Bohrs-Radians)
 Second derivative matrix not updated -- analytic derivatives used.
 ITU=  0
     Eigenvalues ---    0.00695   0.02046   0.04598   0.04954   0.06382
     Eigenvalues ---    0.06961   0.08011   0.13539   0.14021   0.17264
     Eigenvalues ---    0.17648   0.18923   0.31425   0.37831   0.46610
     Eigenvalues ---    0.59923   0.69988   0.71856   0.79813   0.96679
     Eigenvalues ---    1.19624
 Angle between quadratic step and forces=  40.13 degrees.
 ClnCor:  largest displacement from symmetrization is 5.76D-11 for atom     8.
 Linear search not attempted -- first point.
 ClnCor:  largest displacement from symmetrization is 4.44D-15 for atom     9.
 B after Tr=    -0.000134   -0.000010    0.000000
         Rot=    1.000000    0.000000    0.000000    0.000003 Ang=   0.00 deg.
 Variable       Old X    -DE/DX   Delta X   Delta X   Delta X     New X
                                 (Linear)    (Quad)   (Total)
    X1       -1.73708   0.00013   0.00000   0.00012  -0.00000  -1.73708
    Y1        1.26882   0.00025   0.00000   0.00032   0.00032   1.26915
    Z1       -0.00012  -0.00000   0.00000  -0.00000  -0.00000  -0.00012
    X2        2.30013  -0.00008   0.00000  -0.00038  -0.00051   2.29962
    Y2       -0.28430   0.00045   0.00000   0.00096   0.00093  -0.28337
    Z2       -0.00097  -0.00000   0.00000   0.00000   0.00000  -0.00097
    X3        0.74638  -0.00011   0.00000  -0.00011  -0.00023   0.74615
    Y3        1.99554  -0.00049   0.00000  -0.00107  -0.00108   1.99445
    Z3       -0.00080   0.00000   0.00000   0.00000   0.00000  -0.00080
    X4        0.36325  -0.00050   0.00000  -0.00075  -0.00090   0.36235
    Y4       -2.31219   0.00002   0.00000   0.00010   0.00009  -2.31210
    Z4       -0.00031   0.00000   0.00000   0.00000   0.00000  -0.00031
    X5       -2.03795   0.00035   0.00000   0.00031   0.00017  -2.03779
    Y5       -1.32513  -0.00011   0.00000  -0.00010  -0.00010  -1.32523
    Z5        0.00019  -0.00000   0.00000  -0.00000  -0.00000   0.00019
    X6       -3.11001   0.00005   0.00000   0.00069   0.00058  -3.10943
    Y6        2.77316  -0.00004   0.00000   0.00057   0.00058   2.77374
    Z6        0.00008  -0.00000   0.00000  -0.00000  -0.00000   0.00008
    X7        3.52121   0.00006   0.00000   0.00030   0.00017   3.52138
    Y7       -0.24407  -0.00003   0.00000   0.00001  -0.00002  -0.24409
    Z7       -1.67828  -0.00000   0.00000   0.00026   0.00026  -1.67802
    X8        3.52204   0.00006   0.00000   0.00030   0.00017   3.52221
    Y8       -0.24376  -0.00003   0.00000   0.00001  -0.00002  -0.24378
    Z8        1.67573   0.00000   0.00000  -0.00026  -0.00026   1.67546
    X9       -3.82822   0.00004   0.00000   0.00072   0.00057  -3.82765
    Y9       -2.30311  -0.00002   0.00000  -0.00072  -0.00070  -2.30381
    Z9        0.00073  -0.00000   0.00000  -0.00000  -0.00000   0.00073
         Item               Value     Threshold  Converged?
 Maximum Force            0.000496     0.000450     NO 
 RMS     Force            0.000186     0.000300     YES
 Maximum Displacement     0.001083     0.001800     YES
 RMS     Displacement     0.000430     0.001200     YES
 Predicted change in Energy=-8.427020D-07
 GradGradGradGradGradGradGradGradGradGradGradGradGradGradGradGradGradGrad

 Leave Link  103 at Fri Mar  8 00:49:17 2019, MaxMem=    33554432 cpu:         0.0
 (Enter /home/proyectos/fulerenos/M3C-v2.0/M3C-deps_CCC/g09-AM64L-G09RevC.01/l9999.exe)

 Test job not archived.
 1\1\GINC-BLADI17\Freq\UB3LYP\6-311++G(3df,2p)\C4H4O1(1-,4)\ROOT\08-Mar
 -2019\0\\#p b3lyp/6-311++G(3df,2p) freq IOp(2/17=3) IOp(2/18=3)\\b3lyp
  opt\\-1,4\C,-0.9192219939,0.6714330023,-0.00006347\C,1.2171760003,-0.
 1504449999,-0.0005148988\O,0.3949689952,1.0559919982,-0.0004234977\C,0
 .1922250048,-1.2235579982,-0.0001625917\C,-1.0784390062,-0.7012300023,
 0.0001028056\H,-1.645743992,1.467494003,0.0000422661\H,1.863344,-0.129
 158,-0.888109\H,1.8637821919,-0.1289938307,0.8867560796\H,-2.025805004
 6,-1.2187520017,0.0003845676\\Version=EM64L-G09RevE.01\State=4-A"\HF=-
 229.9511021\S2=3.780546\S2-1=0.\S2A=3.75016\RMSD=5.501e-09\RMSF=1.863e
 -04\ZeroPoint=0.0662607\Thermal=0.0704432\Dipole=0.6635491,-0.1208263,
 -0.0001526\DipoleDeriv=-1.6180448,0.5398013,0.0004171,-1.1013094,-0.91
 1488,0.0003814,0.0005691,-0.0000235,0.27365,-0.684433,0.0850323,0.0000
 433,0.6780728,-0.4992884,-0.0001652,-0.0000117,-0.0000194,-0.4770414,2
 .6600645,0.6287072,-0.0007043,0.102248,1.2893294,-0.0001405,-0.0006557
 ,-0.0002704,0.0423401,0.0742146,-0.7439782,0.0000965,-0.1879705,1.3072
 812,-0.0000572,0.0000451,0.0000801,0.1867436,-0.0336556,-0.2951943,0.0
 000731,0.349429,-0.715975,-0.0000061,0.0000135,0.0001533,0.1519461,-0.
 1239039,-0.0719572,-0.0000791,-0.2270731,-0.422715,0.0000516,-0.000064
 9,0.0000131,-0.4710598,-0.5013355,0.0308345,-0.0430615,0.1456123,-0.23
 15274,-0.0104259,-0.4424826,0.0157841,-0.08252,-0.5010956,0.0308347,0.
 0432625,0.1456994,-0.2315283,0.0103816,0.4426624,-0.0157718,-0.0827589
 ,-0.2718111,-0.2040808,-0.0000478,0.0952915,-0.5840887,-0.0000196,-0.0
 000754,0.0000541,-0.5413\Polar=2545.1198492,-38.2539439,1561.694343,-0
 .3902562,-0.0471006,949.9168313\PG=CS [SG(C4H2O1),X(H2)]\NImag=0\\0.57
 601922,-0.11598526,0.71207834,-0.00011240,-0.00003008,0.07729649,-0.05
 035666,0.02845363,0.00000977,0.54604784,0.03146979,0.00568035,-0.00000
 831,0.05012918,0.31330123,0.00000949,-0.00000756,-0.00011139,-0.000007
 66,0.00000802,0.53380532,-0.24188368,-0.07693379,0.00005948,-0.0906506
 4,0.02400099,0.00000393,0.41697451,-0.03961510,-0.11549766,0.00001771,
 0.00076073,-0.11971440,0.00000481,0.03239243,0.32721006,0.00005603,0.0
 0002692,-0.02978731,0.00000608,-0.00000093,-0.06573571,-0.00009003,-0.
 00003230,0.06446321,-0.01573989,0.09980200,-0.00000054,-0.13435211,-0.
 08585004,0.00002507,0.00978904,-0.00435964,-0.00000211,0.48209940,0.03
 731797,-0.06849580,-0.00000108,-0.04226821,-0.11519862,0.00001508,0.00
 079446,-0.06467437,0.00000575,-0.03353737,0.32187286,0.00000524,-0.000
 01651,0.01944930,0.00002104,0.00002584,-0.06496196,-0.00000259,0.00000
 702,-0.00039330,-0.00009889,-0.00001511,0.06897506,-0.09043272,-0.0803
 1840,0.00001775,-0.03363408,-0.01147984,0.00001090,-0.04487210,-0.0364
 1717,0.00001739,-0.29544245,0.06892693,0.00005681,0.72631411,-0.029291
 60,-0.29687906,0.00003019,-0.01756110,0.00634142,0.00000432,-0.0290523
 1,-0.02391783,0.00001049,0.04870403,-0.08510018,-0.00000781,0.16090235
 ,0.53674837,0.00001303,0.00004279,-0.04863365,0.00001146,0.00000282,0.
 00621863,0.00001670,0.00001230,0.01190647,0.00005868,-0.00001280,-0.03
 952817,-0.00016871,-0.00007982,0.10322840,-0.17644707,0.14110307,0.000
 02613,-0.00252786,-0.00308457,0.00000177,-0.02416296,0.02308144,0.0000
 0319,-0.00015696,-0.00304283,0.00000145,0.00962660,-0.00636268,-0.0000
 0146,0.19457178,0.15065572,-0.22531492,-0.00001799,-0.00371806,-0.0009
 6766,0.00000133,-0.00969046,0.01364050,0.00000089,-0.00016840,-0.00332
 785,0.00000077,0.01817688,-0.00885505,-0.00000355,-0.15407338,0.223378
 92,0.00002525,-0.00001564,-0.01773449,0.00000183,0.00000117,0.00349952
 ,0.00000622,-0.00000720,-0.00258012,0.00000118,0.00000148,0.00456488,-
 0.00000373,0.00000251,0.00131087,-0.00003053,0.00001860,0.01319086,-0.
 00246547,0.00222552,0.00016742,-0.11550716,-0.00301003,0.10843033,-0.0
 1365931,0.00996735,0.01300424,-0.01544442,-0.00823030,0.01411202,0.000
 03348,-0.00160265,0.00001708,-0.00024057,-0.00049796,0.00027141,0.1375
 1433,-0.00398053,-0.00392334,-0.00180484,-0.00996032,-0.04317173,0.012
 79859,0.03010980,-0.00650078,-0.02006728,-0.01711839,0.00140622,0.0161
 5384,-0.00051009,-0.00351591,0.00108627,0.00066905,0.00044689,0.000102
 86,0.00134678,0.05153984,-0.00031137,0.00001723,-0.00053773,0.10851968
 ,0.00449414,-0.20933502,-0.00070274,-0.00465111,0.00748504,0.00131757,
 0.00442406,0.00619599,-0.00134731,0.00011054,-0.00087972,-0.00025122,-
 0.00002521,-0.00025417,-0.12134438,-0.00599852,0.22066939,-0.00246540,
 0.00222548,-0.00016688,-0.11561431,-0.00303232,-0.10847605,-0.01366538
 ,0.00996725,-0.01299564,-0.01545204,-0.00823509,-0.01409981,0.00003414
 ,-0.00160271,-0.00001723,-0.00024058,-0.00049800,-0.00027133,0.0097680
 3,-0.00028256,0.01432452,0.13763419,-0.00397958,-0.00392301,0.00180743
 ,-0.00998672,-0.04317494,-0.01282440,0.03011984,-0.00649621,0.02005500
 ,-0.01712661,0.00140242,-0.01614450,-0.00051037,-0.00351614,-0.0010855
 3,0.00066904,0.00044687,-0.00010332,-0.00028445,0.00329992,0.00153069,
 0.00137220,0.05154206,0.00031306,-0.00001770,-0.00053814,-0.10856411,-
 0.00452337,-0.20922467,0.00070761,0.00464878,0.00748654,-0.00130371,-0
 .00441911,0.00620741,0.00134695,-0.00010926,-0.00088016,0.00025109,0.0
 0002533,-0.00025415,-0.01434061,-0.00153541,-0.02294085,0.12138513,0.0
 0602913,0.22054731,0.00377168,-0.00057224,-0.00000073,-0.00340502,0.00
 085684,0.00000220,0.00213052,0.00422270,0.00000085,-0.01530057,-0.0117
 2557,0.00000474,-0.27162697,-0.12413334,0.00007046,-0.00042238,-0.0001
 8635,-0.00000031,0.00000110,-0.00027374,-0.00020474,0.00000136,-0.0002
 7334,0.00020459,0.28485028,-0.02659140,-0.00372489,0.00000697,0.004150
 87,-0.00309565,-0.00000020,-0.00174097,-0.00404931,0.00000147,0.009654
 42,0.01211532,-0.00000355,-0.11877029,-0.12130563,0.00003751,0.0010408
 7,0.00055229,-0.00000047,0.00008573,0.00041891,0.00009818,0.00008574,0
 .00041903,-0.00009838,0.13208503,0.11866993,0.00000168,0.00000054,0.00
 059692,0.00000190,0.00000062,0.00584528,0.00000140,0.,0.00715518,0.000
 00276,0.00000173,-0.00050920,0.00006996,0.00003884,-0.03274267,-0.0000
 0042,-0.00000017,-0.00174321,-0.00031750,-0.00073552,-0.00040292,0.000
 31729,0.00073550,-0.00040330,-0.00007706,-0.00004153,0.02220393\\-0.00
 012961,-0.00024583,0.00000005,0.00008154,-0.00045043,0.00000002,0.0001
 1409,0.00049255,-0.00000007,0.00049565,-0.00001945,-0.00000012,-0.0003
 4771,0.00011134,0.00000008,-0.00005452,0.00003740,0.00000001,-0.000058
 80,0.00002807,0.00000131,-0.00005880,0.00002807,-0.00000129,-0.0000418
 4,0.00001828,0.\\\@


 IT CANNOT BE MY BEAUTY, FOR I HAVE NONE; AND IT CANNOT BE MY WIT,
 FOR HE HAS NOT ENOUGH TO KNOW THAT I HAVE ANY.
 -- CATHARINE SEDLEY, PUZZLED ABOUT WHY SHE WAS MISTRESS TO JAMES II
 Job cpu time:       0 days  1 hours 35 minutes 14.3 seconds.
 File lengths (MBytes):  RWF=     80 Int=      0 D2E=      0 Chk=      5 Scr=      1
 Normal termination of Gaussian 09 at Fri Mar  8 00:49:17 2019.
