5
Energy =   -115.329151458     
    C    1.479000    0.060094    0.000000
    C    0.207016   -0.127447    0.000000
    C   -1.126507    0.035667    0.000000
    H   -1.578282    1.018870    0.000000
    H   -1.778774   -0.828755    0.000000

FREQUENCIES 9
360.3348
441.2350
653.5835
917.5285
1008.3869
1363.8336
1446.0374
3126.0049
3211.9490

SYMMETRY CS
ELECTRONIC_STATE 3-A"
