5
Energy = -115.1111569200
    C    0.000000    0.000000   -1.119000
    C    0.000000    0.000000    0.201000
    C    0.000000    0.000000    1.481000
    H    0.000000    0.924000   -1.689000
    H    0.000000   -0.924000   -1.689000

FREQUENCIES 0

SYMMETRY C2V
ELECTRONIC_STATE 1-A1
