5
Energy = -115.0906216000
    C    0.000000    0.000000    0.045715
    C    0.000000    1.274625   -0.126620
    C    0.000000   -1.274625   -0.126620
    H    0.000000   -2.052876    0.622571
    H    0.000000    2.052876    0.622571

FREQUENCIES 0

SYMMETRY C2V
ELECTRONIC_STATE 1-A1
