5
Energy = -115.0903274200
    C    0.000000    0.000000    0.000000
    C    0.000000    1.283862    0.000000
    C    0.000000   -1.283862    0.000000
    H    0.835465    1.968544    0.000000
    H   -0.835465   -1.968544    0.000000

FREQUENCIES 0

SYMMETRY C2H
ELECTRONIC_STATE 1-AG
