5
Energy = -115.1089062200
    C    0.000000    0.000000    0.000000
    C    0.000000    0.000000    1.265501
    C    0.000000    0.000000   -1.265501
    H    0.000000    0.000000   -2.327315
    H    0.000000    0.000000    2.327315

FREQUENCIES 0

SYMMETRY D*H
ELECTRONIC_STATE 3-SGG
