 Entering Gaussian System, Link 0=/home/proyectos/fulerenos/M3C-v2.0/M3C-deps_CCC/g09-AM64L-G09RevC.01/g09
 Initial command:
 /home/proyectos/fulerenos/M3C-v2.0/M3C-deps_CCC/g09-AM64L-G09RevC.01/l1.exe "/scratch/naguirre/gaussian/Gau-22101.inp" -scrdir="/scratch/naguirre/gaussian/"
 Entering Link 1 = /home/proyectos/fulerenos/M3C-v2.0/M3C-deps_CCC/g09-AM64L-G09RevC.01/l1.exe PID=     22108.
  
 Copyright (c) 1988,1990,1992,1993,1995,1998,2003,2009,2015,
            Gaussian, Inc.  All Rights Reserved.
  
 This is part of the Gaussian(R) 09 program.  It is based on
 the Gaussian(R) 03 system (copyright 2003, Gaussian, Inc.),
 the Gaussian(R) 98 system (copyright 1998, Gaussian, Inc.),
 the Gaussian(R) 94 system (copyright 1995, Gaussian, Inc.),
 the Gaussian 92(TM) system (copyright 1992, Gaussian, Inc.),
 the Gaussian 90(TM) system (copyright 1990, Gaussian, Inc.),
 the Gaussian 88(TM) system (copyright 1988, Gaussian, Inc.),
 the Gaussian 86(TM) system (copyright 1986, Carnegie Mellon
 University), and the Gaussian 82(TM) system (copyright 1983,
 Carnegie Mellon University). Gaussian is a federally registered
 trademark of Gaussian, Inc.
  
 This software contains proprietary and confidential information,
 including trade secrets, belonging to Gaussian, Inc.
  
 This software is provided under written license and may be
 used, copied, transmitted, or stored only in accord with that
 written license.
  
 The following legend is applicable only to US Government
 contracts under FAR:
  
                    RESTRICTED RIGHTS LEGEND
  
 Use, reproduction and disclosure by the US Government is
 subject to restrictions as set forth in subparagraphs (a)
 and (c) of the Commercial Computer Software - Restricted
 Rights clause in FAR 52.227-19.
  
 Gaussian, Inc.
 340 Quinnipiac St., Bldg. 40, Wallingford CT 06492
  
  
 ---------------------------------------------------------------
 Warning -- This program may not be used in any manner that
 competes with the business of Gaussian, Inc. or will provide
 assistance to any competitor of Gaussian, Inc.  The licensee
 of this program is prohibited from giving any competitor of
 Gaussian, Inc. access to this program.  By using this program,
 the user acknowledges that Gaussian, Inc. is engaged in the
 business of creating and licensing software in the field of
 computational chemistry and represents and warrants to the
 licensee that it is not a competitor of Gaussian, Inc. and that
 it will not use this program in any manner prohibited above.
 ---------------------------------------------------------------
  

 Cite this work as:
 Gaussian 09, Revision E.01,
 M. J. Frisch, G. W. Trucks, H. B. Schlegel, G. E. Scuseria, 
 M. A. Robb, J. R. Cheeseman, G. Scalmani, V. Barone, B. Mennucci, 
 G. A. Petersson, H. Nakatsuji, M. Caricato, X. Li, H. P. Hratchian, 
 A. F. Izmaylov, J. Bloino, G. Zheng, J. L. Sonnenberg, M. Hada, 
 M. Ehara, K. Toyota, R. Fukuda, J. Hasegawa, M. Ishida, T. Nakajima, 
 Y. Honda, O. Kitao, H. Nakai, T. Vreven, J. A. Montgomery, Jr., 
 J. E. Peralta, F. Ogliaro, M. Bearpark, J. J. Heyd, E. Brothers, 
 K. N. Kudin, V. N. Staroverov, T. Keith, R. Kobayashi, J. Normand, 
 K. Raghavachari, A. Rendell, J. C. Burant, S. S. Iyengar, J. Tomasi, 
 M. Cossi, N. Rega, J. M. Millam, M. Klene, J. E. Knox, J. B. Cross, 
 V. Bakken, C. Adamo, J. Jaramillo, R. Gomperts, R. E. Stratmann, 
 O. Yazyev, A. J. Austin, R. Cammi, C. Pomelli, J. W. Ochterski, 
 R. L. Martin, K. Morokuma, V. G. Zakrzewski, G. A. Voth, 
 P. Salvador, J. J. Dannenberg, S. Dapprich, A. D. Daniels, 
 O. Farkas, J. B. Foresman, J. V. Ortiz, J. Cioslowski, 
 and D. J. Fox, Gaussian, Inc., Wallingford CT, 2013.
 
 ******************************************
 Gaussian 09:  EM64L-G09RevE.01 30-Nov-2015
                 3-Aug-2016 
 ******************************************
 %NProcShared=4
 Will use up to    4 processors via shared memory.
 ------------------------------
 #p b3lyp/6-311++G(3df,2p) freq
 ------------------------------
 1/10=4,30=1,38=1/1,3;
 2/12=2,17=6,18=5,40=1/2;
 3/5=4,6=6,7=1216,11=2,16=1,25=1,30=1,71=2,74=-5,140=1/1,2,3;
 4//1;
 5/5=2,38=5,98=1/2;
 8/6=4,10=90,11=11/1;
 11/6=1,8=1,9=11,15=111,16=1/1,2,10;
 10/6=1/2;
 6/7=2,8=2,9=2,10=2,18=1,28=1/1;
 7/8=1,10=1,25=1/1,2,3,16;
 1/10=4,30=1/3;
 99//99;
 Leave Link    1 at Wed Aug  3 22:53:08 2016, MaxMem=           0 cpu:         0.3
 (Enter /home/proyectos/fulerenos/M3C-v2.0/M3C-deps_CCC/g09-AM64L-G09RevC.01/l101.exe)
 ---------
 b3lyp opt
 ---------
 Symbolic Z-matrix:
 Charge =  0 Multiplicity = 3
 S                     0.95748  -0.02651   0. 
 C                     1.77354   1.39228   0. 
 C                     0.14168  -1.44545   0. 
 
 NAtoms=      3 NQM=        3 NQMF=       0 NMMI=      0 NMMIF=      0
                NMic=       0 NMicF=      0.
                    Isotopes and Nuclear Properties:
 (Nuclear quadrupole moments (NQMom) in fm**2, nuclear magnetic moments (NMagM)
  in nuclear magnetons)

  Atom         1           2           3
 IAtWgt=          32          12          12
 AtmWgt=  31.9720718  12.0000000  12.0000000
 NucSpn=           0           0           0
 AtZEff=   0.0000000   0.0000000   0.0000000
 NQMom=    0.0000000   0.0000000   0.0000000
 NMagM=    0.0000000   0.0000000   0.0000000
 AtZNuc=  16.0000000   6.0000000   6.0000000
 Leave Link  101 at Wed Aug  3 22:53:08 2016, MaxMem=    33554432 cpu:         0.2
 (Enter /home/proyectos/fulerenos/M3C-v2.0/M3C-deps_CCC/g09-AM64L-G09RevC.01/l103.exe)

 GradGradGradGradGradGradGradGradGradGradGradGradGradGradGradGradGradGrad
 Berny optimization.
 Initialization pass.
 Trust Radius=3.00D-01 FncErr=1.00D-07 GrdErr=1.00D-07
 Number of steps in this run=      2 maximum allowed number of steps=      2.
 GradGradGradGradGradGradGradGradGradGradGradGradGradGradGradGradGradGrad

 Leave Link  103 at Wed Aug  3 22:53:08 2016, MaxMem=    33554432 cpu:         0.1
 (Enter /home/proyectos/fulerenos/M3C-v2.0/M3C-deps_CCC/g09-AM64L-G09RevC.01/l202.exe)
                          Input orientation:                          
 ---------------------------------------------------------------------
 Center     Atomic      Atomic             Coordinates (Angstroms)
 Number     Number       Type             X           Y           Z
 ---------------------------------------------------------------------
      1         16           0        0.957482   -0.026515    0.000000
      2          6           0        1.773538    1.392279    0.000000
      3          6           0        0.141678   -1.445455    0.000000
 ---------------------------------------------------------------------
                    Distance matrix (angstroms):
                    1          2          3
     1  S    0.000000
     2  C    1.636742   0.000000
     3  C    1.636742   3.273485   0.000000
 Stoichiometry    C2S(3)
 Framework group  D*H[C*(),X(C2S)]
 NUMDOF-- UNRECOGNIZED SYMMETRIC SUBSPACE, ICHAR= X   "
 Deg. of freedom    -1
 Full point group                         NOp   0
 Largest Abelian subgroup         D2H     NOp   8
 Largest concise Abelian subgroup C2      NOp   2
                         Standard orientation:                         
 ---------------------------------------------------------------------
 Center     Atomic      Atomic             Coordinates (Angstroms)
 Number     Number       Type             X           Y           Z
 ---------------------------------------------------------------------
      1         16           0        0.000000    0.000000   -0.000000
      2          6           0       -0.000000    0.000000    1.636742
      3          6           0        0.000000    0.000000   -1.636742
 ---------------------------------------------------------------------
 Rotational constants (GHZ):      0.0000000      7.8604126      7.8604126
 Leave Link  202 at Wed Aug  3 22:53:08 2016, MaxMem=    33554432 cpu:         0.0
 (Enter /home/proyectos/fulerenos/M3C-v2.0/M3C-deps_CCC/g09-AM64L-G09RevC.01/l301.exe)
 Standard basis: 6-311++G(3df,2p) (5D, 7F)
 Ernie: Thresh=  0.10000D-02 Tol=  0.10000D-05 Strict=F.
 There are    37 symmetry adapted cartesian basis functions of AG  symmetry.
 There are     7 symmetry adapted cartesian basis functions of B1G symmetry.
 There are    13 symmetry adapted cartesian basis functions of B2G symmetry.
 There are    13 symmetry adapted cartesian basis functions of B3G symmetry.
 There are     5 symmetry adapted cartesian basis functions of AU  symmetry.
 There are    30 symmetry adapted cartesian basis functions of B1U symmetry.
 There are    19 symmetry adapted cartesian basis functions of B2U symmetry.
 There are    19 symmetry adapted cartesian basis functions of B3U symmetry.
 There are    30 symmetry adapted basis functions of AG  symmetry.
 There are     7 symmetry adapted basis functions of B1G symmetry.
 There are    12 symmetry adapted basis functions of B2G symmetry.
 There are    12 symmetry adapted basis functions of B3G symmetry.
 There are     5 symmetry adapted basis functions of AU  symmetry.
 There are    25 symmetry adapted basis functions of B1U symmetry.
 There are    17 symmetry adapted basis functions of B2U symmetry.
 There are    17 symmetry adapted basis functions of B3U symmetry.
   125 basis functions,   188 primitive gaussians,   143 cartesian basis functions
    15 alpha electrons       13 beta electrons
       nuclear repulsion energy        67.8953640846 Hartrees.
 IExCor=  402 DFT=T Ex+Corr=B3LYP ExCW=0 ScaHFX=  0.200000
 ScaDFX=  0.800000  0.720000  1.000000  0.810000 ScalE2=  1.000000  1.000000
 IRadAn=      0 IRanWt=     -1 IRanGd=            0 ICorTp=0 IEmpDi=  4
 NAtoms=    3 NActive=    3 NUniq=    2 SFac= 2.25D+00 NAtFMM=   60 NAOKFM=F Big=F
 Integral buffers will be    131072 words long.
 Raffenetti 2 integral format.
 Two-electron integral symmetry is turned on.
 Leave Link  301 at Wed Aug  3 22:53:08 2016, MaxMem=    33554432 cpu:         0.2
 (Enter /home/proyectos/fulerenos/M3C-v2.0/M3C-deps_CCC/g09-AM64L-G09RevC.01/l302.exe)
 NPDir=0 NMtPBC=     1 NCelOv=     1 NCel=       1 NClECP=     1 NCelD=      1
         NCelK=      1 NCelE2=     1 NClLst=     1 CellRange=     0.0.
 One-electron integrals computed using PRISM.
 One-electron integral symmetry used in STVInt
 NBasis=   125 RedAO= T EigKep=  8.97D-05  NBF=    30     7    12    12     5    25    17    17
 NBsUse=   125 1.00D-06 EigRej= -1.00D+00 NBFU=    30     7    12    12     5    25    17    17
 Precomputing XC quadrature grid using
 IXCGrd= 4 IRadAn=           0 IRanWt=          -1 IRanGd=           0 AccXCQ= 0.00D+00.
 Generated NRdTot=       0 NPtTot=           0 NUsed=           0 NTot=          32
 NSgBfM=   143   143   143   143   143 MxSgAt=     3 MxSgA2=     3.
 Leave Link  302 at Wed Aug  3 22:53:09 2016, MaxMem=    33554432 cpu:         0.9
 (Enter /home/proyectos/fulerenos/M3C-v2.0/M3C-deps_CCC/g09-AM64L-G09RevC.01/l303.exe)
 DipDrv:  MaxL=1.
 Leave Link  303 at Wed Aug  3 22:53:09 2016, MaxMem=    33554432 cpu:         0.1
 (Enter /home/proyectos/fulerenos/M3C-v2.0/M3C-deps_CCC/g09-AM64L-G09RevC.01/l401.exe)
 ExpMin= 4.05D-02 ExpMax= 9.34D+04 ExpMxC= 3.17D+03 IAcc=2 IRadAn=         4 AccDes= 0.00D+00
 Harris functional with IExCor=  402 and IRadAn=       4 diagonalized for initial guess.
 HarFok:  IExCor=  402 AccDes= 0.00D+00 IRadAn=         4 IDoV= 1 UseB2=F ITyADJ=14
 ICtDFT=  3500011 ScaDFX=  1.000000  1.000000  1.000000  1.000000
 FoFCou: FMM=F IPFlag=           0 FMFlag=      100000 FMFlg1=           0
         NFxFlg=           0 DoJE=T BraDBF=F KetDBF=T FulRan=T
         wScrn=  0.000000 ICntrl=     500 IOpCl=  0 I1Cent=   200000004 NGrid=           0
         NMat0=    1 NMatS0=      1 NMatT0=    0 NMatD0=    1 NMtDS0=    0 NMtDT0=    0
 Petite list used in FoFCou.
 Harris En= -474.066970937767    
 JPrj=0 DoOrth=F DoCkMO=F.
 Initial guess orbital symmetries:
 Alpha Orbitals:
       Occupied  (SGG) (SGU) (SGG) (SGG) (SGU) (PIU) (PIU) (SGG)
                 (SGU) (SGG) (PIU) (PIU) (SGU) (PIG) (PIG)
       Virtual   (SGG) (PIU) (PIU) (SGG) (SGU) (PIU) (PIU) (SGG)
                 (PIG) (PIG) (SGU) (PIU) (PIU) (DLTG) (DLTG) (SGG)
                 (SGU) (PIU) (PIU) (PIG) (PIG) (SGU) (DLTU) (DLTU)
                 (SGG) (SGU) (DLTG) (DLTG) (PIU) (PIU) (SGG) (PIG)
                 (PIG) (PIG) (PIG) (SGU) (SGG) (PIU) (PIU) (SGU)
                 (SGU) (DLTG) (DLTG) (SGG) (SGG) (PIG) (PIG) (PIU)
                 (PIU) (DLTU) (DLTU) (SGG) (DLTG) (DLTG) (PHIU)
                 (PHIU) (PIU) (PIU) (PIG) (PIG) (DLTU) (DLTU) (SGU)
                 (SGG) (SGU) (PIU) (PIU) (PIG) (PIG) (SGU) (PHIG)
                 (PHIG) (PHIU) (PHIU) (PIU) (PIU) (DLTG) (DLTG)
                 (SGG) (DLTU) (DLTU) (PIG) (PIG) (SGU) (SGG) (PIU)
                 (PIU) (SGU) (DLTG) (DLTG) (PIG) (PIG) (SGG) (DLTG)
                 (DLTG) (DLTU) (DLTU) (PIG) (PIG) (PIU) (PIU) (SGG)
                 (SGU) (SGG) (PIU) (PIU) (SGU) (SGG) (SGU) (SGG)
 Beta  Orbitals:
       Occupied  (SGG) (SGU) (SGG) (SGG) (SGU) (PIU) (PIU) (SGG)
                 (SGU) (SGG) (PIU) (PIU) (SGU)
       Virtual   (PIG) (PIG) (SGG) (PIU) (PIU) (SGG) (SGU) (PIU)
                 (PIU) (SGG) (PIG) (PIG) (SGU) (PIU) (PIU) (DLTG)
                 (DLTG) (SGG) (SGU) (PIU) (PIU) (PIG) (PIG) (SGU)
                 (DLTU) (DLTU) (SGG) (SGU) (DLTG) (DLTG) (PIU)
                 (PIU) (SGG) (PIG) (PIG) (PIG) (PIG) (SGU) (SGG)
                 (PIU) (PIU) (SGU) (SGU) (DLTG) (DLTG) (SGG) (SGG)
                 (PIG) (PIG) (PIU) (PIU) (DLTU) (DLTU) (SGG) (DLTG)
                 (DLTG) (PHIU) (PHIU) (PIU) (PIU) (PIG) (PIG) (DLTU)
                 (DLTU) (SGU) (SGG) (SGU) (PIU) (PIU) (PIG) (PIG)
                 (SGU) (PHIG) (PHIG) (PHIU) (PHIU) (PIU) (PIU)
                 (DLTG) (DLTG) (SGG) (DLTU) (DLTU) (PIG) (PIG)
                 (SGU) (SGG) (PIU) (PIU) (SGU) (DLTG) (DLTG) (PIG)
                 (PIG) (SGG) (DLTG) (DLTG) (DLTU) (DLTU) (PIG)
                 (PIG) (PIU) (PIU) (SGG) (SGU) (SGG) (PIU) (PIU)
                 (SGU) (SGG) (SGU) (SGG)
 The electronic state of the initial guess is 3-SGG.
 Initial guess <Sx>= 0.0000 <Sy>= 0.0000 <Sz>= 1.0000 <S**2>= 2.0000 S= 1.0000
 Leave Link  401 at Wed Aug  3 22:53:09 2016, MaxMem=    33554432 cpu:         1.1
 (Enter /home/proyectos/fulerenos/M3C-v2.0/M3C-deps_CCC/g09-AM64L-G09RevC.01/l502.exe)
 UHF open shell SCF:
 Using DIIS extrapolation, IDIIS=  1040.
 Integral symmetry usage will be decided dynamically.
 IVT=       82169 IEndB=       82169 NGot=    33554432 MDV=    33509496
 LenX=    33509496 LenY=    33488606
 Requested convergence on RMS density matrix=1.00D-08 within 128 cycles.
 Requested convergence on MAX density matrix=1.00D-06.
 Requested convergence on             energy=1.00D-06.
 No special actions if energy rises.
 Fock matrices will be formed incrementally for  20 cycles.

 Cycle   1  Pass 1  IDiag  1:
 FoFJK:  IHMeth= 1 ICntrl=       0 DoSepK=F KAlg= 0 I1Cent=   0 FoldK=F
 IRaf= 990000000 NMat=   1 IRICut=       1 DoRegI=T DoRafI=F ISym2E= 1.
 FoFCou: FMM=F IPFlag=           0 FMFlag=      100000 FMFlg1=           0
         NFxFlg=           0 DoJE=F BraDBF=F KetDBF=F FulRan=T
         wScrn=  0.000000 ICntrl=       0 IOpCl=  1 I1Cent=           0 NGrid=           0
         NMat0=    1 NMatS0=      1 NMatT0=    0 NMatD0=    1 NMtDS0=    0 NMtDT0=    0
 Petite list used in FoFCou.
 E= -474.075641795316    
 DIIS: error= 3.29D-02 at cycle   1 NSaved=   1.
 NSaved= 1 IEnMin= 1 EnMin= -474.075641795316     IErMin= 1 ErrMin= 3.29D-02
 ErrMax= 3.29D-02  0.00D+00 EMaxC= 1.00D-01 BMatC= 2.93D-01 BMatP= 2.93D-01
 IDIUse=3 WtCom= 6.71D-01 WtEn= 3.29D-01
 Coeff-Com:  0.100D+01
 Coeff-En:   0.100D+01
 Coeff:      0.100D+01
 Gap=     0.127 Goal=   None    Shift=    0.000
 Gap=     0.142 Goal=   None    Shift=    0.000
 GapD=    0.127 DampG=1.000 DampE=0.500 DampFc=0.5000 IDamp=-1.
 Damping current iteration by 5.00D-01
 RMSDP=6.82D-03 MaxDP=1.76D-01              OVMax= 2.64D-01

 Cycle   2  Pass 1  IDiag  1:
 RMSU=  3.34D-03    CP:  1.03D+00
 E= -474.088010414161     Delta-E=       -0.012368618845 Rises=F Damp=T
 DIIS: error= 1.53D-02 at cycle   2 NSaved=   2.
 NSaved= 2 IEnMin= 2 EnMin= -474.088010414161     IErMin= 2 ErrMin= 1.53D-02
 ErrMax= 1.53D-02  0.00D+00 EMaxC= 1.00D-01 BMatC= 5.60D-02 BMatP= 2.93D-01
 IDIUse=3 WtCom= 8.47D-01 WtEn= 1.53D-01
 Coeff-Com:  0.242D+00 0.758D+00
 Coeff-En:   0.415D+00 0.585D+00
 Coeff:      0.268D+00 0.732D+00
 Gap=     0.165 Goal=   None    Shift=    0.000
 Gap=     0.161 Goal=   None    Shift=    0.000
 RMSDP=1.66D-03 MaxDP=4.78D-02 DE=-1.24D-02 OVMax= 1.63D-01

 Cycle   3  Pass 1  IDiag  1:
 RMSU=  1.09D-03    CP:  1.01D+00  6.52D-01
 E= -474.142348814067     Delta-E=       -0.054338399906 Rises=F Damp=F
 DIIS: error= 3.81D-03 at cycle   3 NSaved=   3.
 NSaved= 3 IEnMin= 3 EnMin= -474.142348814067     IErMin= 3 ErrMin= 3.81D-03
 ErrMax= 3.81D-03  0.00D+00 EMaxC= 1.00D-01 BMatC= 1.50D-03 BMatP= 5.60D-02
 IDIUse=3 WtCom= 9.62D-01 WtEn= 3.81D-02
 Coeff-Com: -0.292D-01 0.499D-01 0.979D+00
 Coeff-En:   0.000D+00 0.000D+00 0.100D+01
 Coeff:     -0.281D-01 0.480D-01 0.980D+00
 Gap=     0.174 Goal=   None    Shift=    0.000
 Gap=     0.160 Goal=   None    Shift=    0.000
 RMSDP=4.29D-04 MaxDP=2.84D-02 DE=-5.43D-02 OVMax= 2.43D-02

 Cycle   4  Pass 1  IDiag  1:
 RMSU=  3.86D-04    CP:  1.01D+00  6.53D-01  1.16D+00
 E= -474.143413735432     Delta-E=       -0.001064921365 Rises=F Damp=F
 DIIS: error= 1.01D-03 at cycle   4 NSaved=   4.
 NSaved= 4 IEnMin= 4 EnMin= -474.143413735432     IErMin= 4 ErrMin= 1.01D-03
 ErrMax= 1.01D-03  0.00D+00 EMaxC= 1.00D-01 BMatC= 1.89D-04 BMatP= 1.50D-03
 IDIUse=3 WtCom= 9.90D-01 WtEn= 1.01D-02
 Coeff-Com: -0.326D-02-0.221D-01-0.111D-01 0.104D+01
 Coeff-En:   0.000D+00 0.000D+00 0.000D+00 0.100D+01
 Coeff:     -0.323D-02-0.219D-01-0.110D-01 0.104D+01
 Gap=     0.176 Goal=   None    Shift=    0.000
 Gap=     0.162 Goal=   None    Shift=    0.000
 RMSDP=2.17D-04 MaxDP=1.07D-02 DE=-1.06D-03 OVMax= 8.77D-03

 Cycle   5  Pass 1  IDiag  1:
 RMSU=  1.84D-04    CP:  1.01D+00  6.82D-01  1.22D+00  1.05D+00
 E= -474.143590941536     Delta-E=       -0.000177206104 Rises=F Damp=F
 DIIS: error= 4.39D-04 at cycle   5 NSaved=   5.
 NSaved= 5 IEnMin= 5 EnMin= -474.143590941536     IErMin= 5 ErrMin= 4.39D-04
 ErrMax= 4.39D-04  0.00D+00 EMaxC= 1.00D-01 BMatC= 4.30D-05 BMatP= 1.89D-04
 IDIUse=3 WtCom= 9.96D-01 WtEn= 4.39D-03
 Coeff-Com:  0.264D-02-0.119D-01-0.168D+00 0.251D+00 0.926D+00
 Coeff-En:   0.000D+00 0.000D+00 0.000D+00 0.000D+00 0.100D+01
 Coeff:      0.263D-02-0.119D-01-0.167D+00 0.250D+00 0.926D+00
 Gap=     0.177 Goal=   None    Shift=    0.000
 Gap=     0.162 Goal=   None    Shift=    0.000
 RMSDP=8.42D-05 MaxDP=4.10D-03 DE=-1.77D-04 OVMax= 4.52D-03

 Cycle   6  Pass 1  IDiag  1:
 RMSU=  3.23D-05    CP:  1.01D+00  6.83D-01  1.24D+00  1.21D+00  1.20D+00
 E= -474.143624323339     Delta-E=       -0.000033381803 Rises=F Damp=F
 DIIS: error= 1.86D-04 at cycle   6 NSaved=   6.
 NSaved= 6 IEnMin= 6 EnMin= -474.143624323339     IErMin= 6 ErrMin= 1.86D-04
 ErrMax= 1.86D-04  0.00D+00 EMaxC= 1.00D-01 BMatC= 4.15D-06 BMatP= 4.30D-05
 IDIUse=3 WtCom= 9.98D-01 WtEn= 1.86D-03
 Coeff-Com: -0.743D-03 0.381D-02-0.254D-01-0.541D-01 0.111D+00 0.965D+00
 Coeff-En:   0.000D+00 0.000D+00 0.000D+00 0.000D+00 0.000D+00 0.100D+01
 Coeff:     -0.742D-03 0.380D-02-0.254D-01-0.540D-01 0.111D+00 0.965D+00
 Gap=     0.177 Goal=   None    Shift=    0.000
 Gap=     0.162 Goal=   None    Shift=    0.000
 RMSDP=2.75D-05 MaxDP=1.36D-03 DE=-3.34D-05 OVMax= 1.24D-03

 Cycle   7  Pass 1  IDiag  1:
 RMSU=  6.60D-06    CP:  1.01D+00  6.88D-01  1.25D+00  1.23D+00  1.29D+00
                    CP:  1.19D+00
 E= -474.143626480913     Delta-E=       -0.000002157574 Rises=F Damp=F
 DIIS: error= 2.08D-05 at cycle   7 NSaved=   7.
 NSaved= 7 IEnMin= 7 EnMin= -474.143626480913     IErMin= 7 ErrMin= 2.08D-05
 ErrMax= 2.08D-05  0.00D+00 EMaxC= 1.00D-01 BMatC= 6.43D-08 BMatP= 4.15D-06
 IDIUse=1 WtCom= 1.00D+00 WtEn= 0.00D+00
 Coeff-Com:  0.176D-03-0.373D-03 0.714D-02-0.318D-02-0.322D-01-0.116D+00
 Coeff-Com:  0.114D+01
 Coeff:      0.176D-03-0.373D-03 0.714D-02-0.318D-02-0.322D-01-0.116D+00
 Coeff:      0.114D+01
 Gap=     0.177 Goal=   None    Shift=    0.000
 Gap=     0.162 Goal=   None    Shift=    0.000
 RMSDP=5.37D-06 MaxDP=2.71D-04 DE=-2.16D-06 OVMax= 2.19D-04

 Cycle   8  Pass 1  IDiag  1:
 RMSU=  2.27D-06    CP:  1.01D+00  6.88D-01  1.25D+00  1.23D+00  1.31D+00
                    CP:  1.26D+00  1.35D+00
 E= -474.143626542200     Delta-E=       -0.000000061287 Rises=F Damp=F
 DIIS: error= 3.96D-06 at cycle   8 NSaved=   8.
 NSaved= 8 IEnMin= 8 EnMin= -474.143626542200     IErMin= 8 ErrMin= 3.96D-06
 ErrMax= 3.96D-06  0.00D+00 EMaxC= 1.00D-01 BMatC= 4.13D-09 BMatP= 6.43D-08
 IDIUse=1 WtCom= 1.00D+00 WtEn= 0.00D+00
 Coeff-Com:  0.151D-04-0.122D-03 0.212D-02 0.229D-02-0.810D-02-0.520D-01
 Coeff-Com: -0.211D-01 0.108D+01
 Coeff:      0.151D-04-0.122D-03 0.212D-02 0.229D-02-0.810D-02-0.520D-01
 Coeff:     -0.211D-01 0.108D+01
 Gap=     0.177 Goal=   None    Shift=    0.000
 Gap=     0.162 Goal=   None    Shift=    0.000
 RMSDP=1.47D-06 MaxDP=5.92D-05 DE=-6.13D-08 OVMax= 6.19D-05

 Cycle   9  Pass 1  IDiag  1:
 RMSU=  3.35D-07    CP:  1.01D+00  6.88D-01  1.25D+00  1.24D+00  1.31D+00
                    CP:  1.27D+00  1.50D+00  1.28D+00
 E= -474.143626545946     Delta-E=       -0.000000003746 Rises=F Damp=F
 DIIS: error= 1.12D-06 at cycle   9 NSaved=   9.
 NSaved= 9 IEnMin= 9 EnMin= -474.143626545946     IErMin= 9 ErrMin= 1.12D-06
 ErrMax= 1.12D-06  0.00D+00 EMaxC= 1.00D-01 BMatC= 2.59D-10 BMatP= 4.13D-09
 IDIUse=1 WtCom= 1.00D+00 WtEn= 0.00D+00
 Coeff-Com: -0.106D-04 0.272D-04-0.691D-03 0.371D-03 0.250D-02 0.809D-02
 Coeff-Com: -0.745D-01 0.130D-01 0.105D+01
 Coeff:     -0.106D-04 0.272D-04-0.691D-03 0.371D-03 0.250D-02 0.809D-02
 Coeff:     -0.745D-01 0.130D-01 0.105D+01
 Gap=     0.177 Goal=   None    Shift=    0.000
 Gap=     0.162 Goal=   None    Shift=    0.000
 RMSDP=4.13D-07 MaxDP=1.75D-05 DE=-3.75D-09 OVMax= 1.79D-05

 Cycle  10  Pass 1  IDiag  1:
 RMSU=  9.37D-08    CP:  1.01D+00  6.88D-01  1.25D+00  1.24D+00  1.31D+00
                    CP:  1.28D+00  1.52D+00  1.37D+00  1.21D+00
 E= -474.143626546146     Delta-E=       -0.000000000200 Rises=F Damp=F
 DIIS: error= 3.70D-07 at cycle  10 NSaved=  10.
 NSaved=10 IEnMin=10 EnMin= -474.143626546146     IErMin=10 ErrMin= 3.70D-07
 ErrMax= 3.70D-07  0.00D+00 EMaxC= 1.00D-01 BMatC= 3.42D-11 BMatP= 2.59D-10
 IDIUse=1 WtCom= 1.00D+00 WtEn= 0.00D+00
 Coeff-Com:  0.151D-05 0.201D-05-0.119D-03-0.210D-03 0.505D-03 0.401D-02
 Coeff-Com: -0.188D-02-0.788D-01 0.935D-01 0.983D+00
 Coeff:      0.151D-05 0.201D-05-0.119D-03-0.210D-03 0.505D-03 0.401D-02
 Coeff:     -0.188D-02-0.788D-01 0.935D-01 0.983D+00
 Gap=     0.177 Goal=   None    Shift=    0.000
 Gap=     0.162 Goal=   None    Shift=    0.000
 RMSDP=7.92D-08 MaxDP=4.15D-06 DE=-2.00D-10 OVMax= 3.33D-06

 Cycle  11  Pass 1  IDiag  1:
 RMSU=  1.51D-08    CP:  1.01D+00  6.88D-01  1.25D+00  1.24D+00  1.31D+00
                    CP:  1.28D+00  1.53D+00  1.39D+00  1.29D+00  1.11D+00
 E= -474.143626546158     Delta-E=       -0.000000000012 Rises=F Damp=F
 DIIS: error= 4.03D-08 at cycle  11 NSaved=  11.
 NSaved=11 IEnMin=11 EnMin= -474.143626546158     IErMin=11 ErrMin= 4.03D-08
 ErrMax= 4.03D-08  0.00D+00 EMaxC= 1.00D-01 BMatC= 4.78D-13 BMatP= 3.42D-11
 IDIUse=1 WtCom= 1.00D+00 WtEn= 0.00D+00
 Coeff-Com: -0.132D-06-0.144D-06 0.217D-04 0.657D-05-0.653D-04-0.613D-03
 Coeff-Com:  0.278D-02 0.142D-02-0.211D-01-0.677D-01 0.109D+01
 Coeff:     -0.132D-06-0.144D-06 0.217D-04 0.657D-05-0.653D-04-0.613D-03
 Coeff:      0.278D-02 0.142D-02-0.211D-01-0.677D-01 0.109D+01
 Gap=     0.177 Goal=   None    Shift=    0.000
 Gap=     0.162 Goal=   None    Shift=    0.000
 RMSDP=9.59D-09 MaxDP=5.02D-07 DE=-1.17D-11 OVMax= 2.09D-07

 SCF Done:  E(UB3LYP) =  -474.143626546     A.U. after   11 cycles
            NFock= 11  Conv=0.96D-08     -V/T= 2.0018
 <Sx>= 0.0000 <Sy>= 0.0000 <Sz>= 1.0000 <S**2>= 2.0659 S= 1.0218
 <L.S>= 0.000000000000E+00
 KE= 4.732971417098D+02 PE=-1.258350271512D+03 EE= 2.430141391716D+02
 Annihilation of the first spin contaminant:
 S**2 before annihilation     2.0659,   after     2.0019
 Leave Link  502 at Wed Aug  3 22:53:19 2016, MaxMem=    33554432 cpu:        38.5
 (Enter /home/proyectos/fulerenos/M3C-v2.0/M3C-deps_CCC/g09-AM64L-G09RevC.01/l801.exe)
 DoSCS=F DFT=T ScalE2(SS,OS)=  1.000000  1.000000
 Range of M.O.s used for correlation:     1   125
 NBasis=   125 NAE=    15 NBE=    13 NFC=     0 NFV=     0
 NROrb=    125 NOA=    15 NOB=    13 NVA=   110 NVB=   112

 **** Warning!!: The largest alpha MO coefficient is  0.51950265D+02


 **** Warning!!: The largest beta MO coefficient is  0.52890973D+02

 Leave Link  801 at Wed Aug  3 22:53:19 2016, MaxMem=    33554432 cpu:         0.1
 (Enter /home/proyectos/fulerenos/M3C-v2.0/M3C-deps_CCC/g09-AM64L-G09RevC.01/l1101.exe)
 Using compressed storage, NAtomX=     3.
 Will process      4 centers per pass.
 Leave Link 1101 at Wed Aug  3 22:53:20 2016, MaxMem=    33554432 cpu:         1.1
 (Enter /home/proyectos/fulerenos/M3C-v2.0/M3C-deps_CCC/g09-AM64L-G09RevC.01/l1102.exe)
 Symmetrizing basis deriv contribution to polar:
 IMax=3 JMax=2 DiffMx= 0.00D+00
 Leave Link 1102 at Wed Aug  3 22:53:20 2016, MaxMem=    33554432 cpu:         0.5
 (Enter /home/proyectos/fulerenos/M3C-v2.0/M3C-deps_CCC/g09-AM64L-G09RevC.01/l1110.exe)
 Forming Gx(P) for the SCF density, NAtomX=     3.
 Integral derivatives from FoFJK, PRISM(SPDF).
 Do as many integral derivatives as possible in FoFJK.
 G2DrvN: MDV=      33554304.
 G2DrvN: will do     4 centers at a time, making    1 passes.
 Calling FoFCou, ICntrl=  3107 FMM=F I1Cent=   0 AccDes= 0.00D+00.
 FoFJK:  IHMeth= 1 ICntrl=    3107 DoSepK=F KAlg= 0 I1Cent=   0 FoldK=F
 IRaf=         0 NMat=   1 IRICut=       1 DoRegI=T DoRafI=F ISym2E= 1.
 FoFCou: FMM=F IPFlag=           0 FMFlag=      100000 FMFlg1=           0
         NFxFlg=           0 DoJE=F BraDBF=F KetDBF=F FulRan=T
         wScrn=  0.000000 ICntrl=    3107 IOpCl=  1 I1Cent=           0 NGrid=           0
         NMat0=    1 NMatS0=      1 NMatT0=    0 NMatD0=    1 NMtDS0=    0 NMtDT0=    0
 Petite list used in FoFCou.
 End of G2Drv F.D. properties file   721 does not exist.
 End of G2Drv F.D. properties file   722 does not exist.
 End of G2Drv F.D. properties file   788 does not exist.
 Leave Link 1110 at Wed Aug  3 22:53:24 2016, MaxMem=    33554432 cpu:        17.1
 (Enter /home/proyectos/fulerenos/M3C-v2.0/M3C-deps_CCC/g09-AM64L-G09RevC.01/l1002.exe)
 Minotr:  UHF open shell wavefunction.
          IDoAtm=111
          Direct CPHF calculation.
          Differentiating once with respect to electric field.
                with respect to dipole field.
          Differentiating once with respect to nuclear coordinates.
          Using symmetry in CPHF.
          Requested convergence is 1.0D-08 RMS, and 1.0D-07 maximum.
          Secondary convergence is 1.0D-12 RMS, and 1.0D-12 maximum.
          NewPWx=T KeepS1=F KeepF1=F KeepIn=T MapXYZ=F SortEE=F KeepMc=T.
          MDV=      33554148 using IRadAn=       2.
 Generate precomputed XC quadrature information.
          Solving linear equations simultaneously, MaxMat=       0.
 FoFJK:  IHMeth= 1 ICntrl=       0 DoSepK=F KAlg= 0 I1Cent=   0 FoldK=F
 IRaf= 990000000 NMat=   9 IRICut=      22 DoRegI=T DoRafI=T ISym2E= 2.
 FoFCou: FMM=F IPFlag=           0 FMFlag=      100000 FMFlg1=           0
         NFxFlg=           0 DoJE=F BraDBF=F KetDBF=F FulRan=T
         wScrn=  0.000000 ICntrl=       0 IOpCl=  1 I1Cent=           0 NGrid=           0
         NMat0=    9 NMatS0=      9 NMatT0=    0 NMatD0=    9 NMtDS0=    0 NMtDT0=    0
 Integrals replicated using symmetry in FoFCou.
          There are     9 degrees of freedom in the 1st order CPHF.  IDoFFX=4 NUNeed=     9.
      9 vectors produced by pass  0 Test12= 3.45D-14 1.11D-08 XBig12= 5.13D+02 1.16D+01.
 AX will form     9 AO Fock derivatives at one time.
      9 vectors produced by pass  1 Test12= 3.45D-14 1.11D-08 XBig12= 4.38D+02 6.45D+00.
      9 vectors produced by pass  2 Test12= 3.45D-14 1.11D-08 XBig12= 4.48D+00 4.82D-01.
      9 vectors produced by pass  3 Test12= 3.45D-14 1.11D-08 XBig12= 5.95D-02 8.78D-02.
      9 vectors produced by pass  4 Test12= 3.45D-14 1.11D-08 XBig12= 4.78D-03 4.82D-02.
      9 vectors produced by pass  5 Test12= 3.45D-14 1.11D-08 XBig12= 7.07D-05 2.72D-03.
      9 vectors produced by pass  6 Test12= 3.45D-14 1.11D-08 XBig12= 4.29D-07 2.01D-04.
      7 vectors produced by pass  7 Test12= 3.45D-14 1.11D-08 XBig12= 4.69D-09 3.27D-05.
      5 vectors produced by pass  8 Test12= 3.45D-14 1.11D-08 XBig12= 5.27D-11 2.03D-06.
      2 vectors produced by pass  9 Test12= 3.45D-14 1.11D-08 XBig12= 1.36D-12 2.86D-07.
      1 vectors produced by pass 10 Test12= 3.45D-14 1.11D-08 XBig12= 4.28D-14 5.74D-08.
 InvSVY:  IOpt=1 It=  1 EMax= 3.55D-15
 Solved reduced A of dimension    78 with     9 vectors.
 FullF1:  Do perturbations    1 to     9.
 Isotropic polarizability for W=    0.000000       48.15 Bohr**3.
 End of Minotr F.D. properties file   721 does not exist.
 End of Minotr F.D. properties file   722 does not exist.
 End of Minotr F.D. properties file   788 does not exist.
 Leave Link 1002 at Wed Aug  3 22:53:50 2016, MaxMem=    33554432 cpu:       103.5
 (Enter /home/proyectos/fulerenos/M3C-v2.0/M3C-deps_CCC/g09-AM64L-G09RevC.01/l601.exe)
 Copying SCF densities to generalized density rwf, IOpCl= 1 IROHF=0.

 **********************************************************************

            Population analysis using the SCF density.

 **********************************************************************

 Orbital symmetries:
 Alpha Orbitals:
       Occupied  (SGG) (SGU) (SGG) (SGG) (SGU) (PIU) (PIU) (SGG)
                 (SGU) (SGG) (PIU) (PIU) (SGU) (PIG) (PIG)
       Virtual   (SGG) (PIU) (PIU) (SGG) (SGU) (PIU) (PIU) (SGG)
                 (PIG) (PIG) (SGU) (PIU) (PIU) (DLTG) (DLTG) (SGG)
                 (SGU) (PIU) (PIU) (SGU) (PIG) (PIG) (DLTU) (DLTU)
                 (SGG) (SGU) (DLTG) (DLTG) (PIU) (PIU) (SGG) (PIG)
                 (PIG) (PIG) (PIG) (SGG) (SGU) (PIU) (PIU) (SGU)
                 (SGU) (DLTG) (DLTG) (SGG) (SGG) (PIG) (PIG) (PIU)
                 (PIU) (DLTU) (DLTU) (SGG) (DLTG) (DLTG) (PHIU)
                 (PHIU) (PIU) (PIU) (PIG) (PIG) (DLTU) (DLTU) (SGU)
                 (SGG) (SGU) (PIU) (PIU) (PIG) (PIG) (SGU) (PHIG)
                 (PHIG) (PHIU) (PHIU) (DLTG) (DLTG) (PIU) (PIU)
                 (DLTU) (DLTU) (SGG) (PIG) (PIG) (SGU) (SGG) (PIU)
                 (PIU) (SGU) (DLTG) (DLTG) (PIG) (PIG) (SGG) (DLTG)
                 (DLTG) (DLTU) (DLTU) (PIG) (PIG) (PIU) (PIU) (SGG)
                 (SGU) (SGG) (PIU) (PIU) (SGU) (SGG) (SGU) (SGG)
 Beta  Orbitals:
       Occupied  (SGG) (SGU) (SGG) (SGG) (PIU) (PIU) (SGU) (SGG)
                 (SGU) (SGG) (PIU) (PIU) (SGU)
       Virtual   (PIG) (PIG) (SGG) (PIU) (PIU) (SGG) (SGU) (PIU)
                 (PIU) (SGG) (PIG) (PIG) (SGU) (PIU) (PIU) (DLTG)
                 (DLTG) (SGG) (SGU) (PIU) (PIU) (SGU) (PIG) (PIG)
                 (SGG) (DLTU) (DLTU) (SGU) (DLTG) (DLTG) (SGG)
                 (PIU) (PIU) (PIG) (PIG) (PIG) (PIG) (SGU) (SGG)
                 (SGU) (PIU) (PIU) (DLTG) (DLTG) (SGU) (SGG) (SGG)
                 (PIG) (PIG) (PIU) (PIU) (SGG) (DLTU) (DLTU) (PHIU)
                 (PHIU) (DLTG) (DLTG) (PIU) (PIU) (PIG) (PIG) (DLTU)
                 (DLTU) (SGU) (SGG) (SGU) (PIU) (PIU) (PIG) (PIG)
                 (SGU) (PHIG) (PHIG) (PHIU) (PHIU) (DLTG) (DLTG)
                 (PIU) (PIU) (SGG) (DLTU) (DLTU) (PIG) (PIG) (SGU)
                 (SGG) (PIU) (PIU) (SGU) (DLTG) (DLTG) (PIG) (PIG)
                 (SGG) (DLTG) (DLTG) (DLTU) (DLTU) (PIG) (PIG)
                 (PIU) (PIU) (SGG) (SGU) (SGG) (PIU) (PIU) (SGU)
                 (SGG) (SGU) (SGG)
 The electronic state is 3-SGG.
 Alpha  occ. eigenvalues --  -88.95393 -10.30181 -10.30175  -8.04002  -6.00015
 Alpha  occ. eigenvalues --   -5.99835  -5.99835  -0.89932  -0.74948  -0.45462
 Alpha  occ. eigenvalues --   -0.41476  -0.41476  -0.35010  -0.28482  -0.28482
 Alpha virt. eigenvalues --   -0.10800  -0.08984  -0.08984   0.02607   0.03415
 Alpha virt. eigenvalues --    0.04309   0.04309   0.06585   0.08796   0.08796
 Alpha virt. eigenvalues --    0.11259   0.13492   0.13492   0.15420   0.15421
 Alpha virt. eigenvalues --    0.18885   0.19644   0.28716   0.28716   0.30729
 Alpha virt. eigenvalues --    0.31244   0.31244   0.32702   0.32703   0.33713
 Alpha virt. eigenvalues --    0.38564   0.44574   0.44576   0.51037   0.51037
 Alpha virt. eigenvalues --    0.51508   0.52049   0.52049   0.60857   0.60857
 Alpha virt. eigenvalues --    0.64186   0.64286   0.70990   0.70990   0.72123
 Alpha virt. eigenvalues --    0.94403   0.95060   0.95061   0.98817   1.12628
 Alpha virt. eigenvalues --    1.20343   1.20343   1.38191   1.38191   1.40548
 Alpha virt. eigenvalues --    1.40550   1.41609   1.53369   1.53371   1.55748
 Alpha virt. eigenvalues --    1.55748   1.64829   1.64829   1.69388   1.69388
 Alpha virt. eigenvalues --    1.71394   1.71395   1.90678   1.95699   1.98590
 Alpha virt. eigenvalues --    2.24810   2.24810   2.63910   2.63910   2.70916
 Alpha virt. eigenvalues --    2.75202   2.75202   2.77053   2.77053   2.80338
 Alpha virt. eigenvalues --    2.80338   2.81004   2.81004   3.05776   3.05776
 Alpha virt. eigenvalues --    3.07020   3.09464   3.09464   3.29850   3.61208
 Alpha virt. eigenvalues --    3.84880   3.84880   4.04815   4.54189   4.54192
 Alpha virt. eigenvalues --    4.91964   4.91964   5.51794   6.85362   6.85365
 Alpha virt. eigenvalues --    6.86870   6.86872   7.00853   7.00853   7.21308
 Alpha virt. eigenvalues --    7.21308   7.26129   7.45471   8.92455  17.25355
 Alpha virt. eigenvalues --   17.25355  18.00881  23.48236  24.11042 190.01610
  Beta  occ. eigenvalues --  -88.95647 -10.28579 -10.28575  -8.04197  -6.00237
  Beta  occ. eigenvalues --   -6.00237  -6.00146  -0.88251  -0.69930  -0.41359
  Beta  occ. eigenvalues --   -0.39408  -0.39408  -0.32418
  Beta virt. eigenvalues --   -0.16200  -0.16200  -0.09954  -0.03589  -0.03589
  Beta virt. eigenvalues --    0.02861   0.03642   0.04959   0.04959   0.06617
  Beta virt. eigenvalues --    0.09461   0.09461   0.11527   0.13774   0.13774
  Beta virt. eigenvalues --    0.15399   0.15400   0.19263   0.20166   0.28705
  Beta virt. eigenvalues --    0.28705   0.31573   0.32881   0.32881   0.34162
  Beta virt. eigenvalues --    0.34848   0.34850   0.40480   0.45579   0.45580
  Beta virt. eigenvalues --    0.51718   0.52502   0.52502   0.55625   0.55625
  Beta virt. eigenvalues --    0.61636   0.61636   0.64874   0.65168   0.73188
  Beta virt. eigenvalues --    0.73690   0.73690   0.93980   0.93982   0.96563
  Beta virt. eigenvalues --    1.00022   1.15112   1.20669   1.20669   1.40326
  Beta virt. eigenvalues --    1.40326   1.41916   1.44305   1.44306   1.54269
  Beta virt. eigenvalues --    1.54269   1.60031   1.60033   1.64416   1.64416
  Beta virt. eigenvalues --    1.72798   1.72798   1.74974   1.74975   1.93009
  Beta virt. eigenvalues --    1.97587   1.99341   2.27196   2.27196   2.68990
  Beta virt. eigenvalues --    2.68990   2.72570   2.81755   2.81755   2.83522
  Beta virt. eigenvalues --    2.83522   2.84603   2.84603   2.85924   2.85924
  Beta virt. eigenvalues --    3.09376   3.09773   3.09773   3.12368   3.12368
  Beta virt. eigenvalues --    3.32217   3.62790   3.87523   3.87523   4.05971
  Beta virt. eigenvalues --    4.53771   4.53773   4.92362   4.92362   5.51690
  Beta virt. eigenvalues --    6.93369   6.93371   6.94865   6.94867   7.04948
  Beta virt. eigenvalues --    7.04948   7.25355   7.25355   7.28605   7.48983
  Beta virt. eigenvalues --    8.92924  17.24838  17.24838  18.00795  23.50024
  Beta virt. eigenvalues --   24.12797 190.01388
          Condensed to atoms (all electrons):
               1          2          3
     1  S   16.635867  -0.295208  -0.295208
     2  C   -0.295208   6.152705   0.119777
     3  C   -0.295208   0.119777   6.152705
          Atomic-Atomic Spin Densities.
               1          2          3
     1  S   -0.538132   0.218398   0.218398
     2  C    0.218398   0.864034  -0.031763
     3  C    0.218398  -0.031763   0.864034
 Mulliken charges and spin densities:
               1          2
     1  S   -0.045452  -0.101337
     2  C    0.022726   1.050669
     3  C    0.022726   1.050669
 Sum of Mulliken charges =  -0.00000   2.00000
 Mulliken charges and spin densities with hydrogens summed into heavy atoms:
               1          2
     1  S   -0.045452  -0.101337
     2  C    0.022726   1.050669
     3  C    0.022726   1.050669
 APT charges:
               1
     1  S   -0.110813
     2  C    0.055407
     3  C    0.055407
 Sum of APT charges =  -0.00000
 APT charges with hydrogens summed into heavy atoms:
               1
     1  S   -0.110813
     2  C    0.055407
     3  C    0.055407
 Electronic spatial extent (au):  <R**2>=            173.8179
 Charge=             -0.0000 electrons
 Dipole moment (field-independent basis, Debye):
    X=             -0.0000    Y=             -0.0000    Z=             -0.0000  Tot=              0.0000
 Quadrupole moment (field-independent basis, Debye-Ang):
   XX=            -24.2237   YY=            -24.2237   ZZ=            -30.9345
   XY=             -0.0000   XZ=              0.0000   YZ=              0.0000
 Traceless Quadrupole moment (field-independent basis, Debye-Ang):
   XX=              2.2369   YY=              2.2369   ZZ=             -4.4738
   XY=             -0.0000   XZ=              0.0000   YZ=              0.0000
 Octapole moment (field-independent basis, Debye-Ang**2):
  XXX=             -0.0000  YYY=             -0.0000  ZZZ=              0.0000  XYY=             -0.0000
  XXY=             -0.0000  XXZ=              0.0000  XZZ=             -0.0000  YZZ=             -0.0000
  YYZ=              0.0000  XYZ=              0.0000
 Hexadecapole moment (field-independent basis, Debye-Ang**3):
 XXXX=            -30.0049 YYYY=            -30.0049 ZZZZ=           -270.3952 XXXY=             -0.0000
 XXXZ=              0.0000 YYYX=             -0.0000 YYYZ=              0.0000 ZZZX=              0.0000
 ZZZY=              0.0000 XXYY=            -10.0016 XXZZ=            -45.1196 YYZZ=            -45.1196
 XXYZ=              0.0000 YYXZ=              0.0000 ZZXY=             -0.0000
 N-N= 6.789536408457D+01 E-N=-1.258350273361D+03  KE= 4.732971417098D+02
 Symmetry AG   KE= 3.196497213512D+02
 Symmetry B1G  KE= 5.486484492619D-30
 Symmetry B2G  KE= 1.220963752431D+00
 Symmetry B3G  KE= 1.220963752431D+00
 Symmetry AU   KE= 2.822676405692D-30
 Symmetry B1U  KE= 7.426745399702D+01
 Symmetry B2U  KE= 3.846901942836D+01
 Symmetry B3U  KE= 3.846901942836D+01
  Exact polarizability:  32.122  -0.000  32.122   0.000  -0.000  80.221
 Approx polarizability:  48.911   0.000  48.911  -0.000   0.000 225.838
                          Isotropic Fermi Contact Couplings
        Atom                 a.u.       MegaHertz       Gauss      10(-4) cm-1
     1  S(33)             -0.14860     -25.51930      -9.10592      -8.51232
     2  C(13)              0.03474      19.52556       6.96721       6.51303
     3  C(13)              0.03474      19.52556       6.96721       6.51303
 --------------------------------------------------------
       Center         ----  Spin Dipole Couplings  ----
                      3XX-RR        3YY-RR        3ZZ-RR
 --------------------------------------------------------
     1   Atom       -0.415673     -0.415673      0.831346
     2   Atom        0.358564      0.358564     -0.717128
     3   Atom        0.358564      0.358564     -0.717128
 --------------------------------------------------------
                        XY            XZ            YZ
 --------------------------------------------------------
     1   Atom        0.000000     -0.000000      0.000000
     2   Atom       -0.000000     -0.000000     -0.000000
     3   Atom        0.000000      0.000000      0.000000
 --------------------------------------------------------


 ---------------------------------------------------------------------------------
              Anisotropic Spin Dipole Couplings in Principal Axis System
 ---------------------------------------------------------------------------------

       Atom             a.u.   MegaHertz   Gauss  10(-4) cm-1        Axes

              Baa    -0.4157   -17.042    -6.081    -5.685  1.0000 -0.0000  0.0000
     1 S(33)  Bbb    -0.4157   -17.042    -6.081    -5.685  0.0000  1.0000  0.0000
              Bcc     0.8313    34.084    12.162    11.369  0.0000  0.0000  1.0000
 
              Baa    -0.7171   -96.232   -34.338   -32.099  0.0000  0.0000  1.0000
     2 C(13)  Bbb     0.3586    48.116    17.169    16.050  0.0024  1.0000 -0.0000
              Bcc     0.3586    48.116    17.169    16.050  1.0000 -0.0024 -0.0000
 
              Baa    -0.7171   -96.232   -34.338   -32.099  0.0000  0.0000  1.0000
     3 C(13)  Bbb     0.3586    48.116    17.169    16.050 -0.0157  0.9999 -0.0000
              Bcc     0.3586    48.116    17.169    16.050  0.9999  0.0157 -0.0000
 

 ---------------------------------------------------------------------------------

 No NMR shielding tensors so no spin-rotation constants.
 Leave Link  601 at Wed Aug  3 22:53:51 2016, MaxMem=    33554432 cpu:         1.4
 (Enter /home/proyectos/fulerenos/M3C-v2.0/M3C-deps_CCC/g09-AM64L-G09RevC.01/l701.exe)
 Compute integral second derivatives.
 ... and contract with generalized density number  0.
 Leave Link  701 at Wed Aug  3 22:53:51 2016, MaxMem=    33554432 cpu:         1.3
 (Enter /home/proyectos/fulerenos/M3C-v2.0/M3C-deps_CCC/g09-AM64L-G09RevC.01/l702.exe)
 L702 exits ... SP integral derivatives will be done elsewhere.
 Leave Link  702 at Wed Aug  3 22:53:51 2016, MaxMem=    33554432 cpu:         0.1
 (Enter /home/proyectos/fulerenos/M3C-v2.0/M3C-deps_CCC/g09-AM64L-G09RevC.01/l703.exe)
 Compute integral second derivatives, UseDBF=F ICtDFT=           0.
 Integral derivatives from FoFJK, PRISM(SPDF).
 Calling FoFJK, ICntrl=    100127 FMM=F ISym2X=1 I1Cent= 0 IOpClX= 1 NMat=1 NMatS=1 NMatT=0.
 FoFJK:  IHMeth= 1 ICntrl=  100127 DoSepK=F KAlg= 0 I1Cent=   0 FoldK=F
 IRaf=         0 NMat=   1 IRICut=       1 DoRegI=T DoRafI=F ISym2E= 1.
 FoFCou: FMM=F IPFlag=           0 FMFlag=      100000 FMFlg1=         800
         NFxFlg=           0 DoJE=F BraDBF=F KetDBF=F FulRan=T
         wScrn=  0.000000 ICntrl=  100127 IOpCl=  1 I1Cent=           0 NGrid=           0
         NMat0=    1 NMatS0=      1 NMatT0=    0 NMatD0=    1 NMtDS0=    0 NMtDT0=    0
 Petite list used in FoFCou.
 Leave Link  703 at Wed Aug  3 22:53:57 2016, MaxMem=    33554432 cpu:        24.4
 (Enter /home/proyectos/fulerenos/M3C-v2.0/M3C-deps_CCC/g09-AM64L-G09RevC.01/l716.exe)
 Dipole        =-3.79773202D-17-4.74462401D-18 2.76574476D-15
 Polarizability= 3.21216946D+01-2.03990096D-09 3.21216946D+01
                 1.51319474D-09-6.23541398D-09 8.02209067D+01
 Full mass-weighted force constant matrix:
 Low frequencies ---   -8.9113   -8.9113    0.0035    0.0035    0.0045   67.5479
 Low frequencies ---   67.5479  729.0705  832.4371
 Diagonal vibrational polarizability:
       15.4641648      15.4641657       1.8481339
 Harmonic frequencies (cm**-1), IR intensities (KM/Mole), Raman scattering
 activities (A**4/AMU), depolarization ratios for plane and unpolarized
 incident light, reduced masses (AMU), force constants (mDyne/A),
 and normal coordinates:
                      1                      2                      3
                     PIU                    PIU                    SGU
 Frequencies --     67.5479                67.5479               729.0705
 Red. masses --     16.3901                16.3901                16.3901
 Frc consts  --      0.0441                 0.0441                 5.1330
 IR Inten    --      2.6219                 2.6219                36.5039
  Atom  AN      X      Y      Z        X      Y      Z        X      Y      Z
     1  16     0.46  -0.10  -0.00     0.10   0.46  -0.00     0.00   0.00   0.47
     2   6    -0.61   0.13   0.00    -0.13  -0.61   0.00    -0.00  -0.00  -0.62
     3   6    -0.61   0.13   0.00    -0.13  -0.61   0.00    -0.00  -0.00  -0.62
                      4
                     SGG
 Frequencies --    832.4371
 Red. masses --     12.0000
 Frc consts  --      4.8993
 IR Inten    --      0.0000
  Atom  AN      X      Y      Z
     1  16    -0.00   0.00  -0.00
     2   6     0.00  -0.00   0.71
     3   6     0.00  -0.00  -0.71

 -------------------
 - Thermochemistry -
 -------------------
 Temperature   298.150 Kelvin.  Pressure   1.00000 Atm.
 Atom     1 has atomic number 16 and mass  31.97207
 Atom     2 has atomic number  6 and mass  12.00000
 Atom     3 has atomic number  6 and mass  12.00000
 Molecular mass:    55.97207 amu.
 Principal axes and moments of inertia in atomic units:
                           1         2         3
     Eigenvalues --     0.00000 229.59879 229.59879
           X           -0.00000   1.00000  -0.00000
           Y            0.00000   0.00000   1.00000
           Z            1.00000   0.00000  -0.00000
 This molecule is a prolate symmetric top.
 Rotational symmetry number  2.
 Rotational temperature (Kelvin)      0.37724
 Rotational constant (GHZ):           7.860413
 Zero-point vibrational energy      10147.9 (Joules/Mol)
                                    2.42542 (Kcal/Mol)
 Warning -- explicit consideration of   2 degrees of freedom as
           vibrations may cause significant error
 Vibrational temperatures:     97.19    97.19  1048.97  1197.69
          (Kelvin)
 
 Zero-point correction=                           0.003865 (Hartree/Particle)
 Thermal correction to Energy=                    0.007994
 Thermal correction to Enthalpy=                  0.008938
 Thermal correction to Gibbs Free Energy=        -0.020969
 Sum of electronic and zero-point Energies=           -474.139761
 Sum of electronic and thermal Energies=              -474.135633
 Sum of electronic and thermal Enthalpies=            -474.134688
 Sum of electronic and thermal Free Energies=         -474.164595
 
                     E (Thermal)             CV                S
                      KCal/Mol        Cal/Mol-Kelvin    Cal/Mol-Kelvin
 Total                    5.016             10.281             62.944
 Electronic               0.000              0.000              2.183
 Translational            0.889              2.981             37.988
 Rotational               0.592              1.987             13.869
 Vibrational              3.535              5.313              8.903
 Vibration     1          0.598              1.970              4.224
 Vibration     2          0.598              1.970              4.224
                       Q            Log10(Q)             Ln(Q)
 Total Bot       0.441394D+10          9.644826         22.208033
 Total V=0       0.264647D+12         11.422667         26.301662
 Vib (Bot)       0.226207D+00         -0.645495         -1.486306
 Vib (Bot)    1  0.305428D+01          0.484909          1.116545
 Vib (Bot)    2  0.305428D+01          0.484909          1.116545
 Vib (V=0)       0.135627D+02          1.132346          2.607323
 Vib (V=0)    1  0.359494D+01          0.555691          1.279527
 Vib (V=0)    2  0.359494D+01          0.555691          1.279527
 Electronic      0.300000D+01          0.477121          1.098612
 Translational   0.164593D+08          7.216412         16.616403
 Rotational      0.395173D+03          2.596787          5.979324
 
                                                              b3lyp opt
                                                             IR Spectrum
 
                                                                                                                                     
     8               7                                                                                                               
     3               2                                                                                                    6          
     2               9                                                                                                    8          
 
                     X                                                                                                    X          
                     X                                                                                                    X          
                     X                                                                                                    X          
                     X                                                                                                               
                     X                                                                                                               
                     X                                                                                                               
                     X                                                                                                               
                     X                                                                                                               
                     X                                                                                                               
                     X                                                                                                               
                     X                                                                                                               
                     X                                                                                                               
                     X                                                                                                               
                     X                                                                                                               
                     X                                                                                                               
                     X                                                                                                               
                     X                                                                                                               
                     X                                                                                                               
                     X                                                                                                               
                     X                                                                                                               
 
 ***** Axes restored to original set *****
 -------------------------------------------------------------------
 Center     Atomic                   Forces (Hartrees/Bohr)
 Number     Number              X              Y              Z
 -------------------------------------------------------------------
      1       16           0.000000000   -0.000000000   -0.000000000
      2        6           0.000100177    0.000174203   -0.000000000
      3        6          -0.000100177   -0.000174203    0.000000000
 -------------------------------------------------------------------
 Cartesian Forces:  Max     0.000174203 RMS     0.000094730
 Z-matrix is all fixed cartesians, so copy forces.
 Force constants in Cartesian coordinates: 
                1             2             3             4             5 
      1  0.703098D-01
      2  0.118149D+00  0.207824D+00
      3  0.000000D+00  0.000000D+00  0.236715D-02
      4 -0.351549D-01 -0.590746D-01  0.000000D+00  0.566652D-01
      5 -0.590746D-01 -0.103912D+00  0.000000D+00  0.975405D-01  0.170193D+00
      6  0.000000D+00  0.000000D+00 -0.118357D-02  0.000000D+00  0.000000D+00
      7 -0.351549D-01 -0.590746D-01  0.000000D+00 -0.215103D-01 -0.384659D-01
      8 -0.590746D-01 -0.103912D+00  0.000000D+00 -0.384659D-01 -0.662807D-01
      9  0.000000D+00  0.000000D+00 -0.118357D-02  0.000000D+00  0.000000D+00
                6             7             8             9 
      6  0.573756D-03
      7  0.000000D+00  0.566652D-01
      8  0.000000D+00  0.975405D-01  0.170193D+00
      9  0.609819D-03  0.000000D+00  0.000000D+00  0.573756D-03
 Leave Link  716 at Wed Aug  3 22:53:57 2016, MaxMem=    33554432 cpu:         0.1
 (Enter /home/proyectos/fulerenos/M3C-v2.0/M3C-deps_CCC/g09-AM64L-G09RevC.01/l103.exe)

 GradGradGradGradGradGradGradGradGradGradGradGradGradGradGradGradGradGrad
 Berny optimization.
 Search for a local minimum.
 Step number   1 out of a maximum of    2
 All quantities printed in internal units (Hartrees-Bohrs-Radians)
 Second derivative matrix not updated -- analytic derivatives used.
 The second derivative matrix:
                          X1        Y1        Z1        X2        Y2
           X1           0.07031
           Y1           0.11815   0.20782
           Z1          -0.00000  -0.00000   0.00237
           X2          -0.03515  -0.05907  -0.00000   0.05667
           Y2          -0.05907  -0.10391   0.00000   0.09754   0.17019
           Z2           0.00000   0.00000  -0.00118  -0.00000  -0.00000
           X3          -0.03515  -0.05907   0.00000  -0.02151  -0.03847
           Y3          -0.05907  -0.10391   0.00000  -0.03847  -0.06628
           Z3           0.00000   0.00000  -0.00118   0.00000  -0.00000
                          Z2        X3        Y3        Z3
           Z2           0.00057
           X3          -0.00000   0.05667
           Y3          -0.00000   0.09754   0.17019
           Z3           0.00061  -0.00000  -0.00000   0.00057
 ITU=  0
     Eigenvalues ---    0.00335   0.00335   0.31468   0.38997
 Angle between quadratic step and forces=   0.00 degrees.
 ClnCor:  largest displacement from symmetrization is 5.69D-12 for atom     1.
 Linear search not attempted -- first point.
 ClnCor:  largest displacement from symmetrization is 2.04D-15 for atom     3.
 B after Tr=     0.000000    0.000000    0.000000
         Rot=    1.000000    0.000000    0.000000    0.000000 Ang=   0.00 deg.
 Variable       Old X    -DE/DX   Delta X   Delta X   Delta X     New X
                                 (Linear)    (Quad)   (Total)
    X1        1.80948   0.00000   0.00000  -0.00000   0.00000   1.80948
    Y1       -0.05016  -0.00000   0.00000   0.00000   0.00000  -0.05016
    Z1       -0.00000  -0.00000   0.00000   0.00000   0.00000   0.00000
    X2        3.35137   0.00010   0.00000   0.00032   0.00032   3.35168
    Y2        2.63111   0.00017   0.00000   0.00055   0.00055   2.63166
    Z2        0.00000  -0.00000   0.00000   0.00000   0.00000   0.00000
    X3        0.26760  -0.00010   0.00000  -0.00032  -0.00032   0.26728
    Y3       -2.73143  -0.00017   0.00000  -0.00055  -0.00055  -2.73199
    Z3       -0.00000   0.00000   0.00000  -0.00000  -0.00000  -0.00000
         Item               Value     Threshold  Converged?
 Maximum Force            0.000174     0.000450     YES
 RMS     Force            0.000095     0.000300     YES
 Maximum Displacement     0.000554     0.001800     YES
 RMS     Displacement     0.000301     0.001200     YES
 Predicted change in Energy=-1.283249D-07
 Optimization completed.
    -- Stationary point found.
 GradGradGradGradGradGradGradGradGradGradGradGradGradGradGradGradGradGrad

 Leave Link  103 at Wed Aug  3 22:53:57 2016, MaxMem=    33554432 cpu:         0.1
 (Enter /home/proyectos/fulerenos/M3C-v2.0/M3C-deps_CCC/g09-AM64L-G09RevC.01/l9999.exe)
 1\1\GINC-DEPAZ27\Freq\UB3LYP\6-311++G(3df,2p)\C2S1(3)\NAGUIRRE\03-Aug-
 2016\0\\#p b3lyp/6-311++G(3df,2p) freq\\b3lyp opt\\0,3\S,0.9575360001,
 -0.0265461426,0.\C,1.7734659996,1.3923208579,0.\C,0.1416060006,-1.4454
 131432,0.\\Version=EM64L-G09RevE.01\State=3-SGG\HF=-474.1436265\S2=2.0
 65943\S2-1=0.\S2A=2.001884\RMSD=9.593e-09\RMSF=9.473e-05\ZeroPoint=0.0
 038651\Thermal=0.007994\Dipole=0.,0.,0.\DipoleDeriv=-0.0337529,-0.3926
 028,0.,-0.3926028,-0.4907031,0.,0.,0.,0.1920163,0.0168764,0.1963014,0.
 ,0.1963014,0.2453515,0.,0.,0.,-0.0960082,0.0168764,0.1963014,0.,0.1963
 014,0.2453515,0.,0.,0.,-0.0960081\Polar=44.0748663,20.7860488,68.26773
 51,0.,0.,32.1216946\PG=D*H [C*(),X(C2S1)]\NImag=0\\0.07030978,0.118149
 29,0.20782366,0.,0.,0.00236715,-0.03515489,-0.05907465,0.,0.05666516,-
 0.05907465,-0.10391183,0.,0.09754052,0.17019250,0.,0.,-0.00118357,0.,0
 .,0.00057376,-0.03515489,-0.05907465,0.,-0.02151027,-0.03846587,0.,0.0
 5666516,-0.05907465,-0.10391183,0.,-0.03846587,-0.06628067,0.,0.097540
 52,0.17019250,0.,0.,-0.00118357,0.,0.,0.00060982,0.,0.,0.00057376\\0.,
 0.,0.,-0.00010018,-0.00017420,0.,0.00010018,0.00017420,0.\\\@


 PERICLES, SOPHOCLES,
 PELOPONESIAN WAR,
 FRENCH VERBS, LATIN VERBS
 H2SO4.
 Job cpu time:       0 days  0 hours  3 minutes 12.1 seconds.
 File lengths (MBytes):  RWF=     17 Int=      0 D2E=      0 Chk=      2 Scr=      1
 Normal termination of Gaussian 09 at Wed Aug  3 22:53:57 2016.
