 Entering Gaussian System, Link 0=/home/proyectos/fulerenos/M3C-v2.0/M3C-deps_CCC/g09-AM64L-G09RevC.01/g09
 Initial command:
 /home/proyectos/fulerenos/M3C-v2.0/M3C-deps_CCC/g09-AM64L-G09RevC.01/l1.exe "/scratch/naguirre/gaussian/Gau-22912.inp" -scrdir="/scratch/naguirre/gaussian/"
 Entering Link 1 = /home/proyectos/fulerenos/M3C-v2.0/M3C-deps_CCC/g09-AM64L-G09RevC.01/l1.exe PID=     22920.
  
 Copyright (c) 1988,1990,1992,1993,1995,1998,2003,2009,2015,
            Gaussian, Inc.  All Rights Reserved.
  
 This is part of the Gaussian(R) 09 program.  It is based on
 the Gaussian(R) 03 system (copyright 2003, Gaussian, Inc.),
 the Gaussian(R) 98 system (copyright 1998, Gaussian, Inc.),
 the Gaussian(R) 94 system (copyright 1995, Gaussian, Inc.),
 the Gaussian 92(TM) system (copyright 1992, Gaussian, Inc.),
 the Gaussian 90(TM) system (copyright 1990, Gaussian, Inc.),
 the Gaussian 88(TM) system (copyright 1988, Gaussian, Inc.),
 the Gaussian 86(TM) system (copyright 1986, Carnegie Mellon
 University), and the Gaussian 82(TM) system (copyright 1983,
 Carnegie Mellon University). Gaussian is a federally registered
 trademark of Gaussian, Inc.
  
 This software contains proprietary and confidential information,
 including trade secrets, belonging to Gaussian, Inc.
  
 This software is provided under written license and may be
 used, copied, transmitted, or stored only in accord with that
 written license.
  
 The following legend is applicable only to US Government
 contracts under FAR:
  
                    RESTRICTED RIGHTS LEGEND
  
 Use, reproduction and disclosure by the US Government is
 subject to restrictions as set forth in subparagraphs (a)
 and (c) of the Commercial Computer Software - Restricted
 Rights clause in FAR 52.227-19.
  
 Gaussian, Inc.
 340 Quinnipiac St., Bldg. 40, Wallingford CT 06492
  
  
 ---------------------------------------------------------------
 Warning -- This program may not be used in any manner that
 competes with the business of Gaussian, Inc. or will provide
 assistance to any competitor of Gaussian, Inc.  The licensee
 of this program is prohibited from giving any competitor of
 Gaussian, Inc. access to this program.  By using this program,
 the user acknowledges that Gaussian, Inc. is engaged in the
 business of creating and licensing software in the field of
 computational chemistry and represents and warrants to the
 licensee that it is not a competitor of Gaussian, Inc. and that
 it will not use this program in any manner prohibited above.
 ---------------------------------------------------------------
  

 Cite this work as:
 Gaussian 09, Revision E.01,
 M. J. Frisch, G. W. Trucks, H. B. Schlegel, G. E. Scuseria, 
 M. A. Robb, J. R. Cheeseman, G. Scalmani, V. Barone, B. Mennucci, 
 G. A. Petersson, H. Nakatsuji, M. Caricato, X. Li, H. P. Hratchian, 
 A. F. Izmaylov, J. Bloino, G. Zheng, J. L. Sonnenberg, M. Hada, 
 M. Ehara, K. Toyota, R. Fukuda, J. Hasegawa, M. Ishida, T. Nakajima, 
 Y. Honda, O. Kitao, H. Nakai, T. Vreven, J. A. Montgomery, Jr., 
 J. E. Peralta, F. Ogliaro, M. Bearpark, J. J. Heyd, E. Brothers, 
 K. N. Kudin, V. N. Staroverov, T. Keith, R. Kobayashi, J. Normand, 
 K. Raghavachari, A. Rendell, J. C. Burant, S. S. Iyengar, J. Tomasi, 
 M. Cossi, N. Rega, J. M. Millam, M. Klene, J. E. Knox, J. B. Cross, 
 V. Bakken, C. Adamo, J. Jaramillo, R. Gomperts, R. E. Stratmann, 
 O. Yazyev, A. J. Austin, R. Cammi, C. Pomelli, J. W. Ochterski, 
 R. L. Martin, K. Morokuma, V. G. Zakrzewski, G. A. Voth, 
 P. Salvador, J. J. Dannenberg, S. Dapprich, A. D. Daniels, 
 O. Farkas, J. B. Foresman, J. V. Ortiz, J. Cioslowski, 
 and D. J. Fox, Gaussian, Inc., Wallingford CT, 2013.
 
 ******************************************
 Gaussian 09:  EM64L-G09RevE.01 30-Nov-2015
                 3-Aug-2016 
 ******************************************
 %NProcShared=4
 Will use up to    4 processors via shared memory.
 ------------------------------
 #p b3lyp/6-311++G(3df,2p) freq
 ------------------------------
 1/10=4,30=1,38=1/1,3;
 2/12=2,17=6,18=5,40=1/2;
 3/5=4,6=6,7=1216,11=2,16=1,25=1,30=1,71=2,74=-5,140=1/1,2,3;
 4//1;
 5/5=2,38=5,98=1/2;
 8/6=4,10=90,11=11/1;
 11/6=1,8=1,9=11,15=111,16=1/1,2,10;
 10/6=1/2;
 6/7=2,8=2,9=2,10=2,18=1,28=1/1;
 7/8=1,10=1,25=1/1,2,3,16;
 1/10=4,30=1/3;
 99//99;
 Leave Link    1 at Wed Aug  3 22:55:51 2016, MaxMem=           0 cpu:         0.3
 (Enter /home/proyectos/fulerenos/M3C-v2.0/M3C-deps_CCC/g09-AM64L-G09RevC.01/l101.exe)
 ---------
 b3lyp opt
 ---------
 Symbolic Z-matrix:
 Charge =  1 Multiplicity = 4
 S                     0.12613  -0.14499   0. 
 C                     1.59088   0.90829   0. 
 C                     1.91898  -0.34641   0. 
 
 NAtoms=      3 NQM=        3 NQMF=       0 NMMI=      0 NMMIF=      0
                NMic=       0 NMicF=      0.
                    Isotopes and Nuclear Properties:
 (Nuclear quadrupole moments (NQMom) in fm**2, nuclear magnetic moments (NMagM)
  in nuclear magnetons)

  Atom         1           2           3
 IAtWgt=          32          12          12
 AtmWgt=  31.9720718  12.0000000  12.0000000
 NucSpn=           0           0           0
 AtZEff=   0.0000000   0.0000000   0.0000000
 NQMom=    0.0000000   0.0000000   0.0000000
 NMagM=    0.0000000   0.0000000   0.0000000
 AtZNuc=  16.0000000   6.0000000   6.0000000
 Leave Link  101 at Wed Aug  3 22:55:51 2016, MaxMem=    33554432 cpu:         0.2
 (Enter /home/proyectos/fulerenos/M3C-v2.0/M3C-deps_CCC/g09-AM64L-G09RevC.01/l103.exe)

 GradGradGradGradGradGradGradGradGradGradGradGradGradGradGradGradGradGrad
 Berny optimization.
 Initialization pass.
 Trust Radius=3.00D-01 FncErr=1.00D-07 GrdErr=1.00D-07
 Number of steps in this run=      2 maximum allowed number of steps=      2.
 GradGradGradGradGradGradGradGradGradGradGradGradGradGradGradGradGradGrad

 Leave Link  103 at Wed Aug  3 22:55:51 2016, MaxMem=    33554432 cpu:         0.1
 (Enter /home/proyectos/fulerenos/M3C-v2.0/M3C-deps_CCC/g09-AM64L-G09RevC.01/l202.exe)
                          Input orientation:                          
 ---------------------------------------------------------------------
 Center     Atomic      Atomic             Coordinates (Angstroms)
 Number     Number       Type             X           Y           Z
 ---------------------------------------------------------------------
      1         16           0        0.126131   -0.144993    0.000000
      2          6           0        1.590877    0.908286    0.000000
      3          6           0        1.918981   -0.346406    0.000000
 ---------------------------------------------------------------------
                    Distance matrix (angstroms):
                    1          2          3
     1  S    0.000000
     2  C    1.804128   0.000000
     3  C    1.804128   1.296883   0.000000
 Stoichiometry    C2S(1+,4)
 Framework group  C2V[C2(S),SGV(C2)]
 Deg. of freedom     2
 Full point group                 C2V     NOp   4
 Largest Abelian subgroup         C2V     NOp   4
 Largest concise Abelian subgroup C2      NOp   2
                         Standard orientation:                         
 ---------------------------------------------------------------------
 Center     Atomic      Atomic             Coordinates (Angstroms)
 Number     Number       Type             X           Y           Z
 ---------------------------------------------------------------------
      1         16           0        0.000000    0.000000    0.721529
      2          6           0       -0.000000    0.648442   -0.962039
      3          6           0       -0.000000   -0.648442   -0.962039
 ---------------------------------------------------------------------
 Rotational constants (GHZ):     50.0799974     13.0060415     10.3246699
 Leave Link  202 at Wed Aug  3 22:55:51 2016, MaxMem=    33554432 cpu:         0.0
 (Enter /home/proyectos/fulerenos/M3C-v2.0/M3C-deps_CCC/g09-AM64L-G09RevC.01/l301.exe)
 Standard basis: 6-311++G(3df,2p) (5D, 7F)
 Ernie: Thresh=  0.10000D-02 Tol=  0.10000D-05 Strict=F.
 There are    56 symmetry adapted cartesian basis functions of A1  symmetry.
 There are    18 symmetry adapted cartesian basis functions of A2  symmetry.
 There are    26 symmetry adapted cartesian basis functions of B1  symmetry.
 There are    43 symmetry adapted cartesian basis functions of B2  symmetry.
 There are    47 symmetry adapted basis functions of A1  symmetry.
 There are    17 symmetry adapted basis functions of A2  symmetry.
 There are    24 symmetry adapted basis functions of B1  symmetry.
 There are    37 symmetry adapted basis functions of B2  symmetry.
   125 basis functions,   188 primitive gaussians,   143 cartesian basis functions
    15 alpha electrons       12 beta electrons
       nuclear repulsion energy        71.0057706032 Hartrees.
 IExCor=  402 DFT=T Ex+Corr=B3LYP ExCW=0 ScaHFX=  0.200000
 ScaDFX=  0.800000  0.720000  1.000000  0.810000 ScalE2=  1.000000  1.000000
 IRadAn=      0 IRanWt=     -1 IRanGd=            0 ICorTp=0 IEmpDi=  4
 NAtoms=    3 NActive=    3 NUniq=    2 SFac= 2.25D+00 NAtFMM=   60 NAOKFM=F Big=F
 Integral buffers will be    131072 words long.
 Raffenetti 2 integral format.
 Two-electron integral symmetry is turned on.
 Leave Link  301 at Wed Aug  3 22:55:51 2016, MaxMem=    33554432 cpu:         0.2
 (Enter /home/proyectos/fulerenos/M3C-v2.0/M3C-deps_CCC/g09-AM64L-G09RevC.01/l302.exe)
 NPDir=0 NMtPBC=     1 NCelOv=     1 NCel=       1 NClECP=     1 NCelD=      1
         NCelK=      1 NCelE2=     1 NClLst=     1 CellRange=     0.0.
 One-electron integrals computed using PRISM.
 One-electron integral symmetry used in STVInt
 NBasis=   125 RedAO= T EigKep=  5.45D-05  NBF=    47    17    24    37
 NBsUse=   125 1.00D-06 EigRej= -1.00D+00 NBFU=    47    17    24    37
 Precomputing XC quadrature grid using
 IXCGrd= 4 IRadAn=           0 IRanWt=          -1 IRanGd=           0 AccXCQ= 0.00D+00.
 Generated NRdTot=       0 NPtTot=           0 NUsed=           0 NTot=          32
 NSgBfM=   143   143   143   143   143 MxSgAt=     3 MxSgA2=     3.
 Leave Link  302 at Wed Aug  3 22:55:52 2016, MaxMem=    33554432 cpu:         0.9
 (Enter /home/proyectos/fulerenos/M3C-v2.0/M3C-deps_CCC/g09-AM64L-G09RevC.01/l303.exe)
 DipDrv:  MaxL=1.
 Leave Link  303 at Wed Aug  3 22:55:52 2016, MaxMem=    33554432 cpu:         0.1
 (Enter /home/proyectos/fulerenos/M3C-v2.0/M3C-deps_CCC/g09-AM64L-G09RevC.01/l401.exe)
 ExpMin= 4.05D-02 ExpMax= 9.34D+04 ExpMxC= 3.17D+03 IAcc=2 IRadAn=         4 AccDes= 0.00D+00
 Harris functional with IExCor=  402 and IRadAn=       4 diagonalized for initial guess.
 HarFok:  IExCor=  402 AccDes= 0.00D+00 IRadAn=         4 IDoV= 1 UseB2=F ITyADJ=14
 ICtDFT=  3500011 ScaDFX=  1.000000  1.000000  1.000000  1.000000
 FoFCou: FMM=F IPFlag=           0 FMFlag=      100000 FMFlg1=           0
         NFxFlg=           0 DoJE=T BraDBF=F KetDBF=T FulRan=T
         wScrn=  0.000000 ICntrl=     500 IOpCl=  0 I1Cent=   200000004 NGrid=           0
         NMat0=    1 NMatS0=      1 NMatT0=    0 NMatD0=    1 NMtDS0=    0 NMtDT0=    0
 Petite list used in FoFCou.
 Harris En= -473.873288021314    
 JPrj=0 DoOrth=F DoCkMO=F.
 Initial guess orbital symmetries:
 Alpha Orbitals:
       Occupied  (A1) (A1) (B2) (A1) (A1) (B2) (B1) (A1) (A1) (B2)
                 (A1) (B1) (A1) (B2) (B1)
       Virtual   (A2) (B2) (A1) (A1) (B1) (B2) (A1) (A1) (B2) (B1)
                 (A1) (A2) (B2) (A1) (B2) (A1) (B1) (A2) (B2) (A1)
                 (B1) (A1) (B2) (A1) (B1) (B2) (B1) (A1) (B2) (A1)
                 (A2) (B2) (A2) (A1) (B1) (B2) (B2) (A2) (A1) (B2)
                 (A1) (B1) (A1) (A2) (A1) (B2) (A1) (B2) (A1) (B1)
                 (B1) (A2) (B1) (B1) (A1) (B2) (A1) (B2) (B2) (A1)
                 (A2) (A1) (B1) (A2) (B2) (B2) (A1) (B2) (B1) (B1)
                 (A1) (A1) (A2) (A1) (B2) (A1) (B1) (B1) (A2) (B2)
                 (A1) (B2) (A2) (B2) (A1) (B2) (B2) (A2) (A1) (A2)
                 (B1) (B2) (A1) (B2) (B1) (A1) (A2) (B1) (B2) (A1)
                 (A2) (B2) (A1) (A1) (B1) (B2) (A1) (A1) (B2) (A1)
 Beta  Orbitals:
       Occupied  (A1) (A1) (B2) (A1) (A1) (B2) (B1) (A1) (A1) (B2)
                 (A1) (B1)
       Virtual   (A1) (B2) (B1) (A2) (B2) (A1) (A1) (B1) (B2) (A1)
                 (A1) (B2) (B1) (A1) (A2) (B2) (A1) (B2) (A1) (B1)
                 (A2) (B2) (A1) (B1) (A1) (B2) (A1) (B1) (B2) (B1)
                 (A1) (B2) (A1) (A2) (B2) (A2) (A1) (B1) (B2) (B2)
                 (A2) (A1) (B2) (A1) (B1) (A1) (A2) (A1) (B2) (A1)
                 (B2) (A1) (B1) (B1) (A2) (B1) (B1) (A1) (B2) (A1)
                 (B2) (B2) (A1) (A2) (A1) (B1) (A2) (B2) (B2) (A1)
                 (B2) (B1) (B1) (A1) (A1) (A2) (A1) (B2) (A1) (B1)
                 (B1) (A2) (B2) (A1) (B2) (A2) (B2) (A1) (B2) (B2)
                 (A2) (A1) (A2) (B1) (B2) (A1) (B2) (B1) (A1) (A2)
                 (B1) (B2) (A1) (A2) (B2) (A1) (A1) (B1) (B2) (A1)
                 (A1) (B2) (A1)
 The electronic state of the initial guess is 4-A2.
 Initial guess <Sx>= 0.0000 <Sy>= 0.0000 <Sz>= 1.5000 <S**2>= 3.7500 S= 1.5000
 Leave Link  401 at Wed Aug  3 22:55:52 2016, MaxMem=    33554432 cpu:         1.0
 (Enter /home/proyectos/fulerenos/M3C-v2.0/M3C-deps_CCC/g09-AM64L-G09RevC.01/l502.exe)
 UHF open shell SCF:
 Using DIIS extrapolation, IDIIS=  1040.
 Integral symmetry usage will be decided dynamically.
 IVT=       82017 IEndB=       82017 NGot=    33554432 MDV=    33509648
 LenX=    33509648 LenY=    33488758
 Requested convergence on RMS density matrix=1.00D-08 within 128 cycles.
 Requested convergence on MAX density matrix=1.00D-06.
 Requested convergence on             energy=1.00D-06.
 No special actions if energy rises.
 Fock matrices will be formed incrementally for  20 cycles.

 Cycle   1  Pass 1  IDiag  1:
 FoFJK:  IHMeth= 1 ICntrl=       0 DoSepK=F KAlg= 0 I1Cent=   0 FoldK=F
 IRaf= 990000000 NMat=   1 IRICut=       1 DoRegI=T DoRafI=F ISym2E= 1.
 FoFCou: FMM=F IPFlag=           0 FMFlag=      100000 FMFlg1=           0
         NFxFlg=           0 DoJE=F BraDBF=F KetDBF=F FulRan=T
         wScrn=  0.000000 ICntrl=       0 IOpCl=  1 I1Cent=           0 NGrid=           0
         NMat0=    1 NMatS0=      1 NMatT0=    0 NMatD0=    1 NMtDS0=    0 NMtDT0=    0
 Petite list used in FoFCou.
 E= -473.752042111858    
 DIIS: error= 3.01D-02 at cycle   1 NSaved=   1.
 NSaved= 1 IEnMin= 1 EnMin= -473.752042111858     IErMin= 1 ErrMin= 3.01D-02
 ErrMax= 3.01D-02  0.00D+00 EMaxC= 1.00D-01 BMatC= 3.86D-01 BMatP= 3.86D-01
 IDIUse=3 WtCom= 6.99D-01 WtEn= 3.01D-01
 Coeff-Com:  0.100D+01
 Coeff-En:   0.100D+01
 Coeff:      0.100D+01
 Gap=     0.293 Goal=   None    Shift=    0.000
 Gap=     0.136 Goal=   None    Shift=    0.000
 GapD=    0.136 DampG=1.000 DampE=0.500 DampFc=0.5000 IDamp=-1.
 Damping current iteration by 5.00D-01
 RMSDP=9.46D-03 MaxDP=4.93D-01              OVMax= 4.62D-01

 Cycle   2  Pass 1  IDiag  1:
 RMSU=  4.55D-03    CP:  9.56D-01
 E= -473.751876225973     Delta-E=        0.000165885884 Rises=F Damp=T
 DIIS: error= 1.88D-02 at cycle   2 NSaved=   2.
 NSaved= 2 IEnMin= 1 EnMin= -473.752042111858     IErMin= 2 ErrMin= 1.88D-02
 ErrMax= 1.88D-02  0.00D+00 EMaxC= 1.00D-01 BMatC= 1.12D-01 BMatP= 3.86D-01
 IDIUse=3 WtCom= 8.12D-01 WtEn= 1.88D-01
 Coeff-Com:  0.298D+00 0.702D+00
 Coeff-En:   0.501D+00 0.499D+00
 Coeff:      0.336D+00 0.664D+00
 Gap=     0.266 Goal=   None    Shift=    0.000
 Gap=     0.137 Goal=   None    Shift=    0.000
 RMSDP=4.02D-03 MaxDP=1.68D-01 DE= 1.66D-04 OVMax= 3.67D-01

 Cycle   3  Pass 1  IDiag  1:
 RMSU=  3.89D-03    CP:  9.68D-01  7.85D-01
 E= -473.846415871610     Delta-E=       -0.094539645636 Rises=F Damp=F
 DIIS: error= 6.62D-03 at cycle   3 NSaved=   3.
 NSaved= 3 IEnMin= 3 EnMin= -473.846415871610     IErMin= 3 ErrMin= 6.62D-03
 ErrMax= 6.62D-03  0.00D+00 EMaxC= 1.00D-01 BMatC= 1.44D-02 BMatP= 1.12D-01
 IDIUse=3 WtCom= 9.34D-01 WtEn= 6.62D-02
 Coeff-Com:  0.586D-03 0.219D+00 0.780D+00
 Coeff-En:   0.000D+00 0.000D+00 0.100D+01
 Coeff:      0.548D-03 0.205D+00 0.795D+00
 Gap=     0.223 Goal=   None    Shift=    0.000
 Gap=     0.178 Goal=   None    Shift=    0.000
 RMSDP=1.21D-03 MaxDP=6.33D-02 DE=-9.45D-02 OVMax= 4.27D-02

 Cycle   4  Pass 1  IDiag  1:
 RMSU=  7.41D-04    CP:  9.58D-01  9.48D-01  8.64D-01
 E= -473.850528670064     Delta-E=       -0.004112798454 Rises=F Damp=F
 DIIS: error= 3.32D-03 at cycle   4 NSaved=   4.
 NSaved= 4 IEnMin= 4 EnMin= -473.850528670064     IErMin= 4 ErrMin= 3.32D-03
 ErrMax= 3.32D-03  0.00D+00 EMaxC= 1.00D-01 BMatC= 3.22D-03 BMatP= 1.44D-02
 IDIUse=3 WtCom= 9.67D-01 WtEn= 3.32D-02
 Coeff-Com: -0.115D-01-0.645D-02 0.320D+00 0.698D+00
 Coeff-En:   0.000D+00 0.000D+00 0.781D-01 0.922D+00
 Coeff:     -0.111D-01-0.623D-02 0.312D+00 0.706D+00
 Gap=     0.220 Goal=   None    Shift=    0.000
 Gap=     0.182 Goal=   None    Shift=    0.000
 RMSDP=3.70D-04 MaxDP=1.38D-02 DE=-4.11D-03 OVMax= 1.51D-02

 Cycle   5  Pass 1  IDiag  1:
 RMSU=  1.73D-04    CP:  9.60D-01  9.18D-01  9.35D-01  8.64D-01
 E= -473.851492730853     Delta-E=       -0.000964060788 Rises=F Damp=F
 DIIS: error= 5.15D-04 at cycle   5 NSaved=   5.
 NSaved= 5 IEnMin= 5 EnMin= -473.851492730853     IErMin= 5 ErrMin= 5.15D-04
 ErrMax= 5.15D-04  0.00D+00 EMaxC= 1.00D-01 BMatC= 1.04D-04 BMatP= 3.22D-03
 IDIUse=3 WtCom= 9.95D-01 WtEn= 5.15D-03
 Coeff-Com:  0.151D-03-0.216D-01-0.128D-01 0.861D-01 0.948D+00
 Coeff-En:   0.000D+00 0.000D+00 0.000D+00 0.000D+00 0.100D+01
 Coeff:      0.150D-03-0.215D-01-0.127D-01 0.856D-01 0.948D+00
 Gap=     0.219 Goal=   None    Shift=    0.000
 Gap=     0.182 Goal=   None    Shift=    0.000
 RMSDP=1.35D-04 MaxDP=6.46D-03 DE=-9.64D-04 OVMax= 8.98D-03

 Cycle   6  Pass 1  IDiag  1:
 RMSU=  7.41D-05    CP:  9.57D-01  9.14D-01  9.49D-01  9.26D-01  1.26D+00
 E= -473.851560349083     Delta-E=       -0.000067618231 Rises=F Damp=F
 DIIS: error= 2.58D-04 at cycle   6 NSaved=   6.
 NSaved= 6 IEnMin= 6 EnMin= -473.851560349083     IErMin= 6 ErrMin= 2.58D-04
 ErrMax= 2.58D-04  0.00D+00 EMaxC= 1.00D-01 BMatC= 1.16D-05 BMatP= 1.04D-04
 IDIUse=3 WtCom= 9.97D-01 WtEn= 2.58D-03
 Coeff-Com: -0.748D-03 0.452D-02-0.311D-01-0.691D-01-0.215D-01 0.112D+01
 Coeff-En:   0.000D+00 0.000D+00 0.000D+00 0.000D+00 0.000D+00 0.100D+01
 Coeff:     -0.746D-03 0.450D-02-0.310D-01-0.689D-01-0.214D-01 0.112D+01
 Gap=     0.219 Goal=   None    Shift=    0.000
 Gap=     0.182 Goal=   None    Shift=    0.000
 RMSDP=4.77D-05 MaxDP=2.17D-03 DE=-6.76D-05 OVMax= 5.34D-03

 Cycle   7  Pass 1  IDiag  1:
 RMSU=  1.85D-05    CP:  9.57D-01  9.17D-01  9.50D-01  9.46D-01  1.42D+00
                    CP:  1.22D+00
 E= -473.851572330075     Delta-E=       -0.000011980992 Rises=F Damp=F
 DIIS: error= 6.97D-05 at cycle   7 NSaved=   7.
 NSaved= 7 IEnMin= 7 EnMin= -473.851572330075     IErMin= 7 ErrMin= 6.97D-05
 ErrMax= 6.97D-05  0.00D+00 EMaxC= 1.00D-01 BMatC= 1.08D-06 BMatP= 1.16D-05
 IDIUse=1 WtCom= 1.00D+00 WtEn= 0.00D+00
 Coeff-Com: -0.173D-03 0.137D-02 0.232D-02 0.705D-02-0.923D-01-0.330D-01
 Coeff-Com:  0.111D+01
 Coeff:     -0.173D-03 0.137D-02 0.232D-02 0.705D-02-0.923D-01-0.330D-01
 Coeff:      0.111D+01
 Gap=     0.219 Goal=   None    Shift=    0.000
 Gap=     0.182 Goal=   None    Shift=    0.000
 RMSDP=1.51D-05 MaxDP=6.73D-04 DE=-1.20D-05 OVMax= 1.63D-03

 Cycle   8  Pass 1  IDiag  1:
 RMSU=  3.93D-06    CP:  9.56D-01  9.18D-01  9.51D-01  9.55D-01  1.44D+00
                    CP:  1.31D+00  1.41D+00
 E= -473.851573243120     Delta-E=       -0.000000913045 Rises=F Damp=F
 DIIS: error= 1.50D-05 at cycle   8 NSaved=   8.
 NSaved= 8 IEnMin= 8 EnMin= -473.851573243120     IErMin= 8 ErrMin= 1.50D-05
 ErrMax= 1.50D-05  0.00D+00 EMaxC= 1.00D-01 BMatC= 6.70D-08 BMatP= 1.08D-06
 IDIUse=1 WtCom= 1.00D+00 WtEn= 0.00D+00
 Coeff-Com: -0.940D-04 0.151D-04 0.309D-02 0.635D-02-0.996D-02-0.101D+00
 Coeff-Com:  0.105D+00 0.997D+00
 Coeff:     -0.940D-04 0.151D-04 0.309D-02 0.635D-02-0.996D-02-0.101D+00
 Coeff:      0.105D+00 0.997D+00
 Gap=     0.219 Goal=   None    Shift=    0.000
 Gap=     0.182 Goal=   None    Shift=    0.000
 RMSDP=3.69D-06 MaxDP=1.78D-04 DE=-9.13D-07 OVMax= 4.15D-04

 Cycle   9  Pass 1  IDiag  1:
 RMSU=  8.14D-07    CP:  9.56D-01  9.18D-01  9.51D-01  9.57D-01  1.44D+00
                    CP:  1.33D+00  1.52D+00  1.15D+00
 E= -473.851573292451     Delta-E=       -0.000000049331 Rises=F Damp=F
 DIIS: error= 3.08D-06 at cycle   9 NSaved=   9.
 NSaved= 9 IEnMin= 9 EnMin= -473.851573292451     IErMin= 9 ErrMin= 3.08D-06
 ErrMax= 3.08D-06  0.00D+00 EMaxC= 1.00D-01 BMatC= 3.17D-09 BMatP= 6.70D-08
 IDIUse=1 WtCom= 1.00D+00 WtEn= 0.00D+00
 Coeff-Com:  0.943D-05-0.497D-04 0.174D-03-0.323D-03 0.453D-02-0.540D-02
 Coeff-Com: -0.405D-01 0.804D-01 0.961D+00
 Coeff:      0.943D-05-0.497D-04 0.174D-03-0.323D-03 0.453D-02-0.540D-02
 Coeff:     -0.405D-01 0.804D-01 0.961D+00
 Gap=     0.219 Goal=   None    Shift=    0.000
 Gap=     0.182 Goal=   None    Shift=    0.000
 RMSDP=6.23D-07 MaxDP=1.95D-05 DE=-4.93D-08 OVMax= 3.79D-05

 Cycle  10  Pass 1  IDiag  1:
 RMSU=  2.55D-07    CP:  9.56D-01  9.18D-01  9.51D-01  9.57D-01  1.45D+00
                    CP:  1.33D+00  1.53D+00  1.22D+00  1.07D+00
 E= -473.851573294132     Delta-E=       -0.000000001681 Rises=F Damp=F
 DIIS: error= 1.15D-06 at cycle  10 NSaved=  10.
 NSaved=10 IEnMin=10 EnMin= -473.851573294132     IErMin=10 ErrMin= 1.15D-06
 ErrMax= 1.15D-06  0.00D+00 EMaxC= 1.00D-01 BMatC= 2.56D-10 BMatP= 3.17D-09
 IDIUse=1 WtCom= 1.00D+00 WtEn= 0.00D+00
 Coeff-Com:  0.184D-04-0.310D-04-0.187D-03-0.297D-03 0.556D-03 0.526D-02
 Coeff-Com: -0.569D-02-0.621D-01-0.697D-01 0.113D+01
 Coeff:      0.184D-04-0.310D-04-0.187D-03-0.297D-03 0.556D-03 0.526D-02
 Coeff:     -0.569D-02-0.621D-01-0.697D-01 0.113D+01
 Gap=     0.219 Goal=   None    Shift=    0.000
 Gap=     0.182 Goal=   None    Shift=    0.000
 RMSDP=2.49D-07 MaxDP=7.90D-06 DE=-1.68D-09 OVMax= 1.45D-05

 Cycle  11  Pass 1  IDiag  1:
 RMSU=  5.83D-08    CP:  9.56D-01  9.18D-01  9.51D-01  9.57D-01  1.45D+00
                    CP:  1.33D+00  1.53D+00  1.23D+00  1.17D+00  1.38D+00
 E= -473.851573294330     Delta-E=       -0.000000000198 Rises=F Damp=F
 DIIS: error= 2.25D-07 at cycle  11 NSaved=  11.
 NSaved=11 IEnMin=11 EnMin= -473.851573294330     IErMin=11 ErrMin= 2.25D-07
 ErrMax= 2.25D-07  0.00D+00 EMaxC= 1.00D-01 BMatC= 1.66D-11 BMatP= 2.56D-10
 IDIUse=1 WtCom= 1.00D+00 WtEn= 0.00D+00
 Coeff-Com: -0.169D-06 0.212D-05 0.202D-04 0.677D-04-0.363D-03-0.392D-04
 Coeff-Com:  0.229D-02 0.376D-02-0.665D-01-0.732D-01 0.113D+01
 Coeff:     -0.169D-06 0.212D-05 0.202D-04 0.677D-04-0.363D-03-0.392D-04
 Coeff:      0.229D-02 0.376D-02-0.665D-01-0.732D-01 0.113D+01
 Gap=     0.219 Goal=   None    Shift=    0.000
 Gap=     0.182 Goal=   None    Shift=    0.000
 RMSDP=5.91D-08 MaxDP=1.95D-06 DE=-1.98D-10 OVMax= 4.90D-06

 Cycle  12  Pass 1  IDiag  1:
 RMSU=  1.39D-08    CP:  9.56D-01  9.18D-01  9.51D-01  9.57D-01  1.45D+00
                    CP:  1.33D+00  1.53D+00  1.23D+00  1.18D+00  1.49D+00
                    CP:  1.21D+00
 E= -473.851573294340     Delta-E=       -0.000000000010 Rises=F Damp=F
 DIIS: error= 8.33D-08 at cycle  12 NSaved=  12.
 NSaved=12 IEnMin=12 EnMin= -473.851573294340     IErMin=12 ErrMin= 8.33D-08
 ErrMax= 8.33D-08  0.00D+00 EMaxC= 1.00D-01 BMatC= 1.54D-12 BMatP= 1.66D-11
 IDIUse=1 WtCom= 1.00D+00 WtEn= 0.00D+00
 Coeff-Com: -0.147D-06-0.121D-06 0.109D-04 0.103D-04-0.326D-04-0.214D-03
 Coeff-Com:  0.275D-04 0.335D-02 0.318D-02-0.516D-01 0.382D-02 0.104D+01
 Coeff:     -0.147D-06-0.121D-06 0.109D-04 0.103D-04-0.326D-04-0.214D-03
 Coeff:      0.275D-04 0.335D-02 0.318D-02-0.516D-01 0.382D-02 0.104D+01
 Gap=     0.219 Goal=   None    Shift=    0.000
 Gap=     0.182 Goal=   None    Shift=    0.000
 RMSDP=1.34D-08 MaxDP=4.47D-07 DE=-9.78D-12 OVMax= 6.44D-07

 Cycle  13  Pass 1  IDiag  1:
 RMSU=  3.02D-09    CP:  9.56D-01  9.18D-01  9.51D-01  9.57D-01  1.45D+00
                    CP:  1.33D+00  1.53D+00  1.23D+00  1.18D+00  1.50D+00
                    CP:  1.28D+00  1.19D+00
 E= -473.851573294338     Delta-E=        0.000000000003 Rises=F Damp=F
 DIIS: error= 1.11D-08 at cycle  13 NSaved=  13.
 NSaved=13 IEnMin=12 EnMin= -473.851573294340     IErMin=13 ErrMin= 1.11D-08
 ErrMax= 1.11D-08  0.00D+00 EMaxC= 1.00D-01 BMatC= 3.57D-14 BMatP= 1.54D-12
 IDIUse=1 WtCom= 1.00D+00 WtEn= 0.00D+00
 Coeff-Com:  0.141D-06-0.369D-06-0.686D-07-0.157D-05 0.131D-04-0.140D-04
 Coeff-Com: -0.456D-04-0.465D-04 0.288D-02 0.378D-03-0.575D-01 0.915D-01
 Coeff-Com:  0.963D+00
 Coeff:      0.141D-06-0.369D-06-0.686D-07-0.157D-05 0.131D-04-0.140D-04
 Coeff:     -0.456D-04-0.465D-04 0.288D-02 0.378D-03-0.575D-01 0.915D-01
 Coeff:      0.963D+00
 Gap=     0.219 Goal=   None    Shift=    0.000
 Gap=     0.182 Goal=   None    Shift=    0.000
 RMSDP=1.71D-09 MaxDP=5.22D-08 DE= 2.50D-12 OVMax= 1.10D-07

 SCF Done:  E(UB3LYP) =  -473.851573294     A.U. after   13 cycles
            NFock= 13  Conv=0.17D-08     -V/T= 2.0018
 <Sx>= 0.0000 <Sy>= 0.0000 <Sz>= 1.5000 <S**2>= 3.7640 S= 1.5035
 <L.S>= 0.000000000000E+00
 KE= 4.730131455417D+02 PE=-1.256532709037D+03 EE= 2.386622195979D+02
 Annihilation of the first spin contaminant:
 S**2 before annihilation     3.7640,   after     3.7501
 Leave Link  502 at Wed Aug  3 22:56:04 2016, MaxMem=    33554432 cpu:        47.9
 (Enter /home/proyectos/fulerenos/M3C-v2.0/M3C-deps_CCC/g09-AM64L-G09RevC.01/l801.exe)
 DoSCS=F DFT=T ScalE2(SS,OS)=  1.000000  1.000000
 Range of M.O.s used for correlation:     1   125
 NBasis=   125 NAE=    15 NBE=    12 NFC=     0 NFV=     0
 NROrb=    125 NOA=    15 NOB=    12 NVA=   110 NVB=   113

 **** Warning!!: The largest alpha MO coefficient is  0.53209319D+02


 **** Warning!!: The largest beta MO coefficient is  0.53652762D+02

 Leave Link  801 at Wed Aug  3 22:56:04 2016, MaxMem=    33554432 cpu:         0.1
 (Enter /home/proyectos/fulerenos/M3C-v2.0/M3C-deps_CCC/g09-AM64L-G09RevC.01/l1101.exe)
 Using compressed storage, NAtomX=     3.
 Will process      4 centers per pass.
 Leave Link 1101 at Wed Aug  3 22:56:05 2016, MaxMem=    33554432 cpu:         0.9
 (Enter /home/proyectos/fulerenos/M3C-v2.0/M3C-deps_CCC/g09-AM64L-G09RevC.01/l1102.exe)
 Symmetrizing basis deriv contribution to polar:
 IMax=3 JMax=2 DiffMx= 0.00D+00
 Leave Link 1102 at Wed Aug  3 22:56:05 2016, MaxMem=    33554432 cpu:         0.1
 (Enter /home/proyectos/fulerenos/M3C-v2.0/M3C-deps_CCC/g09-AM64L-G09RevC.01/l1110.exe)
 Forming Gx(P) for the SCF density, NAtomX=     3.
 Integral derivatives from FoFJK, PRISM(SPDF).
 Do as many integral derivatives as possible in FoFJK.
 G2DrvN: MDV=      33554304.
 G2DrvN: will do     4 centers at a time, making    1 passes.
 Calling FoFCou, ICntrl=  3107 FMM=F I1Cent=   0 AccDes= 0.00D+00.
 FoFJK:  IHMeth= 1 ICntrl=    3107 DoSepK=F KAlg= 0 I1Cent=   0 FoldK=F
 IRaf=         0 NMat=   1 IRICut=       1 DoRegI=T DoRafI=F ISym2E= 1.
 FoFCou: FMM=F IPFlag=           0 FMFlag=      100000 FMFlg1=           0
         NFxFlg=           0 DoJE=F BraDBF=F KetDBF=F FulRan=T
         wScrn=  0.000000 ICntrl=    3107 IOpCl=  1 I1Cent=           0 NGrid=           0
         NMat0=    1 NMatS0=      1 NMatT0=    0 NMatD0=    1 NMtDS0=    0 NMtDT0=    0
 Petite list used in FoFCou.
 End of G2Drv F.D. properties file   721 does not exist.
 End of G2Drv F.D. properties file   722 does not exist.
 End of G2Drv F.D. properties file   788 does not exist.
 Leave Link 1110 at Wed Aug  3 22:56:10 2016, MaxMem=    33554432 cpu:        19.5
 (Enter /home/proyectos/fulerenos/M3C-v2.0/M3C-deps_CCC/g09-AM64L-G09RevC.01/l1002.exe)
 Minotr:  UHF open shell wavefunction.
          IDoAtm=111
          Direct CPHF calculation.
          Differentiating once with respect to electric field.
                with respect to dipole field.
          Differentiating once with respect to nuclear coordinates.
          Using symmetry in CPHF.
          Requested convergence is 1.0D-08 RMS, and 1.0D-07 maximum.
          Secondary convergence is 1.0D-12 RMS, and 1.0D-12 maximum.
          NewPWx=T KeepS1=F KeepF1=F KeepIn=T MapXYZ=F SortEE=F KeepMc=T.
          MDV=      33554148 using IRadAn=       2.
 Generate precomputed XC quadrature information.
          Solving linear equations simultaneously, MaxMat=       0.
 FoFJK:  IHMeth= 1 ICntrl=       0 DoSepK=F KAlg= 0 I1Cent=   0 FoldK=F
 IRaf= 990000000 NMat=   9 IRICut=      22 DoRegI=T DoRafI=T ISym2E= 2.
 FoFCou: FMM=F IPFlag=           0 FMFlag=      100000 FMFlg1=           0
         NFxFlg=           0 DoJE=F BraDBF=F KetDBF=F FulRan=T
         wScrn=  0.000000 ICntrl=       0 IOpCl=  1 I1Cent=           0 NGrid=           0
         NMat0=    9 NMatS0=      9 NMatT0=    0 NMatD0=    9 NMtDS0=    0 NMtDT0=    0
 Integrals replicated using symmetry in FoFCou.
          There are     9 degrees of freedom in the 1st order CPHF.  IDoFFX=4 NUNeed=     9.
      9 vectors produced by pass  0 Test12= 3.34D-14 1.11D-08 XBig12= 1.22D+02 5.99D+00.
 AX will form     9 AO Fock derivatives at one time.
      9 vectors produced by pass  1 Test12= 3.34D-14 1.11D-08 XBig12= 4.62D+01 2.44D+00.
      9 vectors produced by pass  2 Test12= 3.34D-14 1.11D-08 XBig12= 7.80D+00 1.14D+00.
      9 vectors produced by pass  3 Test12= 3.34D-14 1.11D-08 XBig12= 7.21D-01 2.61D-01.
      9 vectors produced by pass  4 Test12= 3.34D-14 1.11D-08 XBig12= 2.47D-02 4.77D-02.
      9 vectors produced by pass  5 Test12= 3.34D-14 1.11D-08 XBig12= 3.10D-04 6.41D-03.
      9 vectors produced by pass  6 Test12= 3.34D-14 1.11D-08 XBig12= 4.38D-06 6.22D-04.
      9 vectors produced by pass  7 Test12= 3.34D-14 1.11D-08 XBig12= 3.70D-08 5.38D-05.
      6 vectors produced by pass  8 Test12= 3.34D-14 1.11D-08 XBig12= 1.35D-10 2.95D-06.
      3 vectors produced by pass  9 Test12= 3.34D-14 1.11D-08 XBig12= 8.72D-13 2.04D-07.
      1 vectors produced by pass 10 Test12= 3.34D-14 1.11D-08 XBig12= 8.31D-15 1.63D-08.
 InvSVY:  IOpt=1 It=  1 EMax= 1.78D-15
 Solved reduced A of dimension    82 with     9 vectors.
 FullF1:  Do perturbations    1 to     9.
 Isotropic polarizability for W=    0.000000       29.99 Bohr**3.
 End of Minotr F.D. properties file   721 does not exist.
 End of Minotr F.D. properties file   722 does not exist.
 End of Minotr F.D. properties file   788 does not exist.
 Leave Link 1002 at Wed Aug  3 22:56:40 2016, MaxMem=    33554432 cpu:       117.8
 (Enter /home/proyectos/fulerenos/M3C-v2.0/M3C-deps_CCC/g09-AM64L-G09RevC.01/l601.exe)
 Copying SCF densities to generalized density rwf, IOpCl= 1 IROHF=0.

 **********************************************************************

            Population analysis using the SCF density.

 **********************************************************************

 Orbital symmetries:
 Alpha Orbitals:
       Occupied  (A1) (A1) (B2) (A1) (B2) (B1) (A1) (A1) (A1) (B2)
                 (A1) (B1) (A1) (B2) (B1)
       Virtual   (A2) (B2) (A1) (A1) (B2) (B1) (A1) (A1) (A1) (B2)
                 (B1) (A2) (A1) (B2) (B1) (A2) (A1) (B2) (B2) (A1)
                 (B1) (A1) (B2) (A1) (B1) (B2) (A1) (B1) (A1) (B2)
                 (A2) (B2) (A2) (A1) (B1) (B2) (B2) (A2) (A1) (A1)
                 (B2) (B1) (A1) (A2) (A1) (B2) (A1) (B2) (A1) (B1)
                 (B1) (A2) (B1) (B1) (B2) (A1) (B2) (A1) (B2) (A1)
                 (A2) (A1) (B1) (A2) (B2) (B2) (A1) (B2) (B1) (A1)
                 (B1) (A1) (A2) (A1) (B2) (B1) (A1) (B1) (A2) (B2)
                 (A1) (B2) (A2) (B2) (A1) (B2) (A2) (B2) (A1) (A2)
                 (B1) (B2) (A1) (B2) (B1) (A1) (A2) (B1) (A1) (B2)
                 (A2) (B2) (A1) (A1) (B1) (B2) (A1) (A1) (B2) (A1)
 Beta  Orbitals:
       Occupied  (A1) (A1) (B2) (A1) (A1) (B2) (B1) (A1) (A1) (B2)
                 (A1) (B1)
       Virtual   (A1) (B2) (B1) (A2) (B2) (A1) (A1) (B1) (B2) (A1)
                 (A1) (A1) (B1) (B2) (A2) (B2) (A1) (B1) (A1) (A2)
                 (B2) (B2) (A1) (B1) (A1) (B2) (A1) (B1) (B2) (A1)
                 (B1) (A1) (B2) (A2) (B2) (A2) (A1) (B1) (B2) (A2)
                 (B2) (A1) (A1) (B2) (B1) (A1) (A2) (A1) (B2) (A1)
                 (B2) (A1) (B1) (B1) (A2) (B1) (B1) (B2) (A1) (B2)
                 (A1) (B2) (A1) (A1) (A2) (B1) (A2) (B2) (B2) (A1)
                 (B2) (B1) (A1) (B1) (A1) (A2) (A1) (B2) (B1) (A1)
                 (B1) (A2) (B2) (A1) (B2) (A2) (B2) (A1) (B2) (B2)
                 (A2) (A1) (A2) (B1) (B2) (A1) (B1) (B2) (A1) (A2)
                 (B1) (B2) (A1) (A2) (B2) (A1) (A1) (B1) (B2) (A1)
                 (A1) (B2) (A1)
 The electronic state is 4-A2.
 Alpha  occ. eigenvalues --  -89.23793 -10.58881 -10.58771  -8.31584  -6.27902
 Alpha  occ. eigenvalues --   -6.27824  -6.27545  -1.23379  -0.96713  -0.80434
 Alpha  occ. eigenvalues --   -0.71179  -0.70595  -0.65476  -0.59619  -0.54521
 Alpha virt. eigenvalues --   -0.32583  -0.29010  -0.26373  -0.15697  -0.11548
 Alpha virt. eigenvalues --   -0.11545  -0.10517  -0.09228  -0.08435  -0.06262
 Alpha virt. eigenvalues --   -0.06232  -0.05992  -0.01485  -0.00493  -0.00472
 Alpha virt. eigenvalues --   -0.00273   0.00797   0.02471   0.06094   0.08633
 Alpha virt. eigenvalues --    0.11230   0.12362   0.15357   0.17956   0.19534
 Alpha virt. eigenvalues --    0.19634   0.23700   0.23946   0.29169   0.29389
 Alpha virt. eigenvalues --    0.31011   0.31740   0.33274   0.37742   0.42030
 Alpha virt. eigenvalues --    0.42676   0.48130   0.50762   0.53469   0.60057
 Alpha virt. eigenvalues --    0.62316   0.67307   0.67540   0.68214   0.72562
 Alpha virt. eigenvalues --    0.76330   0.79617   1.03275   1.05933   1.07439
 Alpha virt. eigenvalues --    1.13017   1.25664   1.29076   1.33773   1.34310
 Alpha virt. eigenvalues --    1.36386   1.40770   1.41211   1.55863   1.57442
 Alpha virt. eigenvalues --    1.61844   1.62591   1.69311   1.72725   1.74634
 Alpha virt. eigenvalues --    1.81614   2.05339   2.05629   2.31024   2.38256
 Alpha virt. eigenvalues --    2.40362   2.49815   2.53255   2.65330   2.73428
 Alpha virt. eigenvalues --    2.78696   2.79203   2.83332   2.85737   2.91035
 Alpha virt. eigenvalues --    2.96279   3.13980   3.25103   3.33524   3.56782
 Alpha virt. eigenvalues --    3.73275   4.21784   4.21873   4.28185   4.29496
 Alpha virt. eigenvalues --    4.41626   4.87143   4.90122   6.65594   6.66426
 Alpha virt. eigenvalues --    6.70036   6.74287   6.76605   6.93421   6.94189
 Alpha virt. eigenvalues --    7.07339   7.24116   7.56968   8.01764  16.94546
 Alpha virt. eigenvalues --   17.20193  17.46394  23.17471  25.59076 188.79818
  Beta  occ. eigenvalues --  -89.22968 -10.56889 -10.56799  -8.30837  -6.27153
  Beta  occ. eigenvalues --   -6.26545  -6.26105  -1.20079  -0.90800  -0.72439
  Beta  occ. eigenvalues --   -0.67666  -0.65331
  Beta virt. eigenvalues --   -0.47121  -0.44500  -0.41820  -0.27352  -0.24292
  Beta virt. eigenvalues --   -0.23621  -0.14763  -0.11278  -0.10624  -0.09916
  Beta virt. eigenvalues --   -0.08272  -0.07603  -0.05716  -0.05581  -0.04327
  Beta virt. eigenvalues --   -0.00334   0.00221   0.01890   0.02207   0.02753
  Beta virt. eigenvalues --    0.02883   0.08570   0.09275   0.12349   0.13550
  Beta virt. eigenvalues --    0.17670   0.19914   0.21377   0.21419   0.25223
  Beta virt. eigenvalues --    0.25641   0.30967   0.31597   0.32854   0.33273
  Beta virt. eigenvalues --    0.34800   0.40801   0.43403   0.44332   0.51896
  Beta virt. eigenvalues --    0.51964   0.54611   0.62802   0.63517   0.69532
  Beta virt. eigenvalues --    0.71098   0.72330   0.74055   0.78169   0.81771
  Beta virt. eigenvalues --    1.06916   1.09288   1.12548   1.16101   1.28400
  Beta virt. eigenvalues --    1.34687   1.37872   1.39700   1.42054   1.44513
  Beta virt. eigenvalues --    1.45464   1.59167   1.62570   1.65238   1.66217
  Beta virt. eigenvalues --    1.73270   1.79676   1.80584   1.86746   2.07142
  Beta virt. eigenvalues --    2.10360   2.34699   2.42903   2.43493   2.53025
  Beta virt. eigenvalues --    2.56620   2.68506   2.76392   2.83100   2.83559
  Beta virt. eigenvalues --    2.88370   2.88755   2.93794   2.99797   3.19267
  Beta virt. eigenvalues --    3.29444   3.37295   3.62695   3.78056   4.26245
  Beta virt. eigenvalues --    4.27040   4.30064   4.31522   4.42882   4.88817
  Beta virt. eigenvalues --    4.91917   6.69466   6.72447   6.73063   6.77570
  Beta virt. eigenvalues --    6.83800   6.97839   6.99025   7.14196   7.29733
  Beta virt. eigenvalues --    7.62548   8.05057  16.96789  17.21991  17.46966
  Beta virt. eigenvalues --   23.19715  25.61530 188.80571
          Condensed to atoms (all electrons):
               1          2          3
     1  S   15.109708   0.239960   0.239960
     2  C    0.239960   7.954928  -2.489702
     3  C    0.239960  -2.489702   7.954928
          Atomic-Atomic Spin Densities.
               1          2          3
     1  S    1.340768  -0.081880  -0.081880
     2  C   -0.081880   2.084069  -1.090693
     3  C   -0.081880  -1.090693   2.084069
 Mulliken charges and spin densities:
               1          2
     1  S    0.410372   1.177008
     2  C    0.294814   0.911496
     3  C    0.294814   0.911496
 Sum of Mulliken charges =   1.00000   3.00000
 Mulliken charges and spin densities with hydrogens summed into heavy atoms:
               1          2
     1  S    0.410372   1.177008
     2  C    0.294814   0.911496
     3  C    0.294814   0.911496
 APT charges:
               1
     1  S    0.484752
     2  C    0.257624
     3  C    0.257624
 Sum of APT charges =   1.00000
 APT charges with hydrogens summed into heavy atoms:
               1
     1  S    0.484752
     2  C    0.257624
     3  C    0.257624
 Electronic spatial extent (au):  <R**2>=            127.5860
 Charge=              1.0000 electrons
 Dipole moment (field-independent basis, Debye):
    X=             -0.0000    Y=             -0.0000    Z=             -0.3659  Tot=              0.3659
 Quadrupole moment (field-independent basis, Debye-Ang):
   XX=            -20.7161   YY=            -18.3029   ZZ=            -14.9983
   XY=             -0.0000   XZ=              0.0000   YZ=              0.0000
 Traceless Quadrupole moment (field-independent basis, Debye-Ang):
   XX=             -2.7103   YY=             -0.2971   ZZ=              3.0074
   XY=             -0.0000   XZ=              0.0000   YZ=              0.0000
 Octapole moment (field-independent basis, Debye-Ang**2):
  XXX=              0.0000  YYY=              0.0000  ZZZ=              3.6859  XYY=              0.0000
  XXY=             -0.0000  XXZ=              1.6308  XZZ=              0.0000  YZZ=             -0.0000
  YYZ=             -0.1005  XYZ=              0.0000
 Hexadecapole moment (field-independent basis, Debye-Ang**3):
 XXXX=            -22.3573 YYYY=            -43.8150 ZZZZ=            -97.5769 XXXY=             -0.0000
 XXXZ=             -0.0000 YYYX=             -0.0000 YYYZ=             -0.0000 ZZZX=             -0.0000
 ZZZY=             -0.0000 XXYY=            -10.8695 XXZZ=            -21.5929 YYZZ=            -22.0418
 XXYZ=             -0.0000 YYXZ=             -0.0000 ZZXY=             -0.0000
 N-N= 7.100577060316D+01 E-N=-1.256532708673D+03  KE= 4.730131455417D+02
 Symmetry A1   KE= 3.604248003118D+02
 Symmetry A2   KE=-1.174114170407D-18
 Symmetry B1   KE= 3.998552396129D+01
 Symmetry B2   KE= 7.260282126861D+01
  Exact polarizability:  21.895   0.000  28.801   0.000   0.000  39.285
 Approx polarizability:  32.811   0.000  60.072   0.000   0.000  79.662
                          Isotropic Fermi Contact Couplings
        Atom                 a.u.       MegaHertz       Gauss      10(-4) cm-1
     1  S(33)              0.11510      13.17758       4.70209       4.39557
     2  C(13)              0.72241     270.70815      96.59540      90.29852
     3  C(13)              0.72241     270.70815      96.59540      90.29852
 --------------------------------------------------------
       Center         ----  Spin Dipole Couplings  ----
                      3XX-RR        3YY-RR        3ZZ-RR
 --------------------------------------------------------
     1   Atom        2.443045      0.854730     -3.297775
     2   Atom       -0.233930      0.711822     -0.477892
     3   Atom       -0.233930      0.711822     -0.477892
 --------------------------------------------------------
                        XY            XZ            YZ
 --------------------------------------------------------
     1   Atom        0.000000      0.000000      0.000000
     2   Atom        0.000000     -0.000000     -0.326719
     3   Atom        0.000000      0.000000      0.326719
 --------------------------------------------------------


 ---------------------------------------------------------------------------------
              Anisotropic Spin Dipole Couplings in Principal Axis System
 ---------------------------------------------------------------------------------

       Atom             a.u.   MegaHertz   Gauss  10(-4) cm-1        Axes

              Baa    -3.2978  -135.206   -48.245   -45.100  0.0000  0.0000  1.0000
     1 S(33)  Bbb     0.8547    35.043    12.504    11.689  0.0000  1.0000 -0.0000
              Bcc     2.4430   100.163    35.741    33.411  1.0000 -0.0000 -0.0000
 
              Baa    -0.5617   -75.376   -26.896   -25.143  0.0000  0.2485  0.9686
     2 C(13)  Bbb    -0.2339   -31.391   -11.201   -10.471  1.0000 -0.0000  0.0000
              Bcc     0.7956   106.767    38.097    35.614  0.0000  0.9686 -0.2485
 
              Baa    -0.5617   -75.376   -26.896   -25.143 -0.0000 -0.2485  0.9686
     3 C(13)  Bbb    -0.2339   -31.391   -11.201   -10.471  1.0000 -0.0000  0.0000
              Bcc     0.7956   106.767    38.097    35.614  0.0000  0.9686  0.2485
 

 ---------------------------------------------------------------------------------

 No NMR shielding tensors so no spin-rotation constants.
 Leave Link  601 at Wed Aug  3 22:56:41 2016, MaxMem=    33554432 cpu:         1.2
 (Enter /home/proyectos/fulerenos/M3C-v2.0/M3C-deps_CCC/g09-AM64L-G09RevC.01/l701.exe)
 Compute integral second derivatives.
 ... and contract with generalized density number  0.
 Leave Link  701 at Wed Aug  3 22:56:41 2016, MaxMem=    33554432 cpu:         0.9
 (Enter /home/proyectos/fulerenos/M3C-v2.0/M3C-deps_CCC/g09-AM64L-G09RevC.01/l702.exe)
 L702 exits ... SP integral derivatives will be done elsewhere.
 Leave Link  702 at Wed Aug  3 22:56:41 2016, MaxMem=    33554432 cpu:         0.1
 (Enter /home/proyectos/fulerenos/M3C-v2.0/M3C-deps_CCC/g09-AM64L-G09RevC.01/l703.exe)
 Compute integral second derivatives, UseDBF=F ICtDFT=           0.
 Integral derivatives from FoFJK, PRISM(SPDF).
 Calling FoFJK, ICntrl=    100127 FMM=F ISym2X=1 I1Cent= 0 IOpClX= 1 NMat=1 NMatS=1 NMatT=0.
 FoFJK:  IHMeth= 1 ICntrl=  100127 DoSepK=F KAlg= 0 I1Cent=   0 FoldK=F
 IRaf=         0 NMat=   1 IRICut=       1 DoRegI=T DoRafI=F ISym2E= 1.
 FoFCou: FMM=F IPFlag=           0 FMFlag=      100000 FMFlg1=         800
         NFxFlg=           0 DoJE=F BraDBF=F KetDBF=F FulRan=T
         wScrn=  0.000000 ICntrl=  100127 IOpCl=  1 I1Cent=           0 NGrid=           0
         NMat0=    1 NMatS0=      1 NMatT0=    0 NMatD0=    1 NMtDS0=    0 NMtDT0=    0
 Petite list used in FoFCou.
 Leave Link  703 at Wed Aug  3 22:56:47 2016, MaxMem=    33554432 cpu:        23.6
 (Enter /home/proyectos/fulerenos/M3C-v2.0/M3C-deps_CCC/g09-AM64L-G09RevC.01/l716.exe)
 Dipole        =-3.59018499D-17 1.73172024D-14-1.43967849D-01
 Polarizability= 2.18952672D+01 5.01550478D-08 2.88014323D+01
                 2.79433063D-08 8.64000116D-08 3.92846063D+01
 Full mass-weighted force constant matrix:
 Low frequencies ---   -0.0026    0.0028    0.0039   10.5156   13.2043   14.8796
 Low frequencies ---  494.5196  704.3427 1664.4239
 Diagonal vibrational polarizability:
        0.0000000       2.1735990       0.0548488
 Harmonic frequencies (cm**-1), IR intensities (KM/Mole), Raman scattering
 activities (A**4/AMU), depolarization ratios for plane and unpolarized
 incident light, reduced masses (AMU), force constants (mDyne/A),
 and normal coordinates:
                      1                      2                      3
                     B2                     A1                     A1
 Frequencies --    494.5196               704.3427              1664.4239
 Red. masses --     12.7014                16.3682                12.0118
 Frc consts  --      1.8301                 4.7843                19.6058
 IR Inten    --     19.7521                 0.3916                 3.4597
  Atom  AN      X      Y      Z        X      Y      Z        X      Y      Z
     1  16     0.00   0.19   0.00     0.00  -0.00   0.47     0.00   0.00   0.02
     2   6    -0.00  -0.25   0.65    -0.00  -0.05  -0.62     0.00   0.71  -0.03
     3   6    -0.00  -0.25  -0.65    -0.00   0.05  -0.62    -0.00  -0.71  -0.03

 -------------------
 - Thermochemistry -
 -------------------
 Temperature   298.150 Kelvin.  Pressure   1.00000 Atm.
 Atom     1 has atomic number 16 and mass  31.97207
 Atom     2 has atomic number  6 and mass  12.00000
 Atom     3 has atomic number  6 and mass  12.00000
 Molecular mass:    55.97207 amu.
 Principal axes and moments of inertia in atomic units:
                           1         2         3
     Eigenvalues --    36.03717 138.76176 174.79893
           X            0.00000   0.00000   1.00000
           Y            0.00000   1.00000  -0.00000
           Z            1.00000  -0.00000  -0.00000
 This molecule is an asymmetric top.
 Rotational symmetry number  2.
 Rotational temperatures (Kelvin)      2.40346     0.62419     0.49551
 Rotational constants (GHZ):          50.08000    13.00604    10.32467
 Zero-point vibrational energy      17126.3 (Joules/Mol)
                                    4.09327 (Kcal/Mol)
 Warning -- explicit consideration of   1 degrees of freedom as
           vibrations may cause significant error
 Vibrational temperatures:    711.50  1013.39  2394.73
          (Kelvin)
 
 Zero-point correction=                           0.006523 (Hartree/Particle)
 Thermal correction to Energy=                    0.009697
 Thermal correction to Enthalpy=                  0.010641
 Thermal correction to Gibbs Free Energy=        -0.018694
 Sum of electronic and zero-point Energies=           -473.845050
 Sum of electronic and thermal Energies=              -473.841876
 Sum of electronic and thermal Enthalpies=            -473.840932
 Sum of electronic and thermal Free Energies=         -473.870267
 
                     E (Thermal)             CV                S
                      KCal/Mol        Cal/Mol-Kelvin    Cal/Mol-Kelvin
 Total                    6.085              8.086             61.741
 Electronic               0.000              0.000              2.755
 Translational            0.889              2.981             37.988
 Rotational               0.889              2.981             20.019
 Vibrational              4.308              2.125              0.979
 Vibration     1          0.850              1.262              0.672
                       Q            Log10(Q)             Ln(Q)
 Total Bot       0.396712D+09          8.598476         19.798722
 Total V=0       0.397066D+12         11.598862         26.707367
 Vib (Bot)       0.113870D-02         -2.943593         -6.777872
 Vib (Bot)    1  0.333962D+00         -0.476303         -1.096728
 Vib (V=0)       0.113971D+01          0.056794          0.130773
 Vib (V=0)    1  0.110127D+01          0.041895          0.096468
 Electronic      0.400000D+01          0.602060          1.386294
 Translational   0.164593D+08          7.216412         16.616403
 Rotational      0.529171D+04          3.723596          8.573897
 
                                                              b3lyp opt
                                                             IR Spectrum
 
     1                                                                                                                               
     6                                                                         7               4                                     
     6                                                                         0               9                                     
     4                                                                         4               5                                     
 
     X                                                                         X               X                                     
     X                                                                                         X                                     
     X                                                                                         X                                     
     X                                                                                         X                                     
                                                                                               X                                     
                                                                                               X                                     
                                                                                               X                                     
                                                                                               X                                     
                                                                                               X                                     
                                                                                               X                                     
                                                                                               X                                     
                                                                                               X                                     
                                                                                               X                                     
                                                                                               X                                     
                                                                                               X                                     
                                                                                               X                                     
                                                                                               X                                     
                                                                                               X                                     
                                                                                               X                                     
                                                                                               X                                     
 
 ***** Axes restored to original set *****
 -------------------------------------------------------------------
 Center     Atomic                   Forces (Hartrees/Bohr)
 Number     Number              X              Y              Z
 -------------------------------------------------------------------
      1       16           0.000022581    0.000005905   -0.000000000
      2        6          -0.000019423    0.000028147    0.000000000
      3        6          -0.000003158   -0.000034052    0.000000000
 -------------------------------------------------------------------
 Cartesian Forces:  Max     0.000034052 RMS     0.000017900
 Z-matrix is all fixed cartesians, so copy forces.
 Force constants in Cartesian coordinates: 
                1             2             3             4             5 
      1  0.246619D+00
      2  0.576264D-01  0.413215D-01
      3  0.000000D+00  0.000000D+00  0.114864D-03
      4 -0.103474D+00 -0.575688D-01  0.000000D+00  0.123216D+00
      5 -0.707252D-01 -0.404969D-01  0.000000D+00 -0.929726D-01  0.619989D+00
      6  0.000000D+00  0.000000D+00 -0.574321D-04  0.000000D+00  0.000000D+00
      7 -0.143146D+00 -0.576049D-04  0.000000D+00 -0.197425D-01  0.163698D+00
      8  0.130989D-01 -0.824621D-03  0.000000D+00  0.150541D+00 -0.579492D+00
      9  0.000000D+00  0.000000D+00 -0.574321D-04  0.000000D+00  0.000000D+00
                6             7             8             9 
      6  0.538240D-04
      7  0.000000D+00  0.162888D+00
      8  0.000000D+00 -0.163640D+00  0.580316D+00
      9  0.360815D-05  0.000000D+00  0.000000D+00  0.538240D-04
 Leave Link  716 at Wed Aug  3 22:56:47 2016, MaxMem=    33554432 cpu:         0.1
 (Enter /home/proyectos/fulerenos/M3C-v2.0/M3C-deps_CCC/g09-AM64L-G09RevC.01/l103.exe)

 GradGradGradGradGradGradGradGradGradGradGradGradGradGradGradGradGradGrad
 Berny optimization.
 Search for a local minimum.
 Step number   1 out of a maximum of    2
 All quantities printed in internal units (Hartrees-Bohrs-Radians)
 Second derivative matrix not updated -- analytic derivatives used.
 The second derivative matrix:
                          X1        Y1        Z1        X2        Y2
           X1           0.24662
           Y1           0.05763   0.04132
           Z1          -0.00000  -0.00000   0.00011
           X2          -0.10347  -0.05757   0.00000   0.12322
           Y2          -0.07073  -0.04050   0.00000  -0.09297   0.61999
           Z2           0.00000  -0.00000  -0.00006   0.00000   0.00000
           X3          -0.14315  -0.00006  -0.00000  -0.01974   0.16370
           Y3           0.01310  -0.00082   0.00000   0.15054  -0.57949
           Z3          -0.00000   0.00000  -0.00006   0.00000   0.00000
                          Z2        X3        Y3        Z3
           Z2           0.00005
           X3          -0.00000   0.16289
           Y3          -0.00000  -0.16364   0.58032
           Z3           0.00000  -0.00000  -0.00000   0.00005
 ITU=  0
     Eigenvalues ---    0.12382   0.36303   1.26132
 Angle between quadratic step and forces=  32.98 degrees.
 ClnCor:  largest displacement from symmetrization is 2.20D-13 for atom     3.
 Linear search not attempted -- first point.
 ClnCor:  largest displacement from symmetrization is 2.56D-16 for atom     1.
 B after Tr=     0.000011    0.000003   -0.000000
         Rot=    1.000000   -0.000000    0.000000    0.000000 Ang=   0.00 deg.
 Variable       Old X    -DE/DX   Delta X   Delta X   Delta X     New X
                                 (Linear)    (Quad)   (Total)
    X1        0.23835   0.00002   0.00000   0.00005   0.00006   0.23842
    Y1       -0.27400   0.00001   0.00000   0.00001   0.00002  -0.27398
    Z1       -0.00000  -0.00000   0.00000   0.00000   0.00000  -0.00000
    X2        3.00632  -0.00002   0.00000  -0.00005  -0.00004   3.00628
    Y2        1.71641   0.00003   0.00000   0.00002   0.00002   1.71643
    Z2        0.00000   0.00000   0.00000  -0.00000   0.00000   0.00000
    X3        3.62635  -0.00000   0.00000  -0.00004  -0.00002   3.62632
    Y3       -0.65461  -0.00003   0.00000  -0.00004  -0.00004  -0.65465
    Z3       -0.00000   0.00000   0.00000  -0.00000  -0.00000  -0.00000
         Item               Value     Threshold  Converged?
 Maximum Force            0.000034     0.000450     YES
 RMS     Force            0.000018     0.000300     YES
 Maximum Displacement     0.000064     0.001800     YES
 RMS     Displacement     0.000030     0.001200     YES
 Predicted change in Energy=-2.108504D-09
 Optimization completed.
    -- Stationary point found.
 GradGradGradGradGradGradGradGradGradGradGradGradGradGradGradGradGradGrad

 Leave Link  103 at Wed Aug  3 22:56:47 2016, MaxMem=    33554432 cpu:         0.1
 (Enter /home/proyectos/fulerenos/M3C-v2.0/M3C-deps_CCC/g09-AM64L-G09RevC.01/l9999.exe)
 1\1\GINC-DEPAZ27\Freq\UB3LYP\6-311++G(3df,2p)\C2S1(1+,4)\NAGUIRRE\03-A
 ug-2016\0\\#p b3lyp/6-311++G(3df,2p) freq\\b3lyp opt\\1,4\S,0.126131,-
 0.1449929998,0.\C,1.590877046,0.908286305,0.\C,1.9189809528,-0.3464063
 058,0.\\Version=EM64L-G09RevE.01\State=4-A2\HF=-473.8515733\S2=3.76403
 5\S2-1=0.\S2A=3.750064\RMSD=1.713e-09\RMSF=1.790e-05\ZeroPoint=0.00652
 3\Thermal=0.0096972\Dipole=0.1392843,0.036423,0.\DipoleDeriv=0.6104526
 ,0.0822044,0.,0.0822044,0.3175937,0.,0.,0.,0.5262095,0.0853158,0.22884
 94,0.,0.0788974,0.450661,0.,0.,0.,0.2368952,0.3042315,-0.3110538,0.,-0
 .1611018,0.2317453,0.,0.,0.,0.2368952\Polar=38.6136196,2.5659009,29.47
 2419,0.,0.,21.8952672\PG=C02V [C2(S1),SGV(C2)]\NImag=0\\0.24661950,0.0
 5762638,0.04132153,0.,0.,0.00011486,-0.10347361,-0.05756877,0.,0.12321
 606,-0.07072524,-0.04049691,0.,-0.09297255,0.61998872,0.,0.,-0.0000574
 3,0.,0.,0.00005382,-0.14314589,-0.00005760,0.,-0.01974245,0.16369780,0
 .,0.16288834,0.01309887,-0.00082462,0.,0.15054133,-0.57949181,0.,-0.16
 364019,0.58031643,0.,0.,-0.00005743,0.,0.,0.00000361,0.,0.,0.00005382\
 \-0.00002258,-0.00000590,0.,0.00001942,-0.00002815,0.,0.00000316,0.000
 03405,0.\\\@


 THERE ARE TWO THINGS THAT EVERYBODY THINKS THEY CAN DO BETTER THAN
 ANYONE ELSE - PUNCH THE FIRE, AND EDIT A DAILY PAPER.
 -- UNCLE ESEK, "CENTURY MAGAZINE", 1885
 Job cpu time:       0 days  0 hours  3 minutes 36.0 seconds.
 File lengths (MBytes):  RWF=     17 Int=      0 D2E=      0 Chk=      2 Scr=      1
 Normal termination of Gaussian 09 at Wed Aug  3 22:56:47 2016.
