 Entering Gaussian System, Link 0=/home/proyectos/fulerenos/M3C-v2.0/M3C-deps_CCC/g09-AM64L-G09RevC.01/g09
 Initial command:
 /home/proyectos/fulerenos/M3C-v2.0/M3C-deps_CCC/g09-AM64L-G09RevC.01/l1.exe "/scratch/naguirre/gaussian/Gau-20471.inp" -scrdir="/scratch/naguirre/gaussian/"
 Entering Link 1 = /home/proyectos/fulerenos/M3C-v2.0/M3C-deps_CCC/g09-AM64L-G09RevC.01/l1.exe PID=     20478.
  
 Copyright (c) 1988,1990,1992,1993,1995,1998,2003,2009,2015,
            Gaussian, Inc.  All Rights Reserved.
  
 This is part of the Gaussian(R) 09 program.  It is based on
 the Gaussian(R) 03 system (copyright 2003, Gaussian, Inc.),
 the Gaussian(R) 98 system (copyright 1998, Gaussian, Inc.),
 the Gaussian(R) 94 system (copyright 1995, Gaussian, Inc.),
 the Gaussian 92(TM) system (copyright 1992, Gaussian, Inc.),
 the Gaussian 90(TM) system (copyright 1990, Gaussian, Inc.),
 the Gaussian 88(TM) system (copyright 1988, Gaussian, Inc.),
 the Gaussian 86(TM) system (copyright 1986, Carnegie Mellon
 University), and the Gaussian 82(TM) system (copyright 1983,
 Carnegie Mellon University). Gaussian is a federally registered
 trademark of Gaussian, Inc.
  
 This software contains proprietary and confidential information,
 including trade secrets, belonging to Gaussian, Inc.
  
 This software is provided under written license and may be
 used, copied, transmitted, or stored only in accord with that
 written license.
  
 The following legend is applicable only to US Government
 contracts under FAR:
  
                    RESTRICTED RIGHTS LEGEND
  
 Use, reproduction and disclosure by the US Government is
 subject to restrictions as set forth in subparagraphs (a)
 and (c) of the Commercial Computer Software - Restricted
 Rights clause in FAR 52.227-19.
  
 Gaussian, Inc.
 340 Quinnipiac St., Bldg. 40, Wallingford CT 06492
  
  
 ---------------------------------------------------------------
 Warning -- This program may not be used in any manner that
 competes with the business of Gaussian, Inc. or will provide
 assistance to any competitor of Gaussian, Inc.  The licensee
 of this program is prohibited from giving any competitor of
 Gaussian, Inc. access to this program.  By using this program,
 the user acknowledges that Gaussian, Inc. is engaged in the
 business of creating and licensing software in the field of
 computational chemistry and represents and warrants to the
 licensee that it is not a competitor of Gaussian, Inc. and that
 it will not use this program in any manner prohibited above.
 ---------------------------------------------------------------
  

 Cite this work as:
 Gaussian 09, Revision E.01,
 M. J. Frisch, G. W. Trucks, H. B. Schlegel, G. E. Scuseria, 
 M. A. Robb, J. R. Cheeseman, G. Scalmani, V. Barone, B. Mennucci, 
 G. A. Petersson, H. Nakatsuji, M. Caricato, X. Li, H. P. Hratchian, 
 A. F. Izmaylov, J. Bloino, G. Zheng, J. L. Sonnenberg, M. Hada, 
 M. Ehara, K. Toyota, R. Fukuda, J. Hasegawa, M. Ishida, T. Nakajima, 
 Y. Honda, O. Kitao, H. Nakai, T. Vreven, J. A. Montgomery, Jr., 
 J. E. Peralta, F. Ogliaro, M. Bearpark, J. J. Heyd, E. Brothers, 
 K. N. Kudin, V. N. Staroverov, T. Keith, R. Kobayashi, J. Normand, 
 K. Raghavachari, A. Rendell, J. C. Burant, S. S. Iyengar, J. Tomasi, 
 M. Cossi, N. Rega, J. M. Millam, M. Klene, J. E. Knox, J. B. Cross, 
 V. Bakken, C. Adamo, J. Jaramillo, R. Gomperts, R. E. Stratmann, 
 O. Yazyev, A. J. Austin, R. Cammi, C. Pomelli, J. W. Ochterski, 
 R. L. Martin, K. Morokuma, V. G. Zakrzewski, G. A. Voth, 
 P. Salvador, J. J. Dannenberg, S. Dapprich, A. D. Daniels, 
 O. Farkas, J. B. Foresman, J. V. Ortiz, J. Cioslowski, 
 and D. J. Fox, Gaussian, Inc., Wallingford CT, 2013.
 
 ******************************************
 Gaussian 09:  EM64L-G09RevE.01 30-Nov-2015
                 3-Aug-2016 
 ******************************************
 %NProcShared=4
 Will use up to    4 processors via shared memory.
 ------------------------------
 #p b3lyp/6-311++G(3df,2p) freq
 ------------------------------
 1/10=4,30=1,38=1/1,3;
 2/12=2,17=6,18=5,40=1/2;
 3/5=4,6=6,7=1216,11=2,16=1,25=1,30=1,71=2,74=-5,140=1/1,2,3;
 4//1;
 5/5=2,38=5,98=1/2;
 8/6=4,10=90,11=11/1;
 11/6=1,8=1,9=11,15=111,16=1/1,2,10;
 10/6=1/2;
 6/7=2,8=2,9=2,10=2,18=1,28=1/1;
 7/8=1,10=1,25=1/1,2,3,16;
 1/10=4,30=1/3;
 99//99;
 Leave Link    1 at Wed Aug  3 22:46:13 2016, MaxMem=           0 cpu:         0.3
 (Enter /home/proyectos/fulerenos/M3C-v2.0/M3C-deps_CCC/g09-AM64L-G09RevC.01/l101.exe)
 ---------
 b3lyp opt
 ---------
 Symbolic Z-matrix:
 Charge =  1 Multiplicity = 2
 S                    -1.10653   0.43129   0.02903 
 S                     0.84794   0.73958  -0.23251 
 C                     0.30829  -2.14816  -0.05392 
 C                     0.10006  -0.84733  -0.07668 
 
 NAtoms=      4 NQM=        4 NQMF=       0 NMMI=      0 NMMIF=      0
                NMic=       0 NMicF=      0.
                    Isotopes and Nuclear Properties:
 (Nuclear quadrupole moments (NQMom) in fm**2, nuclear magnetic moments (NMagM)
  in nuclear magnetons)

  Atom         1           2           3           4
 IAtWgt=          32          32          12          12
 AtmWgt=  31.9720718  31.9720718  12.0000000  12.0000000
 NucSpn=           0           0           0           0
 AtZEff=   0.0000000   0.0000000   0.0000000   0.0000000
 NQMom=    0.0000000   0.0000000   0.0000000   0.0000000
 NMagM=    0.0000000   0.0000000   0.0000000   0.0000000
 AtZNuc=  16.0000000  16.0000000   6.0000000   6.0000000
 Leave Link  101 at Wed Aug  3 22:46:13 2016, MaxMem=    33554432 cpu:         0.2
 (Enter /home/proyectos/fulerenos/M3C-v2.0/M3C-deps_CCC/g09-AM64L-G09RevC.01/l103.exe)

 GradGradGradGradGradGradGradGradGradGradGradGradGradGradGradGradGradGrad
 Berny optimization.
 Initialization pass.
 Trust Radius=3.00D-01 FncErr=1.00D-07 GrdErr=1.00D-07
 Number of steps in this run=      2 maximum allowed number of steps=      2.
 GradGradGradGradGradGradGradGradGradGradGradGradGradGradGradGradGradGrad

 Leave Link  103 at Wed Aug  3 22:46:13 2016, MaxMem=    33554432 cpu:         0.1
 (Enter /home/proyectos/fulerenos/M3C-v2.0/M3C-deps_CCC/g09-AM64L-G09RevC.01/l202.exe)
                          Input orientation:                          
 ---------------------------------------------------------------------
 Center     Atomic      Atomic             Coordinates (Angstroms)
 Number     Number       Type             X           Y           Z
 ---------------------------------------------------------------------
      1         16           0       -1.106526    0.431292    0.029033
      2         16           0        0.847941    0.739581   -0.232511
      3          6           0        0.308292   -2.148162   -0.053922
      4          6           0        0.100060   -0.847334   -0.076676
 ---------------------------------------------------------------------
                    Distance matrix (angstroms):
                    1          2          3          4
     1  S    0.000000
     2  S    1.995842   0.000000
     3  C    2.943158   2.943158   0.000000
     4  C    1.761224   1.761224   1.317586   0.000000
 Stoichiometry    C2S2(1+,2)
 Framework group  C2V[C2(CC),SGV(S2)]
 Deg. of freedom     3
 Full point group                 C2V     NOp   4
 Largest Abelian subgroup         C2V     NOp   4
 Largest concise Abelian subgroup C2      NOp   2
                         Standard orientation:                         
 ---------------------------------------------------------------------
 Center     Atomic      Atomic             Coordinates (Angstroms)
 Number     Number       Type             X           Y           Z
 ---------------------------------------------------------------------
      1         16           0        0.000000   -0.997921   -0.575460
      2         16           0        0.000000    0.997921   -0.575460
      3          6           0        0.000000    0.000000    2.193354
      4          6           0        0.000000    0.000000    0.875767
 ---------------------------------------------------------------------
 Rotational constants (GHZ):      7.9364071      5.7358648      3.3295241
 Leave Link  202 at Wed Aug  3 22:46:13 2016, MaxMem=    33554432 cpu:         0.0
 (Enter /home/proyectos/fulerenos/M3C-v2.0/M3C-deps_CCC/g09-AM64L-G09RevC.01/l301.exe)
 Standard basis: 6-311++G(3df,2p) (5D, 7F)
 Ernie: Thresh=  0.10000D-02 Tol=  0.10000D-05 Strict=F.
 There are    79 symmetry adapted cartesian basis functions of A1  symmetry.
 There are    24 symmetry adapted cartesian basis functions of A2  symmetry.
 There are    36 symmetry adapted cartesian basis functions of B1  symmetry.
 There are    57 symmetry adapted cartesian basis functions of B2  symmetry.
 There are    66 symmetry adapted basis functions of A1  symmetry.
 There are    23 symmetry adapted basis functions of A2  symmetry.
 There are    33 symmetry adapted basis functions of B1  symmetry.
 There are    50 symmetry adapted basis functions of B2  symmetry.
   172 basis functions,   260 primitive gaussians,   196 cartesian basis functions
    22 alpha electrons       21 beta electrons
       nuclear repulsion energy       174.5440833248 Hartrees.
 IExCor=  402 DFT=T Ex+Corr=B3LYP ExCW=0 ScaHFX=  0.200000
 ScaDFX=  0.800000  0.720000  1.000000  0.810000 ScalE2=  1.000000  1.000000
 IRadAn=      0 IRanWt=     -1 IRanGd=            0 ICorTp=0 IEmpDi=  4
 NAtoms=    4 NActive=    4 NUniq=    3 SFac= 1.78D+00 NAtFMM=   60 NAOKFM=F Big=F
 Integral buffers will be    131072 words long.
 Raffenetti 2 integral format.
 Two-electron integral symmetry is turned on.
 Leave Link  301 at Wed Aug  3 22:46:13 2016, MaxMem=    33554432 cpu:         0.3
 (Enter /home/proyectos/fulerenos/M3C-v2.0/M3C-deps_CCC/g09-AM64L-G09RevC.01/l302.exe)
 NPDir=0 NMtPBC=     1 NCelOv=     1 NCel=       1 NClECP=     1 NCelD=      1
         NCelK=      1 NCelE2=     1 NClLst=     1 CellRange=     0.0.
 One-electron integrals computed using PRISM.
 One-electron integral symmetry used in STVInt
 NBasis=   172 RedAO= T EigKep=  4.42D-05  NBF=    66    23    33    50
 NBsUse=   172 1.00D-06 EigRej= -1.00D+00 NBFU=    66    23    33    50
 Precomputing XC quadrature grid using
 IXCGrd= 4 IRadAn=           0 IRanWt=          -1 IRanGd=           0 AccXCQ= 0.00D+00.
 Generated NRdTot=       0 NPtTot=           0 NUsed=           0 NTot=          32
 NSgBfM=   196   196   196   196   196 MxSgAt=     4 MxSgA2=     4.
 Leave Link  302 at Wed Aug  3 22:46:13 2016, MaxMem=    33554432 cpu:         0.9
 (Enter /home/proyectos/fulerenos/M3C-v2.0/M3C-deps_CCC/g09-AM64L-G09RevC.01/l303.exe)
 DipDrv:  MaxL=1.
 Leave Link  303 at Wed Aug  3 22:46:13 2016, MaxMem=    33554432 cpu:         0.1
 (Enter /home/proyectos/fulerenos/M3C-v2.0/M3C-deps_CCC/g09-AM64L-G09RevC.01/l401.exe)
 ExpMin= 4.05D-02 ExpMax= 9.34D+04 ExpMxC= 3.17D+03 IAcc=2 IRadAn=         4 AccDes= 0.00D+00
 Harris functional with IExCor=  402 and IRadAn=       4 diagonalized for initial guess.
 HarFok:  IExCor=  402 AccDes= 0.00D+00 IRadAn=         4 IDoV= 1 UseB2=F ITyADJ=14
 ICtDFT=  3500011 ScaDFX=  1.000000  1.000000  1.000000  1.000000
 FoFCou: FMM=F IPFlag=           0 FMFlag=      100000 FMFlg1=           0
         NFxFlg=           0 DoJE=T BraDBF=F KetDBF=T FulRan=T
         wScrn=  0.000000 ICntrl=     500 IOpCl=  0 I1Cent=   200000004 NGrid=           0
         NMat0=    1 NMatS0=      1 NMatT0=    0 NMatD0=    1 NMtDS0=    0 NMtDT0=    0
 Petite list used in FoFCou.
 Harris En= -872.198692952668    
 JPrj=0 DoOrth=F DoCkMO=F.
 Initial guess orbital symmetries:
 Alpha Orbitals:
       Occupied  (B2) (A1) (A1) (A1) (A1) (B2) (A1) (B2) (A1) (B2)
                 (B1) (A2) (A1) (A1) (B2) (A1) (B1) (B2) (A1) (A1)
                 (B1) (B2)
       Virtual   (A2) (B2) (B1) (A1) (A1) (B2) (A1) (B1) (A1) (B2)
                 (A1) (A2) (B1) (B2) (A1) (B2) (B1) (B2) (A1) (A1)
                 (B1) (B2) (A1) (A2) (A1) (B1) (B2) (A1) (B2) (A2)
                 (A1) (B1) (B2) (A1) (A2) (A1) (B2) (A1) (A2) (B1)
                 (B2) (A1) (A1) (B1) (A1) (B2) (B2) (A2) (A1) (B1)
                 (B1) (B2) (A1) (B2) (A1) (B1) (A1) (A2) (B2) (A1)
                 (B2) (A2) (B1) (B2) (A1) (B2) (A1) (A1) (B1) (A1)
                 (A2) (B2) (B1) (A1) (B1) (A1) (A2) (A1) (A2) (B1)
                 (A2) (B2) (B1) (B2) (A1) (A1) (B2) (A2) (A1) (B2)
                 (A1) (B2) (B1) (A2) (A1) (B2) (B2) (A1) (B1) (B2)
                 (B1) (B1) (B2) (A1) (A2) (A1) (B2) (B1) (B2) (B1)
                 (B2) (A1) (A2) (A1) (A1) (A1) (B1) (B2) (A1) (B1)
                 (A2) (A1) (B2) (A2) (B1) (A1) (B2) (B2) (A2) (A1)
                 (A2) (A1) (A1) (B1) (B2) (B1) (B2) (A1) (B2) (A1)
                 (A2) (B1) (A1) (B2) (A1) (B2) (A1) (A1) (A1) (B2)
 Beta  Orbitals:
       Occupied  (B2) (A1) (A1) (A1) (A1) (B2) (A1) (B2) (A1) (B2)
                 (B1) (A2) (A1) (A1) (B2) (A1) (B1) (B2) (A1) (A1)
                 (B1)
       Virtual   (B2) (A2) (B2) (B1) (A1) (A1) (B2) (A1) (B1) (A1)
                 (B2) (A1) (A2) (B1) (B2) (A1) (B2) (B1) (B2) (A1)
                 (A1) (B1) (B2) (A1) (A2) (A1) (B1) (B2) (A1) (B2)
                 (A2) (A1) (B1) (B2) (A1) (A2) (A1) (B2) (A1) (A2)
                 (B1) (B2) (A1) (A1) (B1) (A1) (B2) (B2) (A2) (A1)
                 (B1) (B1) (B2) (A1) (B2) (A1) (B1) (A1) (A2) (B2)
                 (A1) (B2) (A2) (B1) (B2) (A1) (B2) (A1) (A1) (B1)
                 (A1) (A2) (B2) (B1) (A1) (B1) (A1) (A2) (A1) (A2)
                 (B1) (A2) (B2) (B1) (B2) (A1) (A1) (B2) (A2) (A1)
                 (B2) (A1) (B2) (B1) (A2) (A1) (B2) (B2) (A1) (B1)
                 (B2) (B1) (B1) (B2) (A1) (A2) (A1) (B2) (B1) (B2)
                 (B1) (B2) (A1) (A2) (A1) (A1) (A1) (B1) (B2) (A1)
                 (B1) (A2) (A1) (B2) (A2) (B1) (A1) (B2) (B2) (A2)
                 (A1) (A2) (A1) (A1) (B1) (B2) (B1) (B2) (A1) (B2)
                 (A1) (A2) (B1) (A1) (B2) (A1) (B2) (A1) (A1) (A1)
                 (B2)
 The electronic state of the initial guess is 2-B2.
 Initial guess <Sx>= 0.0000 <Sy>= 0.0000 <Sz>= 0.5000 <S**2>= 0.7500 S= 0.5000
 Leave Link  401 at Wed Aug  3 22:46:14 2016, MaxMem=    33554432 cpu:         1.3
 (Enter /home/proyectos/fulerenos/M3C-v2.0/M3C-deps_CCC/g09-AM64L-G09RevC.01/l502.exe)
 UHF open shell SCF:
 Using DIIS extrapolation, IDIIS=  1040.
 Integral symmetry usage will be decided dynamically.
 IVT=      136714 IEndB=      136714 NGot=    33554432 MDV=    33472971
 LenX=    33472971 LenY=    33434114
 Requested convergence on RMS density matrix=1.00D-08 within 128 cycles.
 Requested convergence on MAX density matrix=1.00D-06.
 Requested convergence on             energy=1.00D-06.
 No special actions if energy rises.
 Fock matrices will be formed incrementally for  20 cycles.

 Cycle   1  Pass 1  IDiag  1:
 FoFJK:  IHMeth= 1 ICntrl=       0 DoSepK=F KAlg= 0 I1Cent=   0 FoldK=F
 IRaf= 970000000 NMat=   1 IRICut=       1 DoRegI=T DoRafI=F ISym2E= 1.
 FoFCou: FMM=F IPFlag=           0 FMFlag=      100000 FMFlg1=           0
         NFxFlg=           0 DoJE=F BraDBF=F KetDBF=F FulRan=T
         wScrn=  0.000000 ICntrl=       0 IOpCl=  1 I1Cent=           0 NGrid=           0
         NMat0=    1 NMatS0=      1 NMatT0=    0 NMatD0=    1 NMtDS0=    0 NMtDT0=    0
 Petite list used in FoFCou.
 E= -871.545146534824    
 DIIS: error= 7.33D-02 at cycle   1 NSaved=   1.
 NSaved= 1 IEnMin= 1 EnMin= -871.545146534824     IErMin= 1 ErrMin= 7.33D-02
 ErrMax= 7.33D-02  0.00D+00 EMaxC= 1.00D-01 BMatC= 1.62D+00 BMatP= 1.62D+00
 IDIUse=3 WtCom= 2.67D-01 WtEn= 7.33D-01
 Coeff-Com:  0.100D+01
 Coeff-En:   0.100D+01
 Coeff:      0.100D+01
 Gap=    -0.030 Goal=   None    Shift=    0.000
 Gap=     0.109 Goal=   None    Shift=    0.000
 GapD=   -0.030 DampG=0.250 DampE=0.500 DampFc=0.2500 IDamp=-1.
 Damping current iteration by 2.50D-01
 RMSDP=1.68D-02 MaxDP=1.21D+00              OVMax= 9.34D-01

 Cycle   2  Pass 1  IDiag  1:
 RMSU=  3.70D-03    CP:  9.16D-01
 E= -871.768587448210     Delta-E=       -0.223440913387 Rises=F Damp=T
 DIIS: error= 8.81D-03 at cycle   2 NSaved=   2.
 NSaved= 2 IEnMin= 2 EnMin= -871.768587448210     IErMin= 2 ErrMin= 8.81D-03
 ErrMax= 8.81D-03  0.00D+00 EMaxC= 1.00D-01 BMatC= 1.02D-01 BMatP= 1.62D+00
 IDIUse=3 WtCom= 9.12D-01 WtEn= 8.81D-02
 Coeff-Com: -0.122D-01 0.101D+01
 Coeff-En:   0.272D+00 0.728D+00
 Coeff:      0.129D-01 0.987D+00
 Gap=     0.019 Goal=   None    Shift=    0.000
 Gap=     0.080 Goal=   None    Shift=    0.000
 RMSDP=5.65D-03 MaxDP=3.64D-01 DE=-2.23D-01 OVMax= 8.92D-01

 Cycle   3  Pass 1  IDiag  1:
 RMSU=  4.31D-03    CP:  1.02D+00  2.78D-01
 E= -872.113479388228     Delta-E=       -0.344891940018 Rises=F Damp=F
 DIIS: error= 1.35D-02 at cycle   3 NSaved=   3.
 NSaved= 3 IEnMin= 3 EnMin= -872.113479388228     IErMin= 2 ErrMin= 8.81D-03
 ErrMax= 1.35D-02  0.00D+00 EMaxC= 1.00D-01 BMatC= 1.08D-01 BMatP= 1.02D-01
 IDIUse=3 WtCom= 8.65D-01 WtEn= 1.35D-01
 Coeff-Com: -0.695D-01 0.539D+00 0.531D+00
 Coeff-En:   0.000D+00 0.000D+00 0.100D+01
 Coeff:     -0.601D-01 0.466D+00 0.594D+00
 Gap=     0.096 Goal=   None    Shift=    0.000
 Gap=     0.049 Goal=   None    Shift=    0.000
 RMSDP=1.62D-03 MaxDP=6.78D-02 DE=-3.45D-01 OVMax= 7.91D-02

 Cycle   4  Pass 1  IDiag  1:
 RMSU=  1.41D-03    CP:  9.95D-01  3.89D-01  9.23D-01
 E= -872.132230589277     Delta-E=       -0.018751201049 Rises=F Damp=F
 DIIS: error= 1.25D-02 at cycle   4 NSaved=   4.
 NSaved= 4 IEnMin= 4 EnMin= -872.132230589277     IErMin= 2 ErrMin= 8.81D-03
 ErrMax= 1.25D-02  0.00D+00 EMaxC= 1.00D-01 BMatC= 4.36D-02 BMatP= 1.02D-01
 IDIUse=3 WtCom= 8.75D-01 WtEn= 1.25D-01
 Coeff-Com: -0.647D-01 0.203D+00 0.359D+00 0.503D+00
 Coeff-En:   0.000D+00 0.000D+00 0.215D+00 0.785D+00
 Coeff:     -0.566D-01 0.177D+00 0.341D+00 0.538D+00
 Gap=     0.129 Goal=   None    Shift=    0.000
 Gap=     0.059 Goal=   None    Shift=    0.000
 RMSDP=1.02D-03 MaxDP=5.22D-02 DE=-1.88D-02 OVMax= 6.80D-02

 Cycle   5  Pass 1  IDiag  1:
 RMSU=  8.95D-04    CP:  1.01D+00  3.47D-01  9.30D-01  7.35D-01
 E= -872.142645515218     Delta-E=       -0.010414925942 Rises=F Damp=F
 DIIS: error= 4.54D-03 at cycle   5 NSaved=   5.
 NSaved= 5 IEnMin= 5 EnMin= -872.142645515218     IErMin= 5 ErrMin= 4.54D-03
 ErrMax= 4.54D-03  0.00D+00 EMaxC= 1.00D-01 BMatC= 6.75D-03 BMatP= 4.36D-02
 IDIUse=3 WtCom= 9.55D-01 WtEn= 4.54D-02
 Coeff-Com:  0.335D-02-0.103D-01-0.707D-01 0.239D+00 0.838D+00
 Coeff-En:   0.000D+00 0.000D+00 0.000D+00 0.113D+00 0.887D+00
 Coeff:      0.320D-02-0.981D-02-0.675D-01 0.234D+00 0.841D+00
 Gap=     0.132 Goal=   None    Shift=    0.000
 Gap=     0.067 Goal=   None    Shift=    0.000
 RMSDP=4.07D-04 MaxDP=1.74D-02 DE=-1.04D-02 OVMax= 1.67D-02

 Cycle   6  Pass 1  IDiag  1:
 RMSU=  2.89D-04    CP:  1.00D+00  3.66D-01  9.19D-01  9.17D-01  9.71D-01
 E= -872.144292908543     Delta-E=       -0.001647393325 Rises=F Damp=F
 DIIS: error= 8.62D-04 at cycle   6 NSaved=   6.
 NSaved= 6 IEnMin= 6 EnMin= -872.144292908543     IErMin= 6 ErrMin= 8.62D-04
 ErrMax= 8.62D-04  0.00D+00 EMaxC= 1.00D-01 BMatC= 4.30D-04 BMatP= 6.75D-03
 IDIUse=3 WtCom= 9.91D-01 WtEn= 8.62D-03
 Coeff-Com:  0.901D-02-0.959D-02-0.487D-01 0.405D-01 0.318D+00 0.690D+00
 Coeff-En:   0.000D+00 0.000D+00 0.000D+00 0.000D+00 0.000D+00 0.100D+01
 Coeff:      0.893D-02-0.951D-02-0.483D-01 0.401D-01 0.316D+00 0.693D+00
 Gap=     0.134 Goal=   None    Shift=    0.000
 Gap=     0.069 Goal=   None    Shift=    0.000
 RMSDP=7.52D-05 MaxDP=1.98D-03 DE=-1.65D-03 OVMax= 3.24D-03

 Cycle   7  Pass 1  IDiag  1:
 RMSU=  6.65D-05    CP:  1.00D+00  3.64D-01  9.17D-01  9.33D-01  9.97D-01
                    CP:  9.70D-01
 E= -872.144387835370     Delta-E=       -0.000094926827 Rises=F Damp=F
 DIIS: error= 2.36D-04 at cycle   7 NSaved=   7.
 NSaved= 7 IEnMin= 7 EnMin= -872.144387835370     IErMin= 7 ErrMin= 2.36D-04
 ErrMax= 2.36D-04  0.00D+00 EMaxC= 1.00D-01 BMatC= 2.41D-05 BMatP= 4.30D-04
 IDIUse=3 WtCom= 9.98D-01 WtEn= 2.36D-03
 Coeff-Com:  0.157D-02-0.988D-03 0.110D-01-0.864D-02-0.631D-01 0.142D-01
 Coeff-Com:  0.105D+01
 Coeff-En:   0.000D+00 0.000D+00 0.000D+00 0.000D+00 0.000D+00 0.000D+00
 Coeff-En:   0.100D+01
 Coeff:      0.157D-02-0.986D-03 0.110D-01-0.862D-02-0.629D-01 0.142D-01
 Coeff:      0.105D+01
 Gap=     0.134 Goal=   None    Shift=    0.000
 Gap=     0.070 Goal=   None    Shift=    0.000
 RMSDP=3.08D-05 MaxDP=1.44D-03 DE=-9.49D-05 OVMax= 1.55D-03

 Cycle   8  Pass 1  IDiag  1:
 RMSU=  1.81D-05    CP:  1.00D+00  3.62D-01  9.17D-01  9.41D-01  1.00D+00
                    CP:  1.03D+00  1.18D+00
 E= -872.144396334165     Delta-E=       -0.000008498795 Rises=F Damp=F
 DIIS: error= 7.24D-05 at cycle   8 NSaved=   8.
 NSaved= 8 IEnMin= 8 EnMin= -872.144396334165     IErMin= 8 ErrMin= 7.24D-05
 ErrMax= 7.24D-05  0.00D+00 EMaxC= 1.00D-01 BMatC= 2.16D-06 BMatP= 2.41D-05
 IDIUse=1 WtCom= 1.00D+00 WtEn= 0.00D+00
 Coeff-Com:  0.122D-03-0.863D-04 0.645D-02-0.661D-02-0.415D-01-0.341D-01
 Coeff-Com:  0.343D+00 0.732D+00
 Coeff:      0.122D-03-0.863D-04 0.645D-02-0.661D-02-0.415D-01-0.341D-01
 Coeff:      0.343D+00 0.732D+00
 Gap=     0.134 Goal=   None    Shift=    0.000
 Gap=     0.070 Goal=   None    Shift=    0.000
 RMSDP=1.08D-05 MaxDP=4.89D-04 DE=-8.50D-06 OVMax= 6.20D-04

 Cycle   9  Pass 1  IDiag  1:
 RMSU=  6.05D-06    CP:  1.00D+00  3.62D-01  9.17D-01  9.43D-01  9.99D-01
                    CP:  1.05D+00  1.26D+00  1.02D+00
 E= -872.144396898969     Delta-E=       -0.000000564804 Rises=F Damp=F
 DIIS: error= 3.69D-05 at cycle   9 NSaved=   9.
 NSaved= 9 IEnMin= 9 EnMin= -872.144396898969     IErMin= 9 ErrMin= 3.69D-05
 ErrMax= 3.69D-05  0.00D+00 EMaxC= 1.00D-01 BMatC= 2.47D-07 BMatP= 2.16D-06
 IDIUse=1 WtCom= 1.00D+00 WtEn= 0.00D+00
 Coeff-Com: -0.974D-04 0.195D-03-0.386D-03-0.106D-02 0.108D-02 0.160D-02
 Coeff-Com: -0.228D-01 0.161D+00 0.861D+00
 Coeff:     -0.974D-04 0.195D-03-0.386D-03-0.106D-02 0.108D-02 0.160D-02
 Coeff:     -0.228D-01 0.161D+00 0.861D+00
 Gap=     0.134 Goal=   None    Shift=    0.000
 Gap=     0.070 Goal=   None    Shift=    0.000
 RMSDP=4.48D-06 MaxDP=2.27D-04 DE=-5.65D-07 OVMax= 3.21D-04

 Cycle  10  Pass 1  IDiag  1:
 RMSU=  2.40D-06    CP:  1.00D+00  3.62D-01  9.17D-01  9.43D-01  1.00D+00
                    CP:  1.05D+00  1.25D+00  1.03D+00  7.35D-01
 E= -872.144397025686     Delta-E=       -0.000000126717 Rises=F Damp=F
 DIIS: error= 1.20D-05 at cycle  10 NSaved=  10.
 NSaved=10 IEnMin=10 EnMin= -872.144397025686     IErMin=10 ErrMin= 1.20D-05
 ErrMax= 1.20D-05  0.00D+00 EMaxC= 1.00D-01 BMatC= 2.03D-08 BMatP= 2.47D-07
 IDIUse=1 WtCom= 1.00D+00 WtEn= 0.00D+00
 Coeff-Com: -0.749D-05-0.151D-04-0.310D-03 0.173D-03 0.136D-02 0.140D-02
 Coeff-Com: -0.139D-01-0.493D-01-0.569D-01 0.112D+01
 Coeff:     -0.749D-05-0.151D-04-0.310D-03 0.173D-03 0.136D-02 0.140D-02
 Coeff:     -0.139D-01-0.493D-01-0.569D-01 0.112D+01
 Gap=     0.134 Goal=   None    Shift=    0.000
 Gap=     0.070 Goal=   None    Shift=    0.000
 RMSDP=1.22D-06 MaxDP=4.60D-05 DE=-1.27D-07 OVMax= 1.74D-04

 Cycle  11  Pass 1  IDiag  1:
 RMSU=  7.46D-07    CP:  1.00D+00  3.62D-01  9.17D-01  9.43D-01  1.00D+00
                    CP:  1.05D+00  1.25D+00  1.04D+00  8.00D-01  1.25D+00
 E= -872.144397056268     Delta-E=       -0.000000030582 Rises=F Damp=F
 DIIS: error= 6.38D-06 at cycle  11 NSaved=  11.
 NSaved=11 IEnMin=11 EnMin= -872.144397056268     IErMin=11 ErrMin= 6.38D-06
 ErrMax= 6.38D-06  0.00D+00 EMaxC= 1.00D-01 BMatC= 6.27D-09 BMatP= 2.03D-08
 IDIUse=1 WtCom= 1.00D+00 WtEn= 0.00D+00
 Coeff-Com:  0.184D-04-0.258D-04-0.139D-04 0.397D-03 0.338D-03 0.676D-04
 Coeff-Com:  0.198D-02-0.473D-01-0.206D+00 0.304D-01 0.122D+01
 Coeff:      0.184D-04-0.258D-04-0.139D-04 0.397D-03 0.338D-03 0.676D-04
 Coeff:      0.198D-02-0.473D-01-0.206D+00 0.304D-01 0.122D+01
 Gap=     0.134 Goal=   None    Shift=    0.000
 Gap=     0.070 Goal=   None    Shift=    0.000
 RMSDP=8.95D-07 MaxDP=3.89D-05 DE=-3.06D-08 OVMax= 1.46D-04

 Cycle  12  Pass 1  IDiag  1:
 RMSU=  3.74D-07    CP:  1.00D+00  3.62D-01  9.17D-01  9.43D-01  1.00D+00
                    CP:  1.05D+00  1.25D+00  1.05D+00  8.11D-01  1.49D+00
                    CP:  1.63D+00
 E= -872.144397068376     Delta-E=       -0.000000012108 Rises=F Damp=F
 DIIS: error= 2.30D-06 at cycle  12 NSaved=  12.
 NSaved=12 IEnMin=12 EnMin= -872.144397068376     IErMin=12 ErrMin= 2.30D-06
 ErrMax= 2.30D-06  0.00D+00 EMaxC= 1.00D-01 BMatC= 9.38D-10 BMatP= 6.27D-09
 IDIUse=1 WtCom= 1.00D+00 WtEn= 0.00D+00
 Coeff-Com:  0.249D-05-0.688D-05 0.812D-04-0.442D-05-0.190D-03-0.610D-03
 Coeff-Com:  0.171D-02 0.138D-01 0.369D-01-0.240D+00-0.165D+00 0.135D+01
 Coeff:      0.249D-05-0.688D-05 0.812D-04-0.442D-05-0.190D-03-0.610D-03
 Coeff:      0.171D-02 0.138D-01 0.369D-01-0.240D+00-0.165D+00 0.135D+01
 Gap=     0.134 Goal=   None    Shift=    0.000
 Gap=     0.070 Goal=   None    Shift=    0.000
 RMSDP=4.46D-07 MaxDP=1.97D-05 DE=-1.21D-08 OVMax= 7.34D-05

 Cycle  13  Pass 1  IDiag  1:
 RMSU=  1.08D-07    CP:  1.00D+00  3.62D-01  9.17D-01  9.43D-01  1.00D+00
                    CP:  1.05D+00  1.25D+00  1.05D+00  8.28D-01  1.55D+00
                    CP:  2.06D+00  1.48D+00
 E= -872.144397070256     Delta-E=       -0.000000001881 Rises=F Damp=F
 DIIS: error= 3.35D-07 at cycle  13 NSaved=  13.
 NSaved=13 IEnMin=13 EnMin= -872.144397070256     IErMin=13 ErrMin= 3.35D-07
 ErrMax= 3.35D-07  0.00D+00 EMaxC= 1.00D-01 BMatC= 3.68D-11 BMatP= 9.38D-10
 IDIUse=1 WtCom= 1.00D+00 WtEn= 0.00D+00
 Coeff-Com:  0.762D-06 0.530D-06-0.161D-05-0.243D-04 0.406D-05 0.197D-03
 Coeff-Com: -0.458D-03 0.276D-03 0.490D-02 0.307D-01-0.303D-01-0.210D+00
 Coeff-Com:  0.121D+01
 Coeff:      0.762D-06 0.530D-06-0.161D-05-0.243D-04 0.406D-05 0.197D-03
 Coeff:     -0.458D-03 0.276D-03 0.490D-02 0.307D-01-0.303D-01-0.210D+00
 Coeff:      0.121D+01
 Gap=     0.134 Goal=   None    Shift=    0.000
 Gap=     0.070 Goal=   None    Shift=    0.000
 RMSDP=6.54D-08 MaxDP=3.04D-06 DE=-1.88D-09 OVMax= 8.18D-06

 Cycle  14  Pass 1  IDiag  1:
 RMSU=  1.88D-08    CP:  1.00D+00  3.62D-01  9.17D-01  9.43D-01  1.00D+00
                    CP:  1.05D+00  1.25D+00  1.05D+00  8.29D-01  1.56D+00
                    CP:  2.10D+00  1.55D+00  1.39D+00
 E= -872.144397070294     Delta-E=       -0.000000000038 Rises=F Damp=F
 DIIS: error= 4.63D-08 at cycle  14 NSaved=  14.
 NSaved=14 IEnMin=14 EnMin= -872.144397070294     IErMin=14 ErrMin= 4.63D-08
 ErrMax= 4.63D-08  0.00D+00 EMaxC= 1.00D-01 BMatC= 1.05D-12 BMatP= 3.68D-11
 IDIUse=1 WtCom= 1.00D+00 WtEn= 0.00D+00
 Coeff-Com: -0.211D-07-0.383D-07-0.365D-05 0.254D-05 0.545D-05-0.642D-05
 Coeff-Com: -0.527D-04-0.468D-03-0.144D-02 0.760D-02 0.604D-02-0.393D-01
 Coeff-Com: -0.735D-01 0.110D+01
 Coeff:     -0.211D-07-0.383D-07-0.365D-05 0.254D-05 0.545D-05-0.642D-05
 Coeff:     -0.527D-04-0.468D-03-0.144D-02 0.760D-02 0.604D-02-0.393D-01
 Coeff:     -0.735D-01 0.110D+01
 Gap=     0.134 Goal=   None    Shift=    0.000
 Gap=     0.070 Goal=   None    Shift=    0.000
 RMSDP=1.22D-08 MaxDP=6.46D-07 DE=-3.77D-11 OVMax= 1.09D-06

 Cycle  15  Pass 1  IDiag  1:
 RMSU=  4.21D-09    CP:  1.00D+00  3.62D-01  9.17D-01  9.43D-01  1.00D+00
                    CP:  1.05D+00  1.25D+00  1.05D+00  8.29D-01  1.56D+00
                    CP:  2.11D+00  1.56D+00  1.45D+00  1.32D+00
 E= -872.144397070288     Delta-E=        0.000000000006 Rises=F Damp=F
 DIIS: error= 1.83D-08 at cycle  15 NSaved=  15.
 NSaved=15 IEnMin=14 EnMin= -872.144397070294     IErMin=15 ErrMin= 1.83D-08
 ErrMax= 1.83D-08  0.00D+00 EMaxC= 1.00D-01 BMatC= 8.82D-14 BMatP= 1.05D-12
 IDIUse=1 WtCom= 1.00D+00 WtEn= 0.00D+00
 Coeff-Com: -0.234D-07 0.199D-07-0.488D-06 0.181D-05 0.339D-05-0.681D-05
 Coeff-Com:  0.335D-04-0.977D-04-0.458D-03-0.165D-02 0.269D-02 0.993D-02
 Coeff-Com: -0.614D-01-0.653D-02 0.106D+01
 Coeff:     -0.234D-07 0.199D-07-0.488D-06 0.181D-05 0.339D-05-0.681D-05
 Coeff:      0.335D-04-0.977D-04-0.458D-03-0.165D-02 0.269D-02 0.993D-02
 Coeff:     -0.614D-01-0.653D-02 0.106D+01
 Gap=     0.134 Goal=   None    Shift=    0.000
 Gap=     0.070 Goal=   None    Shift=    0.000
 RMSDP=2.36D-09 MaxDP=1.35D-07 DE= 5.91D-12 OVMax= 2.20D-07

 SCF Done:  E(UB3LYP) =  -872.144397070     A.U. after   15 cycles
            NFock= 15  Conv=0.24D-08     -V/T= 2.0016
 <Sx>= 0.0000 <Sy>= 0.0000 <Sz>= 0.5000 <S**2>= 0.7580 S= 0.5040
 <L.S>= 0.000000000000E+00
 KE= 8.707184617608D+02 PE=-2.407096980424D+03 EE= 4.896900382680D+02
 Annihilation of the first spin contaminant:
 S**2 before annihilation     0.7580,   after     0.7500
 Leave Link  502 at Wed Aug  3 22:46:47 2016, MaxMem=    33554432 cpu:       131.6
 (Enter /home/proyectos/fulerenos/M3C-v2.0/M3C-deps_CCC/g09-AM64L-G09RevC.01/l801.exe)
 DoSCS=F DFT=T ScalE2(SS,OS)=  1.000000  1.000000
 Range of M.O.s used for correlation:     1   172
 NBasis=   172 NAE=    22 NBE=    21 NFC=     0 NFV=     0
 NROrb=    172 NOA=    22 NOB=    21 NVA=   150 NVB=   151

 **** Warning!!: The largest alpha MO coefficient is  0.77122953D+02


 **** Warning!!: The largest beta MO coefficient is  0.76250245D+02


 **** Warning!!: The smallest beta delta epsilon is  0.69635556D-01

 Leave Link  801 at Wed Aug  3 22:46:47 2016, MaxMem=    33554432 cpu:         0.1
 (Enter /home/proyectos/fulerenos/M3C-v2.0/M3C-deps_CCC/g09-AM64L-G09RevC.01/l1101.exe)
 Using compressed storage, NAtomX=     4.
 Will process      5 centers per pass.
 Leave Link 1101 at Wed Aug  3 22:46:48 2016, MaxMem=    33554432 cpu:         1.3
 (Enter /home/proyectos/fulerenos/M3C-v2.0/M3C-deps_CCC/g09-AM64L-G09RevC.01/l1102.exe)
 Symmetrizing basis deriv contribution to polar:
 IMax=3 JMax=2 DiffMx= 0.00D+00
 Leave Link 1102 at Wed Aug  3 22:46:48 2016, MaxMem=    33554432 cpu:         0.2
 (Enter /home/proyectos/fulerenos/M3C-v2.0/M3C-deps_CCC/g09-AM64L-G09RevC.01/l1110.exe)
 Forming Gx(P) for the SCF density, NAtomX=     4.
 Integral derivatives from FoFJK, PRISM(SPDF).
 Do as many integral derivatives as possible in FoFJK.
 G2DrvN: MDV=      33554296.
 G2DrvN: will do     5 centers at a time, making    1 passes.
 Calling FoFCou, ICntrl=  3107 FMM=F I1Cent=   0 AccDes= 0.00D+00.
 FoFJK:  IHMeth= 1 ICntrl=    3107 DoSepK=F KAlg= 0 I1Cent=   0 FoldK=F
 IRaf=         0 NMat=   1 IRICut=       1 DoRegI=T DoRafI=F ISym2E= 1.
 FoFCou: FMM=F IPFlag=           0 FMFlag=      100000 FMFlg1=           0
         NFxFlg=           0 DoJE=F BraDBF=F KetDBF=F FulRan=T
         wScrn=  0.000000 ICntrl=    3107 IOpCl=  1 I1Cent=           0 NGrid=           0
         NMat0=    1 NMatS0=      1 NMatT0=    0 NMatD0=    1 NMtDS0=    0 NMtDT0=    0
 Petite list used in FoFCou.
 End of G2Drv F.D. properties file   721 does not exist.
 End of G2Drv F.D. properties file   722 does not exist.
 End of G2Drv F.D. properties file   788 does not exist.
 Leave Link 1110 at Wed Aug  3 22:47:02 2016, MaxMem=    33554432 cpu:        55.5
 (Enter /home/proyectos/fulerenos/M3C-v2.0/M3C-deps_CCC/g09-AM64L-G09RevC.01/l1002.exe)
 Minotr:  UHF open shell wavefunction.
          IDoAtm=1111
          Direct CPHF calculation.
          Differentiating once with respect to electric field.
                with respect to dipole field.
          Differentiating once with respect to nuclear coordinates.
          Using symmetry in CPHF.
          Requested convergence is 1.0D-08 RMS, and 1.0D-07 maximum.
          Secondary convergence is 1.0D-12 RMS, and 1.0D-12 maximum.
          NewPWx=T KeepS1=F KeepF1=F KeepIn=T MapXYZ=F SortEE=F KeepMc=T.
          MDV=      33554044 using IRadAn=       2.
 Generate precomputed XC quadrature information.
          Solving linear equations simultaneously, MaxMat=       0.
 FoFJK:  IHMeth= 1 ICntrl=       0 DoSepK=F KAlg= 0 I1Cent=   0 FoldK=F
 IRaf= 970000000 NMat=  12 IRICut=      30 DoRegI=T DoRafI=T ISym2E= 2.
 FoFCou: FMM=F IPFlag=           0 FMFlag=      100000 FMFlg1=           0
         NFxFlg=           0 DoJE=F BraDBF=F KetDBF=F FulRan=T
         wScrn=  0.000000 ICntrl=       0 IOpCl=  1 I1Cent=           0 NGrid=           0
         NMat0=   12 NMatS0=     12 NMatT0=    0 NMatD0=   12 NMtDS0=    0 NMtDT0=    0
 Integrals replicated using symmetry in FoFCou.
          There are    12 degrees of freedom in the 1st order CPHF.  IDoFFX=4 NUNeed=    12.
     12 vectors produced by pass  0 Test12= 5.39D-14 8.33D-09 XBig12= 3.45D+02 1.34D+01.
 AX will form    12 AO Fock derivatives at one time.
     12 vectors produced by pass  1 Test12= 5.39D-14 8.33D-09 XBig12= 1.29D+02 3.63D+00.
     12 vectors produced by pass  2 Test12= 5.39D-14 8.33D-09 XBig12= 2.96D+01 1.60D+00.
     12 vectors produced by pass  3 Test12= 5.39D-14 8.33D-09 XBig12= 8.30D-01 2.29D-01.
     12 vectors produced by pass  4 Test12= 5.39D-14 8.33D-09 XBig12= 1.23D-02 3.04D-02.
     12 vectors produced by pass  5 Test12= 5.39D-14 8.33D-09 XBig12= 1.43D-04 4.17D-03.
     12 vectors produced by pass  6 Test12= 5.39D-14 8.33D-09 XBig12= 1.48D-06 3.67D-04.
     12 vectors produced by pass  7 Test12= 5.39D-14 8.33D-09 XBig12= 2.13D-08 5.99D-05.
      9 vectors produced by pass  8 Test12= 5.39D-14 8.33D-09 XBig12= 2.69D-10 4.84D-06.
      4 vectors produced by pass  9 Test12= 5.39D-14 8.33D-09 XBig12= 1.41D-12 2.75D-07.
      2 vectors produced by pass 10 Test12= 5.39D-14 8.33D-09 XBig12= 1.89D-14 3.35D-08.
 InvSVY:  IOpt=1 It=  1 EMax= 5.33D-15
 Solved reduced A of dimension   111 with    12 vectors.
 FullF1:  Do perturbations    1 to    12.
 Isotropic polarizability for W=    0.000000       53.25 Bohr**3.
 End of Minotr F.D. properties file   721 does not exist.
 End of Minotr F.D. properties file   722 does not exist.
 End of Minotr F.D. properties file   788 does not exist.
 Leave Link 1002 at Wed Aug  3 22:48:23 2016, MaxMem=    33554432 cpu:       319.4
 (Enter /home/proyectos/fulerenos/M3C-v2.0/M3C-deps_CCC/g09-AM64L-G09RevC.01/l601.exe)
 Copying SCF densities to generalized density rwf, IOpCl= 1 IROHF=0.

 **********************************************************************

            Population analysis using the SCF density.

 **********************************************************************

 Orbital symmetries:
 Alpha Orbitals:
       Occupied  (A1) (B2) (A1) (A1) (A1) (B2) (A1) (B2) (B1) (A2)
                 (A1) (B2) (A1) (A1) (B2) (A1) (B1) (A1) (B2) (A2)
                 (A1) (B1)
       Virtual   (B2) (B2) (A1) (B1) (A1) (B2) (A1) (B1) (A1) (B2)
                 (A1) (B1) (A2) (B1) (B2) (A1) (B2) (B2) (A2) (A1)
                 (A1) (B1) (B2) (A1) (B1) (A1) (B2) (A1) (A2) (B2)
                 (B1) (B2) (A1) (A2) (A1) (B2) (A2) (A1) (A1) (A1)
                 (B2) (A1) (B1) (B1) (B2) (A1) (A2) (B2) (B1) (A1)
                 (B1) (B2) (B2) (A1) (A1) (B1) (A1) (A2) (B2) (A1)
                 (A2) (B2) (B1) (B2) (A1) (B2) (A1) (A1) (B1) (A1)
                 (B1) (B1) (A2) (B2) (A1) (A1) (A2) (A1) (A2) (A2)
                 (B2) (B1) (B2) (B1) (A1) (A1) (B2) (A2) (A1) (B2)
                 (A1) (A2) (B2) (A1) (B1) (B2) (B2) (A1) (B1) (B2)
                 (B1) (A1) (B2) (B1) (A2) (A1) (B2) (B1) (B2) (B1)
                 (B2) (A1) (A2) (A1) (A1) (A1) (B1) (A1) (B1) (B2)
                 (A2) (A1) (B2) (A2) (B1) (A1) (B2) (B2) (A2) (A1)
                 (A2) (A1) (A1) (B1) (B2) (B1) (B2) (A1) (B2) (A1)
                 (A2) (B1) (A1) (B2) (A1) (B2) (A1) (A1) (A1) (B2)
 Beta  Orbitals:
       Occupied  (A1) (B2) (A1) (A1) (A1) (B2) (A1) (B2) (A1) (B2)
                 (B1) (A2) (A1) (A1) (B2) (A1) (A1) (B1) (B2) (A1)
                 (B1)
       Virtual   (A2) (B2) (B2) (A1) (B1) (A1) (B2) (A1) (B1) (A1)
                 (B2) (A1) (B1) (A2) (B2) (B1) (A1) (B2) (B2) (A1)
                 (A1) (A2) (B1) (B2) (A1) (B1) (A1) (B2) (A1) (B2)
                 (A2) (B1) (A1) (B2) (A2) (A1) (B2) (A1) (A2) (A1)
                 (A1) (B2) (A1) (B1) (B1) (B2) (A1) (B2) (A2) (B1)
                 (A1) (B1) (B2) (B2) (A1) (A1) (B1) (A1) (A2) (B2)
                 (A1) (B2) (A2) (B1) (B2) (A1) (B2) (A1) (A1) (B1)
                 (A1) (B1) (A2) (B2) (B1) (A1) (A1) (A2) (A1) (A2)
                 (A2) (B2) (B1) (B2) (B1) (A1) (A1) (A2) (B2) (A1)
                 (B2) (A1) (B2) (A2) (A1) (B1) (B2) (B2) (A1) (B1)
                 (B2) (B1) (A1) (B2) (B1) (A2) (A1) (B2) (B1) (B2)
                 (B1) (B2) (A1) (A2) (A1) (A1) (A1) (B1) (A1) (B1)
                 (B2) (A2) (A1) (B2) (A2) (B1) (A1) (B2) (B2) (A2)
                 (A1) (A2) (A1) (A1) (B1) (B2) (B1) (B2) (A1) (B2)
                 (A1) (A2) (B1) (A1) (B2) (A1) (B2) (A1) (A1) (A1)
                 (B2)
 The electronic state is 2-A2.
 Alpha  occ. eigenvalues --  -89.22087 -89.22087 -10.48344 -10.48200  -8.29978
 Alpha  occ. eigenvalues --   -8.29970  -6.26104  -6.26061  -6.26043  -6.26040
 Alpha  occ. eigenvalues --   -6.25979  -6.25976  -1.20441  -0.98854  -0.95112
 Alpha  occ. eigenvalues --   -0.78753  -0.69169  -0.67684  -0.64512  -0.53757
 Alpha  occ. eigenvalues --   -0.52278  -0.51303
 Alpha virt. eigenvalues --   -0.37917  -0.32893  -0.26612  -0.23733  -0.17613
 Alpha virt. eigenvalues --   -0.14564  -0.11638  -0.11489  -0.11273  -0.10245
 Alpha virt. eigenvalues --   -0.09761  -0.08552  -0.06646  -0.05532  -0.05075
 Alpha virt. eigenvalues --   -0.04072  -0.01652  -0.01030  -0.00767  -0.00121
 Alpha virt. eigenvalues --    0.00392   0.01085   0.02963   0.04661   0.06775
 Alpha virt. eigenvalues --    0.07997   0.10208   0.10785   0.13072   0.13273
 Alpha virt. eigenvalues --    0.13633   0.15003   0.15014   0.18072   0.19882
 Alpha virt. eigenvalues --    0.22723   0.23995   0.24361   0.26896   0.30832
 Alpha virt. eigenvalues --    0.32255   0.34072   0.35302   0.38172   0.38902
 Alpha virt. eigenvalues --    0.39250   0.44862   0.45024   0.50274   0.52194
 Alpha virt. eigenvalues --    0.55140   0.61038   0.63535   0.63992   0.65761
 Alpha virt. eigenvalues --    0.66575   0.69174   0.70262   0.74007   0.74690
 Alpha virt. eigenvalues --    0.77311   0.77747   0.79212   0.80017   0.82123
 Alpha virt. eigenvalues --    0.94789   1.00526   1.10654   1.15946   1.18799
 Alpha virt. eigenvalues --    1.21285   1.27063   1.27333   1.27642   1.32687
 Alpha virt. eigenvalues --    1.33637   1.35017   1.39637   1.39745   1.48523
 Alpha virt. eigenvalues --    1.49718   1.49864   1.52359   1.53764   1.62447
 Alpha virt. eigenvalues --    1.66394   1.74634   1.74666   1.79830   1.83683
 Alpha virt. eigenvalues --    1.90484   1.95990   1.97118   2.03052   2.03452
 Alpha virt. eigenvalues --    2.17944   2.25813   2.35368   2.46969   2.50686
 Alpha virt. eigenvalues --    2.52219   2.59851   2.60608   2.62660   2.62678
 Alpha virt. eigenvalues --    2.72658   2.78977   2.83119   2.85417   3.03132
 Alpha virt. eigenvalues --    3.15345   3.25938   3.42348   3.45691   3.73842
 Alpha virt. eigenvalues --    3.97538   4.18650   4.25186   4.28186   4.29240
 Alpha virt. eigenvalues --    4.35508   4.42459   4.45097   4.51611   4.57569
 Alpha virt. eigenvalues --    5.08185   5.12018   5.21363   6.70931   6.71521
 Alpha virt. eigenvalues --    6.83617   6.86042   6.88549   6.92497   7.02938
 Alpha virt. eigenvalues --    7.24842   7.37727   7.62103   8.06287   8.15238
 Alpha virt. eigenvalues --   17.00041  17.01539  17.13679  17.25059  17.53098
 Alpha virt. eigenvalues --   17.59220  23.46190  25.52352 188.93879 188.96147
  Beta  occ. eigenvalues --  -89.21710 -89.21710 -10.48358 -10.48260  -8.29639
  Beta  occ. eigenvalues --   -8.29630  -6.25915  -6.25872  -6.25753  -6.25750
  Beta  occ. eigenvalues --   -6.24873  -6.24869  -1.19383  -0.98806  -0.92408
  Beta  occ. eigenvalues --   -0.77939  -0.66698  -0.65693  -0.63897  -0.52383
  Beta  occ. eigenvalues --   -0.50096
  Beta virt. eigenvalues --   -0.43132  -0.37613  -0.32212  -0.26094  -0.23380
  Beta virt. eigenvalues --   -0.17307  -0.13973  -0.11249  -0.11086  -0.10871
  Beta virt. eigenvalues --   -0.10012  -0.09687  -0.07176  -0.06257  -0.04879
  Beta virt. eigenvalues --   -0.04847  -0.04032  -0.01291  -0.00991  -0.00171
  Beta virt. eigenvalues --    0.00477   0.00919   0.01163   0.03028   0.05190
  Beta virt. eigenvalues --    0.07711   0.08062   0.10330   0.10889   0.13772
  Beta virt. eigenvalues --    0.14301   0.14544   0.15197   0.15758   0.18781
  Beta virt. eigenvalues --    0.20384   0.23363   0.24380   0.25264   0.26896
  Beta virt. eigenvalues --    0.31119   0.32428   0.34107   0.35236   0.38184
  Beta virt. eigenvalues --    0.38997   0.39294   0.45070   0.45332   0.50826
  Beta virt. eigenvalues --    0.52629   0.55426   0.61235   0.63866   0.64416
  Beta virt. eigenvalues --    0.65853   0.68097   0.69574   0.72145   0.74815
  Beta virt. eigenvalues --    0.75705   0.78916   0.79106   0.80586   0.80965
  Beta virt. eigenvalues --    0.83117   0.95431   1.00746   1.10670   1.16649
  Beta virt. eigenvalues --    1.19337   1.23450   1.27561   1.28378   1.28727
  Beta virt. eigenvalues --    1.33303   1.34297   1.37067   1.39848   1.41380
  Beta virt. eigenvalues --    1.50381   1.51066   1.51521   1.53836   1.55337
  Beta virt. eigenvalues --    1.62512   1.68298   1.75707   1.75873   1.80282
  Beta virt. eigenvalues --    1.84233   1.90543   1.97321   1.98194   2.03476
  Beta virt. eigenvalues --    2.03884   2.18344   2.25939   2.35406   2.46830
  Beta virt. eigenvalues --    2.50522   2.52248   2.59763   2.60540   2.62611
  Beta virt. eigenvalues --    2.62878   2.72664   2.79050   2.83086   2.85364
  Beta virt. eigenvalues --    3.03250   3.15280   3.25852   3.42447   3.45579
  Beta virt. eigenvalues --    3.73789   3.97546   4.19022   4.25833   4.28821
  Beta virt. eigenvalues --    4.29354   4.36372   4.42565   4.45692   4.52485
  Beta virt. eigenvalues --    4.58103   5.08706   5.12458   5.21885   6.70697
  Beta virt. eigenvalues --    6.71292   6.83587   6.85963   6.88485   6.92358
  Beta virt. eigenvalues --    7.02874   7.24796   7.37828   7.62376   8.06647
  Beta virt. eigenvalues --    8.15447  17.01576  17.03041  17.13978  17.25353
  Beta virt. eigenvalues --   17.53391  17.59516  23.46153  25.52304 188.94221
  Beta virt. eigenvalues --  188.96489
          Condensed to atoms (all electrons):
               1          2          3          4
     1  S   15.293336   0.468183  -0.204187   0.183454
     2  S    0.468183  15.293336  -0.204187   0.183454
     3  C   -0.204187  -0.204187   9.071680  -2.617584
     4  C    0.183454   0.183454  -2.617584   7.723380
          Atomic-Atomic Spin Densities.
               1          2          3          4
     1  S    0.620773  -0.057167  -0.041205   0.016983
     2  S   -0.057167   0.620773  -0.041205   0.016983
     3  C   -0.041205  -0.041205   0.014073  -0.019330
     4  C    0.016983   0.016983  -0.019330  -0.005737
 Mulliken charges and spin densities:
               1          2
     1  S    0.259213   0.539384
     2  S    0.259213   0.539384
     3  C   -0.045722  -0.087666
     4  C    0.527295   0.008898
 Sum of Mulliken charges =   1.00000   1.00000
 Mulliken charges and spin densities with hydrogens summed into heavy atoms:
               1          2
     1  S    0.259213   0.539384
     2  S    0.259213   0.539384
     3  C   -0.045722  -0.087666
     4  C    0.527295   0.008898
 APT charges:
               1
     1  S    0.367906
     2  S    0.367906
     3  C    0.390900
     4  C   -0.126712
 Sum of APT charges =   1.00000
 APT charges with hydrogens summed into heavy atoms:
               1
     1  S    0.367906
     2  S    0.367906
     3  C    0.390900
     4  C   -0.126712
 Electronic spatial extent (au):  <R**2>=            338.0106
 Charge=              1.0000 electrons
 Dipole moment (field-independent basis, Debye):
    X=              0.0000    Y=             -0.0000    Z=             -2.6755  Tot=              2.6755
 Quadrupole moment (field-independent basis, Debye-Ang):
   XX=            -33.9226   YY=            -23.9574   ZZ=            -32.0454
   XY=              0.0000   XZ=             -0.0000   YZ=              0.0000
 Traceless Quadrupole moment (field-independent basis, Debye-Ang):
   XX=             -3.9475   YY=              6.0178   ZZ=             -2.0703
   XY=              0.0000   XZ=             -0.0000   YZ=              0.0000
 Octapole moment (field-independent basis, Debye-Ang**2):
  XXX=             -0.0000  YYY=             -0.0000  ZZZ=            -26.4756  XYY=             -0.0000
  XXY=             -0.0000  XXZ=             -5.0526  XZZ=             -0.0000  YZZ=             -0.0000
  YYZ=             -6.7398  XYZ=             -0.0000
 Hexadecapole moment (field-independent basis, Debye-Ang**3):
 XXXX=            -39.1785 YYYY=           -142.4202 ZZZZ=           -303.9525 XXXY=             -0.0000
 XXXZ=              0.0000 YYYX=              0.0000 YYYZ=              0.0000 ZZZX=             -0.0000
 ZZZY=              0.0000 XXYY=            -33.4696 XXZZ=            -54.0826 YYZZ=            -63.8142
 XXYZ=              0.0000 YYXZ=             -0.0000 ZZXY=              0.0000
 N-N= 1.745440833248D+02 E-N=-2.407096982147D+03  KE= 8.707184617608D+02
 Symmetry A1   KE= 4.331847317738D+02
 Symmetry A2   KE= 3.750898106286D+01
 Symmetry B1   KE= 4.129946313606D+01
 Symmetry B2   KE= 3.587252857881D+02
  Exact polarizability:  33.100   0.000  60.848  -0.000   0.000  65.809
 Approx polarizability:  52.811   0.000 136.286  -0.000   0.000 131.361
                          Isotropic Fermi Contact Couplings
        Atom                 a.u.       MegaHertz       Gauss      10(-4) cm-1
     1  S(33)              0.02851       9.79398       3.49474       3.26692
     2  S(33)              0.02851       9.79398       3.49474       3.26692
     3  C(13)             -0.00072      -0.80482      -0.28718      -0.26846
     4  C(13)             -0.00143      -1.60711      -0.57346      -0.53607
 --------------------------------------------------------
       Center         ----  Spin Dipole Couplings  ----
                      3XX-RR        3YY-RR        3ZZ-RR
 --------------------------------------------------------
     1   Atom        2.804770     -1.473429     -1.331341
     2   Atom        2.804770     -1.473429     -1.331341
     3   Atom       -0.053530      0.019903      0.033626
     4   Atom        0.036425     -0.028459     -0.007966
 --------------------------------------------------------
                        XY            XZ            YZ
 --------------------------------------------------------
     1   Atom        0.000000     -0.000000     -0.018276
     2   Atom        0.000000      0.000000      0.018276
     3   Atom        0.000000     -0.000000      0.000000
     4   Atom       -0.000000     -0.000000     -0.000000
 --------------------------------------------------------


 ---------------------------------------------------------------------------------
              Anisotropic Spin Dipole Couplings in Principal Axis System
 ---------------------------------------------------------------------------------

       Atom             a.u.   MegaHertz   Gauss  10(-4) cm-1        Axes

              Baa    -1.4757   -60.504   -21.589   -20.182  0.0000  0.9921  0.1256
     1 S(33)  Bbb    -1.3290   -54.489   -19.443   -18.176 -0.0000 -0.1256  0.9921
              Bcc     2.8048   114.993    41.032    38.358  1.0000 -0.0000  0.0000
 
              Baa    -1.4757   -60.504   -21.589   -20.182  0.0000  0.9921 -0.1256
     2 S(33)  Bbb    -1.3290   -54.489   -19.443   -18.176  0.0000  0.1256  0.9921
              Bcc     2.8048   114.993    41.032    38.358  1.0000 -0.0000  0.0000
 
              Baa    -0.0535    -7.183    -2.563    -2.396  1.0000 -0.0000  0.0000
     3 C(13)  Bbb     0.0199     2.671     0.953     0.891  0.0000  1.0000 -0.0000
              Bcc     0.0336     4.512     1.610     1.505 -0.0000  0.0000  1.0000
 
              Baa    -0.0285    -3.819    -1.363    -1.274  0.0000  1.0000  0.0000
     4 C(13)  Bbb    -0.0080    -1.069    -0.381    -0.357  0.0000 -0.0000  1.0000
              Bcc     0.0364     4.888     1.744     1.630  1.0000 -0.0000 -0.0000
 

 ---------------------------------------------------------------------------------

 No NMR shielding tensors so no spin-rotation constants.
 Leave Link  601 at Wed Aug  3 22:48:24 2016, MaxMem=    33554432 cpu:         1.9
 (Enter /home/proyectos/fulerenos/M3C-v2.0/M3C-deps_CCC/g09-AM64L-G09RevC.01/l701.exe)
 Compute integral second derivatives.
 ... and contract with generalized density number  0.
 Leave Link  701 at Wed Aug  3 22:48:24 2016, MaxMem=    33554432 cpu:         1.5
 (Enter /home/proyectos/fulerenos/M3C-v2.0/M3C-deps_CCC/g09-AM64L-G09RevC.01/l702.exe)
 L702 exits ... SP integral derivatives will be done elsewhere.
 Leave Link  702 at Wed Aug  3 22:48:24 2016, MaxMem=    33554432 cpu:         0.1
 (Enter /home/proyectos/fulerenos/M3C-v2.0/M3C-deps_CCC/g09-AM64L-G09RevC.01/l703.exe)
 Compute integral second derivatives, UseDBF=F ICtDFT=           0.
 Integral derivatives from FoFJK, PRISM(SPDF).
 Calling FoFJK, ICntrl=    100127 FMM=F ISym2X=1 I1Cent= 0 IOpClX= 1 NMat=1 NMatS=1 NMatT=0.
 FoFJK:  IHMeth= 1 ICntrl=  100127 DoSepK=F KAlg= 0 I1Cent=   0 FoldK=F
 IRaf=         0 NMat=   1 IRICut=       1 DoRegI=T DoRafI=F ISym2E= 1.
 FoFCou: FMM=F IPFlag=           0 FMFlag=      100000 FMFlg1=         800
         NFxFlg=           0 DoJE=F BraDBF=F KetDBF=F FulRan=T
         wScrn=  0.000000 ICntrl=  100127 IOpCl=  1 I1Cent=           0 NGrid=           0
         NMat0=    1 NMatS0=      1 NMatT0=    0 NMatD0=    1 NMtDS0=    0 NMtDT0=    0
 Petite list used in FoFCou.
 Leave Link  703 at Wed Aug  3 22:48:49 2016, MaxMem=    33554432 cpu:       100.6
 (Enter /home/proyectos/fulerenos/M3C-v2.0/M3C-deps_CCC/g09-AM64L-G09RevC.01/l716.exe)
 Dipole        = 4.31500237D-17 1.55385021D-14-1.05263022D+00
 Polarizability= 3.31001069D+01 1.39497227D-06 6.08476485D+01
                -3.84578328D-08 7.27027298D-07 6.58092331D+01
 Full mass-weighted force constant matrix:
 Low frequencies ---  -12.9903  -10.9889   -8.2523   -0.0044   -0.0041   -0.0034
 Low frequencies ---  130.5811  276.6555  426.0645
 Diagonal vibrational polarizability:
        0.2849649      10.1261459       2.3432525
 Harmonic frequencies (cm**-1), IR intensities (KM/Mole), Raman scattering
 activities (A**4/AMU), depolarization ratios for plane and unpolarized
 incident light, reduced masses (AMU), force constants (mDyne/A),
 and normal coordinates:
                      1                      2                      3
                     B2                     B1                     B2
 Frequencies --    130.5772               276.6550               426.0644
 Red. masses --     15.8453                12.2468                15.0592
 Frc consts  --      0.1592                 0.5523                 1.6107
 IR Inten    --      2.5751                 0.8105                40.8901
  Atom  AN      X      Y      Z        X      Y      Z        X      Y      Z
     1  16    -0.00  -0.07  -0.30    -0.08   0.00   0.00    -0.00  -0.16  -0.22
     2  16    -0.00  -0.07   0.30    -0.08   0.00  -0.00    -0.00  -0.16   0.22
     3   6    -0.00   0.80   0.00    -0.46  -0.00   0.00    -0.00  -0.05  -0.00
     4   6     0.00  -0.41   0.00     0.88   0.00   0.00     0.00   0.92  -0.00
                      4                      5                      6
                     A1                     A1                     A1
 Frequencies --    546.7408               708.8809              1684.3459
 Red. masses --     20.1785                19.4728                12.0734
 Frc consts  --      3.5539                 5.7653                20.1810
 IR Inten    --      0.0850                 3.3235               227.4589
  Atom  AN      X      Y      Z        X      Y      Z        X      Y      Z
     1  16     0.00   0.40  -0.20     0.00  -0.38  -0.20     0.00  -0.03  -0.03
     2  16     0.00  -0.40  -0.20     0.00   0.38  -0.20     0.00   0.03  -0.03
     3   6     0.00  -0.00   0.60     0.00  -0.00   0.68     0.00  -0.00  -0.61
     4   6    -0.00   0.00   0.48    -0.00   0.00   0.41    -0.00   0.00   0.79

 -------------------
 - Thermochemistry -
 -------------------
 Temperature   298.150 Kelvin.  Pressure   1.00000 Atm.
 Atom     1 has atomic number 16 and mass  31.97207
 Atom     2 has atomic number 16 and mass  31.97207
 Atom     3 has atomic number  6 and mass  12.00000
 Atom     4 has atomic number  6 and mass  12.00000
 Molecular mass:    87.94414 amu.
 Principal axes and moments of inertia in atomic units:
                           1         2         3
     Eigenvalues --   227.40028 314.64152 542.04180
           X           -0.00000  -0.00000   1.00000
           Y           -0.00000   1.00000   0.00000
           Z            1.00000   0.00000   0.00000
 This molecule is an asymmetric top.
 Rotational symmetry number  2.
 Rotational temperatures (Kelvin)      0.38089     0.27528     0.15979
 Rotational constants (GHZ):           7.93641     5.73586     3.32952
 Zero-point vibrational energy      22569.1 (Joules/Mol)
                                    5.39415 (Kcal/Mol)
 Warning -- explicit consideration of   4 degrees of freedom as
           vibrations may cause significant error
 Vibrational temperatures:    187.87   398.04   613.01   786.64  1019.92
          (Kelvin)           2423.40
 
 Zero-point correction=                           0.008596 (Hartree/Particle)
 Thermal correction to Energy=                    0.013145
 Thermal correction to Enthalpy=                  0.014089
 Thermal correction to Gibbs Free Energy=        -0.019510
 Sum of electronic and zero-point Energies=           -872.135801
 Sum of electronic and thermal Energies=              -872.131252
 Sum of electronic and thermal Enthalpies=            -872.130308
 Sum of electronic and thermal Free Energies=         -872.163907
 
                     E (Thermal)             CV                S
                      KCal/Mol        Cal/Mol-Kelvin    Cal/Mol-Kelvin
 Total                    8.248             13.012             70.715
 Electronic               0.000              0.000              1.377
 Translational            0.889              2.981             39.335
 Rotational               0.889              2.981             23.787
 Vibrational              6.471              7.051              6.215
 Vibration     1          0.612              1.923              2.938
 Vibration     2          0.678              1.717              1.554
 Vibration     3          0.788              1.414              0.872
 Vibration     4          0.902              1.147              0.551
                       Q            Log10(Q)             Ln(Q)
 Total Bot       0.942078D+09          8.974087         20.663599
 Total V=0       0.847272D+13         12.928023         29.767873
 Vib (Bot)       0.412245D-03         -3.384845         -7.793894
 Vib (Bot)    1  0.156104D+01          0.193413          0.445350
 Vib (Bot)    2  0.696172D+00         -0.157283         -0.362158
 Vib (Bot)    3  0.410202D+00         -0.387002         -0.891106
 Vib (Bot)    4  0.287930D+00         -0.540713         -1.245038
 Vib (V=0)       0.370759D+01          0.569091          1.310381
 Vib (V=0)    1  0.213916D+01          0.330243          0.760412
 Vib (V=0)    2  0.135712D+01          0.132618          0.305365
 Vib (V=0)    3  0.114673D+01          0.059463          0.136918
 Vib (V=0)    4  0.107698D+01          0.032207          0.074159
 Electronic      0.200000D+01          0.301030          0.693147
 Translational   0.324165D+08          7.510766         17.294177
 Rotational      0.352481D+05          4.547136         10.470168
 
                                                              b3lyp opt
                                                             IR Spectrum
 
     1                                                                                                                               
     6                                                                         7           5        4           2          1         
     8                                                                         0           4        2           7          3         
     4                                                                         9           7        6           7          1         
 
     X                                                                         X           X        X           X          X         
     X                                                                                              X                                
     X                                                                                              X                                
     X                                                                                              X                                
     X                                                                                                                               
     X                                                                                                                               
     X                                                                                                                               
     X                                                                                                                               
     X                                                                                                                               
     X                                                                                                                               
     X                                                                                                                               
     X                                                                                                                               
     X                                                                                                                               
     X                                                                                                                               
     X                                                                                                                               
     X                                                                                                                               
     X                                                                                                                               
     X                                                                                                                               
     X                                                                                                                               
     X                                                                                                                               
 
 ***** Axes restored to original set *****
 -------------------------------------------------------------------
 Center     Atomic                   Forces (Hartrees/Bohr)
 Number     Number              X              Y              Z
 -------------------------------------------------------------------
      1       16           0.000116658   -0.000039879   -0.000013399
      2       16          -0.000098460   -0.000073810    0.000015388
      3        6          -0.000002917    0.000018222   -0.000000319
      4        6          -0.000015282    0.000095467   -0.000001670
 -------------------------------------------------------------------
 Cartesian Forces:  Max     0.000116658 RMS     0.000058058
 Z-matrix is all fixed cartesians, so copy forces.
 Force constants in Cartesian coordinates: 
                1             2             3             4             5 
      1  0.267114D+00
      2 -0.303292D-01  0.891077D-01
      3 -0.328161D-01  0.547909D-03  0.556968D-02
      4 -0.221682D+00 -0.222670D-01  0.293801D-01  0.232127D+00
      5 -0.632564D-01  0.419705D-01  0.655168D-02  0.761951D-01  0.123584D+00
      6  0.309359D-01  0.131194D-02 -0.246272D-02 -0.323867D-01 -0.143778D-01
      7  0.143051D-02  0.302661D-02  0.123961D-03 -0.561207D-03 -0.813550D-03
      8 -0.687760D-02 -0.724273D-02  0.127928D-02  0.909066D-02 -0.528014D-02
      9  0.499876D-03  0.132117D-04  0.323447D-02  0.148403D-03  0.429614D-03
     10 -0.468632D-01  0.495696D-01  0.331200D-02 -0.988397D-02 -0.121252D-01
     11  0.100463D+00 -0.123835D+00 -0.837887D-02 -0.630188D-01 -0.160274D+00
     12  0.138033D-02 -0.187306D-02 -0.634144D-02  0.285820D-02  0.739650D-02
                6             7             8             9            10 
      6  0.608130D-02
      7  0.524318D-03  0.180416D-01
      8 -0.836455D-03 -0.878552D-01  0.552859D+00
      9  0.326360D-02  0.195851D-02 -0.947696D-02  0.738651D-02
     10  0.926528D-03 -0.189109D-01  0.856421D-01 -0.260680D-02  0.756581D-01
     11  0.139023D-01  0.856421D-01 -0.540337D+00  0.903413D-02 -0.123087D+00
     12 -0.688218D-02 -0.260680D-02  0.903413D-02 -0.138846D-01 -0.163172D-02
               11            12 
     11  0.824446D+00
     12 -0.145576D-01  0.271083D-01
 Leave Link  716 at Wed Aug  3 22:48:49 2016, MaxMem=    33554432 cpu:         0.1
 (Enter /home/proyectos/fulerenos/M3C-v2.0/M3C-deps_CCC/g09-AM64L-G09RevC.01/l103.exe)

 GradGradGradGradGradGradGradGradGradGradGradGradGradGradGradGradGradGrad
 Berny optimization.
 Search for a local minimum.
 Step number   1 out of a maximum of    2
 All quantities printed in internal units (Hartrees-Bohrs-Radians)
 Second derivative matrix not updated -- analytic derivatives used.
 The second derivative matrix:
                          X1        Y1        Z1        X2        Y2
           X1           0.26711
           Y1          -0.03033   0.08911
           Z1          -0.03282   0.00055   0.00557
           X2          -0.22168  -0.02227   0.02938   0.23213
           Y2          -0.06326   0.04197   0.00655   0.07620   0.12358
           Z2           0.03094   0.00131  -0.00246  -0.03239  -0.01438
           X3           0.00143   0.00303   0.00012  -0.00056  -0.00081
           Y3          -0.00688  -0.00724   0.00128   0.00909  -0.00528
           Z3           0.00050   0.00001   0.00323   0.00015   0.00043
           X4          -0.04686   0.04957   0.00331  -0.00988  -0.01213
           Y4           0.10046  -0.12384  -0.00838  -0.06302  -0.16027
           Z4           0.00138  -0.00187  -0.00634   0.00286   0.00740
                          Z2        X3        Y3        Z3        X4
           Z2           0.00608
           X3           0.00052   0.01804
           Y3          -0.00084  -0.08786   0.55286
           Z3           0.00326   0.00196  -0.00948   0.00739
           X4           0.00093  -0.01891   0.08564  -0.00261   0.07566
           Y4           0.01390   0.08564  -0.54034   0.00903  -0.12309
           Z4          -0.00688  -0.00261   0.00903  -0.01388  -0.00163
                          Y4        Z4
           Y4           0.82445
           Z4          -0.01456   0.02711
 ITU=  0
     Eigenvalues ---    0.01085   0.03618   0.12481   0.22115   0.50410
     Eigenvalues ---    1.31129
 Angle between quadratic step and forces=  25.45 degrees.
 ClnCor:  largest displacement from symmetrization is 3.58D-11 for atom     3.
 Linear search not attempted -- first point.
 ClnCor:  largest displacement from symmetrization is 3.58D-15 for atom     3.
 B after Tr=     0.000006   -0.000036    0.000001
         Rot=    1.000000   -0.000000    0.000000    0.000000 Ang=   0.00 deg.
 Variable       Old X    -DE/DX   Delta X   Delta X   Delta X     New X
                                 (Linear)    (Quad)   (Total)
    X1       -2.09103   0.00012   0.00000   0.00019   0.00020  -2.09083
    Y1        0.81502  -0.00004   0.00000  -0.00009  -0.00012   0.81490
    Z1        0.05486  -0.00001   0.00000  -0.00002  -0.00002   0.05484
    X2        1.60238  -0.00010   0.00000  -0.00016  -0.00015   1.60222
    Y2        1.39761  -0.00007   0.00000  -0.00014  -0.00018   1.39743
    Z2       -0.43938   0.00002   0.00000   0.00003   0.00003  -0.43936
    X3        0.58259  -0.00000   0.00000  -0.00003  -0.00003   0.58256
    Y3       -4.05944   0.00002   0.00000   0.00020   0.00016  -4.05927
    Z3       -0.10190  -0.00000   0.00000  -0.00000  -0.00000  -0.10190
    X4        0.18909  -0.00002   0.00000  -0.00003  -0.00002   0.18906
    Y4       -1.60123   0.00010   0.00000   0.00017   0.00013  -1.60109
    Z4       -0.14490  -0.00000   0.00000  -0.00000  -0.00000  -0.14490
         Item               Value     Threshold  Converged?
 Maximum Force            0.000117     0.000450     YES
 RMS     Force            0.000058     0.000300     YES
 Maximum Displacement     0.000200     0.001800     YES
 RMS     Displacement     0.000114     0.001200     YES
 Predicted change in Energy=-3.653089D-08
 Optimization completed.
    -- Stationary point found.
 GradGradGradGradGradGradGradGradGradGradGradGradGradGradGradGradGradGrad

 Leave Link  103 at Wed Aug  3 22:48:49 2016, MaxMem=    33554432 cpu:         0.1
 (Enter /home/proyectos/fulerenos/M3C-v2.0/M3C-deps_CCC/g09-AM64L-G09RevC.01/l9999.exe)
 1\1\GINC-DEPAZ27\Freq\UB3LYP\6-311++G(3df,2p)\C2S2(1+,2)\NAGUIRRE\03-A
 ug-2016\0\\#p b3lyp/6-311++G(3df,2p) freq\\b3lyp opt\\1,2\S,-1.1065260
 11,0.431292114,0.0290328769\S,0.8479406126,0.7395809745,-0.2325105079\
 C,0.3082917932,-2.1481623727,-0.0539219285\C,0.1000599335,-0.847333855
 9,-0.0766763896\\Version=EM64L-G09RevE.01\State=2-A2\HF=-872.1443971\S
 2=0.757975\S2-1=0.\S2A=0.750042\RMSD=2.358e-09\RMSF=5.806e-05\ZeroPoin
 t=0.0085961\Thermal=0.0131446\Dipole=-0.1663581,1.0392425,-0.0181787\D
 ipoleDeriv=0.1364753,-0.023365,0.0474471,0.3229733,0.4710772,-0.040161
 5,0.0343018,0.0041114,0.4961663,0.2575333,-0.0456047,0.0328162,-0.3919
 434,0.3517895,0.0557549,0.0459615,0.0114819,0.4943961,-0.0795657,-0.21
 62359,0.0203735,-0.2162356,1.2385476,-0.018775,0.0203735,-0.018775,0.0
 137168,0.6855571,0.2852056,-0.1006368,0.2852058,-1.0614144,0.0031817,-
 0.1006368,0.0031817,-0.0042792\Polar=60.5260753,-0.9064337,65.6445543,
 -3.4714983,-1.1193563,33.5863589\PG=C02V [C2(C1C1),SGV(S2)]\NImag=0\\0
 .26711437,-0.03032924,0.08910772,-0.03281607,0.00054791,0.00556968,-0.
 22168171,-0.02226697,0.02938011,0.23212689,-0.06325639,0.04197048,0.00
 655168,0.07619513,0.12358358,0.03093586,0.00131194,-0.00246272,-0.0323
 8671,-0.01437779,0.00608130,0.00143051,0.00302661,0.00012396,-0.000561
 21,-0.00081355,0.00052432,0.01804164,-0.00687760,-0.00724273,0.0012792
 8,0.00909066,-0.00528014,-0.00083645,-0.08785518,0.55285940,0.00049988
 ,0.00001321,0.00323447,0.00014840,0.00042961,0.00326360,0.00195851,-0.
 00947696,0.00738651,-0.04686317,0.04956961,0.00331200,-0.00988397,-0.0
 1212519,0.00092653,-0.01891094,0.08564213,-0.00260680,0.07565808,0.100
 46324,-0.12383548,-0.00837887,-0.06301882,-0.16027393,0.01390230,0.085
 64213,-0.54033654,0.00903413,-0.12308655,0.82444594,0.00138033,-0.0018
 7306,-0.00634144,0.00285820,0.00739650,-0.00688218,-0.00260680,0.00903
 413,-0.01388464,-0.00163172,-0.01455756,0.02710832\\-0.00011666,0.0000
 3988,0.00001340,0.00009846,0.00007381,-0.00001539,0.00000292,-0.000018
 22,0.00000032,0.00001528,-0.00009547,0.00000167\\\@


 I (ERNEST RUTHERFORD) CAME INTO THE ROOM, WHICH WAS HALF DARK, AND PRESENTLY
 SPOTTED LORD KELVIN IN THE AUDIENCE AND REALIZED I WAS IN TROUBLE AT
 THE LAST PART OF MY SPEECH DEALING THE AGE OF THE EARTH, WHERE MY VIEWS
 CONFLICTED WITH HIS.  TO MY RELIEF KELVIN FELL FAST ASLEEP, BUT AS I CAME
 TO THE IMPORTANT POINT, I SAW THE OLD BIRD SIT UP AND COCK A BALEFUL GLANCE
 AT ME! THEN A SUDDEN INSPIRATION CAME AND I SAID LORD KELVIN HAD LIMITED
 THE AGE OF THE EARTH PROVIDED NO NEW SOURCE WAS DISCOVERED. THAT
 PROPHETIC UTTERANCE REFERS TO WHAT WE ARE NOW CONSIDERING TONIGHT, RADIUM!
 BEHOLD!  THE OLD BOY BEAMED UPON ME.
 Job cpu time:       0 days  0 hours 10 minutes 16.6 seconds.
 File lengths (MBytes):  RWF=     30 Int=      0 D2E=      0 Chk=      3 Scr=      1
 Normal termination of Gaussian 09 at Wed Aug  3 22:48:49 2016.
