 Entering Gaussian System, Link 0=/home/proyectos/fulerenos/M3C-v2.0/M3C-deps_CCC/g09-AM64L-G09RevC.01/g09
 Initial command:
 /home/proyectos/fulerenos/M3C-v2.0/M3C-deps_CCC/g09-AM64L-G09RevC.01/l1.exe "/scratch/naguirre/gaussian/Gau-23728.inp" -scrdir="/scratch/naguirre/gaussian/"
 Entering Link 1 = /home/proyectos/fulerenos/M3C-v2.0/M3C-deps_CCC/g09-AM64L-G09RevC.01/l1.exe PID=     23735.
  
 Copyright (c) 1988,1990,1992,1993,1995,1998,2003,2009,2015,
            Gaussian, Inc.  All Rights Reserved.
  
 This is part of the Gaussian(R) 09 program.  It is based on
 the Gaussian(R) 03 system (copyright 2003, Gaussian, Inc.),
 the Gaussian(R) 98 system (copyright 1998, Gaussian, Inc.),
 the Gaussian(R) 94 system (copyright 1995, Gaussian, Inc.),
 the Gaussian 92(TM) system (copyright 1992, Gaussian, Inc.),
 the Gaussian 90(TM) system (copyright 1990, Gaussian, Inc.),
 the Gaussian 88(TM) system (copyright 1988, Gaussian, Inc.),
 the Gaussian 86(TM) system (copyright 1986, Carnegie Mellon
 University), and the Gaussian 82(TM) system (copyright 1983,
 Carnegie Mellon University). Gaussian is a federally registered
 trademark of Gaussian, Inc.
  
 This software contains proprietary and confidential information,
 including trade secrets, belonging to Gaussian, Inc.
  
 This software is provided under written license and may be
 used, copied, transmitted, or stored only in accord with that
 written license.
  
 The following legend is applicable only to US Government
 contracts under FAR:
  
                    RESTRICTED RIGHTS LEGEND
  
 Use, reproduction and disclosure by the US Government is
 subject to restrictions as set forth in subparagraphs (a)
 and (c) of the Commercial Computer Software - Restricted
 Rights clause in FAR 52.227-19.
  
 Gaussian, Inc.
 340 Quinnipiac St., Bldg. 40, Wallingford CT 06492
  
  
 ---------------------------------------------------------------
 Warning -- This program may not be used in any manner that
 competes with the business of Gaussian, Inc. or will provide
 assistance to any competitor of Gaussian, Inc.  The licensee
 of this program is prohibited from giving any competitor of
 Gaussian, Inc. access to this program.  By using this program,
 the user acknowledges that Gaussian, Inc. is engaged in the
 business of creating and licensing software in the field of
 computational chemistry and represents and warrants to the
 licensee that it is not a competitor of Gaussian, Inc. and that
 it will not use this program in any manner prohibited above.
 ---------------------------------------------------------------
  

 Cite this work as:
 Gaussian 09, Revision E.01,
 M. J. Frisch, G. W. Trucks, H. B. Schlegel, G. E. Scuseria, 
 M. A. Robb, J. R. Cheeseman, G. Scalmani, V. Barone, B. Mennucci, 
 G. A. Petersson, H. Nakatsuji, M. Caricato, X. Li, H. P. Hratchian, 
 A. F. Izmaylov, J. Bloino, G. Zheng, J. L. Sonnenberg, M. Hada, 
 M. Ehara, K. Toyota, R. Fukuda, J. Hasegawa, M. Ishida, T. Nakajima, 
 Y. Honda, O. Kitao, H. Nakai, T. Vreven, J. A. Montgomery, Jr., 
 J. E. Peralta, F. Ogliaro, M. Bearpark, J. J. Heyd, E. Brothers, 
 K. N. Kudin, V. N. Staroverov, T. Keith, R. Kobayashi, J. Normand, 
 K. Raghavachari, A. Rendell, J. C. Burant, S. S. Iyengar, J. Tomasi, 
 M. Cossi, N. Rega, J. M. Millam, M. Klene, J. E. Knox, J. B. Cross, 
 V. Bakken, C. Adamo, J. Jaramillo, R. Gomperts, R. E. Stratmann, 
 O. Yazyev, A. J. Austin, R. Cammi, C. Pomelli, J. W. Ochterski, 
 R. L. Martin, K. Morokuma, V. G. Zakrzewski, G. A. Voth, 
 P. Salvador, J. J. Dannenberg, S. Dapprich, A. D. Daniels, 
 O. Farkas, J. B. Foresman, J. V. Ortiz, J. Cioslowski, 
 and D. J. Fox, Gaussian, Inc., Wallingford CT, 2013.
 
 ******************************************
 Gaussian 09:  EM64L-G09RevE.01 30-Nov-2015
                 3-Aug-2016 
 ******************************************
 %NProcShared=4
 Will use up to    4 processors via shared memory.
 ------------------------------
 #p b3lyp/6-311++G(3df,2p) freq
 ------------------------------
 1/10=4,30=1,38=1/1,3;
 2/12=2,17=6,18=5,40=1/2;
 3/5=4,6=6,7=1216,11=2,16=1,25=1,30=1,71=2,74=-5,140=1/1,2,3;
 4//1;
 5/5=2,38=5,98=1/2;
 8/6=4,10=90,11=11/1;
 11/6=1,8=1,9=11,15=111,16=1/1,2,10;
 10/6=1/2;
 6/7=2,8=2,9=2,10=2,18=1,28=1/1;
 7/8=1,10=1,25=1/1,2,3,16;
 1/10=4,30=1/3;
 99//99;
 Leave Link    1 at Wed Aug  3 22:56:49 2016, MaxMem=           0 cpu:         0.3
 (Enter /home/proyectos/fulerenos/M3C-v2.0/M3C-deps_CCC/g09-AM64L-G09RevC.01/l101.exe)
 ---------
 b3lyp opt
 ---------
 Symbolic Z-matrix:
 Charge =  2 Multiplicity = 1
 S                     0.96161  -0.30902   0. 
 S                    -0.96724  -0.1835    0. 
 C                     0.09993   1.33266   0. 
 
 NAtoms=      3 NQM=        3 NQMF=       0 NMMI=      0 NMMIF=      0
                NMic=       0 NMicF=      0.
                    Isotopes and Nuclear Properties:
 (Nuclear quadrupole moments (NQMom) in fm**2, nuclear magnetic moments (NMagM)
  in nuclear magnetons)

  Atom         1           2           3
 IAtWgt=          32          32          12
 AtmWgt=  31.9720718  31.9720718  12.0000000
 NucSpn=           0           0           0
 AtZEff=   0.0000000   0.0000000   0.0000000
 NQMom=    0.0000000   0.0000000   0.0000000
 NMagM=    0.0000000   0.0000000   0.0000000
 AtZNuc=  16.0000000  16.0000000   6.0000000
 Leave Link  101 at Wed Aug  3 22:56:49 2016, MaxMem=    33554432 cpu:         0.2
 (Enter /home/proyectos/fulerenos/M3C-v2.0/M3C-deps_CCC/g09-AM64L-G09RevC.01/l103.exe)

 GradGradGradGradGradGradGradGradGradGradGradGradGradGradGradGradGradGrad
 Berny optimization.
 Initialization pass.
 Trust Radius=3.00D-01 FncErr=1.00D-07 GrdErr=1.00D-07
 Number of steps in this run=      2 maximum allowed number of steps=      2.
 GradGradGradGradGradGradGradGradGradGradGradGradGradGradGradGradGradGrad

 Leave Link  103 at Wed Aug  3 22:56:49 2016, MaxMem=    33554432 cpu:         0.1
 (Enter /home/proyectos/fulerenos/M3C-v2.0/M3C-deps_CCC/g09-AM64L-G09RevC.01/l202.exe)
                          Input orientation:                          
 ---------------------------------------------------------------------
 Center     Atomic      Atomic             Coordinates (Angstroms)
 Number     Number       Type             X           Y           Z
 ---------------------------------------------------------------------
      1         16           0        0.961610   -0.309016    0.000000
      2         16           0       -0.967241   -0.183502    0.000000
      3          6           0        0.099928    1.332661    0.000000
 ---------------------------------------------------------------------
                    Distance matrix (angstroms):
                    1          2          3
     1  S    0.000000
     2  S    1.932931   0.000000
     3  C    1.854077   1.854077   0.000000
 Stoichiometry    CS2(2+)
 Framework group  C2V[C2(C),SGV(S2)]
 Deg. of freedom     2
 Full point group                 C2V     NOp   4
 Largest Abelian subgroup         C2V     NOp   4
 Largest concise Abelian subgroup C2      NOp   2
                         Standard orientation:                         
 ---------------------------------------------------------------------
 Center     Atomic      Atomic             Coordinates (Angstroms)
 Number     Number       Type             X           Y           Z
 ---------------------------------------------------------------------
      1         16           0        0.000000    0.966465   -0.249830
      2         16           0       -0.000000   -0.966465   -0.249830
      3          6           0       -0.000000    0.000000    1.332429
 ---------------------------------------------------------------------
 Rotational constants (GHZ):     19.9790177      8.4614314      5.9440372
 Leave Link  202 at Wed Aug  3 22:56:49 2016, MaxMem=    33554432 cpu:         0.0
 (Enter /home/proyectos/fulerenos/M3C-v2.0/M3C-deps_CCC/g09-AM64L-G09RevC.01/l301.exe)
 Standard basis: 6-311++G(3df,2p) (5D, 7F)
 Ernie: Thresh=  0.10000D-02 Tol=  0.10000D-05 Strict=F.
 There are    58 symmetry adapted cartesian basis functions of A1  symmetry.
 There are    20 symmetry adapted cartesian basis functions of A2  symmetry.
 There are    26 symmetry adapted cartesian basis functions of B1  symmetry.
 There are    47 symmetry adapted cartesian basis functions of B2  symmetry.
 There are    49 symmetry adapted basis functions of A1  symmetry.
 There are    19 symmetry adapted basis functions of A2  symmetry.
 There are    24 symmetry adapted basis functions of B1  symmetry.
 There are    41 symmetry adapted basis functions of B2  symmetry.
   133 basis functions,   202 primitive gaussians,   151 cartesian basis functions
    18 alpha electrons       18 beta electrons
       nuclear repulsion energy       124.8842169210 Hartrees.
 IExCor=  402 DFT=T Ex+Corr=B3LYP ExCW=0 ScaHFX=  0.200000
 ScaDFX=  0.800000  0.720000  1.000000  0.810000 ScalE2=  1.000000  1.000000
 IRadAn=      0 IRanWt=     -1 IRanGd=            0 ICorTp=0 IEmpDi=  4
 NAtoms=    3 NActive=    3 NUniq=    2 SFac= 2.25D+00 NAtFMM=   60 NAOKFM=F Big=F
 Integral buffers will be    131072 words long.
 Raffenetti 2 integral format.
 Two-electron integral symmetry is turned on.
 Leave Link  301 at Wed Aug  3 22:56:49 2016, MaxMem=    33554432 cpu:         0.2
 (Enter /home/proyectos/fulerenos/M3C-v2.0/M3C-deps_CCC/g09-AM64L-G09RevC.01/l302.exe)
 NPDir=0 NMtPBC=     1 NCelOv=     1 NCel=       1 NClECP=     1 NCelD=      1
         NCelK=      1 NCelE2=     1 NClLst=     1 CellRange=     0.0.
 One-electron integrals computed using PRISM.
 One-electron integral symmetry used in STVInt
 NBasis=   133 RedAO= T EigKep=  5.27D-04  NBF=    49    19    24    41
 NBsUse=   133 1.00D-06 EigRej= -1.00D+00 NBFU=    49    19    24    41
 Precomputing XC quadrature grid using
 IXCGrd= 4 IRadAn=           0 IRanWt=          -1 IRanGd=           0 AccXCQ= 0.00D+00.
 Generated NRdTot=       0 NPtTot=           0 NUsed=           0 NTot=          32
 NSgBfM=   151   151   151   151   151 MxSgAt=     3 MxSgA2=     3.
 Leave Link  302 at Wed Aug  3 22:56:49 2016, MaxMem=    33554432 cpu:         0.8
 (Enter /home/proyectos/fulerenos/M3C-v2.0/M3C-deps_CCC/g09-AM64L-G09RevC.01/l303.exe)
 DipDrv:  MaxL=1.
 Leave Link  303 at Wed Aug  3 22:56:49 2016, MaxMem=    33554432 cpu:         0.1
 (Enter /home/proyectos/fulerenos/M3C-v2.0/M3C-deps_CCC/g09-AM64L-G09RevC.01/l401.exe)
 ExpMin= 4.05D-02 ExpMax= 9.34D+04 ExpMxC= 3.17D+03 IAcc=2 IRadAn=         4 AccDes= 0.00D+00
 Harris functional with IExCor=  402 and IRadAn=       4 diagonalized for initial guess.
 HarFok:  IExCor=  402 AccDes= 0.00D+00 IRadAn=         4 IDoV= 1 UseB2=F ITyADJ=14
 ICtDFT=  3500011 ScaDFX=  1.000000  1.000000  1.000000  1.000000
 FoFCou: FMM=F IPFlag=           0 FMFlag=      100000 FMFlg1=           0
         NFxFlg=           0 DoJE=T BraDBF=F KetDBF=T FulRan=T
         wScrn=  0.000000 ICntrl=     500 IOpCl=  0 I1Cent=   200000004 NGrid=           0
         NMat0=    1 NMatS0=      1 NMatT0=    0 NMatD0=    1 NMtDS0=    0 NMtDT0=    0
 Petite list used in FoFCou.
 Harris En= -833.919181539052    
 JPrj=0 DoOrth=F DoCkMO=F.
 Initial guess orbital symmetries:
       Occupied  (B2) (A1) (A1) (A1) (B2) (A1) (B2) (A1) (B2) (B1)
                 (A2) (A1) (B2) (A1) (A1) (B1) (B2) (A1)
       Virtual   (A2) (B1) (B2) (A1) (B2) (A1) (B1) (A1) (A1) (B2)
                 (B2) (A2) (A1) (B1) (B2) (B2) (A1) (A1) (B1) (A1)
                 (B1) (A2) (B2) (B2) (A1) (B1) (A2) (B2) (A1) (A1)
                 (A2) (B2) (A1) (B1) (A1) (A2) (B2) (B2) (A1) (B1)
                 (A1) (B2) (B1) (A1) (B2) (A1) (B1) (A2) (B2) (A1)
                 (B2) (A1) (A2) (B2) (B1) (A1) (A2) (A1) (B1) (B1)
                 (A1) (B2) (B1) (A2) (A1) (B2) (A2) (A1) (B2) (B2)
                 (A1) (A2) (B1) (A1) (B2) (A2) (A1) (B2) (B2) (B1)
                 (B1) (B2) (B2) (A1) (A2) (B1) (A1) (A1) (B2) (A1)
                 (B1) (A1) (A2) (B1) (B2) (A2) (A1) (B2) (B2) (A2)
                 (A1) (B1) (A1) (B2) (A1) (B2) (B1) (A2) (A1) (B2)
                 (B2) (A1) (A1) (A1) (B2)
 The electronic state of the initial guess is 1-A1.
 Leave Link  401 at Wed Aug  3 22:56:49 2016, MaxMem=    33554432 cpu:         1.0
 (Enter /home/proyectos/fulerenos/M3C-v2.0/M3C-deps_CCC/g09-AM64L-G09RevC.01/l502.exe)
 Closed shell SCF:
 Using DIIS extrapolation, IDIIS=  1040.
 Integral symmetry usage will be decided dynamically.
 IVT=       89213 IEndB=       89213 NGot=    33554432 MDV=    33504812
 LenX=    33504812 LenY=    33481570
 Requested convergence on RMS density matrix=1.00D-08 within 128 cycles.
 Requested convergence on MAX density matrix=1.00D-06.
 Requested convergence on             energy=1.00D-06.
 No special actions if energy rises.
 Fock matrices will be formed incrementally for  20 cycles.

 Cycle   1  Pass 1  IDiag  1:
 FoFJK:  IHMeth= 1 ICntrl=       0 DoSepK=F KAlg= 0 I1Cent=   0 FoldK=F
 IRaf= 980000000 NMat=   1 IRICut=       1 DoRegI=T DoRafI=F ISym2E= 1.
 FoFCou: FMM=F IPFlag=           0 FMFlag=      100000 FMFlg1=           0
         NFxFlg=           0 DoJE=F BraDBF=F KetDBF=F FulRan=T
         wScrn=  0.000000 ICntrl=       0 IOpCl=  0 I1Cent=           0 NGrid=           0
         NMat0=    1 NMatS0=      1 NMatT0=    0 NMatD0=    1 NMtDS0=    0 NMtDT0=    0
 Petite list used in FoFCou.
 E= -833.301015924258    
 DIIS: error= 4.20D-02 at cycle   1 NSaved=   1.
 NSaved= 1 IEnMin= 1 EnMin= -833.301015924258     IErMin= 1 ErrMin= 4.20D-02
 ErrMax= 4.20D-02  0.00D+00 EMaxC= 1.00D-01 BMatC= 1.60D-01 BMatP= 1.60D-01
 IDIUse=3 WtCom= 5.80D-01 WtEn= 4.20D-01
 Coeff-Com:  0.100D+01
 Coeff-En:   0.100D+01
 Coeff:      0.100D+01
 Gap=     0.003 Goal=   None    Shift=    0.000
 GapD=    0.003 DampG=0.250 DampE=0.500 DampFc=0.2500 IDamp=-1.
 Damping current iteration by 2.50D-01
 RMSDP=9.69D-03 MaxDP=3.02D-01              OVMax= 3.68D-01

 Cycle   2  Pass 1  IDiag  1:
 RMSU=  2.42D-03    CP:  9.93D-01
 E= -833.313004600954     Delta-E=       -0.011988676696 Rises=F Damp=T
 DIIS: error= 1.93D-02 at cycle   2 NSaved=   2.
 NSaved= 2 IEnMin= 2 EnMin= -833.313004600954     IErMin= 2 ErrMin= 1.93D-02
 ErrMax= 1.93D-02  0.00D+00 EMaxC= 1.00D-01 BMatC= 3.98D-02 BMatP= 1.60D-01
 IDIUse=3 WtCom= 8.07D-01 WtEn= 1.93D-01
 Coeff-Com: -0.104D+00 0.110D+01
 Coeff-En:   0.441D+00 0.559D+00
 Coeff:      0.998D-03 0.999D+00
 Gap=     0.123 Goal=   None    Shift=    0.000
 RMSDP=4.02D-03 MaxDP=1.82D-01 DE=-1.20D-02 OVMax= 3.47D-01

 Cycle   3  Pass 1  IDiag  1:
 RMSU=  3.76D-03    CP:  1.03D+00  5.39D-01
 E= -833.344041639570     Delta-E=       -0.031037038616 Rises=F Damp=F
 DIIS: error= 4.15D-02 at cycle   3 NSaved=   3.
 NSaved= 3 IEnMin= 3 EnMin= -833.344041639570     IErMin= 2 ErrMin= 1.93D-02
 ErrMax= 4.15D-02  0.00D+00 EMaxC= 1.00D-01 BMatC= 1.02D-01 BMatP= 3.98D-02
 IDIUse=2 WtCom= 0.00D+00 WtEn= 1.00D+00
 Coeff-En:   0.000D+00 0.403D+00 0.597D+00
 Coeff:      0.000D+00 0.403D+00 0.597D+00
 Gap=     0.008 Goal=   None    Shift=    0.000
 RMSDP=3.62D-03 MaxDP=1.47D-01 DE=-3.10D-02 OVMax= 2.45D-01

 Cycle   4  Pass 1  IDiag  1:
 RMSU=  3.51D-03    CP:  1.04D+00  6.54D-01  7.81D-01
 E= -833.360451786317     Delta-E=       -0.016410146747 Rises=F Damp=F
 DIIS: error= 3.56D-02 at cycle   4 NSaved=   4.
 NSaved= 4 IEnMin= 4 EnMin= -833.360451786317     IErMin= 2 ErrMin= 1.93D-02
 ErrMax= 3.56D-02  0.00D+00 EMaxC= 1.00D-01 BMatC= 7.91D-02 BMatP= 3.98D-02
 IDIUse=2 WtCom= 0.00D+00 WtEn= 1.00D+00
 Coeff-En:   0.000D+00 0.000D+00 0.472D+00 0.528D+00
 Coeff:      0.000D+00 0.000D+00 0.472D+00 0.528D+00
 Gap=     0.100 Goal=   None    Shift=    0.000
 RMSDP=2.08D-03 MaxDP=6.47D-02 DE=-1.64D-02 OVMax= 1.32D-01

 Cycle   5  Pass 1  IDiag  1:
 RMSU=  6.85D-04    CP:  1.03D+00  4.49D-01  8.28D-01  4.63D-01
 E= -833.460254968339     Delta-E=       -0.099803182022 Rises=F Damp=F
 DIIS: error= 2.54D-03 at cycle   5 NSaved=   5.
 NSaved= 5 IEnMin= 5 EnMin= -833.460254968339     IErMin= 5 ErrMin= 2.54D-03
 ErrMax= 2.54D-03  0.00D+00 EMaxC= 1.00D-01 BMatC= 1.92D-03 BMatP= 3.98D-02
 IDIUse=3 WtCom= 9.75D-01 WtEn= 2.54D-02
 Coeff-Com: -0.926D-01 0.137D+00 0.152D+00 0.113D+00 0.691D+00
 Coeff-En:   0.000D+00 0.000D+00 0.000D+00 0.000D+00 0.100D+01
 Coeff:     -0.903D-01 0.133D+00 0.148D+00 0.110D+00 0.699D+00
 Gap=     0.100 Goal=   None    Shift=    0.000
 RMSDP=2.97D-04 MaxDP=1.10D-02 DE=-9.98D-02 OVMax= 1.22D-02

 Cycle   6  Pass 1  IDiag  1:
 RMSU=  1.75D-04    CP:  1.03D+00  4.86D-01  8.62D-01  4.31D-01  7.88D-01
 E= -833.460808247550     Delta-E=       -0.000553279210 Rises=F Damp=F
 DIIS: error= 2.70D-03 at cycle   6 NSaved=   6.
 NSaved= 6 IEnMin= 6 EnMin= -833.460808247550     IErMin= 5 ErrMin= 2.54D-03
 ErrMax= 2.70D-03  0.00D+00 EMaxC= 1.00D-01 BMatC= 6.32D-04 BMatP= 1.92D-03
 IDIUse=3 WtCom= 9.75D-01 WtEn= 2.54D-02
 Coeff-Com: -0.589D-01 0.659D-01 0.147D-01 0.297D-01 0.278D+00 0.671D+00
 Coeff-En:   0.000D+00 0.000D+00 0.000D+00 0.000D+00 0.112D+00 0.888D+00
 Coeff:     -0.574D-01 0.643D-01 0.143D-01 0.289D-01 0.274D+00 0.676D+00
 Gap=     0.097 Goal=   None    Shift=    0.000
 RMSDP=1.27D-04 MaxDP=4.26D-03 DE=-5.53D-04 OVMax= 8.09D-03

 Cycle   7  Pass 1  IDiag  1:
 RMSU=  4.35D-05    CP:  1.03D+00  4.89D-01  8.62D-01  4.62D-01  8.13D-01
                    CP:  7.47D-01
 E= -833.461522393172     Delta-E=       -0.000714145622 Rises=F Damp=F
 DIIS: error= 1.09D-03 at cycle   7 NSaved=   7.
 NSaved= 7 IEnMin= 7 EnMin= -833.461522393172     IErMin= 7 ErrMin= 1.09D-03
 ErrMax= 1.09D-03  0.00D+00 EMaxC= 1.00D-01 BMatC= 7.05D-05 BMatP= 6.32D-04
 IDIUse=3 WtCom= 9.89D-01 WtEn= 1.09D-02
 Coeff-Com: -0.114D-01 0.129D-01-0.102D-01 0.557D-02-0.408D-02-0.240D-01
 Coeff-Com:  0.103D+01
 Coeff-En:   0.000D+00 0.000D+00 0.000D+00 0.000D+00 0.000D+00 0.000D+00
 Coeff-En:   0.100D+01
 Coeff:     -0.113D-01 0.128D-01-0.101D-01 0.551D-02-0.403D-02-0.238D-01
 Coeff:      0.103D+01
 Gap=     0.096 Goal=   None    Shift=    0.000
 RMSDP=5.54D-05 MaxDP=1.58D-03 DE=-7.14D-04 OVMax= 3.96D-03

 Cycle   8  Pass 1  IDiag  1:
 RMSU=  1.60D-05    CP:  1.03D+00  4.92D-01  8.63D-01  4.76D-01  8.09D-01
                    CP:  7.50D-01  1.32D+00
 E= -833.461617219863     Delta-E=       -0.000094826691 Rises=F Damp=F
 DIIS: error= 1.21D-04 at cycle   8 NSaved=   8.
 NSaved= 8 IEnMin= 8 EnMin= -833.461617219863     IErMin= 8 ErrMin= 1.21D-04
 ErrMax= 1.21D-04  0.00D+00 EMaxC= 1.00D-01 BMatC= 1.22D-06 BMatP= 7.05D-05
 IDIUse=3 WtCom= 9.99D-01 WtEn= 1.21D-03
 Coeff-Com:  0.372D-03-0.885D-03-0.250D-02 0.221D-02-0.333D-02-0.371D-01
 Coeff-Com:  0.163D+00 0.879D+00
 Coeff-En:   0.000D+00 0.000D+00 0.000D+00 0.000D+00 0.000D+00 0.000D+00
 Coeff-En:   0.000D+00 0.100D+01
 Coeff:      0.371D-03-0.884D-03-0.250D-02 0.221D-02-0.333D-02-0.371D-01
 Coeff:      0.162D+00 0.879D+00
 Gap=     0.096 Goal=   None    Shift=    0.000
 RMSDP=7.95D-06 MaxDP=2.23D-04 DE=-9.48D-05 OVMax= 6.33D-04

 Cycle   9  Pass 1  IDiag  1:
 RMSU=  3.24D-06    CP:  1.03D+00  4.92D-01  8.63D-01  4.78D-01  8.13D-01
                    CP:  7.43D-01  1.38D+00  1.03D+00
 E= -833.461618575080     Delta-E=       -0.000001355216 Rises=F Damp=F
 DIIS: error= 1.67D-05 at cycle   9 NSaved=   9.
 NSaved= 9 IEnMin= 9 EnMin= -833.461618575080     IErMin= 9 ErrMin= 1.67D-05
 ErrMax= 1.67D-05  0.00D+00 EMaxC= 1.00D-01 BMatC= 3.30D-08 BMatP= 1.22D-06
 IDIUse=1 WtCom= 1.00D+00 WtEn= 0.00D+00
 Coeff-Com:  0.548D-04-0.456D-04-0.223D-03-0.411D-04-0.758D-03 0.152D-02
 Coeff-Com:  0.453D-02 0.117D+00 0.878D+00
 Coeff:      0.548D-04-0.456D-04-0.223D-03-0.411D-04-0.758D-03 0.152D-02
 Coeff:      0.453D-02 0.117D+00 0.878D+00
 Gap=     0.096 Goal=   None    Shift=    0.000
 RMSDP=1.15D-06 MaxDP=2.77D-05 DE=-1.36D-06 OVMax= 7.45D-05

 Cycle  10  Pass 1  IDiag  1:
 RMSU=  6.62D-07    CP:  1.03D+00  4.92D-01  8.63D-01  4.78D-01  8.13D-01
                    CP:  7.44D-01  1.38D+00  1.04D+00  9.24D-01
 E= -833.461618610943     Delta-E=       -0.000000035863 Rises=F Damp=F
 DIIS: error= 1.80D-06 at cycle  10 NSaved=  10.
 NSaved=10 IEnMin=10 EnMin= -833.461618610943     IErMin=10 ErrMin= 1.80D-06
 ErrMax= 1.80D-06  0.00D+00 EMaxC= 1.00D-01 BMatC= 4.43D-10 BMatP= 3.30D-08
 IDIUse=1 WtCom= 1.00D+00 WtEn= 0.00D+00
 Coeff-Com:  0.381D-04-0.505D-04-0.131D-04-0.138D-04 0.115D-05 0.170D-02
 Coeff-Com: -0.251D-02-0.793D-02 0.925D-01 0.916D+00
 Coeff:      0.381D-04-0.505D-04-0.131D-04-0.138D-04 0.115D-05 0.170D-02
 Coeff:     -0.251D-02-0.793D-02 0.925D-01 0.916D+00
 Gap=     0.096 Goal=   None    Shift=    0.000
 RMSDP=1.55D-07 MaxDP=7.95D-06 DE=-3.59D-08 OVMax= 1.06D-05

 Cycle  11  Pass 1  IDiag  1:
 RMSU=  8.64D-08    CP:  1.03D+00  4.92D-01  8.63D-01  4.78D-01  8.13D-01
                    CP:  7.45D-01  1.38D+00  1.04D+00  9.50D-01  1.06D+00
 E= -833.461618611292     Delta-E=       -0.000000000349 Rises=F Damp=F
 DIIS: error= 8.79D-07 at cycle  11 NSaved=  11.
 NSaved=11 IEnMin=11 EnMin= -833.461618611292     IErMin=11 ErrMin= 8.79D-07
 ErrMax= 8.79D-07  0.00D+00 EMaxC= 1.00D-01 BMatC= 7.50D-11 BMatP= 4.43D-10
 IDIUse=1 WtCom= 1.00D+00 WtEn= 0.00D+00
 Coeff-Com:  0.187D-06-0.792D-06 0.207D-05-0.100D-05 0.305D-04 0.211D-03
 Coeff-Com:  0.460D-03-0.462D-02-0.174D-01 0.740D-01 0.947D+00
 Coeff:      0.187D-06-0.792D-06 0.207D-05-0.100D-05 0.305D-04 0.211D-03
 Coeff:      0.460D-03-0.462D-02-0.174D-01 0.740D-01 0.947D+00
 Gap=     0.096 Goal=   None    Shift=    0.000
 RMSDP=6.11D-08 MaxDP=1.71D-06 DE=-3.49D-10 OVMax= 4.68D-06

 Cycle  12  Pass 1  IDiag  1:
 RMSU=  1.05D-08    CP:  1.03D+00  4.92D-01  8.63D-01  4.78D-01  8.13D-01
                    CP:  7.45D-01  1.38D+00  1.04D+00  9.52D-01  1.08D+00
                    CP:  1.01D+00
 E= -833.461618611388     Delta-E=       -0.000000000096 Rises=F Damp=F
 DIIS: error= 4.03D-08 at cycle  12 NSaved=  12.
 NSaved=12 IEnMin=12 EnMin= -833.461618611388     IErMin=12 ErrMin= 4.03D-08
 ErrMax= 4.03D-08  0.00D+00 EMaxC= 1.00D-01 BMatC= 5.63D-14 BMatP= 7.50D-11
 IDIUse=1 WtCom= 1.00D+00 WtEn= 0.00D+00
 Coeff-Com:  0.254D-06-0.324D-06-0.414D-08-0.789D-07-0.183D-05-0.263D-04
 Coeff-Com:  0.983D-05 0.168D-03-0.112D-02-0.111D-01-0.270D-01 0.104D+01
 Coeff:      0.254D-06-0.324D-06-0.414D-08-0.789D-07-0.183D-05-0.263D-04
 Coeff:      0.983D-05 0.168D-03-0.112D-02-0.111D-01-0.270D-01 0.104D+01
 Gap=     0.096 Goal=   None    Shift=    0.000
 RMSDP=3.48D-09 MaxDP=1.23D-07 DE=-9.62D-11 OVMax= 3.23D-07

 SCF Done:  E(RB3LYP) =  -833.461618611     A.U. after   12 cycles
            NFock= 12  Conv=0.35D-08     -V/T= 2.0015
 KE= 8.322541295234D+02 PE=-2.208616627658D+03 EE= 4.180166626022D+02
 Leave Link  502 at Wed Aug  3 22:56:59 2016, MaxMem=    33554432 cpu:        36.8
 (Enter /home/proyectos/fulerenos/M3C-v2.0/M3C-deps_CCC/g09-AM64L-G09RevC.01/l801.exe)
 DoSCS=F DFT=T ScalE2(SS,OS)=  1.000000  1.000000
 Range of M.O.s used for correlation:     1   133
 NBasis=   133 NAE=    18 NBE=    18 NFC=     0 NFV=     0
 NROrb=    133 NOA=    18 NOB=    18 NVA=   115 NVB=   115

 **** Warning!!: The largest alpha MO coefficient is  0.18635987D+02


 **** Warning!!: The smallest alpha delta epsilon is  0.96493444D-01

 Leave Link  801 at Wed Aug  3 22:56:59 2016, MaxMem=    33554432 cpu:         0.1
 (Enter /home/proyectos/fulerenos/M3C-v2.0/M3C-deps_CCC/g09-AM64L-G09RevC.01/l1101.exe)
 Using compressed storage, NAtomX=     3.
 Will process      4 centers per pass.
 Leave Link 1101 at Wed Aug  3 22:56:59 2016, MaxMem=    33554432 cpu:         0.9
 (Enter /home/proyectos/fulerenos/M3C-v2.0/M3C-deps_CCC/g09-AM64L-G09RevC.01/l1102.exe)
 Symmetrizing basis deriv contribution to polar:
 IMax=3 JMax=2 DiffMx= 0.00D+00
 Leave Link 1102 at Wed Aug  3 22:56:59 2016, MaxMem=    33554432 cpu:         0.1
 (Enter /home/proyectos/fulerenos/M3C-v2.0/M3C-deps_CCC/g09-AM64L-G09RevC.01/l1110.exe)
 Forming Gx(P) for the SCF density, NAtomX=     3.
 Integral derivatives from FoFJK, PRISM(SPDF).
 Do as many integral derivatives as possible in FoFJK.
 G2DrvN: MDV=      33554304.
 G2DrvN: will do     4 centers at a time, making    1 passes.
 Calling FoFCou, ICntrl=  3107 FMM=F I1Cent=   0 AccDes= 0.00D+00.
 FoFJK:  IHMeth= 1 ICntrl=    3107 DoSepK=F KAlg= 0 I1Cent=   0 FoldK=F
 IRaf=         0 NMat=   1 IRICut=       1 DoRegI=T DoRafI=F ISym2E= 1.
 FoFCou: FMM=F IPFlag=           0 FMFlag=      100000 FMFlg1=           0
         NFxFlg=           0 DoJE=F BraDBF=F KetDBF=F FulRan=T
         wScrn=  0.000000 ICntrl=    3107 IOpCl=  0 I1Cent=           0 NGrid=           0
         NMat0=    1 NMatS0=      1 NMatT0=    0 NMatD0=    1 NMtDS0=    0 NMtDT0=    0
 Petite list used in FoFCou.
 End of G2Drv F.D. properties file   721 does not exist.
 End of G2Drv F.D. properties file   722 does not exist.
 End of G2Drv F.D. properties file   788 does not exist.
 Leave Link 1110 at Wed Aug  3 22:57:03 2016, MaxMem=    33554432 cpu:        16.7
 (Enter /home/proyectos/fulerenos/M3C-v2.0/M3C-deps_CCC/g09-AM64L-G09RevC.01/l1002.exe)
 Minotr:  Closed shell wavefunction.
          IDoAtm=111
          Direct CPHF calculation.
          Differentiating once with respect to electric field.
                with respect to dipole field.
          Differentiating once with respect to nuclear coordinates.
          Using symmetry in CPHF.
          Requested convergence is 1.0D-08 RMS, and 1.0D-07 maximum.
          Secondary convergence is 1.0D-12 RMS, and 1.0D-12 maximum.
          NewPWx=T KeepS1=F KeepF1=F KeepIn=T MapXYZ=F SortEE=F KeepMc=T.
          MDV=      33554265 using IRadAn=       2.
 Generate precomputed XC quadrature information.
          Solving linear equations simultaneously, MaxMat=       0.
 FoFJK:  IHMeth= 1 ICntrl=       0 DoSepK=F KAlg= 0 I1Cent=   0 FoldK=F
 IRaf= 980000000 NMat=   9 IRICut=      22 DoRegI=T DoRafI=T ISym2E= 2.
 FoFCou: FMM=F IPFlag=           0 FMFlag=      100000 FMFlg1=           0
         NFxFlg=           0 DoJE=F BraDBF=F KetDBF=F FulRan=T
         wScrn=  0.000000 ICntrl=       0 IOpCl=  0 I1Cent=           0 NGrid=           0
         NMat0=    9 NMatS0=      9 NMatT0=    0 NMatD0=    9 NMtDS0=    0 NMtDT0=    0
 Integrals replicated using symmetry in FoFCou.
          There are     9 degrees of freedom in the 1st order CPHF.  IDoFFX=4 NUNeed=     9.
      9 vectors produced by pass  0 Test12= 2.30D-14 1.11D-08 XBig12= 1.03D+02 7.35D+00.
 AX will form     9 AO Fock derivatives at one time.
      9 vectors produced by pass  1 Test12= 2.30D-14 1.11D-08 XBig12= 3.53D+01 1.68D+00.
      9 vectors produced by pass  2 Test12= 2.30D-14 1.11D-08 XBig12= 1.33D+00 4.24D-01.
      9 vectors produced by pass  3 Test12= 2.30D-14 1.11D-08 XBig12= 2.17D-02 5.58D-02.
      9 vectors produced by pass  4 Test12= 2.30D-14 1.11D-08 XBig12= 2.34D-04 5.00D-03.
      9 vectors produced by pass  5 Test12= 2.30D-14 1.11D-08 XBig12= 2.05D-06 4.88D-04.
      9 vectors produced by pass  6 Test12= 2.30D-14 1.11D-08 XBig12= 7.08D-09 3.06D-05.
      5 vectors produced by pass  7 Test12= 2.30D-14 1.11D-08 XBig12= 1.92D-11 1.13D-06.
      2 vectors produced by pass  8 Test12= 2.30D-14 1.11D-08 XBig12= 6.44D-14 6.43D-08.
 InvSVY:  IOpt=1 It=  1 EMax= 1.78D-15
 Solved reduced A of dimension    70 with     9 vectors.
 FullF1:  Do perturbations    1 to     9.
 Isotropic polarizability for W=    0.000000       33.41 Bohr**3.
 End of Minotr F.D. properties file   721 does not exist.
 End of Minotr F.D. properties file   722 does not exist.
 End of Minotr F.D. properties file   788 does not exist.
 Leave Link 1002 at Wed Aug  3 22:57:26 2016, MaxMem=    33554432 cpu:        89.8
 (Enter /home/proyectos/fulerenos/M3C-v2.0/M3C-deps_CCC/g09-AM64L-G09RevC.01/l601.exe)
 Copying SCF densities to generalized density rwf, IOpCl= 0 IROHF=0.

 **********************************************************************

            Population analysis using the SCF density.

 **********************************************************************

 Orbital symmetries:
       Occupied  (A1) (B2) (A1) (A1) (B2) (B1) (A2) (A1) (B2) (A1)
                 (B2) (A1) (B2) (A1) (A1) (B1) (B2) (A1)
       Virtual   (A2) (B1) (B2) (A1) (B2) (A1) (B1) (A1) (B1) (A1)
                 (B2) (A1) (B1) (A2) (B2) (A2) (A1) (B2) (B1) (B2)
                 (A1) (A1) (B2) (A1) (B1) (B2) (A2) (B2) (A1) (A1)
                 (A2) (B2) (A1) (A2) (B2) (B1) (A1) (B2) (A1) (B1)
                 (A1) (B2) (B1) (A1) (A1) (B1) (A2) (B2) (B2) (A1)
                 (A2) (B2) (A1) (B2) (B1) (A1) (A1) (A2) (B1) (B1)
                 (A1) (B2) (B1) (A2) (A1) (B2) (A2) (B2) (A1) (B2)
                 (A1) (A2) (B1) (A1) (B2) (A2) (A1) (B2) (B2) (B1)
                 (B1) (B2) (B2) (A1) (A2) (B1) (A1) (A1) (B2) (A1)
                 (B1) (A1) (A2) (B1) (B2) (A2) (A1) (B2) (B2) (A2)
                 (A1) (B1) (A1) (B2) (A1) (B2) (B1) (A2) (A1) (B2)
                 (B2) (A1) (A1) (A1) (B2)
 The electronic state is 1-A1.
 Alpha  occ. eigenvalues --  -89.54022 -89.54022 -10.85986  -8.61483  -8.61471
 Alpha  occ. eigenvalues --   -6.57867  -6.57862  -6.57481  -6.57418  -6.57084
 Alpha  occ. eigenvalues --   -6.57078  -1.48745  -1.21203  -1.13605  -0.96655
 Alpha  occ. eigenvalues --   -0.95131  -0.88686  -0.83422
 Alpha virt. eigenvalues --   -0.73772  -0.64850  -0.59433  -0.53667  -0.49070
 Alpha virt. eigenvalues --   -0.39509  -0.34947  -0.34452  -0.29680  -0.28951
 Alpha virt. eigenvalues --   -0.27466  -0.25364  -0.24993  -0.24041  -0.23674
 Alpha virt. eigenvalues --   -0.22271  -0.21177  -0.18318  -0.17986  -0.15164
 Alpha virt. eigenvalues --   -0.14148  -0.13724  -0.10123  -0.07063  -0.06948
 Alpha virt. eigenvalues --   -0.06928  -0.05483  -0.05363  -0.05118  -0.01858
 Alpha virt. eigenvalues --    0.00034   0.03700   0.07092   0.09932   0.09977
 Alpha virt. eigenvalues --    0.10289   0.12517   0.16124   0.22122   0.22390
 Alpha virt. eigenvalues --    0.30188   0.36904   0.37045   0.38833   0.42296
 Alpha virt. eigenvalues --    0.42350   0.45446   0.45966   0.47485   0.49978
 Alpha virt. eigenvalues --    0.52468   0.54317   0.58030   0.60838   0.85037
 Alpha virt. eigenvalues --    0.90217   0.95676   0.96400   0.96486   0.98022
 Alpha virt. eigenvalues --    1.04368   1.06611   1.08690   1.09058   1.19044
 Alpha virt. eigenvalues --    1.19701   1.20681   1.27921   1.29031   1.34919
 Alpha virt. eigenvalues --    1.38517   1.39861   1.44108   1.58770   1.66864
 Alpha virt. eigenvalues --    1.71791   1.74865   1.86173   1.90511   2.20708
 Alpha virt. eigenvalues --    2.33343   2.39704   2.43408   2.47790   2.62519
 Alpha virt. eigenvalues --    2.62598   2.70406   2.73295   2.76905   3.91000
 Alpha virt. eigenvalues --    3.91761   4.00939   4.03159   4.04373   4.05843
 Alpha virt. eigenvalues --    4.17957   4.45439   4.61281   4.89543   6.40311
 Alpha virt. eigenvalues --    6.41813   6.46208   6.65392   6.79762   7.33529
 Alpha virt. eigenvalues --    7.52886  16.63652  16.67277  16.76973  16.92044
 Alpha virt. eigenvalues --   17.10745  17.16619  22.91834 188.40943 188.52402
          Condensed to atoms (all electrons):
               1          2          3
     1  S   14.628631   0.566174   0.073010
     2  S    0.566174  14.628631   0.073010
     3  C    0.073010   0.073010   5.318351
 Mulliken charges:
               1
     1  S    0.732186
     2  S    0.732186
     3  C    0.535629
 Sum of Mulliken charges =   2.00000
 Mulliken charges with hydrogens summed into heavy atoms:
               1
     1  S    0.732186
     2  S    0.732186
     3  C    0.535629
 APT charges:
               1
     1  S    0.672418
     2  S    0.672418
     3  C    0.655165
 Sum of APT charges =   2.00000
 APT charges with hydrogens summed into heavy atoms:
               1
     1  S    0.672418
     2  S    0.672418
     3  C    0.655165
 Electronic spatial extent (au):  <R**2>=            193.7592
 Charge=              2.0000 electrons
 Dipole moment (field-independent basis, Debye):
    X=             -0.0000    Y=              0.0000    Z=             -0.5869  Tot=              0.5869
 Quadrupole moment (field-independent basis, Debye-Ang):
   XX=            -22.2769   YY=            -12.3272   ZZ=            -21.6839
   XY=              0.0000   XZ=              0.0000   YZ=             -0.0000
 Traceless Quadrupole moment (field-independent basis, Debye-Ang):
   XX=             -3.5142   YY=              6.4355   ZZ=             -2.9213
   XY=              0.0000   XZ=              0.0000   YZ=             -0.0000
 Octapole moment (field-independent basis, Debye-Ang**2):
  XXX=              0.0000  YYY=              0.0000  ZZZ=             -3.5271  XYY=              0.0000
  XXY=              0.0000  XXZ=             -1.4987  XZZ=              0.0000  YZZ=              0.0000
  YYZ=             -4.9818  XYZ=             -0.0000
 Hexadecapole moment (field-independent basis, Debye-Ang**3):
 XXXX=            -21.3425 YYYY=           -106.5126 ZZZZ=            -82.5200 XXXY=             -0.0000
 XXXZ=             -0.0000 YYYX=             -0.0000 YYYZ=             -0.0000 ZZZX=             -0.0000
 ZZZY=             -0.0000 XXYY=            -21.9826 XXZZ=            -16.4516 YYZZ=            -34.1659
 XXYZ=              0.0000 YYXZ=             -0.0000 ZZXY=             -0.0000
 N-N= 1.248842169210D+02 E-N=-2.208616626531D+03  KE= 8.322541295234D+02
 Symmetry A1   KE= 3.988354420950D+02
 Symmetry A2   KE= 3.518451497319D+01
 Symmetry B1   KE= 3.873973179763D+01
 Symmetry B2   KE= 3.594944406576D+02
  Exact polarizability:  22.533   0.000  41.272   0.000   0.000  36.429
 Approx polarizability:  41.501   0.000 116.594   0.000  -0.000  83.358
 No NMR shielding tensors so no spin-rotation constants.
 Leave Link  601 at Wed Aug  3 22:57:26 2016, MaxMem=    33554432 cpu:         0.9
 (Enter /home/proyectos/fulerenos/M3C-v2.0/M3C-deps_CCC/g09-AM64L-G09RevC.01/l701.exe)
 Compute integral second derivatives.
 ... and contract with generalized density number  0.
 Leave Link  701 at Wed Aug  3 22:57:27 2016, MaxMem=    33554432 cpu:         1.3
 (Enter /home/proyectos/fulerenos/M3C-v2.0/M3C-deps_CCC/g09-AM64L-G09RevC.01/l702.exe)
 L702 exits ... SP integral derivatives will be done elsewhere.
 Leave Link  702 at Wed Aug  3 22:57:27 2016, MaxMem=    33554432 cpu:         0.1
 (Enter /home/proyectos/fulerenos/M3C-v2.0/M3C-deps_CCC/g09-AM64L-G09RevC.01/l703.exe)
 Compute integral second derivatives, UseDBF=F ICtDFT=           0.
 Integral derivatives from FoFJK, PRISM(SPDF).
 Calling FoFJK, ICntrl=    100127 FMM=F ISym2X=1 I1Cent= 0 IOpClX= 0 NMat=1 NMatS=1 NMatT=0.
 FoFJK:  IHMeth= 1 ICntrl=  100127 DoSepK=F KAlg= 0 I1Cent=   0 FoldK=F
 IRaf=         0 NMat=   1 IRICut=       1 DoRegI=T DoRafI=F ISym2E= 1.
 FoFCou: FMM=F IPFlag=           0 FMFlag=      100000 FMFlg1=         800
         NFxFlg=           0 DoJE=F BraDBF=F KetDBF=F FulRan=T
         wScrn=  0.000000 ICntrl=  100127 IOpCl=  0 I1Cent=           0 NGrid=           0
         NMat0=    1 NMatS0=      1 NMatT0=    0 NMatD0=    1 NMtDS0=    0 NMtDT0=    0
 Petite list used in FoFCou.
 Leave Link  703 at Wed Aug  3 22:57:37 2016, MaxMem=    33554432 cpu:        40.5
 (Enter /home/proyectos/fulerenos/M3C-v2.0/M3C-deps_CCC/g09-AM64L-G09RevC.01/l716.exe)
 Dipole        =-1.86872584D-16 1.12192640D-14-2.30899342D-01
 Polarizability= 2.25326917D+01 1.39294542D-10 4.12715747D+01
                 1.87254253D-09 8.43119605D-09 3.64290445D+01
 Full mass-weighted force constant matrix:
 Low frequencies ---  -13.1101   -5.7527    0.0015    0.0031    0.0044   10.8513
 Low frequencies ---  505.7009  607.6957  754.7763
 Diagonal vibrational polarizability:
        0.0000000       0.0218765       6.8625887
 Harmonic frequencies (cm**-1), IR intensities (KM/Mole), Raman scattering
 activities (A**4/AMU), depolarization ratios for plane and unpolarized
 incident light, reduced masses (AMU), force constants (mDyne/A),
 and normal coordinates:
                      1                      2                      3
                     B2                     A1                     A1
 Frequencies --    505.7007               607.6957               754.7763
 Red. masses --     16.1114                17.7924                19.9277
 Frc consts  --      2.4276                 3.8713                 6.6887
 IR Inten    --      0.2079                60.4503                52.0222
  Atom  AN      X      Y      Z        X      Y      Z        X      Y      Z
     1  16     0.00  -0.17   0.27    -0.00  -0.35  -0.16     0.00   0.42  -0.15
     2  16    -0.00  -0.17  -0.27     0.00   0.35  -0.16    -0.00  -0.42  -0.15
     3   6     0.00   0.89  -0.00     0.00   0.00   0.84     0.00   0.00   0.78

 -------------------
 - Thermochemistry -
 -------------------
 Temperature   298.150 Kelvin.  Pressure   1.00000 Atm.
 Atom     1 has atomic number 16 and mass  31.97207
 Atom     2 has atomic number 16 and mass  31.97207
 Atom     3 has atomic number  6 and mass  12.00000
 Molecular mass:    75.94414 amu.
 Principal axes and moments of inertia in atomic units:
                           1         2         3
     Eigenvalues --    90.33183 213.29030 303.62212
           X            0.00000   0.00000   1.00000
           Y            1.00000   0.00000  -0.00000
           Z           -0.00000   1.00000  -0.00000
 This molecule is an asymmetric top.
 Rotational symmetry number  2.
 Rotational temperatures (Kelvin)      0.95884     0.40608     0.28527
 Rotational constants (GHZ):          19.97902     8.46143     5.94404
 Zero-point vibrational energy      11174.2 (Joules/Mol)
                                    2.67069 (Kcal/Mol)
 Warning -- explicit consideration of   2 degrees of freedom as
           vibrations may cause significant error
 Vibrational temperatures:    727.59   874.34  1085.95
          (Kelvin)
 
 Zero-point correction=                           0.004256 (Hartree/Particle)
 Thermal correction to Energy=                    0.007557
 Thermal correction to Enthalpy=                  0.008501
 Thermal correction to Gibbs Free Energy=        -0.021021
 Sum of electronic and zero-point Energies=           -833.457363
 Sum of electronic and thermal Energies=              -833.454062
 Sum of electronic and thermal Enthalpies=            -833.453118
 Sum of electronic and thermal Free Energies=         -833.482639
 
                     E (Thermal)             CV                S
                      KCal/Mol        Cal/Mol-Kelvin    Cal/Mol-Kelvin
 Total                    4.742              8.943             62.134
 Electronic               0.000              0.000              0.000
 Translational            0.889              2.981             38.898
 Rotational               0.889              2.981             21.908
 Vibrational              2.964              2.981              1.328
 Vibration     1          0.861              1.237              0.644
 Vibration     2          0.966              1.016              0.437
                       Q            Log10(Q)             Ln(Q)
 Total Bot       0.466497D+10          9.668849         22.263347
 Total V=0       0.423130D+12         11.626474         26.770945
 Vib (Bot)       0.130998D-01         -1.882737         -4.335162
 Vib (Bot)    1  0.323353D+00         -0.490323         -1.129011
 Vib (Bot)    2  0.243768D+00         -0.613024         -1.411539
 Vib (V=0)       0.118820D+01          0.074888          0.172436
 Vib (V=0)    1  0.109545D+01          0.039591          0.091162
 Vib (V=0)    2  0.105626D+01          0.023770          0.054732
 Electronic      0.100000D+01          0.000000          0.000000
 Translational   0.260134D+08          7.415197         17.074121
 Rotational      0.136895D+05          4.136389          9.524388
 
                                                              b3lyp opt
                                                             IR Spectrum
 
                                                                                                                                     
     7                        6                5                                                                                     
     5                        0                0                                                                                     
     5                        8                6                                                                                     
 
     X                        X                X                                                                                     
     X                        X                                                                                                      
     X                        X                                                                                                      
     X                        X                                                                                                      
     X                        X                                                                                                      
     X                        X                                                                                                      
     X                        X                                                                                                      
     X                        X                                                                                                      
     X                        X                                                                                                      
     X                        X                                                                                                      
     X                        X                                                                                                      
     X                        X                                                                                                      
     X                        X                                                                                                      
     X                        X                                                                                                      
     X                        X                                                                                                      
     X                        X                                                                                                      
     X                        X                                                                                                      
                              X                                                                                                      
                              X                                                                                                      
                              X                                                                                                      
 
 ***** Axes restored to original set *****
 -------------------------------------------------------------------
 Center     Atomic                   Forces (Hartrees/Bohr)
 Number     Number              X              Y              Z
 -------------------------------------------------------------------
      1       16           0.000131032   -0.000097820   -0.000000000
      2       16          -0.000142604   -0.000080014    0.000000000
      3        6           0.000011572    0.000177833   -0.000000000
 -------------------------------------------------------------------
 Cartesian Forces:  Max     0.000177833 RMS     0.000097317
 Z-matrix is all fixed cartesians, so copy forces.
 Force constants in Cartesian coordinates: 
                1             2             3             4             5 
      1  0.301837D+00
      2 -0.658286D-01  0.972990D-01
      3  0.000000D+00  0.000000D+00 -0.876420D-05
      4 -0.274055D+00  0.133836D-01  0.000000D+00  0.315320D+00
      5  0.219572D-01 -0.365362D-02  0.000000D+00  0.373338D-01  0.838159D-01
      6  0.000000D+00  0.000000D+00  0.312771D-04  0.000000D+00  0.000000D+00
      7 -0.277820D-01  0.524450D-01  0.000000D+00 -0.412651D-01 -0.592910D-01
      8  0.438715D-01 -0.936454D-01  0.000000D+00 -0.507174D-01 -0.801623D-01
      9  0.000000D+00  0.000000D+00 -0.225124D-04  0.000000D+00  0.000000D+00
                6             7             8             9 
      6 -0.876424D-05
      7  0.000000D+00  0.690471D-01
      8  0.000000D+00  0.684597D-02  0.173808D+00
      9 -0.225124D-04  0.000000D+00  0.000000D+00  0.450239D-04
 Leave Link  716 at Wed Aug  3 22:57:37 2016, MaxMem=    33554432 cpu:         0.1
 (Enter /home/proyectos/fulerenos/M3C-v2.0/M3C-deps_CCC/g09-AM64L-G09RevC.01/l103.exe)

 GradGradGradGradGradGradGradGradGradGradGradGradGradGradGradGradGradGrad
 Berny optimization.
 Search for a local minimum.
 Step number   1 out of a maximum of    2
 All quantities printed in internal units (Hartrees-Bohrs-Radians)
 Second derivative matrix not updated -- analytic derivatives used.
 The second derivative matrix:
                          X1        Y1        Z1        X2        Y2
           X1           0.30184
           Y1          -0.06583   0.09730
           Z1          -0.00000   0.00000  -0.00001
           X2          -0.27406   0.01338  -0.00000   0.31532
           Y2           0.02196  -0.00365  -0.00000   0.03733   0.08382
           Z2          -0.00000   0.00000   0.00003  -0.00000  -0.00000
           X3          -0.02778   0.05245   0.00000  -0.04127  -0.05929
           Y3           0.04387  -0.09365   0.00000  -0.05072  -0.08016
           Z3           0.00000   0.00000  -0.00002  -0.00000   0.00000
                          Z2        X3        Y3        Z3
           Z2          -0.00001
           X3           0.00000   0.06905
           Y3          -0.00000   0.00685   0.17381
           Z3          -0.00002  -0.00000  -0.00000   0.00005
 ITU=  0
     Eigenvalues ---    0.18391   0.23180   0.60326
 Angle between quadratic step and forces=  27.60 degrees.
 ClnCor:  largest displacement from symmetrization is 3.41D-12 for atom     2.
 Linear search not attempted -- first point.
 ClnCor:  largest displacement from symmetrization is 2.22D-16 for atom     1.
 B after Tr=    -0.000006   -0.000092    0.000000
         Rot=    1.000000    0.000000    0.000000    0.000000 Ang=   0.00 deg.
 Variable       Old X    -DE/DX   Delta X   Delta X   Delta X     New X
                                 (Linear)    (Quad)   (Total)
    X1        1.81718   0.00013   0.00000   0.00014   0.00014   1.81732
    Y1       -0.58396  -0.00010   0.00000  -0.00023  -0.00032  -0.58428
    Z1        0.00000  -0.00000   0.00000   0.00000   0.00000   0.00000
    X2       -1.82782  -0.00014   0.00000  -0.00017  -0.00018  -1.82800
    Y2       -0.34677  -0.00008   0.00000  -0.00021  -0.00030  -0.34707
    Z2       -0.00000   0.00000   0.00000  -0.00000  -0.00000  -0.00000
    X3        0.18884   0.00001   0.00000   0.00005   0.00004   0.18888
    Y3        2.51836   0.00018   0.00000   0.00072   0.00062   2.51899
    Z3        0.00000  -0.00000   0.00000   0.00000  -0.00000  -0.00000
         Item               Value     Threshold  Converged?
 Maximum Force            0.000178     0.000450     YES
 RMS     Force            0.000097     0.000300     YES
 Maximum Displacement     0.000623     0.001800     YES
 RMS     Displacement     0.000265     0.001200     YES
 Predicted change in Energy=-1.050835D-07
 Optimization completed.
    -- Stationary point found.
 GradGradGradGradGradGradGradGradGradGradGradGradGradGradGradGradGradGrad

 Leave Link  103 at Wed Aug  3 22:57:37 2016, MaxMem=    33554432 cpu:         0.1
 (Enter /home/proyectos/fulerenos/M3C-v2.0/M3C-deps_CCC/g09-AM64L-G09RevC.01/l9999.exe)
 1\1\GINC-DEPAZ27\Freq\RB3LYP\6-311++G(3df,2p)\C1S2(2+)\NAGUIRRE\03-Aug
 -2016\0\\#p b3lyp/6-311++G(3df,2p) freq\\b3lyp opt\\2,1\S,0.96161015,-
 0.309016117,0.\S,-0.9672411502,-0.1835018826,0.\C,0.0999280006,1.33266
 1,0.\\Version=EM64L-G09RevE.01\State=1-A1\HF=-833.4616186\RMSD=3.481e-
 09\RMSF=9.732e-05\ZeroPoint=0.004256\Thermal=0.0075568\Dipole=-0.01499
 34,-0.230412,0.\DipoleDeriv=0.8395528,0.0077051,0.,0.0415023,0.2969436
 ,0.,0.,0.,0.8807562,0.8241164,-0.0766052,0.,-0.1104024,0.31238,0.,0.,0
 .,0.8807562,0.3363308,0.0689002,0.,0.0689001,1.3906764,0.,0.,0.,0.2384
 876\Polar=41.2511562,-0.3137845,36.4494631,0.,0.,22.5326917\PG=C02V [C
 2(C1),SGV(S2)]\NImag=0\\0.30183714,-0.06582864,0.09729900,0.,0.,-0.000
 00876,-0.27405513,0.01338362,0.,0.31532021,0.02195716,-0.00365362,0.,0
 .03733382,0.08381593,0.,0.,0.00003128,0.,0.,-0.00000876,-0.02778201,0.
 05244501,0.,-0.04126508,-0.05929099,0.,0.06904710,0.04387147,-0.093645
 38,0.,-0.05071745,-0.08016231,0.,0.00684597,0.17380769,0.,0.,-0.000022
 51,0.,0.,-0.00002251,0.,0.,0.00004502\\-0.00013103,0.00009782,0.,0.000
 14260,0.00008001,0.,-0.00001157,-0.00017783,0.\\\@


 TO DETECT ERRORS, THE PROGRAMMER MUST HAVE A CONNIVING MIND,
 ONE THAT DELIGHTS IN UNCOVERING FLAWS WHERE BEAUTY AND
 PERFECTION WERE ONCE THOUGHT TO LIE.

             -- THE PSYCHOLOGY OF COMPUTER PROGRAMMING
                GERALD M. WEINBERG
 Job cpu time:       0 days  0 hours  3 minutes 10.7 seconds.
 File lengths (MBytes):  RWF=     12 Int=      0 D2E=      0 Chk=      2 Scr=      1
 Normal termination of Gaussian 09 at Wed Aug  3 22:57:37 2016.
