 Entering Gaussian System, Link 0=/home/proyectos/fulerenos/M3C-v2.0/M3C-deps_CCC/g09-AM64L-G09RevC.01/g09
 Initial command:
 /home/proyectos/fulerenos/M3C-v2.0/M3C-deps_CCC/g09-AM64L-G09RevC.01/l1.exe "/scratch/naguirre/gaussian/Gau-23721.inp" -scrdir="/scratch/naguirre/gaussian/"
 Entering Link 1 = /home/proyectos/fulerenos/M3C-v2.0/M3C-deps_CCC/g09-AM64L-G09RevC.01/l1.exe PID=     23729.
  
 Copyright (c) 1988,1990,1992,1993,1995,1998,2003,2009,2015,
            Gaussian, Inc.  All Rights Reserved.
  
 This is part of the Gaussian(R) 09 program.  It is based on
 the Gaussian(R) 03 system (copyright 2003, Gaussian, Inc.),
 the Gaussian(R) 98 system (copyright 1998, Gaussian, Inc.),
 the Gaussian(R) 94 system (copyright 1995, Gaussian, Inc.),
 the Gaussian 92(TM) system (copyright 1992, Gaussian, Inc.),
 the Gaussian 90(TM) system (copyright 1990, Gaussian, Inc.),
 the Gaussian 88(TM) system (copyright 1988, Gaussian, Inc.),
 the Gaussian 86(TM) system (copyright 1986, Carnegie Mellon
 University), and the Gaussian 82(TM) system (copyright 1983,
 Carnegie Mellon University). Gaussian is a federally registered
 trademark of Gaussian, Inc.
  
 This software contains proprietary and confidential information,
 including trade secrets, belonging to Gaussian, Inc.
  
 This software is provided under written license and may be
 used, copied, transmitted, or stored only in accord with that
 written license.
  
 The following legend is applicable only to US Government
 contracts under FAR:
  
                    RESTRICTED RIGHTS LEGEND
  
 Use, reproduction and disclosure by the US Government is
 subject to restrictions as set forth in subparagraphs (a)
 and (c) of the Commercial Computer Software - Restricted
 Rights clause in FAR 52.227-19.
  
 Gaussian, Inc.
 340 Quinnipiac St., Bldg. 40, Wallingford CT 06492
  
  
 ---------------------------------------------------------------
 Warning -- This program may not be used in any manner that
 competes with the business of Gaussian, Inc. or will provide
 assistance to any competitor of Gaussian, Inc.  The licensee
 of this program is prohibited from giving any competitor of
 Gaussian, Inc. access to this program.  By using this program,
 the user acknowledges that Gaussian, Inc. is engaged in the
 business of creating and licensing software in the field of
 computational chemistry and represents and warrants to the
 licensee that it is not a competitor of Gaussian, Inc. and that
 it will not use this program in any manner prohibited above.
 ---------------------------------------------------------------
  

 Cite this work as:
 Gaussian 09, Revision E.01,
 M. J. Frisch, G. W. Trucks, H. B. Schlegel, G. E. Scuseria, 
 M. A. Robb, J. R. Cheeseman, G. Scalmani, V. Barone, B. Mennucci, 
 G. A. Petersson, H. Nakatsuji, M. Caricato, X. Li, H. P. Hratchian, 
 A. F. Izmaylov, J. Bloino, G. Zheng, J. L. Sonnenberg, M. Hada, 
 M. Ehara, K. Toyota, R. Fukuda, J. Hasegawa, M. Ishida, T. Nakajima, 
 Y. Honda, O. Kitao, H. Nakai, T. Vreven, J. A. Montgomery, Jr., 
 J. E. Peralta, F. Ogliaro, M. Bearpark, J. J. Heyd, E. Brothers, 
 K. N. Kudin, V. N. Staroverov, T. Keith, R. Kobayashi, J. Normand, 
 K. Raghavachari, A. Rendell, J. C. Burant, S. S. Iyengar, J. Tomasi, 
 M. Cossi, N. Rega, J. M. Millam, M. Klene, J. E. Knox, J. B. Cross, 
 V. Bakken, C. Adamo, J. Jaramillo, R. Gomperts, R. E. Stratmann, 
 O. Yazyev, A. J. Austin, R. Cammi, C. Pomelli, J. W. Ochterski, 
 R. L. Martin, K. Morokuma, V. G. Zakrzewski, G. A. Voth, 
 P. Salvador, J. J. Dannenberg, S. Dapprich, A. D. Daniels, 
 O. Farkas, J. B. Foresman, J. V. Ortiz, J. Cioslowski, 
 and D. J. Fox, Gaussian, Inc., Wallingford CT, 2013.
 
 ******************************************
 Gaussian 09:  EM64L-G09RevE.01 30-Nov-2015
                 3-Aug-2016 
 ******************************************
 %NProcShared=4
 Will use up to    4 processors via shared memory.
 ------------------------------
 #p b3lyp/6-311++G(3df,2p) freq
 ------------------------------
 1/10=4,30=1,38=1/1,3;
 2/12=2,17=6,18=5,40=1/2;
 3/5=4,6=6,7=1216,11=2,16=1,25=1,30=1,71=2,74=-5,140=1/1,2,3;
 4//1;
 5/5=2,38=5,98=1/2;
 8/6=4,10=90,11=11/1;
 11/6=1,8=1,9=11,15=111,16=1/1,2,10;
 10/6=1/2;
 6/7=2,8=2,9=2,10=2,18=1,28=1/1;
 7/8=1,10=1,25=1/1,2,3,16;
 1/10=4,30=1/3;
 99//99;
 Leave Link    1 at Wed Aug  3 22:56:48 2016, MaxMem=           0 cpu:         0.3
 (Enter /home/proyectos/fulerenos/M3C-v2.0/M3C-deps_CCC/g09-AM64L-G09RevC.01/l101.exe)
 ---------
 b3lyp opt
 ---------
 Symbolic Z-matrix:
 Charge =  0 Multiplicity = 3
 S                     1.23968  -0.20497   0. 
 S                    -1.2295   -0.04421   0. 
 C                     0.08412   1.08933   0. 
 
 NAtoms=      3 NQM=        3 NQMF=       0 NMMI=      0 NMMIF=      0
                NMic=       0 NMicF=      0.
                    Isotopes and Nuclear Properties:
 (Nuclear quadrupole moments (NQMom) in fm**2, nuclear magnetic moments (NMagM)
  in nuclear magnetons)

  Atom         1           2           3
 IAtWgt=          32          32          12
 AtmWgt=  31.9720718  31.9720718  12.0000000
 NucSpn=           0           0           0
 AtZEff=   0.0000000   0.0000000   0.0000000
 NQMom=    0.0000000   0.0000000   0.0000000
 NMagM=    0.0000000   0.0000000   0.0000000
 AtZNuc=  16.0000000  16.0000000   6.0000000
 Leave Link  101 at Wed Aug  3 22:56:49 2016, MaxMem=    33554432 cpu:         0.2
 (Enter /home/proyectos/fulerenos/M3C-v2.0/M3C-deps_CCC/g09-AM64L-G09RevC.01/l103.exe)

 GradGradGradGradGradGradGradGradGradGradGradGradGradGradGradGradGradGrad
 Berny optimization.
 Initialization pass.
 Trust Radius=3.00D-01 FncErr=1.00D-07 GrdErr=1.00D-07
 Number of steps in this run=      2 maximum allowed number of steps=      2.
 GradGradGradGradGradGradGradGradGradGradGradGradGradGradGradGradGradGrad

 Leave Link  103 at Wed Aug  3 22:56:49 2016, MaxMem=    33554432 cpu:         0.1
 (Enter /home/proyectos/fulerenos/M3C-v2.0/M3C-deps_CCC/g09-AM64L-G09RevC.01/l202.exe)
                          Input orientation:                          
 ---------------------------------------------------------------------
 Center     Atomic      Atomic             Coordinates (Angstroms)
 Number     Number       Type             X           Y           Z
 ---------------------------------------------------------------------
      1         16           0        1.239675   -0.204974    0.000000
      2         16           0       -1.229502   -0.044208    0.000000
      3          6           0        0.084124    1.089325    0.000000
 ---------------------------------------------------------------------
                    Distance matrix (angstroms):
                    1          2          3
     1  S    0.000000
     2  S    2.474406   0.000000
     3  C    1.735082   1.735082   0.000000
 Stoichiometry    CS2(3)
 Framework group  C2V[C2(C),SGV(S2)]
 Deg. of freedom     2
 Full point group                 C2V     NOp   4
 Largest Abelian subgroup         C2V     NOp   4
 Largest concise Abelian subgroup C2      NOp   2
                         Standard orientation:                         
 ---------------------------------------------------------------------
 Center     Atomic      Atomic             Coordinates (Angstroms)
 Number     Number       Type             X           Y           Z
 ---------------------------------------------------------------------
      1         16           0        0.000000    1.237203   -0.192077
      2         16           0       -0.000000   -1.237203   -0.192077
      3          6           0        0.000000    0.000000    1.024410
 ---------------------------------------------------------------------
 Rotational constants (GHZ):     33.7998677      5.1633854      4.4791368
 Leave Link  202 at Wed Aug  3 22:56:49 2016, MaxMem=    33554432 cpu:         0.0
 (Enter /home/proyectos/fulerenos/M3C-v2.0/M3C-deps_CCC/g09-AM64L-G09RevC.01/l301.exe)
 Standard basis: 6-311++G(3df,2p) (5D, 7F)
 Ernie: Thresh=  0.10000D-02 Tol=  0.10000D-05 Strict=F.
 There are    58 symmetry adapted cartesian basis functions of A1  symmetry.
 There are    20 symmetry adapted cartesian basis functions of A2  symmetry.
 There are    26 symmetry adapted cartesian basis functions of B1  symmetry.
 There are    47 symmetry adapted cartesian basis functions of B2  symmetry.
 There are    49 symmetry adapted basis functions of A1  symmetry.
 There are    19 symmetry adapted basis functions of A2  symmetry.
 There are    24 symmetry adapted basis functions of B1  symmetry.
 There are    41 symmetry adapted basis functions of B2  symmetry.
   133 basis functions,   202 primitive gaussians,   151 cartesian basis functions
    20 alpha electrons       18 beta electrons
       nuclear repulsion energy       113.3057113169 Hartrees.
 IExCor=  402 DFT=T Ex+Corr=B3LYP ExCW=0 ScaHFX=  0.200000
 ScaDFX=  0.800000  0.720000  1.000000  0.810000 ScalE2=  1.000000  1.000000
 IRadAn=      0 IRanWt=     -1 IRanGd=            0 ICorTp=0 IEmpDi=  4
 NAtoms=    3 NActive=    3 NUniq=    2 SFac= 2.25D+00 NAtFMM=   60 NAOKFM=F Big=F
 Integral buffers will be    131072 words long.
 Raffenetti 2 integral format.
 Two-electron integral symmetry is turned on.
 Leave Link  301 at Wed Aug  3 22:56:49 2016, MaxMem=    33554432 cpu:         0.2
 (Enter /home/proyectos/fulerenos/M3C-v2.0/M3C-deps_CCC/g09-AM64L-G09RevC.01/l302.exe)
 NPDir=0 NMtPBC=     1 NCelOv=     1 NCel=       1 NClECP=     1 NCelD=      1
         NCelK=      1 NCelE2=     1 NClLst=     1 CellRange=     0.0.
 One-electron integrals computed using PRISM.
 One-electron integral symmetry used in STVInt
 NBasis=   133 RedAO= T EigKep=  7.61D-04  NBF=    49    19    24    41
 NBsUse=   133 1.00D-06 EigRej= -1.00D+00 NBFU=    49    19    24    41
 Precomputing XC quadrature grid using
 IXCGrd= 4 IRadAn=           0 IRanWt=          -1 IRanGd=           0 AccXCQ= 0.00D+00.
 Generated NRdTot=       0 NPtTot=           0 NUsed=           0 NTot=          32
 NSgBfM=   151   151   151   151   151 MxSgAt=     3 MxSgA2=     3.
 Leave Link  302 at Wed Aug  3 22:56:49 2016, MaxMem=    33554432 cpu:         0.9
 (Enter /home/proyectos/fulerenos/M3C-v2.0/M3C-deps_CCC/g09-AM64L-G09RevC.01/l303.exe)
 DipDrv:  MaxL=1.
 Leave Link  303 at Wed Aug  3 22:56:49 2016, MaxMem=    33554432 cpu:         0.1
 (Enter /home/proyectos/fulerenos/M3C-v2.0/M3C-deps_CCC/g09-AM64L-G09RevC.01/l401.exe)
 ExpMin= 4.05D-02 ExpMax= 9.34D+04 ExpMxC= 3.17D+03 IAcc=2 IRadAn=         4 AccDes= 0.00D+00
 Harris functional with IExCor=  402 and IRadAn=       4 diagonalized for initial guess.
 HarFok:  IExCor=  402 AccDes= 0.00D+00 IRadAn=         4 IDoV= 1 UseB2=F ITyADJ=14
 ICtDFT=  3500011 ScaDFX=  1.000000  1.000000  1.000000  1.000000
 FoFCou: FMM=F IPFlag=           0 FMFlag=      100000 FMFlg1=           0
         NFxFlg=           0 DoJE=T BraDBF=F KetDBF=T FulRan=T
         wScrn=  0.000000 ICntrl=     500 IOpCl=  0 I1Cent=   200000004 NGrid=           0
         NMat0=    1 NMatS0=      1 NMatT0=    0 NMatD0=    1 NMtDS0=    0 NMtDT0=    0
 Petite list used in FoFCou.
 Harris En= -834.292888580108    
 JPrj=0 DoOrth=F DoCkMO=F.
 Initial guess orbital symmetries:
 Alpha Orbitals:
       Occupied  (B2) (A1) (A1) (B2) (A1) (A1) (B2) (A1) (B2) (B1)
                 (A2) (A1) (B2) (A1) (B2) (A1) (B1) (A1) (A2) (B2)
       Virtual   (B1) (A1) (B2) (A1) (B1) (A1) (B2) (B2) (A2) (A1)
                 (A1) (B1) (B2) (A1) (B2) (B1) (A2) (A1) (A1) (B2)
                 (B1) (B2) (A1) (A2) (B2) (B1) (A1) (B2) (A2) (A1)
                 (B1) (A1) (B2) (A2) (B2) (A1) (A1) (B1) (B2) (A1)
                 (B2) (A1) (A2) (B1) (B1) (B2) (A1) (B2) (A1) (A2)
                 (B2) (A1) (B1) (A1) (A2) (A1) (B1) (B1) (B2) (A1)
                 (A2) (B2) (A2) (B1) (A1) (B2) (A1) (B2) (A2) (A1)
                 (B2) (B1) (A2) (A1) (B2) (A1) (B2) (B1) (A1) (B1)
                 (B2) (A1) (B1) (B2) (A2) (B2) (A1) (B1) (A2) (A1)
                 (B2) (B1) (A2) (B2) (A1) (A1) (B2) (B1) (A2) (A1)
                 (A1) (B2) (A1) (B2) (B1) (A2) (A1) (B2) (A1) (B2)
                 (A1) (A1) (B2)
 Beta  Orbitals:
       Occupied  (B2) (A1) (A1) (B2) (A1) (A1) (B2) (A1) (B2) (B1)
                 (A2) (A1) (B2) (A1) (B2) (A1) (B1) (A1)
       Virtual   (A2) (B2) (B1) (A1) (B2) (A1) (B1) (A1) (B2) (B2)
                 (A2) (A1) (A1) (B1) (B2) (A1) (B2) (B1) (A2) (A1)
                 (A1) (B2) (B1) (B2) (A1) (A2) (B2) (B1) (A1) (B2)
                 (A2) (A1) (B1) (A1) (B2) (A2) (B2) (A1) (A1) (B1)
                 (B2) (A1) (B2) (A1) (A2) (B1) (B1) (B2) (A1) (B2)
                 (A1) (A2) (B2) (A1) (B1) (A1) (A2) (A1) (B1) (B1)
                 (B2) (A1) (A2) (B2) (A2) (B1) (A1) (B2) (A1) (B2)
                 (A2) (A1) (B2) (B1) (A2) (A1) (B2) (A1) (B2) (B1)
                 (A1) (B1) (B2) (A1) (B1) (B2) (A2) (B2) (A1) (B1)
                 (A2) (A1) (B2) (B1) (A2) (B2) (A1) (A1) (B2) (B1)
                 (A2) (A1) (A1) (B2) (A1) (B2) (B1) (A2) (A1) (B2)
                 (A1) (B2) (A1) (A1) (B2)
 The electronic state of the initial guess is 3-B1.
 Initial guess <Sx>= 0.0000 <Sy>= 0.0000 <Sz>= 1.0000 <S**2>= 2.0000 S= 1.0000
 Leave Link  401 at Wed Aug  3 22:56:49 2016, MaxMem=    33554432 cpu:         1.0
 (Enter /home/proyectos/fulerenos/M3C-v2.0/M3C-deps_CCC/g09-AM64L-G09RevC.01/l502.exe)
 UHF open shell SCF:
 Using DIIS extrapolation, IDIIS=  1040.
 Integral symmetry usage will be decided dynamically.
 IVT=       89213 IEndB=       89213 NGot=    33554432 MDV=    33504812
 LenX=    33504812 LenY=    33481570
 Requested convergence on RMS density matrix=1.00D-08 within 128 cycles.
 Requested convergence on MAX density matrix=1.00D-06.
 Requested convergence on             energy=1.00D-06.
 No special actions if energy rises.
 Fock matrices will be formed incrementally for  20 cycles.

 Cycle   1  Pass 1  IDiag  1:
 FoFJK:  IHMeth= 1 ICntrl=       0 DoSepK=F KAlg= 0 I1Cent=   0 FoldK=F
 IRaf= 960000000 NMat=   1 IRICut=       1 DoRegI=T DoRafI=F ISym2E= 1.
 FoFCou: FMM=F IPFlag=           0 FMFlag=      100000 FMFlg1=           0
         NFxFlg=           0 DoJE=F BraDBF=F KetDBF=F FulRan=T
         wScrn=  0.000000 ICntrl=       0 IOpCl=  1 I1Cent=           0 NGrid=           0
         NMat0=    1 NMatS0=      1 NMatT0=    0 NMatD0=    1 NMtDS0=    0 NMtDT0=    0
 Petite list used in FoFCou.
 E= -834.321683097614    
 DIIS: error= 3.81D-02 at cycle   1 NSaved=   1.
 NSaved= 1 IEnMin= 1 EnMin= -834.321683097614     IErMin= 1 ErrMin= 3.81D-02
 ErrMax= 3.81D-02  0.00D+00 EMaxC= 1.00D-01 BMatC= 4.15D-01 BMatP= 4.15D-01
 IDIUse=3 WtCom= 6.19D-01 WtEn= 3.81D-01
 Coeff-Com:  0.100D+01
 Coeff-En:   0.100D+01
 Coeff:      0.100D+01
 Gap=     0.159 Goal=   None    Shift=    0.000
 Gap=     0.049 Goal=   None    Shift=    0.000
 GapD=    0.049 DampG=0.250 DampE=0.500 DampFc=0.2500 IDamp=-1.
 Damping current iteration by 2.50D-01
 RMSDP=6.75D-03 MaxDP=2.37D-01              OVMax= 4.88D-01

 Cycle   2  Pass 1  IDiag  1:
 RMSU=  1.68D-03    CP:  9.94D-01
 E= -834.350624909931     Delta-E=       -0.028941812317 Rises=F Damp=T
 DIIS: error= 1.22D-02 at cycle   2 NSaved=   2.
 NSaved= 2 IEnMin= 2 EnMin= -834.350624909931     IErMin= 2 ErrMin= 1.22D-02
 ErrMax= 1.22D-02  0.00D+00 EMaxC= 1.00D-01 BMatC= 6.86D-02 BMatP= 4.15D-01
 IDIUse=3 WtCom= 8.78D-01 WtEn= 1.22D-01
 Coeff-Com: -0.188D+00 0.119D+01
 Coeff-En:   0.216D+00 0.784D+00
 Coeff:     -0.138D+00 0.114D+01
 Gap=     0.125 Goal=   None    Shift=    0.000
 Gap=     0.024 Goal=   None    Shift=    0.000
 RMSDP=1.76D-03 MaxDP=6.04D-02 DE=-2.89D-02 OVMax= 2.50D-01

 Cycle   3  Pass 1  IDiag  1:
 RMSU=  1.15D-03    CP:  1.01D+00  2.27D-01
 E= -834.387597918426     Delta-E=       -0.036973008494 Rises=F Damp=F
 DIIS: error= 1.78D-02 at cycle   3 NSaved=   3.
 NSaved= 3 IEnMin= 3 EnMin= -834.387597918426     IErMin= 2 ErrMin= 1.22D-02
 ErrMax= 1.78D-02  0.00D+00 EMaxC= 1.00D-01 BMatC= 5.05D-02 BMatP= 6.86D-02
 IDIUse=3 WtCom= 8.22D-01 WtEn= 1.78D-01
 Coeff-Com: -0.353D+00 0.594D+00 0.759D+00
 Coeff-En:   0.000D+00 0.000D+00 0.100D+01
 Coeff:     -0.290D+00 0.488D+00 0.802D+00
 Gap=     0.143 Goal=   None    Shift=    0.000
 Gap=     0.012 Goal=   None    Shift=    0.000
 RMSDP=8.19D-04 MaxDP=2.64D-02 DE=-3.70D-02 OVMax= 8.40D-02

 Cycle   4  Pass 1  IDiag  1:
 RMSU=  6.39D-04    CP:  1.01D+00  4.68D-01  1.27D+00
 E= -834.402163086096     Delta-E=       -0.014565167671 Rises=F Damp=F
 DIIS: error= 5.73D-03 at cycle   4 NSaved=   4.
 NSaved= 4 IEnMin= 4 EnMin= -834.402163086096     IErMin= 4 ErrMin= 5.73D-03
 ErrMax= 5.73D-03  0.00D+00 EMaxC= 1.00D-01 BMatC= 4.26D-03 BMatP= 5.05D-02
 IDIUse=3 WtCom= 9.43D-01 WtEn= 5.73D-02
 Coeff-Com: -0.957D-01 0.137D+00 0.341D+00 0.617D+00
 Coeff-En:   0.000D+00 0.000D+00 0.865D-02 0.991D+00
 Coeff:     -0.902D-01 0.129D+00 0.322D+00 0.638D+00
 Gap=     0.141 Goal=   None    Shift=    0.000
 Gap=     0.028 Goal=   None    Shift=    0.000
 RMSDP=2.60D-04 MaxDP=1.03D-02 DE=-1.46D-02 OVMax= 2.75D-02

 Cycle   5  Pass 1  IDiag  1:
 RMSU=  1.97D-04    CP:  1.01D+00  4.27D-01  1.27D+00  7.63D-01
 E= -834.403350116275     Delta-E=       -0.001187030179 Rises=F Damp=F
 DIIS: error= 2.52D-03 at cycle   5 NSaved=   5.
 NSaved= 5 IEnMin= 5 EnMin= -834.403350116275     IErMin= 5 ErrMin= 2.52D-03
 ErrMax= 2.52D-03  0.00D+00 EMaxC= 1.00D-01 BMatC= 6.12D-04 BMatP= 4.26D-03
 IDIUse=3 WtCom= 9.75D-01 WtEn= 2.52D-02
 Coeff-Com: -0.122D-01 0.118D-01-0.221D-01 0.150D+00 0.872D+00
 Coeff-En:   0.000D+00 0.000D+00 0.000D+00 0.000D+00 0.100D+01
 Coeff:     -0.118D-01 0.115D-01-0.215D-01 0.146D+00 0.876D+00
 Gap=     0.144 Goal=   None    Shift=    0.000
 Gap=     0.033 Goal=   None    Shift=    0.000
 RMSDP=1.17D-04 MaxDP=4.08D-03 DE=-1.19D-03 OVMax= 1.43D-02

 Cycle   6  Pass 1  IDiag  1:
 RMSU=  7.46D-05    CP:  1.01D+00  4.51D-01  1.30D+00  8.56D-01  1.24D+00
 E= -834.403613517221     Delta-E=       -0.000263400946 Rises=F Damp=F
 DIIS: error= 5.58D-04 at cycle   6 NSaved=   6.
 NSaved= 6 IEnMin= 6 EnMin= -834.403613517221     IErMin= 6 ErrMin= 5.58D-04
 ErrMax= 5.58D-04  0.00D+00 EMaxC= 1.00D-01 BMatC= 5.91D-05 BMatP= 6.12D-04
 IDIUse=3 WtCom= 9.94D-01 WtEn= 5.58D-03
 Coeff-Com: -0.744D-02 0.107D-01-0.286D-01-0.818D-01 0.159D+00 0.948D+00
 Coeff-En:   0.000D+00 0.000D+00 0.000D+00 0.000D+00 0.000D+00 0.100D+01
 Coeff:     -0.740D-02 0.106D-01-0.285D-01-0.814D-01 0.159D+00 0.948D+00
 Gap=     0.145 Goal=   None    Shift=    0.000
 Gap=     0.035 Goal=   None    Shift=    0.000
 RMSDP=5.32D-05 MaxDP=1.59D-03 DE=-2.63D-04 OVMax= 6.41D-03

 Cycle   7  Pass 1  IDiag  1:
 RMSU=  3.26D-05    CP:  1.01D+00  4.56D-01  1.30D+00  8.57D-01  1.44D+00
                    CP:  1.15D+00
 E= -834.403654126527     Delta-E=       -0.000040609305 Rises=F Damp=F
 DIIS: error= 3.47D-04 at cycle   7 NSaved=   7.
 NSaved= 7 IEnMin= 7 EnMin= -834.403654126527     IErMin= 7 ErrMin= 3.47D-04
 ErrMax= 3.47D-04  0.00D+00 EMaxC= 1.00D-01 BMatC= 1.67D-05 BMatP= 5.91D-05
 IDIUse=3 WtCom= 9.97D-01 WtEn= 3.47D-03
 Coeff-Com: -0.254D-02 0.407D-02-0.110D-01-0.592D-01-0.106D+00 0.336D+00
 Coeff-Com:  0.839D+00
 Coeff-En:   0.000D+00 0.000D+00 0.000D+00 0.000D+00 0.000D+00 0.000D+00
 Coeff-En:   0.100D+01
 Coeff:     -0.253D-02 0.405D-02-0.109D-01-0.590D-01-0.106D+00 0.335D+00
 Coeff:      0.839D+00
 Gap=     0.146 Goal=   None    Shift=    0.000
 Gap=     0.035 Goal=   None    Shift=    0.000
 RMSDP=2.94D-05 MaxDP=1.04D-03 DE=-4.06D-05 OVMax= 3.30D-03

 Cycle   8  Pass 1  IDiag  1:
 RMSU=  1.18D-05    CP:  1.01D+00  4.60D-01  1.31D+00  8.73D-01  1.53D+00
                    CP:  1.32D+00  1.01D+00
 E= -834.403664124812     Delta-E=       -0.000009998285 Rises=F Damp=F
 DIIS: error= 9.79D-05 at cycle   8 NSaved=   8.
 NSaved= 8 IEnMin= 8 EnMin= -834.403664124812     IErMin= 8 ErrMin= 9.79D-05
 ErrMax= 9.79D-05  0.00D+00 EMaxC= 1.00D-01 BMatC= 1.18D-06 BMatP= 1.67D-05
 IDIUse=1 WtCom= 1.00D+00 WtEn= 0.00D+00
 Coeff-Com:  0.123D-02-0.159D-02-0.295D-02 0.187D-02-0.295D-01-0.690D-01
 Coeff-Com:  0.816D-01 0.102D+01
 Coeff:      0.123D-02-0.159D-02-0.295D-02 0.187D-02-0.295D-01-0.690D-01
 Coeff:      0.816D-01 0.102D+01
 Gap=     0.146 Goal=   None    Shift=    0.000
 Gap=     0.035 Goal=   None    Shift=    0.000
 RMSDP=1.00D-05 MaxDP=3.25D-04 DE=-1.00D-05 OVMax= 1.23D-03

 Cycle   9  Pass 1  IDiag  1:
 RMSU=  3.18D-06    CP:  1.01D+00  4.62D-01  1.31D+00  8.79D-01  1.56D+00
                    CP:  1.37D+00  1.12D+00  1.11D+00
 E= -834.403664978291     Delta-E=       -0.000000853479 Rises=F Damp=F
 DIIS: error= 1.87D-05 at cycle   9 NSaved=   9.
 NSaved= 9 IEnMin= 9 EnMin= -834.403664978291     IErMin= 9 ErrMin= 1.87D-05
 ErrMax= 1.87D-05  0.00D+00 EMaxC= 1.00D-01 BMatC= 5.31D-08 BMatP= 1.18D-06
 IDIUse=1 WtCom= 1.00D+00 WtEn= 0.00D+00
 Coeff-Com:  0.546D-04-0.106D-03 0.204D-02 0.518D-02 0.416D-02-0.243D-01
 Coeff-Com: -0.511D-01 0.381D-01 0.103D+01
 Coeff:      0.546D-04-0.106D-03 0.204D-02 0.518D-02 0.416D-02-0.243D-01
 Coeff:     -0.511D-01 0.381D-01 0.103D+01
 Gap=     0.146 Goal=   None    Shift=    0.000
 Gap=     0.035 Goal=   None    Shift=    0.000
 RMSDP=1.23D-06 MaxDP=3.37D-05 DE=-8.53D-07 OVMax= 1.57D-04

 Cycle  10  Pass 1  IDiag  1:
 RMSU=  6.13D-07    CP:  1.01D+00  4.61D-01  1.31D+00  8.79D-01  1.56D+00
                    CP:  1.38D+00  1.13D+00  1.18D+00  1.11D+00
 E= -834.403665003248     Delta-E=       -0.000000024957 Rises=F Damp=F
 DIIS: error= 2.02D-06 at cycle  10 NSaved=  10.
 NSaved=10 IEnMin=10 EnMin= -834.403665003248     IErMin=10 ErrMin= 2.02D-06
 ErrMax= 2.02D-06  0.00D+00 EMaxC= 1.00D-01 BMatC= 1.49D-09 BMatP= 5.31D-08
 IDIUse=1 WtCom= 1.00D+00 WtEn= 0.00D+00
 Coeff-Com:  0.410D-04-0.681D-04 0.406D-04 0.137D-03 0.113D-02 0.173D-02
 Coeff-Com: -0.185D-03-0.458D-01 0.427D-02 0.104D+01
 Coeff:      0.410D-04-0.681D-04 0.406D-04 0.137D-03 0.113D-02 0.173D-02
 Coeff:     -0.185D-03-0.458D-01 0.427D-02 0.104D+01
 Gap=     0.146 Goal=   None    Shift=    0.000
 Gap=     0.035 Goal=   None    Shift=    0.000
 RMSDP=2.51D-07 MaxDP=6.03D-06 DE=-2.50D-08 OVMax= 2.06D-05

 Cycle  11  Pass 1  IDiag  1:
 RMSU=  1.31D-07    CP:  1.01D+00  4.61D-01  1.31D+00  8.79D-01  1.56D+00
                    CP:  1.38D+00  1.13D+00  1.18D+00  1.15D+00  1.19D+00
 E= -834.403665004028     Delta-E=       -0.000000000780 Rises=F Damp=F
 DIIS: error= 5.80D-07 at cycle  11 NSaved=  11.
 NSaved=11 IEnMin=11 EnMin= -834.403665004028     IErMin=11 ErrMin= 5.80D-07
 ErrMax= 5.80D-07  0.00D+00 EMaxC= 1.00D-01 BMatC= 8.46D-11 BMatP= 1.49D-09
 IDIUse=1 WtCom= 1.00D+00 WtEn= 0.00D+00
 Coeff-Com:  0.748D-05-0.108D-04-0.754D-04-0.143D-03-0.167D-03 0.521D-03
 Coeff-Com:  0.148D-02 0.365D-02-0.507D-01-0.888D-01 0.113D+01
 Coeff:      0.748D-05-0.108D-04-0.754D-04-0.143D-03-0.167D-03 0.521D-03
 Coeff:      0.148D-02 0.365D-02-0.507D-01-0.888D-01 0.113D+01
 Gap=     0.146 Goal=   None    Shift=    0.000
 Gap=     0.035 Goal=   None    Shift=    0.000
 RMSDP=6.64D-08 MaxDP=1.73D-06 DE=-7.80D-10 OVMax= 4.41D-06

 Cycle  12  Pass 1  IDiag  1:
 RMSU=  2.66D-08    CP:  1.01D+00  4.61D-01  1.31D+00  8.79D-01  1.56D+00
                    CP:  1.38D+00  1.13D+00  1.18D+00  1.15D+00  1.25D+00
                    CP:  1.23D+00
 E= -834.403665004071     Delta-E=       -0.000000000043 Rises=F Damp=F
 DIIS: error= 1.62D-07 at cycle  12 NSaved=  12.
 NSaved=12 IEnMin=12 EnMin= -834.403665004071     IErMin=12 ErrMin= 1.62D-07
 ErrMax= 1.62D-07  0.00D+00 EMaxC= 1.00D-01 BMatC= 6.59D-12 BMatP= 8.46D-11
 IDIUse=1 WtCom= 1.00D+00 WtEn= 0.00D+00
 Coeff-Com: -0.105D-05 0.175D-05 0.288D-05-0.185D-04-0.420D-04 0.432D-04
 Coeff-Com:  0.486D-04 0.140D-02-0.350D-02-0.339D-01 0.629D-01 0.973D+00
 Coeff:     -0.105D-05 0.175D-05 0.288D-05-0.185D-04-0.420D-04 0.432D-04
 Coeff:      0.486D-04 0.140D-02-0.350D-02-0.339D-01 0.629D-01 0.973D+00
 Gap=     0.146 Goal=   None    Shift=    0.000
 Gap=     0.035 Goal=   None    Shift=    0.000
 RMSDP=1.45D-08 MaxDP=4.59D-07 DE=-4.31D-11 OVMax= 9.54D-07

 Cycle  13  Pass 1  IDiag  1:
 RMSU=  8.09D-09    CP:  1.01D+00  4.61D-01  1.31D+00  8.79D-01  1.56D+00
                    CP:  1.38D+00  1.13D+00  1.18D+00  1.15D+00  1.26D+00
                    CP:  1.27D+00  1.04D+00
 E= -834.403665004077     Delta-E=       -0.000000000005 Rises=F Damp=F
 DIIS: error= 2.50D-08 at cycle  13 NSaved=  13.
 NSaved=13 IEnMin=13 EnMin= -834.403665004077     IErMin=13 ErrMin= 2.50D-08
 ErrMax= 2.50D-08  0.00D+00 EMaxC= 1.00D-01 BMatC= 2.74D-13 BMatP= 6.59D-12
 IDIUse=1 WtCom= 1.00D+00 WtEn= 0.00D+00
 Coeff-Com:  0.223D-06-0.138D-06 0.283D-05 0.656D-05 0.298D-05-0.307D-04
 Coeff-Com: -0.980D-04 0.119D-03 0.285D-02-0.359D-03-0.712D-01 0.174D+00
 Coeff-Com:  0.895D+00
 Coeff:      0.223D-06-0.138D-06 0.283D-05 0.656D-05 0.298D-05-0.307D-04
 Coeff:     -0.980D-04 0.119D-03 0.285D-02-0.359D-03-0.712D-01 0.174D+00
 Coeff:      0.895D+00
 Gap=     0.146 Goal=   None    Shift=    0.000
 Gap=     0.035 Goal=   None    Shift=    0.000
 RMSDP=4.21D-09 MaxDP=1.42D-07 DE=-5.23D-12 OVMax= 2.21D-07

 SCF Done:  E(UB3LYP) =  -834.403665004     A.U. after   13 cycles
            NFock= 13  Conv=0.42D-08     -V/T= 2.0015
 <Sx>= 0.0000 <Sy>= 0.0000 <Sz>= 1.0000 <S**2>= 2.0363 S= 1.0120
 <L.S>= 0.000000000000E+00
 KE= 8.331480689453D+02 PE=-2.208700290736D+03 EE= 4.278428454701D+02
 Annihilation of the first spin contaminant:
 S**2 before annihilation     2.0363,   after     2.0003
 Leave Link  502 at Wed Aug  3 22:57:02 2016, MaxMem=    33554432 cpu:        51.8
 (Enter /home/proyectos/fulerenos/M3C-v2.0/M3C-deps_CCC/g09-AM64L-G09RevC.01/l801.exe)
 DoSCS=F DFT=T ScalE2(SS,OS)=  1.000000  1.000000
 Range of M.O.s used for correlation:     1   133
 NBasis=   133 NAE=    20 NBE=    18 NFC=     0 NFV=     0
 NROrb=    133 NOA=    20 NOB=    18 NVA=   113 NVB=   115

 **** Warning!!: The largest alpha MO coefficient is  0.20305369D+02


 **** Warning!!: The largest beta MO coefficient is  0.22081614D+02


 **** Warning!!: The smallest beta delta epsilon is  0.35165846D-01

 Leave Link  801 at Wed Aug  3 22:57:02 2016, MaxMem=    33554432 cpu:         0.1
 (Enter /home/proyectos/fulerenos/M3C-v2.0/M3C-deps_CCC/g09-AM64L-G09RevC.01/l1101.exe)
 Using compressed storage, NAtomX=     3.
 Will process      4 centers per pass.
 Leave Link 1101 at Wed Aug  3 22:57:03 2016, MaxMem=    33554432 cpu:         1.1
 (Enter /home/proyectos/fulerenos/M3C-v2.0/M3C-deps_CCC/g09-AM64L-G09RevC.01/l1102.exe)
 Symmetrizing basis deriv contribution to polar:
 IMax=3 JMax=2 DiffMx= 0.00D+00
 Leave Link 1102 at Wed Aug  3 22:57:03 2016, MaxMem=    33554432 cpu:         0.1
 (Enter /home/proyectos/fulerenos/M3C-v2.0/M3C-deps_CCC/g09-AM64L-G09RevC.01/l1110.exe)
 Forming Gx(P) for the SCF density, NAtomX=     3.
 Integral derivatives from FoFJK, PRISM(SPDF).
 Do as many integral derivatives as possible in FoFJK.
 G2DrvN: MDV=      33554304.
 G2DrvN: will do     4 centers at a time, making    1 passes.
 Calling FoFCou, ICntrl=  3107 FMM=F I1Cent=   0 AccDes= 0.00D+00.
 FoFJK:  IHMeth= 1 ICntrl=    3107 DoSepK=F KAlg= 0 I1Cent=   0 FoldK=F
 IRaf=         0 NMat=   1 IRICut=       1 DoRegI=T DoRafI=F ISym2E= 1.
 FoFCou: FMM=F IPFlag=           0 FMFlag=      100000 FMFlg1=           0
         NFxFlg=           0 DoJE=F BraDBF=F KetDBF=F FulRan=T
         wScrn=  0.000000 ICntrl=    3107 IOpCl=  1 I1Cent=           0 NGrid=           0
         NMat0=    1 NMatS0=      1 NMatT0=    0 NMatD0=    1 NMtDS0=    0 NMtDT0=    0
 Petite list used in FoFCou.
 End of G2Drv F.D. properties file   721 does not exist.
 End of G2Drv F.D. properties file   722 does not exist.
 End of G2Drv F.D. properties file   788 does not exist.
 Leave Link 1110 at Wed Aug  3 22:57:09 2016, MaxMem=    33554432 cpu:        21.9
 (Enter /home/proyectos/fulerenos/M3C-v2.0/M3C-deps_CCC/g09-AM64L-G09RevC.01/l1002.exe)
 Minotr:  UHF open shell wavefunction.
          IDoAtm=111
          Direct CPHF calculation.
          Differentiating once with respect to electric field.
                with respect to dipole field.
          Differentiating once with respect to nuclear coordinates.
          Using symmetry in CPHF.
          Requested convergence is 1.0D-08 RMS, and 1.0D-07 maximum.
          Secondary convergence is 1.0D-12 RMS, and 1.0D-12 maximum.
          NewPWx=T KeepS1=F KeepF1=F KeepIn=T MapXYZ=F SortEE=F KeepMc=T.
          MDV=      33554132 using IRadAn=       2.
 Generate precomputed XC quadrature information.
          Solving linear equations simultaneously, MaxMat=       0.
 FoFJK:  IHMeth= 1 ICntrl=       0 DoSepK=F KAlg= 0 I1Cent=   0 FoldK=F
 IRaf= 960000000 NMat=   9 IRICut=      22 DoRegI=T DoRafI=T ISym2E= 2.
 FoFCou: FMM=F IPFlag=           0 FMFlag=      100000 FMFlg1=           0
         NFxFlg=           0 DoJE=F BraDBF=F KetDBF=F FulRan=T
         wScrn=  0.000000 ICntrl=       0 IOpCl=  1 I1Cent=           0 NGrid=           0
         NMat0=    9 NMatS0=      9 NMatT0=    0 NMatD0=    9 NMtDS0=    0 NMtDT0=    0
 Integrals replicated using symmetry in FoFCou.
          There are     9 degrees of freedom in the 1st order CPHF.  IDoFFX=4 NUNeed=     9.
      9 vectors produced by pass  0 Test12= 4.81D-14 1.11D-08 XBig12= 5.43D+02 1.45D+01.
 AX will form     9 AO Fock derivatives at one time.
      9 vectors produced by pass  1 Test12= 4.81D-14 1.11D-08 XBig12= 2.70D+02 5.55D+00.
      9 vectors produced by pass  2 Test12= 4.81D-14 1.11D-08 XBig12= 3.76D+01 2.14D+00.
      9 vectors produced by pass  3 Test12= 4.81D-14 1.11D-08 XBig12= 3.35D+00 7.98D-01.
      9 vectors produced by pass  4 Test12= 4.81D-14 1.11D-08 XBig12= 5.02D-02 5.86D-02.
      9 vectors produced by pass  5 Test12= 4.81D-14 1.11D-08 XBig12= 8.50D-04 8.29D-03.
      9 vectors produced by pass  6 Test12= 4.81D-14 1.11D-08 XBig12= 1.20D-05 7.24D-04.
      9 vectors produced by pass  7 Test12= 4.81D-14 1.11D-08 XBig12= 2.32D-07 1.61D-04.
      9 vectors produced by pass  8 Test12= 4.81D-14 1.11D-08 XBig12= 3.33D-09 1.71D-05.
      4 vectors produced by pass  9 Test12= 4.81D-14 1.11D-08 XBig12= 3.27D-11 1.29D-06.
      2 vectors produced by pass 10 Test12= 4.81D-14 1.11D-08 XBig12= 3.29D-13 1.56D-07.
 InvSVY:  IOpt=1 It=  1 EMax= 7.72D-15
 Solved reduced A of dimension    87 with     9 vectors.
 FullF1:  Do perturbations    1 to     9.
 Isotropic polarizability for W=    0.000000       56.85 Bohr**3.
 End of Minotr F.D. properties file   721 does not exist.
 End of Minotr F.D. properties file   722 does not exist.
 End of Minotr F.D. properties file   788 does not exist.
 Leave Link 1002 at Wed Aug  3 22:57:43 2016, MaxMem=    33554432 cpu:       136.9
 (Enter /home/proyectos/fulerenos/M3C-v2.0/M3C-deps_CCC/g09-AM64L-G09RevC.01/l601.exe)
 Copying SCF densities to generalized density rwf, IOpCl= 1 IROHF=0.

 **********************************************************************

            Population analysis using the SCF density.

 **********************************************************************

 Orbital symmetries:
 Alpha Orbitals:
       Occupied  (B2) (A1) (A1) (B2) (A1) (A2) (B1) (A1) (B2) (B2)
                 (A1) (A1) (B2) (A1) (A1) (B1) (B2) (A2) (B2) (A1)
       Virtual   (B1) (A1) (A1) (B2) (B1) (A1) (B2) (A2) (A1) (B2)
                 (A1) (B1) (B2) (A1) (B2) (B1) (A1) (A2) (A1) (B2)
                 (B1) (B2) (A2) (A1) (B2) (B1) (A1) (B2) (A2) (A1)
                 (B1) (A1) (B2) (A2) (B2) (A1) (A1) (B1) (B2) (A1)
                 (B2) (A1) (A2) (B1) (B1) (B2) (A2) (B2) (A1) (A1)
                 (B2) (A1) (B1) (A1) (A2) (A1) (B1) (B1) (B2) (A1)
                 (A2) (B2) (A2) (B1) (A1) (B2) (A1) (B2) (A2) (A1)
                 (B2) (B1) (A2) (A1) (B2) (A1) (B2) (B1) (B1) (A1)
                 (B2) (B1) (A1) (B2) (A2) (B2) (A1) (B1) (A2) (A1)
                 (B2) (B1) (A2) (B2) (A1) (A1) (B2) (B1) (A2) (A1)
                 (A1) (B2) (A1) (B2) (B1) (A2) (A1) (B2) (A1) (B2)
                 (A1) (A1) (B2)
 Beta  Orbitals:
       Occupied  (B2) (A1) (A1) (B2) (A1) (A1) (B2) (B1) (A2) (A1)
                 (B2) (A1) (B2) (A1) (B2) (A1) (B1) (A1)
       Virtual   (A2) (B2) (B1) (A1) (A1) (B2) (B1) (A1) (B2) (A2)
                 (A1) (B2) (A1) (B1) (B2) (A1) (B2) (B1) (A1) (A2)
                 (A1) (B2) (B1) (B2) (A1) (A2) (B1) (B2) (A1) (B2)
                 (A2) (A1) (B1) (A1) (B2) (A2) (A1) (B2) (A1) (B1)
                 (B2) (A1) (B2) (A1) (A2) (B1) (B1) (B2) (A1) (B2)
                 (A1) (A2) (B2) (A1) (B1) (A1) (A2) (A1) (B1) (B1)
                 (B2) (A1) (A2) (B2) (A2) (B1) (A1) (B2) (A1) (B2)
                 (A2) (A1) (B2) (B1) (A2) (A1) (B2) (A1) (B2) (B1)
                 (B1) (A1) (B2) (B1) (A1) (B2) (A2) (B2) (A1) (B1)
                 (A2) (A1) (B2) (B1) (A2) (B2) (A1) (A1) (B2) (B1)
                 (A2) (A1) (A1) (B2) (A1) (B2) (B1) (A2) (A1) (B2)
                 (A1) (B2) (A1) (A1) (B2)
 The electronic state is 3-B1.
 Alpha  occ. eigenvalues --  -88.92084 -88.92084 -10.25963  -8.00384  -8.00381
 Alpha  occ. eigenvalues --   -5.96885  -5.96885  -5.96556  -5.96554  -5.96095
 Alpha  occ. eigenvalues --   -5.96095  -0.87997  -0.73424  -0.55302  -0.40840
 Alpha  occ. eigenvalues --   -0.40322  -0.40118  -0.31484  -0.25279  -0.25220
 Alpha virt. eigenvalues --   -0.10646  -0.00893   0.01031   0.01474   0.03918
 Alpha virt. eigenvalues --    0.04599   0.05590   0.07020   0.08192   0.08197
 Alpha virt. eigenvalues --    0.09032   0.09741   0.11835   0.14566   0.14961
 Alpha virt. eigenvalues --    0.15668   0.20721   0.21112   0.22765   0.25645
 Alpha virt. eigenvalues --    0.27076   0.27396   0.28770   0.29539   0.30896
 Alpha virt. eigenvalues --    0.31145   0.35012   0.36140   0.37312   0.41670
 Alpha virt. eigenvalues --    0.49968   0.51178   0.51912   0.57468   0.59959
 Alpha virt. eigenvalues --    0.60137   0.64806   0.68585   0.79272   0.79980
 Alpha virt. eigenvalues --    0.88825   0.92386   0.93322   0.94244   0.95450
 Alpha virt. eigenvalues --    0.97953   0.98010   0.98607   0.98749   1.00459
 Alpha virt. eigenvalues --    1.04068   1.05352   1.37051   1.43341   1.47807
 Alpha virt. eigenvalues --    1.48412   1.50881   1.56001   1.57868   1.58279
 Alpha virt. eigenvalues --    1.59572   1.60439   1.62928   1.63985   1.70529
 Alpha virt. eigenvalues --    1.74141   1.78673   1.84747   1.85675   1.90963
 Alpha virt. eigenvalues --    1.95724   2.02209   2.04353   2.14939   2.28680
 Alpha virt. eigenvalues --    2.29947   2.45288   2.79162   2.97933   2.98983
 Alpha virt. eigenvalues --    3.02371   3.18733   3.18757   3.21488   3.26979
 Alpha virt. eigenvalues --    3.41652   3.44958   4.56111   4.56582   4.57193
 Alpha virt. eigenvalues --    4.58494   4.71583   4.71969   4.74930   4.75845
 Alpha virt. eigenvalues --    5.18001   5.30277   7.06469   7.07140   7.10192
 Alpha virt. eigenvalues --    7.19122   7.33988   8.02922   8.34881  17.23998
 Alpha virt. eigenvalues --   17.25439  17.26009  17.39756  17.63261  17.83242
 Alpha virt. eigenvalues --   23.59733 189.04441 189.17553
  Beta  occ. eigenvalues --  -88.91344 -88.91344 -10.26203  -7.99708  -7.99708
  Beta  occ. eigenvalues --   -5.95765  -5.95764  -5.95501  -5.95501  -5.95151
  Beta  occ. eigenvalues --   -5.95150  -0.85687  -0.68591  -0.52829  -0.38684
  Beta  occ. eigenvalues --   -0.36901  -0.36213  -0.23821
  Beta virt. eigenvalues --   -0.20304  -0.14829  -0.09736  -0.00193   0.01265
  Beta virt. eigenvalues --    0.01966   0.04202   0.04928   0.06301   0.07395
  Beta virt. eigenvalues --    0.08600   0.08814   0.09303   0.10028   0.12396
  Beta virt. eigenvalues --    0.14890   0.15257   0.17996   0.22513   0.23186
  Beta virt. eigenvalues --    0.24003   0.26396   0.28366   0.29266   0.30299
  Beta virt. eigenvalues --    0.31415   0.32560   0.32766   0.36635   0.38210
  Beta virt. eigenvalues --    0.39821   0.42193   0.49933   0.51834   0.53340
  Beta virt. eigenvalues --    0.57942   0.60165   0.60403   0.65459   0.68074
  Beta virt. eigenvalues --    0.80054   0.80913   0.90566   0.94448   0.95613
  Beta virt. eigenvalues --    0.97391   0.98322   1.00063   1.00690   1.01495
  Beta virt. eigenvalues --    1.01639   1.01774   1.06140   1.06749   1.39679
  Beta virt. eigenvalues --    1.45091   1.48556   1.50943   1.52795   1.59437
  Beta virt. eigenvalues --    1.60819   1.62080   1.63547   1.64825   1.66561
  Beta virt. eigenvalues --    1.67374   1.72355   1.76708   1.78427   1.86296
  Beta virt. eigenvalues --    1.89563   1.93260   1.96995   2.03113   2.05739
  Beta virt. eigenvalues --    2.15897   2.30616   2.30785   2.46784   2.77927
  Beta virt. eigenvalues --    2.97575   2.98255   3.01666   3.18219   3.18652
  Beta virt. eigenvalues --    3.21582   3.26919   3.41802   3.44796   4.57645
  Beta virt. eigenvalues --    4.58157   4.58692   4.60044   4.72570   4.72979
  Beta virt. eigenvalues --    4.75795   4.76687   5.19023   5.31427   7.05299
  Beta virt. eigenvalues --    7.06187   7.09022   7.18928   7.34468   8.03793
  Beta virt. eigenvalues --    8.35650  17.25814  17.27263  17.27612  17.41270
  Beta virt. eigenvalues --   17.63921  17.84013  23.59464 189.05117 189.18230
          Condensed to atoms (all electrons):
               1          2          3
     1  S   15.754368   0.111234   0.062379
     2  S    0.111234  15.754368   0.062379
     3  C    0.062379   0.062379   6.019280
          Atomic-Atomic Spin Densities.
               1          2          3
     1  S    1.324048  -0.179713  -0.030254
     2  S   -0.179713   1.324048  -0.030254
     3  C   -0.030254  -0.030254  -0.167653
 Mulliken charges and spin densities:
               1          2
     1  S    0.072019   1.114081
     2  S    0.072019   1.114081
     3  C   -0.144038  -0.228162
 Sum of Mulliken charges =  -0.00000   2.00000
 Mulliken charges and spin densities with hydrogens summed into heavy atoms:
               1          2
     1  S    0.072019   1.114081
     2  S    0.072019   1.114081
     3  C   -0.144038  -0.228162
 APT charges:
               1
     1  S   -0.076914
     2  S   -0.076914
     3  C    0.153829
 Sum of APT charges =  -0.00000
 APT charges with hydrogens summed into heavy atoms:
               1
     1  S   -0.076914
     2  S   -0.076914
     3  C    0.153829
 Electronic spatial extent (au):  <R**2>=            272.8216
 Charge=              0.0000 electrons
 Dipole moment (field-independent basis, Debye):
    X=             -0.0000    Y=              0.0000    Z=             -1.5774  Tot=              1.5774
 Quadrupole moment (field-independent basis, Debye-Ang):
   XX=            -30.2925   YY=            -29.4565   ZZ=            -36.0235
   XY=              0.0000   XZ=             -0.0000   YZ=             -0.0000
 Traceless Quadrupole moment (field-independent basis, Debye-Ang):
   XX=              1.6317   YY=              2.4677   ZZ=             -4.0994
   XY=              0.0000   XZ=             -0.0000   YZ=             -0.0000
 Octapole moment (field-independent basis, Debye-Ang**2):
  XXX=              0.0000  YYY=             -0.0000  ZZZ=            -11.0103  XYY=              0.0000
  XXY=             -0.0000  XXZ=             -1.6586  XZZ=              0.0000  YZZ=             -0.0000
  YYZ=             -3.4766  XYZ=             -0.0000
 Hexadecapole moment (field-independent basis, Debye-Ang**3):
 XXXX=            -39.3447 YYYY=           -270.0557 ZZZZ=           -109.5528 XXXY=             -0.0000
 XXXZ=             -0.0000 YYYX=             -0.0000 YYYZ=              0.0000 ZZZX=             -0.0000
 ZZZY=              0.0000 XXYY=            -49.9473 XXZZ=            -22.4001 YYZZ=            -59.4396
 XXYZ=              0.0000 YYXZ=             -0.0000 ZZXY=             -0.0000
 N-N= 1.133057113169D+02 E-N=-2.208700287062D+03  KE= 8.331480689453D+02
 Symmetry A1   KE= 3.967610979420D+02
 Symmetry A2   KE= 3.726132211665D+01
 Symmetry B1   KE= 3.815462962986D+01
 Symmetry B2   KE= 3.609710192567D+02
  Exact polarizability:  35.938  -0.000  85.652  -0.000   0.000  48.970
 Approx polarizability:  60.089   0.000 195.732   0.000  -0.000  85.406
                          Isotropic Fermi Contact Couplings
        Atom                 a.u.       MegaHertz       Gauss      10(-4) cm-1
     1  S(33)              0.12318      21.15479       7.54856       7.05648
     2  S(33)              0.12318      21.15479       7.54856       7.05648
     3  C(13)             -0.00352      -1.97694      -0.70542      -0.65944
 --------------------------------------------------------
       Center         ----  Spin Dipole Couplings  ----
                      3XX-RR        3YY-RR        3ZZ-RR
 --------------------------------------------------------
     1   Atom        1.485407      0.204271     -1.689678
     2   Atom        1.485407      0.204271     -1.689678
     3   Atom       -0.190360      0.119516      0.070844
 --------------------------------------------------------
                        XY            XZ            YZ
 --------------------------------------------------------
     1   Atom        0.000000      0.000000      1.692384
     2   Atom        0.000000     -0.000000     -1.692384
     3   Atom        0.000000      0.000000      0.000000
 --------------------------------------------------------


 ---------------------------------------------------------------------------------
              Anisotropic Spin Dipole Couplings in Principal Axis System
 ---------------------------------------------------------------------------------

       Atom             a.u.   MegaHertz   Gauss  10(-4) cm-1        Axes

              Baa    -2.6820  -109.960   -39.236   -36.679 -0.0000 -0.5058  0.8626
     1 S(33)  Bbb     1.1966    49.060    17.506    16.365  0.0000  0.8626  0.5058
              Bcc     1.4854    60.900    21.731    20.314  1.0000 -0.0000  0.0000
 
              Baa    -2.6820  -109.960   -39.236   -36.679  0.0000  0.5058  0.8626
     2 S(33)  Bbb     1.1966    49.060    17.506    16.365  0.0000  0.8626 -0.5058
              Bcc     1.4854    60.900    21.731    20.314  1.0000 -0.0000  0.0000
 
              Baa    -0.1904   -25.544    -9.115    -8.521  1.0000 -0.0000 -0.0000
     3 C(13)  Bbb     0.0708     9.507     3.392     3.171  0.0000 -0.0000  1.0000
              Bcc     0.1195    16.038     5.723     5.350  0.0000  1.0000  0.0000
 

 ---------------------------------------------------------------------------------

 No NMR shielding tensors so no spin-rotation constants.
 Leave Link  601 at Wed Aug  3 22:57:43 2016, MaxMem=    33554432 cpu:         1.6
 (Enter /home/proyectos/fulerenos/M3C-v2.0/M3C-deps_CCC/g09-AM64L-G09RevC.01/l701.exe)
 Compute integral second derivatives.
 ... and contract with generalized density number  0.
 Leave Link  701 at Wed Aug  3 22:57:44 2016, MaxMem=    33554432 cpu:         1.4
 (Enter /home/proyectos/fulerenos/M3C-v2.0/M3C-deps_CCC/g09-AM64L-G09RevC.01/l702.exe)
 L702 exits ... SP integral derivatives will be done elsewhere.
 Leave Link  702 at Wed Aug  3 22:57:44 2016, MaxMem=    33554432 cpu:         0.1
 (Enter /home/proyectos/fulerenos/M3C-v2.0/M3C-deps_CCC/g09-AM64L-G09RevC.01/l703.exe)
 Compute integral second derivatives, UseDBF=F ICtDFT=           0.
 Integral derivatives from FoFJK, PRISM(SPDF).
 Calling FoFJK, ICntrl=    100127 FMM=F ISym2X=1 I1Cent= 0 IOpClX= 1 NMat=1 NMatS=1 NMatT=0.
 FoFJK:  IHMeth= 1 ICntrl=  100127 DoSepK=F KAlg= 0 I1Cent=   0 FoldK=F
 IRaf=         0 NMat=   1 IRICut=       1 DoRegI=T DoRafI=F ISym2E= 1.
 FoFCou: FMM=F IPFlag=           0 FMFlag=      100000 FMFlg1=         800
         NFxFlg=           0 DoJE=F BraDBF=F KetDBF=F FulRan=T
         wScrn=  0.000000 ICntrl=  100127 IOpCl=  1 I1Cent=           0 NGrid=           0
         NMat0=    1 NMatS0=      1 NMatT0=    0 NMatD0=    1 NMtDS0=    0 NMtDT0=    0
 Petite list used in FoFCou.
 Leave Link  703 at Wed Aug  3 22:57:55 2016, MaxMem=    33554432 cpu:        46.7
 (Enter /home/proyectos/fulerenos/M3C-v2.0/M3C-deps_CCC/g09-AM64L-G09RevC.01/l716.exe)
 Dipole        =-4.67871281D-17-2.07856850D-14-6.20582484D-01
 Polarizability= 3.59384876D+01-2.72153017D-09 8.56515494D+01
                -2.80632133D-08 8.76294650D-07 4.89704859D+01
 Full mass-weighted force constant matrix:
 Low frequencies ---   -0.0055   -0.0047   -0.0031    3.8012    8.5974   10.6853
 Low frequencies ---  301.5448  345.8192  808.4231
 Diagonal vibrational polarizability:
        0.0000000      10.2159774       0.4528488
 Harmonic frequencies (cm**-1), IR intensities (KM/Mole), Raman scattering
 activities (A**4/AMU), depolarization ratios for plane and unpolarized
 incident light, reduced masses (AMU), force constants (mDyne/A),
 and normal coordinates:
                      1                      2                      3
                     B2                     A1                     A1
 Frequencies --    301.5448               345.8192               808.4231
 Red. masses --     14.4301                27.4841                14.2856
 Frc consts  --      0.7731                 1.9366                 5.5008
 IR Inten    --     34.5184                 0.8433                 6.3893
  Atom  AN      X      Y      Z        X      Y      Z        X      Y      Z
     1  16     0.00  -0.18   0.17     0.00   0.62   0.09    -0.00   0.16  -0.18
     2  16    -0.00  -0.18  -0.17    -0.00  -0.62   0.09    -0.00  -0.16  -0.18
     3   6     0.00   0.94  -0.00    -0.00  -0.00  -0.47     0.00   0.00   0.94

 -------------------
 - Thermochemistry -
 -------------------
 Temperature   298.150 Kelvin.  Pressure   1.00000 Atm.
 Atom     1 has atomic number 16 and mass  31.97207
 Atom     2 has atomic number 16 and mass  31.97207
 Atom     3 has atomic number  6 and mass  12.00000
 Molecular mass:    75.94414 amu.
 Principal axes and moments of inertia in atomic units:
                           1         2         3
     Eigenvalues --    53.39492 349.52673 402.92165
           X            0.00000   0.00000   1.00000
           Y            1.00000   0.00000  -0.00000
           Z            0.00000   1.00000   0.00000
 This molecule is an asymmetric top.
 Rotational symmetry number  2.
 Rotational temperatures (Kelvin)      1.62214     0.24780     0.21496
 Rotational constants (GHZ):          33.79987     5.16339     4.47914
 Zero-point vibrational energy       8707.5 (Joules/Mol)
                                    2.08115 (Kcal/Mol)
 Warning -- explicit consideration of   2 degrees of freedom as
           vibrations may cause significant error
 Vibrational temperatures:    433.86   497.56  1163.14
          (Kelvin)
 
 Zero-point correction=                           0.003317 (Hartree/Particle)
 Thermal correction to Energy=                    0.007009
 Thermal correction to Enthalpy=                  0.007953
 Thermal correction to Gibbs Free Energy=        -0.023421
 Sum of electronic and zero-point Energies=           -834.400348
 Sum of electronic and thermal Energies=              -834.396656
 Sum of electronic and thermal Enthalpies=            -834.395712
 Sum of electronic and thermal Free Energies=         -834.427086
 
                     E (Thermal)             CV                S
                      KCal/Mol        Cal/Mol-Kelvin    Cal/Mol-Kelvin
 Total                    4.398              9.853             66.032
 Electronic               0.000              0.000              2.183
 Translational            0.889              2.981             38.898
 Rotational               0.889              2.981             22.157
 Vibrational              2.621              3.892              2.794
 Vibration     1          0.694              1.671              1.408
 Vibration     2          0.724              1.584              1.185
                       Q            Log10(Q)             Ln(Q)
 Total Bot       0.592541D+11         10.772718         24.805101
 Total V=0       0.198706D+13         12.298212         28.317679
 Vib (Bot)       0.489197D-01         -1.310516         -3.017575
 Vib (Bot)    1  0.630126D+00         -0.200573         -0.461836
 Vib (Bot)    2  0.534956D+00         -0.271682         -0.625571
 Vib (V=0)       0.164050D+01          0.214977          0.495003
 Vib (V=0)    1  0.130440D+01          0.115411          0.265743
 Vib (V=0)    2  0.123224D+01          0.090696          0.208835
 Electronic      0.300000D+01          0.477121          1.098612
 Translational   0.260134D+08          7.415197         17.074121
 Rotational      0.155209D+05          4.190917          9.649943
 
                                                              b3lyp opt
                                                             IR Spectrum
 
                                                                                                                                     
     8                                                                        3      3                                               
     0                                                                        4      0                                               
     8                                                                        6      2                                               
 
     X                                                                        X      X                                               
     X                                                                               X                                               
     X                                                                               X                                               
     X                                                                               X                                               
                                                                                     X                                               
                                                                                     X                                               
                                                                                     X                                               
                                                                                     X                                               
                                                                                     X                                               
                                                                                     X                                               
                                                                                     X                                               
                                                                                     X                                               
                                                                                     X                                               
                                                                                     X                                               
                                                                                     X                                               
                                                                                     X                                               
                                                                                     X                                               
                                                                                     X                                               
                                                                                     X                                               
                                                                                     X                                               
 
 ***** Axes restored to original set *****
 -------------------------------------------------------------------
 Center     Atomic                   Forces (Hartrees/Bohr)
 Number     Number              X              Y              Z
 -------------------------------------------------------------------
      1       16           0.000022910   -0.000010629    0.000000000
      2       16          -0.000024094   -0.000007568    0.000000000
      3        6           0.000001185    0.000018197   -0.000000000
 -------------------------------------------------------------------
 Cartesian Forces:  Max     0.000024094 RMS     0.000013367
 Z-matrix is all fixed cartesians, so copy forces.
 Force constants in Cartesian coordinates: 
                1             2             3             4             5 
      1  0.111002D+00
      2 -0.516720D-01  0.704041D-01
      3  0.000000D+00  0.000000D+00  0.460973D-04
      4 -0.101807D+00  0.436253D-01  0.000000D+00  0.123607D+00
      5 -0.239642D-01  0.485367D-01  0.000000D+00  0.447145D-01  0.577993D-01
      6  0.000000D+00  0.000000D+00 -0.433359D-04  0.000000D+00  0.000000D+00
      7 -0.919461D-02  0.804672D-02  0.000000D+00 -0.217994D-01 -0.207502D-01
      8  0.756362D-01 -0.118941D+00  0.000000D+00 -0.883397D-01 -0.106336D+00
      9  0.000000D+00  0.000000D+00 -0.276201D-05  0.000000D+00  0.000000D+00
                6             7             8             9 
      6  0.460973D-04
      7  0.000000D+00  0.309940D-01
      8  0.000000D+00  0.127035D-01  0.225277D+00
      9 -0.276211D-05  0.000000D+00  0.000000D+00  0.552520D-05
 Leave Link  716 at Wed Aug  3 22:57:55 2016, MaxMem=    33554432 cpu:         0.1
 (Enter /home/proyectos/fulerenos/M3C-v2.0/M3C-deps_CCC/g09-AM64L-G09RevC.01/l103.exe)

 GradGradGradGradGradGradGradGradGradGradGradGradGradGradGradGradGradGrad
 Berny optimization.
 Search for a local minimum.
 Step number   1 out of a maximum of    2
 All quantities printed in internal units (Hartrees-Bohrs-Radians)
 Second derivative matrix not updated -- analytic derivatives used.
 The second derivative matrix:
                          X1        Y1        Z1        X2        Y2
           X1           0.11100
           Y1          -0.05167   0.07040
           Z1           0.00000  -0.00000   0.00005
           X2          -0.10181   0.04363  -0.00000   0.12361
           Y2          -0.02396   0.04854  -0.00000   0.04471   0.05780
           Z2          -0.00000   0.00000  -0.00004   0.00000   0.00000
           X3          -0.00919   0.00805  -0.00000  -0.02180  -0.02075
           Y3           0.07564  -0.11894   0.00000  -0.08834  -0.10634
           Z3           0.00000   0.00000  -0.00000   0.00000   0.00000
                          Z2        X3        Y3        Z3
           Z2           0.00005
           X3          -0.00000   0.03099
           Y3          -0.00000   0.01270   0.22528
           Z3          -0.00000  -0.00000  -0.00000   0.00001
 ITU=  0
     Eigenvalues ---    0.05657   0.12322   0.42161
 Angle between quadratic step and forces=  32.72 degrees.
 ClnCor:  largest displacement from symmetrization is 8.26D-13 for atom     3.
 Linear search not attempted -- first point.
 ClnCor:  largest displacement from symmetrization is 4.48D-16 for atom     1.
 B after Tr=    -0.000000   -0.000000   -0.000000
         Rot=    1.000000   -0.000000    0.000000    0.000000 Ang=   0.00 deg.
 Variable       Old X    -DE/DX   Delta X   Delta X   Delta X     New X
                                 (Linear)    (Quad)   (Total)
    X1        2.34265   0.00002   0.00000   0.00011   0.00011   2.34275
    Y1       -0.38735  -0.00001   0.00000  -0.00001  -0.00001  -0.38735
    Z1        0.00000   0.00000   0.00000   0.00000  -0.00000   0.00000
    X2       -2.32342  -0.00002   0.00000  -0.00011  -0.00011  -2.32353
    Y2       -0.08354  -0.00001   0.00000   0.00001   0.00001  -0.08353
    Z2       -0.00000   0.00000   0.00000  -0.00000  -0.00000  -0.00000
    X3        0.15897   0.00000   0.00000   0.00000   0.00000   0.15897
    Y3        2.05853   0.00002   0.00000   0.00000   0.00000   2.05853
    Z3        0.00000  -0.00000   0.00000   0.00000   0.00000   0.00000
         Item               Value     Threshold  Converged?
 Maximum Force            0.000024     0.000450     YES
 RMS     Force            0.000013     0.000300     YES
 Maximum Displacement     0.000106     0.001800     YES
 RMS     Displacement     0.000050     0.001200     YES
 Predicted change in Energy=-2.522594D-09
 Optimization completed.
    -- Stationary point found.
 GradGradGradGradGradGradGradGradGradGradGradGradGradGradGradGradGradGrad

 Leave Link  103 at Wed Aug  3 22:57:55 2016, MaxMem=    33554432 cpu:         0.1
 (Enter /home/proyectos/fulerenos/M3C-v2.0/M3C-deps_CCC/g09-AM64L-G09RevC.01/l9999.exe)
 1\1\GINC-DEPAZ27\Freq\UB3LYP\6-311++G(3df,2p)\C1S2(3)\NAGUIRRE\03-Aug-
 2016\0\\#p b3lyp/6-311++G(3df,2p) freq\\b3lyp opt\\0,3\S,1.239675335,-
 0.204974499,0.\S,-1.2295023351,-0.0442075008,0.\C,0.0841240004,1.08932
 5,0.\\Version=EM64L-G09RevE.01\State=3-B1\HF=-834.403665\S2=2.036253\S
 2-1=0.\S2A=2.000281\RMSD=4.211e-09\RMSF=1.337e-05\ZeroPoint=0.0033165\
 Thermal=0.0070093\Dipole=-0.0403205,-0.6192712,0.\DipoleDeriv=-0.22047
 55,0.2285398,0.,0.3964057,-0.1451816,0.,0.,0.,0.134914,-0.2995617,-0.2
 08351,0.,-0.3762169,-0.0660955,0.,0.,0.,0.134914,0.5200371,-0.0201887,
 0.,-0.0201888,0.2112772,0.,0.,0.,-0.2698281\Polar=85.4967057,-2.378204
 1,49.1253296,0.,0.,35.9384876\PG=C02V [C2(C1),SGV(S2)]\NImag=0\\0.1110
 0211,-0.05167199,0.07040410,0.,0.,0.00004610,-0.10180750,0.04362526,0.
 ,0.12360690,-0.02396423,0.04853672,0.,0.04471447,0.05779931,0.,0.,-0.0
 0004334,0.,0.,0.00004610,-0.00919461,0.00804672,0.,-0.02179940,-0.0207
 5024,0.,0.03099401,0.07563622,-0.11894082,0.,-0.08833973,-0.10633603,0
 .,0.01270352,0.22527684,0.,0.,-0.00000276,0.,0.,-0.00000276,0.,0.,0.00
 000553\\-0.00002291,0.00001063,0.,0.00002409,0.00000757,0.,-0.00000118
 ,-0.00001820,0.\\\@


 You can't act like a skunk without someone's getting wind of it.
 -- Lorene Workman
 Job cpu time:       0 days  0 hours  4 minutes 25.1 seconds.
 File lengths (MBytes):  RWF=     19 Int=      0 D2E=      0 Chk=      2 Scr=      1
 Normal termination of Gaussian 09 at Wed Aug  3 22:57:56 2016.
