 Entering Gaussian System, Link 0=/home/proyectos/fulerenos/M3C-v2.0/M3C-deps_CCC/g09-AM64L-G09RevC.01/g09
 Initial command:
 /home/proyectos/fulerenos/M3C-v2.0/M3C-deps_CCC/g09-AM64L-G09RevC.01/l1.exe "/scratch/naguirre/gaussian/Gau-24532.inp" -scrdir="/scratch/naguirre/gaussian/"
 Entering Link 1 = /home/proyectos/fulerenos/M3C-v2.0/M3C-deps_CCC/g09-AM64L-G09RevC.01/l1.exe PID=     24540.
  
 Copyright (c) 1988,1990,1992,1993,1995,1998,2003,2009,2015,
            Gaussian, Inc.  All Rights Reserved.
  
 This is part of the Gaussian(R) 09 program.  It is based on
 the Gaussian(R) 03 system (copyright 2003, Gaussian, Inc.),
 the Gaussian(R) 98 system (copyright 1998, Gaussian, Inc.),
 the Gaussian(R) 94 system (copyright 1995, Gaussian, Inc.),
 the Gaussian 92(TM) system (copyright 1992, Gaussian, Inc.),
 the Gaussian 90(TM) system (copyright 1990, Gaussian, Inc.),
 the Gaussian 88(TM) system (copyright 1988, Gaussian, Inc.),
 the Gaussian 86(TM) system (copyright 1986, Carnegie Mellon
 University), and the Gaussian 82(TM) system (copyright 1983,
 Carnegie Mellon University). Gaussian is a federally registered
 trademark of Gaussian, Inc.
  
 This software contains proprietary and confidential information,
 including trade secrets, belonging to Gaussian, Inc.
  
 This software is provided under written license and may be
 used, copied, transmitted, or stored only in accord with that
 written license.
  
 The following legend is applicable only to US Government
 contracts under FAR:
  
                    RESTRICTED RIGHTS LEGEND
  
 Use, reproduction and disclosure by the US Government is
 subject to restrictions as set forth in subparagraphs (a)
 and (c) of the Commercial Computer Software - Restricted
 Rights clause in FAR 52.227-19.
  
 Gaussian, Inc.
 340 Quinnipiac St., Bldg. 40, Wallingford CT 06492
  
  
 ---------------------------------------------------------------
 Warning -- This program may not be used in any manner that
 competes with the business of Gaussian, Inc. or will provide
 assistance to any competitor of Gaussian, Inc.  The licensee
 of this program is prohibited from giving any competitor of
 Gaussian, Inc. access to this program.  By using this program,
 the user acknowledges that Gaussian, Inc. is engaged in the
 business of creating and licensing software in the field of
 computational chemistry and represents and warrants to the
 licensee that it is not a competitor of Gaussian, Inc. and that
 it will not use this program in any manner prohibited above.
 ---------------------------------------------------------------
  

 Cite this work as:
 Gaussian 09, Revision E.01,
 M. J. Frisch, G. W. Trucks, H. B. Schlegel, G. E. Scuseria, 
 M. A. Robb, J. R. Cheeseman, G. Scalmani, V. Barone, B. Mennucci, 
 G. A. Petersson, H. Nakatsuji, M. Caricato, X. Li, H. P. Hratchian, 
 A. F. Izmaylov, J. Bloino, G. Zheng, J. L. Sonnenberg, M. Hada, 
 M. Ehara, K. Toyota, R. Fukuda, J. Hasegawa, M. Ishida, T. Nakajima, 
 Y. Honda, O. Kitao, H. Nakai, T. Vreven, J. A. Montgomery, Jr., 
 J. E. Peralta, F. Ogliaro, M. Bearpark, J. J. Heyd, E. Brothers, 
 K. N. Kudin, V. N. Staroverov, T. Keith, R. Kobayashi, J. Normand, 
 K. Raghavachari, A. Rendell, J. C. Burant, S. S. Iyengar, J. Tomasi, 
 M. Cossi, N. Rega, J. M. Millam, M. Klene, J. E. Knox, J. B. Cross, 
 V. Bakken, C. Adamo, J. Jaramillo, R. Gomperts, R. E. Stratmann, 
 O. Yazyev, A. J. Austin, R. Cammi, C. Pomelli, J. W. Ochterski, 
 R. L. Martin, K. Morokuma, V. G. Zakrzewski, G. A. Voth, 
 P. Salvador, J. J. Dannenberg, S. Dapprich, A. D. Daniels, 
 O. Farkas, J. B. Foresman, J. V. Ortiz, J. Cioslowski, 
 and D. J. Fox, Gaussian, Inc., Wallingford CT, 2013.
 
 ******************************************
 Gaussian 09:  EM64L-G09RevE.01 30-Nov-2015
                 3-Aug-2016 
 ******************************************
 %NProcShared=4
 Will use up to    4 processors via shared memory.
 ------------------------------
 #p b3lyp/6-311++G(3df,2p) freq
 ------------------------------
 1/10=4,30=1,38=1/1,3;
 2/12=2,17=6,18=5,40=1/2;
 3/5=4,6=6,7=1216,11=2,16=1,25=1,30=1,71=2,74=-5,140=1/1,2,3;
 4//1;
 5/5=2,38=5,98=1/2;
 8/6=4,10=90,11=11/1;
 11/6=1,8=1,9=11,15=111,16=1/1,2,10;
 10/6=1/2;
 6/7=2,8=2,9=2,10=2,18=1,28=1/1;
 7/8=1,10=1,25=1/1,2,3,16;
 1/10=4,30=1/3;
 99//99;
 Leave Link    1 at Wed Aug  3 22:57:57 2016, MaxMem=           0 cpu:         0.3
 (Enter /home/proyectos/fulerenos/M3C-v2.0/M3C-deps_CCC/g09-AM64L-G09RevC.01/l101.exe)
 ---------
 b3lyp opt
 ---------
 Symbolic Z-matrix:
 Charge =  2 Multiplicity = 3
 S                    -1.66684  -0.18849   0. 
 S                     1.46646  -0.21425   0. 
 C                    -0.10019  -0.20148   0. 
 
 NAtoms=      3 NQM=        3 NQMF=       0 NMMI=      0 NMMIF=      0
                NMic=       0 NMicF=      0.
                    Isotopes and Nuclear Properties:
 (Nuclear quadrupole moments (NQMom) in fm**2, nuclear magnetic moments (NMagM)
  in nuclear magnetons)

  Atom         1           2           3
 IAtWgt=          32          32          12
 AtmWgt=  31.9720718  31.9720718  12.0000000
 NucSpn=           0           0           0
 AtZEff=   0.0000000   0.0000000   0.0000000
 NQMom=    0.0000000   0.0000000   0.0000000
 NMagM=    0.0000000   0.0000000   0.0000000
 AtZNuc=  16.0000000  16.0000000   6.0000000
 Leave Link  101 at Wed Aug  3 22:57:57 2016, MaxMem=    33554432 cpu:         0.2
 (Enter /home/proyectos/fulerenos/M3C-v2.0/M3C-deps_CCC/g09-AM64L-G09RevC.01/l103.exe)

 GradGradGradGradGradGradGradGradGradGradGradGradGradGradGradGradGradGrad
 Berny optimization.
 Initialization pass.
 Trust Radius=3.00D-01 FncErr=1.00D-07 GrdErr=1.00D-07
 Number of steps in this run=      2 maximum allowed number of steps=      2.
 GradGradGradGradGradGradGradGradGradGradGradGradGradGradGradGradGradGrad

 Leave Link  103 at Wed Aug  3 22:57:57 2016, MaxMem=    33554432 cpu:         0.1
 (Enter /home/proyectos/fulerenos/M3C-v2.0/M3C-deps_CCC/g09-AM64L-G09RevC.01/l202.exe)
                          Input orientation:                          
 ---------------------------------------------------------------------
 Center     Atomic      Atomic             Coordinates (Angstroms)
 Number     Number       Type             X           Y           Z
 ---------------------------------------------------------------------
      1         16           0       -1.666841   -0.188486    0.000000
      2         16           0        1.466464   -0.214251    0.000000
      3          6           0       -0.100190   -0.201484    0.000000
 ---------------------------------------------------------------------
                    Distance matrix (angstroms):
                    1          2          3
     1  S    0.000000
     2  S    3.133411   0.000000
     3  C    1.566705   1.566705   0.000000
 Stoichiometry    CS2(2+,3)
 Framework group  D*H[C*(),X(CS2)]
 NUMDOF-- UNRECOGNIZED SYMMETRIC SUBSPACE, ICHAR= X   "
 Deg. of freedom    -1
 Full point group                         NOp   0
 Largest Abelian subgroup         D2H     NOp   8
 Largest concise Abelian subgroup C2      NOp   2
                         Standard orientation:                         
 ---------------------------------------------------------------------
 Center     Atomic      Atomic             Coordinates (Angstroms)
 Number     Number       Type             X           Y           Z
 ---------------------------------------------------------------------
      1         16           0       -0.000000    0.000000    1.566705
      2         16           0        0.000000   -0.000000   -1.566705
      3          6           0        0.000000    0.000000    0.000000
 ---------------------------------------------------------------------
 Rotational constants (GHZ):      0.0000000      3.2198950      3.2198950
 Leave Link  202 at Wed Aug  3 22:57:57 2016, MaxMem=    33554432 cpu:         0.0
 (Enter /home/proyectos/fulerenos/M3C-v2.0/M3C-deps_CCC/g09-AM64L-G09RevC.01/l301.exe)
 Standard basis: 6-311++G(3df,2p) (5D, 7F)
 Ernie: Thresh=  0.10000D-02 Tol=  0.10000D-05 Strict=F.
 There are    39 symmetry adapted cartesian basis functions of AG  symmetry.
 There are     7 symmetry adapted cartesian basis functions of B1G symmetry.
 There are    15 symmetry adapted cartesian basis functions of B2G symmetry.
 There are    15 symmetry adapted cartesian basis functions of B3G symmetry.
 There are     5 symmetry adapted cartesian basis functions of AU  symmetry.
 There are    32 symmetry adapted cartesian basis functions of B1U symmetry.
 There are    19 symmetry adapted cartesian basis functions of B2U symmetry.
 There are    19 symmetry adapted cartesian basis functions of B3U symmetry.
 There are    32 symmetry adapted basis functions of AG  symmetry.
 There are     7 symmetry adapted basis functions of B1G symmetry.
 There are    14 symmetry adapted basis functions of B2G symmetry.
 There are    14 symmetry adapted basis functions of B3G symmetry.
 There are     5 symmetry adapted basis functions of AU  symmetry.
 There are    27 symmetry adapted basis functions of B1U symmetry.
 There are    17 symmetry adapted basis functions of B2U symmetry.
 There are    17 symmetry adapted basis functions of B3U symmetry.
   133 basis functions,   202 primitive gaussians,   151 cartesian basis functions
    19 alpha electrons       17 beta electrons
       nuclear repulsion energy       108.0845829145 Hartrees.
 IExCor=  402 DFT=T Ex+Corr=B3LYP ExCW=0 ScaHFX=  0.200000
 ScaDFX=  0.800000  0.720000  1.000000  0.810000 ScalE2=  1.000000  1.000000
 IRadAn=      0 IRanWt=     -1 IRanGd=            0 ICorTp=0 IEmpDi=  4
 NAtoms=    3 NActive=    3 NUniq=    2 SFac= 2.25D+00 NAtFMM=   60 NAOKFM=F Big=F
 Integral buffers will be    131072 words long.
 Raffenetti 2 integral format.
 Two-electron integral symmetry is turned on.
 Leave Link  301 at Wed Aug  3 22:57:57 2016, MaxMem=    33554432 cpu:         0.2
 (Enter /home/proyectos/fulerenos/M3C-v2.0/M3C-deps_CCC/g09-AM64L-G09RevC.01/l302.exe)
 NPDir=0 NMtPBC=     1 NCelOv=     1 NCel=       1 NClECP=     1 NCelD=      1
         NCelK=      1 NCelE2=     1 NClLst=     1 CellRange=     0.0.
 One-electron integrals computed using PRISM.
 One-electron integral symmetry used in STVInt
 NBasis=   133 RedAO= T EigKep=  1.53D-04  NBF=    32     7    14    14     5    27    17    17
 NBsUse=   133 1.00D-06 EigRej= -1.00D+00 NBFU=    32     7    14    14     5    27    17    17
 Precomputing XC quadrature grid using
 IXCGrd= 4 IRadAn=           0 IRanWt=          -1 IRanGd=           0 AccXCQ= 0.00D+00.
 Generated NRdTot=       0 NPtTot=           0 NUsed=           0 NTot=          32
 NSgBfM=   151   151   151   151   151 MxSgAt=     3 MxSgA2=     3.
 Leave Link  302 at Wed Aug  3 22:57:57 2016, MaxMem=    33554432 cpu:         0.9
 (Enter /home/proyectos/fulerenos/M3C-v2.0/M3C-deps_CCC/g09-AM64L-G09RevC.01/l303.exe)
 DipDrv:  MaxL=1.
 Leave Link  303 at Wed Aug  3 22:57:57 2016, MaxMem=    33554432 cpu:         0.1
 (Enter /home/proyectos/fulerenos/M3C-v2.0/M3C-deps_CCC/g09-AM64L-G09RevC.01/l401.exe)
 ExpMin= 4.05D-02 ExpMax= 9.34D+04 ExpMxC= 3.17D+03 IAcc=2 IRadAn=         4 AccDes= 0.00D+00
 Harris functional with IExCor=  402 and IRadAn=       4 diagonalized for initial guess.
 HarFok:  IExCor=  402 AccDes= 0.00D+00 IRadAn=         4 IDoV= 1 UseB2=F ITyADJ=14
 ICtDFT=  3500011 ScaDFX=  1.000000  1.000000  1.000000  1.000000
 FoFCou: FMM=F IPFlag=           0 FMFlag=      100000 FMFlg1=           0
         NFxFlg=           0 DoJE=T BraDBF=F KetDBF=T FulRan=T
         wScrn=  0.000000 ICntrl=     500 IOpCl=  0 I1Cent=   200000004 NGrid=           0
         NMat0=    1 NMatS0=      1 NMatT0=    0 NMatD0=    1 NMtDS0=    0 NMtDT0=    0
 Petite list used in FoFCou.
 Harris En= -833.956708800992    
 JPrj=0 DoOrth=F DoCkMO=F.
 Initial guess orbital symmetries:
 Alpha Orbitals:
       Occupied  (SGG) (SGU) (SGG) (SGG) (SGU) (SGU) (SGG) (PIG)
                 (PIG) (PIU) (PIU) (SGG) (SGU) (SGG) (SGU) (PIU)
                 (PIU) (PIG) (PIG)
       Virtual   (PIU) (PIU) (SGG) (SGG) (SGU) (PIU) (PIU) (SGU)
                 (PIG) (PIG) (SGG) (PIU) (PIU) (SGU) (SGG) (DLTG)
                 (DLTG) (SGU) (DLTU) (DLTU) (PIG) (PIG) (SGG) (PIU)
                 (PIU) (PIG) (PIG) (SGG) (SGU) (PIU) (PIU) (DLTG)
                 (DLTG) (SGG) (PIU) (PIU) (SGU) (PIG) (PIG) (SGU)
                 (SGG) (SGU) (DLTG) (DLTG) (DLTU) (DLTU) (PIG)
                 (PIG) (SGG) (PIU) (PIU) (SGU) (SGG) (PIG) (PIG)
                 (DLTG) (DLTG) (DLTU) (DLTU) (PHIU) (PHIU) (PHIG)
                 (PHIG) (PIU) (PIU) (DLTG) (DLTG) (PIG) (PIG) (PIU)
                 (PIU) (SGG) (SGU) (SGU) (SGG) (PIG) (PIG) (SGG)
                 (PIU) (PIU) (PHIU) (PHIU) (SGU) (DLTU) (DLTU)
                 (PIU) (PIU) (SGU) (DLTG) (DLTG) (DLTU) (DLTU)
                 (PIG) (PIG) (PIU) (PIU) (SGG) (SGU) (DLTG) (DLTG)
                 (PIG) (PIG) (SGG) (SGU) (SGG) (PIU) (PIU) (PIG)
                 (PIG) (SGG) (SGU) (SGG) (SGU) (SGG)
 Beta  Orbitals:
       Occupied  (SGG) (SGU) (SGG) (SGG) (SGU) (SGU) (SGG) (PIG)
                 (PIG) (PIU) (PIU) (SGG) (SGU) (SGG) (SGU) (PIU)
                 (PIU)
       Virtual   (PIG) (PIG) (PIU) (PIU) (SGG) (SGG) (SGU) (PIU)
                 (PIU) (SGU) (PIG) (PIG) (SGG) (PIU) (PIU) (SGU)
                 (SGG) (DLTG) (DLTG) (SGU) (DLTU) (DLTU) (PIG)
                 (PIG) (SGG) (PIU) (PIU) (PIG) (PIG) (SGG) (SGU)
                 (PIU) (PIU) (DLTG) (DLTG) (SGG) (PIU) (PIU) (SGU)
                 (PIG) (PIG) (SGU) (SGG) (SGU) (DLTG) (DLTG) (DLTU)
                 (DLTU) (PIG) (PIG) (SGG) (PIU) (PIU) (SGU) (SGG)
                 (PIG) (PIG) (DLTG) (DLTG) (DLTU) (DLTU) (PHIU)
                 (PHIU) (PHIG) (PHIG) (PIU) (PIU) (DLTG) (DLTG)
                 (PIG) (PIG) (PIU) (PIU) (SGG) (SGU) (SGU) (SGG)
                 (PIG) (PIG) (SGG) (PIU) (PIU) (PHIU) (PHIU) (SGU)
                 (DLTU) (DLTU) (PIU) (PIU) (SGU) (DLTG) (DLTG)
                 (DLTU) (DLTU) (PIG) (PIG) (PIU) (PIU) (SGG) (SGU)
                 (DLTG) (DLTG) (PIG) (PIG) (SGG) (SGU) (SGG) (PIU)
                 (PIU) (PIG) (PIG) (SGG) (SGU) (SGG) (SGU) (SGG)
 The electronic state of the initial guess is 3-SGG.
 Initial guess <Sx>= 0.0000 <Sy>= 0.0000 <Sz>= 1.0000 <S**2>= 2.0000 S= 1.0000
 Leave Link  401 at Wed Aug  3 22:57:58 2016, MaxMem=    33554432 cpu:         0.8
 (Enter /home/proyectos/fulerenos/M3C-v2.0/M3C-deps_CCC/g09-AM64L-G09RevC.01/l502.exe)
 UHF open shell SCF:
 Using DIIS extrapolation, IDIIS=  1040.
 Integral symmetry usage will be decided dynamically.
 IVT=       89393 IEndB=       89393 NGot=    33554432 MDV=    33504632
 LenX=    33504632 LenY=    33481390
 Requested convergence on RMS density matrix=1.00D-08 within 128 cycles.
 Requested convergence on MAX density matrix=1.00D-06.
 Requested convergence on             energy=1.00D-06.
 No special actions if energy rises.
 Fock matrices will be formed incrementally for  20 cycles.

 Cycle   1  Pass 1  IDiag  1:
 FoFJK:  IHMeth= 1 ICntrl=       0 DoSepK=F KAlg= 0 I1Cent=   0 FoldK=F
 IRaf= 940000000 NMat=   1 IRICut=       1 DoRegI=T DoRafI=F ISym2E= 1.
 FoFCou: FMM=F IPFlag=           0 FMFlag=      100000 FMFlg1=           0
         NFxFlg=           0 DoJE=F BraDBF=F KetDBF=F FulRan=T
         wScrn=  0.000000 ICntrl=       0 IOpCl=  1 I1Cent=           0 NGrid=           0
         NMat0=    1 NMatS0=      1 NMatT0=    0 NMatD0=    1 NMtDS0=    0 NMtDT0=    0
 Petite list used in FoFCou.
 E= -833.468658895493    
 DIIS: error= 3.25D-02 at cycle   1 NSaved=   1.
 NSaved= 1 IEnMin= 1 EnMin= -833.468658895493     IErMin= 1 ErrMin= 3.25D-02
 ErrMax= 3.25D-02  0.00D+00 EMaxC= 1.00D-01 BMatC= 5.19D-01 BMatP= 5.19D-01
 IDIUse=3 WtCom= 6.75D-01 WtEn= 3.25D-01
 Coeff-Com:  0.100D+01
 Coeff-En:   0.100D+01
 Coeff:      0.100D+01
 Gap=     0.268 Goal=   None    Shift=    0.000
 Gap=     0.101 Goal=   None    Shift=    0.000
 GapD=    0.101 DampG=1.000 DampE=0.500 DampFc=0.5000 IDamp=-1.
 Damping current iteration by 5.00D-01
 RMSDP=5.19D-03 MaxDP=2.00D-01              OVMax= 2.94D-01

 Cycle   2  Pass 1  IDiag  1:
 RMSU=  2.59D-03    CP:  1.01D+00
 E= -833.498352301670     Delta-E=       -0.029693406177 Rises=F Damp=T
 DIIS: error= 2.36D-02 at cycle   2 NSaved=   2.
 NSaved= 2 IEnMin= 2 EnMin= -833.498352301670     IErMin= 2 ErrMin= 2.36D-02
 ErrMax= 2.36D-02  0.00D+00 EMaxC= 1.00D-01 BMatC= 8.51D-02 BMatP= 5.19D-01
 IDIUse=3 WtCom= 7.64D-01 WtEn= 2.36D-01
 Coeff-Com:  0.145D+00 0.855D+00
 Coeff-En:   0.301D+00 0.699D+00
 Coeff:      0.182D+00 0.818D+00
 Gap=     0.209 Goal=   None    Shift=    0.000
 Gap=     0.165 Goal=   None    Shift=    0.000
 RMSDP=2.51D-03 MaxDP=7.37D-02 DE=-2.97D-02 OVMax= 2.35D-01

 Cycle   3  Pass 1  IDiag  1:
 RMSU=  2.34D-03    CP:  1.04D+00  1.14D+00
 E= -833.553172690909     Delta-E=       -0.054820389238 Rises=F Damp=F
 DIIS: error= 2.40D-02 at cycle   3 NSaved=   3.
 NSaved= 3 IEnMin= 3 EnMin= -833.553172690909     IErMin= 2 ErrMin= 2.36D-02
 ErrMax= 2.40D-02  0.00D+00 EMaxC= 1.00D-01 BMatC= 8.86D-02 BMatP= 8.51D-02
 IDIUse=3 WtCom= 7.60D-01 WtEn= 2.40D-01
 Coeff-Com: -0.697D-01 0.520D+00 0.550D+00
 Coeff-En:   0.000D+00 0.000D+00 0.100D+01
 Coeff:     -0.530D-01 0.395D+00 0.658D+00
 Gap=     0.243 Goal=   None    Shift=    0.000
 Gap=     0.153 Goal=   None    Shift=    0.000
 RMSDP=1.23D-03 MaxDP=4.64D-02 DE=-5.48D-02 OVMax= 1.04D-01

 Cycle   4  Pass 1  IDiag  1:
 RMSU=  1.04D-03    CP:  1.04D+00  1.29D+00  7.76D-01
 E= -833.568715891659     Delta-E=       -0.015543200751 Rises=F Damp=F
 DIIS: error= 1.46D-02 at cycle   4 NSaved=   4.
 NSaved= 4 IEnMin= 4 EnMin= -833.568715891659     IErMin= 4 ErrMin= 1.46D-02
 ErrMax= 1.46D-02  0.00D+00 EMaxC= 1.00D-01 BMatC= 3.15D-02 BMatP= 8.51D-02
 IDIUse=3 WtCom= 8.54D-01 WtEn= 1.46D-01
 Coeff-Com:  0.431D-01-0.107D+00 0.315D+00 0.749D+00
 Coeff-En:   0.000D+00 0.000D+00 0.301D+00 0.699D+00
 Coeff:      0.368D-01-0.913D-01 0.313D+00 0.742D+00
 Gap=     0.239 Goal=   None    Shift=    0.000
 Gap=     0.171 Goal=   None    Shift=    0.000
 RMSDP=4.98D-04 MaxDP=1.91D-02 DE=-1.55D-02 OVMax= 5.00D-02

 Cycle   5  Pass 1  IDiag  1:
 RMSU=  1.88D-04    CP:  1.04D+00  1.20D+00  9.33D-01  8.63D-01
 E= -833.577244950552     Delta-E=       -0.008529058893 Rises=F Damp=F
 DIIS: error= 1.55D-03 at cycle   5 NSaved=   5.
 NSaved= 5 IEnMin= 5 EnMin= -833.577244950552     IErMin= 5 ErrMin= 1.55D-03
 ErrMax= 1.55D-03  0.00D+00 EMaxC= 1.00D-01 BMatC= 2.87D-04 BMatP= 3.15D-02
 IDIUse=3 WtCom= 9.84D-01 WtEn= 1.55D-02
 Coeff-Com: -0.297D-01 0.516D-01-0.143D+00-0.269D+00 0.139D+01
 Coeff-En:   0.000D+00 0.000D+00 0.000D+00 0.000D+00 0.100D+01
 Coeff:     -0.292D-01 0.508D-01-0.141D+00-0.265D+00 0.138D+01
 Gap=     0.243 Goal=   None    Shift=    0.000
 Gap=     0.174 Goal=   None    Shift=    0.000
 RMSDP=1.48D-04 MaxDP=4.21D-03 DE=-8.53D-03 OVMax= 1.42D-02

 Cycle   6  Pass 1  IDiag  1:
 RMSU=  4.18D-05    CP:  1.04D+00  1.22D+00  9.36D-01  8.91D-01  1.67D+00
 E= -833.577503746516     Delta-E=       -0.000258795964 Rises=F Damp=F
 DIIS: error= 3.36D-04 at cycle   6 NSaved=   6.
 NSaved= 6 IEnMin= 6 EnMin= -833.577503746516     IErMin= 6 ErrMin= 3.36D-04
 ErrMax= 3.36D-04  0.00D+00 EMaxC= 1.00D-01 BMatC= 1.46D-05 BMatP= 2.87D-04
 IDIUse=3 WtCom= 9.97D-01 WtEn= 3.36D-03
 Coeff-Com:  0.125D-02-0.918D-03-0.255D-01-0.458D-01-0.202D+00 0.127D+01
 Coeff-En:   0.000D+00 0.000D+00 0.000D+00 0.000D+00 0.000D+00 0.100D+01
 Coeff:      0.124D-02-0.915D-03-0.254D-01-0.457D-01-0.201D+00 0.127D+01
 Gap=     0.245 Goal=   None    Shift=    0.000
 Gap=     0.176 Goal=   None    Shift=    0.000
 RMSDP=5.77D-05 MaxDP=1.62D-03 DE=-2.59D-04 OVMax= 5.25D-03

 Cycle   7  Pass 1  IDiag  1:
 RMSU=  8.64D-06    CP:  1.04D+00  1.22D+00  9.41D-01  9.14D-01  1.92D+00
                    CP:  1.44D+00
 E= -833.577528522112     Delta-E=       -0.000024775596 Rises=F Damp=F
 DIIS: error= 5.42D-05 at cycle   7 NSaved=   7.
 NSaved= 7 IEnMin= 7 EnMin= -833.577528522112     IErMin= 7 ErrMin= 5.42D-05
 ErrMax= 5.42D-05  0.00D+00 EMaxC= 1.00D-01 BMatC= 7.36D-07 BMatP= 1.46D-05
 IDIUse=1 WtCom= 1.00D+00 WtEn= 0.00D+00
 Coeff-Com:  0.357D-03-0.117D-03-0.210D-02-0.465D-02-0.782D-01 0.221D+00
 Coeff-Com:  0.863D+00
 Coeff:      0.357D-03-0.117D-03-0.210D-02-0.465D-02-0.782D-01 0.221D+00
 Coeff:      0.863D+00
 Gap=     0.245 Goal=   None    Shift=    0.000
 Gap=     0.176 Goal=   None    Shift=    0.000
 RMSDP=5.90D-06 MaxDP=2.62D-04 DE=-2.48D-05 OVMax= 5.54D-04

 Cycle   8  Pass 1  IDiag  1:
 RMSU=  2.91D-06    CP:  1.04D+00  1.22D+00  9.41D-01  9.14D-01  1.95D+00
                    CP:  1.49D+00  1.16D+00
 E= -833.577528883529     Delta-E=       -0.000000361418 Rises=F Damp=F
 DIIS: error= 1.13D-05 at cycle   8 NSaved=   8.
 NSaved= 8 IEnMin= 8 EnMin= -833.577528883529     IErMin= 8 ErrMin= 1.13D-05
 ErrMax= 1.13D-05  0.00D+00 EMaxC= 1.00D-01 BMatC= 2.75D-08 BMatP= 7.36D-07
 IDIUse=1 WtCom= 1.00D+00 WtEn= 0.00D+00
 Coeff-Com: -0.647D-04 0.643D-04 0.217D-02 0.402D-02 0.136D-01-0.894D-01
 Coeff-Com: -0.252D-03 0.107D+01
 Coeff:     -0.647D-04 0.643D-04 0.217D-02 0.402D-02 0.136D-01-0.894D-01
 Coeff:     -0.252D-03 0.107D+01
 Gap=     0.245 Goal=   None    Shift=    0.000
 Gap=     0.176 Goal=   None    Shift=    0.000
 RMSDP=1.66D-06 MaxDP=4.50D-05 DE=-3.61D-07 OVMax= 8.00D-05

 Cycle   9  Pass 1  IDiag  1:
 RMSU=  8.16D-07    CP:  1.04D+00  1.22D+00  9.41D-01  9.14D-01  1.94D+00
                    CP:  1.51D+00  1.29D+00  1.16D+00
 E= -833.577528898547     Delta-E=       -0.000000015018 Rises=F Damp=F
 DIIS: error= 3.41D-06 at cycle   9 NSaved=   9.
 NSaved= 9 IEnMin= 9 EnMin= -833.577528898547     IErMin= 9 ErrMin= 3.41D-06
 ErrMax= 3.41D-06  0.00D+00 EMaxC= 1.00D-01 BMatC= 1.30D-09 BMatP= 2.75D-08
 IDIUse=1 WtCom= 1.00D+00 WtEn= 0.00D+00
 Coeff-Com: -0.415D-05-0.714D-05-0.204D-03-0.378D-03 0.315D-02-0.224D-02
 Coeff-Com: -0.473D-01-0.965D-01 0.114D+01
 Coeff:     -0.415D-05-0.714D-05-0.204D-03-0.378D-03 0.315D-02-0.224D-02
 Coeff:     -0.473D-01-0.965D-01 0.114D+01
 Gap=     0.245 Goal=   None    Shift=    0.000
 Gap=     0.176 Goal=   None    Shift=    0.000
 RMSDP=4.31D-07 MaxDP=1.14D-05 DE=-1.50D-08 OVMax= 1.95D-05

 Cycle  10  Pass 1  IDiag  1:
 RMSU=  7.59D-08    CP:  1.04D+00  1.22D+00  9.41D-01  9.14D-01  1.94D+00
                    CP:  1.51D+00  1.32D+00  1.24D+00  1.21D+00
 E= -833.577528899301     Delta-E=       -0.000000000754 Rises=F Damp=F
 DIIS: error= 3.36D-07 at cycle  10 NSaved=  10.
 NSaved=10 IEnMin=10 EnMin= -833.577528899301     IErMin=10 ErrMin= 3.36D-07
 ErrMax= 3.36D-07  0.00D+00 EMaxC= 1.00D-01 BMatC= 1.07D-11 BMatP= 1.30D-09
 IDIUse=1 WtCom= 1.00D+00 WtEn= 0.00D+00
 Coeff-Com:  0.217D-05-0.315D-05-0.276D-04-0.511D-04-0.401D-03 0.174D-02
 Coeff-Com:  0.418D-03-0.162D-01-0.461D-01 0.106D+01
 Coeff:      0.217D-05-0.315D-05-0.276D-04-0.511D-04-0.401D-03 0.174D-02
 Coeff:      0.418D-03-0.162D-01-0.461D-01 0.106D+01
 Gap=     0.245 Goal=   None    Shift=    0.000
 Gap=     0.176 Goal=   None    Shift=    0.000
 RMSDP=4.63D-08 MaxDP=1.29D-06 DE=-7.54D-10 OVMax= 1.73D-06

 Cycle  11  Pass 1  IDiag  1:
 RMSU=  1.20D-08    CP:  1.04D+00  1.22D+00  9.41D-01  9.14D-01  1.94D+00
                    CP:  1.51D+00  1.32D+00  1.25D+00  1.23D+00  1.20D+00
 E= -833.577528899309     Delta-E=       -0.000000000008 Rises=F Damp=F
 DIIS: error= 5.93D-08 at cycle  11 NSaved=  11.
 NSaved=11 IEnMin=11 EnMin= -833.577528899309     IErMin=11 ErrMin= 5.93D-08
 ErrMax= 5.93D-08  0.00D+00 EMaxC= 1.00D-01 BMatC= 3.15D-13 BMatP= 1.07D-11
 IDIUse=1 WtCom= 1.00D+00 WtEn= 0.00D+00
 Coeff-Com: -0.165D-06 0.415D-06 0.393D-05 0.518D-05-0.362D-05-0.107D-03
 Coeff-Com:  0.697D-03 0.241D-02-0.100D-01-0.119D+00 0.113D+01
 Coeff:     -0.165D-06 0.415D-06 0.393D-05 0.518D-05-0.362D-05-0.107D-03
 Coeff:      0.697D-03 0.241D-02-0.100D-01-0.119D+00 0.113D+01
 Gap=     0.245 Goal=   None    Shift=    0.000
 Gap=     0.176 Goal=   None    Shift=    0.000
 RMSDP=5.15D-09 MaxDP=1.73D-07 DE=-7.50D-12 OVMax= 1.79D-07

 SCF Done:  E(UB3LYP) =  -833.577528899     A.U. after   11 cycles
            NFock= 11  Conv=0.51D-08     -V/T= 2.0015
 <Sx>= 0.0000 <Sy>= 0.0000 <Sz>= 1.0000 <S**2>= 2.0934 S= 1.0308
 <L.S>= 0.000000000000E+00
 KE= 8.323450863874D+02 PE=-2.176516888309D+03 EE= 4.025096901076D+02
 Annihilation of the first spin contaminant:
 S**2 before annihilation     2.0934,   after     2.0037
 Leave Link  502 at Wed Aug  3 22:58:09 2016, MaxMem=    33554432 cpu:        42.9
 (Enter /home/proyectos/fulerenos/M3C-v2.0/M3C-deps_CCC/g09-AM64L-G09RevC.01/l801.exe)
 DoSCS=F DFT=T ScalE2(SS,OS)=  1.000000  1.000000
 Range of M.O.s used for correlation:     1   133
 NBasis=   133 NAE=    19 NBE=    17 NFC=     0 NFV=     0
 NROrb=    133 NOA=    19 NOB=    17 NVA=   114 NVB=   116

 **** Warning!!: The largest alpha MO coefficient is  0.35709338D+02


 **** Warning!!: The largest beta MO coefficient is  0.35140999D+02

 Leave Link  801 at Wed Aug  3 22:58:09 2016, MaxMem=    33554432 cpu:         0.2
 (Enter /home/proyectos/fulerenos/M3C-v2.0/M3C-deps_CCC/g09-AM64L-G09RevC.01/l1101.exe)
 Using compressed storage, NAtomX=     3.
 Will process      4 centers per pass.
 Leave Link 1101 at Wed Aug  3 22:58:09 2016, MaxMem=    33554432 cpu:         1.2
 (Enter /home/proyectos/fulerenos/M3C-v2.0/M3C-deps_CCC/g09-AM64L-G09RevC.01/l1102.exe)
 Symmetrizing basis deriv contribution to polar:
 IMax=3 JMax=2 DiffMx= 0.00D+00
 Leave Link 1102 at Wed Aug  3 22:58:09 2016, MaxMem=    33554432 cpu:         0.1
 (Enter /home/proyectos/fulerenos/M3C-v2.0/M3C-deps_CCC/g09-AM64L-G09RevC.01/l1110.exe)
 Forming Gx(P) for the SCF density, NAtomX=     3.
 Integral derivatives from FoFJK, PRISM(SPDF).
 Do as many integral derivatives as possible in FoFJK.
 G2DrvN: MDV=      33554304.
 G2DrvN: will do     4 centers at a time, making    1 passes.
 Calling FoFCou, ICntrl=  3107 FMM=F I1Cent=   0 AccDes= 0.00D+00.
 FoFJK:  IHMeth= 1 ICntrl=    3107 DoSepK=F KAlg= 0 I1Cent=   0 FoldK=F
 IRaf=         0 NMat=   1 IRICut=       1 DoRegI=T DoRafI=F ISym2E= 1.
 FoFCou: FMM=F IPFlag=           0 FMFlag=      100000 FMFlg1=           0
         NFxFlg=           0 DoJE=F BraDBF=F KetDBF=F FulRan=T
         wScrn=  0.000000 ICntrl=    3107 IOpCl=  1 I1Cent=           0 NGrid=           0
         NMat0=    1 NMatS0=      1 NMatT0=    0 NMatD0=    1 NMtDS0=    0 NMtDT0=    0
 Petite list used in FoFCou.
 End of G2Drv F.D. properties file   721 does not exist.
 End of G2Drv F.D. properties file   722 does not exist.
 End of G2Drv F.D. properties file   788 does not exist.
 Leave Link 1110 at Wed Aug  3 22:58:15 2016, MaxMem=    33554432 cpu:        20.3
 (Enter /home/proyectos/fulerenos/M3C-v2.0/M3C-deps_CCC/g09-AM64L-G09RevC.01/l1002.exe)
 Minotr:  UHF open shell wavefunction.
          IDoAtm=111
          Direct CPHF calculation.
          Differentiating once with respect to electric field.
                with respect to dipole field.
          Differentiating once with respect to nuclear coordinates.
          Using symmetry in CPHF.
          Requested convergence is 1.0D-08 RMS, and 1.0D-07 maximum.
          Secondary convergence is 1.0D-12 RMS, and 1.0D-12 maximum.
          NewPWx=T KeepS1=F KeepF1=F KeepIn=T MapXYZ=F SortEE=F KeepMc=T.
          MDV=      33554132 using IRadAn=       2.
 Generate precomputed XC quadrature information.
          Solving linear equations simultaneously, MaxMat=       0.
 FoFJK:  IHMeth= 1 ICntrl=       0 DoSepK=F KAlg= 0 I1Cent=   0 FoldK=F
 IRaf= 940000000 NMat=   9 IRICut=      22 DoRegI=T DoRafI=T ISym2E= 2.
 FoFCou: FMM=F IPFlag=           0 FMFlag=      100000 FMFlg1=           0
         NFxFlg=           0 DoJE=F BraDBF=F KetDBF=F FulRan=T
         wScrn=  0.000000 ICntrl=       0 IOpCl=  1 I1Cent=           0 NGrid=           0
         NMat0=    9 NMatS0=      9 NMatT0=    0 NMatD0=    9 NMtDS0=    0 NMtDT0=    0
 Integrals replicated using symmetry in FoFCou.
          There are     9 degrees of freedom in the 1st order CPHF.  IDoFFX=4 NUNeed=     9.
      9 vectors produced by pass  0 Test12= 4.60D-14 1.11D-08 XBig12= 3.69D+02 1.06D+01.
 AX will form     9 AO Fock derivatives at one time.
      9 vectors produced by pass  1 Test12= 4.60D-14 1.11D-08 XBig12= 8.21D+01 2.15D+00.
      9 vectors produced by pass  2 Test12= 4.60D-14 1.11D-08 XBig12= 3.91D+00 7.66D-01.
      9 vectors produced by pass  3 Test12= 4.60D-14 1.11D-08 XBig12= 7.76D-02 8.03D-02.
      9 vectors produced by pass  4 Test12= 4.60D-14 1.11D-08 XBig12= 1.37D-03 1.60D-02.
      9 vectors produced by pass  5 Test12= 4.60D-14 1.11D-08 XBig12= 1.23D-05 1.77D-03.
      9 vectors produced by pass  6 Test12= 4.60D-14 1.11D-08 XBig12= 8.49D-08 9.93D-05.
      9 vectors produced by pass  7 Test12= 4.60D-14 1.11D-08 XBig12= 1.48D-09 1.35D-05.
      2 vectors produced by pass  8 Test12= 4.60D-14 1.11D-08 XBig12= 5.41D-11 2.25D-06.
      2 vectors produced by pass  9 Test12= 4.60D-14 1.11D-08 XBig12= 1.14D-12 4.75D-07.
      2 vectors produced by pass 10 Test12= 4.60D-14 1.11D-08 XBig12= 2.93D-14 5.60D-08.
      1 vectors produced by pass 11 Test12= 4.60D-14 1.11D-08 XBig12= 2.26D-15 1.52D-08.
 InvSVY:  IOpt=1 It=  1 EMax= 3.55D-15
 Solved reduced A of dimension    79 with     9 vectors.
 FullF1:  Do perturbations    1 to     9.
 Isotropic polarizability for W=    0.000000       37.36 Bohr**3.
 End of Minotr F.D. properties file   721 does not exist.
 End of Minotr F.D. properties file   722 does not exist.
 End of Minotr F.D. properties file   788 does not exist.
 Leave Link 1002 at Wed Aug  3 22:58:46 2016, MaxMem=    33554432 cpu:       125.1
 (Enter /home/proyectos/fulerenos/M3C-v2.0/M3C-deps_CCC/g09-AM64L-G09RevC.01/l601.exe)
 Copying SCF densities to generalized density rwf, IOpCl= 1 IROHF=0.

 **********************************************************************

            Population analysis using the SCF density.

 **********************************************************************

 Orbital symmetries:
 Alpha Orbitals:
       Occupied  (SGG) (SGU) (SGG) (SGG) (SGU) (PIG) (PIG) (PIU)
                 (PIU) (SGU) (SGG) (SGG) (SGU) (SGG) (SGU) (PIU)
                 (PIU) (PIG) (PIG)
       Virtual   (PIU) (PIU) (SGG) (SGU) (SGG) (DLTG) (DLTG) (SGU)
                 (PIU) (PIU) (PIG) (PIG) (DLTU) (DLTU) (SGG) (PIG)
                 (PIG) (PIU) (PIU) (SGG) (SGU) (SGU) (PIU) (PIU)
                 (SGG) (SGG) (PIG) (PIG) (PIU) (PIU) (DLTG) (DLTG)
                 (SGU) (SGG) (PIU) (PIU) (SGU) (PIG) (PIG) (SGU)
                 (SGG) (DLTG) (DLTG) (DLTU) (DLTU) (SGU) (PIG)
                 (PIG) (SGG) (PIU) (PIU) (SGU) (SGG) (PIG) (PIG)
                 (DLTG) (DLTG) (DLTU) (DLTU) (PHIU) (PHIU) (PHIG)
                 (PHIG) (PIU) (PIU) (DLTG) (DLTG) (PIG) (PIG) (PIU)
                 (PIU) (SGG) (SGU) (SGU) (SGG) (PIG) (PIG) (SGG)
                 (PIU) (PIU) (PHIU) (PHIU) (SGU) (DLTU) (DLTU)
                 (PIU) (PIU) (SGU) (DLTG) (DLTG) (DLTU) (DLTU)
                 (PIG) (PIG) (PIU) (PIU) (SGG) (SGU) (DLTG) (DLTG)
                 (PIG) (PIG) (SGG) (SGU) (SGG) (PIU) (PIU) (PIG)
                 (PIG) (SGG) (SGU) (SGG) (SGU) (SGG)
 Beta  Orbitals:
       Occupied  (SGG) (SGU) (SGG) (SGG) (SGU) (SGU) (SGG) (PIG)
                 (PIG) (PIU) (PIU) (SGG) (SGU) (SGG) (SGU) (PIU)
                 (PIU)
       Virtual   (PIG) (PIG) (PIU) (PIU) (SGG) (SGG) (SGU) (SGU)
                 (DLTG) (DLTG) (PIU) (PIU) (PIG) (PIG) (SGG) (DLTU)
                 (DLTU) (PIU) (PIU) (PIG) (PIG) (SGG) (SGU) (SGU)
                 (PIU) (PIU) (SGG) (SGG) (PIG) (PIG) (PIU) (PIU)
                 (SGU) (DLTG) (DLTG) (SGG) (PIU) (PIU) (SGU) (PIG)
                 (PIG) (SGU) (SGG) (SGU) (DLTG) (DLTG) (DLTU) (DLTU)
                 (PIG) (PIG) (SGG) (PIU) (PIU) (SGU) (SGG) (PIG)
                 (PIG) (DLTG) (DLTG) (DLTU) (DLTU) (PHIU) (PHIU)
                 (PHIG) (PHIG) (PIU) (PIU) (DLTG) (DLTG) (PIG)
                 (PIG) (PIU) (PIU) (SGG) (SGU) (SGU) (SGG) (PIG)
                 (PIG) (SGG) (PHIU) (PHIU) (PIU) (PIU) (SGU) (DLTU)
                 (DLTU) (PIU) (PIU) (SGU) (DLTG) (DLTG) (DLTU)
                 (DLTU) (PIG) (PIG) (PIU) (PIU) (SGG) (SGU) (DLTG)
                 (DLTG) (PIG) (PIG) (SGG) (SGU) (SGG) (PIU) (PIU)
                 (PIG) (PIG) (SGG) (SGU) (SGG) (SGU) (SGG)
 The electronic state is 3-SGG.
 Alpha  occ. eigenvalues --  -89.49712 -89.49712 -10.80855  -8.57260  -8.57256
 Alpha  occ. eigenvalues --   -6.53675  -6.53675  -6.53674  -6.53674  -6.53019
 Alpha  occ. eigenvalues --   -6.53018  -1.40805  -1.34053  -1.05138  -0.97007
 Alpha  occ. eigenvalues --   -0.92381  -0.92381  -0.83787  -0.83787
 Alpha virt. eigenvalues --   -0.59262  -0.59262  -0.46388  -0.37507  -0.36898
 Alpha virt. eigenvalues --   -0.29874  -0.29874  -0.27503  -0.26732  -0.26732
 Alpha virt. eigenvalues --   -0.25619  -0.25619  -0.24991  -0.24990  -0.22581
 Alpha virt. eigenvalues --   -0.17593  -0.17593  -0.17328  -0.17328  -0.13688
 Alpha virt. eigenvalues --   -0.13654  -0.08208  -0.05714  -0.05714  -0.03658
 Alpha virt. eigenvalues --   -0.03491  -0.02569  -0.02569   0.00004   0.00004
 Alpha virt. eigenvalues --    0.01525   0.01527   0.01561   0.19270   0.23906
 Alpha virt. eigenvalues --    0.23906   0.24384   0.32225   0.32225   0.33324
 Alpha virt. eigenvalues --    0.38066   0.43625   0.43626   0.44052   0.44054
 Alpha virt. eigenvalues --    0.45199   0.51517   0.51517   0.54922   0.55280
 Alpha virt. eigenvalues --    0.55280   0.72169   0.75845   0.96493   0.96493
 Alpha virt. eigenvalues --    1.00961   1.00961   1.01390   1.01391   1.04889
 Alpha virt. eigenvalues --    1.04889   1.05622   1.05622   1.08914   1.08914
 Alpha virt. eigenvalues --    1.32703   1.32703   1.42737   1.42737   1.43247
 Alpha virt. eigenvalues --    1.43247   1.45963   1.57456   1.77141   1.78242
 Alpha virt. eigenvalues --    2.00615   2.00615   2.12497   2.28195   2.28195
 Alpha virt. eigenvalues --    2.28611   2.28611   2.54531   2.57670   2.57670
 Alpha virt. eigenvalues --    3.08829   3.08829   3.83845   4.00226   4.00228
 Alpha virt. eigenvalues --    4.02633   4.02635   4.22886   4.22886   4.50428
 Alpha virt. eigenvalues --    4.50428   4.55394   4.99802   6.40976   6.40979
 Alpha virt. eigenvalues --    6.74742   6.74742   6.87374   7.93187   8.17297
 Alpha virt. eigenvalues --   16.68238  16.68238  16.91883  16.91883  17.17805
 Alpha virt. eigenvalues --   17.62025  23.49178 188.87288 189.08223
  Beta  occ. eigenvalues --  -89.48855 -89.48855 -10.81644  -8.56479  -8.56474
  Beta  occ. eigenvalues --   -6.52540  -6.52539  -6.52095  -6.52095  -6.52094
  Beta  occ. eigenvalues --   -6.52094  -1.38768  -1.29416  -1.02451  -0.94940
  Beta  occ. eigenvalues --   -0.89247  -0.89247
  Beta virt. eigenvalues --   -0.71681  -0.71681  -0.56918  -0.56918  -0.44917
  Beta virt. eigenvalues --   -0.36565  -0.35512  -0.26983  -0.26934  -0.26933
  Beta virt. eigenvalues --   -0.26315  -0.26315  -0.23985  -0.23985  -0.22557
  Beta virt. eigenvalues --   -0.20630  -0.20630  -0.17264  -0.17264  -0.16265
  Beta virt. eigenvalues --   -0.16265  -0.13619  -0.13268  -0.07880  -0.04457
  Beta virt. eigenvalues --   -0.04457  -0.03539  -0.02932  -0.01670  -0.01670
  Beta virt. eigenvalues --    0.01029   0.01029   0.01943   0.02382   0.02384
  Beta virt. eigenvalues --    0.19227   0.23367   0.23367   0.25535   0.33434
  Beta virt. eigenvalues --    0.33434   0.34463   0.39638   0.45849   0.47878
  Beta virt. eigenvalues --    0.47878   0.48523   0.48524   0.53331   0.53331
  Beta virt. eigenvalues --    0.55105   0.57038   0.57038   0.73552   0.76908
  Beta virt. eigenvalues --    0.98065   0.98065   0.99814   0.99814   1.04939
  Beta virt. eigenvalues --    1.04939   1.11008   1.11008   1.11867   1.11867
  Beta virt. eigenvalues --    1.12543   1.12543   1.35053   1.35053   1.45360
  Beta virt. eigenvalues --    1.45360   1.45569   1.45569   1.47320   1.59454
  Beta virt. eigenvalues --    1.77811   1.79110   2.01842   2.01842   2.11723
  Beta virt. eigenvalues --    2.25903   2.25903   2.26044   2.26044   2.53883
  Beta virt. eigenvalues --    2.57050   2.57050   3.08590   3.08590   3.83539
  Beta virt. eigenvalues --    4.02219   4.02220   4.04678   4.04680   4.24035
  Beta virt. eigenvalues --    4.24035   4.51881   4.51881   4.56883   5.01860
  Beta virt. eigenvalues --    6.37447   6.37450   6.73012   6.73012   6.86298
  Beta virt. eigenvalues --    7.94390   8.17957  16.70319  16.70319  16.93972
  Beta virt. eigenvalues --   16.93972  17.18484  17.62741  23.48342 188.88067
  Beta virt. eigenvalues --  189.09000
          Condensed to atoms (all electrons):
               1          2          3
     1  S   15.954497  -0.726036   0.134172
     2  S   -0.726036  15.954497   0.134172
     3  C    0.134172   0.134172   5.006389
          Atomic-Atomic Spin Densities.
               1          2          3
     1  S    1.392131  -0.126759  -0.039925
     2  S   -0.126759   1.392131  -0.039925
     3  C   -0.039925  -0.039925  -0.371047
 Mulliken charges and spin densities:
               1          2
     1  S    0.637367   1.225448
     2  S    0.637367   1.225448
     3  C    0.725266  -0.450896
 Sum of Mulliken charges =   2.00000   2.00000
 Mulliken charges and spin densities with hydrogens summed into heavy atoms:
               1          2
     1  S    0.637367   1.225448
     2  S    0.637367   1.225448
     3  C    0.725266  -0.450896
 APT charges:
               1
     1  S    1.050347
     2  S    1.050347
     3  C   -0.100694
 Sum of APT charges =   2.00000
 APT charges with hydrogens summed into heavy atoms:
               1
     1  S    1.050347
     2  S    1.050347
     3  C   -0.100694
 Electronic spatial extent (au):  <R**2>=            312.7037
 Charge=              2.0000 electrons
 Dipole moment (field-independent basis, Debye):
    X=              0.0000    Y=             -0.0000    Z=             -0.0000  Tot=              0.0000
 Quadrupole moment (field-independent basis, Debye-Ang):
   XX=            -23.3106   YY=            -23.3106   ZZ=              3.2970
   XY=             -0.0000   XZ=             -0.0000   YZ=              0.0000
 Traceless Quadrupole moment (field-independent basis, Debye-Ang):
   XX=             -8.8692   YY=             -8.8692   ZZ=             17.7384
   XY=             -0.0000   XZ=             -0.0000   YZ=              0.0000
 Octapole moment (field-independent basis, Debye-Ang**2):
  XXX=             -0.0000  YYY=              0.0000  ZZZ=             -0.0000  XYY=             -0.0000
  XXY=              0.0000  XXZ=             -0.0000  XZZ=              0.0000  YZZ=             -0.0000
  YYZ=             -0.0000  XYZ=              0.0000
 Hexadecapole moment (field-independent basis, Debye-Ang**3):
 XXXX=            -22.9319 YYYY=            -22.9319 ZZZZ=           -209.6678 XXXY=             -0.0000
 XXXZ=              0.0000 YYYX=             -0.0000 YYYZ=              0.0000 ZZZX=              0.0000
 ZZZY=              0.0000 XXYY=             -7.6440 XXZZ=            -50.6872 YYZZ=            -50.6872
 XXYZ=              0.0000 YYXZ=              0.0000 ZZXY=             -0.0000
 N-N= 1.080845829145D+02 E-N=-2.176516888349D+03  KE= 8.323450863874D+02
 Symmetry AG   KE= 3.560891240699D+02
 Symmetry B1G  KE= 2.933344322864D-33
 Symmetry B2G  KE= 3.747253084470D+01
 Symmetry B3G  KE= 3.747253084470D+01
 Symmetry AU   KE= 2.027343956102D-33
 Symmetry B1U  KE= 3.243671179754D+02
 Symmetry B2U  KE= 3.847189132636D+01
 Symmetry B3U  KE= 3.847189132636D+01
  Exact polarizability:  22.875   0.000  22.875   0.000   0.000  66.329
 Approx polarizability:  36.099  -0.000  36.099  -0.000   0.000 163.819
                          Isotropic Fermi Contact Couplings
        Atom                 a.u.       MegaHertz       Gauss      10(-4) cm-1
     1  S(33)              0.05180       8.89581       3.17425       2.96732
     2  S(33)              0.05180       8.89581       3.17425       2.96732
     3  C(13)             -0.08002     -44.97718     -16.04897     -15.00277
 --------------------------------------------------------
       Center         ----  Spin Dipole Couplings  ----
                      3XX-RR        3YY-RR        3ZZ-RR
 --------------------------------------------------------
     1   Atom        1.599156      1.599156     -3.198311
     2   Atom        1.599156      1.599156     -3.198311
     3   Atom       -0.185803     -0.185803      0.371606
 --------------------------------------------------------
                        XY            XZ            YZ
 --------------------------------------------------------
     1   Atom        0.000000     -0.000000      0.000000
     2   Atom        0.000000      0.000000     -0.000000
     3   Atom        0.000000     -0.000000      0.000000
 --------------------------------------------------------


 ---------------------------------------------------------------------------------
              Anisotropic Spin Dipole Couplings in Principal Axis System
 ---------------------------------------------------------------------------------

       Atom             a.u.   MegaHertz   Gauss  10(-4) cm-1        Axes

              Baa    -3.1983  -131.128   -46.790   -43.740  0.0000  0.0000  1.0000
     1 S(33)  Bbb     1.5992    65.564    23.395    21.870 -0.0010  1.0000 -0.0000
              Bcc     1.5992    65.564    23.395    21.870  1.0000  0.0010  0.0000
 
              Baa    -3.1983  -131.128   -46.790   -43.740  0.0000  0.0000  1.0000
     2 S(33)  Bbb     1.5992    65.564    23.395    21.870  0.0038  1.0000 -0.0000
              Bcc     1.5992    65.564    23.395    21.870  1.0000 -0.0038  0.0000
 
              Baa    -0.1858   -24.933    -8.897    -8.317  0.0142  0.9999  0.0000
     3 C(13)  Bbb    -0.1858   -24.933    -8.897    -8.317  0.9999 -0.0142  0.0000
              Bcc     0.3716    49.866    17.793    16.634  0.0000  0.0000  1.0000
 

 ---------------------------------------------------------------------------------

 No NMR shielding tensors so no spin-rotation constants.
 Leave Link  601 at Wed Aug  3 22:58:46 2016, MaxMem=    33554432 cpu:         1.7
 (Enter /home/proyectos/fulerenos/M3C-v2.0/M3C-deps_CCC/g09-AM64L-G09RevC.01/l701.exe)
 Compute integral second derivatives.
 ... and contract with generalized density number  0.
 Leave Link  701 at Wed Aug  3 22:58:47 2016, MaxMem=    33554432 cpu:         1.4
 (Enter /home/proyectos/fulerenos/M3C-v2.0/M3C-deps_CCC/g09-AM64L-G09RevC.01/l702.exe)
 L702 exits ... SP integral derivatives will be done elsewhere.
 Leave Link  702 at Wed Aug  3 22:58:47 2016, MaxMem=    33554432 cpu:         0.1
 (Enter /home/proyectos/fulerenos/M3C-v2.0/M3C-deps_CCC/g09-AM64L-G09RevC.01/l703.exe)
 Compute integral second derivatives, UseDBF=F ICtDFT=           0.
 Integral derivatives from FoFJK, PRISM(SPDF).
 Calling FoFJK, ICntrl=    100127 FMM=F ISym2X=1 I1Cent= 0 IOpClX= 1 NMat=1 NMatS=1 NMatT=0.
 FoFJK:  IHMeth= 1 ICntrl=  100127 DoSepK=F KAlg= 0 I1Cent=   0 FoldK=F
 IRaf=         0 NMat=   1 IRICut=       1 DoRegI=T DoRafI=F ISym2E= 1.
 FoFCou: FMM=F IPFlag=           0 FMFlag=      100000 FMFlg1=         800
         NFxFlg=           0 DoJE=F BraDBF=F KetDBF=F FulRan=T
         wScrn=  0.000000 ICntrl=  100127 IOpCl=  1 I1Cent=           0 NGrid=           0
         NMat0=    1 NMatS0=      1 NMatT0=    0 NMatD0=    1 NMtDS0=    0 NMtDT0=    0
 Petite list used in FoFCou.
 Leave Link  703 at Wed Aug  3 22:58:55 2016, MaxMem=    33554432 cpu:        33.4
 (Enter /home/proyectos/fulerenos/M3C-v2.0/M3C-deps_CCC/g09-AM64L-G09RevC.01/l716.exe)
 Dipole        = 3.34962279D-16-4.74490348D-18 4.60657051D-14
 Polarizability= 2.28746512D+01 7.61594287D-11 2.28746512D+01
                 3.21070867D-10 1.11067816D-09 6.63292118D+01
 Full mass-weighted force constant matrix:
 Low frequencies ---   -6.3428   -6.3428   -0.0043   -0.0043   -0.0017  299.8555
 Low frequencies ---  299.8555  632.7724 1021.5799
 Diagonal vibrational polarizability:
        0.4527708       0.4527708       2.4866090
 Harmonic frequencies (cm**-1), IR intensities (KM/Mole), Raman scattering
 activities (A**4/AMU), depolarization ratios for plane and unpolarized
 incident light, reduced masses (AMU), force constants (mDyne/A),
 and normal coordinates:
                      1                      2                      3
                     PIU                    PIU                    SGG
 Frequencies --    299.8555               299.8555               632.7724
 Red. masses --     13.3142                13.3142                31.9721
 Frc consts  --      0.7053                 0.7053                 7.5425
 IR Inten    --      1.5128                 1.5128                 0.0000
  Atom  AN      X      Y      Z        X      Y      Z        X      Y      Z
     1  16    -0.03  -0.18   0.00    -0.18   0.03   0.00     0.00  -0.00   0.71
     2  16    -0.03  -0.18   0.00    -0.18   0.03  -0.00     0.00  -0.00  -0.71
     3   6     0.16   0.95  -0.00     0.95  -0.16  -0.00    -0.00   0.00   0.00
                      4
                     SGU
 Frequencies --   1021.5799
 Red. masses --     13.3142
 Frc consts  --      8.1867
 IR Inten    --     96.4315
  Atom  AN      X      Y      Z
     1  16    -0.00  -0.00  -0.18
     2  16    -0.00  -0.00  -0.18
     3   6     0.00   0.00   0.97

 -------------------
 - Thermochemistry -
 -------------------
 Temperature   298.150 Kelvin.  Pressure   1.00000 Atm.
 Atom     1 has atomic number 16 and mass  31.97207
 Atom     2 has atomic number 16 and mass  31.97207
 Atom     3 has atomic number  6 and mass  12.00000
 Molecular mass:    75.94414 amu.
 Principal axes and moments of inertia in atomic units:
                           1         2         3
     Eigenvalues --     0.00000 560.49692 560.49692
           X           -0.00000   0.71705  -0.69702
           Y            0.00000   0.69702   0.71705
           Z            1.00000   0.00000  -0.00000
 This molecule is a prolate symmetric top.
 Rotational symmetry number  2.
 Warning -- assumption of classical behavior for rotation
           may cause significant error
 Rotational temperature (Kelvin)      0.15453
 Rotational constant (GHZ):           3.219895
 Zero-point vibrational energy      13482.3 (Joules/Mol)
                                    3.22235 (Kcal/Mol)
 Warning -- explicit consideration of   2 degrees of freedom as
           vibrations may cause significant error
 Vibrational temperatures:    431.42   431.42   910.42  1469.82
          (Kelvin)
 
 Zero-point correction=                           0.005135 (Hartree/Particle)
 Thermal correction to Energy=                    0.008513
 Thermal correction to Enthalpy=                  0.009457
 Thermal correction to Gibbs Free Energy=        -0.019071
 Sum of electronic and zero-point Energies=           -833.572394
 Sum of electronic and thermal Energies=              -833.569016
 Sum of electronic and thermal Enthalpies=            -833.568072
 Sum of electronic and thermal Free Energies=         -833.596600
 
                     E (Thermal)             CV                S
                      KCal/Mol        Cal/Mol-Kelvin    Cal/Mol-Kelvin
 Total                    5.342              9.633             60.042
 Electronic               0.000              0.000              2.183
 Translational            0.889              2.981             38.898
 Rotational               0.592              1.987             15.643
 Vibrational              3.861              4.665              3.318
 Vibration     1          0.692              1.674              1.418
 Vibration     2          0.692              1.674              1.418
                       Q            Log10(Q)             Ln(Q)
 Total Bot       0.591356D+09          8.771849         20.197928
 Total V=0       0.136095D+12         11.133841         25.636617
 Vib (Bot)       0.785489D-02         -2.104860         -4.846619
 Vib (Bot)    1  0.634280D+00         -0.197719         -0.455265
 Vib (Bot)    2  0.634280D+00         -0.197719         -0.455265
 Vib (V=0)       0.180773D+01          0.257133          0.592070
 Vib (V=0)    1  0.130766D+01          0.116494          0.268237
 Vib (V=0)    2  0.130766D+01          0.116494          0.268237
 Electronic      0.300000D+01          0.477121          1.098612
 Translational   0.260134D+08          7.415197         17.074121
 Rotational      0.964697D+03          2.984391          6.871814
 
                                                              b3lyp opt
                                                             IR Spectrum
 
     1                                                                                                                               
     0                                                6                                        3                                     
     2                                                3                                        0                                     
     2                                                3                                        0                                     
 
     X                                                                                         X                                     
     X                                                                                                                               
     X                                                                                                                               
     X                                                                                                                               
     X                                                                                                                               
     X                                                                                                                               
     X                                                                                                                               
     X                                                                                                                               
     X                                                                                                                               
     X                                                                                                                               
     X                                                                                                                               
     X                                                                                                                               
     X                                                                                                                               
     X                                                                                                                               
     X                                                                                                                               
     X                                                                                                                               
     X                                                                                                                               
     X                                                                                                                               
     X                                                                                                                               
     X                                                                                                                               
 
 ***** Axes restored to original set *****
 -------------------------------------------------------------------
 Center     Atomic                   Forces (Hartrees/Bohr)
 Number     Number              X              Y              Z
 -------------------------------------------------------------------
      1       16          -0.000015249    0.000000125   -0.000000000
      2       16           0.000015249   -0.000000125   -0.000000000
      3        6           0.000000000   -0.000000000    0.000000000
 -------------------------------------------------------------------
 Cartesian Forces:  Max     0.000015249 RMS     0.000007189
 Z-matrix is all fixed cartesians, so copy forces.
 Force constants in Cartesian coordinates: 
                1             2             3             4             5 
      1  0.341969D+00
      2 -0.274152D-02  0.859315D-02
      3  0.000000D+00  0.000000D+00  0.857060D-02
      4 -0.142458D+00  0.124230D-02  0.000000D+00  0.341969D+00
      5  0.124230D-02  0.860907D-02  0.000000D+00 -0.274152D-02  0.859315D-02
      6  0.000000D+00  0.000000D+00  0.861928D-02  0.000000D+00  0.000000D+00
      7 -0.199511D+00  0.149922D-02  0.000000D+00 -0.199511D+00  0.149922D-02
      8  0.149922D-02 -0.172022D-01  0.000000D+00  0.149922D-02 -0.172022D-01
      9  0.000000D+00  0.000000D+00 -0.171899D-01  0.000000D+00  0.000000D+00
                6             7             8             9 
      6  0.857060D-02
      7  0.000000D+00  0.399022D+00
      8  0.000000D+00 -0.299844D-02  0.344044D-01
      9 -0.171899D-01  0.000000D+00  0.000000D+00  0.343798D-01
 Leave Link  716 at Wed Aug  3 22:58:55 2016, MaxMem=    33554432 cpu:         0.1
 (Enter /home/proyectos/fulerenos/M3C-v2.0/M3C-deps_CCC/g09-AM64L-G09RevC.01/l103.exe)

 GradGradGradGradGradGradGradGradGradGradGradGradGradGradGradGradGradGrad
 Berny optimization.
 Search for a local minimum.
 Step number   1 out of a maximum of    2
 All quantities printed in internal units (Hartrees-Bohrs-Radians)
 Second derivative matrix not updated -- analytic derivatives used.
 The second derivative matrix:
                          X1        Y1        Z1        X2        Y2
           X1           0.34197
           Y1          -0.00274   0.00859
           Z1          -0.00000  -0.00000   0.00857
           X2          -0.14246   0.00124   0.00000   0.34197
           Y2           0.00124   0.00861   0.00000  -0.00274   0.00859
           Z2           0.00000  -0.00000   0.00862  -0.00000   0.00000
           X3          -0.19951   0.00150  -0.00000  -0.19951   0.00150
           Y3           0.00150  -0.01720   0.00000   0.00150  -0.01720
           Z3           0.00000   0.00000  -0.01719  -0.00000   0.00000
                          Z2        X3        Y3        Z3
           Z2           0.00857
           X3          -0.00000   0.39902
           Y3          -0.00000  -0.00300   0.03440
           Z3          -0.01719  -0.00000  -0.00000   0.03438
 ITU=  0
     Eigenvalues ---    0.04939   0.04939   0.48446   0.57332
 Angle between quadratic step and forces=   0.00 degrees.
 ClnCor:  largest displacement from symmetrization is 1.22D-13 for atom     3.
 Linear search not attempted -- first point.
 ClnCor:  largest displacement from symmetrization is 8.88D-16 for atom     2.
 B after Tr=    -0.000001   -0.000128    0.009877
         Rot=    0.999916   -0.012925    0.000106   -0.000000 Ang=  -1.48 deg.
 Variable       Old X    -DE/DX   Delta X   Delta X   Delta X     New X
                                 (Linear)    (Quad)   (Total)
    X1       -3.14987  -0.00002   0.00000  -0.00003  -0.00003  -3.14991
    Y1       -0.35622   0.00000   0.00000   0.00000   0.00000  -0.35622
    Z1       -0.00000  -0.00000   0.00000  -0.00000  -0.00000  -0.00000
    X2        2.77121   0.00002   0.00000   0.00003   0.00003   2.77125
    Y2       -0.40491  -0.00000   0.00000  -0.00000  -0.00000  -0.40491
    Z2        0.00000  -0.00000   0.00000   0.00000   0.00000   0.00000
    X3       -0.18933   0.00000   0.00000   0.00000   0.00000  -0.18933
    Y3       -0.38057  -0.00000   0.00000  -0.00000   0.00000  -0.38057
    Z3        0.00000   0.00000   0.00000   0.00000  -0.00000  -0.00000
         Item               Value     Threshold  Converged?
 Maximum Force            0.000015     0.000450     YES
 RMS     Force            0.000007     0.000300     YES
 Maximum Displacement     0.000031     0.001800     YES
 RMS     Displacement     0.000015     0.001200     YES
 Predicted change in Energy=-4.800445D-10
 Optimization completed.
    -- Stationary point found.
 GradGradGradGradGradGradGradGradGradGradGradGradGradGradGradGradGradGrad

 Leave Link  103 at Wed Aug  3 22:58:55 2016, MaxMem=    33554432 cpu:         0.1
 (Enter /home/proyectos/fulerenos/M3C-v2.0/M3C-deps_CCC/g09-AM64L-G09RevC.01/l9999.exe)
 1\1\GINC-DEPAZ27\Freq\UB3LYP\6-311++G(3df,2p)\C1S2(2+,3)\NAGUIRRE\03-A
 ug-2016\0\\#p b3lyp/6-311++G(3df,2p) freq\\b3lyp opt\\2,3\S,-1.6668415
 524,-0.1885041841,0.\S,1.4664634475,-0.2142691841,0.\C,-0.1001890525,-
 0.2013866841,0.\\Version=EM64L-G09RevE.01\State=3-SGG\HF=-833.5775289\
 S2=2.093395\S2-1=0.\S2A=2.003719\RMSD=5.145e-09\RMSF=7.189e-06\ZeroPoi
 nt=0.0051351\Thermal=0.008513\Dipole=0.,0.,0.\DipoleDeriv=1.3418189,-0
 .0035953,0.,-0.0035953,0.9046257,0.,0.,0.,0.9045961,1.3418189,-0.00359
 53,0.,-0.0035953,0.9046257,0.,0.,0.,0.9045961,-0.6836378,0.0071905,0.,
 0.0071905,0.1907486,0.,0.,0.,0.1908077\Polar=66.3262738,-0.3573004,22.
 8775892,0.,0.,22.8746512\PG=D*H [C*(),X(C1S2)]\NImag=0\\0.34196881,-0.
 00274152,0.00859315,0.,0.,0.00857060,-0.14245770,0.00124230,0.,0.34196
 881,0.00124230,0.00860907,0.,-0.00274152,0.00859315,0.,0.,0.00861928,0
 .,0.,0.00857060,-0.19951110,0.00149922,0.,-0.19951110,0.00149922,0.,0.
 39902220,0.00149922,-0.01720222,0.,0.00149922,-0.01720222,0.,-0.002998
 44,0.03440444,0.,0.,-0.01718989,0.,0.,-0.01718989,0.,0.,0.03437978\\0.
 00001525,-0.00000013,0.,-0.00001525,0.00000013,0.,0.,0.,0.\\\@


 HO!  SUCH BUGS AND GOBLINS IN MY LIFE!

                            -- HAMLET, ACT 5, SCENE 2
 Job cpu time:       0 days  0 hours  3 minutes 50.4 seconds.
 File lengths (MBytes):  RWF=     19 Int=      0 D2E=      0 Chk=      2 Scr=      1
 Normal termination of Gaussian 09 at Wed Aug  3 22:58:55 2016.
