 Entering Gaussian System, Link 0=/home/proyectos/fulerenos/M3C-v2.0/M3C-deps_CCC/g09-AM64L-G09RevC.01/g09
 Initial command:
 /home/proyectos/fulerenos/M3C-v2.0/M3C-deps_CCC/g09-AM64L-G09RevC.01/l1.exe "/scratch/naguirre/gaussian/Gau-25318.inp" -scrdir="/scratch/naguirre/gaussian/"
 Entering Link 1 = /home/proyectos/fulerenos/M3C-v2.0/M3C-deps_CCC/g09-AM64L-G09RevC.01/l1.exe PID=     25321.
  
 Copyright (c) 1988,1990,1992,1993,1995,1998,2003,2009,2015,
            Gaussian, Inc.  All Rights Reserved.
  
 This is part of the Gaussian(R) 09 program.  It is based on
 the Gaussian(R) 03 system (copyright 2003, Gaussian, Inc.),
 the Gaussian(R) 98 system (copyright 1998, Gaussian, Inc.),
 the Gaussian(R) 94 system (copyright 1995, Gaussian, Inc.),
 the Gaussian 92(TM) system (copyright 1992, Gaussian, Inc.),
 the Gaussian 90(TM) system (copyright 1990, Gaussian, Inc.),
 the Gaussian 88(TM) system (copyright 1988, Gaussian, Inc.),
 the Gaussian 86(TM) system (copyright 1986, Carnegie Mellon
 University), and the Gaussian 82(TM) system (copyright 1983,
 Carnegie Mellon University). Gaussian is a federally registered
 trademark of Gaussian, Inc.
  
 This software contains proprietary and confidential information,
 including trade secrets, belonging to Gaussian, Inc.
  
 This software is provided under written license and may be
 used, copied, transmitted, or stored only in accord with that
 written license.
  
 The following legend is applicable only to US Government
 contracts under FAR:
  
                    RESTRICTED RIGHTS LEGEND
  
 Use, reproduction and disclosure by the US Government is
 subject to restrictions as set forth in subparagraphs (a)
 and (c) of the Commercial Computer Software - Restricted
 Rights clause in FAR 52.227-19.
  
 Gaussian, Inc.
 340 Quinnipiac St., Bldg. 40, Wallingford CT 06492
  
  
 ---------------------------------------------------------------
 Warning -- This program may not be used in any manner that
 competes with the business of Gaussian, Inc. or will provide
 assistance to any competitor of Gaussian, Inc.  The licensee
 of this program is prohibited from giving any competitor of
 Gaussian, Inc. access to this program.  By using this program,
 the user acknowledges that Gaussian, Inc. is engaged in the
 business of creating and licensing software in the field of
 computational chemistry and represents and warrants to the
 licensee that it is not a competitor of Gaussian, Inc. and that
 it will not use this program in any manner prohibited above.
 ---------------------------------------------------------------
  

 Cite this work as:
 Gaussian 09, Revision E.01,
 M. J. Frisch, G. W. Trucks, H. B. Schlegel, G. E. Scuseria, 
 M. A. Robb, J. R. Cheeseman, G. Scalmani, V. Barone, B. Mennucci, 
 G. A. Petersson, H. Nakatsuji, M. Caricato, X. Li, H. P. Hratchian, 
 A. F. Izmaylov, J. Bloino, G. Zheng, J. L. Sonnenberg, M. Hada, 
 M. Ehara, K. Toyota, R. Fukuda, J. Hasegawa, M. Ishida, T. Nakajima, 
 Y. Honda, O. Kitao, H. Nakai, T. Vreven, J. A. Montgomery, Jr., 
 J. E. Peralta, F. Ogliaro, M. Bearpark, J. J. Heyd, E. Brothers, 
 K. N. Kudin, V. N. Staroverov, T. Keith, R. Kobayashi, J. Normand, 
 K. Raghavachari, A. Rendell, J. C. Burant, S. S. Iyengar, J. Tomasi, 
 M. Cossi, N. Rega, J. M. Millam, M. Klene, J. E. Knox, J. B. Cross, 
 V. Bakken, C. Adamo, J. Jaramillo, R. Gomperts, R. E. Stratmann, 
 O. Yazyev, A. J. Austin, R. Cammi, C. Pomelli, J. W. Ochterski, 
 R. L. Martin, K. Morokuma, V. G. Zakrzewski, G. A. Voth, 
 P. Salvador, J. J. Dannenberg, S. Dapprich, A. D. Daniels, 
 O. Farkas, J. B. Foresman, J. V. Ortiz, J. Cioslowski, 
 and D. J. Fox, Gaussian, Inc., Wallingford CT, 2013.
 
 ******************************************
 Gaussian 09:  EM64L-G09RevE.01 30-Nov-2015
                 3-Aug-2016 
 ******************************************
 %NProcShared=4
 Will use up to    4 processors via shared memory.
 ------------------------------
 #p b3lyp/6-311++G(3df,2p) freq
 ------------------------------
 1/10=4,30=1,38=1/1,3;
 2/12=2,17=6,18=5,40=1/2;
 3/5=4,6=6,7=1216,11=2,16=1,25=1,30=1,71=2,74=-5,140=1/1,2,3;
 4//1;
 5/5=2,38=5,98=1/2;
 8/6=4,10=90,11=11/1;
 11/6=1,8=1,9=11,15=111,16=1/1,2,10;
 10/6=1/2;
 6/7=2,8=2,9=2,10=2,18=1,28=1/1;
 7/8=1,10=1,25=1/1,2,3,16;
 1/10=4,30=1/3;
 99//99;
 Leave Link    1 at Wed Aug  3 23:02:05 2016, MaxMem=           0 cpu:         0.2
 (Enter /home/proyectos/fulerenos/M3C-v2.0/M3C-deps_CCC/g09-AM64L-G09RevC.01/l101.exe)
 ---------
 b3lyp opt
 ---------
 Symbolic Z-matrix:
 Charge =  1 Multiplicity = 2
 S                     1.06732  -1.01829  -0.28165 
 S                    -1.10192   2.29513   0.59484 
 C                     0.08774   1.42238   0.25097 
 C                     1.16287   0.66665  -0.05502 
 H                     2.11906   1.17159  -0.15663 
 H                     2.37614  -1.19928  -0.54708 
 
 NAtoms=      6 NQM=        6 NQMF=       0 NMMI=      0 NMMIF=      0
                NMic=       0 NMicF=      0.
                    Isotopes and Nuclear Properties:
 (Nuclear quadrupole moments (NQMom) in fm**2, nuclear magnetic moments (NMagM)
  in nuclear magnetons)

  Atom         1           2           3           4           5           6
 IAtWgt=          32          32          12          12           1           1
 AtmWgt=  31.9720718  31.9720718  12.0000000  12.0000000   1.0078250   1.0078250
 NucSpn=           0           0           0           0           1           1
 AtZEff=   0.0000000   0.0000000   0.0000000   0.0000000   0.0000000   0.0000000
 NQMom=    0.0000000   0.0000000   0.0000000   0.0000000   0.0000000   0.0000000
 NMagM=    0.0000000   0.0000000   0.0000000   0.0000000   2.7928460   2.7928460
 AtZNuc=  16.0000000  16.0000000   6.0000000   6.0000000   1.0000000   1.0000000
 Leave Link  101 at Wed Aug  3 23:02:05 2016, MaxMem=    33554432 cpu:         0.2
 (Enter /home/proyectos/fulerenos/M3C-v2.0/M3C-deps_CCC/g09-AM64L-G09RevC.01/l103.exe)

 GradGradGradGradGradGradGradGradGradGradGradGradGradGradGradGradGradGrad
 Berny optimization.
 Initialization pass.
 Trust Radius=3.00D-01 FncErr=1.00D-07 GrdErr=1.00D-07
 Number of steps in this run=      2 maximum allowed number of steps=      2.
 GradGradGradGradGradGradGradGradGradGradGradGradGradGradGradGradGradGrad

 Leave Link  103 at Wed Aug  3 23:02:05 2016, MaxMem=    33554432 cpu:         0.1
 (Enter /home/proyectos/fulerenos/M3C-v2.0/M3C-deps_CCC/g09-AM64L-G09RevC.01/l202.exe)
                          Input orientation:                          
 ---------------------------------------------------------------------
 Center     Atomic      Atomic             Coordinates (Angstroms)
 Number     Number       Type             X           Y           Z
 ---------------------------------------------------------------------
      1         16           0        1.067324   -1.018291   -0.281649
      2         16           0       -1.101919    2.295127    0.594838
      3          6           0        0.087740    1.422383    0.250969
      4          6           0        1.162869    0.666651   -0.055015
      5          1           0        2.119065    1.171592   -0.156629
      6          1           0        2.376137   -1.199280   -0.547081
 ---------------------------------------------------------------------
                    Distance matrix (angstroms):
                    1          2          3          4          5
     1  S    0.000000
     2  S    4.056178   0.000000
     3  C    2.683311   1.514997   0.000000
     4  C    1.702798   2.864177   1.349319   0.000000
     5  H    2.432566   3.493104   2.086939   1.086094   0.000000
     6  H    1.347665   5.060803   3.570261   2.279439   2.416521
                    6
     6  H    0.000000
 Stoichiometry    C2H2S2(1+,2)
 Framework group  CS[SG(C2H2S2)]
 Deg. of freedom     9
 Full point group                 CS      NOp   2
 Largest Abelian subgroup         CS      NOp   2
 Largest concise Abelian subgroup C1      NOp   1
                         Standard orientation:                         
 ---------------------------------------------------------------------
 Center     Atomic      Atomic             Coordinates (Angstroms)
 Number     Number       Type             X           Y           Z
 ---------------------------------------------------------------------
      1         16           0        0.416701   -1.914355   -0.000000
      2         16           0       -0.975774    1.895316   -0.000000
      3          6           0       -0.000000    0.736403    0.000000
      4          6           0        0.889246   -0.278439    0.000000
      5          1           0        1.944488   -0.021410    0.000000
      6          1           0        1.665206   -2.421738    0.000000
 ---------------------------------------------------------------------
 Rotational constants (GHZ):     32.7462207      1.7932851      1.7001780
 Leave Link  202 at Wed Aug  3 23:02:05 2016, MaxMem=    33554432 cpu:         0.0
 (Enter /home/proyectos/fulerenos/M3C-v2.0/M3C-deps_CCC/g09-AM64L-G09RevC.01/l301.exe)
 Standard basis: 6-311++G(3df,2p) (5D, 7F)
 Ernie: Thresh=  0.10000D-02 Tol=  0.10000D-05 Strict=F.
 There are   152 symmetry adapted cartesian basis functions of A'  symmetry.
 There are    64 symmetry adapted cartesian basis functions of A"  symmetry.
 There are   132 symmetry adapted basis functions of A'  symmetry.
 There are    60 symmetry adapted basis functions of A"  symmetry.
   192 basis functions,   284 primitive gaussians,   216 cartesian basis functions
    23 alpha electrons       22 beta electrons
       nuclear repulsion energy       168.3577161394 Hartrees.
 IExCor=  402 DFT=T Ex+Corr=B3LYP ExCW=0 ScaHFX=  0.200000
 ScaDFX=  0.800000  0.720000  1.000000  0.810000 ScalE2=  1.000000  1.000000
 IRadAn=      0 IRanWt=     -1 IRanGd=            0 ICorTp=0 IEmpDi=  4
 NAtoms=    6 NActive=    6 NUniq=    6 SFac= 1.00D+00 NAtFMM=   60 NAOKFM=F Big=F
 Integral buffers will be    131072 words long.
 Raffenetti 2 integral format.
 Two-electron integral symmetry is turned on.
 Leave Link  301 at Wed Aug  3 23:02:05 2016, MaxMem=    33554432 cpu:         0.2
 (Enter /home/proyectos/fulerenos/M3C-v2.0/M3C-deps_CCC/g09-AM64L-G09RevC.01/l302.exe)
 NPDir=0 NMtPBC=     1 NCelOv=     1 NCel=       1 NClECP=     1 NCelD=      1
         NCelK=      1 NCelE2=     1 NClLst=     1 CellRange=     0.0.
 One-electron integrals computed using PRISM.
 NBasis=   192 RedAO= T EigKep=  1.42D-05  NBF=   132    60
 NBsUse=   192 1.00D-06 EigRej= -1.00D+00 NBFU=   132    60
 Precomputing XC quadrature grid using
 IXCGrd= 4 IRadAn=           0 IRanWt=          -1 IRanGd=           0 AccXCQ= 0.00D+00.
 Generated NRdTot=       0 NPtTot=           0 NUsed=           0 NTot=          32
 NSgBfM=   214   214   214   214   214 MxSgAt=     6 MxSgA2=     6.
 Leave Link  302 at Wed Aug  3 23:02:05 2016, MaxMem=    33554432 cpu:         0.8
 (Enter /home/proyectos/fulerenos/M3C-v2.0/M3C-deps_CCC/g09-AM64L-G09RevC.01/l303.exe)
 DipDrv:  MaxL=1.
 Leave Link  303 at Wed Aug  3 23:02:05 2016, MaxMem=    33554432 cpu:         0.1
 (Enter /home/proyectos/fulerenos/M3C-v2.0/M3C-deps_CCC/g09-AM64L-G09RevC.01/l401.exe)
 ExpMin= 3.60D-02 ExpMax= 9.34D+04 ExpMxC= 3.17D+03 IAcc=3 IRadAn=         5 AccDes= 0.00D+00
 Harris functional with IExCor=  402 and IRadAn=       5 diagonalized for initial guess.
 HarFok:  IExCor=  402 AccDes= 0.00D+00 IRadAn=         5 IDoV= 1 UseB2=F ITyADJ=14
 ICtDFT=  3500011 ScaDFX=  1.000000  1.000000  1.000000  1.000000
 FoFCou: FMM=F IPFlag=           0 FMFlag=      100000 FMFlg1=           0
         NFxFlg=           0 DoJE=T BraDBF=F KetDBF=T FulRan=T
         wScrn=  0.000000 ICntrl=     500 IOpCl=  0 I1Cent=   200000004 NGrid=           0
         NMat0=    1 NMatS0=      1 NMatT0=    0 NMatD0=    1 NMtDS0=    0 NMtDT0=    0
 Petite list used in FoFCou.
 Harris En= -873.532218060432    
 JPrj=0 DoOrth=F DoCkMO=F.
 Initial guess orbital symmetries:
 Alpha Orbitals:
       Occupied  (A') (A') (A') (A') (A') (A') (A') (A') (A') (A")
                 (A') (A") (A') (A') (A') (A') (A') (A') (A") (A')
                 (A') (A") (A")
       Virtual   (A') (A") (A') (A') (A') (A') (A') (A") (A') (A')
                 (A') (A") (A') (A") (A') (A') (A") (A') (A') (A')
                 (A') (A') (A") (A') (A") (A') (A') (A') (A") (A')
                 (A") (A') (A') (A') (A") (A') (A") (A') (A') (A")
                 (A') (A') (A') (A') (A") (A') (A") (A') (A') (A')
                 (A") (A') (A") (A') (A') (A") (A') (A') (A') (A")
                 (A') (A') (A') (A") (A") (A') (A") (A') (A') (A")
                 (A') (A") (A') (A') (A') (A') (A') (A') (A") (A")
                 (A') (A') (A") (A') (A") (A') (A") (A') (A") (A')
                 (A") (A') (A") (A") (A') (A') (A') (A") (A') (A")
                 (A') (A') (A') (A') (A') (A") (A') (A') (A') (A")
                 (A') (A") (A') (A') (A") (A") (A') (A') (A') (A")
                 (A') (A") (A') (A') (A') (A") (A") (A') (A') (A')
                 (A') (A") (A') (A") (A') (A") (A') (A") (A') (A")
                 (A') (A') (A") (A') (A') (A') (A') (A") (A') (A")
                 (A") (A') (A') (A') (A") (A') (A') (A') (A') (A")
                 (A") (A') (A') (A') (A') (A') (A') (A') (A')
 Beta  Orbitals:
       Occupied  (A') (A') (A') (A') (A') (A') (A') (A') (A') (A")
                 (A') (A") (A') (A') (A') (A') (A') (A') (A") (A')
                 (A') (A")
       Virtual   (A") (A') (A") (A') (A') (A') (A') (A') (A") (A')
                 (A') (A') (A") (A') (A") (A') (A') (A") (A') (A')
                 (A') (A') (A') (A") (A') (A") (A') (A') (A') (A")
                 (A') (A") (A') (A') (A') (A") (A') (A") (A') (A')
                 (A") (A') (A') (A') (A') (A") (A') (A") (A') (A')
                 (A') (A") (A') (A") (A') (A') (A") (A') (A') (A')
                 (A") (A') (A') (A') (A") (A") (A') (A") (A') (A')
                 (A") (A') (A") (A') (A') (A') (A') (A') (A') (A")
                 (A") (A') (A') (A") (A') (A") (A') (A") (A') (A")
                 (A') (A") (A') (A") (A") (A') (A') (A') (A") (A')
                 (A") (A') (A') (A') (A') (A') (A") (A') (A') (A')
                 (A") (A') (A") (A') (A') (A") (A") (A') (A') (A')
                 (A") (A') (A") (A') (A') (A') (A") (A") (A') (A')
                 (A') (A') (A") (A') (A") (A') (A") (A') (A") (A')
                 (A") (A') (A') (A") (A') (A') (A') (A') (A") (A')
                 (A") (A") (A') (A') (A') (A") (A') (A') (A') (A')
                 (A") (A") (A') (A') (A') (A') (A') (A') (A') (A')
 The electronic state of the initial guess is 2-A".
 Initial guess <Sx>= 0.0000 <Sy>= 0.0000 <Sz>= 0.5000 <S**2>= 0.7500 S= 0.5000
 Leave Link  401 at Wed Aug  3 23:02:06 2016, MaxMem=    33554432 cpu:         2.4
 (Enter /home/proyectos/fulerenos/M3C-v2.0/M3C-deps_CCC/g09-AM64L-G09RevC.01/l502.exe)
 UHF open shell SCF:
 Using DIIS extrapolation, IDIIS=  1040.
 Integral symmetry usage will be decided dynamically.
 IVT=      161442 IEndB=      161442 NGot=    33554432 MDV=    33456503
 LenX=    33456503 LenY=    33409406
 Requested convergence on RMS density matrix=1.00D-08 within 128 cycles.
 Requested convergence on MAX density matrix=1.00D-06.
 Requested convergence on             energy=1.00D-06.
 No special actions if energy rises.
 Fock matrices will be formed incrementally for  20 cycles.

 Cycle   1  Pass 1  IDiag  1:
 FoFJK:  IHMeth= 1 ICntrl=       0 DoSepK=F KAlg= 0 I1Cent=   0 FoldK=F
 IRaf= 940000000 NMat=   1 IRICut=       1 DoRegI=T DoRafI=F ISym2E= 1.
 FoFCou: FMM=F IPFlag=           0 FMFlag=      100000 FMFlg1=           0
         NFxFlg=           0 DoJE=F BraDBF=F KetDBF=F FulRan=T
         wScrn=  0.000000 ICntrl=       0 IOpCl=  1 I1Cent=           0 NGrid=           0
         NMat0=    1 NMatS0=      1 NMatT0=    0 NMatD0=    1 NMtDS0=    0 NMtDT0=    0
 Petite list used in FoFCou.
 E= -873.418053058077    
 DIIS: error= 3.39D-02 at cycle   1 NSaved=   1.
 NSaved= 1 IEnMin= 1 EnMin= -873.418053058077     IErMin= 1 ErrMin= 3.39D-02
 ErrMax= 3.39D-02  0.00D+00 EMaxC= 1.00D-01 BMatC= 6.45D-01 BMatP= 6.45D-01
 IDIUse=3 WtCom= 6.61D-01 WtEn= 3.39D-01
 Coeff-Com:  0.100D+01
 Coeff-En:   0.100D+01
 Coeff:      0.100D+01
 Gap=     0.139 Goal=   None    Shift=    0.000
 Gap=     0.140 Goal=   None    Shift=    0.000
 GapD=    0.139 DampG=1.000 DampE=0.500 DampFc=0.5000 IDamp=-1.
 Damping current iteration by 5.00D-01
 RMSDP=7.19D-03 MaxDP=5.86D-01              OVMax= 4.30D-01

 Cycle   2  Pass 1  IDiag  1:
 RMSU=  3.49D-03    CP:  1.04D+00
 E= -873.398983955650     Delta-E=        0.019069102427 Rises=F Damp=T
 DIIS: error= 1.89D-02 at cycle   2 NSaved=   2.
 NSaved= 2 IEnMin= 1 EnMin= -873.418053058077     IErMin= 2 ErrMin= 1.89D-02
 ErrMax= 1.89D-02  0.00D+00 EMaxC= 1.00D-01 BMatC= 1.97D-01 BMatP= 6.45D-01
 IDIUse=3 WtCom= 8.11D-01 WtEn= 1.89D-01
 Coeff-Com:  0.320D+00 0.680D+00
 Coeff-En:   0.544D+00 0.456D+00
 Coeff:      0.362D+00 0.638D+00
 Gap=     0.154 Goal=   None    Shift=    0.000
 Gap=     0.131 Goal=   None    Shift=    0.000
 RMSDP=2.20D-03 MaxDP=8.61D-02 DE= 1.91D-02 OVMax= 3.90D-01

 Cycle   3  Pass 1  IDiag  1:
 RMSU=  1.85D-03    CP:  1.07D+00  7.35D-01
 E= -873.536878647746     Delta-E=       -0.137894692097 Rises=F Damp=F
 DIIS: error= 7.24D-03 at cycle   3 NSaved=   3.
 NSaved= 3 IEnMin= 3 EnMin= -873.536878647746     IErMin= 3 ErrMin= 7.24D-03
 ErrMax= 7.24D-03  0.00D+00 EMaxC= 1.00D-01 BMatC= 2.58D-02 BMatP= 1.97D-01
 IDIUse=3 WtCom= 9.28D-01 WtEn= 7.24D-02
 Coeff-Com:  0.354D-01 0.249D+00 0.716D+00
 Coeff-En:   0.000D+00 0.000D+00 0.100D+01
 Coeff:      0.328D-01 0.231D+00 0.736D+00
 Gap=     0.129 Goal=   None    Shift=    0.000
 Gap=     0.144 Goal=   None    Shift=    0.000
 RMSDP=8.95D-04 MaxDP=3.59D-02 DE=-1.38D-01 OVMax= 5.71D-02

 Cycle   4  Pass 1  IDiag  1:
 RMSU=  7.04D-04    CP:  1.06D+00  7.94D-01  7.77D-01
 E= -873.539905756478     Delta-E=       -0.003027108731 Rises=F Damp=F
 DIIS: error= 4.12D-03 at cycle   4 NSaved=   4.
 NSaved= 4 IEnMin= 4 EnMin= -873.539905756478     IErMin= 4 ErrMin= 4.12D-03
 ErrMax= 4.12D-03  0.00D+00 EMaxC= 1.00D-01 BMatC= 1.54D-02 BMatP= 2.58D-02
 IDIUse=3 WtCom= 9.59D-01 WtEn= 4.12D-02
 Coeff-Com: -0.766D-02 0.532D-01 0.466D+00 0.489D+00
 Coeff-En:   0.000D+00 0.000D+00 0.387D+00 0.613D+00
 Coeff:     -0.734D-02 0.510D-01 0.462D+00 0.494D+00
 Gap=     0.131 Goal=   None    Shift=    0.000
 Gap=     0.147 Goal=   None    Shift=    0.000
 RMSDP=3.61D-04 MaxDP=1.82D-02 DE=-3.03D-03 OVMax= 5.24D-02

 Cycle   5  Pass 1  IDiag  1:
 RMSU=  2.91D-04    CP:  1.06D+00  8.04D-01  8.37D-01  7.45D-01
 E= -873.543698403968     Delta-E=       -0.003792647490 Rises=F Damp=F
 DIIS: error= 1.26D-03 at cycle   5 NSaved=   5.
 NSaved= 5 IEnMin= 5 EnMin= -873.543698403968     IErMin= 5 ErrMin= 1.26D-03
 ErrMax= 1.26D-03  0.00D+00 EMaxC= 1.00D-01 BMatC= 9.71D-04 BMatP= 1.54D-02
 IDIUse=3 WtCom= 9.87D-01 WtEn= 1.26D-02
 Coeff-Com: -0.230D-02-0.164D-02 0.182D+00 0.272D+00 0.550D+00
 Coeff-En:   0.000D+00 0.000D+00 0.000D+00 0.000D+00 0.100D+01
 Coeff:     -0.227D-02-0.161D-02 0.180D+00 0.268D+00 0.555D+00
 Gap=     0.130 Goal=   None    Shift=    0.000
 Gap=     0.147 Goal=   None    Shift=    0.000
 RMSDP=1.33D-04 MaxDP=7.92D-03 DE=-3.79D-03 OVMax= 9.89D-03

 Cycle   6  Pass 1  IDiag  1:
 RMSU=  8.37D-05    CP:  1.06D+00  7.99D-01  8.76D-01  8.23D-01  8.67D-01
 E= -873.543959614218     Delta-E=       -0.000261210250 Rises=F Damp=F
 DIIS: error= 3.53D-04 at cycle   6 NSaved=   6.
 NSaved= 6 IEnMin= 6 EnMin= -873.543959614218     IErMin= 6 ErrMin= 3.53D-04
 ErrMax= 3.53D-04  0.00D+00 EMaxC= 1.00D-01 BMatC= 4.20D-05 BMatP= 9.71D-04
 IDIUse=3 WtCom= 9.96D-01 WtEn= 3.53D-03
 Coeff-Com:  0.229D-02-0.915D-02 0.868D-02 0.312D-01 0.134D+00 0.833D+00
 Coeff-En:   0.000D+00 0.000D+00 0.000D+00 0.000D+00 0.000D+00 0.100D+01
 Coeff:      0.229D-02-0.912D-02 0.864D-02 0.311D-01 0.133D+00 0.834D+00
 Gap=     0.131 Goal=   None    Shift=    0.000
 Gap=     0.148 Goal=   None    Shift=    0.000
 RMSDP=7.05D-05 MaxDP=5.58D-03 DE=-2.61D-04 OVMax= 5.11D-03

 Cycle   7  Pass 1  IDiag  1:
 RMSU=  5.04D-05    CP:  1.06D+00  7.97D-01  8.89D-01  8.61D-01  9.59D-01
                    CP:  1.22D+00
 E= -873.543981761922     Delta-E=       -0.000022147705 Rises=F Damp=F
 DIIS: error= 1.31D-04 at cycle   7 NSaved=   7.
 NSaved= 7 IEnMin= 7 EnMin= -873.543981761922     IErMin= 7 ErrMin= 1.31D-04
 ErrMax= 1.31D-04  0.00D+00 EMaxC= 1.00D-01 BMatC= 9.25D-06 BMatP= 4.20D-05
 IDIUse=3 WtCom= 9.99D-01 WtEn= 1.31D-03
 Coeff-Com:  0.715D-03-0.117D-02-0.285D-01-0.351D-01-0.826D-01 0.246D+00
 Coeff-Com:  0.901D+00
 Coeff-En:   0.000D+00 0.000D+00 0.000D+00 0.000D+00 0.000D+00 0.000D+00
 Coeff-En:   0.100D+01
 Coeff:      0.714D-03-0.117D-02-0.285D-01-0.351D-01-0.825D-01 0.246D+00
 Coeff:      0.901D+00
 Gap=     0.131 Goal=   None    Shift=    0.000
 Gap=     0.148 Goal=   None    Shift=    0.000
 RMSDP=5.22D-05 MaxDP=5.71D-03 DE=-2.21D-05 OVMax= 2.04D-03

 Cycle   8  Pass 1  IDiag  1:
 RMSU=  1.85D-05    CP:  1.06D+00  8.01D-01  9.03D-01  8.90D-01  1.00D+00
                    CP:  1.50D+00  1.36D+00
 E= -873.543988444451     Delta-E=       -0.000006682528 Rises=F Damp=F
 DIIS: error= 8.53D-05 at cycle   8 NSaved=   8.
 NSaved= 8 IEnMin= 8 EnMin= -873.543988444451     IErMin= 8 ErrMin= 8.53D-05
 ErrMax= 8.53D-05  0.00D+00 EMaxC= 1.00D-01 BMatC= 2.99D-06 BMatP= 9.25D-06
 IDIUse=1 WtCom= 1.00D+00 WtEn= 0.00D+00
 Coeff-Com: -0.424D-03 0.176D-02-0.141D-01-0.188D-01-0.661D-01-0.456D-01
 Coeff-Com:  0.413D+00 0.730D+00
 Coeff:     -0.424D-03 0.176D-02-0.141D-01-0.188D-01-0.661D-01-0.456D-01
 Coeff:      0.413D+00 0.730D+00
 Gap=     0.131 Goal=   None    Shift=    0.000
 Gap=     0.148 Goal=   None    Shift=    0.000
 RMSDP=2.26D-05 MaxDP=1.92D-03 DE=-6.68D-06 OVMax= 1.67D-03

 Cycle   9  Pass 1  IDiag  1:
 RMSU=  7.06D-06    CP:  1.06D+00  8.01D-01  9.06D-01  9.04D-01  1.04D+00
                    CP:  1.63D+00  1.55D+00  9.24D-01
 E= -873.543990271036     Delta-E=       -0.000001826586 Rises=F Damp=F
 DIIS: error= 4.07D-05 at cycle   9 NSaved=   9.
 NSaved= 9 IEnMin= 9 EnMin= -873.543990271036     IErMin= 9 ErrMin= 4.07D-05
 ErrMax= 4.07D-05  0.00D+00 EMaxC= 1.00D-01 BMatC= 1.02D-06 BMatP= 2.99D-06
 IDIUse=1 WtCom= 1.00D+00 WtEn= 0.00D+00
 Coeff-Com: -0.462D-03 0.143D-02-0.255D-02-0.237D-02-0.193D-01-0.851D-01
 Coeff-Com: -0.428D-02 0.401D+00 0.712D+00
 Coeff:     -0.462D-03 0.143D-02-0.255D-02-0.237D-02-0.193D-01-0.851D-01
 Coeff:     -0.428D-02 0.401D+00 0.712D+00
 Gap=     0.131 Goal=   None    Shift=    0.000
 Gap=     0.148 Goal=   None    Shift=    0.000
 RMSDP=1.37D-05 MaxDP=1.31D-03 DE=-1.83D-06 OVMax= 7.89D-04

 Cycle  10  Pass 1  IDiag  1:
 RMSU=  3.09D-06    CP:  1.06D+00  8.02D-01  9.08D-01  9.14D-01  1.05D+00
                    CP:  1.70D+00  1.68D+00  1.11D+00  1.12D+00
 E= -873.543990964467     Delta-E=       -0.000000693430 Rises=F Damp=F
 DIIS: error= 1.75D-05 at cycle  10 NSaved=  10.
 NSaved=10 IEnMin=10 EnMin= -873.543990964467     IErMin=10 ErrMin= 1.75D-05
 ErrMax= 1.75D-05  0.00D+00 EMaxC= 1.00D-01 BMatC= 1.18D-07 BMatP= 1.02D-06
 IDIUse=1 WtCom= 1.00D+00 WtEn= 0.00D+00
 Coeff-Com:  0.462D-05-0.167D-03 0.366D-02 0.582D-02 0.147D-01-0.518D-02
 Coeff-Com: -0.133D+00-0.100D+00 0.169D+00 0.105D+01
 Coeff:      0.462D-05-0.167D-03 0.366D-02 0.582D-02 0.147D-01-0.518D-02
 Coeff:     -0.133D+00-0.100D+00 0.169D+00 0.105D+01
 Gap=     0.131 Goal=   None    Shift=    0.000
 Gap=     0.148 Goal=   None    Shift=    0.000
 RMSDP=8.36D-06 MaxDP=7.75D-04 DE=-6.93D-07 OVMax= 5.47D-04

 Cycle  11  Pass 1  IDiag  1:
 RMSU=  1.49D-06    CP:  1.06D+00  8.02D-01  9.10D-01  9.19D-01  1.06D+00
                    CP:  1.74D+00  1.75D+00  1.22D+00  1.43D+00  1.16D+00
 E= -873.543991150300     Delta-E=       -0.000000185833 Rises=F Damp=F
 DIIS: error= 8.42D-06 at cycle  11 NSaved=  11.
 NSaved=11 IEnMin=11 EnMin= -873.543991150300     IErMin=11 ErrMin= 8.42D-06
 ErrMax= 8.42D-06  0.00D+00 EMaxC= 1.00D-01 BMatC= 2.25D-08 BMatP= 1.18D-07
 IDIUse=1 WtCom= 1.00D+00 WtEn= 0.00D+00
 Coeff-Com:  0.945D-04-0.271D-03 0.864D-03 0.721D-03 0.322D-02 0.142D-01
 Coeff-Com: -0.736D-02-0.676D-01-0.133D+00 0.678D-01 0.112D+01
 Coeff:      0.945D-04-0.271D-03 0.864D-03 0.721D-03 0.322D-02 0.142D-01
 Coeff:     -0.736D-02-0.676D-01-0.133D+00 0.678D-01 0.112D+01
 Gap=     0.131 Goal=   None    Shift=    0.000
 Gap=     0.148 Goal=   None    Shift=    0.000
 RMSDP=3.46D-06 MaxDP=3.19D-04 DE=-1.86D-07 OVMax= 2.70D-04

 Cycle  12  Pass 1  IDiag  1:
 RMSU=  8.17D-07    CP:  1.06D+00  8.03D-01  9.11D-01  9.21D-01  1.07D+00
                    CP:  1.76D+00  1.78D+00  1.26D+00  1.52D+00  1.41D+00
                    CP:  1.28D+00
 E= -873.543991188577     Delta-E=       -0.000000038278 Rises=F Damp=F
 DIIS: error= 3.41D-06 at cycle  12 NSaved=  12.
 NSaved=12 IEnMin=12 EnMin= -873.543991188577     IErMin=12 ErrMin= 3.41D-06
 ErrMax= 3.41D-06  0.00D+00 EMaxC= 1.00D-01 BMatC= 5.91D-09 BMatP= 2.25D-08
 IDIUse=1 WtCom= 1.00D+00 WtEn= 0.00D+00
 Coeff-Com:  0.391D-04-0.647D-04-0.769D-03-0.148D-02-0.288D-02 0.516D-02
 Coeff-Com:  0.368D-01 0.705D-02-0.796D-01-0.271D+00 0.299D+00 0.101D+01
 Coeff:      0.391D-04-0.647D-04-0.769D-03-0.148D-02-0.288D-02 0.516D-02
 Coeff:      0.368D-01 0.705D-02-0.796D-01-0.271D+00 0.299D+00 0.101D+01
 Gap=     0.131 Goal=   None    Shift=    0.000
 Gap=     0.148 Goal=   None    Shift=    0.000
 RMSDP=1.50D-06 MaxDP=1.22D-04 DE=-3.83D-08 OVMax= 1.32D-04

 Cycle  13  Pass 1  IDiag  1:
 RMSU=  2.88D-07    CP:  1.06D+00  8.03D-01  9.11D-01  9.22D-01  1.07D+00
                    CP:  1.77D+00  1.79D+00  1.27D+00  1.56D+00  1.48D+00
                    CP:  1.67D+00  1.14D+00
 E= -873.543991196213     Delta-E=       -0.000000007635 Rises=F Damp=F
 DIIS: error= 8.81D-07 at cycle  13 NSaved=  13.
 NSaved=13 IEnMin=13 EnMin= -873.543991196213     IErMin=13 ErrMin= 8.81D-07
 ErrMax= 8.81D-07  0.00D+00 EMaxC= 1.00D-01 BMatC= 5.82D-10 BMatP= 5.91D-09
 IDIUse=1 WtCom= 1.00D+00 WtEn= 0.00D+00
 Coeff-Com: -0.131D-04 0.339D-04-0.168D-03-0.188D-03-0.254D-03-0.211D-02
 Coeff-Com:  0.402D-02 0.841D-02 0.193D-01-0.342D-01-0.143D+00 0.673D-01
 Coeff-Com:  0.108D+01
 Coeff:     -0.131D-04 0.339D-04-0.168D-03-0.188D-03-0.254D-03-0.211D-02
 Coeff:      0.402D-02 0.841D-02 0.193D-01-0.342D-01-0.143D+00 0.673D-01
 Coeff:      0.108D+01
 Gap=     0.131 Goal=   None    Shift=    0.000
 Gap=     0.148 Goal=   None    Shift=    0.000
 RMSDP=4.30D-07 MaxDP=3.80D-05 DE=-7.64D-09 OVMax= 4.08D-05

 Cycle  14  Pass 1  IDiag  1:
 RMSU=  7.52D-08    CP:  1.06D+00  8.03D-01  9.11D-01  9.22D-01  1.07D+00
                    CP:  1.77D+00  1.79D+00  1.27D+00  1.57D+00  1.49D+00
                    CP:  1.77D+00  1.32D+00  1.30D+00
 E= -873.543991196858     Delta-E=       -0.000000000645 Rises=F Damp=F
 DIIS: error= 4.01D-07 at cycle  14 NSaved=  14.
 NSaved=14 IEnMin=14 EnMin= -873.543991196858     IErMin=14 ErrMin= 4.01D-07
 ErrMax= 4.01D-07  0.00D+00 EMaxC= 1.00D-01 BMatC= 7.06D-11 BMatP= 5.82D-10
 IDIUse=1 WtCom= 1.00D+00 WtEn= 0.00D+00
 Coeff-Com: -0.875D-05 0.195D-04-0.961D-05 0.103D-04 0.253D-04-0.657D-03
 Coeff-Com: -0.142D-02 0.162D-02 0.820D-02 0.110D-01-0.464D-01-0.621D-01
 Coeff-Com:  0.175D+00 0.915D+00
 Coeff:     -0.875D-05 0.195D-04-0.961D-05 0.103D-04 0.253D-04-0.657D-03
 Coeff:     -0.142D-02 0.162D-02 0.820D-02 0.110D-01-0.464D-01-0.621D-01
 Coeff:      0.175D+00 0.915D+00
 Gap=     0.131 Goal=   None    Shift=    0.000
 Gap=     0.148 Goal=   None    Shift=    0.000
 RMSDP=1.16D-07 MaxDP=1.23D-05 DE=-6.45D-10 OVMax= 6.70D-06

 Cycle  15  Pass 1  IDiag  1:
 RMSU=  3.15D-08    CP:  1.06D+00  8.03D-01  9.11D-01  9.22D-01  1.07D+00
                    CP:  1.77D+00  1.79D+00  1.27D+00  1.57D+00  1.49D+00
                    CP:  1.78D+00  1.35D+00  1.42D+00  1.15D+00
 E= -873.543991196901     Delta-E=       -0.000000000043 Rises=F Damp=F
 DIIS: error= 1.01D-07 at cycle  15 NSaved=  15.
 NSaved=15 IEnMin=15 EnMin= -873.543991196901     IErMin=15 ErrMin= 1.01D-07
 ErrMax= 1.01D-07  0.00D+00 EMaxC= 1.00D-01 BMatC= 7.69D-12 BMatP= 7.06D-11
 IDIUse=1 WtCom= 1.00D+00 WtEn= 0.00D+00
 Coeff-Com: -0.694D-06 0.325D-06 0.175D-04 0.224D-04 0.849D-04 0.163D-03
 Coeff-Com: -0.904D-03-0.122D-02-0.282D-04 0.840D-02 0.470D-02-0.258D-01
 Coeff-Com: -0.700D-01 0.157D+00 0.927D+00
 Coeff:     -0.694D-06 0.325D-06 0.175D-04 0.224D-04 0.849D-04 0.163D-03
 Coeff:     -0.904D-03-0.122D-02-0.282D-04 0.840D-02 0.470D-02-0.258D-01
 Coeff:     -0.700D-01 0.157D+00 0.927D+00
 Gap=     0.131 Goal=   None    Shift=    0.000
 Gap=     0.148 Goal=   None    Shift=    0.000
 RMSDP=2.82D-08 MaxDP=1.97D-06 DE=-4.32D-11 OVMax= 2.15D-06

 Cycle  16  Pass 1  IDiag  1:
 RMSU=  7.49D-09    CP:  1.06D+00  8.03D-01  9.11D-01  9.22D-01  1.07D+00
                    CP:  1.77D+00  1.79D+00  1.27D+00  1.57D+00  1.49D+00
                    CP:  1.79D+00  1.36D+00  1.46D+00  1.31D+00  1.06D+00
 E= -873.543991196902     Delta-E=       -0.000000000001 Rises=F Damp=F
 DIIS: error= 5.61D-08 at cycle  16 NSaved=  16.
 NSaved=16 IEnMin=16 EnMin= -873.543991196902     IErMin=16 ErrMin= 5.61D-08
 ErrMax= 5.61D-08  0.00D+00 EMaxC= 1.00D-01 BMatC= 1.08D-12 BMatP= 7.69D-12
 IDIUse=1 WtCom= 1.00D+00 WtEn= 0.00D+00
 Coeff-Com:  0.624D-06-0.132D-05 0.189D-05-0.550D-05 0.637D-05 0.656D-04
 Coeff-Com:  0.180D-03-0.371D-03-0.908D-03-0.584D-03 0.622D-02 0.372D-02
 Coeff-Com: -0.263D-01-0.887D-01 0.126D+00 0.981D+00
 Coeff:      0.624D-06-0.132D-05 0.189D-05-0.550D-05 0.637D-05 0.656D-04
 Coeff:      0.180D-03-0.371D-03-0.908D-03-0.584D-03 0.622D-02 0.372D-02
 Coeff:     -0.263D-01-0.887D-01 0.126D+00 0.981D+00
 Gap=     0.131 Goal=   None    Shift=    0.000
 Gap=     0.148 Goal=   None    Shift=    0.000
 RMSDP=7.49D-09 MaxDP=3.54D-07 DE=-9.09D-13 OVMax= 6.27D-07

 SCF Done:  E(UB3LYP) =  -873.543991197     A.U. after   16 cycles
            NFock= 16  Conv=0.75D-08     -V/T= 2.0017
 <Sx>= 0.0000 <Sy>= 0.0000 <Sz>= 0.5000 <S**2>= 0.7580 S= 0.5040
 <L.S>= 0.000000000000E+00
 KE= 8.720513071426D+02 PE=-2.399307204663D+03 EE= 4.853541901842D+02
 Annihilation of the first spin contaminant:
 S**2 before annihilation     0.7580,   after     0.7500
 Leave Link  502 at Wed Aug  3 23:02:50 2016, MaxMem=    33554432 cpu:       178.8
 (Enter /home/proyectos/fulerenos/M3C-v2.0/M3C-deps_CCC/g09-AM64L-G09RevC.01/l801.exe)
 DoSCS=F DFT=T ScalE2(SS,OS)=  1.000000  1.000000
 Range of M.O.s used for correlation:     1   192
 NBasis=   192 NAE=    23 NBE=    22 NFC=     0 NFV=     0
 NROrb=    192 NOA=    23 NOB=    22 NVA=   169 NVB=   170

 **** Warning!!: The largest alpha MO coefficient is  0.10616964D+03


 **** Warning!!: The largest beta MO coefficient is  0.10265680D+03

 Leave Link  801 at Wed Aug  3 23:02:50 2016, MaxMem=    33554432 cpu:         0.1
 (Enter /home/proyectos/fulerenos/M3C-v2.0/M3C-deps_CCC/g09-AM64L-G09RevC.01/l1101.exe)
 Using compressed storage, NAtomX=     6.
 Will process      7 centers per pass.
 Leave Link 1101 at Wed Aug  3 23:02:51 2016, MaxMem=    33554432 cpu:         0.8
 (Enter /home/proyectos/fulerenos/M3C-v2.0/M3C-deps_CCC/g09-AM64L-G09RevC.01/l1102.exe)
 Symmetrizing basis deriv contribution to polar:
 IMax=3 JMax=2 DiffMx= 0.00D+00
 Leave Link 1102 at Wed Aug  3 23:02:51 2016, MaxMem=    33554432 cpu:         0.1
 (Enter /home/proyectos/fulerenos/M3C-v2.0/M3C-deps_CCC/g09-AM64L-G09RevC.01/l1110.exe)
 Forming Gx(P) for the SCF density, NAtomX=     6.
 Integral derivatives from FoFJK, PRISM(SPDF).
 Do as many integral derivatives as possible in FoFJK.
 G2DrvN: MDV=      33554280.
 G2DrvN: will do     7 centers at a time, making    1 passes.
 Calling FoFCou, ICntrl=  3107 FMM=F I1Cent=   0 AccDes= 0.00D+00.
 FoFJK:  IHMeth= 1 ICntrl=    3107 DoSepK=F KAlg= 0 I1Cent=   0 FoldK=F
 IRaf=         0 NMat=   1 IRICut=       1 DoRegI=T DoRafI=F ISym2E= 1.
 FoFCou: FMM=F IPFlag=           0 FMFlag=      100000 FMFlg1=           0
         NFxFlg=           0 DoJE=F BraDBF=F KetDBF=F FulRan=T
         wScrn=  0.000000 ICntrl=    3107 IOpCl=  1 I1Cent=           0 NGrid=           0
         NMat0=    1 NMatS0=      1 NMatT0=    0 NMatD0=    1 NMtDS0=    0 NMtDT0=    0
 Petite list used in FoFCou.
 End of G2Drv F.D. properties file   721 does not exist.
 End of G2Drv F.D. properties file   722 does not exist.
 End of G2Drv F.D. properties file   788 does not exist.
 Leave Link 1110 at Wed Aug  3 23:03:13 2016, MaxMem=    33554432 cpu:        87.2
 (Enter /home/proyectos/fulerenos/M3C-v2.0/M3C-deps_CCC/g09-AM64L-G09RevC.01/l1002.exe)
 Minotr:  UHF open shell wavefunction.
          IDoAtm=111111
          Direct CPHF calculation.
          Differentiating once with respect to electric field.
                with respect to dipole field.
          Differentiating once with respect to nuclear coordinates.
          Using symmetry in CPHF.
          Requested convergence is 1.0D-08 RMS, and 1.0D-07 maximum.
          Secondary convergence is 1.0D-12 RMS, and 1.0D-12 maximum.
          NewPWx=T KeepS1=F KeepF1=F KeepIn=T MapXYZ=F SortEE=F KeepMc=T.
          MDV=      33553984 using IRadAn=       2.
 Generate precomputed XC quadrature information.
          Solving linear equations simultaneously, MaxMat=       0.
 FoFJK:  IHMeth= 1 ICntrl=       0 DoSepK=F KAlg= 0 I1Cent=   0 FoldK=F
 IRaf= 940000000 NMat=  21 IRICut=      52 DoRegI=T DoRafI=T ISym2E= 2.
 FoFCou: FMM=F IPFlag=           0 FMFlag=      100000 FMFlg1=           0
         NFxFlg=           0 DoJE=F BraDBF=F KetDBF=F FulRan=T
         wScrn=  0.000000 ICntrl=       0 IOpCl=  1 I1Cent=           0 NGrid=           0
         NMat0=   21 NMatS0=     21 NMatT0=    0 NMatD0=   21 NMtDS0=    0 NMtDT0=    0
 Integrals replicated using symmetry in FoFCou.
          There are    21 degrees of freedom in the 1st order CPHF.  IDoFFX=6 NUNeed=     3.
     19 vectors produced by pass  0 Test12= 3.63D-14 4.76D-09 XBig12= 2.95D+02 1.17D+01.
 AX will form    19 AO Fock derivatives at one time.
     18 vectors produced by pass  1 Test12= 3.63D-14 4.76D-09 XBig12= 5.24D+01 1.09D+00.
     18 vectors produced by pass  2 Test12= 3.63D-14 4.76D-09 XBig12= 3.43D+00 5.59D-01.
     18 vectors produced by pass  3 Test12= 3.63D-14 4.76D-09 XBig12= 6.50D-02 6.11D-02.
     18 vectors produced by pass  4 Test12= 3.63D-14 4.76D-09 XBig12= 1.20D-03 8.59D-03.
     18 vectors produced by pass  5 Test12= 3.63D-14 4.76D-09 XBig12= 2.40D-05 8.19D-04.
     18 vectors produced by pass  6 Test12= 3.63D-14 4.76D-09 XBig12= 1.48D-07 7.05D-05.
     13 vectors produced by pass  7 Test12= 3.63D-14 4.76D-09 XBig12= 1.42D-09 4.64D-06.
      4 vectors produced by pass  8 Test12= 3.63D-14 4.76D-09 XBig12= 8.91D-12 5.96D-07.
      2 vectors produced by pass  9 Test12= 3.63D-14 4.76D-09 XBig12= 1.05D-13 5.03D-08.
      2 vectors produced by pass 10 Test12= 3.63D-14 4.76D-09 XBig12= 1.10D-14 3.26D-08.
      2 vectors produced by pass 11 Test12= 3.63D-14 4.76D-09 XBig12= 5.78D-16 5.74D-09.
      1 vectors produced by pass 12 Test12= 3.63D-14 4.76D-09 XBig12= 2.01D-16 4.90D-09.
 InvSVY:  IOpt=1 It=  1 EMax= 7.11D-15
 Solved reduced A of dimension   151 with    21 vectors.
 FullF1:  Do perturbations    1 to     3.
 Isotropic polarizability for W=    0.000000       65.99 Bohr**3.
 End of Minotr F.D. properties file   721 does not exist.
 End of Minotr F.D. properties file   722 does not exist.
 End of Minotr F.D. properties file   788 does not exist.
 Leave Link 1002 at Wed Aug  3 23:04:34 2016, MaxMem=    33554432 cpu:       326.9
 (Enter /home/proyectos/fulerenos/M3C-v2.0/M3C-deps_CCC/g09-AM64L-G09RevC.01/l601.exe)
 Copying SCF densities to generalized density rwf, IOpCl= 1 IROHF=0.

 **********************************************************************

            Population analysis using the SCF density.

 **********************************************************************

 Orbital symmetries:
 Alpha Orbitals:
       Occupied  (A') (A') (A') (A') (A') (A') (A") (A') (A') (A')
                 (A") (A') (A') (A') (A') (A') (A') (A') (A") (A')
                 (A') (A") (A")
       Virtual   (A') (A") (A') (A') (A') (A') (A') (A') (A") (A')
                 (A") (A') (A') (A") (A') (A") (A') (A') (A') (A")
                 (A') (A') (A') (A") (A') (A') (A") (A') (A') (A")
                 (A') (A') (A') (A') (A") (A") (A') (A') (A') (A")
                 (A') (A') (A') (A") (A') (A') (A") (A') (A') (A")
                 (A') (A') (A") (A') (A') (A") (A') (A') (A') (A")
                 (A') (A') (A") (A') (A') (A") (A") (A') (A') (A')
                 (A") (A") (A') (A') (A') (A') (A') (A') (A") (A')
                 (A") (A') (A") (A') (A") (A') (A") (A') (A") (A")
                 (A') (A') (A") (A") (A') (A') (A") (A') (A') (A")
                 (A') (A') (A') (A') (A') (A') (A") (A') (A') (A")
                 (A') (A") (A') (A') (A") (A") (A') (A') (A') (A")
                 (A') (A") (A') (A') (A') (A") (A") (A') (A') (A')
                 (A') (A") (A') (A") (A") (A') (A") (A') (A') (A")
                 (A') (A') (A") (A') (A') (A') (A') (A") (A') (A")
                 (A") (A') (A') (A') (A") (A') (A') (A') (A') (A")
                 (A") (A') (A') (A') (A') (A') (A') (A') (A')
 Beta  Orbitals:
       Occupied  (A') (A') (A') (A') (A') (A') (A') (A') (A') (A")
                 (A') (A") (A') (A') (A') (A') (A') (A') (A") (A')
                 (A') (A")
       Virtual   (A") (A') (A") (A') (A') (A') (A') (A') (A') (A")
                 (A') (A") (A') (A') (A") (A') (A') (A") (A') (A')
                 (A') (A") (A') (A') (A") (A') (A') (A") (A') (A')
                 (A') (A") (A') (A') (A') (A") (A") (A') (A') (A')
                 (A") (A') (A') (A') (A") (A') (A') (A") (A') (A')
                 (A') (A") (A') (A") (A') (A') (A") (A') (A') (A')
                 (A") (A') (A') (A') (A") (A') (A") (A") (A') (A')
                 (A") (A') (A") (A') (A') (A') (A') (A') (A') (A")
                 (A') (A") (A') (A") (A') (A") (A') (A") (A') (A")
                 (A') (A") (A') (A") (A") (A') (A') (A") (A') (A')
                 (A") (A') (A') (A') (A') (A') (A') (A") (A') (A')
                 (A") (A') (A') (A") (A') (A") (A") (A') (A') (A')
                 (A") (A') (A") (A') (A') (A') (A") (A") (A') (A')
                 (A') (A') (A") (A') (A") (A") (A') (A") (A') (A')
                 (A") (A') (A') (A") (A') (A') (A') (A') (A") (A')
                 (A") (A") (A') (A') (A') (A") (A') (A') (A') (A')
                 (A") (A") (A') (A') (A') (A') (A') (A') (A') (A')
 The electronic state is 2-A".
 Alpha  occ. eigenvalues --  -89.12414 -89.11742 -10.49197 -10.46704  -8.20840
 Alpha  occ. eigenvalues --   -8.20139  -6.16872  -6.16831  -6.16824  -6.16365
 Alpha  occ. eigenvalues --   -6.16112  -6.15953  -1.09354  -1.03868  -0.93381
 Alpha  occ. eigenvalues --   -0.75436  -0.71123  -0.67148  -0.62296  -0.59555
 Alpha  occ. eigenvalues --   -0.55809  -0.54529  -0.44561
 Alpha virt. eigenvalues --   -0.31481  -0.24148  -0.21048  -0.15075  -0.14121
 Alpha virt. eigenvalues --   -0.12748  -0.11733  -0.10164  -0.09487  -0.07356
 Alpha virt. eigenvalues --   -0.06936  -0.06281  -0.05398  -0.05188  -0.04480
 Alpha virt. eigenvalues --   -0.02700  -0.02642  -0.01251  -0.00767   0.00615
 Alpha virt. eigenvalues --    0.01049   0.01660   0.02225   0.04657   0.05040
 Alpha virt. eigenvalues --    0.06608   0.07641   0.08772   0.09099   0.12702
 Alpha virt. eigenvalues --    0.12803   0.13246   0.14592   0.15253   0.15545
 Alpha virt. eigenvalues --    0.17624   0.18852   0.20089   0.23666   0.24258
 Alpha virt. eigenvalues --    0.26398   0.28483   0.30179   0.30529   0.31987
 Alpha virt. eigenvalues --    0.37318   0.38099   0.41963   0.44194   0.47997
 Alpha virt. eigenvalues --    0.48442   0.52217   0.52607   0.55541   0.58008
 Alpha virt. eigenvalues --    0.59222   0.64334   0.64851   0.65985   0.67078
 Alpha virt. eigenvalues --    0.70277   0.72487   0.75274   0.75603   0.76430
 Alpha virt. eigenvalues --    0.76698   0.77451   0.82951   0.85007   0.85390
 Alpha virt. eigenvalues --    0.85550   0.88641   0.95574   0.97573   1.03849
 Alpha virt. eigenvalues --    1.08858   1.15753   1.18205   1.20159   1.25263
 Alpha virt. eigenvalues --    1.25512   1.32022   1.32713   1.36831   1.38277
 Alpha virt. eigenvalues --    1.38359   1.43742   1.46503   1.48778   1.52887
 Alpha virt. eigenvalues --    1.53068   1.57227   1.62191   1.64026   1.66863
 Alpha virt. eigenvalues --    1.73557   1.77739   1.79280   1.81428   1.86059
 Alpha virt. eigenvalues --    1.89015   1.91240   2.02841   2.06964   2.12222
 Alpha virt. eigenvalues --    2.19150   2.19748   2.33876   2.47486   2.52063
 Alpha virt. eigenvalues --    2.53824   2.54415   2.54917   2.61396   2.62369
 Alpha virt. eigenvalues --    2.63834   2.65792   2.68843   2.85661   2.94642
 Alpha virt. eigenvalues --    2.98360   3.10819   3.17581   3.26431   3.32276
 Alpha virt. eigenvalues --    3.39366   3.60057   3.67162   3.77169   3.84047
 Alpha virt. eigenvalues --    3.92154   4.05647   4.11086   4.27831   4.37664
 Alpha virt. eigenvalues --    4.37854   4.41074   4.41806   4.54600   4.56490
 Alpha virt. eigenvalues --    4.72220   4.83326   4.96355   5.03923   5.14867
 Alpha virt. eigenvalues --    5.45465   5.65511   6.71310   6.74249   6.86719
 Alpha virt. eigenvalues --    6.95663   6.99772   7.09595   7.19280   7.26901
 Alpha virt. eigenvalues --    7.59822   7.78339   8.22841   8.61151  17.08878
 Alpha virt. eigenvalues --   17.26631  17.28959  17.44477  17.63173  17.96444
 Alpha virt. eigenvalues --   23.79039  25.31449 189.09510 189.51428
  Beta  occ. eigenvalues --  -89.12172 -89.11501 -10.49127 -10.46270  -8.20622
  Beta  occ. eigenvalues --   -8.19920  -6.16701  -6.16667  -6.16235  -6.16141
  Beta  occ. eigenvalues --   -6.15829  -6.15353  -1.08434  -1.03002  -0.91850
  Beta  occ. eigenvalues --   -0.74795  -0.70630  -0.66374  -0.59709  -0.58990
  Beta  occ. eigenvalues --   -0.55436  -0.51204
  Beta virt. eigenvalues --   -0.36452  -0.31182  -0.21512  -0.20764  -0.14605
  Beta virt. eigenvalues --   -0.14019  -0.12348  -0.11673  -0.09825  -0.09335
  Beta virt. eigenvalues --   -0.07282  -0.06722  -0.06209  -0.05369  -0.04768
  Beta virt. eigenvalues --   -0.04169  -0.02525  -0.02300  -0.00988  -0.00468
  Beta virt. eigenvalues --    0.01049   0.01463   0.01667   0.02279   0.05248
  Beta virt. eigenvalues --    0.05600   0.06682   0.08862   0.08924   0.09218
  Beta virt. eigenvalues --    0.13063   0.13377   0.13451   0.14688   0.15323
  Beta virt. eigenvalues --    0.16165   0.18557   0.19089   0.20239   0.24088
  Beta virt. eigenvalues --    0.25445   0.26653   0.28623   0.30368   0.30988
  Beta virt. eigenvalues --    0.32448   0.37520   0.38962   0.42150   0.44392
  Beta virt. eigenvalues --    0.48489   0.48585   0.52400   0.53088   0.55985
  Beta virt. eigenvalues --    0.58422   0.59967   0.64621   0.65106   0.66267
  Beta virt. eigenvalues --    0.67763   0.70523   0.72898   0.76555   0.76580
  Beta virt. eigenvalues --    0.77575   0.77970   0.78566   0.83113   0.85183
  Beta virt. eigenvalues --    0.85843   0.86004   0.89311   0.95903   0.97720
  Beta virt. eigenvalues --    1.04329   1.09256   1.16101   1.18364   1.21637
  Beta virt. eigenvalues --    1.25565   1.26664   1.32416   1.33572   1.37092
  Beta virt. eigenvalues --    1.40044   1.40147   1.45147   1.47516   1.50111
  Beta virt. eigenvalues --    1.54129   1.54184   1.57928   1.63545   1.65519
  Beta virt. eigenvalues --    1.67248   1.73973   1.79099   1.80072   1.82375
  Beta virt. eigenvalues --    1.87579   1.89759   1.91602   2.03117   2.07413
  Beta virt. eigenvalues --    2.12493   2.19421   2.21109   2.34108   2.47972
  Beta virt. eigenvalues --    2.52779   2.54096   2.55092   2.55212   2.61464
  Beta virt. eigenvalues --    2.63322   2.65489   2.66212   2.69638   2.85874
  Beta virt. eigenvalues --    2.95772   2.99171   3.12003   3.17636   3.27562
  Beta virt. eigenvalues --    3.32602   3.40180   3.60054   3.67263   3.77137
  Beta virt. eigenvalues --    3.83977   3.92517   4.05871   4.11066   4.28855
  Beta virt. eigenvalues --    4.38235   4.38329   4.41671   4.41934   4.54935
  Beta virt. eigenvalues --    4.57115   4.72359   4.84014   4.97274   5.04233
  Beta virt. eigenvalues --    5.15108   5.45633   5.65975   6.71938   6.74688
  Beta virt. eigenvalues --    6.88580   6.97183   7.01094   7.09816   7.20058
  Beta virt. eigenvalues --    7.28177   7.60336   7.78695   8.23191   8.61461
  Beta virt. eigenvalues --   17.09865  17.27590  17.29177  17.44683  17.63339
  Beta virt. eigenvalues --   17.96618  23.79319  25.31779 189.09729 189.51646
          Condensed to atoms (all electrons):
               1          2          3          4          5          6
     1  S   15.551909   0.042286   0.223691  -0.039435  -0.061190   0.239594
     2  S    0.042286  16.128423   0.866402  -1.168349   0.016851  -0.015029
     3  C    0.223691   0.866402   6.548794  -1.650025  -0.063789  -0.092168
     4  C   -0.039435  -1.168349  -1.650025   8.101076   0.417096   0.131791
     5  H   -0.061190   0.016851  -0.063789   0.417096   0.457517   0.000801
     6  H    0.239594  -0.015029  -0.092168   0.131791   0.000801   0.515228
          Atomic-Atomic Spin Densities.
               1          2          3          4          5          6
     1  S    0.451755   0.005804   0.019218  -0.106096  -0.001757   0.001913
     2  S    0.005804   0.499890   0.003601  -0.114475  -0.001572  -0.000832
     3  C    0.019218   0.003601   0.207915  -0.162490  -0.009367  -0.005378
     4  C   -0.106096  -0.114475  -0.162490   0.569270   0.012680   0.005135
     5  H   -0.001757  -0.001572  -0.009367   0.012680  -0.014186   0.000789
     6  H    0.001913  -0.000832  -0.005378   0.005135   0.000789  -0.008990
 Mulliken charges and spin densities:
               1          2
     1  S    0.043146   0.370838
     2  S    0.129417   0.392416
     3  C    0.167096   0.053499
     4  C    0.207846   0.204024
     5  H    0.232714  -0.013414
     6  H    0.219782  -0.007363
 Sum of Mulliken charges =   1.00000   1.00000
 Mulliken charges and spin densities with hydrogens summed into heavy atoms:
               1          2
     1  S    0.262928   0.363474
     2  S    0.129417   0.392416
     3  C    0.167096   0.053499
     4  C    0.440560   0.190610
 APT charges:
               1
     1  S    0.144645
     2  S    0.098363
     3  C    0.438176
     4  C    0.006363
     5  H    0.162474
     6  H    0.149979
 Sum of APT charges =   1.00000
 APT charges with hydrogens summed into heavy atoms:
               1
     1  S    0.294624
     2  S    0.098363
     3  C    0.438176
     4  C    0.168837
 Electronic spatial extent (au):  <R**2>=            610.6065
 Charge=              1.0000 electrons
 Dipole moment (field-independent basis, Debye):
    X=              1.6246    Y=             -0.3429    Z=              0.0000  Tot=              1.6604
 Quadrupole moment (field-independent basis, Debye-Ang):
   XX=            -25.1599   YY=            -15.8602   ZZ=            -35.7374
   XY=             -8.8974   XZ=             -0.0000   YZ=             -0.0000
 Traceless Quadrupole moment (field-independent basis, Debye-Ang):
   XX=              0.4259   YY=              9.7256   ZZ=            -10.1515
   XY=             -8.8974   XZ=             -0.0000   YZ=             -0.0000
 Octapole moment (field-independent basis, Debye-Ang**2):
  XXX=              7.3619  YYY=             -7.4607  ZZZ=             -0.0000  XYY=              1.7741
  XXY=             -1.4334  XXZ=              0.0000  XZZ=             -1.1284  YZZ=              0.8508
  YYZ=             -0.0000  XYZ=             -0.0000
 Hexadecapole moment (field-independent basis, Debye-Ang**3):
 XXXX=           -128.6696 YYYY=           -459.3602 ZZZZ=            -41.9802 XXXY=             79.9296
 XXXZ=             -0.0000 YYYX=             47.8761 YYYZ=             -0.0000 ZZZX=             -0.0000
 ZZZY=             -0.0000 XXYY=            -91.1865 XXZZ=            -34.6261 YYZZ=           -105.4528
 XXYZ=              0.0000 YYXZ=             -0.0000 ZZXY=             34.6002
 N-N= 1.683577161394D+02 E-N=-2.399307207860D+03  KE= 8.720513071426D+02
 Symmetry A'   KE= 7.934994000057D+02
 Symmetry A"   KE= 7.855190713682D+01
  Exact polarizability:  56.227 -27.013 105.312  -0.002  -0.004  36.439
 Approx polarizability: 104.348 -57.852 193.869   0.000  -0.000  56.658
                          Isotropic Fermi Contact Couplings
        Atom                 a.u.       MegaHertz       Gauss      10(-4) cm-1
     1  S(33)              0.04060      13.94495       4.97590       4.65153
     2  S(33)              0.01804       6.19568       2.21077       2.06666
     3  C(13)             -0.01319     -14.83346      -5.29295      -4.94791
     4  C(13)              0.01160      13.04550       4.65496       4.35151
     5  H(1)              -0.00481     -21.49042      -7.66831      -7.16843
     6  H(1)              -0.00351     -15.67628      -5.59369      -5.22905
 --------------------------------------------------------
       Center         ----  Spin Dipole Couplings  ----
                      3XX-RR        3YY-RR        3ZZ-RR
 --------------------------------------------------------
     1   Atom       -0.915109     -0.924093      1.839202
     2   Atom       -0.840646     -0.864275      1.704921
     3   Atom       -0.066164     -0.051926      0.118090
     4   Atom       -0.192347     -0.182789      0.375137
     5   Atom        0.025258     -0.020448     -0.004810
     6   Atom        0.011269     -0.011637      0.000368
 --------------------------------------------------------
                        XY            XZ            YZ
 --------------------------------------------------------
     1   Atom       -0.036542     -0.000000     -0.000000
     2   Atom        0.084352     -0.000000     -0.000000
     3   Atom       -0.040966     -0.000000      0.000000
     4   Atom       -0.004279     -0.000000      0.000000
     5   Atom        0.006400     -0.000000      0.000000
     6   Atom       -0.011900     -0.000000      0.000000
 --------------------------------------------------------


 ---------------------------------------------------------------------------------
              Anisotropic Spin Dipole Couplings in Principal Axis System
 ---------------------------------------------------------------------------------

       Atom             a.u.   MegaHertz   Gauss  10(-4) cm-1        Axes

              Baa    -0.9564   -39.212   -13.992   -13.080  0.6626  0.7490 -0.0000
     1 S(33)  Bbb    -0.8828   -36.193   -12.915   -12.073  0.7490 -0.6626  0.0000
              Bcc     1.8392    75.406    26.907    25.153  0.0000  0.0000  1.0000
 
              Baa    -0.9376   -38.442   -13.717   -12.823 -0.6562  0.7546  0.0000
     2 S(33)  Bbb    -0.7673   -31.458   -11.225   -10.493  0.7546  0.6562 -0.0000
              Bcc     1.7049    69.900    24.942    23.316  0.0000  0.0000  1.0000
 
              Baa    -0.1006   -13.503    -4.818    -4.504  0.7652  0.6437  0.0000
     3 C(13)  Bbb    -0.0175    -2.344    -0.836    -0.782 -0.6437  0.7652  0.0000
              Bcc     0.1181    15.846     5.654     5.286  0.0000  0.0000  1.0000
 
              Baa    -0.1940   -26.031    -9.288    -8.683  0.9341  0.3571  0.0000
     4 C(13)  Bbb    -0.1812   -24.309    -8.674    -8.109 -0.3571  0.9341  0.0000
              Bcc     0.3751    50.340    17.962    16.792  0.0000  0.0000  1.0000
 
              Baa    -0.0213   -11.379    -4.060    -3.796 -0.1361  0.9907 -0.0000
     5 H(1)   Bbb    -0.0048    -2.567    -0.916    -0.856  0.0000  0.0000  1.0000
              Bcc     0.0261    13.946     4.976     4.652  0.9907  0.1361  0.0000
 
              Baa    -0.0167    -8.911    -3.180    -2.972  0.3915  0.9202  0.0000
     6 H(1)   Bbb     0.0004     0.196     0.070     0.066  0.0000 -0.0000  1.0000
              Bcc     0.0163     8.714     3.109     2.907  0.9202 -0.3915 -0.0000
 

 ---------------------------------------------------------------------------------

 No NMR shielding tensors so no spin-rotation constants.
 Leave Link  601 at Wed Aug  3 23:04:35 2016, MaxMem=    33554432 cpu:         1.4
 (Enter /home/proyectos/fulerenos/M3C-v2.0/M3C-deps_CCC/g09-AM64L-G09RevC.01/l701.exe)
 Compute integral second derivatives.
 ... and contract with generalized density number  0.
 Leave Link  701 at Wed Aug  3 23:04:35 2016, MaxMem=    33554432 cpu:         1.0
 (Enter /home/proyectos/fulerenos/M3C-v2.0/M3C-deps_CCC/g09-AM64L-G09RevC.01/l702.exe)
 L702 exits ... SP integral derivatives will be done elsewhere.
 Leave Link  702 at Wed Aug  3 23:04:35 2016, MaxMem=    33554432 cpu:         0.1
 (Enter /home/proyectos/fulerenos/M3C-v2.0/M3C-deps_CCC/g09-AM64L-G09RevC.01/l703.exe)
 Compute integral second derivatives, UseDBF=F ICtDFT=           0.
 Integral derivatives from FoFJK, PRISM(SPDF).
 Calling FoFJK, ICntrl=    100127 FMM=F ISym2X=1 I1Cent= 0 IOpClX= 1 NMat=1 NMatS=1 NMatT=0.
 FoFJK:  IHMeth= 1 ICntrl=  100127 DoSepK=F KAlg= 0 I1Cent=   0 FoldK=F
 IRaf=         0 NMat=   1 IRICut=       1 DoRegI=T DoRafI=F ISym2E= 1.
 FoFCou: FMM=F IPFlag=           0 FMFlag=      100000 FMFlg1=         800
         NFxFlg=           0 DoJE=F BraDBF=F KetDBF=F FulRan=T
         wScrn=  0.000000 ICntrl=  100127 IOpCl=  1 I1Cent=           0 NGrid=           0
         NMat0=    1 NMatS0=      1 NMatT0=    0 NMatD0=    1 NMtDS0=    0 NMtDT0=    0
 Petite list used in FoFCou.
 Leave Link  703 at Wed Aug  3 23:05:11 2016, MaxMem=    33554432 cpu:       143.0
 (Enter /home/proyectos/fulerenos/M3C-v2.0/M3C-deps_CCC/g09-AM64L-G09RevC.01/l716.exe)
 Dipole        = 6.39170457D-01-1.34899060D-01 3.64799020D-17
 Polarizability= 5.62268747D+01-2.70130205D+01 1.05312131D+02
                -2.29263067D-03-4.17070816D-03 3.64391805D+01
 Full mass-weighted force constant matrix:
 Low frequencies ---   -2.5997   -0.0011    0.0009    0.0015    6.8252    9.8259
 Low frequencies ---  152.8524  288.2565  442.9590
 Diagonal vibrational polarizability:
        1.0228381       2.9266161       9.8519933
 Harmonic frequencies (cm**-1), IR intensities (KM/Mole), Raman scattering
 activities (A**4/AMU), depolarization ratios for plane and unpolarized
 incident light, reduced masses (AMU), force constants (mDyne/A),
 and normal coordinates:
                      1                      2                      3
                     A'                     A"                     A"
 Frequencies --    152.8511               288.2533               442.9575
 Red. masses --     11.2152                 1.7193                 1.8424
 Frc consts  --      0.1544                 0.0842                 0.2130
 IR Inten    --      0.8291                26.5223                 0.8387
  Atom  AN      X      Y      Z        X      Y      Z        X      Y      Z
     1  16     0.23  -0.26  -0.00    -0.00   0.00  -0.01     0.00  -0.00  -0.03
     2  16     0.07   0.31   0.00     0.00  -0.00   0.06    -0.00   0.00  -0.03
     3   6    -0.40  -0.09  -0.00     0.00  -0.00  -0.23     0.00   0.00   0.24
     4   6    -0.38  -0.08   0.00     0.00   0.00  -0.01    -0.00  -0.00  -0.13
     5   1    -0.43   0.17   0.00     0.00   0.00   0.31     0.00  -0.00  -0.39
     6   1     0.43   0.25   0.00    -0.00  -0.00   0.92     0.00  -0.00   0.88
                      4                      5                      6
                     A'                     A"                     A'
 Frequencies --    487.4890               715.6070               759.6317
 Red. masses --     11.5564                 1.5085                 3.5795
 Frc consts  --      1.6181                 0.4551                 1.2170
 IR Inten    --      1.3413                21.8245                 1.1704
  Atom  AN      X      Y      Z        X      Y      Z        X      Y      Z
     1  16     0.01  -0.29   0.00     0.00  -0.00   0.02    -0.02  -0.09  -0.00
     2  16    -0.20   0.10   0.00    -0.00   0.00  -0.00    -0.08   0.11   0.00
     3   6     0.51   0.57  -0.00    -0.00  -0.00   0.07    -0.11  -0.10  -0.00
     4   6    -0.03  -0.02   0.00     0.00   0.00  -0.20     0.36   0.08   0.00
     5   1     0.09  -0.50   0.00     0.00   0.00   0.97     0.34   0.22  -0.00
     6   1     0.14   0.04  -0.00    -0.00  -0.00  -0.12    -0.28  -0.75   0.00
                      7                      8                      9
                     A'                     A'                     A'
 Frequencies --    959.7376              1041.7255              1253.1422
 Red. masses --      2.6484                 1.3734                 1.4499
 Frc consts  --      1.4373                 0.8781                 1.3415
 IR Inten    --     39.5817                 0.0074                 4.4547
  Atom  AN      X      Y      Z        X      Y      Z        X      Y      Z
     1  16    -0.06  -0.10   0.00    -0.02   0.00  -0.00    -0.01   0.01   0.00
     2  16     0.06  -0.06  -0.00    -0.03   0.04   0.00    -0.03   0.03  -0.00
     3   6    -0.05   0.04   0.00    -0.01  -0.08   0.00     0.08  -0.03   0.00
     4   6     0.04   0.29  -0.00     0.11  -0.08  -0.00     0.03  -0.16  -0.00
     5   1    -0.03   0.61   0.00     0.19  -0.44  -0.00    -0.21   0.94   0.00
     6   1     0.25   0.67  -0.00     0.29   0.81   0.00     0.06   0.19  -0.00
                     10                     11                     12
                     A'                     A'                     A'
 Frequencies --   1716.0721              2659.5408              3142.6265
 Red. masses --     11.7963                 1.0390                 1.0868
 Frc consts  --     20.4676                 4.3298                 6.3241
 IR Inten    --    126.7463                57.6085                65.1672
  Atom  AN      X      Y      Z        X      Y      Z        X      Y      Z
     1  16    -0.00   0.01  -0.00    -0.03   0.01   0.00    -0.00   0.00  -0.00
     2  16     0.10  -0.12   0.00     0.00  -0.00  -0.00     0.00  -0.00   0.00
     3   6    -0.54   0.64  -0.00    -0.00   0.00   0.00    -0.00  -0.00  -0.00
     4   6     0.26  -0.37   0.00     0.00  -0.00  -0.00    -0.08  -0.02   0.00
     5   1     0.17   0.12  -0.00    -0.01  -0.01   0.00     0.97   0.21  -0.00
     6   1     0.04   0.13   0.00     0.93  -0.37  -0.00     0.01  -0.00   0.00

 -------------------
 - Thermochemistry -
 -------------------
 Temperature   298.150 Kelvin.  Pressure   1.00000 Atm.
 Atom     1 has atomic number 16 and mass  31.97207
 Atom     2 has atomic number 16 and mass  31.97207
 Atom     3 has atomic number  6 and mass  12.00000
 Atom     4 has atomic number  6 and mass  12.00000
 Atom     5 has atomic number  1 and mass   1.00783
 Atom     6 has atomic number  1 and mass   1.00783
 Molecular mass:    89.95979 amu.
 Principal axes and moments of inertia in atomic units:
                           1         2         3
     Eigenvalues --    55.112961006.388361061.50132
           X           -0.37023   0.92894   0.00000
           Y            0.92894   0.37023   0.00000
           Z            0.00000   0.00000   1.00000
 This molecule is an asymmetric top.
 Rotational symmetry number  1.
 Rotational temperatures (Kelvin)      1.57157     0.08606     0.08160
 Rotational constants (GHZ):          32.74622     1.79329     1.70018
 Zero-point vibrational energy      81463.5 (Joules/Mol)
                                   19.47024 (Kcal/Mol)
 Warning -- explicit consideration of   4 degrees of freedom as
           vibrations may cause significant error
 Vibrational temperatures:    219.92   414.73   637.32   701.39  1029.60
          (Kelvin)           1092.94  1380.85  1498.81  1802.99  2469.04
                             3826.48  4521.53
 
 Zero-point correction=                           0.031028 (Hartree/Particle)
 Thermal correction to Energy=                    0.035725
 Thermal correction to Enthalpy=                  0.036669
 Thermal correction to Gibbs Free Energy=         0.002105
 Sum of electronic and zero-point Energies=           -873.512963
 Sum of electronic and thermal Energies=              -873.508267
 Sum of electronic and thermal Enthalpies=            -873.507322
 Sum of electronic and thermal Free Energies=         -873.541886
 
                     E (Thermal)             CV                S
                      KCal/Mol        Cal/Mol-Kelvin    Cal/Mol-Kelvin
 Total                   22.417             14.695             72.746
 Electronic               0.000              0.000              1.377
 Translational            0.889              2.981             39.403
 Rotational               0.889              2.981             25.579
 Vibrational             20.640              8.734              6.386
 Vibration     1          0.619              1.900              2.636
 Vibration     2          0.685              1.696              1.484
 Vibration     3          0.803              1.376              0.817
 Vibration     4          0.843              1.278              0.690
                       Q            Log10(Q)             Ln(Q)
 Total Bot       0.107594D+00         -0.968211         -2.229388
 Total V=0       0.201169D+14         13.303560         30.632580
 Vib (Bot)       0.184678D-13        -13.733585        -31.622748
 Vib (Bot)    1  0.132548D+01          0.122372          0.281772
 Vib (Bot)    2  0.664052D+00         -0.177798         -0.409395
 Vib (Bot)    3  0.389346D+00         -0.409665         -0.943288
 Vib (Bot)    4  0.340867D+00         -0.467415         -1.076263
 Vib (V=0)       0.345292D+01          0.538186          1.239219
 Vib (V=0)    1  0.191665D+01          0.282542          0.650577
 Vib (V=0)    2  0.133124D+01          0.124257          0.286113
 Vib (V=0)    3  0.113371D+01          0.054502          0.125497
 Vib (V=0)    4  0.110514D+01          0.043416          0.099969
 Electronic      0.200000D+01          0.301030          0.693147
 Translational   0.335373D+08          7.525528         17.328168
 Rotational      0.868593D+05          4.938816         11.372045
 
                                                              b3lyp opt
                                                             IR Spectrum
 
     3                   2                                     1                  1       1                                          
     1                   6                                     7                  2       0   9       7 7        4 4     2    1      
     4                   6                                     1                  5       4   6       6 1        8 4     8    5      
     3                   0                                     6                  3       2   0       0 6        7 3     8    3      
 
     X                   X                                     X                  X           X       X X        X X     X    X      
     X                   X                                     X                              X         X                X           
     X                   X                                     X                              X         X                X           
     X                   X                                     X                              X                          X           
     X                   X                                     X                              X                                      
     X                   X                                     X                              X                                      
     X                   X                                     X                                                                     
     X                   X                                     X                                                                     
     X                   X                                     X                                                                     
     X                                                         X                                                                     
                                                               X                                                                     
                                                               X                                                                     
                                                               X                                                                     
                                                               X                                                                     
                                                               X                                                                     
                                                               X                                                                     
                                                               X                                                                     
                                                               X                                                                     
                                                               X                                                                     
                                                               X                                                                     
 
 ***** Axes restored to original set *****
 -------------------------------------------------------------------
 Center     Atomic                   Forces (Hartrees/Bohr)
 Number     Number              X              Y              Z
 -------------------------------------------------------------------
      1       16           0.000014419    0.000025570    0.000001069
      2       16           0.000025639   -0.000034276   -0.000009652
      3        6           0.000017207    0.000018485   -0.000000467
      4        6          -0.000063209   -0.000006487    0.000010613
      5        1           0.000016615   -0.000006618   -0.000003995
      6        1          -0.000010670    0.000003325    0.000002432
 -------------------------------------------------------------------
 Cartesian Forces:  Max     0.000063209 RMS     0.000021138
 Z-matrix is all fixed cartesians, so copy forces.
 Force constants in Cartesian coordinates: 
                1             2             3             4             5 
      1  0.305253D+00
      2 -0.139700D-02  0.291763D+00
      3 -0.542548D-01  0.411447D-01  0.253907D-01
      4 -0.189917D-02 -0.313235D-02  0.136994D-03  0.378112D+00
      5 -0.996436D-03  0.294636D-02  0.415893D-03 -0.267634D+00  0.209355D+00
      6  0.446462D-03  0.806305D-03  0.136845D-02 -0.105835D+00  0.776245D-01
      7  0.215849D-03  0.158894D-01  0.235393D-02 -0.357981D+00  0.240098D+00
      8  0.254267D-01 -0.308668D-01 -0.919158D-02  0.242695D+00 -0.210192D+00
      9  0.373558D-02 -0.744790D-02 -0.126187D-02  0.964755D-01 -0.710737D-01
     10 -0.547720D-01 -0.450839D-01  0.358026D-03 -0.220948D-01  0.295560D-01
     11 -0.373637D-02 -0.223393D+00 -0.292058D-01  0.259203D-01  0.143196D-02
     12  0.634799D-02 -0.216492D-01 -0.213742D-01  0.937059D-02 -0.644505D-02
     13  0.369795D-02  0.332651D-02  0.167297D-02  0.282426D-02 -0.490527D-03
     14 -0.173686D-01 -0.170942D-01 -0.781853D-03  0.143067D-02 -0.356838D-02
     15 -0.132502D-02 -0.456431D-02  0.979617D-02 -0.337972D-04 -0.645397D-03
     16 -0.252495D+00  0.303973D-01  0.497329D-01  0.103890D-02 -0.532971D-03
     17 -0.192837D-02 -0.233553D-01 -0.238135D-02  0.720670D-03  0.270845D-04
     18  0.450498D-01 -0.828954D-02 -0.139192D-01 -0.113922D-03  0.123847D-03
                6             7             8             9            10 
      6  0.417750D-01
      7  0.960995D-01  0.667699D+00
      8 -0.715490D-01 -0.409929D+00  0.411752D+00
      9 -0.504276D-01 -0.171142D+00  0.126425D+00  0.105835D+00
     10  0.989711D-02 -0.284084D+00  0.145726D+00  0.651378D-01  0.626867D+00
     11 -0.577999D-02  0.139132D+00 -0.176089D+00 -0.446808D-01 -0.402542D-01
     12  0.598306D-02  0.641822D-01 -0.458851D-01 -0.615761D-01 -0.105610D+00
     13 -0.312284D-03 -0.252770D-01 -0.411929D-02  0.492097D-02 -0.268284D+00
     14 -0.996564D-03  0.147726D-01  0.111571D-01 -0.179574D-02 -0.117367D+00
     15  0.141804D-02  0.765816D-02  0.165735D-02  0.375477D-02  0.270340D-01
     16 -0.295456D-03 -0.572518D-03  0.200654D-03  0.872541D-03  0.236693D-02
     17 -0.105229D-03  0.364825D-04 -0.576190D-02 -0.142688D-02  0.274227D-01
     18 -0.116920D-03  0.848559D-03 -0.145679D-02  0.367554D-02  0.318324D-02
               11            12            13            14            15 
     11  0.509679D+00
     12  0.694674D-01  0.110309D+00
     13 -0.118854D+00  0.268190D-01  0.285447D+00
     14 -0.100645D+00  0.108323D-01  0.118911D+00  0.108531D+00
     15  0.111039D-01 -0.306761D-01 -0.325532D-01 -0.790611D-02  0.178896D-01
     16 -0.220818D-02 -0.110967D-02  0.159188D-02 -0.378622D-03 -0.780162D-03
     17 -0.109834D-01 -0.632035D-02  0.122673D-02  0.161890D-02  0.354598D-03
     18 -0.904735D-03 -0.266577D-02 -0.547539D-03  0.648015D-03 -0.218254D-02
               16            17            18 
     16  0.248070D+00
     17 -0.274782D-01  0.384546D-01
     18 -0.484201D-01  0.987920D-02  0.152089D-01
 Leave Link  716 at Wed Aug  3 23:05:11 2016, MaxMem=    33554432 cpu:         0.1
 (Enter /home/proyectos/fulerenos/M3C-v2.0/M3C-deps_CCC/g09-AM64L-G09RevC.01/l103.exe)

 GradGradGradGradGradGradGradGradGradGradGradGradGradGradGradGradGradGrad
 Berny optimization.
 Search for a local minimum.
 Step number   1 out of a maximum of    2
 All quantities printed in internal units (Hartrees-Bohrs-Radians)
 Second derivative matrix not updated -- analytic derivatives used.
 The second derivative matrix:
                          X1        Y1        Z1        X2        Y2
           X1           0.30525
           Y1          -0.00140   0.29176
           Z1          -0.05425   0.04114   0.02539
           X2          -0.00190  -0.00313   0.00014   0.37811
           Y2          -0.00100   0.00295   0.00042  -0.26763   0.20935
           Z2           0.00045   0.00081   0.00137  -0.10584   0.07762
           X3           0.00022   0.01589   0.00235  -0.35798   0.24010
           Y3           0.02543  -0.03087  -0.00919   0.24270  -0.21019
           Z3           0.00374  -0.00745  -0.00126   0.09648  -0.07107
           X4          -0.05477  -0.04508   0.00036  -0.02209   0.02956
           Y4          -0.00374  -0.22339  -0.02921   0.02592   0.00143
           Z4           0.00635  -0.02165  -0.02137   0.00937  -0.00645
           X5           0.00370   0.00333   0.00167   0.00282  -0.00049
           Y5          -0.01737  -0.01709  -0.00078   0.00143  -0.00357
           Z5          -0.00133  -0.00456   0.00980  -0.00003  -0.00065
           X6          -0.25250   0.03040   0.04973   0.00104  -0.00053
           Y6          -0.00193  -0.02336  -0.00238   0.00072   0.00003
           Z6           0.04505  -0.00829  -0.01392  -0.00011   0.00012
                          Z2        X3        Y3        Z3        X4
           Z2           0.04177
           X3           0.09610   0.66770
           Y3          -0.07155  -0.40993   0.41175
           Z3          -0.05043  -0.17114   0.12643   0.10584
           X4           0.00990  -0.28408   0.14573   0.06514   0.62687
           Y4          -0.00578   0.13913  -0.17609  -0.04468  -0.04025
           Z4           0.00598   0.06418  -0.04589  -0.06158  -0.10561
           X5          -0.00031  -0.02528  -0.00412   0.00492  -0.26828
           Y5          -0.00100   0.01477   0.01116  -0.00180  -0.11737
           Z5           0.00142   0.00766   0.00166   0.00375   0.02703
           X6          -0.00030  -0.00057   0.00020   0.00087   0.00237
           Y6          -0.00011   0.00004  -0.00576  -0.00143   0.02742
           Z6          -0.00012   0.00085  -0.00146   0.00368   0.00318
                          Y4        Z4        X5        Y5        Z5
           Y4           0.50968
           Z4           0.06947   0.11031
           X5          -0.11885   0.02682   0.28545
           Y5          -0.10064   0.01083   0.11891   0.10853
           Z5           0.01110  -0.03068  -0.03255  -0.00791   0.01789
           X6          -0.00221  -0.00111   0.00159  -0.00038  -0.00078
           Y6          -0.01098  -0.00632   0.00123   0.00162   0.00035
           Z6          -0.00090  -0.00267  -0.00055   0.00065  -0.00218
                          X6        Y6        Z6
           X6           0.24807
           Y6          -0.02748   0.03845
           Z6          -0.04842   0.00988   0.01521
 ITU=  0
     Eigenvalues ---    0.00684   0.01095   0.03472   0.03814   0.07825
     Eigenvalues ---    0.11939   0.15648   0.27115   0.45788   0.67050
     Eigenvalues ---    0.83847   1.50857
 Angle between quadratic step and forces=  69.55 degrees.
 ClnCor:  largest displacement from symmetrization is 2.89D-09 for atom     3.
 Linear search not attempted -- first point.
 ClnCor:  largest displacement from symmetrization is 8.14D-15 for atom     6.
 B after Tr=    -0.000009   -0.000040   -0.000004
         Rot=    1.000000   -0.000003    0.000002   -0.000016 Ang=  -0.00 deg.
 Variable       Old X    -DE/DX   Delta X   Delta X   Delta X     New X
                                 (Linear)    (Quad)   (Total)
    X1        2.01695   0.00001   0.00000  -0.00023  -0.00017   2.01678
    Y1       -1.92429   0.00003   0.00000   0.00022   0.00025  -1.92404
    Z1       -0.53224   0.00000   0.00000   0.00007   0.00007  -0.53217
    X2       -2.08233   0.00003   0.00000  -0.00008  -0.00023  -2.08256
    Y2        4.33716  -0.00003   0.00000  -0.00040  -0.00051   4.33665
    Z2        1.12408  -0.00001   0.00000  -0.00004  -0.00003   1.12405
    X3        0.16580   0.00002   0.00000   0.00035   0.00026   0.16606
    Y3        2.68791   0.00002   0.00000   0.00030   0.00026   2.68817
    Z3        0.47426  -0.00000   0.00000  -0.00002  -0.00001   0.47425
    X4        2.19750  -0.00006   0.00000   0.00012   0.00008   2.19758
    Y4        1.25979  -0.00001   0.00000   0.00014   0.00016   1.25995
    Z4       -0.10396   0.00001   0.00000  -0.00000   0.00001  -0.10395
    X5        4.00445   0.00002   0.00000   0.00039   0.00032   4.00477
    Y5        2.21399  -0.00001   0.00000  -0.00033  -0.00025   2.21374
    Z5       -0.29599  -0.00000   0.00000  -0.00012  -0.00009  -0.29608
    X6        4.49025  -0.00001   0.00000  -0.00031  -0.00024   4.49000
    Y6       -2.26631   0.00000   0.00000  -0.00002   0.00009  -2.26622
    Z6       -1.03383   0.00000   0.00000   0.00005   0.00006  -1.03378
         Item               Value     Threshold  Converged?
 Maximum Force            0.000063     0.000450     YES
 RMS     Force            0.000021     0.000300     YES
 Maximum Displacement     0.000510     0.001800     YES
 RMS     Displacement     0.000213     0.001200     YES
 Predicted change in Energy=-1.449838D-08
 Optimization completed.
    -- Stationary point found.
 GradGradGradGradGradGradGradGradGradGradGradGradGradGradGradGradGradGrad

 Leave Link  103 at Wed Aug  3 23:05:11 2016, MaxMem=    33554432 cpu:         0.1
 (Enter /home/proyectos/fulerenos/M3C-v2.0/M3C-deps_CCC/g09-AM64L-G09RevC.01/l9999.exe)
 1\1\GINC-DEPAZ27\Freq\UB3LYP\6-311++G(3df,2p)\C2H2S2(1+,2)\NAGUIRRE\03
 -Aug-2016\0\\#p b3lyp/6-311++G(3df,2p) freq\\b3lyp opt\\1,2\S,1.067324
 ,-1.018291,-0.281649\S,-1.101919,2.295127,0.594838\C,0.087739646,1.422
 383207,0.2509693518\C,1.162869475,0.666650564,-0.055015446\H,2.1190649
 97,1.171591845,-0.1566294609\H,2.376136547,-1.199280088,-0.547081406\\
 Version=EM64L-G09RevE.01\State=2-A"\HF=-873.5439912\S2=0.758005\S2-1=0
 .\S2A=0.75004\RMSD=7.493e-09\RMSF=2.114e-05\ZeroPoint=0.0310278\Therma
 l=0.0357245\Dipole=0.6427356,0.0271084,-0.1135461\DipoleDeriv=0.209833
 1,0.1677479,0.0316161,0.323571,-0.0059975,-0.0961728,0.0541863,-0.0677
 045,0.2301002,-0.0933288,0.4638865,0.1569957,0.3423913,0.0357986,-0.11
 50221,0.1394041,-0.1372313,0.3526193,0.7515633,-0.7288147,-0.2395987,-
 0.5606683,0.4766086,0.1688229,-0.215265,0.1996793,0.086356,-0.2911642,
 0.1698201,0.0753076,-0.0805157,0.3283101,0.0642809,0.0390455,0.0184195
 ,-0.0180579,0.2267482,0.0451257,0.0013983,0.0756977,0.0668856,-0.03296
 04,0.0058606,-0.0273653,0.1937891,0.1963484,-0.1177654,-0.0257191,-0.1
 00476,0.0983947,0.0110514,-0.0232316,0.0142023,0.1551934\Polar=69.2852
 597,-33.2159202,88.3098015,-10.8165942,13.5806792,40.3831251\PG=CS [SG
 (C2H2S2)]\NImag=0\\0.30525266,-0.00139700,0.29176335,-0.05425479,0.041
 14468,0.02539067,-0.00189917,-0.00313235,0.00013699,0.37811197,-0.0009
 9644,0.00294636,0.00041589,-0.26763435,0.20935484,0.00044646,0.0008063
 0,0.00136845,-0.10583538,0.07762445,0.04177498,0.00021585,0.01588938,0
 .00235393,-0.35798112,0.24009832,0.09609954,0.66769853,0.02542674,-0.0
 3086678,-0.00919158,0.24269505,-0.21019187,-0.07154897,-0.40992916,0.4
 1175227,0.00373558,-0.00744790,-0.00126187,0.09647551,-0.07107375,-0.0
 5042761,-0.17114241,0.12642505,0.10583526,-0.05477196,-0.04508386,0.00
 035803,-0.02209483,0.02955596,0.00989711,-0.28408371,0.14572599,0.0651
 3781,0.62686721,-0.00373637,-0.22339340,-0.02920579,0.02592030,0.00143
 196,-0.00577999,0.13913235,-0.17608886,-0.04468078,-0.04025417,0.50967
 856,0.00634799,-0.02164923,-0.02137419,0.00937059,-0.00644505,0.005983
 06,0.06418221,-0.04588506,-0.06157609,-0.10561017,0.06946743,0.1103090
 5,0.00369795,0.00332651,0.00167297,0.00282426,-0.00049053,-0.00031228,
 -0.02527703,-0.00411929,0.00492097,-0.26828363,-0.11885393,0.02681904,
 0.28544657,-0.01736857,-0.01709419,-0.00078185,0.00143067,-0.00356838,
 -0.00099656,0.01477263,0.01115713,-0.00179574,-0.11736661,-0.10064488,
 0.01083226,0.11891050,0.10853143,-0.00132502,-0.00456431,0.00979617,-0
 .00003380,-0.00064540,0.00141804,0.00765816,0.00165735,0.00375477,0.02
 703398,0.01110388,-0.03067606,-0.03255316,-0.00790611,0.01788962,-0.25
 249533,0.03039732,0.04973287,0.00103890,-0.00053297,-0.00029546,-0.000
 57252,0.00020065,0.00087254,0.00236693,-0.00220818,-0.00110967,0.00159
 188,-0.00037862,-0.00078016,0.24807013,-0.00192837,-0.02335535,-0.0023
 8135,0.00072067,0.00002708,-0.00010523,0.00003648,-0.00576190,-0.00142
 688,0.02742269,-0.01098339,-0.00632035,0.00122673,0.00161890,0.0003546
 0,-0.02747820,0.03845465,0.04504979,-0.00828954,-0.01391923,-0.0001139
 2,0.00012385,-0.00011692,0.00084856,-0.00145679,0.00367554,0.00318324,
 -0.00090474,-0.00266577,-0.00054754,0.00064801,-0.00218254,-0.04842012
 ,0.00987920,0.01520892\\-0.00001442,-0.00002557,-0.00000107,-0.0000256
 4,0.00003428,0.00000965,-0.00001721,-0.00001849,0.00000047,0.00006321,
 0.00000649,-0.00001061,-0.00001661,0.00000662,0.00000400,0.00001067,-0
 .00000333,-0.00000243\\\@


 TOM, TOM, THE BURGLAR'S SON
 STOLE A MACHINE AND AWAY HE RUN
 THE JOB WAS NEAT, BUT TOM GOT BEAT
 BY THE TIME HE GOT HOME IT WAS OBSOLETE.
 Job cpu time:       0 days  0 hours 12 minutes 23.9 seconds.
 File lengths (MBytes):  RWF=     54 Int=      0 D2E=      0 Chk=      4 Scr=      1
 Normal termination of Gaussian 09 at Wed Aug  3 23:05:11 2016.
