 Entering Gaussian System, Link 0=/home/proyectos/fulerenos/M3C-v2.0/M3C-deps_CCC/g09-AM64L-G09RevC.01/g09
 Initial command:
 /home/proyectos/fulerenos/M3C-v2.0/M3C-deps_CCC/g09-AM64L-G09RevC.01/l1.exe "/scratch/naguirre/gaussian/Gau-24537.inp" -scrdir="/scratch/naguirre/gaussian/"
 Entering Link 1 = /home/proyectos/fulerenos/M3C-v2.0/M3C-deps_CCC/g09-AM64L-G09RevC.01/l1.exe PID=     24545.
  
 Copyright (c) 1988,1990,1992,1993,1995,1998,2003,2009,2015,
            Gaussian, Inc.  All Rights Reserved.
  
 This is part of the Gaussian(R) 09 program.  It is based on
 the Gaussian(R) 03 system (copyright 2003, Gaussian, Inc.),
 the Gaussian(R) 98 system (copyright 1998, Gaussian, Inc.),
 the Gaussian(R) 94 system (copyright 1995, Gaussian, Inc.),
 the Gaussian 92(TM) system (copyright 1992, Gaussian, Inc.),
 the Gaussian 90(TM) system (copyright 1990, Gaussian, Inc.),
 the Gaussian 88(TM) system (copyright 1988, Gaussian, Inc.),
 the Gaussian 86(TM) system (copyright 1986, Carnegie Mellon
 University), and the Gaussian 82(TM) system (copyright 1983,
 Carnegie Mellon University). Gaussian is a federally registered
 trademark of Gaussian, Inc.
  
 This software contains proprietary and confidential information,
 including trade secrets, belonging to Gaussian, Inc.
  
 This software is provided under written license and may be
 used, copied, transmitted, or stored only in accord with that
 written license.
  
 The following legend is applicable only to US Government
 contracts under FAR:
  
                    RESTRICTED RIGHTS LEGEND
  
 Use, reproduction and disclosure by the US Government is
 subject to restrictions as set forth in subparagraphs (a)
 and (c) of the Commercial Computer Software - Restricted
 Rights clause in FAR 52.227-19.
  
 Gaussian, Inc.
 340 Quinnipiac St., Bldg. 40, Wallingford CT 06492
  
  
 ---------------------------------------------------------------
 Warning -- This program may not be used in any manner that
 competes with the business of Gaussian, Inc. or will provide
 assistance to any competitor of Gaussian, Inc.  The licensee
 of this program is prohibited from giving any competitor of
 Gaussian, Inc. access to this program.  By using this program,
 the user acknowledges that Gaussian, Inc. is engaged in the
 business of creating and licensing software in the field of
 computational chemistry and represents and warrants to the
 licensee that it is not a competitor of Gaussian, Inc. and that
 it will not use this program in any manner prohibited above.
 ---------------------------------------------------------------
  

 Cite this work as:
 Gaussian 09, Revision E.01,
 M. J. Frisch, G. W. Trucks, H. B. Schlegel, G. E. Scuseria, 
 M. A. Robb, J. R. Cheeseman, G. Scalmani, V. Barone, B. Mennucci, 
 G. A. Petersson, H. Nakatsuji, M. Caricato, X. Li, H. P. Hratchian, 
 A. F. Izmaylov, J. Bloino, G. Zheng, J. L. Sonnenberg, M. Hada, 
 M. Ehara, K. Toyota, R. Fukuda, J. Hasegawa, M. Ishida, T. Nakajima, 
 Y. Honda, O. Kitao, H. Nakai, T. Vreven, J. A. Montgomery, Jr., 
 J. E. Peralta, F. Ogliaro, M. Bearpark, J. J. Heyd, E. Brothers, 
 K. N. Kudin, V. N. Staroverov, T. Keith, R. Kobayashi, J. Normand, 
 K. Raghavachari, A. Rendell, J. C. Burant, S. S. Iyengar, J. Tomasi, 
 M. Cossi, N. Rega, J. M. Millam, M. Klene, J. E. Knox, J. B. Cross, 
 V. Bakken, C. Adamo, J. Jaramillo, R. Gomperts, R. E. Stratmann, 
 O. Yazyev, A. J. Austin, R. Cammi, C. Pomelli, J. W. Ochterski, 
 R. L. Martin, K. Morokuma, V. G. Zakrzewski, G. A. Voth, 
 P. Salvador, J. J. Dannenberg, S. Dapprich, A. D. Daniels, 
 O. Farkas, J. B. Foresman, J. V. Ortiz, J. Cioslowski, 
 and D. J. Fox, Gaussian, Inc., Wallingford CT, 2013.
 
 ******************************************
 Gaussian 09:  EM64L-G09RevE.01 30-Nov-2015
                 3-Aug-2016 
 ******************************************
 %NProcShared=4
 Will use up to    4 processors via shared memory.
 ------------------------------
 #p b3lyp/6-311++G(3df,2p) freq
 ------------------------------
 1/10=4,30=1,38=1/1,3;
 2/12=2,17=6,18=5,40=1/2;
 3/5=4,6=6,7=1216,11=2,16=1,25=1,30=1,71=2,74=-5,140=1/1,2,3;
 4//1;
 5/5=2,38=5,98=1/2;
 8/6=4,10=90,11=11/1;
 11/6=1,8=1,9=11,15=111,16=1/1,2,10;
 10/6=1/2;
 6/7=2,8=2,9=2,10=2,18=1,28=1/1;
 7/8=1,10=1,25=1/1,2,3,16;
 1/10=4,30=1/3;
 99//99;
 Leave Link    1 at Wed Aug  3 22:57:57 2016, MaxMem=           0 cpu:         0.3
 (Enter /home/proyectos/fulerenos/M3C-v2.0/M3C-deps_CCC/g09-AM64L-G09RevC.01/l101.exe)
 ---------
 b3lyp opt
 ---------
 Symbolic Z-matrix:
 Charge =  0 Multiplicity = 3
 S                     1.22911  -0.03937   1.12368 
 S                    -1.63184  -0.87032   0.35717 
 C                     0.14062  -0.95672   0.20353 
 C                     0.69307  -1.79745  -0.69514 
 H                     0.38111  -2.51713  -1.43637 
 H                    -1.63297   0.05811   1.32782 
 
 NAtoms=      6 NQM=        6 NQMF=       0 NMMI=      0 NMMIF=      0
                NMic=       0 NMicF=      0.
                    Isotopes and Nuclear Properties:
 (Nuclear quadrupole moments (NQMom) in fm**2, nuclear magnetic moments (NMagM)
  in nuclear magnetons)

  Atom         1           2           3           4           5           6
 IAtWgt=          32          32          12          12           1           1
 AtmWgt=  31.9720718  31.9720718  12.0000000  12.0000000   1.0078250   1.0078250
 NucSpn=           0           0           0           0           1           1
 AtZEff=   0.0000000   0.0000000   0.0000000   0.0000000   0.0000000   0.0000000
 NQMom=    0.0000000   0.0000000   0.0000000   0.0000000   0.0000000   0.0000000
 NMagM=    0.0000000   0.0000000   0.0000000   0.0000000   2.7928460   2.7928460
 AtZNuc=  16.0000000  16.0000000   6.0000000   6.0000000   1.0000000   1.0000000
 Leave Link  101 at Wed Aug  3 22:57:57 2016, MaxMem=    33554432 cpu:         0.2
 (Enter /home/proyectos/fulerenos/M3C-v2.0/M3C-deps_CCC/g09-AM64L-G09RevC.01/l103.exe)

 GradGradGradGradGradGradGradGradGradGradGradGradGradGradGradGradGradGrad
 Berny optimization.
 Initialization pass.
 Trust Radius=3.00D-01 FncErr=1.00D-07 GrdErr=1.00D-07
 Number of steps in this run=      2 maximum allowed number of steps=      2.
 GradGradGradGradGradGradGradGradGradGradGradGradGradGradGradGradGradGrad

 Leave Link  103 at Wed Aug  3 22:57:57 2016, MaxMem=    33554432 cpu:         0.1
 (Enter /home/proyectos/fulerenos/M3C-v2.0/M3C-deps_CCC/g09-AM64L-G09RevC.01/l202.exe)
                          Input orientation:                          
 ---------------------------------------------------------------------
 Center     Atomic      Atomic             Coordinates (Angstroms)
 Number     Number       Type             X           Y           Z
 ---------------------------------------------------------------------
      1         16           0        1.229112   -0.039369    1.123679
      2         16           0       -1.631842   -0.870317    0.357170
      3          6           0        0.140624   -0.956719    0.203530
      4          6           0        0.693069   -1.797455   -0.695139
      5          1           0        0.381108   -2.517134   -1.436374
      6          1           0       -1.632973    0.058110    1.327821
 ---------------------------------------------------------------------
                    Distance matrix (angstroms):
                    1          2          3          4          5
     1  S    0.000000
     2  S    3.076210   0.000000
     3  C    1.694996   1.781209   0.000000
     4  C    2.585789   2.715171   1.348940   0.000000
     5  H    3.662281   3.159236   2.276403   1.079207   0.000000
     6  H    2.871012   1.343183   2.332285   3.598049   4.281259
                    6
     6  H    0.000000
 Stoichiometry    C2H2S2(3)
 Framework group  CS[SG(C2H2S2)]
 Deg. of freedom     9
 Full point group                 CS      NOp   2
 Largest Abelian subgroup         CS      NOp   2
 Largest concise Abelian subgroup C1      NOp   1
                         Standard orientation:                         
 ---------------------------------------------------------------------
 Center     Atomic      Atomic             Coordinates (Angstroms)
 Number     Number       Type             X           Y           Z
 ---------------------------------------------------------------------
      1         16           0        1.600265   -0.169443    0.000000
      2         16           0       -1.435789   -0.664868   -0.000000
      3          6           0        0.000000    0.389274   -0.000000
      4          6           0       -0.155067    1.729271   -0.000000
      5          1           0       -0.951913    2.457092   -0.000000
      6          1           0       -0.749300   -1.819369    0.000000
 ---------------------------------------------------------------------
 Rotational constants (GHZ):      8.6044463      3.3040431      2.3873273
 Leave Link  202 at Wed Aug  3 22:57:57 2016, MaxMem=    33554432 cpu:         0.1
 (Enter /home/proyectos/fulerenos/M3C-v2.0/M3C-deps_CCC/g09-AM64L-G09RevC.01/l301.exe)
 Standard basis: 6-311++G(3df,2p) (5D, 7F)
 Ernie: Thresh=  0.10000D-02 Tol=  0.10000D-05 Strict=F.
 There are   152 symmetry adapted cartesian basis functions of A'  symmetry.
 There are    64 symmetry adapted cartesian basis functions of A"  symmetry.
 There are   132 symmetry adapted basis functions of A'  symmetry.
 There are    60 symmetry adapted basis functions of A"  symmetry.
   192 basis functions,   284 primitive gaussians,   216 cartesian basis functions
    24 alpha electrons       22 beta electrons
       nuclear repulsion energy       175.9569886487 Hartrees.
 IExCor=  402 DFT=T Ex+Corr=B3LYP ExCW=0 ScaHFX=  0.200000
 ScaDFX=  0.800000  0.720000  1.000000  0.810000 ScalE2=  1.000000  1.000000
 IRadAn=      0 IRanWt=     -1 IRanGd=            0 ICorTp=0 IEmpDi=  4
 NAtoms=    6 NActive=    6 NUniq=    6 SFac= 1.00D+00 NAtFMM=   60 NAOKFM=F Big=F
 Integral buffers will be    131072 words long.
 Raffenetti 2 integral format.
 Two-electron integral symmetry is turned on.
 Leave Link  301 at Wed Aug  3 22:57:57 2016, MaxMem=    33554432 cpu:         0.2
 (Enter /home/proyectos/fulerenos/M3C-v2.0/M3C-deps_CCC/g09-AM64L-G09RevC.01/l302.exe)
 NPDir=0 NMtPBC=     1 NCelOv=     1 NCel=       1 NClECP=     1 NCelD=      1
         NCelK=      1 NCelE2=     1 NClLst=     1 CellRange=     0.0.
 One-electron integrals computed using PRISM.
 NBasis=   192 RedAO= T EigKep=  5.48D-05  NBF=   132    60
 NBsUse=   192 1.00D-06 EigRej= -1.00D+00 NBFU=   132    60
 Precomputing XC quadrature grid using
 IXCGrd= 4 IRadAn=           0 IRanWt=          -1 IRanGd=           0 AccXCQ= 0.00D+00.
 Generated NRdTot=       0 NPtTot=           0 NUsed=           0 NTot=          32
 NSgBfM=   216   216   216   216   216 MxSgAt=     6 MxSgA2=     6.
 Leave Link  302 at Wed Aug  3 22:57:57 2016, MaxMem=    33554432 cpu:         0.9
 (Enter /home/proyectos/fulerenos/M3C-v2.0/M3C-deps_CCC/g09-AM64L-G09RevC.01/l303.exe)
 DipDrv:  MaxL=1.
 Leave Link  303 at Wed Aug  3 22:57:57 2016, MaxMem=    33554432 cpu:         0.1
 (Enter /home/proyectos/fulerenos/M3C-v2.0/M3C-deps_CCC/g09-AM64L-G09RevC.01/l401.exe)
 ExpMin= 3.60D-02 ExpMax= 9.34D+04 ExpMxC= 3.17D+03 IAcc=3 IRadAn=         5 AccDes= 0.00D+00
 Harris functional with IExCor=  402 and IRadAn=       5 diagonalized for initial guess.
 HarFok:  IExCor=  402 AccDes= 0.00D+00 IRadAn=         5 IDoV= 1 UseB2=F ITyADJ=14
 ICtDFT=  3500011 ScaDFX=  1.000000  1.000000  1.000000  1.000000
 FoFCou: FMM=F IPFlag=           0 FMFlag=      100000 FMFlg1=           0
         NFxFlg=           0 DoJE=T BraDBF=F KetDBF=T FulRan=T
         wScrn=  0.000000 ICntrl=     500 IOpCl=  0 I1Cent=   200000004 NGrid=           0
         NMat0=    1 NMatS0=      1 NMatT0=    0 NMatD0=    1 NMtDS0=    0 NMtDT0=    0
 Petite list used in FoFCou.
 Harris En= -873.620162622946    
 JPrj=0 DoOrth=F DoCkMO=F.
 Initial guess orbital symmetries:
 Alpha Orbitals:
       Occupied  (A') (A') (A') (A') (A') (A') (A') (A') (A") (A')
                 (A') (A") (A') (A') (A') (A') (A') (A') (A") (A')
                 (A') (A") (A") (A')
       Virtual   (A") (A') (A') (A') (A') (A') (A') (A") (A') (A")
                 (A') (A") (A') (A') (A') (A') (A') (A') (A") (A')
                 (A') (A") (A") (A') (A') (A') (A') (A") (A') (A')
                 (A') (A") (A') (A") (A') (A") (A') (A') (A") (A')
                 (A') (A") (A') (A') (A') (A") (A') (A') (A') (A")
                 (A") (A') (A") (A') (A') (A') (A') (A') (A") (A')
                 (A') (A") (A") (A') (A") (A") (A') (A') (A') (A')
                 (A") (A') (A') (A') (A') (A') (A') (A") (A') (A")
                 (A") (A') (A') (A') (A") (A") (A") (A') (A") (A')
                 (A") (A') (A') (A") (A') (A") (A') (A') (A') (A')
                 (A") (A") (A') (A') (A') (A') (A') (A') (A") (A')
                 (A') (A") (A') (A") (A') (A") (A") (A') (A') (A')
                 (A") (A') (A') (A') (A") (A') (A") (A') (A') (A')
                 (A') (A") (A') (A") (A") (A") (A') (A') (A") (A')
                 (A") (A') (A') (A') (A') (A') (A") (A') (A") (A')
                 (A") (A') (A') (A") (A') (A') (A') (A') (A") (A")
                 (A') (A') (A') (A') (A') (A') (A') (A')
 Beta  Orbitals:
       Occupied  (A') (A') (A') (A') (A') (A') (A') (A') (A") (A')
                 (A') (A") (A') (A') (A') (A') (A') (A') (A") (A')
                 (A') (A")
       Virtual   (A") (A') (A") (A') (A') (A') (A') (A') (A') (A")
                 (A') (A") (A') (A") (A') (A') (A') (A') (A') (A')
                 (A") (A') (A') (A") (A") (A') (A') (A') (A') (A")
                 (A') (A') (A') (A") (A') (A") (A') (A") (A') (A')
                 (A") (A') (A') (A") (A') (A') (A') (A") (A') (A')
                 (A') (A") (A") (A') (A") (A') (A') (A') (A') (A')
                 (A") (A') (A') (A") (A") (A') (A") (A") (A') (A')
                 (A') (A') (A") (A') (A') (A') (A') (A') (A') (A")
                 (A') (A") (A") (A') (A') (A') (A") (A") (A") (A')
                 (A") (A') (A") (A') (A') (A") (A') (A") (A') (A')
                 (A') (A') (A") (A") (A') (A') (A') (A') (A') (A')
                 (A") (A') (A') (A") (A') (A") (A') (A") (A") (A')
                 (A') (A') (A") (A') (A') (A') (A") (A') (A") (A')
                 (A') (A') (A') (A") (A') (A") (A") (A") (A') (A')
                 (A") (A') (A") (A') (A') (A') (A') (A') (A") (A')
                 (A") (A') (A") (A') (A') (A") (A') (A') (A') (A')
                 (A") (A") (A') (A') (A') (A') (A') (A') (A') (A')
 The electronic state of the initial guess is 3-A".
 Initial guess <Sx>= 0.0000 <Sy>= 0.0000 <Sz>= 1.0000 <S**2>= 2.0000 S= 1.0000
 Leave Link  401 at Wed Aug  3 22:57:58 2016, MaxMem=    33554432 cpu:         3.8
 (Enter /home/proyectos/fulerenos/M3C-v2.0/M3C-deps_CCC/g09-AM64L-G09RevC.01/l502.exe)
 UHF open shell SCF:
 Using DIIS extrapolation, IDIIS=  1040.
 Integral symmetry usage will be decided dynamically.
 IVT=      161442 IEndB=      161442 NGot=    33554432 MDV=    33456503
 LenX=    33456503 LenY=    33409406
 Requested convergence on RMS density matrix=1.00D-08 within 128 cycles.
 Requested convergence on MAX density matrix=1.00D-06.
 Requested convergence on             energy=1.00D-06.
 No special actions if energy rises.
 Fock matrices will be formed incrementally for  20 cycles.

 Cycle   1  Pass 1  IDiag  1:
 FoFJK:  IHMeth= 1 ICntrl=       0 DoSepK=F KAlg= 0 I1Cent=   0 FoldK=F
 IRaf= 960000000 NMat=   1 IRICut=       1 DoRegI=T DoRafI=F ISym2E= 1.
 FoFCou: FMM=F IPFlag=           0 FMFlag=      100000 FMFlg1=           0
         NFxFlg=           0 DoJE=F BraDBF=F KetDBF=F FulRan=T
         wScrn=  0.000000 ICntrl=       0 IOpCl=  1 I1Cent=           0 NGrid=           0
         NMat0=    1 NMatS0=      1 NMatT0=    0 NMatD0=    1 NMtDS0=    0 NMtDT0=    0
 Petite list used in FoFCou.
 E= -873.539876552177    
 DIIS: error= 4.17D-02 at cycle   1 NSaved=   1.
 NSaved= 1 IEnMin= 1 EnMin= -873.539876552177     IErMin= 1 ErrMin= 4.17D-02
 ErrMax= 4.17D-02  0.00D+00 EMaxC= 1.00D-01 BMatC= 7.85D-01 BMatP= 7.85D-01
 IDIUse=3 WtCom= 5.83D-01 WtEn= 4.17D-01
 Coeff-Com:  0.100D+01
 Coeff-En:   0.100D+01
 Coeff:      0.100D+01
 Gap=     0.223 Goal=   None    Shift=    0.000
 Gap=     0.015 Goal=   None    Shift=    0.000
 GapD=    0.015 DampG=0.250 DampE=0.500 DampFc=0.2500 IDamp=-1.
 Damping current iteration by 2.50D-01
 RMSDP=1.57D-02 MaxDP=1.63D+00              OVMax= 7.95D-01

 Cycle   2  Pass 1  IDiag  1:
 RMSU=  3.88D-03    CP:  9.71D-01
 E= -873.607161796326     Delta-E=       -0.067285244149 Rises=F Damp=T
 DIIS: error= 8.50D-03 at cycle   2 NSaved=   2.
 NSaved= 2 IEnMin= 2 EnMin= -873.607161796326     IErMin= 2 ErrMin= 8.50D-03
 ErrMax= 8.50D-03  0.00D+00 EMaxC= 1.00D-01 BMatC= 1.06D-01 BMatP= 7.85D-01
 IDIUse=3 WtCom= 9.15D-01 WtEn= 8.50D-02
 Coeff-Com: -0.232D+00 0.123D+01
 Coeff-En:   0.173D+00 0.827D+00
 Coeff:     -0.197D+00 0.120D+01
 Gap=     0.075 Goal=   None    Shift=    0.000
 Gap=     0.112 Goal=   None    Shift=    0.000
 RMSDP=3.71D-03 MaxDP=3.68D-01 DE=-6.73D-02 OVMax= 6.38D-01

 Cycle   3  Pass 1  IDiag  1:
 RMSU=  2.26D-03    CP:  9.64D-01  2.41D-01
 E= -873.736022241895     Delta-E=       -0.128860445569 Rises=F Damp=F
 DIIS: error= 6.81D-03 at cycle   3 NSaved=   3.
 NSaved= 3 IEnMin= 3 EnMin= -873.736022241895     IErMin= 3 ErrMin= 6.81D-03
 ErrMax= 6.81D-03  0.00D+00 EMaxC= 1.00D-01 BMatC= 2.17D-02 BMatP= 1.06D-01
 IDIUse=3 WtCom= 9.32D-01 WtEn= 6.81D-02
 Coeff-Com: -0.126D+00 0.384D+00 0.742D+00
 Coeff-En:   0.000D+00 0.000D+00 0.100D+01
 Coeff:     -0.118D+00 0.358D+00 0.759D+00
 Gap=     0.204 Goal=   None    Shift=    0.000
 Gap=     0.074 Goal=   None    Shift=    0.000
 RMSDP=1.13D-03 MaxDP=5.80D-02 DE=-1.29D-01 OVMax= 1.92D-01

 Cycle   4  Pass 1  IDiag  1:
 RMSU=  1.07D-03    CP:  9.53D-01  2.46D-01  1.12D+00
 E= -873.743573005513     Delta-E=       -0.007550763618 Rises=F Damp=F
 DIIS: error= 5.94D-03 at cycle   4 NSaved=   4.
 NSaved= 4 IEnMin= 4 EnMin= -873.743573005513     IErMin= 4 ErrMin= 5.94D-03
 ErrMax= 5.94D-03  0.00D+00 EMaxC= 1.00D-01 BMatC= 1.72D-02 BMatP= 2.17D-02
 IDIUse=3 WtCom= 9.41D-01 WtEn= 5.94D-02
 Coeff-Com:  0.221D-01 0.140D-02 0.423D+00 0.553D+00
 Coeff-En:   0.000D+00 0.000D+00 0.201D+00 0.799D+00
 Coeff:      0.207D-01 0.132D-02 0.410D+00 0.568D+00
 Gap=     0.213 Goal=   None    Shift=    0.000
 Gap=     0.080 Goal=   None    Shift=    0.000
 RMSDP=5.51D-04 MaxDP=2.44D-02 DE=-7.55D-03 OVMax= 7.54D-02

 Cycle   5  Pass 1  IDiag  1:
 RMSU=  5.38D-04    CP:  9.52D-01  2.16D-01  1.12D+00  1.02D+00
 E= -873.749941013538     Delta-E=       -0.006368008025 Rises=F Damp=F
 DIIS: error= 1.84D-03 at cycle   5 NSaved=   5.
 NSaved= 5 IEnMin= 5 EnMin= -873.749941013538     IErMin= 5 ErrMin= 1.84D-03
 ErrMax= 1.84D-03  0.00D+00 EMaxC= 1.00D-01 BMatC= 2.16D-03 BMatP= 1.72D-02
 IDIUse=3 WtCom= 9.82D-01 WtEn= 1.84D-02
 Coeff-Com:  0.415D-01-0.609D-01 0.923D-01 0.244D+00 0.683D+00
 Coeff-En:   0.000D+00 0.000D+00 0.000D+00 0.000D+00 0.100D+01
 Coeff:      0.407D-01-0.598D-01 0.906D-01 0.239D+00 0.689D+00
 Gap=     0.210 Goal=   None    Shift=    0.000
 Gap=     0.085 Goal=   None    Shift=    0.000
 RMSDP=3.65D-04 MaxDP=1.45D-02 DE=-6.37D-03 OVMax= 5.28D-02

 Cycle   6  Pass 1  IDiag  1:
 RMSU=  2.96D-04    CP:  9.53D-01  2.11D-01  1.14D+00  1.19D+00  1.14D+00
 E= -873.751393856310     Delta-E=       -0.001452842772 Rises=F Damp=F
 DIIS: error= 1.35D-03 at cycle   6 NSaved=   6.
 NSaved= 6 IEnMin= 6 EnMin= -873.751393856310     IErMin= 6 ErrMin= 1.35D-03
 ErrMax= 1.35D-03  0.00D+00 EMaxC= 1.00D-01 BMatC= 7.52D-04 BMatP= 2.16D-03
 IDIUse=3 WtCom= 9.86D-01 WtEn= 1.35D-02
 Coeff-Com:  0.771D-02-0.136D-01-0.107D+00-0.199D+00 0.271D+00 0.104D+01
 Coeff-En:   0.000D+00 0.000D+00 0.000D+00 0.000D+00 0.000D+00 0.100D+01
 Coeff:      0.761D-02-0.134D-01-0.105D+00-0.196D+00 0.268D+00 0.104D+01
 Gap=     0.206 Goal=   None    Shift=    0.000
 Gap=     0.088 Goal=   None    Shift=    0.000
 RMSDP=3.16D-04 MaxDP=1.10D-02 DE=-1.45D-03 OVMax= 4.46D-02

 Cycle   7  Pass 1  IDiag  1:
 RMSU=  1.20D-04    CP:  9.53D-01  2.04D-01  1.15D+00  1.33D+00  1.52D+00
                    CP:  1.49D+00
 E= -873.752142261269     Delta-E=       -0.000748404959 Rises=F Damp=F
 DIIS: error= 6.35D-04 at cycle   7 NSaved=   7.
 NSaved= 7 IEnMin= 7 EnMin= -873.752142261269     IErMin= 7 ErrMin= 6.35D-04
 ErrMax= 6.35D-04  0.00D+00 EMaxC= 1.00D-01 BMatC= 1.90D-04 BMatP= 7.52D-04
 IDIUse=3 WtCom= 9.94D-01 WtEn= 6.35D-03
 Coeff-Com: -0.163D-01 0.267D-01-0.226D-01-0.873D-01-0.100D-01 0.340D+00
 Coeff-Com:  0.769D+00
 Coeff-En:   0.000D+00 0.000D+00 0.000D+00 0.000D+00 0.000D+00 0.000D+00
 Coeff-En:   0.100D+01
 Coeff:     -0.162D-01 0.265D-01-0.224D-01-0.867D-01-0.993D-02 0.338D+00
 Coeff:      0.770D+00
 Gap=     0.205 Goal=   None    Shift=    0.000
 Gap=     0.089 Goal=   None    Shift=    0.000
 RMSDP=8.07D-05 MaxDP=4.35D-03 DE=-7.48D-04 OVMax= 1.41D-02

 Cycle   8  Pass 1  IDiag  1:
 RMSU=  6.28D-05    CP:  9.53D-01  2.09D-01  1.16D+00  1.35D+00  1.53D+00
                    CP:  1.56D+00  1.19D+00
 E= -873.752238356582     Delta-E=       -0.000096095313 Rises=F Damp=F
 DIIS: error= 4.68D-04 at cycle   8 NSaved=   8.
 NSaved= 8 IEnMin= 8 EnMin= -873.752238356582     IErMin= 8 ErrMin= 4.68D-04
 ErrMax= 4.68D-04  0.00D+00 EMaxC= 1.00D-01 BMatC= 4.99D-05 BMatP= 1.90D-04
 IDIUse=3 WtCom= 9.95D-01 WtEn= 4.68D-03
 Coeff-Com: -0.113D-01 0.177D-01 0.984D-03-0.153D-01-0.449D-01-0.899D-02
 Coeff-Com:  0.398D+00 0.664D+00
 Coeff-En:   0.000D+00 0.000D+00 0.000D+00 0.000D+00 0.000D+00 0.000D+00
 Coeff-En:   0.000D+00 0.100D+01
 Coeff:     -0.112D-01 0.176D-01 0.980D-03-0.152D-01-0.447D-01-0.894D-02
 Coeff:      0.396D+00 0.665D+00
 Gap=     0.206 Goal=   None    Shift=    0.000
 Gap=     0.090 Goal=   None    Shift=    0.000
 RMSDP=4.75D-05 MaxDP=2.06D-03 DE=-9.61D-05 OVMax= 7.20D-03

 Cycle   9  Pass 1  IDiag  1:
 RMSU=  2.66D-05    CP:  9.52D-01  2.11D-01  1.17D+00  1.37D+00  1.56D+00
                    CP:  1.60D+00  1.35D+00  1.19D+00
 E= -873.752265020622     Delta-E=       -0.000026664040 Rises=F Damp=F
 DIIS: error= 2.13D-04 at cycle   9 NSaved=   9.
 NSaved= 9 IEnMin= 9 EnMin= -873.752265020622     IErMin= 9 ErrMin= 2.13D-04
 ErrMax= 2.13D-04  0.00D+00 EMaxC= 1.00D-01 BMatC= 1.38D-05 BMatP= 4.99D-05
 IDIUse=3 WtCom= 9.98D-01 WtEn= 2.13D-03
 Coeff-Com: -0.142D-02 0.219D-02 0.524D-02 0.151D-01-0.316D-01-0.106D+00
 Coeff-Com: -0.148D-01 0.385D+00 0.746D+00
 Coeff-En:   0.000D+00 0.000D+00 0.000D+00 0.000D+00 0.000D+00 0.000D+00
 Coeff-En:   0.000D+00 0.000D+00 0.100D+01
 Coeff:     -0.142D-02 0.218D-02 0.523D-02 0.150D-01-0.315D-01-0.106D+00
 Coeff:     -0.147D-01 0.385D+00 0.747D+00
 Gap=     0.205 Goal=   None    Shift=    0.000
 Gap=     0.090 Goal=   None    Shift=    0.000
 RMSDP=3.17D-05 MaxDP=1.42D-03 DE=-2.67D-05 OVMax= 4.99D-03

 Cycle  10  Pass 1  IDiag  1:
 RMSU=  1.34D-05    CP:  9.52D-01  2.11D-01  1.17D+00  1.38D+00  1.58D+00
                    CP:  1.63D+00  1.46D+00  1.39D+00  9.12D-01
 E= -873.752273862780     Delta-E=       -0.000008842159 Rises=F Damp=F
 DIIS: error= 4.44D-05 at cycle  10 NSaved=  10.
 NSaved=10 IEnMin=10 EnMin= -873.752273862780     IErMin=10 ErrMin= 4.44D-05
 ErrMax= 4.44D-05  0.00D+00 EMaxC= 1.00D-01 BMatC= 1.50D-06 BMatP= 1.38D-05
 IDIUse=1 WtCom= 1.00D+00 WtEn= 0.00D+00
 Coeff-Com:  0.920D-03-0.157D-02 0.155D-02 0.761D-02-0.122D-01-0.251D-01
 Coeff-Com: -0.502D-01 0.172D-01 0.265D+00 0.797D+00
 Coeff:      0.920D-03-0.157D-02 0.155D-02 0.761D-02-0.122D-01-0.251D-01
 Coeff:     -0.502D-01 0.172D-01 0.265D+00 0.797D+00
 Gap=     0.206 Goal=   None    Shift=    0.000
 Gap=     0.090 Goal=   None    Shift=    0.000
 RMSDP=9.13D-06 MaxDP=3.60D-04 DE=-8.84D-06 OVMax= 1.19D-03

 Cycle  11  Pass 1  IDiag  1:
 RMSU=  4.43D-06    CP:  9.52D-01  2.11D-01  1.17D+00  1.38D+00  1.59D+00
                    CP:  1.64D+00  1.48D+00  1.45D+00  1.03D+00  1.07D+00
 E= -873.752274688433     Delta-E=       -0.000000825653 Rises=F Damp=F
 DIIS: error= 2.21D-05 at cycle  11 NSaved=  11.
 NSaved=11 IEnMin=11 EnMin= -873.752274688433     IErMin=11 ErrMin= 2.21D-05
 ErrMax= 2.21D-05  0.00D+00 EMaxC= 1.00D-01 BMatC= 2.05D-07 BMatP= 1.50D-06
 IDIUse=1 WtCom= 1.00D+00 WtEn= 0.00D+00
 Coeff-Com: -0.885D-04 0.149D-03 0.310D-03 0.641D-03 0.440D-03 0.122D-01
 Coeff-Com:  0.248D-02-0.585D-01-0.602D-01 0.595D-01 0.104D+01
 Coeff:     -0.885D-04 0.149D-03 0.310D-03 0.641D-03 0.440D-03 0.122D-01
 Coeff:      0.248D-02-0.585D-01-0.602D-01 0.595D-01 0.104D+01
 Gap=     0.206 Goal=   None    Shift=    0.000
 Gap=     0.090 Goal=   None    Shift=    0.000
 RMSDP=3.67D-06 MaxDP=1.69D-04 DE=-8.26D-07 OVMax= 4.30D-04

 Cycle  12  Pass 1  IDiag  1:
 RMSU=  1.50D-06    CP:  9.52D-01  2.11D-01  1.17D+00  1.38D+00  1.58D+00
                    CP:  1.64D+00  1.49D+00  1.46D+00  1.06D+00  1.19D+00
                    CP:  1.37D+00
 E= -873.752274832729     Delta-E=       -0.000000144295 Rises=F Damp=F
 DIIS: error= 6.90D-06 at cycle  12 NSaved=  12.
 NSaved=12 IEnMin=12 EnMin= -873.752274832729     IErMin=12 ErrMin= 6.90D-06
 ErrMax= 6.90D-06  0.00D+00 EMaxC= 1.00D-01 BMatC= 2.04D-08 BMatP= 2.05D-07
 IDIUse=1 WtCom= 1.00D+00 WtEn= 0.00D+00
 Coeff-Com: -0.139D-03 0.194D-03-0.150D-03-0.615D-03 0.127D-02 0.595D-02
 Coeff-Com:  0.613D-02-0.220D-01-0.425D-01-0.737D-01 0.189D+00 0.936D+00
 Coeff:     -0.139D-03 0.194D-03-0.150D-03-0.615D-03 0.127D-02 0.595D-02
 Coeff:      0.613D-02-0.220D-01-0.425D-01-0.737D-01 0.189D+00 0.936D+00
 Gap=     0.206 Goal=   None    Shift=    0.000
 Gap=     0.090 Goal=   None    Shift=    0.000
 RMSDP=1.47D-06 MaxDP=7.82D-05 DE=-1.44D-07 OVMax= 2.66D-04

 Cycle  13  Pass 1  IDiag  1:
 RMSU=  5.44D-07    CP:  9.52D-01  2.11D-01  1.17D+00  1.38D+00  1.58D+00
                    CP:  1.64D+00  1.49D+00  1.46D+00  1.07D+00  1.23D+00
                    CP:  1.58D+00  1.26D+00
 E= -873.752274853193     Delta-E=       -0.000000020464 Rises=F Damp=F
 DIIS: error= 2.85D-06 at cycle  13 NSaved=  13.
 NSaved=13 IEnMin=13 EnMin= -873.752274853193     IErMin=13 ErrMin= 2.85D-06
 ErrMax= 2.85D-06  0.00D+00 EMaxC= 1.00D-01 BMatC= 3.32D-09 BMatP= 2.04D-08
 IDIUse=1 WtCom= 1.00D+00 WtEn= 0.00D+00
 Coeff-Com: -0.376D-04 0.499D-04-0.119D-03-0.277D-03-0.409D-04 0.324D-03
 Coeff-Com:  0.396D-03 0.778D-03 0.182D-02-0.178D-01-0.995D-01 0.160D+00
 Coeff-Com:  0.954D+00
 Coeff:     -0.376D-04 0.499D-04-0.119D-03-0.277D-03-0.409D-04 0.324D-03
 Coeff:      0.396D-03 0.778D-03 0.182D-02-0.178D-01-0.995D-01 0.160D+00
 Coeff:      0.954D+00
 Gap=     0.206 Goal=   None    Shift=    0.000
 Gap=     0.090 Goal=   None    Shift=    0.000
 RMSDP=6.32D-07 MaxDP=3.08D-05 DE=-2.05D-08 OVMax= 1.06D-04

 Cycle  14  Pass 1  IDiag  1:
 RMSU=  2.29D-07    CP:  9.52D-01  2.11D-01  1.17D+00  1.38D+00  1.58D+00
                    CP:  1.64D+00  1.49D+00  1.47D+00  1.08D+00  1.24D+00
                    CP:  1.63D+00  1.44D+00  1.29D+00
 E= -873.752274856198     Delta-E=       -0.000000003006 Rises=F Damp=F
 DIIS: error= 1.11D-06 at cycle  14 NSaved=  14.
 NSaved=14 IEnMin=14 EnMin= -873.752274856198     IErMin=14 ErrMin= 1.11D-06
 ErrMax= 1.11D-06  0.00D+00 EMaxC= 1.00D-01 BMatC= 6.42D-10 BMatP= 3.32D-09
 IDIUse=1 WtCom= 1.00D+00 WtEn= 0.00D+00
 Coeff-Com:  0.129D-05-0.102D-05 0.225D-04 0.919D-04-0.259D-03-0.385D-03
 Coeff-Com: -0.958D-03 0.206D-02 0.564D-02 0.821D-02-0.262D-01-0.149D+00
 Coeff-Com:  0.130D+00 0.103D+01
 Coeff:      0.129D-05-0.102D-05 0.225D-04 0.919D-04-0.259D-03-0.385D-03
 Coeff:     -0.958D-03 0.206D-02 0.564D-02 0.821D-02-0.262D-01-0.149D+00
 Coeff:      0.130D+00 0.103D+01
 Gap=     0.206 Goal=   None    Shift=    0.000
 Gap=     0.090 Goal=   None    Shift=    0.000
 RMSDP=2.32D-07 MaxDP=9.70D-06 DE=-3.01D-09 OVMax= 3.25D-05

 Cycle  15  Pass 1  IDiag  1:
 RMSU=  7.17D-08    CP:  9.52D-01  2.11D-01  1.17D+00  1.38D+00  1.58D+00
                    CP:  1.64D+00  1.49D+00  1.47D+00  1.08D+00  1.24D+00
                    CP:  1.65D+00  1.49D+00  1.49D+00  1.14D+00
 E= -873.752274856664     Delta-E=       -0.000000000466 Rises=F Damp=F
 DIIS: error= 2.43D-07 at cycle  15 NSaved=  15.
 NSaved=15 IEnMin=15 EnMin= -873.752274856664     IErMin=15 ErrMin= 2.43D-07
 ErrMax= 2.43D-07  0.00D+00 EMaxC= 1.00D-01 BMatC= 2.44D-11 BMatP= 6.42D-10
 IDIUse=1 WtCom= 1.00D+00 WtEn= 0.00D+00
 Coeff-Com:  0.118D-05-0.995D-06 0.142D-04 0.370D-04 0.659D-06-0.485D-04
 Coeff-Com:  0.256D-03-0.247D-03-0.950D-03 0.100D-02 0.110D-01-0.887D-02
 Coeff-Com: -0.859D-01-0.320D-01 0.112D+01
 Coeff:      0.118D-05-0.995D-06 0.142D-04 0.370D-04 0.659D-06-0.485D-04
 Coeff:      0.256D-03-0.247D-03-0.950D-03 0.100D-02 0.110D-01-0.887D-02
 Coeff:     -0.859D-01-0.320D-01 0.112D+01
 Gap=     0.206 Goal=   None    Shift=    0.000
 Gap=     0.090 Goal=   None    Shift=    0.000
 RMSDP=5.30D-08 MaxDP=2.22D-06 DE=-4.66D-10 OVMax= 9.39D-06

 Cycle  16  Pass 1  IDiag  1:
 RMSU=  2.12D-08    CP:  9.52D-01  2.11D-01  1.17D+00  1.38D+00  1.58D+00
                    CP:  1.64D+00  1.49D+00  1.47D+00  1.08D+00  1.24D+00
                    CP:  1.66D+00  1.50D+00  1.51D+00  1.20D+00  1.39D+00
 E= -873.752274856696     Delta-E=       -0.000000000032 Rises=F Damp=F
 DIIS: error= 1.60D-07 at cycle  16 NSaved=  16.
 NSaved=16 IEnMin=16 EnMin= -873.752274856696     IErMin=16 ErrMin= 1.60D-07
 ErrMax= 1.60D-07  0.00D+00 EMaxC= 1.00D-01 BMatC= 5.49D-12 BMatP= 2.44D-11
 IDIUse=1 WtCom= 1.00D+00 WtEn= 0.00D+00
 Coeff-Com:  0.267D-05-0.363D-05-0.142D-05-0.953D-06 0.855D-05-0.962D-05
 Coeff-Com:  0.827D-04-0.172D-03-0.290D-03-0.997D-04 0.261D-02 0.965D-02
 Coeff-Com: -0.223D-01-0.932D-01 0.222D+00 0.881D+00
 Coeff:      0.267D-05-0.363D-05-0.142D-05-0.953D-06 0.855D-05-0.962D-05
 Coeff:      0.827D-04-0.172D-03-0.290D-03-0.997D-04 0.261D-02 0.965D-02
 Coeff:     -0.223D-01-0.932D-01 0.222D+00 0.881D+00
 Gap=     0.206 Goal=   None    Shift=    0.000
 Gap=     0.090 Goal=   None    Shift=    0.000
 RMSDP=2.18D-08 MaxDP=7.93D-07 DE=-3.16D-11 OVMax= 2.87D-06

 Cycle  17  Pass 1  IDiag  1:
 RMSU=  9.19D-09    CP:  9.52D-01  2.11D-01  1.17D+00  1.38D+00  1.58D+00
                    CP:  1.64D+00  1.49D+00  1.47D+00  1.08D+00  1.24D+00
                    CP:  1.66D+00  1.50D+00  1.52D+00  1.21D+00  1.49D+00
                    CP:  9.92D-01
 E= -873.752274856703     Delta-E=       -0.000000000008 Rises=F Damp=F
 DIIS: error= 2.44D-08 at cycle  17 NSaved=  17.
 NSaved=17 IEnMin=17 EnMin= -873.752274856703     IErMin=17 ErrMin= 2.44D-08
 ErrMax= 2.44D-08  0.00D+00 EMaxC= 1.00D-01 BMatC= 6.87D-13 BMatP= 5.49D-12
 IDIUse=1 WtCom= 1.00D+00 WtEn= 0.00D+00
 Coeff-Com: -0.137D-06 0.310D-06 0.142D-05-0.259D-05 0.140D-05 0.115D-04
 Coeff-Com:  0.226D-05-0.334D-04-0.213D-04-0.345D-03 0.588D-04 0.270D-02
 Coeff-Com:  0.264D-02-0.169D-01-0.105D+00 0.234D+00 0.883D+00
 Coeff:     -0.137D-06 0.310D-06 0.142D-05-0.259D-05 0.140D-05 0.115D-04
 Coeff:      0.226D-05-0.334D-04-0.213D-04-0.345D-03 0.588D-04 0.270D-02
 Coeff:      0.264D-02-0.169D-01-0.105D+00 0.234D+00 0.883D+00
 Gap=     0.206 Goal=   None    Shift=    0.000
 Gap=     0.090 Goal=   None    Shift=    0.000
 RMSDP=6.17D-09 MaxDP=1.93D-07 DE=-7.50D-12 OVMax= 6.14D-07

 SCF Done:  E(UB3LYP) =  -873.752274857     A.U. after   17 cycles
            NFock= 17  Conv=0.62D-08     -V/T= 2.0017
 <Sx>= 0.0000 <Sy>= 0.0000 <Sz>= 1.0000 <S**2>= 2.0364 S= 1.0121
 <L.S>= 0.000000000000E+00
 KE= 8.722690016281D+02 PE=-2.425545725670D+03 EE= 5.035674605361D+02
 Annihilation of the first spin contaminant:
 S**2 before annihilation     2.0364,   after     2.0003
 Leave Link  502 at Wed Aug  3 22:59:15 2016, MaxMem=    33554432 cpu:       304.3
 (Enter /home/proyectos/fulerenos/M3C-v2.0/M3C-deps_CCC/g09-AM64L-G09RevC.01/l801.exe)
 DoSCS=F DFT=T ScalE2(SS,OS)=  1.000000  1.000000
 Range of M.O.s used for correlation:     1   192
 NBasis=   192 NAE=    24 NBE=    22 NFC=     0 NFV=     0
 NROrb=    192 NOA=    24 NOB=    22 NVA=   168 NVB=   170

 **** Warning!!: The largest alpha MO coefficient is  0.58109200D+02


 **** Warning!!: The largest beta MO coefficient is  0.64102551D+02


 **** Warning!!: The smallest beta delta epsilon is  0.90427426D-01

 Leave Link  801 at Wed Aug  3 22:59:15 2016, MaxMem=    33554432 cpu:         0.1
 (Enter /home/proyectos/fulerenos/M3C-v2.0/M3C-deps_CCC/g09-AM64L-G09RevC.01/l1101.exe)
 Using compressed storage, NAtomX=     6.
 Will process      7 centers per pass.
 Leave Link 1101 at Wed Aug  3 22:59:16 2016, MaxMem=    33554432 cpu:         1.0
 (Enter /home/proyectos/fulerenos/M3C-v2.0/M3C-deps_CCC/g09-AM64L-G09RevC.01/l1102.exe)
 Symmetrizing basis deriv contribution to polar:
 IMax=3 JMax=2 DiffMx= 0.00D+00
 Leave Link 1102 at Wed Aug  3 22:59:16 2016, MaxMem=    33554432 cpu:         0.1
 (Enter /home/proyectos/fulerenos/M3C-v2.0/M3C-deps_CCC/g09-AM64L-G09RevC.01/l1110.exe)
 Forming Gx(P) for the SCF density, NAtomX=     6.
 Integral derivatives from FoFJK, PRISM(SPDF).
 Do as many integral derivatives as possible in FoFJK.
 G2DrvN: MDV=      33554280.
 G2DrvN: will do     7 centers at a time, making    1 passes.
 Calling FoFCou, ICntrl=  3107 FMM=F I1Cent=   0 AccDes= 0.00D+00.
 FoFJK:  IHMeth= 1 ICntrl=    3107 DoSepK=F KAlg= 0 I1Cent=   0 FoldK=F
 IRaf=         0 NMat=   1 IRICut=       1 DoRegI=T DoRafI=F ISym2E= 1.
 FoFCou: FMM=F IPFlag=           0 FMFlag=      100000 FMFlg1=           0
         NFxFlg=           0 DoJE=F BraDBF=F KetDBF=F FulRan=T
         wScrn=  0.000000 ICntrl=    3107 IOpCl=  1 I1Cent=           0 NGrid=           0
         NMat0=    1 NMatS0=      1 NMatT0=    0 NMatD0=    1 NMtDS0=    0 NMtDT0=    0
 Petite list used in FoFCou.
 End of G2Drv F.D. properties file   721 does not exist.
 End of G2Drv F.D. properties file   722 does not exist.
 End of G2Drv F.D. properties file   788 does not exist.
 Leave Link 1110 at Wed Aug  3 22:59:41 2016, MaxMem=    33554432 cpu:       100.1
 (Enter /home/proyectos/fulerenos/M3C-v2.0/M3C-deps_CCC/g09-AM64L-G09RevC.01/l1002.exe)
 Minotr:  UHF open shell wavefunction.
          IDoAtm=111111
          Direct CPHF calculation.
          Differentiating once with respect to electric field.
                with respect to dipole field.
          Differentiating once with respect to nuclear coordinates.
          Using symmetry in CPHF.
          Requested convergence is 1.0D-08 RMS, and 1.0D-07 maximum.
          Secondary convergence is 1.0D-12 RMS, and 1.0D-12 maximum.
          NewPWx=T KeepS1=F KeepF1=F KeepIn=T MapXYZ=F SortEE=F KeepMc=T.
          MDV=      33553984 using IRadAn=       2.
 Generate precomputed XC quadrature information.
          Solving linear equations simultaneously, MaxMat=       0.
 FoFJK:  IHMeth= 1 ICntrl=       0 DoSepK=F KAlg= 0 I1Cent=   0 FoldK=F
 IRaf= 960000000 NMat=  21 IRICut=      52 DoRegI=T DoRafI=T ISym2E= 2.
 FoFCou: FMM=F IPFlag=           0 FMFlag=      100000 FMFlg1=           0
         NFxFlg=           0 DoJE=F BraDBF=F KetDBF=F FulRan=T
         wScrn=  0.000000 ICntrl=       0 IOpCl=  1 I1Cent=           0 NGrid=           0
         NMat0=   21 NMatS0=     21 NMatT0=    0 NMatD0=   21 NMtDS0=    0 NMtDT0=    0
 Integrals replicated using symmetry in FoFCou.
          There are    21 degrees of freedom in the 1st order CPHF.  IDoFFX=6 NUNeed=     3.
     18 vectors produced by pass  0 Test12= 3.70D-14 4.76D-09 XBig12= 4.03D+02 1.39D+01.
 AX will form    18 AO Fock derivatives at one time.
     18 vectors produced by pass  1 Test12= 3.70D-14 4.76D-09 XBig12= 1.16D+02 2.50D+00.
     18 vectors produced by pass  2 Test12= 3.70D-14 4.76D-09 XBig12= 1.08D+01 1.18D+00.
     18 vectors produced by pass  3 Test12= 3.70D-14 4.76D-09 XBig12= 2.45D-01 1.04D-01.
     18 vectors produced by pass  4 Test12= 3.70D-14 4.76D-09 XBig12= 4.80D-03 9.95D-03.
     18 vectors produced by pass  5 Test12= 3.70D-14 4.76D-09 XBig12= 7.26D-05 1.04D-03.
     18 vectors produced by pass  6 Test12= 3.70D-14 4.76D-09 XBig12= 9.42D-07 1.46D-04.
     15 vectors produced by pass  7 Test12= 3.70D-14 4.76D-09 XBig12= 5.95D-09 1.15D-05.
      4 vectors produced by pass  8 Test12= 3.70D-14 4.76D-09 XBig12= 3.79D-11 8.47D-07.
      3 vectors produced by pass  9 Test12= 3.70D-14 4.76D-09 XBig12= 2.80D-13 6.49D-08.
      3 vectors produced by pass 10 Test12= 3.70D-14 4.76D-09 XBig12= 2.55D-14 3.50D-08.
 InvSVY:  IOpt=1 It=  1 EMax= 3.55D-15
 Solved reduced A of dimension   151 with    21 vectors.
 FullF1:  Do perturbations    1 to     3.
 Isotropic polarizability for W=    0.000000       72.78 Bohr**3.
 End of Minotr F.D. properties file   721 does not exist.
 End of Minotr F.D. properties file   722 does not exist.
 End of Minotr F.D. properties file   788 does not exist.
 Leave Link 1002 at Wed Aug  3 23:01:02 2016, MaxMem=    33554432 cpu:       325.1
 (Enter /home/proyectos/fulerenos/M3C-v2.0/M3C-deps_CCC/g09-AM64L-G09RevC.01/l601.exe)
 Copying SCF densities to generalized density rwf, IOpCl= 1 IROHF=0.

 **********************************************************************

            Population analysis using the SCF density.

 **********************************************************************

 Orbital symmetries:
 Alpha Orbitals:
       Occupied  (A') (A') (A') (A') (A') (A') (A') (A') (A") (A")
                 (A') (A') (A') (A') (A') (A') (A') (A') (A") (A')
                 (A') (A") (A") (A')
       Virtual   (A") (A') (A') (A') (A') (A') (A') (A") (A') (A")
                 (A") (A') (A') (A') (A') (A') (A') (A') (A") (A')
                 (A') (A") (A") (A') (A') (A') (A') (A") (A') (A')
                 (A") (A') (A') (A") (A') (A") (A') (A') (A") (A')
                 (A') (A") (A') (A') (A') (A") (A') (A') (A') (A")
                 (A") (A') (A") (A') (A') (A') (A') (A') (A") (A')
                 (A') (A") (A") (A') (A") (A") (A') (A') (A') (A')
                 (A") (A') (A') (A') (A') (A') (A') (A") (A') (A")
                 (A") (A') (A') (A") (A") (A') (A") (A') (A') (A")
                 (A") (A') (A') (A") (A') (A") (A') (A') (A') (A')
                 (A") (A") (A') (A') (A') (A') (A') (A') (A") (A')
                 (A') (A") (A') (A") (A") (A') (A") (A') (A') (A')
                 (A") (A') (A') (A') (A") (A') (A") (A') (A') (A')
                 (A') (A") (A') (A") (A") (A") (A') (A') (A") (A')
                 (A") (A') (A') (A') (A') (A') (A") (A') (A') (A")
                 (A") (A') (A') (A") (A') (A') (A') (A') (A") (A")
                 (A') (A') (A') (A') (A') (A') (A') (A')
 Beta  Orbitals:
       Occupied  (A') (A') (A') (A') (A') (A') (A') (A') (A") (A')
                 (A") (A') (A') (A') (A') (A') (A') (A') (A") (A')
                 (A") (A')
       Virtual   (A") (A') (A') (A") (A') (A') (A') (A') (A') (A")
                 (A') (A") (A") (A') (A') (A') (A') (A') (A') (A")
                 (A') (A') (A') (A") (A') (A") (A') (A') (A') (A')
                 (A") (A') (A') (A") (A') (A") (A') (A") (A') (A')
                 (A') (A") (A') (A') (A") (A') (A') (A') (A") (A')
                 (A") (A') (A") (A") (A') (A') (A') (A') (A') (A")
                 (A') (A') (A') (A") (A") (A') (A") (A') (A") (A')
                 (A') (A') (A") (A') (A') (A') (A') (A') (A') (A")
                 (A') (A") (A') (A") (A') (A") (A") (A') (A") (A')
                 (A") (A') (A") (A') (A') (A") (A') (A") (A') (A')
                 (A') (A') (A") (A") (A') (A') (A') (A') (A') (A')
                 (A') (A") (A') (A") (A') (A") (A") (A') (A") (A')
                 (A') (A') (A") (A') (A') (A') (A") (A') (A") (A')
                 (A') (A') (A') (A") (A') (A") (A") (A") (A') (A')
                 (A") (A') (A") (A') (A') (A') (A') (A') (A") (A')
                 (A") (A') (A") (A') (A') (A") (A') (A') (A') (A')
                 (A") (A") (A') (A') (A') (A') (A') (A') (A') (A')
 The electronic state is 3-A".
 Alpha  occ. eigenvalues --  -88.88115 -88.86187 -10.27129 -10.24667  -7.96742
 Alpha  occ. eigenvalues --   -7.94673  -5.93124  -5.92697  -5.92232  -5.91202
 Alpha  occ. eigenvalues --   -5.90862  -5.90113  -0.87033  -0.75227  -0.72014
 Alpha  occ. eigenvalues --   -0.56185  -0.48676  -0.44376  -0.39793  -0.38088
 Alpha  occ. eigenvalues --   -0.28767  -0.28336  -0.26391  -0.25195
 Alpha virt. eigenvalues --   -0.04619  -0.02637  -0.00693   0.00716   0.02896
 Alpha virt. eigenvalues --    0.03754   0.04677   0.04846   0.05762   0.07201
 Alpha virt. eigenvalues --    0.08075   0.09097   0.09701   0.10532   0.11246
 Alpha virt. eigenvalues --    0.12150   0.12669   0.13971   0.14115   0.15547
 Alpha virt. eigenvalues --    0.16970   0.18344   0.20327   0.20814   0.21817
 Alpha virt. eigenvalues --    0.23915   0.26424   0.28057   0.28540   0.29232
 Alpha virt. eigenvalues --    0.30614   0.31017   0.32855   0.33123   0.34095
 Alpha virt. eigenvalues --    0.36225   0.36709   0.39739   0.41026   0.41675
 Alpha virt. eigenvalues --    0.43826   0.45722   0.46416   0.50310   0.52269
 Alpha virt. eigenvalues --    0.56673   0.57405   0.59735   0.65310   0.66768
 Alpha virt. eigenvalues --    0.68020   0.69721   0.69827   0.71688   0.76319
 Alpha virt. eigenvalues --    0.80368   0.82730   0.84346   0.84771   0.86386
 Alpha virt. eigenvalues --    0.91613   0.95807   0.96558   0.97664   1.01507
 Alpha virt. eigenvalues --    1.02021   1.02095   1.03344   1.04793   1.05921
 Alpha virt. eigenvalues --    1.08708   1.09966   1.16919   1.17734   1.21407
 Alpha virt. eigenvalues --    1.27617   1.34877   1.41635   1.43933   1.50313
 Alpha virt. eigenvalues --    1.55901   1.56988   1.61421   1.62839   1.63529
 Alpha virt. eigenvalues --    1.64285   1.64660   1.65911   1.75072   1.75511
 Alpha virt. eigenvalues --    1.78971   1.80366   1.83396   1.84210   1.85500
 Alpha virt. eigenvalues --    1.87853   1.94531   2.01115   2.06765   2.08020
 Alpha virt. eigenvalues --    2.12629   2.17193   2.19246   2.22774   2.29335
 Alpha virt. eigenvalues --    2.41857   2.47568   2.50954   2.68607   2.70107
 Alpha virt. eigenvalues --    2.75045   2.77641   2.79913   2.85096   2.87766
 Alpha virt. eigenvalues --    2.88315   3.05633   3.09411   3.14224   3.15023
 Alpha virt. eigenvalues --    3.30425   3.39401   3.46908   3.54483   3.54561
 Alpha virt. eigenvalues --    3.76060   3.79830   3.87253   3.91901   4.03072
 Alpha virt. eigenvalues --    4.15706   4.20121   4.35116   4.50026   4.62021
 Alpha virt. eigenvalues --    4.63012   4.64588   4.72090   4.74773   4.80537
 Alpha virt. eigenvalues --    4.81198   4.97634   5.08184   5.36018   5.55928
 Alpha virt. eigenvalues --    5.93818   6.92882   6.98011   7.08699   7.09013
 Alpha virt. eigenvalues --    7.16407   7.37006   7.42507   7.45116   7.69561
 Alpha virt. eigenvalues --    7.98016   8.32878   8.46311  17.30828  17.36328
 Alpha virt. eigenvalues --   17.47754  17.61682  17.83691  17.90277  23.71321
 Alpha virt. eigenvalues --   25.49768 189.25895 189.33980
  Beta  occ. eigenvalues --  -88.88081 -88.85736 -10.27377 -10.22397  -7.96708
  Beta  occ. eigenvalues --   -7.94263  -5.93041  -5.92669  -5.92209  -5.90543
  Beta  occ. eigenvalues --   -5.90015  -5.89713  -0.85694  -0.74057  -0.68145
  Beta  occ. eigenvalues --   -0.53914  -0.47466  -0.43448  -0.37685  -0.37147
  Beta  occ. eigenvalues --   -0.26219  -0.24665
  Beta virt. eigenvalues --   -0.15623  -0.11801  -0.02523  -0.02092  -0.00582
  Beta virt. eigenvalues --    0.01000   0.03194   0.04306   0.04764   0.05398
  Beta virt. eigenvalues --    0.05855   0.07430   0.09294   0.09452   0.09872
  Beta virt. eigenvalues --    0.10917   0.11612   0.12732   0.12975   0.14077
  Beta virt. eigenvalues --    0.14307   0.15935   0.17579   0.18741   0.21474
  Beta virt. eigenvalues --    0.21514   0.22430   0.24353   0.27139   0.28881
  Beta virt. eigenvalues --    0.28892   0.29905   0.31293   0.31401   0.33267
  Beta virt. eigenvalues --    0.34537   0.35321   0.37176   0.37871   0.40695
  Beta virt. eigenvalues --    0.42921   0.42978   0.45080   0.46642   0.47496
  Beta virt. eigenvalues --    0.50868   0.54329   0.58224   0.59379   0.60481
  Beta virt. eigenvalues --    0.66797   0.67853   0.68670   0.69920   0.70346
  Beta virt. eigenvalues --    0.72885   0.76841   0.80938   0.83432   0.85067
  Beta virt. eigenvalues --    0.85243   0.86920   0.92185   0.97072   0.97203
  Beta virt. eigenvalues --    0.98038   1.02482   1.02837   1.03278   1.04845
  Beta virt. eigenvalues --    1.05266   1.06973   1.10072   1.10567   1.17934
  Beta virt. eigenvalues --    1.18742   1.22467   1.29217   1.36738   1.44092
  Beta virt. eigenvalues --    1.44201   1.50830   1.61934   1.62179   1.62555
  Beta virt. eigenvalues --    1.64428   1.64655   1.64804   1.67565   1.68280
  Beta virt. eigenvalues --    1.76728   1.77253   1.80265   1.81371   1.84159
  Beta virt. eigenvalues --    1.84877   1.87037   1.88854   1.96215   2.01973
  Beta virt. eigenvalues --    2.07696   2.09770   2.14716   2.18856   2.21072
  Beta virt. eigenvalues --    2.23569   2.30231   2.42855   2.48395   2.52110
  Beta virt. eigenvalues --    2.72184   2.72252   2.76453   2.82945   2.85843
  Beta virt. eigenvalues --    2.88182   2.90324   2.91711   3.07497   3.11399
  Beta virt. eigenvalues --    3.15774   3.17425   3.30721   3.41527   3.47755
  Beta virt. eigenvalues --    3.55227   3.56318   3.77331   3.80013   3.88534
  Beta virt. eigenvalues --    3.92287   4.03249   4.17181   4.21507   4.37236
  Beta virt. eigenvalues --    4.52138   4.62552   4.63496   4.65663   4.73288
  Beta virt. eigenvalues --    4.74918   4.80805   4.82099   4.98016   5.08575
  Beta virt. eigenvalues --    5.36902   5.56238   5.95525   7.01931   7.06525
  Beta virt. eigenvalues --    7.11397   7.11802   7.16148   7.37501   7.45465
  Beta virt. eigenvalues --    7.47030   7.71637   7.99984   8.33139   8.46810
  Beta virt. eigenvalues --   17.31380  17.37361  17.48233  17.61751  17.83885
  Beta virt. eigenvalues --   17.90616  23.72369  25.51095 189.25998 189.34321
          Condensed to atoms (all electrons):
               1          2          3          4          5          6
     1  S   16.354611  -0.152481   0.286933  -0.169773   0.023797   0.022297
     2  S   -0.152481  16.231394   0.257847  -0.229156  -0.011461   0.261061
     3  C    0.286933   0.257847   6.453145  -1.412945  -0.093826   0.034232
     4  C   -0.169773  -0.229156  -1.412945   7.570983   0.393643  -0.032337
     5  H    0.023797  -0.011461  -0.093826   0.393643   0.470067  -0.001582
     6  H    0.022297   0.261061   0.034232  -0.032337  -0.001582   0.567300
          Atomic-Atomic Spin Densities.
               1          2          3          4          5          6
     1  S    0.880171  -0.006435  -0.087060  -0.062506   0.008575  -0.006290
     2  S   -0.006435   0.085311  -0.012284  -0.003602  -0.016991  -0.006437
     3  C   -0.087060  -0.012284  -0.106766  -0.009560   0.009587   0.003894
     4  C   -0.062506  -0.003602  -0.009560   1.521068  -0.034953   0.003445
     5  H    0.008575  -0.016991   0.009587  -0.034953   0.050618   0.001163
     6  H   -0.006290  -0.006437   0.003894   0.003445   0.001163   0.008505
 Mulliken charges and spin densities:
               1          2
     1  S   -0.365384   0.726455
     2  S   -0.357204   0.039562
     3  C    0.474613  -0.202190
     4  C   -0.120416   1.413893
     5  H    0.219362   0.017999
     6  H    0.149028   0.004281
 Sum of Mulliken charges =  -0.00000   2.00000
 Mulliken charges and spin densities with hydrogens summed into heavy atoms:
               1          2
     1  S   -0.365384   0.726455
     2  S   -0.208176   0.043843
     3  C    0.474613  -0.202190
     4  C    0.098947   1.431892
 APT charges:
               1
     1  S   -0.208446
     2  S   -0.204844
     3  C    0.282786
     4  C   -0.059223
     5  H    0.134997
     6  H    0.054730
 Sum of APT charges =  -0.00000
 APT charges with hydrogens summed into heavy atoms:
               1
     1  S   -0.208446
     2  S   -0.150114
     3  C    0.282786
     4  C    0.075774
 Electronic spatial extent (au):  <R**2>=            482.5012
 Charge=             -0.0000 electrons
 Dipole moment (field-independent basis, Debye):
    X=             -1.5130    Y=              0.3087    Z=             -0.0000  Tot=              1.5442
 Quadrupole moment (field-independent basis, Debye-Ang):
   XX=            -40.4911   YY=            -34.0043   ZZ=            -39.8871
   XY=             -2.1525   XZ=             -0.0000   YZ=              0.0000
 Traceless Quadrupole moment (field-independent basis, Debye-Ang):
   XX=             -2.3636   YY=              4.1232   ZZ=             -1.7596
   XY=             -2.1525   XZ=             -0.0000   YZ=              0.0000
 Octapole moment (field-independent basis, Debye-Ang**2):
  XXX=             -1.2496  YYY=             -1.9191  ZZZ=              0.0000  XYY=            -11.0451
  XXY=             -1.7467  XXZ=              0.0000  XZZ=              1.7735  YZZ=             -0.9372
  YYZ=             -0.0000  XYZ=              0.0000
 Hexadecapole moment (field-independent basis, Debye-Ang**3):
 XXXX=           -418.9835 YYYY=           -202.5130 ZZZZ=            -53.3457 XXXY=            -29.3459
 XXXZ=             -0.0000 YYYX=            -28.7770 YYYZ=              0.0000 ZZZX=             -0.0000
 ZZZY=              0.0000 XXYY=           -104.1909 XXZZ=            -81.9748 YYZZ=            -49.8121
 XXYZ=              0.0000 YYXZ=             -0.0000 ZZXY=             -8.8082
 N-N= 1.759569886487D+02 E-N=-2.425545732245D+03  KE= 8.722690016281D+02
 Symmetry A'   KE= 7.940563720433D+02
 Symmetry A"   KE= 7.821262958480D+01
  Exact polarizability:  94.679  -1.658  77.609   0.000  -0.000  46.042
 Approx polarizability: 168.698 -17.408 133.527   0.000  -0.000  72.276
                          Isotropic Fermi Contact Couplings
        Atom                 a.u.       MegaHertz       Gauss      10(-4) cm-1
     1  S(33)              0.05777       9.92193       3.54039       3.30960
     2  S(33)              0.05951      10.22041       3.64690       3.40916
     3  C(13)             -0.01862     -10.46696      -3.73487      -3.49140
     4  C(13)              0.38499     216.39899      77.21654      72.18293
     5  H(1)               0.00520      11.62177       4.14694       3.87661
     6  H(1)               0.00404       9.03795       3.22496       3.01474
 --------------------------------------------------------
       Center         ----  Spin Dipole Couplings  ----
                      3XX-RR        3YY-RR        3ZZ-RR
 --------------------------------------------------------
     1   Atom       -1.602160     -0.782464      2.384624
     2   Atom        0.008460      0.092692     -0.101152
     3   Atom        0.040725      0.130891     -0.171616
     4   Atom        0.407966     -0.606676      0.198711
     5   Atom        0.029163      0.029502     -0.058665
     6   Atom        0.003024      0.004560     -0.007584
 --------------------------------------------------------
                        XY            XZ            YZ
 --------------------------------------------------------
     1   Atom       -0.212632      0.000000      0.000000
     2   Atom        0.166084      0.000000      0.000000
     3   Atom       -0.015339      0.000000     -0.000000
     4   Atom        0.566471      0.000000     -0.000000
     5   Atom       -0.081000      0.000000     -0.000000
     6   Atom        0.004748      0.000000     -0.000000
 --------------------------------------------------------


 ---------------------------------------------------------------------------------
              Anisotropic Spin Dipole Couplings in Principal Axis System
 ---------------------------------------------------------------------------------

       Atom             a.u.   MegaHertz   Gauss  10(-4) cm-1        Axes

              Baa    -1.6540   -67.814   -24.198   -22.620  0.9715  0.2370 -0.0000
     1 S(33)  Bbb    -0.7306   -29.953   -10.688    -9.991 -0.2370  0.9715 -0.0000
              Bcc     2.3846    97.767    34.886    32.612  0.0000  0.0000  1.0000
 
              Baa    -0.1208    -4.951    -1.767    -1.652  0.7892 -0.6141  0.0000
     2 S(33)  Bbb    -0.1012    -4.147    -1.480    -1.383 -0.0000  0.0000  1.0000
              Bcc     0.2219     9.098     3.247     3.035  0.6141  0.7892  0.0000
 
              Baa    -0.1716   -23.029    -8.217    -7.682  0.0000  0.0000  1.0000
     3 C(13)  Bbb     0.0382     5.124     1.828     1.709  0.9866  0.1632  0.0000
              Bcc     0.1334    17.905     6.389     5.972 -0.1632  0.9866 -0.0000
 
              Baa    -0.8598  -115.376   -41.169   -38.485 -0.4080  0.9130 -0.0000
     4 C(13)  Bbb     0.1987    26.665     9.515     8.895  0.0000  0.0000  1.0000
              Bcc     0.6611    88.711    31.654    29.591  0.9130  0.4080  0.0000
 
              Baa    -0.0587   -31.301   -11.169   -10.441  0.0000  0.0000  1.0000
     5 H(1)   Bbb    -0.0517   -27.567    -9.837    -9.195  0.7078  0.7064 -0.0000
              Bcc     0.1103    58.868    21.006    19.636 -0.7064  0.7078 -0.0000
 
              Baa    -0.0076    -4.046    -1.444    -1.350 -0.0000  0.0000  1.0000
     6 H(1)   Bbb    -0.0010    -0.543    -0.194    -0.181  0.7615 -0.6482  0.0000
              Bcc     0.0086     4.590     1.638     1.531  0.6482  0.7615 -0.0000
 

 ---------------------------------------------------------------------------------

 No NMR shielding tensors so no spin-rotation constants.
 Leave Link  601 at Wed Aug  3 23:01:02 2016, MaxMem=    33554432 cpu:         1.4
 (Enter /home/proyectos/fulerenos/M3C-v2.0/M3C-deps_CCC/g09-AM64L-G09RevC.01/l701.exe)
 Compute integral second derivatives.
 ... and contract with generalized density number  0.
 Leave Link  701 at Wed Aug  3 23:01:03 2016, MaxMem=    33554432 cpu:         1.0
 (Enter /home/proyectos/fulerenos/M3C-v2.0/M3C-deps_CCC/g09-AM64L-G09RevC.01/l702.exe)
 L702 exits ... SP integral derivatives will be done elsewhere.
 Leave Link  702 at Wed Aug  3 23:01:03 2016, MaxMem=    33554432 cpu:         0.1
 (Enter /home/proyectos/fulerenos/M3C-v2.0/M3C-deps_CCC/g09-AM64L-G09RevC.01/l703.exe)
 Compute integral second derivatives, UseDBF=F ICtDFT=           0.
 Integral derivatives from FoFJK, PRISM(SPDF).
 Calling FoFJK, ICntrl=    100127 FMM=F ISym2X=1 I1Cent= 0 IOpClX= 1 NMat=1 NMatS=1 NMatT=0.
 FoFJK:  IHMeth= 1 ICntrl=  100127 DoSepK=F KAlg= 0 I1Cent=   0 FoldK=F
 IRaf=         0 NMat=   1 IRICut=       1 DoRegI=T DoRafI=F ISym2E= 1.
 FoFCou: FMM=F IPFlag=           0 FMFlag=      100000 FMFlg1=         800
         NFxFlg=           0 DoJE=F BraDBF=F KetDBF=F FulRan=T
         wScrn=  0.000000 ICntrl=  100127 IOpCl=  1 I1Cent=           0 NGrid=           0
         NMat0=    1 NMatS0=      1 NMatT0=    0 NMatD0=    1 NMtDS0=    0 NMtDT0=    0
 Petite list used in FoFCou.
 Leave Link  703 at Wed Aug  3 23:01:45 2016, MaxMem=    33554432 cpu:       169.0
 (Enter /home/proyectos/fulerenos/M3C-v2.0/M3C-deps_CCC/g09-AM64L-G09RevC.01/l716.exe)
 Dipole        =-5.95275424D-01 1.21467172D-01-1.36548637D-16
 Polarizability= 9.46790371D+01-1.65818333D+00 7.76087195D+01
                 1.04470587D-07-7.09252155D-08 4.60422631D+01
 Full mass-weighted force constant matrix:
 Low frequencies ---  -10.8203   -0.0049   -0.0049   -0.0029    5.1893    9.5396
 Low frequencies ---  214.7221  275.8713  280.7587
 Diagonal vibrational polarizability:
        5.5452154       6.4322583       9.3764556
 Harmonic frequencies (cm**-1), IR intensities (KM/Mole), Raman scattering
 activities (A**4/AMU), depolarization ratios for plane and unpolarized
 incident light, reduced masses (AMU), force constants (mDyne/A),
 and normal coordinates:
                      1                      2                      3
                     A"                     A'                     A'
 Frequencies --    214.7131               275.8713               280.7585
 Red. masses --      1.0594                 7.1147                 4.0345
 Frc consts  --      0.0288                 0.3190                 0.1874
 IR Inten    --     13.5163                 4.7066                 3.8362
  Atom  AN      X      Y      Z        X      Y      Z        X      Y      Z
     1  16     0.00   0.00  -0.01    -0.12  -0.21  -0.00    -0.17   0.01  -0.00
     2  16    -0.00   0.00  -0.03     0.24   0.05  -0.00     0.07  -0.13  -0.00
     3   6     0.00  -0.00  -0.01     0.07   0.22   0.00    -0.13   0.11   0.00
     4   6    -0.00  -0.00   0.03    -0.35   0.20   0.00     0.29   0.15   0.00
     5   1    -0.00  -0.00   0.16    -0.63  -0.10  -0.00     0.63   0.51   0.00
     6   1    -0.00  -0.00   0.99     0.47   0.19   0.00     0.40   0.07   0.00
                      4                      5                      6
                     A"                     A'                     A"
 Frequencies --    429.0310               540.2953               647.3950
 Red. masses --      3.9841                12.6518                 1.4477
 Frc consts  --      0.4321                 2.1760                 0.3575
 IR Inten    --      4.0300                33.5534                13.9746
  Atom  AN      X      Y      Z        X      Y      Z        X      Y      Z
     1  16     0.00   0.00  -0.07    -0.27   0.12  -0.00     0.00  -0.00   0.00
     2  16    -0.00  -0.00  -0.06     0.29   0.23  -0.00     0.00   0.00  -0.01
     3   6     0.00   0.00   0.49    -0.14  -0.45   0.00    -0.00  -0.00   0.12
     4   6     0.00   0.00  -0.08     0.09  -0.44  -0.00    -0.00  -0.00  -0.16
     5   1    -0.00  -0.00  -0.85     0.02  -0.52  -0.00     0.00   0.00   0.98
     6   1    -0.00   0.00   0.13    -0.26  -0.11  -0.00     0.00   0.00  -0.09
                      7                      8                      9
                     A'                     A'                     A'
 Frequencies --    765.2163               876.4071               986.6089
 Red. masses --      1.6898                 1.4869                 2.1336
 Frc consts  --      0.5830                 0.6729                 1.2236
 IR Inten    --     14.0969                21.9886                92.2690
  Atom  AN      X      Y      Z        X      Y      Z        X      Y      Z
     1  16     0.06  -0.02  -0.00     0.05  -0.01   0.00    -0.06   0.03  -0.00
     2  16     0.03   0.03  -0.00    -0.02   0.02   0.00    -0.05   0.00  -0.00
     3   6    -0.15  -0.02   0.00    -0.18  -0.01  -0.00     0.26  -0.03   0.00
     4   6    -0.14  -0.05   0.00     0.04  -0.04   0.00    -0.07  -0.11  -0.00
     5   1     0.62   0.75  -0.00    -0.19  -0.28  -0.00     0.37   0.33   0.00
     6   1    -0.05  -0.03   0.00     0.78   0.50   0.00     0.69   0.44  -0.00
                     10                     11                     12
                     A'                     A'                     A'
 Frequencies --   1348.4754              2670.5570              3222.8409
 Red. masses --      7.8326                 1.0381                 1.0964
 Frc consts  --      8.3915                 4.3622                 6.7098
 IR Inten    --    130.1612                 3.2922                 0.9165
  Atom  AN      X      Y      Z        X      Y      Z        X      Y      Z
     1  16    -0.01  -0.00  -0.00     0.00   0.00   0.00     0.00   0.00  -0.00
     2  16     0.01  -0.01  -0.00     0.02  -0.03   0.00    -0.00  -0.00  -0.00
     3   6    -0.03   0.60   0.00    -0.00  -0.00  -0.00    -0.00  -0.01   0.00
     4   6     0.04  -0.51   0.00    -0.00   0.00   0.00    -0.06   0.07  -0.00
     5   1     0.27  -0.44  -0.00    -0.00   0.00   0.00     0.72  -0.69   0.00
     6   1    -0.30  -0.17  -0.00    -0.51   0.86   0.00     0.00   0.00  -0.00

 -------------------
 - Thermochemistry -
 -------------------
 Temperature   298.150 Kelvin.  Pressure   1.00000 Atm.
 Atom     1 has atomic number 16 and mass  31.97207
 Atom     2 has atomic number 16 and mass  31.97207
 Atom     3 has atomic number  6 and mass  12.00000
 Atom     4 has atomic number  6 and mass  12.00000
 Atom     5 has atomic number  1 and mass   1.00783
 Atom     6 has atomic number  1 and mass   1.00783
 Molecular mass:    89.95979 amu.
 Principal axes and moments of inertia in atomic units:
                           1         2         3
     Eigenvalues --   209.74519 546.22205 755.96724
           X            0.98160  -0.19096  -0.00000
           Y            0.19096   0.98160   0.00000
           Z            0.00000  -0.00000   1.00000
 This molecule is an asymmetric top.
 Rotational symmetry number  1.
 Rotational temperatures (Kelvin)      0.41295     0.15857     0.11457
 Rotational constants (GHZ):           8.60445     3.30404     2.38733
 Zero-point vibrational energy      73320.1 (Joules/Mol)
                                   17.52393 (Kcal/Mol)
 Warning -- explicit consideration of   5 degrees of freedom as
           vibrations may cause significant error
 Vibrational temperatures:    308.92   396.92   403.95   617.28   777.36
          (Kelvin)            931.46  1100.97  1260.95  1419.51  1940.15
                             3842.33  4636.94
 
 Zero-point correction=                           0.027926 (Hartree/Particle)
 Thermal correction to Energy=                    0.033003
 Thermal correction to Enthalpy=                  0.033947
 Thermal correction to Gibbs Free Energy=        -0.001666
 Sum of electronic and zero-point Energies=           -873.724349
 Sum of electronic and thermal Energies=              -873.719272
 Sum of electronic and thermal Enthalpies=            -873.718328
 Sum of electronic and thermal Free Energies=         -873.753941
 
                     E (Thermal)             CV                S
                      KCal/Mol        Cal/Mol-Kelvin    Cal/Mol-Kelvin
 Total                   20.709             16.470             74.954
 Electronic               0.000              0.000              2.183
 Translational            0.889              2.981             39.403
 Rotational               0.889              2.981             25.963
 Vibrational             18.932             10.509              7.405
 Vibration     1          0.645              1.819              2.003
 Vibration     2          0.678              1.718              1.559
 Vibration     3          0.680              1.709              1.529
 Vibration     4          0.790              1.407              0.862
 Vibration     5          0.895              1.161              0.565
                       Q            Log10(Q)             Ln(Q)
 Total Bot       0.583897D+01          0.766336          1.764554
 Total V=0       0.408746D+14         13.611453         31.341529
 Vib (Bot)       0.550882D-12        -12.258942        -28.227256
 Vib (Bot)    1  0.923267D+00         -0.034673         -0.079837
 Vib (Bot)    2  0.698435D+00         -0.155874         -0.358913
 Vib (Bot)    3  0.684520D+00         -0.164614         -0.379037
 Vib (Bot)    4  0.406429D+00         -0.391016         -0.900347
 Vib (Bot)    5  0.293156D+00         -0.532901         -1.227051
 Vib (V=0)       0.385634D+01          0.586175          1.349719
 Vib (V=0)    1  0.154996D+01          0.190321          0.438231
 Vib (V=0)    2  0.135896D+01          0.133206          0.306719
 Vib (V=0)    3  0.134768D+01          0.129588          0.298387
 Vib (V=0)    4  0.114435D+01          0.058558          0.134835
 Vib (V=0)    5  0.107960D+01          0.033264          0.076594
 Electronic      0.300000D+01          0.477121          1.098612
 Translational   0.335373D+08          7.525528         17.328168
 Rotational      0.105349D+06          5.022629         11.565030
 
                                                              b3lyp opt
                                                             IR Spectrum
 
     3                     2                                                   1                                                     
     2                     6                                                   3              9   8   7    6   5    4    22 2        
     2                     7                                                   4              8   7   6    4   4    2    87 1        
     3                     1                                                   8              7   6   5    7   0    9    16 5        
 
     X                     X                                                   X              X   X   X    X   X    X    XX X        
                                                                               X              X   X   X    X   X            X        
                                                                               X              X   X            X                     
                                                                               X              X                X                     
                                                                               X              X                X                     
                                                                               X              X                                      
                                                                               X              X                                      
                                                                               X              X                                      
                                                                               X              X                                      
                                                                               X              X                                      
                                                                               X              X                                      
                                                                               X              X                                      
                                                                               X              X                                      
                                                                               X              X                                      
                                                                               X                                                     
                                                                               X                                                     
                                                                               X                                                     
                                                                               X                                                     
                                                                               X                                                     
                                                                               X                                                     
 
 ***** Axes restored to original set *****
 -------------------------------------------------------------------
 Center     Atomic                   Forces (Hartrees/Bohr)
 Number     Number              X              Y              Z
 -------------------------------------------------------------------
      1       16           0.000004006   -0.000009016   -0.000009569
      2       16           0.000021455   -0.000025320   -0.000027236
      3        6          -0.000004229    0.000030595    0.000032136
      4        6          -0.000056847   -0.000038545   -0.000038266
      5        1           0.000048801    0.000005313    0.000003811
      6        1          -0.000013187    0.000036973    0.000039124
 -------------------------------------------------------------------
 Cartesian Forces:  Max     0.000056847 RMS     0.000029530
 Z-matrix is all fixed cartesians, so copy forces.
 Force constants in Cartesian coordinates: 
                1             2             3             4             5 
      1  0.127879D+00
      2  0.843824D-01  0.889469D-01
      3  0.839839D-01  0.801574D-01  0.901896D-01
      4 -0.322578D-01 -0.643109D-02 -0.527416D-02  0.193972D+00
      5 -0.164789D-01  0.419838D-02 -0.371121D-02  0.992527D-02  0.155076D+00
      6 -0.157785D-01 -0.407012D-02  0.461991D-02  0.380168D-02  0.151401D+00
      7 -0.111392D+00 -0.810936D-01 -0.816209D-01 -0.112933D+00  0.866765D-02
      8 -0.401629D-01 -0.668477D-01 -0.444014D-01 -0.190876D-01 -0.323029D-01
      9 -0.388305D-01 -0.429394D-01 -0.665071D-01 -0.168220D-01 -0.770618D-02
     10  0.114825D-01  0.458373D-02  0.448470D-02 -0.278252D-01  0.188522D-01
     11 -0.269050D-01 -0.269143D-01 -0.301868D-01  0.172225D-01 -0.643152D-03
     12 -0.284347D-01 -0.313115D-01 -0.288387D-01  0.193597D-01 -0.119039D-01
     13  0.428501D-03 -0.119935D-02 -0.114004D-02  0.896080D-03 -0.135247D-02
     14  0.217304D-03  0.707485D-03 -0.304688D-02 -0.389030D-03 -0.658547D-03
     15  0.340982D-03 -0.299628D-02  0.469925D-03 -0.483228D-03  0.662644D-03
     16  0.385952D-02 -0.242024D-03 -0.433463D-03 -0.218529D-01 -0.196138D-01
     17 -0.105288D-02 -0.907843D-04  0.118892D-02 -0.124009D-02 -0.125670D+00
     18 -0.128116D-02  0.115995D-02  0.663641D-04 -0.581993D-03 -0.128743D+00
                6             7             8             9            10 
      6  0.168060D+00
      7  0.121943D-01  0.325566D+00
      8 -0.671475D-02 -0.431451D-01  0.262005D+00
      9 -0.326832D-01 -0.538204D-01  0.190157D+00  0.282306D+00
     10  0.210635D-01 -0.100667D+00  0.705645D-01  0.759659D-01  0.175225D+00
     11 -0.118457D-01  0.122195D+00 -0.162584D+00 -0.133344D+00 -0.423460D-01
     12 -0.303704D-02  0.129943D+00 -0.131500D+00 -0.181326D+00 -0.489868D-01
     13 -0.149044D-02  0.547353D-02  0.134295D-01  0.140618D-01 -0.515670D-01
     14  0.628230D-03 -0.881919D-02  0.222332D-02 -0.373251D-02 -0.521910D-01
     15 -0.536169D-03 -0.919770D-02 -0.452723D-02  0.169055D-02 -0.534146D-01
     16 -0.197905D-01 -0.604883D-02  0.184017D-01  0.194452D-01 -0.664876D-02
     17 -0.129399D+00  0.219502D-02 -0.249427D-02 -0.243497D-02  0.536566D-03
     18 -0.136423D+00  0.250224D-02 -0.301388D-02 -0.348032D-02  0.887305D-03
               11            12            13            14            15 
     11  0.360848D+00
     12  0.333616D+00  0.393702D+00
     13 -0.719340D-01 -0.740547D-01  0.438841D-01
     14 -0.172488D+00 -0.158143D+00  0.611536D-01  0.170702D+00
     15 -0.157438D+00 -0.182118D+00  0.627906D-01  0.163807D+00  0.180932D+00
     16  0.176719D-02  0.217384D-02  0.884762D-03  0.283162D-04 -0.360297D-04
     17  0.178100D-02 -0.758084D-03 -0.972275D-04 -0.486120D-03  0.491194D-03
     18 -0.802042D-03  0.161763D-02 -0.167278D-03  0.486709D-03 -0.437846D-03
               16            17            18 
     16  0.298062D-01
     17 -0.341390D-03  0.126960D+00
     18 -0.135911D-02  0.130912D+00  0.138658D+00
 Leave Link  716 at Wed Aug  3 23:01:45 2016, MaxMem=    33554432 cpu:         0.1
 (Enter /home/proyectos/fulerenos/M3C-v2.0/M3C-deps_CCC/g09-AM64L-G09RevC.01/l103.exe)

 GradGradGradGradGradGradGradGradGradGradGradGradGradGradGradGradGradGrad
 Berny optimization.
 Search for a local minimum.
 Step number   1 out of a maximum of    2
 All quantities printed in internal units (Hartrees-Bohrs-Radians)
 Second derivative matrix not updated -- analytic derivatives used.
 The second derivative matrix:
                          X1        Y1        Z1        X2        Y2
           X1           0.12788
           Y1           0.08438   0.08895
           Z1           0.08398   0.08016   0.09019
           X2          -0.03226  -0.00643  -0.00527   0.19397
           Y2          -0.01648   0.00420  -0.00371   0.00993   0.15508
           Z2          -0.01578  -0.00407   0.00462   0.00380   0.15140
           X3          -0.11139  -0.08109  -0.08162  -0.11293   0.00867
           Y3          -0.04016  -0.06685  -0.04440  -0.01909  -0.03230
           Z3          -0.03883  -0.04294  -0.06651  -0.01682  -0.00771
           X4           0.01148   0.00458   0.00448  -0.02783   0.01885
           Y4          -0.02690  -0.02691  -0.03019   0.01722  -0.00064
           Z4          -0.02843  -0.03131  -0.02884   0.01936  -0.01190
           X5           0.00043  -0.00120  -0.00114   0.00090  -0.00135
           Y5           0.00022   0.00071  -0.00305  -0.00039  -0.00066
           Z5           0.00034  -0.00300   0.00047  -0.00048   0.00066
           X6           0.00386  -0.00024  -0.00043  -0.02185  -0.01961
           Y6          -0.00105  -0.00009   0.00119  -0.00124  -0.12567
           Z6          -0.00128   0.00116   0.00007  -0.00058  -0.12874
                          Z2        X3        Y3        Z3        X4
           Z2           0.16806
           X3           0.01219   0.32557
           Y3          -0.00671  -0.04315   0.26201
           Z3          -0.03268  -0.05382   0.19016   0.28231
           X4           0.02106  -0.10067   0.07056   0.07597   0.17523
           Y4          -0.01185   0.12220  -0.16258  -0.13334  -0.04235
           Z4          -0.00304   0.12994  -0.13150  -0.18133  -0.04899
           X5          -0.00149   0.00547   0.01343   0.01406  -0.05157
           Y5           0.00063  -0.00882   0.00222  -0.00373  -0.05219
           Z5          -0.00054  -0.00920  -0.00453   0.00169  -0.05341
           X6          -0.01979  -0.00605   0.01840   0.01945  -0.00665
           Y6          -0.12940   0.00220  -0.00249  -0.00243   0.00054
           Z6          -0.13642   0.00250  -0.00301  -0.00348   0.00089
                          Y4        Z4        X5        Y5        Z5
           Y4           0.36085
           Z4           0.33362   0.39370
           X5          -0.07193  -0.07405   0.04388
           Y5          -0.17249  -0.15814   0.06115   0.17070
           Z5          -0.15744  -0.18212   0.06279   0.16381   0.18093
           X6           0.00177   0.00217   0.00088   0.00003  -0.00004
           Y6           0.00178  -0.00076  -0.00010  -0.00049   0.00049
           Z6          -0.00080   0.00162  -0.00017   0.00049  -0.00044
                          X6        Y6        Z6
           X6           0.02981
           Y6          -0.00034   0.12696
           Z6          -0.00136   0.13091   0.13866
 ITU=  0
     Eigenvalues ---    0.00272   0.01224   0.02156   0.02764   0.06943
     Eigenvalues ---    0.11742   0.12505   0.25217   0.43811   0.46664
     Eigenvalues ---    0.51213   1.09348
 Angle between quadratic step and forces=  63.69 degrees.
 ClnCor:  largest displacement from symmetrization is 8.48D-12 for atom     6.
 Linear search not attempted -- first point.
 ClnCor:  largest displacement from symmetrization is 4.97D-15 for atom     6.
 B after Tr=    -0.000075   -0.000018   -0.000016
         Rot=    1.000000    0.000001   -0.000035    0.000033 Ang=   0.01 deg.
 Variable       Old X    -DE/DX   Delta X   Delta X   Delta X     New X
                                 (Linear)    (Quad)   (Total)
    X1        2.32269   0.00000   0.00000   0.00008   0.00015   2.32283
    Y1       -0.07440  -0.00001   0.00000  -0.00023  -0.00040  -0.07479
    Z1        2.12345  -0.00001   0.00000  -0.00024  -0.00042   2.12303
    X2       -3.08373   0.00002   0.00000  -0.00019  -0.00033  -3.08407
    Y2       -1.64466  -0.00003   0.00000   0.00023   0.00041  -1.64425
    Z2        0.67495  -0.00003   0.00000   0.00024   0.00044   0.67540
    X3        0.26574  -0.00000   0.00000  -0.00033  -0.00050   0.26524
    Y3       -1.80794   0.00003   0.00000  -0.00001  -0.00005  -1.80798
    Z3        0.38462   0.00003   0.00000   0.00000  -0.00003   0.38459
    X4        1.30971  -0.00006   0.00000  -0.00019  -0.00058   1.30913
    Y4       -3.39670  -0.00004   0.00000   0.00002  -0.00009  -3.39679
    Z4       -1.31362  -0.00004   0.00000   0.00002  -0.00008  -1.31370
    X5        0.72019   0.00005   0.00000   0.00220   0.00162   0.72181
    Y5       -4.75669   0.00001   0.00000  -0.00036  -0.00043  -4.75713
    Z5       -2.71435   0.00000   0.00000  -0.00046  -0.00051  -2.71486
    X6       -3.08587  -0.00001   0.00000  -0.00046  -0.00036  -3.08623
    Y6        0.10981   0.00004   0.00000   0.00036   0.00055   0.11036
    Z6        2.50922   0.00004   0.00000   0.00039   0.00059   2.50981
         Item               Value     Threshold  Converged?
 Maximum Force            0.000057     0.000450     YES
 RMS     Force            0.000030     0.000300     YES
 Maximum Displacement     0.001623     0.001800     YES
 RMS     Displacement     0.000543     0.001200     YES
 Predicted change in Energy=-7.232525D-08
 Optimization completed.
    -- Stationary point found.
 GradGradGradGradGradGradGradGradGradGradGradGradGradGradGradGradGradGrad

 Leave Link  103 at Wed Aug  3 23:01:45 2016, MaxMem=    33554432 cpu:         0.1
 (Enter /home/proyectos/fulerenos/M3C-v2.0/M3C-deps_CCC/g09-AM64L-G09RevC.01/l9999.exe)
 1\1\GINC-DEPAZ27\Freq\UB3LYP\6-311++G(3df,2p)\C2H2S2(3)\NAGUIRRE\03-Au
 g-2016\0\\#p b3lyp/6-311++G(3df,2p) freq\\b3lyp opt\\0,3\S,1.229112,-0
 .039369,1.123679\S,-1.631842,-0.870317,0.35717\C,0.140623669,-0.956718
 7909,0.2035297559\C,0.693069435,-1.797454536,-0.695138833\H,0.38110818
 6,-2.5171336992,-1.4363738088\H,-1.63297344,0.0581096281,1.3278207399\
 \Version=EM64L-G09RevE.01\State=3-A"\HF=-873.7522749\S2=2.036406\S2-1=
 0.\S2A=2.000295\RMSD=6.169e-09\RMSF=2.953e-05\ZeroPoint=0.0279262\Ther
 mal=0.0330026\Dipole=-0.4490927,-0.2907416,-0.28791\DipoleDeriv=-0.307
 6818,0.0610216,0.0715447,-0.0297598,-0.1551127,-0.0662747,-0.0233614,-
 0.0695174,-0.162543,-0.703091,0.0097851,0.0344781,0.13808,0.044289,0.0
 667173,0.1686022,0.0713001,0.0442705,1.2599747,-0.1091155,-0.1610575,-
 0.4005911,-0.2090252,-0.1463264,-0.4657766,-0.156738,-0.2025929,-0.414
 1608,0.2010419,0.2221562,0.3188676,0.1189782,0.1953556,0.3453353,0.199
 5644,0.1175142,0.1553848,-0.0881606,-0.092341,-0.010071,0.1241877,-0.0
 271396,-0.0107033,-0.0243502,0.1254176,0.0095741,-0.0745725,-0.0747804
 ,-0.0165258,0.076683,-0.0223322,-0.0140963,-0.0202588,0.0779336\Polar=
 88.7231588,6.4936931,64.1760574,5.2641706,18.7257598,65.4308035\PG=CS 
 [SG(C2H2S2)]\NImag=0\\0.12787920,0.08438236,0.08894695,0.08398389,0.08
 015737,0.09018961,-0.03225783,-0.00643109,-0.00527416,0.19397247,-0.01
 647893,0.00419838,-0.00371121,0.00992527,0.15507570,-0.01577852,-0.004
 07012,0.00461991,0.00380168,0.15140144,0.16805987,-0.11139190,-0.08109
 363,-0.08162093,-0.11293263,0.00866765,0.01219430,0.32556645,-0.040162
 90,-0.06684771,-0.04440143,-0.01908761,-0.03230286,-0.00671475,-0.0431
 4511,0.26200515,-0.03883049,-0.04293938,-0.06650707,-0.01682204,-0.007
 70618,-0.03268318,-0.05382044,0.19015727,0.28230615,0.01148250,0.00458
 373,0.00448470,-0.02782518,0.01885224,0.02106347,-0.10066662,0.0705644
 9,0.07596588,0.17522502,-0.02690496,-0.02691432,-0.03018677,0.01722255
 ,-0.00064315,-0.01184570,0.12219526,-0.16258363,-0.13334423,-0.0423460
 1,0.36084829,-0.02843469,-0.03131155,-0.02883873,0.01935973,-0.0119039
 1,-0.00303704,0.12994253,-0.13149997,-0.18132614,-0.04898676,0.3336163
 3,0.39370236,0.00042850,-0.00119935,-0.00114004,0.00089608,-0.00135247
 ,-0.00149044,0.00547353,0.01342947,0.01406184,-0.05156697,-0.07193403,
 -0.07405465,0.04388409,0.00021730,0.00070748,-0.00304688,-0.00038903,-
 0.00065855,0.00062823,-0.00881919,0.00222332,-0.00373251,-0.05219102,-
 0.17248819,-0.15814281,0.06115361,0.17070206,0.00034098,-0.00299628,0.
 00046992,-0.00048323,0.00066264,-0.00053617,-0.00919770,-0.00452723,0.
 00169055,-0.05341460,-0.15743759,-0.18211807,0.06279057,0.16380726,0.1
 8093162,0.00385952,-0.00024202,-0.00043346,-0.02185291,-0.01961376,-0.
 01979049,-0.00604883,0.01840167,0.01944525,-0.00664876,0.00176719,0.00
 217384,0.00088476,0.00002832,-0.00003603,0.02980621,-0.00105288,-0.000
 09078,0.00118892,-0.00124009,-0.12566953,-0.12939910,0.00219502,-0.002
 49427,-0.00243497,0.00053657,0.00178100,-0.00075808,-0.00009723,-0.000
 48612,0.00049119,-0.00034139,0.12695970,-0.00128116,0.00115995,0.00006
 636,-0.00058199,-0.12874279,-0.13642339,0.00250224,-0.00301388,-0.0034
 8032,0.00088730,-0.00080204,0.00161763,-0.00016728,0.00048671,-0.00043
 785,-0.00135911,0.13091205,0.13865756\\-0.00000401,0.00000902,0.000009
 57,-0.00002146,0.00002532,0.00002724,0.00000423,-0.00003059,-0.0000321
 4,0.00005685,0.00003855,0.00003827,-0.00004880,-0.00000531,-0.00000381
 ,0.00001319,-0.00003697,-0.00003912\\\@


 THE VALUE OF PHILOSOPHY IS, IN FACT, TO BE SOUGHT LARGELY IN ITS
 VERY UNCERTAINTY.  THE MAN WHO HAS NO TINCTURE OF PHILOSOPHY GOES
 THROUGH LIFE IMPRISONED IN THE PREJUDICES DERIVED FROM COMMON SENSE,
 FROM THE HABITUAL BELIEFS OF HIS AGE OR HIS NATION, AND FROM
 CONVICTIONS WHICH HAVE GROWN UP IN HIS MIND WITHOUT THE CO-OPERATION
 OR CONSENT OF HIS DELIBERATE REASON.  TO SUCH A MAN THE WORLD TENDS
 TO BE DEFINITE, FINITE, OBVIOUS; COMMON OBJECTS ROUSE NO QUESTIONS,
 AND UNFAMILIAR POSSIBILITIES ARE CONTEMPTUOUSLY REJECTED.

                             -- BERTRAND RUSSELL
 Job cpu time:       0 days  0 hours 15 minutes  8.9 seconds.
 File lengths (MBytes):  RWF=     53 Int=      0 D2E=      0 Chk=      4 Scr=      1
 Normal termination of Gaussian 09 at Wed Aug  3 23:01:45 2016.
