 Entering Gaussian System, Link 0=/home/proyectos/fulerenos/M3C-v2.0/M3C-deps_CCC/g09-AM64L-G09RevC.01/g09
 Initial command:
 /home/proyectos/fulerenos/M3C-v2.0/M3C-deps_CCC/g09-AM64L-G09RevC.01/l1.exe "/scratch/naguirre/gaussian/Gau-22083.inp" -scrdir="/scratch/naguirre/gaussian/"
 Entering Link 1 = /home/proyectos/fulerenos/M3C-v2.0/M3C-deps_CCC/g09-AM64L-G09RevC.01/l1.exe PID=     22091.
  
 Copyright (c) 1988,1990,1992,1993,1995,1998,2003,2009,2015,
            Gaussian, Inc.  All Rights Reserved.
  
 This is part of the Gaussian(R) 09 program.  It is based on
 the Gaussian(R) 03 system (copyright 2003, Gaussian, Inc.),
 the Gaussian(R) 98 system (copyright 1998, Gaussian, Inc.),
 the Gaussian(R) 94 system (copyright 1995, Gaussian, Inc.),
 the Gaussian 92(TM) system (copyright 1992, Gaussian, Inc.),
 the Gaussian 90(TM) system (copyright 1990, Gaussian, Inc.),
 the Gaussian 88(TM) system (copyright 1988, Gaussian, Inc.),
 the Gaussian 86(TM) system (copyright 1986, Carnegie Mellon
 University), and the Gaussian 82(TM) system (copyright 1983,
 Carnegie Mellon University). Gaussian is a federally registered
 trademark of Gaussian, Inc.
  
 This software contains proprietary and confidential information,
 including trade secrets, belonging to Gaussian, Inc.
  
 This software is provided under written license and may be
 used, copied, transmitted, or stored only in accord with that
 written license.
  
 The following legend is applicable only to US Government
 contracts under FAR:
  
                    RESTRICTED RIGHTS LEGEND
  
 Use, reproduction and disclosure by the US Government is
 subject to restrictions as set forth in subparagraphs (a)
 and (c) of the Commercial Computer Software - Restricted
 Rights clause in FAR 52.227-19.
  
 Gaussian, Inc.
 340 Quinnipiac St., Bldg. 40, Wallingford CT 06492
  
  
 ---------------------------------------------------------------
 Warning -- This program may not be used in any manner that
 competes with the business of Gaussian, Inc. or will provide
 assistance to any competitor of Gaussian, Inc.  The licensee
 of this program is prohibited from giving any competitor of
 Gaussian, Inc. access to this program.  By using this program,
 the user acknowledges that Gaussian, Inc. is engaged in the
 business of creating and licensing software in the field of
 computational chemistry and represents and warrants to the
 licensee that it is not a competitor of Gaussian, Inc. and that
 it will not use this program in any manner prohibited above.
 ---------------------------------------------------------------
  

 Cite this work as:
 Gaussian 09, Revision E.01,
 M. J. Frisch, G. W. Trucks, H. B. Schlegel, G. E. Scuseria, 
 M. A. Robb, J. R. Cheeseman, G. Scalmani, V. Barone, B. Mennucci, 
 G. A. Petersson, H. Nakatsuji, M. Caricato, X. Li, H. P. Hratchian, 
 A. F. Izmaylov, J. Bloino, G. Zheng, J. L. Sonnenberg, M. Hada, 
 M. Ehara, K. Toyota, R. Fukuda, J. Hasegawa, M. Ishida, T. Nakajima, 
 Y. Honda, O. Kitao, H. Nakai, T. Vreven, J. A. Montgomery, Jr., 
 J. E. Peralta, F. Ogliaro, M. Bearpark, J. J. Heyd, E. Brothers, 
 K. N. Kudin, V. N. Staroverov, T. Keith, R. Kobayashi, J. Normand, 
 K. Raghavachari, A. Rendell, J. C. Burant, S. S. Iyengar, J. Tomasi, 
 M. Cossi, N. Rega, J. M. Millam, M. Klene, J. E. Knox, J. B. Cross, 
 V. Bakken, C. Adamo, J. Jaramillo, R. Gomperts, R. E. Stratmann, 
 O. Yazyev, A. J. Austin, R. Cammi, C. Pomelli, J. W. Ochterski, 
 R. L. Martin, K. Morokuma, V. G. Zakrzewski, G. A. Voth, 
 P. Salvador, J. J. Dannenberg, S. Dapprich, A. D. Daniels, 
 O. Farkas, J. B. Foresman, J. V. Ortiz, J. Cioslowski, 
 and D. J. Fox, Gaussian, Inc., Wallingford CT, 2013.
 
 ******************************************
 Gaussian 09:  EM64L-G09RevE.01 30-Nov-2015
                 3-Aug-2016 
 ******************************************
 %NProcShared=4
 Will use up to    4 processors via shared memory.
 ------------------------------
 #p b3lyp/6-311++G(3df,2p) freq
 ------------------------------
 1/10=4,30=1,38=1/1,3;
 2/12=2,17=6,18=5,40=1/2;
 3/5=4,6=6,7=1216,11=2,16=1,25=1,30=1,71=2,74=-5,140=1/1,2,3;
 4//1;
 5/5=2,38=5,98=1/2;
 8/6=4,10=90,11=11/1;
 11/6=1,8=1,9=11,15=111,16=1/1,2,10;
 10/6=1/2;
 6/7=2,8=2,9=2,10=2,18=1,28=1/1;
 7/8=1,10=1,25=1/1,2,3,16;
 1/10=4,30=1/3;
 99//99;
 Leave Link    1 at Wed Aug  3 22:52:12 2016, MaxMem=           0 cpu:         0.3
 (Enter /home/proyectos/fulerenos/M3C-v2.0/M3C-deps_CCC/g09-AM64L-G09RevC.01/l101.exe)
 ---------
 b3lyp opt
 ---------
 Symbolic Z-matrix:
 Charge =  2 Multiplicity = 1
 S                     0.47975   0.81476  -0.15633 
 S                    -1.39676   0.45029  -0.74271 
 C                     2.17074  -1.40653   0.27837 
 C                     1.31783  -0.54959   0.04943 
 H                     2.90782  -2.17853   0.47507 
 H                    -1.35144  -0.91738  -0.77913 
 
 NAtoms=      6 NQM=        6 NQMF=       0 NMMI=      0 NMMIF=      0
                NMic=       0 NMicF=      0.
                    Isotopes and Nuclear Properties:
 (Nuclear quadrupole moments (NQMom) in fm**2, nuclear magnetic moments (NMagM)
  in nuclear magnetons)

  Atom         1           2           3           4           5           6
 IAtWgt=          32          32          12          12           1           1
 AtmWgt=  31.9720718  31.9720718  12.0000000  12.0000000   1.0078250   1.0078250
 NucSpn=           0           0           0           0           1           1
 AtZEff=   0.0000000   0.0000000   0.0000000   0.0000000   0.0000000   0.0000000
 NQMom=    0.0000000   0.0000000   0.0000000   0.0000000   0.0000000   0.0000000
 NMagM=    0.0000000   0.0000000   0.0000000   0.0000000   2.7928460   2.7928460
 AtZNuc=  16.0000000  16.0000000   6.0000000   6.0000000   1.0000000   1.0000000
 Leave Link  101 at Wed Aug  3 22:52:13 2016, MaxMem=    33554432 cpu:         0.3
 (Enter /home/proyectos/fulerenos/M3C-v2.0/M3C-deps_CCC/g09-AM64L-G09RevC.01/l103.exe)

 GradGradGradGradGradGradGradGradGradGradGradGradGradGradGradGradGradGrad
 Berny optimization.
 Initialization pass.
 Trust Radius=3.00D-01 FncErr=1.00D-07 GrdErr=1.00D-07
 Number of steps in this run=      2 maximum allowed number of steps=      2.
 GradGradGradGradGradGradGradGradGradGradGradGradGradGradGradGradGradGrad

 Leave Link  103 at Wed Aug  3 22:52:13 2016, MaxMem=    33554432 cpu:         0.1
 (Enter /home/proyectos/fulerenos/M3C-v2.0/M3C-deps_CCC/g09-AM64L-G09RevC.01/l202.exe)
                          Input orientation:                          
 ---------------------------------------------------------------------
 Center     Atomic      Atomic             Coordinates (Angstroms)
 Number     Number       Type             X           Y           Z
 ---------------------------------------------------------------------
      1         16           0        0.479750    0.814759   -0.156334
      2         16           0       -1.396762    0.450287   -0.742709
      3          6           0        2.170736   -1.406535    0.278373
      4          6           0        1.317825   -0.549585    0.049432
      5          1           0        2.907816   -2.178528    0.475068
      6          1           0       -1.351445   -0.917385   -0.779129
 ---------------------------------------------------------------------
                    Distance matrix (angstroms):
                    1          2          3          4          5
     1  S    0.000000
     2  S    1.999493   0.000000
     3  C    2.825341   4.149390   0.000000
     4  C    1.614356   2.999369   1.230542   0.000000
     5  H    3.905629   5.188742   1.085334   2.315749   0.000000
     6  H    2.596434   1.368907   3.709897   2.819005   4.615711
                    6
     6  H    0.000000
 Stoichiometry    C2H2S2(2+)
 Framework group  CS[SG(C2H2S2)]
 Deg. of freedom     9
 Full point group                 CS      NOp   2
 Largest Abelian subgroup         CS      NOp   2
 Largest concise Abelian subgroup C1      NOp   1
                         Standard orientation:                         
 ---------------------------------------------------------------------
 Center     Atomic      Atomic             Coordinates (Angstroms)
 Number     Number       Type             X           Y           Z
 ---------------------------------------------------------------------
      1         16           0        0.000000    0.772358   -0.000000
      2         16           0       -1.619214   -0.400723    0.000000
      3          6           0        2.529285   -0.486717   -0.000000
      4          6           0        1.364117   -0.090967   -0.000000
      5          1           0        3.549403   -0.857267   -0.000000
      6          1           0       -1.002385   -1.622782    0.000000
 ---------------------------------------------------------------------
 Rotational constants (GHZ):     16.6145981      2.5702940      2.2259391
 Leave Link  202 at Wed Aug  3 22:52:13 2016, MaxMem=    33554432 cpu:         0.0
 (Enter /home/proyectos/fulerenos/M3C-v2.0/M3C-deps_CCC/g09-AM64L-G09RevC.01/l301.exe)
 Standard basis: 6-311++G(3df,2p) (5D, 7F)
 Ernie: Thresh=  0.10000D-02 Tol=  0.10000D-05 Strict=F.
 There are   152 symmetry adapted cartesian basis functions of A'  symmetry.
 There are    64 symmetry adapted cartesian basis functions of A"  symmetry.
 There are   132 symmetry adapted basis functions of A'  symmetry.
 There are    60 symmetry adapted basis functions of A"  symmetry.
   192 basis functions,   284 primitive gaussians,   216 cartesian basis functions
    22 alpha electrons       22 beta electrons
       nuclear repulsion energy       181.5011301080 Hartrees.
 IExCor=  402 DFT=T Ex+Corr=B3LYP ExCW=0 ScaHFX=  0.200000
 ScaDFX=  0.800000  0.720000  1.000000  0.810000 ScalE2=  1.000000  1.000000
 IRadAn=      0 IRanWt=     -1 IRanGd=            0 ICorTp=0 IEmpDi=  4
 NAtoms=    6 NActive=    6 NUniq=    6 SFac= 1.00D+00 NAtFMM=   60 NAOKFM=F Big=F
 Integral buffers will be    131072 words long.
 Raffenetti 2 integral format.
 Two-electron integral symmetry is turned on.
 Leave Link  301 at Wed Aug  3 22:52:13 2016, MaxMem=    33554432 cpu:         0.2
 (Enter /home/proyectos/fulerenos/M3C-v2.0/M3C-deps_CCC/g09-AM64L-G09RevC.01/l302.exe)
 NPDir=0 NMtPBC=     1 NCelOv=     1 NCel=       1 NClECP=     1 NCelD=      1
         NCelK=      1 NCelE2=     1 NClLst=     1 CellRange=     0.0.
 One-electron integrals computed using PRISM.
 NBasis=   192 RedAO= T EigKep=  6.90D-06  NBF=   132    60
 NBsUse=   192 1.00D-06 EigRej= -1.00D+00 NBFU=   132    60
 Precomputing XC quadrature grid using
 IXCGrd= 4 IRadAn=           0 IRanWt=          -1 IRanGd=           0 AccXCQ= 0.00D+00.
 Generated NRdTot=       0 NPtTot=           0 NUsed=           0 NTot=          32
 NSgBfM=   214   214   214   214   214 MxSgAt=     6 MxSgA2=     6.
 Leave Link  302 at Wed Aug  3 22:52:13 2016, MaxMem=    33554432 cpu:         1.2
 (Enter /home/proyectos/fulerenos/M3C-v2.0/M3C-deps_CCC/g09-AM64L-G09RevC.01/l303.exe)
 DipDrv:  MaxL=1.
 Leave Link  303 at Wed Aug  3 22:52:13 2016, MaxMem=    33554432 cpu:         0.2
 (Enter /home/proyectos/fulerenos/M3C-v2.0/M3C-deps_CCC/g09-AM64L-G09RevC.01/l401.exe)
 ExpMin= 3.60D-02 ExpMax= 9.34D+04 ExpMxC= 3.17D+03 IAcc=3 IRadAn=         5 AccDes= 0.00D+00
 Harris functional with IExCor=  402 and IRadAn=       5 diagonalized for initial guess.
 HarFok:  IExCor=  402 AccDes= 0.00D+00 IRadAn=         5 IDoV= 1 UseB2=F ITyADJ=14
 ICtDFT=  3500011 ScaDFX=  1.000000  1.000000  1.000000  1.000000
 FoFCou: FMM=F IPFlag=           0 FMFlag=      100000 FMFlg1=           0
         NFxFlg=           0 DoJE=T BraDBF=F KetDBF=T FulRan=T
         wScrn=  0.000000 ICntrl=     500 IOpCl=  0 I1Cent=   200000004 NGrid=           0
         NMat0=    1 NMatS0=      1 NMatT0=    0 NMatD0=    1 NMtDS0=    0 NMtDT0=    0
 Petite list used in FoFCou.
 Harris En= -873.298726325986    
 JPrj=0 DoOrth=F DoCkMO=F.
 Initial guess orbital symmetries:
       Occupied  (A') (A') (A') (A') (A') (A') (A') (A') (A') (A")
                 (A') (A") (A') (A') (A') (A') (A') (A') (A") (A')
                 (A') (A")
       Virtual   (A") (A') (A") (A') (A') (A') (A') (A') (A") (A')
                 (A') (A') (A') (A") (A') (A") (A') (A') (A") (A')
                 (A') (A') (A") (A') (A') (A") (A') (A') (A') (A')
                 (A") (A') (A') (A") (A") (A') (A") (A') (A') (A')
                 (A') (A') (A") (A") (A') (A') (A") (A") (A') (A')
                 (A') (A') (A') (A') (A') (A") (A") (A') (A") (A')
                 (A') (A') (A') (A") (A') (A") (A') (A') (A') (A")
                 (A") (A') (A') (A') (A") (A') (A') (A') (A") (A")
                 (A') (A') (A') (A') (A") (A") (A') (A") (A') (A")
                 (A') (A') (A") (A') (A") (A') (A') (A") (A") (A')
                 (A') (A') (A') (A") (A') (A") (A') (A') (A') (A')
                 (A") (A') (A") (A') (A') (A") (A") (A') (A') (A')
                 (A") (A') (A') (A") (A') (A") (A') (A') (A") (A')
                 (A') (A") (A') (A') (A') (A") (A') (A") (A') (A")
                 (A") (A') (A') (A') (A") (A') (A') (A') (A") (A')
                 (A") (A') (A") (A') (A") (A') (A') (A') (A') (A')
                 (A") (A') (A") (A') (A') (A') (A') (A') (A') (A')
 The electronic state of the initial guess is 1-A'.
 Leave Link  401 at Wed Aug  3 22:52:14 2016, MaxMem=    33554432 cpu:         3.5
 (Enter /home/proyectos/fulerenos/M3C-v2.0/M3C-deps_CCC/g09-AM64L-G09RevC.01/l502.exe)
 Closed shell SCF:
 Using DIIS extrapolation, IDIIS=  1040.
 Integral symmetry usage will be decided dynamically.
 IVT=      161442 IEndB=      161442 NGot=    33554432 MDV=    33456503
 LenX=    33456503 LenY=    33409406
 Requested convergence on RMS density matrix=1.00D-08 within 128 cycles.
 Requested convergence on MAX density matrix=1.00D-06.
 Requested convergence on             energy=1.00D-06.
 No special actions if energy rises.
 Fock matrices will be formed incrementally for  20 cycles.

 Cycle   1  Pass 1  IDiag  1:
 FoFJK:  IHMeth= 1 ICntrl=       0 DoSepK=F KAlg= 0 I1Cent=   0 FoldK=F
 IRaf= 950000000 NMat=   1 IRICut=       1 DoRegI=T DoRafI=F ISym2E= 1.
 FoFCou: FMM=F IPFlag=           0 FMFlag=      100000 FMFlg1=           0
         NFxFlg=           0 DoJE=F BraDBF=F KetDBF=F FulRan=T
         wScrn=  0.000000 ICntrl=       0 IOpCl=  0 I1Cent=           0 NGrid=           0
         NMat0=    1 NMatS0=      1 NMatT0=    0 NMatD0=    1 NMtDS0=    0 NMtDT0=    0
 Petite list used in FoFCou.
 E= -872.668143726997    
 DIIS: error= 4.83D-02 at cycle   1 NSaved=   1.
 NSaved= 1 IEnMin= 1 EnMin= -872.668143726997     IErMin= 1 ErrMin= 4.83D-02
 ErrMax= 4.83D-02  0.00D+00 EMaxC= 1.00D-01 BMatC= 2.44D-01 BMatP= 2.44D-01
 IDIUse=3 WtCom= 5.17D-01 WtEn= 4.83D-01
 Coeff-Com:  0.100D+01
 Coeff-En:   0.100D+01
 Coeff:      0.100D+01
 Gap=     0.091 Goal=   None    Shift=    0.000
 GapD=    0.091 DampG=0.500 DampE=0.500 DampFc=0.2500 IDamp=-1.
 Damping current iteration by 2.50D-01
 RMSDP=1.08D-02 MaxDP=2.62D-01              OVMax= 9.16D-01

 Cycle   2  Pass 1  IDiag  1:
 RMSU=  2.67D-03    CP:  9.88D-01
 E= -872.704555979420     Delta-E=       -0.036412252423 Rises=F Damp=T
 DIIS: error= 8.32D-03 at cycle   2 NSaved=   2.
 NSaved= 2 IEnMin= 2 EnMin= -872.704555979420     IErMin= 2 ErrMin= 8.32D-03
 ErrMax= 8.32D-03  0.00D+00 EMaxC= 1.00D-01 BMatC= 2.77D-02 BMatP= 2.44D-01
 IDIUse=3 WtCom= 9.17D-01 WtEn= 8.32D-02
 Coeff-Com: -0.522D-01 0.105D+01
 Coeff-En:   0.426D+00 0.574D+00
 Coeff:     -0.125D-01 0.101D+01
 Gap=     0.079 Goal=   None    Shift=    0.000
 RMSDP=4.46D-03 MaxDP=1.85D-01 DE=-3.64D-02 OVMax= 5.87D-01

 Cycle   3  Pass 1  IDiag  1:
 RMSU=  4.29D-03    CP:  9.72D-01  5.85D-01
 E= -872.767277236731     Delta-E=       -0.062721257312 Rises=F Damp=F
 DIIS: error= 2.92D-02 at cycle   3 NSaved=   3.
 NSaved= 3 IEnMin= 3 EnMin= -872.767277236731     IErMin= 2 ErrMin= 8.32D-03
 ErrMax= 2.92D-02  0.00D+00 EMaxC= 1.00D-01 BMatC= 1.13D-01 BMatP= 2.77D-02
 IDIUse=2 WtCom= 0.00D+00 WtEn= 1.00D+00
 Coeff-En:   0.000D+00 0.354D+00 0.646D+00
 Coeff:      0.000D+00 0.354D+00 0.646D+00
 Gap=     0.050 Goal=   None    Shift=    0.000
 RMSDP=8.78D-03 MaxDP=2.99D-01 DE=-6.27D-02 OVMax= 6.54D-01

 Cycle   4  Pass 1  IDiag  1:
 RMSU=  5.91D-03    CP:  8.57D-01  1.59D+00 -5.96D-02
 E= -872.327221051043     Delta-E=        0.440056185688 Rises=F Damp=F
 DIIS: error= 4.26D-02 at cycle   4 NSaved=   4.
 NSaved= 4 IEnMin= 3 EnMin= -872.767277236731     IErMin= 2 ErrMin= 8.32D-03
 ErrMax= 4.26D-02  0.00D+00 EMaxC= 1.00D-01 BMatC= 4.14D-01 BMatP= 2.77D-02
 IDIUse=2 WtCom= 0.00D+00 WtEn= 1.00D+00
 Coeff-En:   0.000D+00 0.000D+00 0.703D+00 0.297D+00
 Coeff:      0.000D+00 0.000D+00 0.703D+00 0.297D+00
 Gap=     0.071 Goal=   None    Shift=    0.000
 RMSDP=3.66D-03 MaxDP=1.10D-01 DE= 4.40D-01 OVMax= 4.64D-01

 Cycle   5  Pass 1  IDiag  1:
 RMSU=  1.19D-03    CP:  8.96D-01  7.74D-01  3.11D-01  7.04D-01
 E= -872.878468891969     Delta-E=       -0.551247840925 Rises=F Damp=F
 DIIS: error= 1.98D-02 at cycle   5 NSaved=   5.
 NSaved= 5 IEnMin= 5 EnMin= -872.878468891969     IErMin= 2 ErrMin= 8.32D-03
 ErrMax= 1.98D-02  0.00D+00 EMaxC= 1.00D-01 BMatC= 4.95D-02 BMatP= 2.77D-02
 IDIUse=2 WtCom= 0.00D+00 WtEn= 1.00D+00
 Coeff-En:   0.000D+00 0.000D+00 0.296D+00 0.000D+00 0.704D+00
 Coeff:      0.000D+00 0.000D+00 0.296D+00 0.000D+00 0.704D+00
 Gap=     0.083 Goal=   None    Shift=    0.000
 RMSDP=3.71D-03 MaxDP=1.52D-01 DE=-5.51D-01 OVMax= 1.93D-01

 Cycle   6  Pass 1  IDiag  1:
 RMSU=  1.82D-03    CP:  9.18D-01  1.18D+00  7.51D-01  3.37D-01  4.14D-01
 E= -872.835326305953     Delta-E=        0.043142586015 Rises=F Damp=F
 DIIS: error= 3.09D-02 at cycle   6 NSaved=   6.
 NSaved= 6 IEnMin= 5 EnMin= -872.878468891969     IErMin= 2 ErrMin= 8.32D-03
 ErrMax= 3.09D-02  0.00D+00 EMaxC= 1.00D-01 BMatC= 8.04D-02 BMatP= 2.77D-02
 IDIUse=2 WtCom= 0.00D+00 WtEn= 1.00D+00
 EnCoef did     5 forward-backward iterations
 Coeff-En:   0.000D+00 0.000D+00 0.203D+00 0.000D+00 0.535D+00 0.262D+00
 Coeff:      0.000D+00 0.000D+00 0.203D+00 0.000D+00 0.535D+00 0.262D+00
 Gap=     0.105 Goal=   None    Shift=    0.000
 RMSDP=1.54D-03 MaxDP=4.53D-02 DE= 4.31D-02 OVMax= 1.86D-01

 Cycle   7  Pass 1  IDiag  1:
 RMSU=  3.77D-04    CP:  9.30D-01  8.06D-01  7.21D-01  3.38D-01  7.24D-01
                    CP:  4.73D-01
 E= -872.927403730251     Delta-E=       -0.092077424297 Rises=F Damp=F
 DIIS: error= 7.85D-03 at cycle   7 NSaved=   7.
 NSaved= 7 IEnMin= 7 EnMin= -872.927403730251     IErMin= 7 ErrMin= 7.85D-03
 ErrMax= 7.85D-03  0.00D+00 EMaxC= 1.00D-01 BMatC= 6.95D-03 BMatP= 2.77D-02
 IDIUse=3 WtCom= 9.22D-01 WtEn= 7.85D-02
 Coeff-Com: -0.163D-01 0.174D-01 0.858D-01-0.223D-01 0.376D+00 0.187D+00
 Coeff-Com:  0.372D+00
 Coeff-En:   0.000D+00 0.000D+00 0.000D+00 0.000D+00 0.185D+00 0.000D+00
 Coeff-En:   0.815D+00
 Coeff:     -0.150D-01 0.160D-01 0.790D-01-0.205D-01 0.361D+00 0.172D+00
 Coeff:      0.407D+00
 Gap=     0.110 Goal=   None    Shift=    0.000
 RMSDP=9.57D-04 MaxDP=3.99D-02 DE=-9.21D-02 OVMax= 9.38D-02

 Cycle   8  Pass 1  IDiag  1:
 RMSU=  2.10D-04    CP:  9.20D-01  8.43D-01  6.12D-01  4.57D-01  7.60D-01
                    CP:  4.29D-01  6.03D-01
 E= -872.936028139434     Delta-E=       -0.008624409184 Rises=F Damp=F
 DIIS: error= 3.20D-03 at cycle   8 NSaved=   8.
 NSaved= 8 IEnMin= 8 EnMin= -872.936028139434     IErMin= 8 ErrMin= 3.20D-03
 ErrMax= 3.20D-03  0.00D+00 EMaxC= 1.00D-01 BMatC= 8.21D-04 BMatP= 6.95D-03
 IDIUse=3 WtCom= 9.68D-01 WtEn= 3.20D-02
 Coeff-Com: -0.728D-02 0.431D-02-0.207D-01-0.244D-02 0.936D-01 0.118D-01
 Coeff-Com:  0.406D+00 0.515D+00
 Coeff-En:   0.000D+00 0.000D+00 0.000D+00 0.000D+00 0.000D+00 0.000D+00
 Coeff-En:   0.159D+00 0.841D+00
 Coeff:     -0.705D-02 0.417D-02-0.200D-01-0.236D-02 0.906D-01 0.114D-01
 Coeff:      0.398D+00 0.525D+00
 Gap=     0.113 Goal=   None    Shift=    0.000
 RMSDP=2.40D-04 MaxDP=1.05D-02 DE=-8.62D-03 OVMax= 2.67D-02

 Cycle   9  Pass 1  IDiag  1:
 RMSU=  5.39D-05    CP:  9.22D-01  8.32D-01  6.30D-01  4.30D-01  7.93D-01
                    CP:  4.46D-01  8.40D-01  6.15D-01
 E= -872.937119547314     Delta-E=       -0.001091407880 Rises=F Damp=F
 DIIS: error= 7.08D-04 at cycle   9 NSaved=   9.
 NSaved= 9 IEnMin= 9 EnMin= -872.937119547314     IErMin= 9 ErrMin= 7.08D-04
 ErrMax= 7.08D-04  0.00D+00 EMaxC= 1.00D-01 BMatC= 2.32D-05 BMatP= 8.21D-04
 IDIUse=3 WtCom= 9.93D-01 WtEn= 7.08D-03
 Coeff-Com:  0.189D-02-0.228D-02-0.107D-01 0.278D-03 0.230D-02 0.217D-02
 Coeff-Com:  0.643D-01 0.183D+00 0.759D+00
 Coeff-En:   0.000D+00 0.000D+00 0.000D+00 0.000D+00 0.000D+00 0.000D+00
 Coeff-En:   0.000D+00 0.333D-01 0.967D+00
 Coeff:      0.188D-02-0.226D-02-0.106D-01 0.276D-03 0.228D-02 0.215D-02
 Coeff:      0.639D-01 0.182D+00 0.760D+00
 Gap=     0.113 Goal=   None    Shift=    0.000
 RMSDP=4.53D-05 MaxDP=2.75D-03 DE=-1.09D-03 OVMax= 4.94D-03

 Cycle  10  Pass 1  IDiag  1:
 RMSU=  1.71D-05    CP:  9.21D-01  8.34D-01  6.29D-01  4.35D-01  7.92D-01
                    CP:  4.49D-01  8.24D-01  6.64D-01  9.60D-01
 E= -872.937152949666     Delta-E=       -0.000033402352 Rises=F Damp=F
 DIIS: error= 3.79D-05 at cycle  10 NSaved=  10.
 NSaved=10 IEnMin=10 EnMin= -872.937152949666     IErMin=10 ErrMin= 3.79D-05
 ErrMax= 3.79D-05  0.00D+00 EMaxC= 1.00D-01 BMatC= 2.98D-07 BMatP= 2.32D-05
 IDIUse=1 WtCom= 1.00D+00 WtEn= 0.00D+00
 Coeff-Com: -0.101D-03 0.560D-03 0.275D-03-0.291D-03-0.284D-02-0.399D-03
 Coeff-Com: -0.359D-02 0.200D-01 0.136D+00 0.851D+00
 Coeff:     -0.101D-03 0.560D-03 0.275D-03-0.291D-03-0.284D-02-0.399D-03
 Coeff:     -0.359D-02 0.200D-01 0.136D+00 0.851D+00
 Gap=     0.113 Goal=   None    Shift=    0.000
 RMSDP=9.38D-06 MaxDP=4.88D-04 DE=-3.34D-05 OVMax= 2.63D-04

 Cycle  11  Pass 1  IDiag  1:
 RMSU=  3.34D-06    CP:  9.21D-01  8.34D-01  6.29D-01  4.34D-01  7.90D-01
                    CP:  4.49D-01  8.19D-01  6.65D-01  1.03D+00  1.03D+00
 E= -872.937153275899     Delta-E=       -0.000000326233 Rises=F Damp=F
 DIIS: error= 1.48D-05 at cycle  11 NSaved=  11.
 NSaved=11 IEnMin=11 EnMin= -872.937153275899     IErMin=11 ErrMin= 1.48D-05
 ErrMax= 1.48D-05  0.00D+00 EMaxC= 1.00D-01 BMatC= 4.78D-08 BMatP= 2.98D-07
 IDIUse=1 WtCom= 1.00D+00 WtEn= 0.00D+00
 Coeff-Com: -0.128D-03 0.195D-03 0.503D-03-0.695D-04-0.126D-02-0.487D-03
 Coeff-Com: -0.334D-02-0.478D-02 0.575D-02 0.270D+00 0.734D+00
 Coeff:     -0.128D-03 0.195D-03 0.503D-03-0.695D-04-0.126D-02-0.487D-03
 Coeff:     -0.334D-02-0.478D-02 0.575D-02 0.270D+00 0.734D+00
 Gap=     0.113 Goal=   None    Shift=    0.000
 RMSDP=2.06D-06 MaxDP=6.98D-05 DE=-3.26D-07 OVMax= 1.17D-04

 Cycle  12  Pass 1  IDiag  1:
 RMSU=  9.34D-07    CP:  9.21D-01  8.34D-01  6.29D-01  4.34D-01  7.90D-01
                    CP:  4.50D-01  8.21D-01  6.68D-01  1.03D+00  1.05D+00
                    CP:  8.29D-01
 E= -872.937153323004     Delta-E=       -0.000000047104 Rises=F Damp=F
 DIIS: error= 9.42D-06 at cycle  12 NSaved=  12.
 NSaved=12 IEnMin=12 EnMin= -872.937153323004     IErMin=12 ErrMin= 9.42D-06
 ErrMax= 9.42D-06  0.00D+00 EMaxC= 1.00D-01 BMatC= 1.14D-08 BMatP= 4.78D-08
 IDIUse=1 WtCom= 1.00D+00 WtEn= 0.00D+00
 Coeff-Com: -0.925D-04 0.127D-03 0.252D-03-0.224D-04-0.174D-03-0.223D-03
 Coeff-Com: -0.833D-03-0.516D-02-0.128D-01-0.586D-02 0.183D+00 0.842D+00
 Coeff:     -0.925D-04 0.127D-03 0.252D-03-0.224D-04-0.174D-03-0.223D-03
 Coeff:     -0.833D-03-0.516D-02-0.128D-01-0.586D-02 0.183D+00 0.842D+00
 Gap=     0.113 Goal=   None    Shift=    0.000
 RMSDP=1.23D-06 MaxDP=4.28D-05 DE=-4.71D-08 OVMax= 6.57D-05

 Cycle  13  Pass 1  IDiag  1:
 RMSU=  2.93D-07    CP:  9.21D-01  8.34D-01  6.29D-01  4.34D-01  7.90D-01
                    CP:  4.50D-01  8.20D-01  6.67D-01  1.04D+00  1.07D+00
                    CP:  9.53D-01  9.91D-01
 E= -872.937153339520     Delta-E=       -0.000000016516 Rises=F Damp=F
 DIIS: error= 1.48D-06 at cycle  13 NSaved=  13.
 NSaved=13 IEnMin=13 EnMin= -872.937153339520     IErMin=13 ErrMin= 1.48D-06
 ErrMax= 1.48D-06  0.00D+00 EMaxC= 1.00D-01 BMatC= 3.92D-10 BMatP= 1.14D-08
 IDIUse=1 WtCom= 1.00D+00 WtEn= 0.00D+00
 Coeff-Com:  0.568D-05-0.111D-04-0.806D-05 0.380D-05 0.434D-04 0.767D-05
 Coeff-Com:  0.294D-04-0.117D-02-0.221D-02-0.215D-01-0.373D-01 0.159D+00
 Coeff-Com:  0.903D+00
 Coeff:      0.568D-05-0.111D-04-0.806D-05 0.380D-05 0.434D-04 0.767D-05
 Coeff:      0.294D-04-0.117D-02-0.221D-02-0.215D-01-0.373D-01 0.159D+00
 Coeff:      0.903D+00
 Gap=     0.113 Goal=   None    Shift=    0.000
 RMSDP=3.69D-07 MaxDP=2.27D-05 DE=-1.65D-08 OVMax= 1.92D-05

 Cycle  14  Pass 1  IDiag  1:
 RMSU=  7.31D-08    CP:  9.21D-01  8.34D-01  6.29D-01  4.34D-01  7.90D-01
                    CP:  4.50D-01  8.20D-01  6.67D-01  1.04D+00  1.07D+00
                    CP:  9.67D-01  1.11D+00  9.88D-01
 E= -872.937153340071     Delta-E=       -0.000000000550 Rises=F Damp=F
 DIIS: error= 2.42D-07 at cycle  14 NSaved=  14.
 NSaved=14 IEnMin=14 EnMin= -872.937153340071     IErMin=14 ErrMin= 2.42D-07
 ErrMax= 2.42D-07  0.00D+00 EMaxC= 1.00D-01 BMatC= 1.55D-11 BMatP= 3.92D-10
 IDIUse=1 WtCom= 1.00D+00 WtEn= 0.00D+00
 Coeff-Com:  0.400D-05-0.568D-05-0.138D-05 0.348D-07 0.238D-04 0.353D-05
 Coeff-Com:  0.353D-04-0.253D-03-0.691D-03-0.641D-02-0.128D-01 0.359D-01
 Coeff-Com:  0.296D+00 0.689D+00
 Coeff:      0.400D-05-0.568D-05-0.138D-05 0.348D-07 0.238D-04 0.353D-05
 Coeff:      0.353D-04-0.253D-03-0.691D-03-0.641D-02-0.128D-01 0.359D-01
 Coeff:      0.296D+00 0.689D+00
 Gap=     0.113 Goal=   None    Shift=    0.000
 RMSDP=5.73D-08 MaxDP=4.96D-06 DE=-5.50D-10 OVMax= 1.07D-06

 Cycle  15  Pass 1  IDiag  1:
 RMSU=  1.40D-08    CP:  9.21D-01  8.34D-01  6.29D-01  4.34D-01  7.90D-01
                    CP:  4.50D-01  8.20D-01  6.67D-01  1.04D+00  1.07D+00
                    CP:  9.67D-01  1.10D+00  1.03D+00  7.89D-01
 E= -872.937153340086     Delta-E=       -0.000000000015 Rises=F Damp=F
 DIIS: error= 1.60D-07 at cycle  15 NSaved=  15.
 NSaved=15 IEnMin=15 EnMin= -872.937153340086     IErMin=15 ErrMin= 1.60D-07
 ErrMax= 1.60D-07  0.00D+00 EMaxC= 1.00D-01 BMatC= 3.29D-12 BMatP= 1.55D-11
 IDIUse=1 WtCom= 1.00D+00 WtEn= 0.00D+00
 Coeff-Com:  0.120D-05-0.154D-05 0.423D-06-0.756D-06 0.562D-05-0.262D-05
 Coeff-Com:  0.260D-04 0.500D-04-0.566D-04-0.321D-03-0.443D-03-0.185D-02
 Coeff-Com:  0.210D-01 0.200D+00 0.782D+00
 Coeff:      0.120D-05-0.154D-05 0.423D-06-0.756D-06 0.562D-05-0.262D-05
 Coeff:      0.260D-04 0.500D-04-0.566D-04-0.321D-03-0.443D-03-0.185D-02
 Coeff:      0.210D-01 0.200D+00 0.782D+00
 Gap=     0.113 Goal=   None    Shift=    0.000
 RMSDP=2.18D-08 MaxDP=1.54D-06 DE=-1.55D-11 OVMax= 4.55D-07

 Cycle  16  Pass 1  IDiag  1:
 RMSU=  3.51D-09    CP:  9.21D-01  8.34D-01  6.29D-01  4.34D-01  7.90D-01
                    CP:  4.50D-01  8.20D-01  6.67D-01  1.04D+00  1.07D+00
                    CP:  9.68D-01  1.11D+00  1.02D+00  8.57D-01  8.65D-01
 E= -872.937153340081     Delta-E=        0.000000000005 Rises=F Damp=F
 DIIS: error= 7.86D-08 at cycle  16 NSaved=  16.
 NSaved=16 IEnMin=15 EnMin= -872.937153340086     IErMin=16 ErrMin= 7.86D-08
 ErrMax= 7.86D-08  0.00D+00 EMaxC= 1.00D-01 BMatC= 5.16D-13 BMatP= 3.29D-12
 IDIUse=1 WtCom= 1.00D+00 WtEn= 0.00D+00
 Coeff-Com:  0.183D-06-0.201D-06-0.348D-06-0.728D-07 0.492D-06-0.109D-05
 Coeff-Com:  0.971D-05 0.150D-04 0.214D-04-0.697D-04-0.285D-03-0.141D-02
 Coeff-Com:  0.137D-03-0.138D-01 0.628D-01 0.953D+00
 Coeff:      0.183D-06-0.201D-06-0.348D-06-0.728D-07 0.492D-06-0.109D-05
 Coeff:      0.971D-05 0.150D-04 0.214D-04-0.697D-04-0.285D-03-0.141D-02
 Coeff:      0.137D-03-0.138D-01 0.628D-01 0.953D+00
 Gap=     0.113 Goal=   None    Shift=    0.000
 RMSDP=6.51D-09 MaxDP=2.65D-07 DE= 5.00D-12 OVMax= 6.08D-07

 SCF Done:  E(RB3LYP) =  -872.937153340     A.U. after   16 cycles
            NFock= 16  Conv=0.65D-08     -V/T= 2.0017
 KE= 8.714618948135D+02 PE=-2.412853220713D+03 EE= 4.869530424516D+02
 Leave Link  502 at Wed Aug  3 22:53:20 2016, MaxMem=    33554432 cpu:       238.9
 (Enter /home/proyectos/fulerenos/M3C-v2.0/M3C-deps_CCC/g09-AM64L-G09RevC.01/l801.exe)
 DoSCS=F DFT=T ScalE2(SS,OS)=  1.000000  1.000000
 Range of M.O.s used for correlation:     1   192
 NBasis=   192 NAE=    22 NBE=    22 NFC=     0 NFV=     0
 NROrb=    192 NOA=    22 NOB=    22 NVA=   170 NVB=   170

 **** Warning!!: The largest alpha MO coefficient is  0.11438826D+03

 Leave Link  801 at Wed Aug  3 22:53:20 2016, MaxMem=    33554432 cpu:         0.1
 (Enter /home/proyectos/fulerenos/M3C-v2.0/M3C-deps_CCC/g09-AM64L-G09RevC.01/l1101.exe)
 Using compressed storage, NAtomX=     6.
 Will process      7 centers per pass.
 Leave Link 1101 at Wed Aug  3 22:53:20 2016, MaxMem=    33554432 cpu:         1.4
 (Enter /home/proyectos/fulerenos/M3C-v2.0/M3C-deps_CCC/g09-AM64L-G09RevC.01/l1102.exe)
 Symmetrizing basis deriv contribution to polar:
 IMax=3 JMax=2 DiffMx= 0.00D+00
 Leave Link 1102 at Wed Aug  3 22:53:20 2016, MaxMem=    33554432 cpu:         0.1
 (Enter /home/proyectos/fulerenos/M3C-v2.0/M3C-deps_CCC/g09-AM64L-G09RevC.01/l1110.exe)
 Forming Gx(P) for the SCF density, NAtomX=     6.
 Integral derivatives from FoFJK, PRISM(SPDF).
 Do as many integral derivatives as possible in FoFJK.
 G2DrvN: MDV=      33554280.
 G2DrvN: will do     7 centers at a time, making    1 passes.
 Calling FoFCou, ICntrl=  3107 FMM=F I1Cent=   0 AccDes= 0.00D+00.
 FoFJK:  IHMeth= 1 ICntrl=    3107 DoSepK=F KAlg= 0 I1Cent=   0 FoldK=F
 IRaf=         0 NMat=   1 IRICut=       1 DoRegI=T DoRafI=F ISym2E= 1.
 FoFCou: FMM=F IPFlag=           0 FMFlag=      100000 FMFlg1=           0
         NFxFlg=           0 DoJE=F BraDBF=F KetDBF=F FulRan=T
         wScrn=  0.000000 ICntrl=    3107 IOpCl=  0 I1Cent=           0 NGrid=           0
         NMat0=    1 NMatS0=      1 NMatT0=    0 NMatD0=    1 NMtDS0=    0 NMtDT0=    0
 Petite list used in FoFCou.
 End of G2Drv F.D. properties file   721 does not exist.
 End of G2Drv F.D. properties file   722 does not exist.
 End of G2Drv F.D. properties file   788 does not exist.
 Leave Link 1110 at Wed Aug  3 22:53:47 2016, MaxMem=    33554432 cpu:       105.6
 (Enter /home/proyectos/fulerenos/M3C-v2.0/M3C-deps_CCC/g09-AM64L-G09RevC.01/l1002.exe)
 Minotr:  Closed shell wavefunction.
          IDoAtm=111111
          Direct CPHF calculation.
          Differentiating once with respect to electric field.
                with respect to dipole field.
          Differentiating once with respect to nuclear coordinates.
          Using symmetry in CPHF.
          Requested convergence is 1.0D-08 RMS, and 1.0D-07 maximum.
          Secondary convergence is 1.0D-12 RMS, and 1.0D-12 maximum.
          NewPWx=T KeepS1=F KeepF1=F KeepIn=T MapXYZ=F SortEE=F KeepMc=T.
          MDV=      33554176 using IRadAn=       2.
 Generate precomputed XC quadrature information.
          Solving linear equations simultaneously, MaxMat=       0.
 FoFJK:  IHMeth= 1 ICntrl=       0 DoSepK=F KAlg= 0 I1Cent=   0 FoldK=F
 IRaf= 950000000 NMat=  21 IRICut=      52 DoRegI=T DoRafI=T ISym2E= 2.
 FoFCou: FMM=F IPFlag=           0 FMFlag=      100000 FMFlg1=           0
         NFxFlg=           0 DoJE=F BraDBF=F KetDBF=F FulRan=T
         wScrn=  0.000000 ICntrl=       0 IOpCl=  0 I1Cent=           0 NGrid=           0
         NMat0=   21 NMatS0=     21 NMatT0=    0 NMatD0=   21 NMtDS0=    0 NMtDT0=    0
 Integrals replicated using symmetry in FoFCou.
          There are    21 degrees of freedom in the 1st order CPHF.  IDoFFX=6 NUNeed=     3.
     18 vectors produced by pass  0 Test12= 1.78D-14 4.76D-09 XBig12= 5.86D+02 2.23D+01.
 AX will form    18 AO Fock derivatives at one time.
     18 vectors produced by pass  1 Test12= 1.78D-14 4.76D-09 XBig12= 1.39D+02 3.83D+00.
     18 vectors produced by pass  2 Test12= 1.78D-14 4.76D-09 XBig12= 4.22D+00 8.23D-01.
     18 vectors produced by pass  3 Test12= 1.78D-14 4.76D-09 XBig12= 6.25D-02 7.02D-02.
     18 vectors produced by pass  4 Test12= 1.78D-14 4.76D-09 XBig12= 3.09D-04 4.52D-03.
     18 vectors produced by pass  5 Test12= 1.78D-14 4.76D-09 XBig12= 8.76D-07 1.46D-04.
     10 vectors produced by pass  6 Test12= 1.78D-14 4.76D-09 XBig12= 1.96D-09 8.82D-06.
      3 vectors produced by pass  7 Test12= 1.78D-14 4.76D-09 XBig12= 3.16D-12 3.41D-07.
      2 vectors produced by pass  8 Test12= 1.78D-14 4.76D-09 XBig12= 4.45D-14 5.51D-08.
 InvSVY:  IOpt=1 It=  1 EMax= 1.42D-14
 Solved reduced A of dimension   123 with    21 vectors.
 FullF1:  Do perturbations    1 to     3.
 Isotropic polarizability for W=    0.000000       58.83 Bohr**3.
 End of Minotr F.D. properties file   721 does not exist.
 End of Minotr F.D. properties file   722 does not exist.
 End of Minotr F.D. properties file   788 does not exist.
 Leave Link 1002 at Wed Aug  3 22:54:54 2016, MaxMem=    33554432 cpu:       267.5
 (Enter /home/proyectos/fulerenos/M3C-v2.0/M3C-deps_CCC/g09-AM64L-G09RevC.01/l601.exe)
 Copying SCF densities to generalized density rwf, IOpCl= 0 IROHF=0.

 **********************************************************************

            Population analysis using the SCF density.

 **********************************************************************

 Orbital symmetries:
       Occupied  (A') (A') (A') (A') (A') (A') (A') (A") (A') (A')
                 (A") (A') (A') (A') (A') (A') (A') (A') (A") (A')
                 (A") (A')
       Virtual   (A") (A') (A') (A") (A') (A') (A') (A') (A") (A')
                 (A") (A') (A') (A") (A') (A") (A') (A') (A") (A')
                 (A') (A') (A') (A') (A") (A') (A') (A") (A') (A")
                 (A') (A') (A') (A") (A') (A') (A") (A') (A') (A')
                 (A") (A') (A') (A") (A') (A') (A") (A') (A") (A')
                 (A') (A') (A') (A') (A') (A") (A") (A') (A") (A')
                 (A') (A") (A') (A") (A') (A') (A') (A") (A') (A")
                 (A') (A') (A') (A') (A') (A") (A') (A") (A') (A')
                 (A') (A") (A") (A') (A") (A') (A') (A") (A') (A")
                 (A') (A') (A") (A') (A") (A') (A') (A") (A") (A')
                 (A') (A') (A') (A") (A') (A") (A') (A') (A') (A")
                 (A') (A') (A") (A') (A') (A") (A') (A") (A') (A')
                 (A") (A') (A') (A") (A') (A") (A') (A") (A') (A')
                 (A') (A") (A') (A') (A') (A") (A') (A") (A") (A')
                 (A") (A') (A') (A') (A") (A') (A') (A') (A") (A')
                 (A") (A') (A") (A') (A") (A') (A') (A') (A') (A')
                 (A") (A") (A') (A') (A') (A') (A') (A') (A') (A')
 The electronic state is 1-A'.
 Alpha  occ. eigenvalues --  -89.44944 -89.40292 -10.70612 -10.67360  -8.52502
 Alpha  occ. eigenvalues --   -8.48279  -6.48650  -6.48623  -6.48210  -6.44526
 Alpha  occ. eigenvalues --   -6.44192  -6.43992  -1.35299  -1.24381  -1.17367
 Alpha  occ. eigenvalues --   -1.00821  -0.96066  -0.87485  -0.85336  -0.84809
 Alpha  occ. eigenvalues --   -0.75515  -0.75467
 Alpha virt. eigenvalues --   -0.64175  -0.51770  -0.46669  -0.42579  -0.40929
 Alpha virt. eigenvalues --   -0.35658  -0.32091  -0.27781  -0.27687  -0.26460
 Alpha virt. eigenvalues --   -0.25939  -0.25275  -0.24334  -0.23349  -0.23148
 Alpha virt. eigenvalues --   -0.19868  -0.19822  -0.19155  -0.17275  -0.16461
 Alpha virt. eigenvalues --   -0.13427  -0.13133  -0.11947  -0.11760  -0.11584
 Alpha virt. eigenvalues --   -0.09955  -0.09235  -0.08591  -0.05679  -0.05330
 Alpha virt. eigenvalues --   -0.04128  -0.03623  -0.02956  -0.02723  -0.01348
 Alpha virt. eigenvalues --   -0.00926  -0.00158   0.01513   0.05444   0.06330
 Alpha virt. eigenvalues --    0.06359   0.07495   0.10928   0.12217   0.12829
 Alpha virt. eigenvalues --    0.13886   0.16015   0.17075   0.19179   0.20445
 Alpha virt. eigenvalues --    0.21478   0.23762   0.28472   0.32043   0.34530
 Alpha virt. eigenvalues --    0.34642   0.35458   0.43034   0.43380   0.44981
 Alpha virt. eigenvalues --    0.49215   0.50166   0.52662   0.53479   0.54090
 Alpha virt. eigenvalues --    0.55020   0.56681   0.60716   0.60836   0.62497
 Alpha virt. eigenvalues --    0.64157   0.66273   0.72661   0.73754   0.82754
 Alpha virt. eigenvalues --    0.83191   0.86601   0.98297   0.98427   0.99040
 Alpha virt. eigenvalues --    1.00127   1.01214   1.05237   1.05270   1.08578
 Alpha virt. eigenvalues --    1.12355   1.17649   1.19037   1.20512   1.26490
 Alpha virt. eigenvalues --    1.30344   1.31575   1.33373   1.35095   1.39298
 Alpha virt. eigenvalues --    1.43467   1.44916   1.45591   1.47787   1.59546
 Alpha virt. eigenvalues --    1.68412   1.73148   1.76985   1.77242   1.86762
 Alpha virt. eigenvalues --    1.99636   1.99661   2.05570   2.08387   2.19444
 Alpha virt. eigenvalues --    2.19486   2.21386   2.25555   2.27410   2.30066
 Alpha virt. eigenvalues --    2.33570   2.39995   2.44134   2.48060   2.54233
 Alpha virt. eigenvalues --    2.59156   2.59646   2.72930   2.99458   3.04690
 Alpha virt. eigenvalues --    3.25599   3.27508   3.36108   3.39579   3.47863
 Alpha virt. eigenvalues --    3.55776   3.74141   3.75521   3.80967   4.05663
 Alpha virt. eigenvalues --    4.05969   4.07048   4.11598   4.21359   4.21787
 Alpha virt. eigenvalues --    4.35818   4.37055   4.61082   4.82694   4.95807
 Alpha virt. eigenvalues --    5.01941   5.23261   5.70944   6.46545   6.47613
 Alpha virt. eigenvalues --    6.60617   6.62113   6.77221   6.79993   7.00255
 Alpha virt. eigenvalues --    7.03171   7.24313   7.49861   7.75466   8.30914
 Alpha virt. eigenvalues --   16.77029  16.91847  16.92568  17.05202  17.19532
 Alpha virt. eigenvalues --   17.51455  23.33570  26.20218 188.63035 189.03616
          Condensed to atoms (all electrons):
               1          2          3          4          5          6
     1  S   15.629436   0.585381  -1.653533   1.326129  -0.017532   0.022383
     2  S    0.585381  14.829577  -0.177791  -0.040730  -0.001261   0.320954
     3  C   -1.653533  -0.177791  10.211824  -3.477853   0.372871  -0.017275
     4  C    1.326129  -0.040730  -3.477853   8.323956  -0.073735  -0.002178
     5  H   -0.017532  -0.001261   0.372871  -0.073735   0.269667  -0.000471
     6  H    0.022383   0.320954  -0.017275  -0.002178  -0.000471   0.404822
 Mulliken charges:
               1
     1  S    0.107736
     2  S    0.483871
     3  C    0.741757
     4  C   -0.055590
     5  H    0.450462
     6  H    0.271765
 Sum of Mulliken charges =   2.00000
 Mulliken charges with hydrogens summed into heavy atoms:
               1
     1  S    0.107736
     2  S    0.755635
     3  C    1.192219
     4  C   -0.055590
 APT charges:
               1
     1  S    1.047924
     2  S    0.434954
     3  C    0.640376
     4  C   -0.709823
     5  H    0.390379
     6  H    0.196189
 Sum of APT charges =   2.00000
 APT charges with hydrogens summed into heavy atoms:
               1
     1  S    1.047924
     2  S    0.631144
     3  C    1.030754
     4  C   -0.709823
 Electronic spatial extent (au):  <R**2>=            470.8157
 Charge=              2.0000 electrons
 Dipole moment (field-independent basis, Debye):
    X=              2.8262    Y=             -2.2715    Z=             -0.0000  Tot=              3.6259
 Quadrupole moment (field-independent basis, Debye-Ang):
   XX=              7.3142   YY=            -23.2133   ZZ=            -31.1116
   XY=             -1.7907   XZ=              0.0000   YZ=              0.0000
 Traceless Quadrupole moment (field-independent basis, Debye-Ang):
   XX=             22.9844   YY=             -7.5431   ZZ=            -15.4413
   XY=             -1.7907   XZ=              0.0000   YZ=              0.0000
 Octapole moment (field-independent basis, Debye-Ang**2):
  XXX=             66.2477  YYY=             -4.5986  ZZZ=              0.0000  XYY=             -3.8208
  XXY=            -28.6419  XXZ=             -0.0000  XZZ=             -2.2062  YZZ=              0.5296
  YYZ=              0.0000  XYZ=              0.0000
 Hexadecapole moment (field-independent basis, Debye-Ang**3):
 XXXX=           -109.1755 YYYY=            -79.5586 ZZZZ=            -32.2709 XXXY=            -63.4457
 XXXZ=              0.0000 YYYX=              5.0068 YYYZ=              0.0000 ZZZX=              0.0000
 ZZZY=              0.0000 XXYY=            -67.9085 XXZZ=            -80.4719 YYZZ=            -20.5508
 XXYZ=              0.0000 YYXZ=              0.0000 ZZXY=              0.3135
 N-N= 1.815011301080D+02 E-N=-2.412853217210D+03  KE= 8.714618948135D+02
 Symmetry A'   KE= 7.944761191189D+02
 Symmetry A"   KE= 7.698577569463D+01
  Exact polarizability: 104.300  -0.165  41.984  -0.000  -0.000  30.196
 Approx polarizability: 334.624   5.534  82.164  -0.000  -0.000  49.617
 No NMR shielding tensors so no spin-rotation constants.
 Leave Link  601 at Wed Aug  3 22:54:54 2016, MaxMem=    33554432 cpu:         1.2
 (Enter /home/proyectos/fulerenos/M3C-v2.0/M3C-deps_CCC/g09-AM64L-G09RevC.01/l701.exe)
 Compute integral second derivatives.
 ... and contract with generalized density number  0.
 Leave Link  701 at Wed Aug  3 22:54:55 2016, MaxMem=    33554432 cpu:         1.6
 (Enter /home/proyectos/fulerenos/M3C-v2.0/M3C-deps_CCC/g09-AM64L-G09RevC.01/l702.exe)
 L702 exits ... SP integral derivatives will be done elsewhere.
 Leave Link  702 at Wed Aug  3 22:54:55 2016, MaxMem=    33554432 cpu:         0.1
 (Enter /home/proyectos/fulerenos/M3C-v2.0/M3C-deps_CCC/g09-AM64L-G09RevC.01/l703.exe)
 Compute integral second derivatives, UseDBF=F ICtDFT=           0.
 Integral derivatives from FoFJK, PRISM(SPDF).
 Calling FoFJK, ICntrl=    100127 FMM=F ISym2X=1 I1Cent= 0 IOpClX= 0 NMat=1 NMatS=1 NMatT=0.
 FoFJK:  IHMeth= 1 ICntrl=  100127 DoSepK=F KAlg= 0 I1Cent=   0 FoldK=F
 IRaf=         0 NMat=   1 IRICut=       1 DoRegI=T DoRafI=F ISym2E= 1.
 FoFCou: FMM=F IPFlag=           0 FMFlag=      100000 FMFlg1=         800
         NFxFlg=           0 DoJE=F BraDBF=F KetDBF=F FulRan=T
         wScrn=  0.000000 ICntrl=  100127 IOpCl=  0 I1Cent=           0 NGrid=           0
         NMat0=    1 NMatS0=      1 NMatT0=    0 NMatD0=    1 NMtDS0=    0 NMtDT0=    0
 Petite list used in FoFCou.
 Leave Link  703 at Wed Aug  3 22:55:44 2016, MaxMem=    33554432 cpu:       197.2
 (Enter /home/proyectos/fulerenos/M3C-v2.0/M3C-deps_CCC/g09-AM64L-G09RevC.01/l716.exe)
 Dipole        = 1.11192612D+00-8.93657997D-01-4.06075920D-18
 Polarizability= 1.04299527D+02-1.64614061D-01 4.19837739D+01
                -4.94992501D-08-1.78340009D-08 3.01961906D+01
 Full mass-weighted force constant matrix:
 Low frequencies ---  -16.2803  -10.9232   -0.0034    0.0020    0.0028    9.0761
 Low frequencies ---  157.0623  234.9976  375.5954
 Diagonal vibrational polarizability:
        7.9317359      10.8907264       6.4027647
 Harmonic frequencies (cm**-1), IR intensities (KM/Mole), Raman scattering
 activities (A**4/AMU), depolarization ratios for plane and unpolarized
 incident light, reduced masses (AMU), force constants (mDyne/A),
 and normal coordinates:
                      1                      2                      3
                     A'                     A"                     A'
 Frequencies --    157.0595               234.9835               375.5953
 Red. masses --      5.1660                 3.0194                 6.8413
 Frc consts  --      0.0751                 0.0982                 0.5686
 IR Inten    --      3.7342                 2.3617                22.7968
  Atom  AN      X      Y      Z        X      Y      Z        X      Y      Z
     1  16     0.06  -0.18  -0.00    -0.00   0.00  -0.03     0.00  -0.07   0.00
     2  16    -0.15   0.12   0.00     0.00   0.00  -0.04    -0.19  -0.02  -0.00
     3   6     0.22   0.30  -0.00    -0.00   0.00  -0.18     0.17  -0.17  -0.00
     4   6     0.04  -0.19   0.00    -0.00  -0.00   0.38     0.37   0.47   0.00
     5   1     0.35   0.68  -0.00    -0.00  -0.00  -0.69     0.03  -0.57  -0.00
     6   1    -0.41  -0.02  -0.00     0.00   0.00   0.59    -0.45  -0.16   0.00
                      4                      5                      6
                     A"                     A'                     A'
 Frequencies --    482.3147               550.9227               771.6628
 Red. masses --      1.2604                24.5775                 1.2806
 Frc consts  --      0.1728                 4.3951                 0.4493
 IR Inten    --     41.9049                17.8019                31.4845
  Atom  AN      X      Y      Z        X      Y      Z        X      Y      Z
     1  16    -0.00  -0.00   0.04     0.40   0.47   0.00    -0.02   0.01  -0.00
     2  16     0.00   0.00  -0.04    -0.45  -0.36  -0.00     0.00   0.00  -0.00
     3   6    -0.00   0.00   0.01     0.12   0.00  -0.00    -0.03  -0.14  -0.00
     4   6    -0.00  -0.00  -0.11    -0.03  -0.32  -0.00     0.03   0.03   0.00
     5   1     0.00   0.00   0.10     0.21   0.21   0.00     0.36   0.92  -0.00
     6   1     0.00   0.00   0.99     0.28   0.03   0.00     0.06   0.03   0.00
                      7                      8                      9
                     A'                     A"                     A'
 Frequencies --    812.3074               855.7792               882.2626
 Red. masses --      3.1851                 1.3418                 1.4278
 Frc consts  --      1.2382                 0.5790                 0.6548
 IR Inten    --      7.9640                10.9959                11.6956
  Atom  AN      X      Y      Z        X      Y      Z        X      Y      Z
     1  16     0.16  -0.06   0.00     0.00  -0.00   0.00     0.05  -0.06   0.00
     2  16     0.01  -0.02  -0.00    -0.00  -0.00  -0.00    -0.04   0.01   0.00
     3   6    -0.26   0.06   0.00    -0.00   0.00  -0.16    -0.08   0.02   0.00
     4   6    -0.13   0.17  -0.00    -0.00   0.00   0.07    -0.03   0.08  -0.00
     5   1    -0.20   0.27  -0.00    -0.00   0.00   0.98    -0.09   0.02  -0.00
     6   1    -0.75  -0.43   0.00    -0.00  -0.00   0.02     0.85   0.49  -0.00
                     10                     11                     12
                     A'                     A'                     A'
 Frequencies --   2022.0805              2513.8882              3248.3206
 Red. masses --      5.8287                 1.0399                 1.1680
 Frc consts  --     14.0416                 3.8719                 7.2610
 IR Inten    --    847.5958               118.4301               229.9590
  Atom  AN      X      Y      Z        X      Y      Z        X      Y      Z
     1  16    -0.03   0.02  -0.00    -0.00   0.00   0.00    -0.00   0.00   0.00
     2  16    -0.01  -0.00   0.00     0.02  -0.03   0.00    -0.00  -0.00  -0.00
     3   6    -0.36   0.12  -0.00    -0.00   0.00   0.00    -0.11   0.04  -0.00
     4   6     0.50  -0.20   0.00     0.00  -0.00  -0.00     0.03  -0.01  -0.00
     5   1    -0.71   0.24   0.00    -0.01   0.00   0.00     0.93  -0.34   0.00
     6   1     0.03  -0.04  -0.00    -0.48   0.88  -0.00     0.00  -0.00   0.00

 -------------------
 - Thermochemistry -
 -------------------
 Temperature   298.150 Kelvin.  Pressure   1.00000 Atm.
 Atom     1 has atomic number 16 and mass  31.97207
 Atom     2 has atomic number 16 and mass  31.97207
 Atom     3 has atomic number  6 and mass  12.00000
 Atom     4 has atomic number  6 and mass  12.00000
 Atom     5 has atomic number  1 and mass   1.00783
 Atom     6 has atomic number  1 and mass   1.00783
 Molecular mass:    89.95979 amu.
 Principal axes and moments of inertia in atomic units:
                           1         2         3
     Eigenvalues --   108.62383 702.15361 810.77744
           X            0.99982  -0.01880   0.00000
           Y            0.01880   0.99982   0.00000
           Z            0.00000  -0.00000   1.00000
 This molecule is an asymmetric top.
 Rotational symmetry number  1.
 Rotational temperatures (Kelvin)      0.79737     0.12335     0.10683
 Rotational constants (GHZ):          16.61460     2.57029     2.22594
 Zero-point vibrational energy      77202.1 (Joules/Mol)
                                   18.45174 (Kcal/Mol)
 Warning -- explicit consideration of   5 degrees of freedom as
           vibrations may cause significant error
 Vibrational temperatures:    225.97   338.09   540.40   693.94   792.65
          (Kelvin)           1110.25  1168.73  1231.27  1269.38  2909.32
                             3616.92  4673.60
 
 Zero-point correction=                           0.029405 (Hartree/Particle)
 Thermal correction to Energy=                    0.034421
 Thermal correction to Enthalpy=                  0.035365
 Thermal correction to Gibbs Free Energy=         0.000915
 Sum of electronic and zero-point Energies=           -872.907749
 Sum of electronic and thermal Energies=              -872.902733
 Sum of electronic and thermal Enthalpies=            -872.901788
 Sum of electronic and thermal Free Energies=         -872.936238
 
                     E (Thermal)             CV                S
                      KCal/Mol        Cal/Mol-Kelvin    Cal/Mol-Kelvin
 Total                   21.599             16.022             72.506
 Electronic               0.000              0.000              0.000
 Translational            0.889              2.981             39.403
 Rotational               0.889              2.981             25.628
 Vibrational             19.822             10.061              7.475
 Vibration     1          0.621              1.895              2.585
 Vibration     2          0.655              1.787              1.841
 Vibration     3          0.746              1.522              1.057
 Vibration     4          0.839              1.289              0.704
 Vibration     5          0.906              1.138              0.542
                       Q            Log10(Q)             Ln(Q)
 Total Bot       0.379425D+00         -0.420875         -0.969099
 Total V=0       0.127153D+14         13.104326         30.173825
 Vib (Bot)       0.127093D-12        -12.895878        -29.693857
 Vib (Bot)    1  0.128834D+01          0.110032          0.253358
 Vib (Bot)    2  0.836336D+00         -0.077619         -0.178725
 Vib (Bot)    3  0.482861D+00         -0.316178         -0.728026
 Vib (Bot)    4  0.346069D+00         -0.460837         -1.061116
 Vib (Bot)    5  0.284602D+00         -0.545763         -1.256665
 Vib (V=0)       0.425914D+01          0.629322          1.449067
 Vib (V=0)    1  0.188197D+01          0.274612          0.632317
 Vib (V=0)    2  0.147440D+01          0.168616          0.388252
 Vib (V=0)    3  0.119509D+01          0.077402          0.178224
 Vib (V=0)    4  0.110808D+01          0.044572          0.102631
 Vib (V=0)    5  0.107532D+01          0.031539          0.072622
 Electronic      0.100000D+01          0.000000          0.000000
 Translational   0.335373D+08          7.525528         17.328168
 Rotational      0.890176D+05          4.949476         11.396589
 
                                                              b3lyp opt
                                                             IR Spectrum
 
     3                            2                  2                                                                               
     2                            5                  0                                            88 87        5  4   3    2  1      
     4                            1                  2                                            85 17        5  8   7    3  5      
     8                            4                  2                                            26 22        1  2   6    5  7      
 
     X                            X                  X                                            XX XX        X  X   X    X  X      
     X                            X                  X                                                                               
     X                            X                  X                                                                               
     X                                               X                                                                               
     X                                               X                                                                               
                                                     X                                                                               
                                                     X                                                                               
                                                     X                                                                               
                                                     X                                                                               
                                                     X                                                                               
                                                     X                                                                               
                                                     X                                                                               
                                                     X                                                                               
                                                     X                                                                               
                                                     X                                                                               
                                                     X                                                                               
                                                     X                                                                               
                                                     X                                                                               
                                                     X                                                                               
                                                     X                                                                               
 
 ***** Axes restored to original set *****
 -------------------------------------------------------------------
 Center     Atomic                   Forces (Hartrees/Bohr)
 Number     Number              X              Y              Z
 -------------------------------------------------------------------
      1       16          -0.000122225    0.000036292   -0.000035987
      2       16           0.000105086    0.000009172    0.000032425
      3        6          -0.000009378    0.000027084   -0.000001868
      4        6           0.000044954   -0.000074085    0.000011004
      5        1          -0.000012980    0.000002635   -0.000003867
      6        1          -0.000005457   -0.000001098   -0.000001707
 -------------------------------------------------------------------
 Cartesian Forces:  Max     0.000122225 RMS     0.000046194
 Z-matrix is all fixed cartesians, so copy forces.
 Force constants in Cartesian coordinates: 
                1             2             3             4             5 
      1  0.266818D+00
      2 -0.999107D-01  0.334544D+00
      3  0.731715D-01 -0.187708D-01  0.368104D-01
      4 -0.141562D+00 -0.121358D-01 -0.398131D-01  0.184380D+00
      5 -0.444973D-01 -0.505995D-01 -0.149821D-01 -0.986495D-02  0.275362D+00
      6 -0.410022D-01 -0.510069D-02 -0.253418D-01  0.517429D-01  0.660171D-02
      7 -0.187905D-01  0.990123D-02 -0.582621D-02  0.102623D-01  0.374883D-02
      8  0.246930D-01 -0.146943D-01  0.694545D-02 -0.132090D-01 -0.277985D-02
      9 -0.528266D-02  0.242886D-02 -0.419499D-04  0.190332D-02  0.952896D-03
     10 -0.989049D-01  0.119740D+00 -0.209707D-01 -0.330211D-01  0.173254D-01
     11  0.121480D+00 -0.271620D+00  0.276932D-01  0.205784D-01  0.126358D-01
     12 -0.209067D-01  0.271619D-01 -0.212016D-01 -0.115764D-01  0.548377D-02
     13  0.521324D-04  0.519526D-02 -0.439482D-03  0.113234D-02 -0.447118D-03
     14  0.269160D-02  0.107209D-02  0.783481D-03  0.410141D-03 -0.946561D-03
     15 -0.531483D-03  0.154796D-02  0.201125D-02  0.697878D-03 -0.130745D-03
     16 -0.761269D-02 -0.227898D-01 -0.612207D-02 -0.211923D-01  0.337352D-01
     17 -0.445640D-02  0.129806D-02 -0.166927D-02  0.142212D-01 -0.233672D+00
     18 -0.544838D-02 -0.726726D-02  0.776373D-02 -0.295467D-02  0.207445D-02
                6             7             8             9            10 
      6  0.297774D-01
      7  0.252647D-02  0.642146D+00
      8 -0.422508D-02 -0.601125D+00  0.680460D+00
      9  0.305546D-02  0.150405D+00 -0.161383D+00  0.117223D+00
     10 -0.116959D-01 -0.445713D+00  0.425221D+00 -0.107416D+00  0.562207D+00
     11  0.647707D-02  0.420824D+00 -0.459434D+00  0.113185D+00 -0.559511D+00
     12  0.403479D-02 -0.107578D+00  0.114527D+00 -0.713917D-01  0.137935D+00
     13  0.666376D-03 -0.187871D+00  0.164578D+00 -0.398169D-01  0.119510D-01
     14  0.131014D-03  0.168212D+00 -0.205657D+00  0.451895D-01 -0.700036D-02
     15 -0.895561D-03 -0.396833D-01  0.440799D-01 -0.481623D-01 -0.123106D-02
     16 -0.223759D-02 -0.330348D-04 -0.158838D-03  0.207790D-03  0.348127D-02
     17 -0.388402D-02 -0.156222D-02  0.210555D-02 -0.372719D-03  0.422536D-02
     18 -0.106302D-01  0.156220D-03  0.557948D-04 -0.682909D-03  0.337895D-02
               11            12            13            14            15 
     11  0.706527D+00
     12 -0.146466D+00  0.798713D-01
     13 -0.453094D-02 -0.114032D-02  0.174934D+00
     14  0.147622D-01 -0.215141D-02 -0.164307D+00  0.190310D+00
     15 -0.139739D-02  0.147130D-01  0.410449D-01 -0.439389D-01  0.316567D-01
     16  0.115959D-02  0.326629D-02 -0.198049D-03 -0.698214D-05 -0.296880D-03
     17 -0.287128D-02  0.144471D-02 -0.488801D-03  0.459593D-03 -0.160784D-03
     18  0.508593D-03 -0.602583D-02 -0.314585D-03 -0.136630D-04  0.676831D-03
               16            17            18 
     16  0.255548D-01
     17 -0.119392D-01  0.232680D+00
     18  0.518246D-02  0.464208D-02  0.889842D-02
 Leave Link  716 at Wed Aug  3 22:55:44 2016, MaxMem=    33554432 cpu:         0.1
 (Enter /home/proyectos/fulerenos/M3C-v2.0/M3C-deps_CCC/g09-AM64L-G09RevC.01/l103.exe)

 GradGradGradGradGradGradGradGradGradGradGradGradGradGradGradGradGradGrad
 Berny optimization.
 Search for a local minimum.
 Step number   1 out of a maximum of    2
 All quantities printed in internal units (Hartrees-Bohrs-Radians)
 Second derivative matrix not updated -- analytic derivatives used.
 The second derivative matrix:
                          X1        Y1        Z1        X2        Y2
           X1           0.26682
           Y1          -0.09991   0.33454
           Z1           0.07317  -0.01877   0.03681
           X2          -0.14156  -0.01214  -0.03981   0.18438
           Y2          -0.04450  -0.05060  -0.01498  -0.00986   0.27536
           Z2          -0.04100  -0.00510  -0.02534   0.05174   0.00660
           X3          -0.01879   0.00990  -0.00583   0.01026   0.00375
           Y3           0.02469  -0.01469   0.00695  -0.01321  -0.00278
           Z3          -0.00528   0.00243  -0.00004   0.00190   0.00095
           X4          -0.09890   0.11974  -0.02097  -0.03302   0.01733
           Y4           0.12148  -0.27162   0.02769   0.02058   0.01264
           Z4          -0.02091   0.02716  -0.02120  -0.01158   0.00548
           X5           0.00005   0.00520  -0.00044   0.00113  -0.00045
           Y5           0.00269   0.00107   0.00078   0.00041  -0.00095
           Z5          -0.00053   0.00155   0.00201   0.00070  -0.00013
           X6          -0.00761  -0.02279  -0.00612  -0.02119   0.03374
           Y6          -0.00446   0.00130  -0.00167   0.01422  -0.23367
           Z6          -0.00545  -0.00727   0.00776  -0.00295   0.00207
                          Z2        X3        Y3        Z3        X4
           Z2           0.02978
           X3           0.00253   0.64215
           Y3          -0.00423  -0.60112   0.68046
           Z3           0.00306   0.15040  -0.16138   0.11722
           X4          -0.01170  -0.44571   0.42522  -0.10742   0.56221
           Y4           0.00648   0.42082  -0.45943   0.11318  -0.55951
           Z4           0.00403  -0.10758   0.11453  -0.07139   0.13794
           X5           0.00067  -0.18787   0.16458  -0.03982   0.01195
           Y5           0.00013   0.16821  -0.20566   0.04519  -0.00700
           Z5          -0.00090  -0.03968   0.04408  -0.04816  -0.00123
           X6          -0.00224  -0.00003  -0.00016   0.00021   0.00348
           Y6          -0.00388  -0.00156   0.00211  -0.00037   0.00423
           Z6          -0.01063   0.00016   0.00006  -0.00068   0.00338
                          Y4        Z4        X5        Y5        Z5
           Y4           0.70653
           Z4          -0.14647   0.07987
           X5          -0.00453  -0.00114   0.17493
           Y5           0.01476  -0.00215  -0.16431   0.19031
           Z5          -0.00140   0.01471   0.04104  -0.04394   0.03166
           X6           0.00116   0.00327  -0.00020  -0.00001  -0.00030
           Y6          -0.00287   0.00144  -0.00049   0.00046  -0.00016
           Z6           0.00051  -0.00603  -0.00031  -0.00001   0.00068
                          X6        Y6        Z6
           X6           0.02555
           Y6          -0.01194   0.23268
           Z6           0.00518   0.00464   0.00890
 ITU=  0
     Eigenvalues ---    0.00526   0.00802   0.02555   0.03165   0.07973
     Eigenvalues ---    0.10130   0.11689   0.26577   0.38410   0.42273
     Eigenvalues ---    0.73918   2.23132
 Angle between quadratic step and forces=  56.85 degrees.
 ClnCor:  largest displacement from symmetrization is 9.92D-13 for atom     5.
 Linear search not attempted -- first point.
 ClnCor:  largest displacement from symmetrization is 5.12D-15 for atom     5.
 B after Tr=     0.000022    0.000020    0.000007
         Rot=    1.000000    0.000002    0.000000   -0.000006 Ang=   0.00 deg.
 Variable       Old X    -DE/DX   Delta X   Delta X   Delta X     New X
                                 (Linear)    (Quad)   (Total)
    X1        0.90660  -0.00012   0.00000  -0.00024  -0.00024   0.90636
    Y1        1.53967   0.00004   0.00000   0.00011   0.00014   1.53982
    Z1       -0.29543  -0.00004   0.00000  -0.00007  -0.00007  -0.29550
    X2       -2.63950   0.00011   0.00000   0.00038   0.00039  -2.63911
    Y2        0.85092   0.00001   0.00000  -0.00011  -0.00013   0.85079
    Z2       -1.40352   0.00003   0.00000   0.00011   0.00011  -1.40340
    X3        4.10210  -0.00001   0.00000  -0.00008  -0.00002   4.10207
    Y3       -2.65797   0.00003   0.00000   0.00009   0.00016  -2.65780
    Z3        0.52605  -0.00000   0.00000  -0.00002  -0.00000   0.52605
    X4        2.49033   0.00004   0.00000  -0.00004  -0.00001   2.49032
    Y4       -1.03857  -0.00007   0.00000   0.00005   0.00010  -1.03847
    Z4        0.09341   0.00001   0.00000  -0.00001   0.00000   0.09342
    X5        5.49498  -0.00001   0.00000  -0.00043  -0.00035   5.49462
    Y5       -4.11682   0.00000   0.00000  -0.00022  -0.00013  -4.11695
    Z5        0.89775  -0.00000   0.00000  -0.00014  -0.00011   0.89764
    X6       -2.55386  -0.00001   0.00000   0.00019   0.00023  -2.55363
    Y6       -1.73361  -0.00000   0.00000  -0.00013  -0.00015  -1.73376
    Z6       -1.47234  -0.00000   0.00000   0.00005   0.00007  -1.47227
         Item               Value     Threshold  Converged?
 Maximum Force            0.000122     0.000450     YES
 RMS     Force            0.000046     0.000300     YES
 Maximum Displacement     0.000387     0.001800     YES
 RMS     Displacement     0.000172     0.001200     YES
 Predicted change in Energy=-4.038226D-08
 Optimization completed.
    -- Stationary point found.
 GradGradGradGradGradGradGradGradGradGradGradGradGradGradGradGradGradGrad

 Leave Link  103 at Wed Aug  3 22:55:44 2016, MaxMem=    33554432 cpu:         0.1
 (Enter /home/proyectos/fulerenos/M3C-v2.0/M3C-deps_CCC/g09-AM64L-G09RevC.01/l9999.exe)
 1\1\GINC-DEPAZ28\Freq\RB3LYP\6-311++G(3df,2p)\C2H2S2(2+)\NAGUIRRE\03-A
 ug-2016\0\\#p b3lyp/6-311++G(3df,2p) freq\\b3lyp opt\\2,1\S,0.47975,0.
 814759,-0.1563340001\S,-1.396762,0.450287,-0.742709\C,2.17073588,-1.40
 6534691,0.2783733681\C,1.317825017,-0.549585451,0.0494321181\H,2.90781
 57651,-2.178528444,0.4750681456\H,-1.3514445289,-0.91738486,-0.7791289
 895\\Version=EM64L-G09RevE.01\State=1-A'\HF=-872.9371533\RMSD=6.513e-0
 9\RMSF=4.619e-05\ZeroPoint=0.0294047\Thermal=0.0344208\Dipole=0.606937
 6,-1.2835667,0.138158\DipoleDeriv=1.2982388,-0.1603488,0.2104279,-0.34
 1684,1.1945072,-0.0821099,0.2037644,-0.0267402,0.6510273,0.353874,0.00
 97453,-0.0630494,-0.406337,0.413467,-0.1295135,-0.078339,-0.0024653,0.
 5375221,0.8635094,-0.352984,0.1302461,-0.5308245,0.6290129,-0.1534656,
 0.1237111,-0.0991631,0.4286048,-1.1290044,0.6359573,-0.338907,1.311743
 2,-0.9677626,0.3628599,-0.3140741,0.1565127,-0.032701,0.5025889,-0.213
 5933,0.0906601,-0.2709462,0.4635492,-0.0723113,0.0885526,-0.054799,0.2
 04998,0.1107932,0.0812234,-0.0293777,0.2380485,0.2672263,0.0745405,-0.
 0236149,0.0266548,0.2105488\Polar=87.8439034,-23.4266085,53.5587765,16
 .7415384,-6.2946789,35.0768119\PG=CS [SG(C2H2S2)]\NImag=0\\0.26681763,
 -0.09991072,0.33454365,0.07317150,-0.01877077,0.03681037,-0.14156165,-
 0.01213585,-0.03981307,0.18438039,-0.04449731,-0.05059952,-0.01498208,
 -0.00986495,0.27536197,-0.04100225,-0.00510069,-0.02534182,0.05174294,
 0.00660171,0.02977737,-0.01879055,0.00990123,-0.00582621,0.01026229,0.
 00374883,0.00252647,0.64214593,0.02469303,-0.01469425,0.00694545,-0.01
 320902,-0.00277985,-0.00422508,-0.60112467,0.68045961,-0.00528266,0.00
 242886,-0.00004195,0.00190332,0.00095290,0.00305546,0.15040490,-0.1613
 8312,0.11722334,-0.09890488,0.11973986,-0.02097067,-0.03302111,0.01732
 536,-0.01169595,-0.44571343,0.42522110,-0.10741647,0.56220713,0.121479
 80,-0.27162003,0.02769319,0.02057843,0.01263581,0.00647707,0.42082445,
 -0.45943366,0.11318458,-0.55951133,0.70652693,-0.02090673,0.02716190,-
 0.02120158,-0.01157641,0.00548377,0.00403479,-0.10757804,0.11452708,-0
 .07139167,0.13793521,-0.14646605,0.07987126,0.00005213,0.00519526,-0.0
 0043948,0.00113234,-0.00044712,0.00066638,-0.18787121,0.16457839,-0.03
 981687,0.01195102,-0.00453094,-0.00114032,0.17493376,0.00269160,0.0010
 7209,0.00078348,0.00041014,-0.00094656,0.00013101,0.16821239,-0.205657
 40,0.04518949,-0.00700036,0.01476223,-0.00215141,-0.16430679,0.1903100
 5,-0.00053148,0.00154796,0.00201125,0.00069788,-0.00013075,-0.00089556
 ,-0.03968334,0.04407988,-0.04816227,-0.00123106,-0.00139739,0.01471303
 ,0.04104488,-0.04393892,0.03165671,-0.00761269,-0.02278977,-0.00612207
 ,-0.02119225,0.03373519,-0.00223759,-0.00003303,-0.00015884,0.00020779
 ,0.00348127,0.00115959,0.00326629,-0.00019805,-0.00000698,-0.00029688,
 0.02555476,-0.00445640,0.00129806,-0.00166927,0.01422125,-0.23367185,-
 0.00388402,-0.00156222,0.00210555,-0.00037272,0.00422536,-0.00287128,0
 .00144471,-0.00048880,0.00045959,-0.00016078,-0.01193919,0.23267992,-0
 .00544838,-0.00726726,0.00776373,-0.00295467,0.00207445,-0.01063024,0.
 00015622,0.00005579,-0.00068291,0.00337895,0.00050859,-0.00602583,-0.0
 0031459,-0.00001366,0.00067683,0.00518246,0.00464208,0.00889842\\0.000
 12222,-0.00003629,0.00003599,-0.00010509,-0.00000917,-0.00003242,0.000
 00938,-0.00002708,0.00000187,-0.00004495,0.00007409,-0.00001100,0.0000
 1298,-0.00000263,0.00000387,0.00000546,0.00000110,0.00000171\\\@


 My opinions may have changed, but not the fact that I am right.
                       -- Ashleigh Brilliant
 Job cpu time:       0 days  0 hours 13 minutes 40.5 seconds.
 File lengths (MBytes):  RWF=     30 Int=      0 D2E=      0 Chk=      3 Scr=      1
 Normal termination of Gaussian 09 at Wed Aug  3 22:55:44 2016.
