 Entering Gaussian System, Link 0=/home/proyectos/fulerenos/M3C-v2.0/M3C-deps_CCC/g09-AM64L-G09RevC.01/g09
 Initial command:
 /home/proyectos/fulerenos/M3C-v2.0/M3C-deps_CCC/g09-AM64L-G09RevC.01/l1.exe "/scratch/naguirre/gaussian/Gau-26565.inp" -scrdir="/scratch/naguirre/gaussian/"
 Entering Link 1 = /home/proyectos/fulerenos/M3C-v2.0/M3C-deps_CCC/g09-AM64L-G09RevC.01/l1.exe PID=     26573.
  
 Copyright (c) 1988,1990,1992,1993,1995,1998,2003,2009,2015,
            Gaussian, Inc.  All Rights Reserved.
  
 This is part of the Gaussian(R) 09 program.  It is based on
 the Gaussian(R) 03 system (copyright 2003, Gaussian, Inc.),
 the Gaussian(R) 98 system (copyright 1998, Gaussian, Inc.),
 the Gaussian(R) 94 system (copyright 1995, Gaussian, Inc.),
 the Gaussian 92(TM) system (copyright 1992, Gaussian, Inc.),
 the Gaussian 90(TM) system (copyright 1990, Gaussian, Inc.),
 the Gaussian 88(TM) system (copyright 1988, Gaussian, Inc.),
 the Gaussian 86(TM) system (copyright 1986, Carnegie Mellon
 University), and the Gaussian 82(TM) system (copyright 1983,
 Carnegie Mellon University). Gaussian is a federally registered
 trademark of Gaussian, Inc.
  
 This software contains proprietary and confidential information,
 including trade secrets, belonging to Gaussian, Inc.
  
 This software is provided under written license and may be
 used, copied, transmitted, or stored only in accord with that
 written license.
  
 The following legend is applicable only to US Government
 contracts under FAR:
  
                    RESTRICTED RIGHTS LEGEND
  
 Use, reproduction and disclosure by the US Government is
 subject to restrictions as set forth in subparagraphs (a)
 and (c) of the Commercial Computer Software - Restricted
 Rights clause in FAR 52.227-19.
  
 Gaussian, Inc.
 340 Quinnipiac St., Bldg. 40, Wallingford CT 06492
  
  
 ---------------------------------------------------------------
 Warning -- This program may not be used in any manner that
 competes with the business of Gaussian, Inc. or will provide
 assistance to any competitor of Gaussian, Inc.  The licensee
 of this program is prohibited from giving any competitor of
 Gaussian, Inc. access to this program.  By using this program,
 the user acknowledges that Gaussian, Inc. is engaged in the
 business of creating and licensing software in the field of
 computational chemistry and represents and warrants to the
 licensee that it is not a competitor of Gaussian, Inc. and that
 it will not use this program in any manner prohibited above.
 ---------------------------------------------------------------
  

 Cite this work as:
 Gaussian 09, Revision E.01,
 M. J. Frisch, G. W. Trucks, H. B. Schlegel, G. E. Scuseria, 
 M. A. Robb, J. R. Cheeseman, G. Scalmani, V. Barone, B. Mennucci, 
 G. A. Petersson, H. Nakatsuji, M. Caricato, X. Li, H. P. Hratchian, 
 A. F. Izmaylov, J. Bloino, G. Zheng, J. L. Sonnenberg, M. Hada, 
 M. Ehara, K. Toyota, R. Fukuda, J. Hasegawa, M. Ishida, T. Nakajima, 
 Y. Honda, O. Kitao, H. Nakai, T. Vreven, J. A. Montgomery, Jr., 
 J. E. Peralta, F. Ogliaro, M. Bearpark, J. J. Heyd, E. Brothers, 
 K. N. Kudin, V. N. Staroverov, T. Keith, R. Kobayashi, J. Normand, 
 K. Raghavachari, A. Rendell, J. C. Burant, S. S. Iyengar, J. Tomasi, 
 M. Cossi, N. Rega, J. M. Millam, M. Klene, J. E. Knox, J. B. Cross, 
 V. Bakken, C. Adamo, J. Jaramillo, R. Gomperts, R. E. Stratmann, 
 O. Yazyev, A. J. Austin, R. Cammi, C. Pomelli, J. W. Ochterski, 
 R. L. Martin, K. Morokuma, V. G. Zakrzewski, G. A. Voth, 
 P. Salvador, J. J. Dannenberg, S. Dapprich, A. D. Daniels, 
 O. Farkas, J. B. Foresman, J. V. Ortiz, J. Cioslowski, 
 and D. J. Fox, Gaussian, Inc., Wallingford CT, 2013.
 
 ******************************************
 Gaussian 09:  EM64L-G09RevE.01 30-Nov-2015
                 3-Aug-2016 
 ******************************************
 %NProcShared=4
 Will use up to    4 processors via shared memory.
 ------------------------------
 #p b3lyp/6-311++G(3df,2p) freq
 ------------------------------
 1/10=4,30=1,38=1/1,3;
 2/12=2,17=6,18=5,40=1/2;
 3/5=4,6=6,7=1216,11=2,16=1,25=1,30=1,71=2,74=-5,140=1/1,2,3;
 4//1;
 5/5=2,38=5,98=1/2;
 8/6=4,10=90,11=11/1;
 11/6=1,8=1,9=11,15=111,16=1/1,2,10;
 10/6=1/2;
 6/7=2,8=2,9=2,10=2,18=1,28=1/1;
 7/8=1,10=1,25=1/1,2,3,16;
 1/10=4,30=1/3;
 99//99;
 Leave Link    1 at Wed Aug  3 20:54:37 2016, MaxMem=           0 cpu:         0.3
 (Enter /home/proyectos/fulerenos/M3C-v2.0/M3C-deps_CCC/g09-AM64L-G09RevC.01/l101.exe)
 ---------
 b3lyp opt
 ---------
 Symbolic Z-matrix:
 Charge =  0 Multiplicity = 1
 S                     0.54724   0.20216   0.74425 
 S                     0.66747  -1.1577   -2.22072 
 C                     1.26179  -0.76096  -0.65224 
 C                     2.28626  -0.64922   0.1423 
 H                    -0.17421  -2.13826  -1.84244 
 H                     0.01084  -0.80862   1.46273 
 
 NAtoms=      6 NQM=        6 NQMF=       0 NMMI=      0 NMMIF=      0
                NMic=       0 NMicF=      0.
                    Isotopes and Nuclear Properties:
 (Nuclear quadrupole moments (NQMom) in fm**2, nuclear magnetic moments (NMagM)
  in nuclear magnetons)

  Atom         1           2           3           4           5           6
 IAtWgt=          32          32          12          12           1           1
 AtmWgt=  31.9720718  31.9720718  12.0000000  12.0000000   1.0078250   1.0078250
 NucSpn=           0           0           0           0           1           1
 AtZEff=   0.0000000   0.0000000   0.0000000   0.0000000   0.0000000   0.0000000
 NQMom=    0.0000000   0.0000000   0.0000000   0.0000000   0.0000000   0.0000000
 NMagM=    0.0000000   0.0000000   0.0000000   0.0000000   2.7928460   2.7928460
 AtZNuc=  16.0000000  16.0000000   6.0000000   6.0000000   1.0000000   1.0000000
 Leave Link  101 at Wed Aug  3 20:54:37 2016, MaxMem=    33554432 cpu:         0.2
 (Enter /home/proyectos/fulerenos/M3C-v2.0/M3C-deps_CCC/g09-AM64L-G09RevC.01/l103.exe)

 GradGradGradGradGradGradGradGradGradGradGradGradGradGradGradGradGradGrad
 Berny optimization.
 Initialization pass.
 Trust Radius=3.00D-01 FncErr=1.00D-07 GrdErr=1.00D-07
 Number of steps in this run=      2 maximum allowed number of steps=      2.
 GradGradGradGradGradGradGradGradGradGradGradGradGradGradGradGradGradGrad

 Leave Link  103 at Wed Aug  3 20:54:37 2016, MaxMem=    33554432 cpu:         0.1
 (Enter /home/proyectos/fulerenos/M3C-v2.0/M3C-deps_CCC/g09-AM64L-G09RevC.01/l202.exe)
                          Input orientation:                          
 ---------------------------------------------------------------------
 Center     Atomic      Atomic             Coordinates (Angstroms)
 Number     Number       Type             X           Y           Z
 ---------------------------------------------------------------------
      1         16           0        0.547242    0.202160    0.744250
      2         16           0        0.667467   -1.157697   -2.220721
      3          6           0        1.261788   -0.760956   -0.652243
      4          6           0        2.286264   -0.649221    0.142297
      5          1           0       -0.174213   -2.138263   -1.842435
      6          1           0        0.010842   -0.808624    1.462734
 ---------------------------------------------------------------------
                    Distance matrix (angstroms):
                    1          2          3          4          5
     1  S    0.000000
     2  S    3.264157   0.000000
     3  C    1.840750   1.723585   0.000000
     4  C    2.027657   2.909107   1.301280   0.000000
     5  H    3.562165   1.346490   2.318541   3.494332   0.000000
     6  H    1.351158   3.757772   2.457695   2.635623   3.567398
                    6
     6  H    0.000000
 Stoichiometry    C2H2S2
 Framework group  C1[X(C2H2S2)]
 Deg. of freedom    12
 Full point group                 C1      NOp   1
 Largest Abelian subgroup         C1      NOp   1
 Largest concise Abelian subgroup C1      NOp   1
                         Standard orientation:                         
 ---------------------------------------------------------------------
 Center     Atomic      Atomic             Coordinates (Angstroms)
 Number     Number       Type             X           Y           Z
 ---------------------------------------------------------------------
      1         16           0       -1.518459   -0.426950   -0.109450
      2         16           0        1.734967   -0.163727   -0.083889
      3          6           0        0.114508    0.405303    0.061239
      4          6           0       -0.700574    1.419638    0.071032
      5          1           0        1.809223   -0.777402    1.112323
      6          1           0       -1.756943   -0.721419    1.187485
 ---------------------------------------------------------------------
 Rotational constants (GHZ):     13.5587727      2.7223603      2.3347107
 Leave Link  202 at Wed Aug  3 20:54:37 2016, MaxMem=    33554432 cpu:         0.0
 (Enter /home/proyectos/fulerenos/M3C-v2.0/M3C-deps_CCC/g09-AM64L-G09RevC.01/l301.exe)
 Standard basis: 6-311++G(3df,2p) (5D, 7F)
 Ernie: Thresh=  0.10000D-02 Tol=  0.10000D-05 Strict=F.
 There are   216 symmetry adapted cartesian basis functions of A   symmetry.
 There are   192 symmetry adapted basis functions of A   symmetry.
   192 basis functions,   284 primitive gaussians,   216 cartesian basis functions
    23 alpha electrons       23 beta electrons
       nuclear repulsion energy       177.8380744659 Hartrees.
 IExCor=  402 DFT=T Ex+Corr=B3LYP ExCW=0 ScaHFX=  0.200000
 ScaDFX=  0.800000  0.720000  1.000000  0.810000 ScalE2=  1.000000  1.000000
 IRadAn=      0 IRanWt=     -1 IRanGd=            0 ICorTp=0 IEmpDi=  4
 NAtoms=    6 NActive=    6 NUniq=    6 SFac= 1.00D+00 NAtFMM=   60 NAOKFM=F Big=F
 Integral buffers will be    131072 words long.
 Raffenetti 2 integral format.
 Two-electron integral symmetry is turned on.
 Leave Link  301 at Wed Aug  3 20:54:37 2016, MaxMem=    33554432 cpu:         0.2
 (Enter /home/proyectos/fulerenos/M3C-v2.0/M3C-deps_CCC/g09-AM64L-G09RevC.01/l302.exe)
 NPDir=0 NMtPBC=     1 NCelOv=     1 NCel=       1 NClECP=     1 NCelD=      1
         NCelK=      1 NCelE2=     1 NClLst=     1 CellRange=     0.0.
 One-electron integrals computed using PRISM.
 NBasis=   192 RedAO= T EigKep=  2.13D-05  NBF=   192
 NBsUse=   192 1.00D-06 EigRej= -1.00D+00 NBFU=   192
 Precomputing XC quadrature grid using
 IXCGrd= 4 IRadAn=           0 IRanWt=          -1 IRanGd=           0 AccXCQ= 0.00D+00.
 Generated NRdTot=       0 NPtTot=           0 NUsed=           0 NTot=          32
 NSgBfM=   216   216   216   216   216 MxSgAt=     6 MxSgA2=     6.
 Leave Link  302 at Wed Aug  3 20:54:37 2016, MaxMem=    33554432 cpu:         1.1
 (Enter /home/proyectos/fulerenos/M3C-v2.0/M3C-deps_CCC/g09-AM64L-G09RevC.01/l303.exe)
 DipDrv:  MaxL=1.
 Leave Link  303 at Wed Aug  3 20:54:37 2016, MaxMem=    33554432 cpu:         0.2
 (Enter /home/proyectos/fulerenos/M3C-v2.0/M3C-deps_CCC/g09-AM64L-G09RevC.01/l401.exe)
 ExpMin= 3.60D-02 ExpMax= 9.34D+04 ExpMxC= 3.17D+03 IAcc=3 IRadAn=         5 AccDes= 0.00D+00
 Harris functional with IExCor=  402 and IRadAn=       5 diagonalized for initial guess.
 HarFok:  IExCor=  402 AccDes= 0.00D+00 IRadAn=         5 IDoV= 1 UseB2=F ITyADJ=14
 ICtDFT=  3500011 ScaDFX=  1.000000  1.000000  1.000000  1.000000
 FoFCou: FMM=F IPFlag=           0 FMFlag=      100000 FMFlg1=           0
         NFxFlg=           0 DoJE=T BraDBF=F KetDBF=T FulRan=T
         wScrn=  0.000000 ICntrl=     500 IOpCl=  0 I1Cent=   200000004 NGrid=           0
         NMat0=    1 NMatS0=      1 NMatT0=    0 NMatD0=    1 NMtDS0=    0 NMtDT0=    0
 Petite list used in FoFCou.
 Harris En= -873.665641301761    
 JPrj=0 DoOrth=F DoCkMO=F.
 Leave Link  401 at Wed Aug  3 20:54:39 2016, MaxMem=    33554432 cpu:         6.0
 (Enter /home/proyectos/fulerenos/M3C-v2.0/M3C-deps_CCC/g09-AM64L-G09RevC.01/l502.exe)
 Closed shell SCF:
 Using DIIS extrapolation, IDIIS=  1040.
 Integral symmetry usage will be decided dynamically.
 IVT=      161376 IEndB=      161376 NGot=    33554432 MDV=    33456569
 LenX=    33456569 LenY=    33409472
 Requested convergence on RMS density matrix=1.00D-08 within 128 cycles.
 Requested convergence on MAX density matrix=1.00D-06.
 Requested convergence on             energy=1.00D-06.
 No special actions if energy rises.
 Fock matrices will be formed incrementally for  20 cycles.

 Cycle   1  Pass 1  IDiag  1:
 FoFJK:  IHMeth= 1 ICntrl=       0 DoSepK=F KAlg= 0 I1Cent=   0 FoldK=F
 IRaf= 960000000 NMat=   1 IRICut=       1 DoRegI=T DoRafI=F ISym2E= 0.
 FoFCou: FMM=F IPFlag=           0 FMFlag=      100000 FMFlg1=           0
         NFxFlg=           0 DoJE=F BraDBF=F KetDBF=F FulRan=T
         wScrn=  0.000000 ICntrl=       0 IOpCl=  0 I1Cent=           0 NGrid=           0
         NMat0=    1 NMatS0=      1 NMatT0=    0 NMatD0=    1 NMtDS0=    0 NMtDT0=    0
 Symmetry not used in FoFCou.
 E= -873.617411099515    
 DIIS: error= 1.93D-02 at cycle   1 NSaved=   1.
 NSaved= 1 IEnMin= 1 EnMin= -873.617411099515     IErMin= 1 ErrMin= 1.93D-02
 ErrMax= 1.93D-02  0.00D+00 EMaxC= 1.00D-01 BMatC= 1.52D-01 BMatP= 1.52D-01
 IDIUse=3 WtCom= 8.07D-01 WtEn= 1.93D-01
 Coeff-Com:  0.100D+01
 Coeff-En:   0.100D+01
 Coeff:      0.100D+01
 Gap=     0.298 Goal=   None    Shift=    0.000
 GapD=    0.298 DampG=1.000 DampE=0.500 DampFc=0.5000 IDamp=-1.
 Damping current iteration by 5.00D-01
 RMSDP=2.34D-02 MaxDP=1.66D+00              OVMax= 3.79D-01

 Cycle   2  Pass 1  IDiag  1:
 RMSU=  1.17D-02    CP:  1.02D+00
 E= -873.611690205136     Delta-E=        0.005720894379 Rises=F Damp=T
 DIIS: error= 1.15D-02 at cycle   2 NSaved=   2.
 NSaved= 2 IEnMin= 1 EnMin= -873.617411099515     IErMin= 2 ErrMin= 1.15D-02
 ErrMax= 1.15D-02  0.00D+00 EMaxC= 1.00D-01 BMatC= 3.60D-02 BMatP= 1.52D-01
 IDIUse=3 WtCom= 8.85D-01 WtEn= 1.15D-01
 Coeff-Com:  0.268D+00 0.732D+00
 Coeff-En:   0.515D+00 0.485D+00
 Coeff:      0.296D+00 0.704D+00
 Gap=     0.250 Goal=   None    Shift=    0.000
 RMSDP=9.74D-03 MaxDP=7.47D-01 DE= 5.72D-03 OVMax= 2.68D-01

 Cycle   3  Pass 1  IDiag  1:
 RMSU=  2.86D-03    CP:  9.39D-01  2.22D-01
 E= -873.742226502469     Delta-E=       -0.130536297333 Rises=F Damp=F
 DIIS: error= 5.18D-03 at cycle   3 NSaved=   3.
 NSaved= 3 IEnMin= 3 EnMin= -873.742226502469     IErMin= 3 ErrMin= 5.18D-03
 ErrMax= 5.18D-03  0.00D+00 EMaxC= 1.00D-01 BMatC= 6.05D-03 BMatP= 3.60D-02
 IDIUse=3 WtCom= 9.48D-01 WtEn= 5.18D-02
 Coeff-Com: -0.167D-01 0.260D+00 0.757D+00
 Coeff-En:   0.000D+00 0.000D+00 0.100D+01
 Coeff:     -0.158D-01 0.246D+00 0.770D+00
 Gap=     0.210 Goal=   None    Shift=    0.000
 RMSDP=1.17D-03 MaxDP=6.73D-02 DE=-1.31D-01 OVMax= 4.13D-02

 Cycle   4  Pass 1  IDiag  1:
 RMSU=  6.80D-04    CP:  9.46D-01  3.00D-01  1.06D+00
 E= -873.747541526934     Delta-E=       -0.005315024465 Rises=F Damp=F
 DIIS: error= 2.34D-03 at cycle   4 NSaved=   4.
 NSaved= 4 IEnMin= 4 EnMin= -873.747541526934     IErMin= 4 ErrMin= 2.34D-03
 ErrMax= 2.34D-03  0.00D+00 EMaxC= 1.00D-01 BMatC= 2.09D-03 BMatP= 6.05D-03
 IDIUse=3 WtCom= 9.77D-01 WtEn= 2.34D-02
 Coeff-Com: -0.252D-01 0.882D-01 0.452D+00 0.485D+00
 Coeff-En:   0.000D+00 0.000D+00 0.213D+00 0.787D+00
 Coeff:     -0.246D-01 0.862D-01 0.446D+00 0.493D+00
 Gap=     0.210 Goal=   None    Shift=    0.000
 RMSDP=5.11D-04 MaxDP=2.74D-02 DE=-5.32D-03 OVMax= 1.58D-02

 Cycle   5  Pass 1  IDiag  1:
 RMSU=  2.46D-04    CP:  9.37D-01  2.73D-01  1.07D+00  6.58D-01
 E= -873.749281270394     Delta-E=       -0.001739743460 Rises=F Damp=F
 DIIS: error= 1.21D-03 at cycle   5 NSaved=   5.
 NSaved= 5 IEnMin= 5 EnMin= -873.749281270394     IErMin= 5 ErrMin= 1.21D-03
 ErrMax= 1.21D-03  0.00D+00 EMaxC= 1.00D-01 BMatC= 2.99D-04 BMatP= 2.09D-03
 IDIUse=3 WtCom= 9.88D-01 WtEn= 1.21D-02
 Coeff-Com: -0.104D-01 0.909D-02 0.154D+00 0.310D+00 0.538D+00
 Coeff-En:   0.000D+00 0.000D+00 0.000D+00 0.118D+00 0.882D+00
 Coeff:     -0.102D-01 0.898D-02 0.152D+00 0.307D+00 0.542D+00
 Gap=     0.211 Goal=   None    Shift=    0.000
 RMSDP=1.26D-04 MaxDP=6.37D-03 DE=-1.74D-03 OVMax= 5.42D-03

 Cycle   6  Pass 1  IDiag  1:
 RMSU=  8.19D-05    CP:  9.39D-01  2.75D-01  1.08D+00  7.11D-01  7.12D-01
 E= -873.749563721031     Delta-E=       -0.000282450637 Rises=F Damp=F
 DIIS: error= 1.83D-04 at cycle   6 NSaved=   6.
 NSaved= 6 IEnMin= 6 EnMin= -873.749563721031     IErMin= 6 ErrMin= 1.83D-04
 ErrMax= 1.83D-04  0.00D+00 EMaxC= 1.00D-01 BMatC= 1.23D-05 BMatP= 2.99D-04
 IDIUse=3 WtCom= 9.98D-01 WtEn= 1.83D-03
 Coeff-Com: -0.139D-02-0.354D-02 0.339D-01 0.959D-01 0.242D+00 0.633D+00
 Coeff-En:   0.000D+00 0.000D+00 0.000D+00 0.000D+00 0.000D+00 0.100D+01
 Coeff:     -0.138D-02-0.353D-02 0.338D-01 0.957D-01 0.242D+00 0.633D+00
 Gap=     0.211 Goal=   None    Shift=    0.000
 RMSDP=4.27D-05 MaxDP=1.76D-03 DE=-2.82D-04 OVMax= 1.38D-03

 Cycle   7  Pass 1  IDiag  1:
 RMSU=  2.85D-05    CP:  9.39D-01  2.73D-01  1.08D+00  7.14D-01  7.39D-01
                    CP:  8.81D-01
 E= -873.749576106177     Delta-E=       -0.000012385146 Rises=F Damp=F
 DIIS: error= 5.63D-05 at cycle   7 NSaved=   7.
 NSaved= 7 IEnMin= 7 EnMin= -873.749576106177     IErMin= 7 ErrMin= 5.63D-05
 ErrMax= 5.63D-05  0.00D+00 EMaxC= 1.00D-01 BMatC= 1.32D-06 BMatP= 1.23D-05
 IDIUse=1 WtCom= 1.00D+00 WtEn= 0.00D+00
 Coeff-Com:  0.433D-03-0.260D-02 0.277D-02 0.148D-01 0.589D-01 0.293D+00
 Coeff-Com:  0.633D+00
 Coeff:      0.433D-03-0.260D-02 0.277D-02 0.148D-01 0.589D-01 0.293D+00
 Coeff:      0.633D+00
 Gap=     0.211 Goal=   None    Shift=    0.000
 RMSDP=1.24D-05 MaxDP=3.92D-04 DE=-1.24D-05 OVMax= 5.24D-04

 Cycle   8  Pass 1  IDiag  1:
 RMSU=  5.98D-06    CP:  9.38D-01  2.72D-01  1.08D+00  7.12D-01  7.55D-01
                    CP:  9.57D-01  8.28D-01
 E= -873.749577468517     Delta-E=       -0.000001362339 Rises=F Damp=F
 DIIS: error= 1.00D-05 at cycle   8 NSaved=   8.
 NSaved= 8 IEnMin= 8 EnMin= -873.749577468517     IErMin= 8 ErrMin= 1.00D-05
 ErrMax= 1.00D-05  0.00D+00 EMaxC= 1.00D-01 BMatC= 4.45D-08 BMatP= 1.32D-06
 IDIUse=1 WtCom= 1.00D+00 WtEn= 0.00D+00
 Coeff-Com:  0.220D-03-0.469D-03-0.160D-02-0.356D-02-0.542D-03 0.355D-01
 Coeff-Com:  0.177D+00 0.794D+00
 Coeff:      0.220D-03-0.469D-03-0.160D-02-0.356D-02-0.542D-03 0.355D-01
 Coeff:      0.177D+00 0.794D+00
 Gap=     0.211 Goal=   None    Shift=    0.000
 RMSDP=3.63D-06 MaxDP=1.62D-04 DE=-1.36D-06 OVMax= 1.23D-04

 Cycle   9  Pass 1  IDiag  1:
 RMSU=  2.13D-06    CP:  9.39D-01  2.72D-01  1.08D+00  7.12D-01  7.55D-01
                    CP:  9.63D-01  8.66D-01  8.50D-01
 E= -873.749577510229     Delta-E=       -0.000000041712 Rises=F Damp=F
 DIIS: error= 5.19D-06 at cycle   9 NSaved=   9.
 NSaved= 9 IEnMin= 9 EnMin= -873.749577510229     IErMin= 9 ErrMin= 5.19D-06
 ErrMax= 5.19D-06  0.00D+00 EMaxC= 1.00D-01 BMatC= 1.21D-08 BMatP= 4.45D-08
 IDIUse=1 WtCom= 1.00D+00 WtEn= 0.00D+00
 Coeff-Com:  0.120D-03-0.152D-03-0.127D-02-0.294D-02-0.338D-02 0.285D-02
 Coeff-Com:  0.513D-01 0.415D+00 0.538D+00
 Coeff:      0.120D-03-0.152D-03-0.127D-02-0.294D-02-0.338D-02 0.285D-02
 Coeff:      0.513D-01 0.415D+00 0.538D+00
 Gap=     0.211 Goal=   None    Shift=    0.000
 RMSDP=1.14D-06 MaxDP=4.34D-05 DE=-4.17D-08 OVMax= 3.97D-05

 Cycle  10  Pass 1  IDiag  1:
 RMSU=  5.28D-07    CP:  9.38D-01  2.72D-01  1.08D+00  7.12D-01  7.56D-01
                    CP:  9.66D-01  8.69D-01  8.99D-01  7.33D-01
 E= -873.749577523515     Delta-E=       -0.000000013286 Rises=F Damp=F
 DIIS: error= 6.87D-07 at cycle  10 NSaved=  10.
 NSaved=10 IEnMin=10 EnMin= -873.749577523515     IErMin=10 ErrMin= 6.87D-07
 ErrMax= 6.87D-07  0.00D+00 EMaxC= 1.00D-01 BMatC= 2.20D-10 BMatP= 1.21D-08
 IDIUse=1 WtCom= 1.00D+00 WtEn= 0.00D+00
 Coeff-Com:  0.234D-04-0.164D-04-0.253D-03-0.626D-03-0.916D-03-0.176D-02
 Coeff-Com:  0.152D-02 0.678D-01 0.132D+00 0.802D+00
 Coeff:      0.234D-04-0.164D-04-0.253D-03-0.626D-03-0.916D-03-0.176D-02
 Coeff:      0.152D-02 0.678D-01 0.132D+00 0.802D+00
 Gap=     0.211 Goal=   None    Shift=    0.000
 RMSDP=1.74D-07 MaxDP=5.01D-06 DE=-1.33D-08 OVMax= 9.41D-06

 Cycle  11  Pass 1  IDiag  1:
 RMSU=  1.16D-07    CP:  9.38D-01  2.72D-01  1.08D+00  7.12D-01  7.56D-01
                    CP:  9.67D-01  8.69D-01  9.12D-01  7.65D-01  9.93D-01
 E= -873.749577523736     Delta-E=       -0.000000000221 Rises=F Damp=F
 DIIS: error= 3.54D-07 at cycle  11 NSaved=  11.
 NSaved=11 IEnMin=11 EnMin= -873.749577523736     IErMin=11 ErrMin= 3.54D-07
 ErrMax= 3.54D-07  0.00D+00 EMaxC= 1.00D-01 BMatC= 4.09D-11 BMatP= 2.20D-10
 IDIUse=1 WtCom= 1.00D+00 WtEn= 0.00D+00
 Coeff-Com: -0.362D-05 0.890D-05 0.441D-04 0.738D-04 0.878D-05-0.111D-02
 Coeff-Com: -0.463D-02-0.139D-01-0.318D-02 0.317D+00 0.705D+00
 Coeff:     -0.362D-05 0.890D-05 0.441D-04 0.738D-04 0.878D-05-0.111D-02
 Coeff:     -0.463D-02-0.139D-01-0.318D-02 0.317D+00 0.705D+00
 Gap=     0.211 Goal=   None    Shift=    0.000
 RMSDP=5.58D-08 MaxDP=1.50D-06 DE=-2.21D-10 OVMax= 3.29D-06

 Cycle  12  Pass 1  IDiag  1:
 RMSU=  3.48D-08    CP:  9.38D-01  2.72D-01  1.08D+00  7.12D-01  7.56D-01
                    CP:  9.67D-01  8.69D-01  9.11D-01  7.70D-01  1.05D+00
                    CP:  8.21D-01
 E= -873.749577523785     Delta-E=       -0.000000000048 Rises=F Damp=F
 DIIS: error= 4.39D-08 at cycle  12 NSaved=  12.
 NSaved=12 IEnMin=12 EnMin= -873.749577523785     IErMin=12 ErrMin= 4.39D-08
 ErrMax= 4.39D-08  0.00D+00 EMaxC= 1.00D-01 BMatC= 8.09D-13 BMatP= 4.09D-11
 IDIUse=1 WtCom= 1.00D+00 WtEn= 0.00D+00
 Coeff-Com: -0.873D-06 0.131D-05 0.129D-04 0.281D-04 0.134D-04-0.148D-03
 Coeff-Com: -0.613D-03-0.415D-02-0.530D-02 0.182D-01 0.136D+00 0.856D+00
 Coeff:     -0.873D-06 0.131D-05 0.129D-04 0.281D-04 0.134D-04-0.148D-03
 Coeff:     -0.613D-03-0.415D-02-0.530D-02 0.182D-01 0.136D+00 0.856D+00
 Gap=     0.211 Goal=   None    Shift=    0.000
 RMSDP=1.13D-08 MaxDP=4.69D-07 DE=-4.82D-11 OVMax= 5.85D-07

 Cycle  13  Pass 1  IDiag  1:
 RMSU=  6.44D-09    CP:  9.38D-01  2.72D-01  1.08D+00  7.12D-01  7.56D-01
                    CP:  9.67D-01  8.69D-01  9.11D-01  7.72D-01  1.05D+00
                    CP:  8.70D-01  1.01D+00
 E= -873.749577523768     Delta-E=        0.000000000016 Rises=F Damp=F
 DIIS: error= 1.38D-08 at cycle  13 NSaved=  13.
 NSaved=13 IEnMin=12 EnMin= -873.749577523785     IErMin=13 ErrMin= 1.38D-08
 ErrMax= 1.38D-08  0.00D+00 EMaxC= 1.00D-01 BMatC= 6.77D-14 BMatP= 8.09D-13
 IDIUse=1 WtCom= 1.00D+00 WtEn= 0.00D+00
 Coeff-Com: -0.151D-06 0.132D-06 0.233D-05 0.677D-05 0.246D-05 0.130D-04
 Coeff-Com:  0.127D-04-0.397D-03-0.193D-02-0.102D-01 0.679D-03 0.205D+00
 Coeff-Com:  0.807D+00
 Coeff:     -0.151D-06 0.132D-06 0.233D-05 0.677D-05 0.246D-05 0.130D-04
 Coeff:      0.127D-04-0.397D-03-0.193D-02-0.102D-01 0.679D-03 0.205D+00
 Coeff:      0.807D+00
 Gap=     0.211 Goal=   None    Shift=    0.000
 RMSDP=2.66D-09 MaxDP=7.09D-08 DE= 1.61D-11 OVMax= 9.94D-08

 SCF Done:  E(RB3LYP) =  -873.749577524     A.U. after   13 cycles
            NFock= 13  Conv=0.27D-08     -V/T= 2.0017
 KE= 8.722486523901D+02 PE=-2.428627453025D+03 EE= 5.047911486456D+02
 Leave Link  502 at Wed Aug  3 20:55:34 2016, MaxMem=    33554432 cpu:       215.0
 (Enter /home/proyectos/fulerenos/M3C-v2.0/M3C-deps_CCC/g09-AM64L-G09RevC.01/l801.exe)
 DoSCS=F DFT=T ScalE2(SS,OS)=  1.000000  1.000000
 Range of M.O.s used for correlation:     1   192
 NBasis=   192 NAE=    23 NBE=    23 NFC=     0 NFV=     0
 NROrb=    192 NOA=    23 NOB=    23 NVA=   169 NVB=   169

 **** Warning!!: The largest alpha MO coefficient is  0.74015626D+02

 Leave Link  801 at Wed Aug  3 20:55:34 2016, MaxMem=    33554432 cpu:         0.1
 (Enter /home/proyectos/fulerenos/M3C-v2.0/M3C-deps_CCC/g09-AM64L-G09RevC.01/l1101.exe)
 Using compressed storage, NAtomX=     6.
 Will process      7 centers per pass.
 Leave Link 1101 at Wed Aug  3 20:55:35 2016, MaxMem=    33554432 cpu:         1.8
 (Enter /home/proyectos/fulerenos/M3C-v2.0/M3C-deps_CCC/g09-AM64L-G09RevC.01/l1102.exe)
 Symmetrizing basis deriv contribution to polar:
 IMax=3 JMax=2 DiffMx= 0.00D+00
 Leave Link 1102 at Wed Aug  3 20:55:35 2016, MaxMem=    33554432 cpu:         0.2
 (Enter /home/proyectos/fulerenos/M3C-v2.0/M3C-deps_CCC/g09-AM64L-G09RevC.01/l1110.exe)
 Forming Gx(P) for the SCF density, NAtomX=     6.
 Integral derivatives from FoFJK, PRISM(SPDF).
 Do as many integral derivatives as possible in FoFJK.
 G2DrvN: MDV=      33554280.
 G2DrvN: will do     7 centers at a time, making    1 passes.
 Calling FoFCou, ICntrl=  3107 FMM=F I1Cent=   0 AccDes= 0.00D+00.
 FoFJK:  IHMeth= 1 ICntrl=    3107 DoSepK=F KAlg= 0 I1Cent=   0 FoldK=F
 IRaf=         0 NMat=   1 IRICut=       1 DoRegI=T DoRafI=F ISym2E= 0.
 FoFCou: FMM=F IPFlag=           0 FMFlag=      100000 FMFlg1=           0
         NFxFlg=           0 DoJE=F BraDBF=F KetDBF=F FulRan=T
         wScrn=  0.000000 ICntrl=    3107 IOpCl=  0 I1Cent=           0 NGrid=           0
         NMat0=    1 NMatS0=      1 NMatT0=    0 NMatD0=    1 NMtDS0=    0 NMtDT0=    0
 Symmetry not used in FoFCou.
 End of G2Drv F.D. properties file   721 does not exist.
 End of G2Drv F.D. properties file   722 does not exist.
 End of G2Drv F.D. properties file   788 does not exist.
 Leave Link 1110 at Wed Aug  3 20:56:12 2016, MaxMem=    33554432 cpu:       147.9
 (Enter /home/proyectos/fulerenos/M3C-v2.0/M3C-deps_CCC/g09-AM64L-G09RevC.01/l1002.exe)
 Minotr:  Closed shell wavefunction.
          IDoAtm=111111
          Direct CPHF calculation.
          Differentiating once with respect to electric field.
                with respect to dipole field.
          Differentiating once with respect to nuclear coordinates.
          Requested convergence is 1.0D-08 RMS, and 1.0D-07 maximum.
          Secondary convergence is 1.0D-12 RMS, and 1.0D-12 maximum.
          NewPWx=T KeepS1=F KeepF1=F KeepIn=T MapXYZ=F SortEE=F KeepMc=T.
          MDV=      33554176 using IRadAn=       2.
 Generate precomputed XC quadrature information.
          Solving linear equations simultaneously, MaxMat=       0.
 FoFJK:  IHMeth= 1 ICntrl=       0 DoSepK=F KAlg= 0 I1Cent=   0 FoldK=F
 IRaf= 960000000 NMat=  21 IRICut=      52 DoRegI=T DoRafI=T ISym2E= 2.
 FoFCou: FMM=F IPFlag=           0 FMFlag=      100000 FMFlg1=           0
         NFxFlg=           0 DoJE=F BraDBF=F KetDBF=F FulRan=T
         wScrn=  0.000000 ICntrl=       0 IOpCl=  0 I1Cent=           0 NGrid=           0
         NMat0=   21 NMatS0=     21 NMatT0=    0 NMatD0=   21 NMtDS0=    0 NMtDT0=    0
 Integrals replicated using symmetry in FoFCou.
          There are    21 degrees of freedom in the 1st order CPHF.  IDoFFX=6 NUNeed=     3.
     18 vectors produced by pass  0 Test12= 1.85D-14 4.76D-09 XBig12= 1.02D+02 3.51D+00.
 AX will form    18 AO Fock derivatives at one time.
     18 vectors produced by pass  1 Test12= 1.85D-14 4.76D-09 XBig12= 4.56D+01 1.58D+00.
     18 vectors produced by pass  2 Test12= 1.85D-14 4.76D-09 XBig12= 1.90D+00 2.34D-01.
     18 vectors produced by pass  3 Test12= 1.85D-14 4.76D-09 XBig12= 3.93D-02 3.71D-02.
     18 vectors produced by pass  4 Test12= 1.85D-14 4.76D-09 XBig12= 2.84D-04 3.38D-03.
     18 vectors produced by pass  5 Test12= 1.85D-14 4.76D-09 XBig12= 1.08D-06 1.59D-04.
     12 vectors produced by pass  6 Test12= 1.85D-14 4.76D-09 XBig12= 2.17D-09 7.13D-06.
      3 vectors produced by pass  7 Test12= 1.85D-14 4.76D-09 XBig12= 3.59D-12 2.52D-07.
      3 vectors produced by pass  8 Test12= 1.85D-14 4.76D-09 XBig12= 1.93D-14 3.25D-08.
 InvSVY:  IOpt=1 It=  1 EMax= 8.88D-15
 Solved reduced A of dimension   126 with    21 vectors.
 FullF1:  Do perturbations    1 to     3.
 Isotropic polarizability for W=    0.000000       66.37 Bohr**3.
 End of Minotr F.D. properties file   721 does not exist.
 End of Minotr F.D. properties file   722 does not exist.
 End of Minotr F.D. properties file   788 does not exist.
 Leave Link 1002 at Wed Aug  3 20:57:54 2016, MaxMem=    33554432 cpu:       391.3
 (Enter /home/proyectos/fulerenos/M3C-v2.0/M3C-deps_CCC/g09-AM64L-G09RevC.01/l601.exe)
 Copying SCF densities to generalized density rwf, IOpCl= 0 IROHF=0.

 **********************************************************************

            Population analysis using the SCF density.

 **********************************************************************

 Orbital symmetries:
       Occupied  (A) (A) (A) (A) (A) (A) (A) (A) (A) (A) (A) (A)
                 (A) (A) (A) (A) (A) (A) (A) (A) (A) (A) (A)
       Virtual   (A) (A) (A) (A) (A) (A) (A) (A) (A) (A) (A) (A)
                 (A) (A) (A) (A) (A) (A) (A) (A) (A) (A) (A) (A)
                 (A) (A) (A) (A) (A) (A) (A) (A) (A) (A) (A) (A)
                 (A) (A) (A) (A) (A) (A) (A) (A) (A) (A) (A) (A)
                 (A) (A) (A) (A) (A) (A) (A) (A) (A) (A) (A) (A)
                 (A) (A) (A) (A) (A) (A) (A) (A) (A) (A) (A) (A)
                 (A) (A) (A) (A) (A) (A) (A) (A) (A) (A) (A) (A)
                 (A) (A) (A) (A) (A) (A) (A) (A) (A) (A) (A) (A)
                 (A) (A) (A) (A) (A) (A) (A) (A) (A) (A) (A) (A)
                 (A) (A) (A) (A) (A) (A) (A) (A) (A) (A) (A) (A)
                 (A) (A) (A) (A) (A) (A) (A) (A) (A) (A) (A) (A)
                 (A) (A) (A) (A) (A) (A) (A) (A) (A) (A) (A) (A)
                 (A) (A) (A) (A) (A) (A) (A) (A) (A) (A) (A) (A)
                 (A) (A) (A) (A) (A) (A) (A) (A) (A) (A) (A) (A)
                 (A)
 The electronic state is 1-A.
 Alpha  occ. eigenvalues --  -88.91476 -88.89341 -10.24093 -10.21629  -7.99781
 Alpha  occ. eigenvalues --   -7.97871  -5.96122  -5.95707  -5.95374  -5.94253
 Alpha  occ. eigenvalues --   -5.93886  -5.93300  -0.88977  -0.78946  -0.69044
 Alpha  occ. eigenvalues --   -0.52446  -0.47475  -0.44077  -0.38877  -0.34415
 Alpha  occ. eigenvalues --   -0.31311  -0.28423  -0.25955
 Alpha virt. eigenvalues --   -0.04895  -0.04031  -0.02972  -0.01829  -0.00614
 Alpha virt. eigenvalues --    0.01677   0.03319   0.04519   0.05172   0.05992
 Alpha virt. eigenvalues --    0.06305   0.07226   0.08985   0.09154   0.09638
 Alpha virt. eigenvalues --    0.09889   0.10824   0.11525   0.13103   0.14301
 Alpha virt. eigenvalues --    0.15487   0.16688   0.18455   0.20239   0.21426
 Alpha virt. eigenvalues --    0.22612   0.24255   0.24337   0.26156   0.27707
 Alpha virt. eigenvalues --    0.29341   0.29997   0.30510   0.31951   0.32902
 Alpha virt. eigenvalues --    0.34485   0.39139   0.40633   0.42007   0.44220
 Alpha virt. eigenvalues --    0.44643   0.47470   0.48620   0.51019   0.52334
 Alpha virt. eigenvalues --    0.55404   0.56851   0.57650   0.58362   0.59658
 Alpha virt. eigenvalues --    0.63206   0.66356   0.67244   0.69623   0.74868
 Alpha virt. eigenvalues --    0.76576   0.78206   0.80124   0.81541   0.84304
 Alpha virt. eigenvalues --    0.86976   0.90340   0.92469   0.94824   0.95681
 Alpha virt. eigenvalues --    0.96532   0.97333   0.98312   1.00036   1.01618
 Alpha virt. eigenvalues --    1.03944   1.04896   1.08045   1.12899   1.18129
 Alpha virt. eigenvalues --    1.28227   1.37745   1.38353   1.39538   1.47873
 Alpha virt. eigenvalues --    1.50059   1.51693   1.55798   1.60730   1.61922
 Alpha virt. eigenvalues --    1.62463   1.66560   1.68892   1.72501   1.73658
 Alpha virt. eigenvalues --    1.76501   1.80398   1.82937   1.83331   1.84720
 Alpha virt. eigenvalues --    1.87965   1.95171   1.98421   1.99965   2.02759
 Alpha virt. eigenvalues --    2.09253   2.14478   2.17439   2.18286   2.24058
 Alpha virt. eigenvalues --    2.29359   2.33968   2.47764   2.58162   2.63253
 Alpha virt. eigenvalues --    2.70997   2.78082   2.81681   2.84247   2.85542
 Alpha virt. eigenvalues --    2.88118   3.00963   3.06673   3.11075   3.18212
 Alpha virt. eigenvalues --    3.21655   3.25535   3.28157   3.37175   3.54317
 Alpha virt. eigenvalues --    3.65236   3.73593   3.78759   3.83050   3.91103
 Alpha virt. eigenvalues --    3.94766   4.00865   4.04015   4.06440   4.19012
 Alpha virt. eigenvalues --    4.51557   4.59901   4.61299   4.64703   4.69979
 Alpha virt. eigenvalues --    4.81689   4.87751   4.90719   5.01734   5.07522
 Alpha virt. eigenvalues --    5.47604   5.75320   7.01439   7.06903   7.09253
 Alpha virt. eigenvalues --    7.11337   7.20787   7.27742   7.41025   7.48329
 Alpha virt. eigenvalues --    7.60544   7.96398   8.24025   8.53178  17.40474
 Alpha virt. eigenvalues --   17.41439  17.46336  17.49505  17.83142  17.84898
 Alpha virt. eigenvalues --   23.71707  25.93275 189.19621 189.42536
          Condensed to atoms (all electrons):
               1          2          3          4          5          6
     1  S   15.572577  -0.047195   0.427288  -0.183241   0.001572   0.248641
     2  S   -0.047195  16.272131   0.481296  -0.595368   0.244332  -0.029783
     3  C    0.427288   0.481296   8.642189  -3.996387  -0.017071  -0.098500
     4  C   -0.183241  -0.595368  -3.996387  11.111055   0.037520   0.100752
     5  H    0.001572   0.244332  -0.017071   0.037520   0.588244   0.006195
     6  H    0.248641  -0.029783  -0.098500   0.100752   0.006195   0.653703
 Mulliken charges:
               1
     1  S   -0.019641
     2  S   -0.325413
     3  C    0.561186
     4  C   -0.474331
     5  H    0.139208
     6  H    0.118991
 Sum of Mulliken charges =  -0.00000
 Mulliken charges with hydrogens summed into heavy atoms:
               1
     1  S    0.099350
     2  S   -0.186205
     3  C    0.561186
     4  C   -0.474331
 APT charges:
               1
     1  S   -0.090402
     2  S    0.025300
     3  C    0.080022
     4  C   -0.039725
     5  H    0.020786
     6  H    0.004020
 Sum of APT charges =  -0.00000
 APT charges with hydrogens summed into heavy atoms:
               1
     1  S   -0.086382
     2  S    0.046085
     3  C    0.080022
     4  C   -0.039725
 Electronic spatial extent (au):  <R**2>=            497.1602
 Charge=             -0.0000 electrons
 Dipole moment (field-independent basis, Debye):
    X=              0.5320    Y=             -2.9149    Z=              1.3192  Tot=              3.2435
 Quadrupole moment (field-independent basis, Debye-Ang):
   XX=            -36.5126   YY=            -43.6124   ZZ=            -36.2548
   XY=              2.5081   XZ=             -0.0530   YZ=             -2.4798
 Traceless Quadrupole moment (field-independent basis, Debye-Ang):
   XX=              2.2807   YY=             -4.8192   ZZ=              2.5385
   XY=              2.5081   XZ=             -0.0530   YZ=             -2.4798
 Octapole moment (field-independent basis, Debye-Ang**2):
  XXX=              3.2331  YYY=            -17.2870  ZZZ=              1.9264  XYY=              5.4894
  XXY=            -11.7960  XXZ=              5.6652  XZZ=              0.4437  YZZ=             -4.5003
  YYZ=              1.2499  XYZ=             -0.7463
 Hexadecapole moment (field-independent basis, Debye-Ang**3):
 XXXX=           -486.4982 YYYY=           -180.4148 ZZZZ=            -56.6834 XXXY=              4.6358
 XXXZ=             -1.0176 YYYX=             18.7347 YYYZ=             -4.0690 ZZZX=             -0.0775
 ZZZY=             -4.7671 XXYY=           -114.3744 XXZZ=            -87.2292 YYZZ=            -36.7625
 XXYZ=             -8.3699 YYXZ=              0.9320 ZZXY=              2.2913
 N-N= 1.778380744659D+02 E-N=-2.428627452070D+03  KE= 8.722486523901D+02
  Exact polarizability:  84.884   1.907  65.479   0.155  -0.812  48.744
 Approx polarizability: 135.435   7.952 120.694   0.804  -2.999  82.000
 No NMR shielding tensors so no spin-rotation constants.
 Leave Link  601 at Wed Aug  3 20:57:54 2016, MaxMem=    33554432 cpu:         0.9
 (Enter /home/proyectos/fulerenos/M3C-v2.0/M3C-deps_CCC/g09-AM64L-G09RevC.01/l701.exe)
 Compute integral second derivatives.
 ... and contract with generalized density number  0.
 Leave Link  701 at Wed Aug  3 20:57:54 2016, MaxMem=    33554432 cpu:         1.5
 (Enter /home/proyectos/fulerenos/M3C-v2.0/M3C-deps_CCC/g09-AM64L-G09RevC.01/l702.exe)
 L702 exits ... SP integral derivatives will be done elsewhere.
 Leave Link  702 at Wed Aug  3 20:57:54 2016, MaxMem=    33554432 cpu:         0.1
 (Enter /home/proyectos/fulerenos/M3C-v2.0/M3C-deps_CCC/g09-AM64L-G09RevC.01/l703.exe)
 Compute integral second derivatives, UseDBF=F ICtDFT=           0.
 Integral derivatives from FoFJK, PRISM(SPDF).
 Calling FoFJK, ICntrl=    100127 FMM=F ISym2X=0 I1Cent= 0 IOpClX= 0 NMat=1 NMatS=1 NMatT=0.
 FoFJK:  IHMeth= 1 ICntrl=  100127 DoSepK=F KAlg= 0 I1Cent=   0 FoldK=F
 IRaf=         0 NMat=   1 IRICut=       1 DoRegI=T DoRafI=F ISym2E= 0.
 FoFCou: FMM=F IPFlag=           0 FMFlag=      100000 FMFlg1=         800
         NFxFlg=           0 DoJE=F BraDBF=F KetDBF=F FulRan=T
         wScrn=  0.000000 ICntrl=  100127 IOpCl=  0 I1Cent=           0 NGrid=           0
         NMat0=    1 NMatS0=      1 NMatT0=    0 NMatD0=    1 NMtDS0=    0 NMtDT0=    0
 Symmetry not used in FoFCou.
 Leave Link  703 at Wed Aug  3 20:59:13 2016, MaxMem=    33554432 cpu:       314.2
 (Enter /home/proyectos/fulerenos/M3C-v2.0/M3C-deps_CCC/g09-AM64L-G09RevC.01/l716.exe)
 Dipole        = 2.09307734D-01-1.14681666D+00 5.19011346D-01
 Polarizability= 8.48836218D+01 1.90694235D+00 6.54789233D+01
                 1.54547373D-01-8.12018746D-01 4.87440727D+01
 Full mass-weighted force constant matrix:
 Low frequencies ---  -15.7950   -7.3218   -0.0033    0.0018    0.0042    4.0421
 Low frequencies ---  182.1743  249.2708  296.7752
 Diagonal vibrational polarizability:
        9.2881254      11.4840422       1.3128840
 Harmonic frequencies (cm**-1), IR intensities (KM/Mole), Raman scattering
 activities (A**4/AMU), depolarization ratios for plane and unpolarized
 incident light, reduced masses (AMU), force constants (mDyne/A),
 and normal coordinates:
                      1                      2                      3
                      A                      A                      A
 Frequencies --    182.1724               249.2708               296.7749
 Red. masses --      1.2019                 7.2527                 4.1922
 Frc consts  --      0.0235                 0.2655                 0.2175
 IR Inten    --     15.0329                 0.5632                 1.5974
  Atom  AN      X      Y      Z        X      Y      Z        X      Y      Z
     1  16    -0.04   0.01  -0.01     0.26  -0.07  -0.00     0.08  -0.01  -0.04
     2  16     0.02  -0.02  -0.01    -0.20  -0.14   0.01    -0.09  -0.02  -0.08
     3   6     0.03  -0.00  -0.05    -0.05   0.29  -0.16     0.01   0.02   0.46
     4   6    -0.01  -0.04   0.07    -0.11   0.25   0.12     0.00   0.03  -0.14
     5   1     0.32   0.84   0.42    -0.38   0.38   0.28     0.57   0.34   0.07
     6   1    -0.03  -0.03  -0.02     0.49  -0.27  -0.00    -0.49   0.23  -0.10
                      4                      5                      6
                      A                      A                      A
 Frequencies --    363.0117               500.6563               564.1930
 Red. masses --     10.8944                11.1706                 1.1991
 Frc consts  --      0.8459                 1.6497                 0.2249
 IR Inten    --     18.2927                19.0953                13.9928
  Atom  AN      X      Y      Z        X      Y      Z        X      Y      Z
     1  16    -0.05  -0.16  -0.01    -0.25  -0.26  -0.04     0.04  -0.02   0.00
     2  16    -0.10   0.11   0.01     0.16  -0.08  -0.02    -0.01   0.01  -0.00
     3   6    -0.26  -0.31  -0.05     0.24   0.52   0.10    -0.02  -0.02  -0.08
     4   6     0.64   0.42   0.05     0.04   0.35   0.05    -0.01  -0.02   0.08
     5   1     0.16   0.35   0.12    -0.09  -0.26  -0.10    -0.06  -0.02  -0.01
     6   1     0.02  -0.16  -0.00    -0.26   0.46   0.08    -0.62   0.77   0.06
                      7                      8                      9
                      A                      A                      A
 Frequencies --    677.6413               932.4312               990.4727
 Red. masses --      9.6223                 1.0704                 1.1833
 Frc consts  --      2.6033                 0.5483                 0.6839
 IR Inten    --     24.0478                 6.7204                13.7917
  Atom  AN      X      Y      Z        X      Y      Z        X      Y      Z
     1  16    -0.05  -0.03  -0.02    -0.00  -0.00  -0.02     0.01   0.00   0.02
     2  16    -0.28   0.11   0.03    -0.01  -0.01   0.02    -0.03  -0.00   0.02
     3   6     0.56   0.10  -0.05    -0.04  -0.01  -0.01     0.04   0.03  -0.09
     4   6     0.30  -0.32   0.01    -0.03   0.02   0.02    -0.00   0.02  -0.01
     5   1    -0.18  -0.02  -0.02     0.63  -0.18  -0.10     0.69  -0.25  -0.14
     6   1     0.48   0.34   0.13     0.57   0.45   0.17    -0.49  -0.42  -0.14
                     10                     11                     12
                      A                      A                      A
 Frequencies --   1721.3534              2591.9735              2639.7884
 Red. masses --     11.4890                 1.0399                 1.0390
 Frc consts  --     20.0572                 4.1161                 4.2659
 IR Inten    --     19.6181                 4.3895                 0.6778
  Atom  AN      X      Y      Z        X      Y      Z        X      Y      Z
     1  16     0.01   0.01   0.00     0.00   0.01  -0.03     0.00  -0.00   0.00
     2  16     0.03  -0.02   0.00    -0.00   0.00  -0.00    -0.00   0.01  -0.03
     3   6    -0.52   0.53   0.00     0.00   0.00   0.00    -0.00   0.00   0.00
     4   6     0.39  -0.49  -0.01     0.00  -0.00   0.00     0.00  -0.00  -0.00
     5   1     0.19  -0.05  -0.07     0.00  -0.01   0.02     0.05  -0.45   0.89
     6   1    -0.03  -0.05  -0.04    -0.16  -0.20   0.97     0.00   0.00  -0.02

 -------------------
 - Thermochemistry -
 -------------------
 Temperature   298.150 Kelvin.  Pressure   1.00000 Atm.
 Atom     1 has atomic number 16 and mass  31.97207
 Atom     2 has atomic number 16 and mass  31.97207
 Atom     3 has atomic number  6 and mass  12.00000
 Atom     4 has atomic number  6 and mass  12.00000
 Atom     5 has atomic number  1 and mass   1.00783
 Atom     6 has atomic number  1 and mass   1.00783
 Molecular mass:    89.95979 amu.
 Principal axes and moments of inertia in atomic units:
                           1         2         3
     Eigenvalues --   133.10506 662.93254 773.00422
           X            1.00000  -0.00089  -0.00036
           Y            0.00087   0.99839  -0.05668
           Z            0.00041   0.05668   0.99839
 This molecule is an asymmetric top.
 Rotational symmetry number  1.
 Rotational temperatures (Kelvin)      0.65072     0.13065     0.11205
 Rotational constants (GHZ):          13.55877     2.72236     2.33471
 Zero-point vibrational energy      70039.8 (Joules/Mol)
                                   16.73991 (Kcal/Mol)
 Warning -- explicit consideration of   6 degrees of freedom as
           vibrations may cause significant error
 Vibrational temperatures:    262.11   358.64   426.99   522.29   720.33
          (Kelvin)            811.75   974.97  1341.56  1425.07  2476.64
                             3729.27  3798.06
 
 Zero-point correction=                           0.026677 (Hartree/Particle)
 Thermal correction to Energy=                    0.031972
 Thermal correction to Enthalpy=                  0.032916
 Thermal correction to Gibbs Free Energy=        -0.001980
 Sum of electronic and zero-point Energies=           -873.722901
 Sum of electronic and thermal Energies=              -873.717606
 Sum of electronic and thermal Enthalpies=            -873.716662
 Sum of electronic and thermal Free Energies=         -873.751558
 
                     E (Thermal)             CV                S
                      KCal/Mol        Cal/Mol-Kelvin    Cal/Mol-Kelvin
 Total                   20.063             16.929             73.445
 Electronic               0.000              0.000              0.000
 Translational            0.889              2.981             39.403
 Rotational               0.889              2.981             25.726
 Vibrational             18.285             10.967              8.316
 Vibration     1          0.630              1.864              2.306
 Vibration     2          0.662              1.764              1.736
 Vibration     3          0.690              1.680              1.435
 Vibration     4          0.737              1.548              1.109
 Vibration     5          0.856              1.249              0.656
 Vibration     6          0.920              1.109              0.516
                       Q            Log10(Q)             Ln(Q)
 Total Bot       0.814238D+01          0.910752          2.097083
 Total V=0       0.151767D+14         13.181178         30.350785
 Vib (Bot)       0.259689D-11        -11.585546        -26.676705
 Vib (Bot)    1  0.110170D+01          0.042064          0.096855
 Vib (Bot)    2  0.783241D+00         -0.106105         -0.244315
 Vib (Bot)    3  0.641970D+00         -0.192485         -0.443214
 Vib (Bot)    4  0.503901D+00         -0.297654         -0.685375
 Vib (Bot)    5  0.328084D+00         -0.484015         -1.114485
 Vib (Bot)    6  0.274351D+00         -0.561693         -1.293345
 Vib (V=0)       0.484040D+01          0.684881          1.576997
 Vib (V=0)    1  0.170985D+01          0.232959          0.536407
 Vib (V=0)    2  0.142923D+01          0.155102          0.357135
 Vib (V=0)    3  0.131371D+01          0.118500          0.272856
 Vib (V=0)    4  0.120987D+01          0.082739          0.190514
 Vib (V=0)    5  0.109803D+01          0.040614          0.093517
 Vib (V=0)    6  0.107032D+01          0.029515          0.067961
 Electronic      0.100000D+01          0.000000          0.000000
 Translational   0.335373D+08          7.525528         17.328168
 Rotational      0.934909D+05          4.970769         11.445619
 
                                                              b3lyp opt
                                                             IR Spectrum
 
     2  2                                         1                                                                                  
     6  5                                         7                                  9  9           6    5  5      3  2  2  1        
     4  9                                         2                                  9  3           7    6  0      6  9  4  8        
     0  2                                         1                                  0  2           8    4  1      3  7  9  2        
 
     X  X                                         X                                  X  X           X    X  X      X  X  X  X        
        X                                         X                                  X  X           X    X  X      X        X        
        X                                         X                                  X  X           X    X  X      X        X        
        X                                         X                                  X  X           X    X  X      X        X        
                                                  X                                  X  X           X    X  X      X        X        
                                                  X                                  X  X           X    X  X      X        X        
                                                  X                                  X              X    X  X      X        X        
                                                  X                                  X              X    X  X      X        X        
                                                  X                                  X              X    X  X      X        X        
                                                  X                                  X              X    X  X      X        X        
                                                  X                                  X              X    X  X      X        X        
                                                  X                                                 X    X  X      X        X        
                                                  X                                                 X       X      X        X        
                                                  X                                                 X       X      X                 
                                                  X                                                 X       X      X                 
                                                  X                                                 X       X                        
                                                                                                    X                                
                                                                                                    X                                
                                                                                                    X                                
                                                                                                    X                                
 
 ***** Axes restored to original set *****
 -------------------------------------------------------------------
 Center     Atomic                   Forces (Hartrees/Bohr)
 Number     Number              X              Y              Z
 -------------------------------------------------------------------
      1       16           0.000011571    0.000082362   -0.000040756
      2       16           0.000008361    0.000013819   -0.000082059
      3        6          -0.000063403    0.000006307    0.000012685
      4        6           0.000098763    0.000000480    0.000055232
      5        1          -0.000027661   -0.000024750    0.000031755
      6        1          -0.000027631   -0.000078219    0.000023144
 -------------------------------------------------------------------
 Cartesian Forces:  Max     0.000098763 RMS     0.000048535
 Z-matrix is all fixed cartesians, so copy forces.
 Force constants in Cartesian coordinates: 
                1             2             3             4             5 
      1  0.980463D-01
      2  0.361852D-01  0.228385D+00
      3 -0.796311D-01 -0.579867D-01  0.144584D+00
      4  0.345581D-02 -0.218923D-02  0.390906D-02  0.146313D+00
      5 -0.112155D-02 -0.131445D-02 -0.172776D-01  0.135417D+00  0.166876D+00
      6  0.130773D-02 -0.178195D-01 -0.254999D-01  0.117486D-01 -0.221951D-01
      7 -0.231547D-01 -0.305937D-02  0.593537D-02 -0.530446D-01 -0.257777D-01
      8  0.134616D-01 -0.424634D-01 -0.242931D-01 -0.158555D-01 -0.324483D-01
      9  0.285477D-01 -0.128407D-01 -0.481039D-01 -0.613160D-01 -0.268730D-01
     10 -0.392782D-01  0.264011D-01  0.314990D-01 -0.515782D-03  0.847233D-03
     11  0.234778D-01 -0.130311D-01 -0.654473D-03 -0.460020D-02  0.188406D-02
     12  0.881831D-02  0.286274D-02 -0.324182D-02 -0.137604D-01 -0.403831D-02
     13  0.108290D-02  0.193964D-02 -0.135041D-02 -0.967644D-01 -0.110492D+00
     14 -0.115798D-02  0.630714D-03  0.176824D-02 -0.113796D+00 -0.134244D+00
     15 -0.553758D-03  0.124832D-02  0.602861D-03  0.574849D-01  0.695021D-01
     16 -0.401522D-01 -0.592773D-01  0.396381D-01  0.556023D-03  0.112688D-02
     17 -0.708451D-01 -0.172207D+00  0.984436D-01  0.102427D-02 -0.752848D-03
     18  0.415112D-01  0.845359D-01 -0.683411D-01  0.193378D-02  0.882050D-03
                6             7             8             9            10 
      6  0.254890D+00
      7 -0.514293D-01  0.462056D+00
      8 -0.551253D-02  0.652731D-01  0.850897D-01
      9 -0.169805D+00  0.339915D+00  0.806269D-01  0.465469D+00
     10 -0.580642D-04 -0.364467D+00 -0.567121D-01 -0.310335D+00  0.403688D+00
     11 -0.838198D-02 -0.395355D-01 -0.173361D-01 -0.251542D-01  0.267304D-01
     12 -0.968158D-02 -0.283845D+00 -0.338356D-01 -0.237373D+00  0.277771D+00
     13  0.411757D-01 -0.111162D-01 -0.781426D-02 -0.268580D-02  0.226963D-02
     14  0.528984D-01 -0.370002D-02 -0.369068D-02 -0.726711D-02  0.932943D-03
     15 -0.502693D-01 -0.215427D-01 -0.220398D-01 -0.589248D-05  0.141171D-02
     16 -0.274467D-02 -0.102732D-01  0.164712D-02  0.587401D-02 -0.169685D-02
     17  0.101079D-02  0.679949D-02  0.108488D-01 -0.849178D-02  0.180042D-02
     18  0.365611D-03  0.109662D-01  0.505409D-02 -0.101807D-01 -0.287848D-03
               11            12            13            14            15 
     11  0.243633D-01
     12  0.380487D-01  0.254388D+00
     13 -0.224513D-03  0.121837D-02  0.103973D+00
     14  0.822081D-04  0.125086D-02  0.117443D+00  0.137164D+00
     15  0.334746D-03 -0.495627D-03 -0.376854D-01 -0.491232D-01  0.499800D-01
     16 -0.584800D-02  0.979821D-02  0.555421D-03  0.277774D-03  0.885222D-03
     17  0.403758D-02 -0.428840D-02 -0.852563D-03  0.583973D-04  0.778546D-04
     18 -0.419272D-02 -0.359554D-02 -0.672419D-03  0.472808D-03  0.188044D-03
               16            17            18 
     16  0.510108D-01
     17  0.620735D-01  0.158015D+00
     18 -0.534509D-01 -0.867521D-01  0.815637D-01
 Leave Link  716 at Wed Aug  3 20:59:13 2016, MaxMem=    33554432 cpu:         0.1
 (Enter /home/proyectos/fulerenos/M3C-v2.0/M3C-deps_CCC/g09-AM64L-G09RevC.01/l103.exe)

 GradGradGradGradGradGradGradGradGradGradGradGradGradGradGradGradGradGrad
 Berny optimization.
 Search for a local minimum.
 Step number   1 out of a maximum of    2
 All quantities printed in internal units (Hartrees-Bohrs-Radians)
 Second derivative matrix not updated -- analytic derivatives used.
 The second derivative matrix:
                          X1        Y1        Z1        X2        Y2
           X1           0.09805
           Y1           0.03619   0.22839
           Z1          -0.07963  -0.05799   0.14458
           X2           0.00346  -0.00219   0.00391   0.14631
           Y2          -0.00112  -0.00131  -0.01728   0.13542   0.16688
           Z2           0.00131  -0.01782  -0.02550   0.01175  -0.02220
           X3          -0.02315  -0.00306   0.00594  -0.05304  -0.02578
           Y3           0.01346  -0.04246  -0.02429  -0.01586  -0.03245
           Z3           0.02855  -0.01284  -0.04810  -0.06132  -0.02687
           X4          -0.03928   0.02640   0.03150  -0.00052   0.00085
           Y4           0.02348  -0.01303  -0.00065  -0.00460   0.00188
           Z4           0.00882   0.00286  -0.00324  -0.01376  -0.00404
           X5           0.00108   0.00194  -0.00135  -0.09676  -0.11049
           Y5          -0.00116   0.00063   0.00177  -0.11380  -0.13424
           Z5          -0.00055   0.00125   0.00060   0.05748   0.06950
           X6          -0.04015  -0.05928   0.03964   0.00056   0.00113
           Y6          -0.07085  -0.17221   0.09844   0.00102  -0.00075
           Z6           0.04151   0.08454  -0.06834   0.00193   0.00088
                          Z2        X3        Y3        Z3        X4
           Z2           0.25489
           X3          -0.05143   0.46206
           Y3          -0.00551   0.06527   0.08509
           Z3          -0.16981   0.33992   0.08063   0.46547
           X4          -0.00006  -0.36447  -0.05671  -0.31034   0.40369
           Y4          -0.00838  -0.03954  -0.01734  -0.02515   0.02673
           Z4          -0.00968  -0.28385  -0.03384  -0.23737   0.27777
           X5           0.04118  -0.01112  -0.00781  -0.00269   0.00227
           Y5           0.05290  -0.00370  -0.00369  -0.00727   0.00093
           Z5          -0.05027  -0.02154  -0.02204  -0.00001   0.00141
           X6          -0.00274  -0.01027   0.00165   0.00587  -0.00170
           Y6           0.00101   0.00680   0.01085  -0.00849   0.00180
           Z6           0.00037   0.01097   0.00505  -0.01018  -0.00029
                          Y4        Z4        X5        Y5        Z5
           Y4           0.02436
           Z4           0.03805   0.25439
           X5          -0.00022   0.00122   0.10397
           Y5           0.00008   0.00125   0.11744   0.13716
           Z5           0.00033  -0.00050  -0.03769  -0.04912   0.04998
           X6          -0.00585   0.00980   0.00056   0.00028   0.00089
           Y6           0.00404  -0.00429  -0.00085   0.00006   0.00008
           Z6          -0.00419  -0.00360  -0.00067   0.00047   0.00019
                          X6        Y6        Z6
           X6           0.05101
           Y6           0.06207   0.15801
           Z6          -0.05345  -0.08675   0.08156
 ITU=  0
     Eigenvalues ---    0.00222   0.00856   0.03040   0.04646   0.05669
     Eigenvalues ---    0.07204   0.10731   0.19653   0.34014   0.38659
     Eigenvalues ---    0.40635   1.35213
 Angle between quadratic step and forces=  80.11 degrees.
 Linear search not attempted -- first point.
 B after Tr=    -0.000113   -0.000579   -0.000511
         Rot=    1.000000    0.000081    0.000051   -0.000137 Ang=   0.02 deg.
 Variable       Old X    -DE/DX   Delta X   Delta X   Delta X     New X
                                 (Linear)    (Quad)   (Total)
    X1        1.03414   0.00001   0.00000  -0.00054  -0.00090   1.03323
    Y1        0.38203   0.00008   0.00000  -0.00053  -0.00060   0.38143
    Z1        1.40643  -0.00004   0.00000  -0.00041  -0.00087   1.40556
    X2        1.26133   0.00001   0.00000   0.00056   0.00148   1.26281
    Y2       -2.18773   0.00001   0.00000  -0.00074  -0.00165  -2.18938
    Z2       -4.19655  -0.00008   0.00000   0.00017   0.00014  -4.19642
    X3        2.38443  -0.00006   0.00000   0.00057   0.00098   2.38541
    Y3       -1.43800   0.00001   0.00000   0.00056   0.00043  -1.43756
    Z3       -1.23256   0.00001   0.00000   0.00026   0.00022  -1.23234
    X4        4.32041   0.00010   0.00000   0.00112   0.00132   4.32173
    Y4       -1.22685   0.00000   0.00000   0.00082   0.00146  -1.22539
    Z4        0.26890   0.00006   0.00000  -0.00016  -0.00004   0.26887
    X5       -0.32921  -0.00003   0.00000  -0.00375  -0.00241  -0.33162
    Y5       -4.04073  -0.00002   0.00000   0.00362   0.00239  -4.03834
    Z5       -3.48170   0.00003   0.00000   0.00240   0.00250  -3.47919
    X6        0.02049  -0.00003   0.00000  -0.00049  -0.00046   0.02002
    Y6       -1.52808  -0.00008   0.00000  -0.00191  -0.00204  -1.53012
    Z6        2.76417   0.00002   0.00000  -0.00169  -0.00196   2.76221
         Item               Value     Threshold  Converged?
 Maximum Force            0.000099     0.000450     YES
 RMS     Force            0.000049     0.000300     YES
 Maximum Displacement     0.002504     0.001800     NO 
 RMS     Displacement     0.001452     0.001200     NO 
 Predicted change in Energy=-1.236972D-07
 GradGradGradGradGradGradGradGradGradGradGradGradGradGradGradGradGradGrad

 Leave Link  103 at Wed Aug  3 20:59:13 2016, MaxMem=    33554432 cpu:         0.1
 (Enter /home/proyectos/fulerenos/M3C-v2.0/M3C-deps_CCC/g09-AM64L-G09RevC.01/l9999.exe)
 1\1\GINC-DEPAZ30\Freq\RB3LYP\6-311++G(3df,2p)\C2H2S2\NAGUIRRE\03-Aug-2
 016\0\\#p b3lyp/6-311++G(3df,2p) freq\\b3lyp opt\\0,1\S,0.547242,0.202
 16,0.74425\S,0.667467,-1.157697,-2.220721\C,1.261788,-0.760956,-0.6522
 43\C,2.286264,-0.649221,0.142297\H,-0.174213,-2.138263,-1.842435\H,0.0
 10842,-0.808624,1.462734\\Version=EM64L-G09RevE.01\State=1-A\HF=-873.7
 495775\RMSD=2.658e-09\RMSF=4.854e-05\ZeroPoint=0.0266767\Thermal=0.031
 9717\Dipole=-1.2346413,-0.3205958,-0.0353582\DipoleDeriv=-0.1283429,0.
 2229243,0.1914267,0.102877,0.1518509,-0.2772564,0.0009188,-0.2383078,-
 0.2947127,0.0067213,0.0538024,-0.0746381,0.0891507,0.0422468,-0.166827
 6,0.0056891,-0.1819355,0.0269305,-0.2828707,-0.1886329,-0.3952207,-0.0
 013299,0.0724061,0.4806481,-0.2251961,0.3281975,0.4505291,0.282664,-0.
 0541175,0.2220427,-0.0732427,-0.2600083,-0.0343818,0.1425843,0.0509424
 ,-0.1418313,0.0816837,-0.0472431,-0.0265251,-0.0830863,0.0542665,-0.03
 52741,0.0295956,0.0613309,-0.0735929,0.0401446,0.0132668,0.0829146,-0.
 0343688,-0.060762,0.0330918,0.0464082,-0.0202276,0.0326773\Polar=65.01
 65783,-2.6945548,55.157593,0.0394353,13.4716676,78.9324465\PG=C01 [X(C
 2H2S2)]\NImag=0\\0.09804633,0.03618516,0.22838504,-0.07963113,-0.05798
 666,0.14458388,0.00345581,-0.00218923,0.00390906,0.14631297,-0.0011215
 5,-0.00131445,-0.01727765,0.13541672,0.16687576,0.00130773,-0.01781953
 ,-0.02549988,0.01174862,-0.02219512,0.25489041,-0.02315467,-0.00305937
 ,0.00593537,-0.05304460,-0.02577768,-0.05142932,0.46205575,0.01346163,
 -0.04246336,-0.02429310,-0.01585555,-0.03244834,-0.00551253,0.06527313
 ,0.08508968,0.02854766,-0.01284075,-0.04810393,-0.06131597,-0.02687305
 ,-0.16980522,0.33991543,0.08062693,0.46546909,-0.03927820,0.02640106,0
 .03149897,-0.00051578,0.00084723,-0.00005806,-0.36446705,-0.05671207,-
 0.31033533,0.40368827,0.02347784,-0.01303110,-0.00065447,-0.00460020,0
 .00188406,-0.00838198,-0.03953554,-0.01733610,-0.02515424,0.02673041,0
 .02436334,0.00881831,0.00286274,-0.00324182,-0.01376041,-0.00403831,-0
 .00968158,-0.28384503,-0.03383555,-0.23737335,0.27777056,0.03804867,0.
 25438791,0.00108290,0.00193964,-0.00135041,-0.09676442,-0.11049160,0.0
 4117570,-0.01111619,-0.00781426,-0.00268580,0.00226963,-0.00022451,0.0
 0121837,0.10397267,-0.00115798,0.00063071,0.00176824,-0.11379602,-0.13
 424418,0.05289837,-0.00370002,-0.00369068,-0.00726711,0.00093294,0.000
 08221,0.00125086,0.11744330,0.13716354,-0.00055376,0.00124832,0.000602
 86,0.05748491,0.06950208,-0.05026934,-0.02154265,-0.02203983,-0.000005
 89,0.00141171,0.00033475,-0.00049563,-0.03768543,-0.04912317,0.0499799
 5,-0.04015217,-0.05927725,0.03963813,0.00055602,0.00112688,-0.00274467
 ,-0.01027323,0.00164712,0.00587401,-0.00169685,-0.00584800,0.00979821,
 0.00055542,0.00027777,0.00088522,0.05101081,-0.07084510,-0.17220684,0.
 09844364,0.00102427,-0.00075285,0.00101079,0.00679949,0.01084880,-0.00
 849178,0.00180042,0.00403758,-0.00428840,-0.00085256,0.00005840,0.0000
 7785,0.06207348,0.15801492,0.04151119,0.08453588,-0.06834111,0.0019337
 8,0.00088205,0.00036561,0.01096620,0.00505409,-0.01018070,-0.00028785,
 -0.00419272,-0.00359554,-0.00067242,0.00047281,0.00018804,-0.05345091,
 -0.08675211,0.08156368\\-0.00001157,-0.00008236,0.00004076,-0.00000836
 ,-0.00001382,0.00008206,0.00006340,-0.00000631,-0.00001268,-0.00009876
 ,-0.00000048,-0.00005523,0.00002766,0.00002475,-0.00003175,0.00002763,
 0.00007822,-0.00002314\\\@


 IT PROBABLY IS NOT POSSIBLE FOR A SCIENTIST TO INTERROGATE NATURE 
 FROM A WHOLLY DISINTERESTED VIEWPOINT.
 EVEN IF HE HAS NO PARTICULAR AXE TO GRIND, HE IS LIKELY TO HAVE 
 A DISTINCTIVE WAY OF VIEWING NATURE.

                                                   -- JOHN LOSEE
 Job cpu time:       0 days  0 hours 18 minutes  2.4 seconds.
 File lengths (MBytes):  RWF=     30 Int=      0 D2E=      0 Chk=      3 Scr=      1
 Normal termination of Gaussian 09 at Wed Aug  3 20:59:13 2016.
