 Entering Gaussian System, Link 0=/home/proyectos/fulerenos/M3C-v2.0/M3C-deps_CCC/g09-AM64L-G09RevC.01/g09
 Initial command:
 /home/proyectos/fulerenos/M3C-v2.0/M3C-deps_CCC/g09-AM64L-G09RevC.01/l1.exe "/scratch/naguirre/gaussian/Gau-22901.inp" -scrdir="/scratch/naguirre/gaussian/"
 Entering Link 1 = /home/proyectos/fulerenos/M3C-v2.0/M3C-deps_CCC/g09-AM64L-G09RevC.01/l1.exe PID=     22908.
  
 Copyright (c) 1988,1990,1992,1993,1995,1998,2003,2009,2015,
            Gaussian, Inc.  All Rights Reserved.
  
 This is part of the Gaussian(R) 09 program.  It is based on
 the Gaussian(R) 03 system (copyright 2003, Gaussian, Inc.),
 the Gaussian(R) 98 system (copyright 1998, Gaussian, Inc.),
 the Gaussian(R) 94 system (copyright 1995, Gaussian, Inc.),
 the Gaussian 92(TM) system (copyright 1992, Gaussian, Inc.),
 the Gaussian 90(TM) system (copyright 1990, Gaussian, Inc.),
 the Gaussian 88(TM) system (copyright 1988, Gaussian, Inc.),
 the Gaussian 86(TM) system (copyright 1986, Carnegie Mellon
 University), and the Gaussian 82(TM) system (copyright 1983,
 Carnegie Mellon University). Gaussian is a federally registered
 trademark of Gaussian, Inc.
  
 This software contains proprietary and confidential information,
 including trade secrets, belonging to Gaussian, Inc.
  
 This software is provided under written license and may be
 used, copied, transmitted, or stored only in accord with that
 written license.
  
 The following legend is applicable only to US Government
 contracts under FAR:
  
                    RESTRICTED RIGHTS LEGEND
  
 Use, reproduction and disclosure by the US Government is
 subject to restrictions as set forth in subparagraphs (a)
 and (c) of the Commercial Computer Software - Restricted
 Rights clause in FAR 52.227-19.
  
 Gaussian, Inc.
 340 Quinnipiac St., Bldg. 40, Wallingford CT 06492
  
  
 ---------------------------------------------------------------
 Warning -- This program may not be used in any manner that
 competes with the business of Gaussian, Inc. or will provide
 assistance to any competitor of Gaussian, Inc.  The licensee
 of this program is prohibited from giving any competitor of
 Gaussian, Inc. access to this program.  By using this program,
 the user acknowledges that Gaussian, Inc. is engaged in the
 business of creating and licensing software in the field of
 computational chemistry and represents and warrants to the
 licensee that it is not a competitor of Gaussian, Inc. and that
 it will not use this program in any manner prohibited above.
 ---------------------------------------------------------------
  

 Cite this work as:
 Gaussian 09, Revision E.01,
 M. J. Frisch, G. W. Trucks, H. B. Schlegel, G. E. Scuseria, 
 M. A. Robb, J. R. Cheeseman, G. Scalmani, V. Barone, B. Mennucci, 
 G. A. Petersson, H. Nakatsuji, M. Caricato, X. Li, H. P. Hratchian, 
 A. F. Izmaylov, J. Bloino, G. Zheng, J. L. Sonnenberg, M. Hada, 
 M. Ehara, K. Toyota, R. Fukuda, J. Hasegawa, M. Ishida, T. Nakajima, 
 Y. Honda, O. Kitao, H. Nakai, T. Vreven, J. A. Montgomery, Jr., 
 J. E. Peralta, F. Ogliaro, M. Bearpark, J. J. Heyd, E. Brothers, 
 K. N. Kudin, V. N. Staroverov, T. Keith, R. Kobayashi, J. Normand, 
 K. Raghavachari, A. Rendell, J. C. Burant, S. S. Iyengar, J. Tomasi, 
 M. Cossi, N. Rega, J. M. Millam, M. Klene, J. E. Knox, J. B. Cross, 
 V. Bakken, C. Adamo, J. Jaramillo, R. Gomperts, R. E. Stratmann, 
 O. Yazyev, A. J. Austin, R. Cammi, C. Pomelli, J. W. Ochterski, 
 R. L. Martin, K. Morokuma, V. G. Zakrzewski, G. A. Voth, 
 P. Salvador, J. J. Dannenberg, S. Dapprich, A. D. Daniels, 
 O. Farkas, J. B. Foresman, J. V. Ortiz, J. Cioslowski, 
 and D. J. Fox, Gaussian, Inc., Wallingford CT, 2013.
 
 ******************************************
 Gaussian 09:  EM64L-G09RevE.01 30-Nov-2015
                 3-Aug-2016 
 ******************************************
 %NProcShared=4
 Will use up to    4 processors via shared memory.
 ------------------------------
 #p b3lyp/6-311++G(3df,2p) freq
 ------------------------------
 1/10=4,30=1,38=1/1,3;
 2/12=2,17=6,18=5,40=1/2;
 3/5=4,6=6,7=1216,11=2,16=1,25=1,30=1,71=2,74=-5,140=1/1,2,3;
 4//1;
 5/5=2,38=5,98=1/2;
 8/6=4,10=90,11=11/1;
 11/6=1,8=1,9=11,15=111,16=1/1,2,10;
 10/6=1/2;
 6/7=2,8=2,9=2,10=2,18=1,28=1/1;
 7/8=1,10=1,25=1/1,2,3,16;
 1/10=4,30=1/3;
 99//99;
 Leave Link    1 at Wed Aug  3 22:56:39 2016, MaxMem=           0 cpu:         0.2
 (Enter /home/proyectos/fulerenos/M3C-v2.0/M3C-deps_CCC/g09-AM64L-G09RevC.01/l101.exe)
 ---------
 b3lyp opt
 ---------
 Symbolic Z-matrix:
 Charge =  0 Multiplicity = 3
 S                    -0.09029  -0.11613   0.58005 
 C                     0.15931   1.3392   -0.16132 
 C                    -1.5787   -0.73236   0.2129 
 H                    -0.60257   1.78743  -0.80277 
 H                    -2.26801  -0.19764  -0.44419 
 
 NAtoms=      5 NQM=        5 NQMF=       0 NMMI=      0 NMMIF=      0
                NMic=       0 NMicF=      0.
                    Isotopes and Nuclear Properties:
 (Nuclear quadrupole moments (NQMom) in fm**2, nuclear magnetic moments (NMagM)
  in nuclear magnetons)

  Atom         1           2           3           4           5
 IAtWgt=          32          12          12           1           1
 AtmWgt=  31.9720718  12.0000000  12.0000000   1.0078250   1.0078250
 NucSpn=           0           0           0           1           1
 AtZEff=   0.0000000   0.0000000   0.0000000   0.0000000   0.0000000
 NQMom=    0.0000000   0.0000000   0.0000000   0.0000000   0.0000000
 NMagM=    0.0000000   0.0000000   0.0000000   2.7928460   2.7928460
 AtZNuc=  16.0000000   6.0000000   6.0000000   1.0000000   1.0000000
 Leave Link  101 at Wed Aug  3 22:56:39 2016, MaxMem=    33554432 cpu:         0.2
 (Enter /home/proyectos/fulerenos/M3C-v2.0/M3C-deps_CCC/g09-AM64L-G09RevC.01/l103.exe)

 GradGradGradGradGradGradGradGradGradGradGradGradGradGradGradGradGradGrad
 Berny optimization.
 Initialization pass.
 Trust Radius=3.00D-01 FncErr=1.00D-07 GrdErr=1.00D-07
 Number of steps in this run=      2 maximum allowed number of steps=      2.
 GradGradGradGradGradGradGradGradGradGradGradGradGradGradGradGradGradGrad

 Leave Link  103 at Wed Aug  3 22:56:39 2016, MaxMem=    33554432 cpu:         0.1
 (Enter /home/proyectos/fulerenos/M3C-v2.0/M3C-deps_CCC/g09-AM64L-G09RevC.01/l202.exe)
                          Input orientation:                          
 ---------------------------------------------------------------------
 Center     Atomic      Atomic             Coordinates (Angstroms)
 Number     Number       Type             X           Y           Z
 ---------------------------------------------------------------------
      1         16           0       -0.090287   -0.116133    0.580045
      2          6           0        0.159306    1.339203   -0.161316
      3          6           0       -1.578701   -0.732364    0.212896
      4          1           0       -0.602573    1.787427   -0.802772
      5          1           0       -2.268008   -0.197639   -0.444185
 ---------------------------------------------------------------------
                    Distance matrix (angstroms):
                    1          2          3          4          5
     1  S    0.000000
     2  C    1.652246   0.000000
     3  C    1.652246   2.729852   0.000000
     4  H    2.407937   1.092168   2.886824   0.000000
     5  H    2.407937   2.886824   1.092168   2.615863   0.000000
 Stoichiometry    C2H2S(3)
 Framework group  C2V[C2(S),SGV(C2H2)]
 Deg. of freedom     4
 Full point group                 C2V     NOp   4
 Largest Abelian subgroup         C2V     NOp   4
 Largest concise Abelian subgroup C2      NOp   2
                         Standard orientation:                         
 ---------------------------------------------------------------------
 Center     Atomic      Atomic             Coordinates (Angstroms)
 Number     Number       Type             X           Y           Z
 ---------------------------------------------------------------------
      1         16           0        0.000000   -0.000000    0.507212
      2          6           0       -0.000000    1.364926   -0.423859
      3          6           0        0.000000   -1.364926   -0.423859
      4          1           0       -0.000000    1.307932   -1.514539
      5          1           0        0.000000   -1.307932   -1.514539
 ---------------------------------------------------------------------
 Rotational constants (GHZ):     29.7171992     10.4935959      7.7551383
 Leave Link  202 at Wed Aug  3 22:56:39 2016, MaxMem=    33554432 cpu:         0.0
 (Enter /home/proyectos/fulerenos/M3C-v2.0/M3C-deps_CCC/g09-AM64L-G09RevC.01/l301.exe)
 Standard basis: 6-311++G(3df,2p) (5D, 7F)
 Ernie: Thresh=  0.10000D-02 Tol=  0.10000D-05 Strict=F.
 There are    64 symmetry adapted cartesian basis functions of A1  symmetry.
 There are    20 symmetry adapted cartesian basis functions of A2  symmetry.
 There are    28 symmetry adapted cartesian basis functions of B1  symmetry.
 There are    51 symmetry adapted cartesian basis functions of B2  symmetry.
 There are    55 symmetry adapted basis functions of A1  symmetry.
 There are    19 symmetry adapted basis functions of A2  symmetry.
 There are    26 symmetry adapted basis functions of B1  symmetry.
 There are    45 symmetry adapted basis functions of B2  symmetry.
   145 basis functions,   212 primitive gaussians,   163 cartesian basis functions
    16 alpha electrons       14 beta electrons
       nuclear repulsion energy        83.7204811429 Hartrees.
 IExCor=  402 DFT=T Ex+Corr=B3LYP ExCW=0 ScaHFX=  0.200000
 ScaDFX=  0.800000  0.720000  1.000000  0.810000 ScalE2=  1.000000  1.000000
 IRadAn=      0 IRanWt=     -1 IRanGd=            0 ICorTp=0 IEmpDi=  4
 NAtoms=    5 NActive=    5 NUniq=    3 SFac= 2.78D+00 NAtFMM=   60 NAOKFM=F Big=F
 Integral buffers will be    131072 words long.
 Raffenetti 2 integral format.
 Two-electron integral symmetry is turned on.
 Leave Link  301 at Wed Aug  3 22:56:39 2016, MaxMem=    33554432 cpu:         0.2
 (Enter /home/proyectos/fulerenos/M3C-v2.0/M3C-deps_CCC/g09-AM64L-G09RevC.01/l302.exe)
 NPDir=0 NMtPBC=     1 NCelOv=     1 NCel=       1 NClECP=     1 NCelD=      1
         NCelK=      1 NCelE2=     1 NClLst=     1 CellRange=     0.0.
 One-electron integrals computed using PRISM.
 One-electron integral symmetry used in STVInt
 NBasis=   145 RedAO= T EigKep=  3.16D-04  NBF=    55    19    26    45
 NBsUse=   145 1.00D-06 EigRej= -1.00D+00 NBFU=    55    19    26    45
 Precomputing XC quadrature grid using
 IXCGrd= 4 IRadAn=           0 IRanWt=          -1 IRanGd=           0 AccXCQ= 0.00D+00.
 Generated NRdTot=       0 NPtTot=           0 NUsed=           0 NTot=          32
 NSgBfM=   163   163   163   163   163 MxSgAt=     5 MxSgA2=     5.
 Leave Link  302 at Wed Aug  3 22:56:39 2016, MaxMem=    33554432 cpu:         0.9
 (Enter /home/proyectos/fulerenos/M3C-v2.0/M3C-deps_CCC/g09-AM64L-G09RevC.01/l303.exe)
 DipDrv:  MaxL=1.
 Leave Link  303 at Wed Aug  3 22:56:40 2016, MaxMem=    33554432 cpu:         0.1
 (Enter /home/proyectos/fulerenos/M3C-v2.0/M3C-deps_CCC/g09-AM64L-G09RevC.01/l401.exe)
 ExpMin= 3.60D-02 ExpMax= 9.34D+04 ExpMxC= 3.17D+03 IAcc=3 IRadAn=         5 AccDes= 0.00D+00
 Harris functional with IExCor=  402 and IRadAn=       5 diagonalized for initial guess.
 HarFok:  IExCor=  402 AccDes= 0.00D+00 IRadAn=         5 IDoV= 1 UseB2=F ITyADJ=14
 ICtDFT=  3500011 ScaDFX=  1.000000  1.000000  1.000000  1.000000
 FoFCou: FMM=F IPFlag=           0 FMFlag=      100000 FMFlg1=           0
         NFxFlg=           0 DoJE=T BraDBF=F KetDBF=T FulRan=T
         wScrn=  0.000000 ICntrl=     500 IOpCl=  0 I1Cent=   200000004 NGrid=           0
         NMat0=    1 NMatS0=      1 NMatT0=    0 NMatD0=    1 NMtDS0=    0 NMtDT0=    0
 Petite list used in FoFCou.
 Harris En= -475.369755133647    
 JPrj=0 DoOrth=F DoCkMO=F.
 Initial guess orbital symmetries:
 Alpha Orbitals:
       Occupied  (A1) (A1) (B2) (A1) (B2) (A1) (B1) (A1) (B2) (A1)
                 (B2) (A1) (B1) (A1) (B2) (A2)
       Virtual   (B1) (A1) (B2) (A1) (A1) (B1) (B2) (B2) (A1) (A2)
                 (B1) (A1) (A1) (B2) (A1) (B2) (A1) (B2) (B2) (B1)
                 (A2) (A1) (A1) (B2) (B1) (A1) (B1) (A1) (B2) (B2)
                 (A2) (A2) (B1) (A1) (B2) (A1) (A1) (B2) (A1) (A2)
                 (B1) (B2) (A1) (B2) (B2) (A1) (A2) (B1) (A1) (B2)
                 (B1) (A1) (B2) (A2) (A1) (B2) (A1) (B2) (A1) (B1)
                 (B2) (A2) (B1) (A1) (A2) (B1) (B2) (B1) (A1) (A1)
                 (B2) (B2) (A1) (B1) (A2) (A1) (B2) (A1) (B2) (A1)
                 (B2) (A2) (B1) (A2) (B1) (A1) (B2) (A1) (A2) (B2)
                 (A1) (B1) (B2) (A1) (A2) (B2) (B1) (A1) (B2) (A1)
                 (B2) (A2) (B1) (A1) (B2) (B1) (A1) (A2) (A1) (B2)
                 (A1) (B2) (A2) (B1) (B2) (A1) (B1) (A2) (A1) (B2)
                 (A1) (B2) (A1) (B1) (A1) (B2) (B2) (A1) (A1)
 Beta  Orbitals:
       Occupied  (A1) (A1) (B2) (A1) (B2) (A1) (B1) (A1) (B2) (A1)
                 (B2) (A1) (B1) (A1)
       Virtual   (B2) (A2) (B1) (A1) (B2) (A1) (A1) (B1) (B2) (B2)
                 (A1) (A2) (B1) (A1) (A1) (B2) (A1) (B2) (A1) (B2)
                 (B2) (B1) (A2) (A1) (A1) (B2) (B1) (A1) (B1) (A1)
                 (B2) (B2) (A2) (A2) (B1) (A1) (B2) (A1) (A1) (B2)
                 (A1) (A2) (B1) (B2) (A1) (B2) (B2) (A1) (A2) (B1)
                 (A1) (B2) (B1) (A1) (B2) (A2) (A1) (B2) (A1) (B2)
                 (A1) (B1) (B2) (A2) (B1) (A1) (A2) (B1) (B2) (B1)
                 (A1) (A1) (B2) (B2) (A1) (B1) (A2) (A1) (B2) (A1)
                 (B2) (A1) (B2) (A2) (B1) (A2) (B1) (A1) (B2) (A1)
                 (A2) (B2) (A1) (B1) (B2) (A1) (A2) (B2) (B1) (A1)
                 (B2) (A1) (B2) (A2) (B1) (A1) (B2) (B1) (A1) (A2)
                 (A1) (B2) (A1) (B2) (A2) (B1) (B2) (A1) (B1) (A2)
                 (A1) (B2) (A1) (B2) (A1) (B1) (A1) (B2) (B2) (A1)
                 (A1)
 The electronic state of the initial guess is 3-B1.
 Initial guess <Sx>= 0.0000 <Sy>= 0.0000 <Sz>= 1.0000 <S**2>= 2.0000 S= 1.0000
 Leave Link  401 at Wed Aug  3 22:56:40 2016, MaxMem=    33554432 cpu:         1.8
 (Enter /home/proyectos/fulerenos/M3C-v2.0/M3C-deps_CCC/g09-AM64L-G09RevC.01/l502.exe)
 UHF open shell SCF:
 Using DIIS extrapolation, IDIIS=  1040.
 Integral symmetry usage will be decided dynamically.
 IVT=      100709 IEndB=      100709 NGot=    33554432 MDV=    33497096
 LenX=    33497096 LenY=    33470086
 Requested convergence on RMS density matrix=1.00D-08 within 128 cycles.
 Requested convergence on MAX density matrix=1.00D-06.
 Requested convergence on             energy=1.00D-06.
 No special actions if energy rises.
 Fock matrices will be formed incrementally for  20 cycles.

 Cycle   1  Pass 1  IDiag  1:
 FoFJK:  IHMeth= 1 ICntrl=       0 DoSepK=F KAlg= 0 I1Cent=   0 FoldK=F
 IRaf= 990000000 NMat=   1 IRICut=       1 DoRegI=T DoRafI=F ISym2E= 1.
 FoFCou: FMM=F IPFlag=           0 FMFlag=      100000 FMFlg1=           0
         NFxFlg=           0 DoJE=F BraDBF=F KetDBF=F FulRan=T
         wScrn=  0.000000 ICntrl=       0 IOpCl=  1 I1Cent=           0 NGrid=           0
         NMat0=    1 NMatS0=      1 NMatT0=    0 NMatD0=    1 NMtDS0=    0 NMtDT0=    0
 Petite list used in FoFCou.
 E= -475.346204774456    
 DIIS: error= 2.73D-02 at cycle   1 NSaved=   1.
 NSaved= 1 IEnMin= 1 EnMin= -475.346204774456     IErMin= 1 ErrMin= 2.73D-02
 ErrMax= 2.73D-02  0.00D+00 EMaxC= 1.00D-01 BMatC= 4.08D-01 BMatP= 4.08D-01
 IDIUse=3 WtCom= 7.27D-01 WtEn= 2.73D-01
 Coeff-Com:  0.100D+01
 Coeff-En:   0.100D+01
 Coeff:      0.100D+01
 Gap=     0.084 Goal=   None    Shift=    0.000
 Gap=     0.179 Goal=   None    Shift=    0.000
 GapD=    0.084 DampG=0.500 DampE=0.500 DampFc=0.2500 IDamp=-1.
 Damping current iteration by 2.50D-01
 RMSDP=3.56D-03 MaxDP=1.37D-01              OVMax= 3.34D-01

 Cycle   2  Pass 1  IDiag  1:
 RMSU=  8.88D-04    CP:  9.96D-01
 E= -475.379990675885     Delta-E=       -0.033785901429 Rises=F Damp=T
 DIIS: error= 1.50D-02 at cycle   2 NSaved=   2.
 NSaved= 2 IEnMin= 2 EnMin= -475.379990675885     IErMin= 2 ErrMin= 1.50D-02
 ErrMax= 1.50D-02  0.00D+00 EMaxC= 1.00D-01 BMatC= 9.30D-02 BMatP= 4.08D-01
 IDIUse=3 WtCom= 8.50D-01 WtEn= 1.50D-01
 Coeff-Com: -0.704D+00 0.170D+01
 Coeff-En:   0.000D+00 0.100D+01
 Coeff:     -0.598D+00 0.160D+01
 Gap=     0.140 Goal=   None    Shift=    0.000
 Gap=     0.121 Goal=   None    Shift=    0.000
 RMSDP=1.00D-03 MaxDP=3.73D-02 DE=-3.38D-02 OVMax= 1.94D-01

 Cycle   3  Pass 1  IDiag  1:
 RMSU=  8.55D-04    CP:  9.96D-01  1.59D+00
 E= -475.436477453004     Delta-E=       -0.056486777119 Rises=F Damp=F
 DIIS: error= 3.33D-03 at cycle   3 NSaved=   3.
 NSaved= 3 IEnMin= 3 EnMin= -475.436477453004     IErMin= 3 ErrMin= 3.33D-03
 ErrMax= 3.33D-03  0.00D+00 EMaxC= 1.00D-01 BMatC= 2.79D-03 BMatP= 9.30D-02
 IDIUse=3 WtCom= 9.67D-01 WtEn= 3.33D-02
 Coeff-Com: -0.827D-01 0.205D+00 0.877D+00
 Coeff-En:   0.000D+00 0.000D+00 0.100D+01
 Coeff:     -0.799D-01 0.199D+00 0.881D+00
 Gap=     0.150 Goal=   None    Shift=    0.000
 Gap=     0.120 Goal=   None    Shift=    0.000
 RMSDP=4.02D-04 MaxDP=1.77D-02 DE=-5.65D-02 OVMax= 2.95D-02

 Cycle   4  Pass 1  IDiag  1:
 RMSU=  3.75D-04    CP:  9.96D-01  1.63D+00  8.37D-01
 E= -475.437437548838     Delta-E=       -0.000960095834 Rises=F Damp=F
 DIIS: error= 1.76D-03 at cycle   4 NSaved=   4.
 NSaved= 4 IEnMin= 4 EnMin= -475.437437548838     IErMin= 4 ErrMin= 1.76D-03
 ErrMax= 1.76D-03  0.00D+00 EMaxC= 1.00D-01 BMatC= 1.17D-03 BMatP= 2.79D-03
 IDIUse=3 WtCom= 9.82D-01 WtEn= 1.76D-02
 Coeff-Com:  0.229D-01-0.433D-01 0.367D+00 0.654D+00
 Coeff-En:   0.000D+00 0.000D+00 0.000D+00 0.100D+01
 Coeff:      0.225D-01-0.425D-01 0.360D+00 0.660D+00
 Gap=     0.152 Goal=   None    Shift=    0.000
 Gap=     0.120 Goal=   None    Shift=    0.000
 RMSDP=1.78D-04 MaxDP=5.94D-03 DE=-9.60D-04 OVMax= 1.16D-02

 Cycle   5  Pass 1  IDiag  1:
 RMSU=  9.55D-05    CP:  9.96D-01  1.65D+00  9.87D-01  7.95D-01
 E= -475.437848097485     Delta-E=       -0.000410548647 Rises=F Damp=F
 DIIS: error= 4.30D-04 at cycle   5 NSaved=   5.
 NSaved= 5 IEnMin= 5 EnMin= -475.437848097485     IErMin= 5 ErrMin= 4.30D-04
 ErrMax= 4.30D-04  0.00D+00 EMaxC= 1.00D-01 BMatC= 5.93D-05 BMatP= 1.17D-03
 IDIUse=3 WtCom= 9.96D-01 WtEn= 4.30D-03
 Coeff-Com:  0.105D-01-0.249D-01-0.556D-01 0.305D-01 0.104D+01
 Coeff-En:   0.000D+00 0.000D+00 0.000D+00 0.000D+00 0.100D+01
 Coeff:      0.105D-01-0.248D-01-0.554D-01 0.304D-01 0.104D+01
 Gap=     0.154 Goal=   None    Shift=    0.000
 Gap=     0.120 Goal=   None    Shift=    0.000
 RMSDP=6.40D-05 MaxDP=3.42D-03 DE=-4.11D-04 OVMax= 7.00D-03

 Cycle   6  Pass 1  IDiag  1:
 RMSU=  3.91D-05    CP:  9.96D-01  1.65D+00  1.02D+00  8.92D-01  1.23D+00
 E= -475.437901046136     Delta-E=       -0.000052948651 Rises=F Damp=F
 DIIS: error= 2.76D-04 at cycle   6 NSaved=   6.
 NSaved= 6 IEnMin= 6 EnMin= -475.437901046136     IErMin= 6 ErrMin= 2.76D-04
 ErrMax= 2.76D-04  0.00D+00 EMaxC= 1.00D-01 BMatC= 1.46D-05 BMatP= 5.93D-05
 IDIUse=3 WtCom= 9.97D-01 WtEn= 2.76D-03
 Coeff-Com: -0.393D-02 0.414D-02-0.741D-01-0.902D-01 0.300D+00 0.864D+00
 Coeff-En:   0.000D+00 0.000D+00 0.000D+00 0.000D+00 0.000D+00 0.100D+01
 Coeff:     -0.392D-02 0.413D-02-0.739D-01-0.900D-01 0.299D+00 0.865D+00
 Gap=     0.154 Goal=   None    Shift=    0.000
 Gap=     0.120 Goal=   None    Shift=    0.000
 RMSDP=2.73D-05 MaxDP=1.43D-03 DE=-5.29D-05 OVMax= 2.95D-03

 Cycle   7  Pass 1  IDiag  1:
 RMSU=  1.03D-05    CP:  9.96D-01  1.66D+00  1.03D+00  9.18D-01  1.42D+00
                    CP:  1.05D+00
 E= -475.437909658246     Delta-E=       -0.000008612110 Rises=F Damp=F
 DIIS: error= 7.60D-05 at cycle   7 NSaved=   7.
 NSaved= 7 IEnMin= 7 EnMin= -475.437909658246     IErMin= 7 ErrMin= 7.60D-05
 ErrMax= 7.60D-05  0.00D+00 EMaxC= 1.00D-01 BMatC= 1.39D-06 BMatP= 1.46D-05
 IDIUse=1 WtCom= 1.00D+00 WtEn= 0.00D+00
 Coeff-Com: -0.395D-02 0.645D-02-0.106D-01-0.195D-01-0.572D-01 0.171D+00
 Coeff-Com:  0.914D+00
 Coeff:     -0.395D-02 0.645D-02-0.106D-01-0.195D-01-0.572D-01 0.171D+00
 Coeff:      0.914D+00
 Gap=     0.154 Goal=   None    Shift=    0.000
 Gap=     0.120 Goal=   None    Shift=    0.000
 RMSDP=7.44D-06 MaxDP=4.78D-04 DE=-8.61D-06 OVMax= 8.51D-04

 Cycle   8  Pass 1  IDiag  1:
 RMSU=  3.32D-06    CP:  9.96D-01  1.67D+00  1.03D+00  9.27D-01  1.46D+00
                    CP:  1.15D+00  1.06D+00
 E= -475.437910387182     Delta-E=       -0.000000728936 Rises=F Damp=F
 DIIS: error= 1.55D-05 at cycle   8 NSaved=   8.
 NSaved= 8 IEnMin= 8 EnMin= -475.437910387182     IErMin= 8 ErrMin= 1.55D-05
 ErrMax= 1.55D-05  0.00D+00 EMaxC= 1.00D-01 BMatC= 6.27D-08 BMatP= 1.39D-06
 IDIUse=1 WtCom= 1.00D+00 WtEn= 0.00D+00
 Coeff-Com:  0.638D-04 0.528D-04 0.345D-02 0.497D-02-0.175D-01-0.639D-01
 Coeff-Com:  0.802D-01 0.993D+00
 Coeff:      0.638D-04 0.528D-04 0.345D-02 0.497D-02-0.175D-01-0.639D-01
 Coeff:      0.802D-01 0.993D+00
 Gap=     0.154 Goal=   None    Shift=    0.000
 Gap=     0.120 Goal=   None    Shift=    0.000
 RMSDP=1.60D-06 MaxDP=8.09D-05 DE=-7.29D-07 OVMax= 1.63D-04

 Cycle   9  Pass 1  IDiag  1:
 RMSU=  5.99D-07    CP:  9.96D-01  1.67D+00  1.03D+00  9.28D-01  1.46D+00
                    CP:  1.16D+00  1.17D+00  1.08D+00
 E= -475.437910420829     Delta-E=       -0.000000033648 Rises=F Damp=F
 DIIS: error= 4.05D-06 at cycle   9 NSaved=   9.
 NSaved= 9 IEnMin= 9 EnMin= -475.437910420829     IErMin= 9 ErrMin= 4.05D-06
 ErrMax= 4.05D-06  0.00D+00 EMaxC= 1.00D-01 BMatC= 3.76D-09 BMatP= 6.27D-08
 IDIUse=1 WtCom= 1.00D+00 WtEn= 0.00D+00
 Coeff-Com:  0.309D-03-0.456D-03 0.155D-02 0.196D-02-0.123D-02-0.168D-01
 Coeff-Com: -0.440D-01 0.138D+00 0.921D+00
 Coeff:      0.309D-03-0.456D-03 0.155D-02 0.196D-02-0.123D-02-0.168D-01
 Coeff:     -0.440D-01 0.138D+00 0.921D+00
 Gap=     0.154 Goal=   None    Shift=    0.000
 Gap=     0.120 Goal=   None    Shift=    0.000
 RMSDP=3.47D-07 MaxDP=1.50D-05 DE=-3.36D-08 OVMax= 3.35D-05

 Cycle  10  Pass 1  IDiag  1:
 RMSU=  1.36D-07    CP:  9.96D-01  1.67D+00  1.03D+00  9.28D-01  1.46D+00
                    CP:  1.16D+00  1.18D+00  1.17D+00  1.17D+00
 E= -475.437910422450     Delta-E=       -0.000000001620 Rises=F Damp=F
 DIIS: error= 6.33D-07 at cycle  10 NSaved=  10.
 NSaved=10 IEnMin=10 EnMin= -475.437910422450     IErMin=10 ErrMin= 6.33D-07
 ErrMax= 6.33D-07  0.00D+00 EMaxC= 1.00D-01 BMatC= 1.54D-10 BMatP= 3.76D-09
 IDIUse=1 WtCom= 1.00D+00 WtEn= 0.00D+00
 Coeff-Com: -0.174D-04 0.213D-04-0.151D-03-0.236D-03 0.615D-03 0.401D-02
 Coeff-Com: -0.766D-02-0.402D-01 0.212D-01 0.102D+01
 Coeff:     -0.174D-04 0.213D-04-0.151D-03-0.236D-03 0.615D-03 0.401D-02
 Coeff:     -0.766D-02-0.402D-01 0.212D-01 0.102D+01
 Gap=     0.154 Goal=   None    Shift=    0.000
 Gap=     0.120 Goal=   None    Shift=    0.000
 RMSDP=8.61D-08 MaxDP=2.81D-06 DE=-1.62D-09 OVMax= 5.53D-06

 Cycle  11  Pass 1  IDiag  1:
 RMSU=  2.65D-08    CP:  9.96D-01  1.67D+00  1.03D+00  9.28D-01  1.46D+00
                    CP:  1.16D+00  1.18D+00  1.18D+00  1.25D+00  1.22D+00
 E= -475.437910422511     Delta-E=       -0.000000000061 Rises=F Damp=F
 DIIS: error= 1.29D-07 at cycle  11 NSaved=  11.
 NSaved=11 IEnMin=11 EnMin= -475.437910422511     IErMin=11 ErrMin= 1.29D-07
 ErrMax= 1.29D-07  0.00D+00 EMaxC= 1.00D-01 BMatC= 6.15D-12 BMatP= 1.54D-10
 IDIUse=1 WtCom= 1.00D+00 WtEn= 0.00D+00
 Coeff-Com: -0.970D-05 0.145D-04-0.568D-04-0.801D-04 0.352D-04 0.423D-03
 Coeff-Com:  0.288D-02-0.482D-02-0.447D-01-0.193D-01 0.107D+01
 Coeff:     -0.970D-05 0.145D-04-0.568D-04-0.801D-04 0.352D-04 0.423D-03
 Coeff:      0.288D-02-0.482D-02-0.447D-01-0.193D-01 0.107D+01
 Gap=     0.154 Goal=   None    Shift=    0.000
 Gap=     0.120 Goal=   None    Shift=    0.000
 RMSDP=1.72D-08 MaxDP=6.81D-07 DE=-6.12D-11 OVMax= 1.06D-06

 Cycle  12  Pass 1  IDiag  1:
 RMSU=  6.30D-09    CP:  9.96D-01  1.67D+00  1.03D+00  9.28D-01  1.46D+00
                    CP:  1.16D+00  1.18D+00  1.18D+00  1.26D+00  1.27D+00
                    CP:  1.17D+00
 E= -475.437910422514     Delta-E=       -0.000000000003 Rises=F Damp=F
 DIIS: error= 2.14D-08 at cycle  12 NSaved=  12.
 NSaved=12 IEnMin=12 EnMin= -475.437910422514     IErMin=12 ErrMin= 2.14D-08
 ErrMax= 2.14D-08  0.00D+00 EMaxC= 1.00D-01 BMatC= 1.51D-13 BMatP= 6.15D-12
 IDIUse=1 WtCom= 1.00D+00 WtEn= 0.00D+00
 Coeff-Com:  0.153D-05-0.221D-05 0.102D-04 0.189D-04-0.200D-04-0.237D-03
 Coeff-Com:  0.362D-04 0.225D-02 0.385D-02-0.457D-01-0.951D-01 0.113D+01
 Coeff:      0.153D-05-0.221D-05 0.102D-04 0.189D-04-0.200D-04-0.237D-03
 Coeff:      0.362D-04 0.225D-02 0.385D-02-0.457D-01-0.951D-01 0.113D+01
 Gap=     0.154 Goal=   None    Shift=    0.000
 Gap=     0.120 Goal=   None    Shift=    0.000
 RMSDP=2.98D-09 MaxDP=8.95D-08 DE=-3.18D-12 OVMax= 2.30D-07

 SCF Done:  E(UB3LYP) =  -475.437910423     A.U. after   12 cycles
            NFock= 12  Conv=0.30D-08     -V/T= 2.0019
 <Sx>= 0.0000 <Sy>= 0.0000 <Sz>= 1.0000 <S**2>= 2.0501 S= 1.0166
 <L.S>= 0.000000000000E+00
 KE= 4.745538540569D+02 PE=-1.293070553013D+03 EE= 2.593583073904D+02
 Annihilation of the first spin contaminant:
 S**2 before annihilation     2.0501,   after     2.0008
 Leave Link  502 at Wed Aug  3 22:56:57 2016, MaxMem=    33554432 cpu:        61.6
 (Enter /home/proyectos/fulerenos/M3C-v2.0/M3C-deps_CCC/g09-AM64L-G09RevC.01/l801.exe)
 DoSCS=F DFT=T ScalE2(SS,OS)=  1.000000  1.000000
 Range of M.O.s used for correlation:     1   145
 NBasis=   145 NAE=    16 NBE=    14 NFC=     0 NFV=     0
 NROrb=    145 NOA=    16 NOB=    14 NVA=   129 NVB=   131

 **** Warning!!: The largest alpha MO coefficient is  0.24282069D+02


 **** Warning!!: The largest beta MO coefficient is  0.25319690D+02

 Leave Link  801 at Wed Aug  3 22:56:57 2016, MaxMem=    33554432 cpu:         0.1
 (Enter /home/proyectos/fulerenos/M3C-v2.0/M3C-deps_CCC/g09-AM64L-G09RevC.01/l1101.exe)
 Using compressed storage, NAtomX=     5.
 Will process      6 centers per pass.
 Leave Link 1101 at Wed Aug  3 22:56:58 2016, MaxMem=    33554432 cpu:         1.8
 (Enter /home/proyectos/fulerenos/M3C-v2.0/M3C-deps_CCC/g09-AM64L-G09RevC.01/l1102.exe)
 Symmetrizing basis deriv contribution to polar:
 IMax=3 JMax=2 DiffMx= 0.00D+00
 Leave Link 1102 at Wed Aug  3 22:56:58 2016, MaxMem=    33554432 cpu:         0.2
 (Enter /home/proyectos/fulerenos/M3C-v2.0/M3C-deps_CCC/g09-AM64L-G09RevC.01/l1110.exe)
 Forming Gx(P) for the SCF density, NAtomX=     5.
 Integral derivatives from FoFJK, PRISM(SPDF).
 Do as many integral derivatives as possible in FoFJK.
 G2DrvN: MDV=      33554288.
 G2DrvN: will do     6 centers at a time, making    1 passes.
 Calling FoFCou, ICntrl=  3107 FMM=F I1Cent=   0 AccDes= 0.00D+00.
 FoFJK:  IHMeth= 1 ICntrl=    3107 DoSepK=F KAlg= 0 I1Cent=   0 FoldK=F
 IRaf=         0 NMat=   1 IRICut=       1 DoRegI=T DoRafI=F ISym2E= 1.
 FoFCou: FMM=F IPFlag=           0 FMFlag=      100000 FMFlg1=           0
         NFxFlg=           0 DoJE=F BraDBF=F KetDBF=F FulRan=T
         wScrn=  0.000000 ICntrl=    3107 IOpCl=  1 I1Cent=           0 NGrid=           0
         NMat0=    1 NMatS0=      1 NMatT0=    0 NMatD0=    1 NMtDS0=    0 NMtDT0=    0
 Petite list used in FoFCou.
 End of G2Drv F.D. properties file   721 does not exist.
 End of G2Drv F.D. properties file   722 does not exist.
 End of G2Drv F.D. properties file   788 does not exist.
 Leave Link 1110 at Wed Aug  3 22:57:08 2016, MaxMem=    33554432 cpu:        36.2
 (Enter /home/proyectos/fulerenos/M3C-v2.0/M3C-deps_CCC/g09-AM64L-G09RevC.01/l1002.exe)
 Minotr:  UHF open shell wavefunction.
          IDoAtm=11111
          Direct CPHF calculation.
          Differentiating once with respect to electric field.
                with respect to dipole field.
          Differentiating once with respect to nuclear coordinates.
          Using symmetry in CPHF.
          Requested convergence is 1.0D-08 RMS, and 1.0D-07 maximum.
          Secondary convergence is 1.0D-12 RMS, and 1.0D-12 maximum.
          NewPWx=T KeepS1=F KeepF1=F KeepIn=T MapXYZ=F SortEE=F KeepMc=T.
          MDV=      33554088 using IRadAn=       2.
 Generate precomputed XC quadrature information.
          Solving linear equations simultaneously, MaxMat=       0.
 FoFJK:  IHMeth= 1 ICntrl=       0 DoSepK=F KAlg= 0 I1Cent=   0 FoldK=F
 IRaf= 990000000 NMat=  12 IRICut=      30 DoRegI=T DoRafI=T ISym2E= 2.
 FoFCou: FMM=F IPFlag=           0 FMFlag=      100000 FMFlg1=           0
         NFxFlg=           0 DoJE=F BraDBF=F KetDBF=F FulRan=T
         wScrn=  0.000000 ICntrl=       0 IOpCl=  1 I1Cent=           0 NGrid=           0
         NMat0=   12 NMatS0=     12 NMatT0=    0 NMatD0=   12 NMtDS0=    0 NMtDT0=    0
 Integrals replicated using symmetry in FoFCou.
          There are    12 degrees of freedom in the 1st order CPHF.  IDoFFX=4 NUNeed=    12.
     12 vectors produced by pass  0 Test12= 3.25D-14 8.33D-09 XBig12= 7.19D+02 2.21D+01.
 AX will form    12 AO Fock derivatives at one time.
     12 vectors produced by pass  1 Test12= 3.25D-14 8.33D-09 XBig12= 5.22D+02 8.35D+00.
     12 vectors produced by pass  2 Test12= 3.25D-14 8.33D-09 XBig12= 2.30D+01 1.09D+00.
     12 vectors produced by pass  3 Test12= 3.25D-14 8.33D-09 XBig12= 8.40D-01 1.99D-01.
     12 vectors produced by pass  4 Test12= 3.25D-14 8.33D-09 XBig12= 1.08D-02 2.12D-02.
     12 vectors produced by pass  5 Test12= 3.25D-14 8.33D-09 XBig12= 1.63D-04 2.91D-03.
     12 vectors produced by pass  6 Test12= 3.25D-14 8.33D-09 XBig12= 1.96D-06 2.14D-04.
     10 vectors produced by pass  7 Test12= 3.25D-14 8.33D-09 XBig12= 2.70D-08 2.78D-05.
      4 vectors produced by pass  8 Test12= 3.25D-14 8.33D-09 XBig12= 2.25D-10 2.28D-06.
      3 vectors produced by pass  9 Test12= 3.25D-14 8.33D-09 XBig12= 1.01D-12 1.57D-07.
      1 vectors produced by pass 10 Test12= 3.25D-14 8.33D-09 XBig12= 9.84D-15 2.78D-08.
 InvSVY:  IOpt=1 It=  1 EMax= 7.11D-15
 Solved reduced A of dimension   102 with    12 vectors.
 FullF1:  Do perturbations    1 to    12.
 Isotropic polarizability for W=    0.000000       58.65 Bohr**3.
 End of Minotr F.D. properties file   721 does not exist.
 End of Minotr F.D. properties file   722 does not exist.
 End of Minotr F.D. properties file   788 does not exist.
 Leave Link 1002 at Wed Aug  3 22:57:58 2016, MaxMem=    33554432 cpu:       194.8
 (Enter /home/proyectos/fulerenos/M3C-v2.0/M3C-deps_CCC/g09-AM64L-G09RevC.01/l601.exe)
 Copying SCF densities to generalized density rwf, IOpCl= 1 IROHF=0.

 **********************************************************************

            Population analysis using the SCF density.

 **********************************************************************

 Orbital symmetries:
 Alpha Orbitals:
       Occupied  (A1) (B2) (A1) (A1) (B2) (B1) (A1) (A1) (B2) (A1)
                 (B2) (B1) (A1) (A1) (B2) (A2)
       Virtual   (B1) (A1) (B2) (A1) (A1) (B1) (B2) (B2) (A1) (A2)
                 (B1) (A1) (B2) (A1) (A1) (B2) (A1) (B2) (B2) (B1)
                 (A2) (A1) (B1) (B2) (A1) (A1) (B1) (A1) (B2) (B2)
                 (A2) (B1) (A2) (A1) (B2) (A1) (A1) (B2) (A1) (A2)
                 (B1) (B2) (A1) (B2) (B2) (A1) (A2) (B1) (A1) (B1)
                 (B2) (A1) (A2) (B2) (A1) (B2) (A1) (B2) (A1) (B1)
                 (A2) (B1) (B2) (A1) (A2) (B1) (B2) (B1) (A1) (A1)
                 (B2) (B2) (A1) (A2) (B1) (A1) (B2) (A1) (B2) (A1)
                 (B2) (B1) (A2) (A2) (B1) (A1) (B2) (A2) (A1) (B2)
                 (A1) (B1) (B2) (A1) (A2) (B1) (B2) (A1) (B2) (A1)
                 (B2) (A2) (B1) (A1) (B2) (B1) (A1) (A2) (A1) (B2)
                 (A1) (B2) (A2) (B1) (B2) (A1) (B1) (A2) (A1) (B2)
                 (A1) (B2) (A1) (B1) (A1) (B2) (B2) (A1) (A1)
 Beta  Orbitals:
       Occupied  (A1) (A1) (B2) (A1) (B2) (B1) (A1) (A1) (B2) (A1)
                 (B2) (B1) (A1) (A1)
       Virtual   (B2) (A2) (B1) (A1) (B2) (A1) (A1) (B1) (B2) (A1)
                 (B2) (A2) (B1) (A1) (B2) (A1) (A1) (B2) (A1) (B2)
                 (B2) (B1) (A1) (A2) (B1) (B2) (A1) (A1) (B1) (A1)
                 (B2) (B2) (A2) (B1) (A2) (A1) (B2) (A1) (A1) (A1)
                 (B2) (A2) (B1) (B2) (A1) (B2) (B2) (A1) (A2) (B1)
                 (A1) (B1) (A1) (B2) (A2) (B2) (A1) (B2) (A1) (B2)
                 (A1) (B1) (B1) (A2) (B2) (A1) (A2) (B1) (B2) (B1)
                 (A1) (A1) (B2) (B2) (A1) (B1) (A2) (A1) (B2) (A1)
                 (B2) (A1) (B2) (A2) (B1) (A2) (B1) (A1) (B2) (A2)
                 (A1) (B2) (A1) (B1) (B2) (A1) (A2) (B2) (B1) (A1)
                 (B2) (A1) (B2) (A2) (B1) (A1) (B2) (B1) (A1) (A2)
                 (A1) (B2) (A1) (B2) (A2) (B1) (B2) (A1) (B1) (A2)
                 (A1) (B2) (A1) (B2) (A1) (B1) (A1) (B2) (B2) (A1)
                 (A1)
 The electronic state is 3-B1.
 Alpha  occ. eigenvalues --  -88.92728 -10.23679 -10.23678  -8.00870  -5.97156
 Alpha  occ. eigenvalues --   -5.96760  -5.96532  -0.87211  -0.70358  -0.58978
 Alpha  occ. eigenvalues --   -0.48588  -0.38738  -0.38319  -0.31839  -0.25824
 Alpha  occ. eigenvalues --   -0.25042
 Alpha virt. eigenvalues --   -0.09626  -0.00545   0.01107   0.02594   0.04448
 Alpha virt. eigenvalues --    0.04474   0.05249   0.07292   0.07357   0.09156
 Alpha virt. eigenvalues --    0.09765   0.11948   0.12669   0.12684   0.14770
 Alpha virt. eigenvalues --    0.15128   0.17583   0.17964   0.21338   0.22423
 Alpha virt. eigenvalues --    0.25410   0.25435   0.29292   0.30116   0.30182
 Alpha virt. eigenvalues --    0.33438   0.35949   0.40529   0.41729   0.42352
 Alpha virt. eigenvalues --    0.43477   0.49230   0.49484   0.51704   0.53086
 Alpha virt. eigenvalues --    0.58800   0.60468   0.62045   0.62544   0.64477
 Alpha virt. eigenvalues --    0.66262   0.68941   0.69319   0.73437   0.77856
 Alpha virt. eigenvalues --    0.87330   0.89804   0.95219   0.95483   0.99470
 Alpha virt. eigenvalues --    0.99823   1.00519   1.04584   1.04734   1.08481
 Alpha virt. eigenvalues --    1.15541   1.20592   1.27911   1.31060   1.43340
 Alpha virt. eigenvalues --    1.49941   1.50473   1.51359   1.53641   1.60588
 Alpha virt. eigenvalues --    1.65339   1.74713   1.79661   1.81176   1.85051
 Alpha virt. eigenvalues --    1.90759   1.95863   1.98410   2.07271   2.07279
 Alpha virt. eigenvalues --    2.12904   2.25704   2.35910   2.37586   2.61346
 Alpha virt. eigenvalues --    2.61389   2.73170   2.73358   2.79953   2.88132
 Alpha virt. eigenvalues --    2.89219   2.91307   2.96671   2.98986   2.99831
 Alpha virt. eigenvalues --    3.04441   3.06038   3.15463   3.23783   3.27196
 Alpha virt. eigenvalues --    3.30623   3.30990   3.46367   3.61315   3.68699
 Alpha virt. eigenvalues --    3.72679   4.16911   4.19601   4.30951   4.41081
 Alpha virt. eigenvalues --    4.72103   4.78684   4.86627   5.16073   5.17948
 Alpha virt. eigenvalues --    5.34217   5.74990   6.94618   6.95038   6.97182
 Alpha virt. eigenvalues --    7.04429   7.10039   7.12157   7.17639   7.42964
 Alpha virt. eigenvalues --    7.43764   7.64813   8.61264  17.28871  17.73830
 Alpha virt. eigenvalues --   17.89015  23.81815  23.87163 189.45829
  Beta  occ. eigenvalues --  -88.92875 -10.22018 -10.22017  -8.00995  -5.97196
  Beta  occ. eigenvalues --   -5.97137  -5.96669  -0.85625  -0.65810  -0.56999
  Beta  occ. eigenvalues --   -0.47365  -0.36776  -0.36767  -0.25448
  Beta virt. eigenvalues --   -0.13451  -0.12521  -0.05224  -0.00335   0.01944
  Beta virt. eigenvalues --    0.02663   0.04669   0.04837   0.05514   0.07565
  Beta virt. eigenvalues --    0.08012   0.10024   0.10702   0.12577   0.13004
  Beta virt. eigenvalues --    0.13089   0.15354   0.15690   0.17962   0.18223
  Beta virt. eigenvalues --    0.21984   0.23294   0.25838   0.26527   0.29466
  Beta virt. eigenvalues --    0.30935   0.31339   0.33861   0.36433   0.41801
  Beta virt. eigenvalues --    0.43012   0.44671   0.45632   0.51276   0.52014
  Beta virt. eigenvalues --    0.53770   0.53924   0.60779   0.61664   0.63262
  Beta virt. eigenvalues --    0.63462   0.66764   0.68519   0.69883   0.70052
  Beta virt. eigenvalues --    0.74640   0.80477   0.88003   0.90388   0.95551
  Beta virt. eigenvalues --    0.95952   0.99365   1.00156   1.00705   1.05167
  Beta virt. eigenvalues --    1.05884   1.08634   1.16836   1.21058   1.29456
  Beta virt. eigenvalues --    1.32359   1.45190   1.53172   1.53542   1.54912
  Beta virt. eigenvalues --    1.55996   1.64991   1.65484   1.76899   1.82215
  Beta virt. eigenvalues --    1.82336   1.89317   1.92254   1.98680   2.00354
  Beta virt. eigenvalues --    2.09231   2.10106   2.14382   2.27028   2.36780
  Beta virt. eigenvalues --    2.38886   2.63095   2.63304   2.78484   2.78716
  Beta virt. eigenvalues --    2.85387   2.93150   2.94257   2.95727   3.00331
  Beta virt. eigenvalues --    3.02190   3.04609   3.08025   3.09689   3.19387
  Beta virt. eigenvalues --    3.26892   3.30682   3.32961   3.33841   3.47840
  Beta virt. eigenvalues --    3.63044   3.70441   3.74225   4.17768   4.20519
  Beta virt. eigenvalues --    4.31477   4.41823   4.72068   4.78635   4.87093
  Beta virt. eigenvalues --    5.16501   5.18949   5.34789   5.76099   7.01386
  Beta virt. eigenvalues --    7.02120   7.04687   7.11806   7.15180   7.17565
  Beta virt. eigenvalues --    7.21128   7.46774   7.47506   7.68380   8.61925
  Beta virt. eigenvalues --   17.28385  17.73662  17.89012  23.83640  23.88972
  Beta virt. eigenvalues --  189.45696
          Condensed to atoms (all electrons):
               1          2          3          4          5
     1  S   15.421886   0.225549   0.225549   0.021288   0.021288
     2  C    0.225549   5.707722   0.006606   0.295705  -0.023053
     3  C    0.225549   0.006606   5.707722  -0.023053   0.295705
     4  H    0.021288   0.295705  -0.023053   0.523756   0.011995
     5  H    0.021288  -0.023053   0.295705   0.011995   0.523756
          Atomic-Atomic Spin Densities.
               1          2          3          4          5
     1  S   -0.311141   0.072520   0.072520  -0.006974  -0.006974
     2  C    0.072520   1.081452  -0.067322   0.012609   0.001031
     3  C    0.072520  -0.067322   1.081452   0.001031   0.012609
     4  H   -0.006974   0.012609   0.001031  -0.009855  -0.007075
     5  H   -0.006974   0.001031   0.012609  -0.007075  -0.009855
 Mulliken charges and spin densities:
               1          2
     1  S    0.084441  -0.180051
     2  C   -0.212530   1.100289
     3  C   -0.212530   1.100289
     4  H    0.170309  -0.010264
     5  H    0.170309  -0.010264
 Sum of Mulliken charges =   0.00000   2.00000
 Mulliken charges and spin densities with hydrogens summed into heavy atoms:
               1          2
     1  S    0.084441  -0.180051
     2  C   -0.042221   1.090026
     3  C   -0.042221   1.090026
 APT charges:
               1
     1  S    0.097412
     2  C   -0.271623
     3  C   -0.271623
     4  H    0.222917
     5  H    0.222917
 Sum of APT charges =  -0.00000
 APT charges with hydrogens summed into heavy atoms:
               1
     1  S    0.097412
     2  C   -0.048706
     3  C   -0.048706
 Electronic spatial extent (au):  <R**2>=            189.9188
 Charge=              0.0000 electrons
 Dipole moment (field-independent basis, Debye):
    X=             -0.0000    Y=              0.0000    Z=             -1.2199  Tot=              1.2199
 Quadrupole moment (field-independent basis, Debye-Ang):
   XX=            -25.9719   YY=            -30.6944   ZZ=            -22.8040
   XY=              0.0000   XZ=             -0.0000   YZ=              0.0000
 Traceless Quadrupole moment (field-independent basis, Debye-Ang):
   XX=              0.5182   YY=             -4.2043   ZZ=              3.6861
   XY=              0.0000   XZ=             -0.0000   YZ=              0.0000
 Octapole moment (field-independent basis, Debye-Ang**2):
  XXX=             -0.0000  YYY=             -0.0000  ZZZ=             -2.6252  XYY=             -0.0000
  XXY=             -0.0000  XXZ=              1.0852  XZZ=             -0.0000  YZZ=              0.0000
  YYZ=             -1.8711  XYZ=              0.0000
 Hexadecapole moment (field-independent basis, Debye-Ang**3):
 XXXX=            -32.8376 YYYY=           -218.4986 ZZZZ=            -75.2812 XXXY=              0.0000
 XXXZ=              0.0000 YYYX=              0.0000 YYYZ=              0.0000 ZZZX=             -0.0000
 ZZZY=              0.0000 XXYY=            -38.6632 XXZZ=            -19.3262 YYZZ=            -39.2554
 XXYZ=              0.0000 YYXZ=             -0.0000 ZZXY=              0.0000
 N-N= 8.372048114288D+01 E-N=-1.293070553744D+03  KE= 4.745538540569D+02
 Symmetry A1   KE= 3.602447456901D+02
 Symmetry A2   KE= 1.200777787523D+00
 Symmetry B1   KE= 3.831395224828D+01
 Symmetry B2   KE= 7.479437833104D+01
  Exact polarizability:  31.764   0.000 101.393  -0.000  -0.000  42.804
 Approx polarizability:  49.181  -0.000 226.833   0.000   0.000  65.889
                          Isotropic Fermi Contact Couplings
        Atom                 a.u.       MegaHertz       Gauss      10(-4) cm-1
     1  S(33)             -0.14762     -25.35172      -9.04612      -8.45642
     2  C(13)              0.12360      69.47679      24.79105      23.17496
     3  C(13)              0.12360      69.47679      24.79105      23.17496
     4  H(1)              -0.00068      -1.52456      -0.54400      -0.50854
     5  H(1)              -0.00068      -1.52456      -0.54400      -0.50854
 --------------------------------------------------------
       Center         ----  Spin Dipole Couplings  ----
                      3XX-RR        3YY-RR        3ZZ-RR
 --------------------------------------------------------
     1   Atom       -0.884099      0.660243      0.223856
     2   Atom        0.369497      0.232030     -0.601527
     3   Atom        0.369497      0.232030     -0.601527
     4   Atom       -0.040264     -0.045115      0.085379
     5   Atom       -0.040264     -0.045115      0.085379
 --------------------------------------------------------
                        XY            XZ            YZ
 --------------------------------------------------------
     1   Atom        0.000000     -0.000000     -0.000000
     2   Atom       -0.000000     -0.000000      0.313949
     3   Atom       -0.000000      0.000000     -0.313949
     4   Atom       -0.000000     -0.000000     -0.008026
     5   Atom        0.000000      0.000000      0.008026
 --------------------------------------------------------


 ---------------------------------------------------------------------------------
              Anisotropic Spin Dipole Couplings in Principal Axis System
 ---------------------------------------------------------------------------------

       Atom             a.u.   MegaHertz   Gauss  10(-4) cm-1        Axes

              Baa    -0.8841   -36.247   -12.934   -12.091  1.0000 -0.0000  0.0000
     1 S(33)  Bbb     0.2239     9.178     3.275     3.061 -0.0000  0.0000  1.0000
              Bcc     0.6602    27.069     9.659     9.029  0.0000  1.0000 -0.0000
 
              Baa    -0.7065   -94.811   -33.831   -31.626  0.0000 -0.3172  0.9484
     2 C(13)  Bbb     0.3370    45.228    16.139    15.087 -0.0000  0.9484  0.3172
              Bcc     0.3695    49.583    17.692    16.539  1.0000  0.0000  0.0000
 
              Baa    -0.7065   -94.811   -33.831   -31.626 -0.0000  0.3172  0.9484
     3 C(13)  Bbb     0.3370    45.228    16.139    15.087 -0.0000  0.9484 -0.3172
              Bcc     0.3695    49.583    17.692    16.539  1.0000  0.0000  0.0000
 
              Baa    -0.0456   -24.333    -8.683    -8.117  0.0000  0.9981  0.0612
     4 H(1)   Bbb    -0.0403   -21.483    -7.666    -7.166  1.0000 -0.0000  0.0000
              Bcc     0.0859    45.816    16.348    15.283 -0.0000 -0.0612  0.9981
 
              Baa    -0.0456   -24.333    -8.683    -8.117 -0.0000  0.9981 -0.0612
     5 H(1)   Bbb    -0.0403   -21.483    -7.666    -7.166  1.0000  0.0000 -0.0000
              Bcc     0.0859    45.816    16.348    15.283  0.0000  0.0612  0.9981
 

 ---------------------------------------------------------------------------------

 No NMR shielding tensors so no spin-rotation constants.
 Leave Link  601 at Wed Aug  3 22:57:59 2016, MaxMem=    33554432 cpu:         1.5
 (Enter /home/proyectos/fulerenos/M3C-v2.0/M3C-deps_CCC/g09-AM64L-G09RevC.01/l701.exe)
 Compute integral second derivatives.
 ... and contract with generalized density number  0.
 Leave Link  701 at Wed Aug  3 22:57:59 2016, MaxMem=    33554432 cpu:         1.4
 (Enter /home/proyectos/fulerenos/M3C-v2.0/M3C-deps_CCC/g09-AM64L-G09RevC.01/l702.exe)
 L702 exits ... SP integral derivatives will be done elsewhere.
 Leave Link  702 at Wed Aug  3 22:57:59 2016, MaxMem=    33554432 cpu:         0.1
 (Enter /home/proyectos/fulerenos/M3C-v2.0/M3C-deps_CCC/g09-AM64L-G09RevC.01/l703.exe)
 Compute integral second derivatives, UseDBF=F ICtDFT=           0.
 Integral derivatives from FoFJK, PRISM(SPDF).
 Calling FoFJK, ICntrl=    100127 FMM=F ISym2X=1 I1Cent= 0 IOpClX= 1 NMat=1 NMatS=1 NMatT=0.
 FoFJK:  IHMeth= 1 ICntrl=  100127 DoSepK=F KAlg= 0 I1Cent=   0 FoldK=F
 IRaf=         0 NMat=   1 IRICut=       1 DoRegI=T DoRafI=F ISym2E= 1.
 FoFCou: FMM=F IPFlag=           0 FMFlag=      100000 FMFlg1=         800
         NFxFlg=           0 DoJE=F BraDBF=F KetDBF=F FulRan=T
         wScrn=  0.000000 ICntrl=  100127 IOpCl=  1 I1Cent=           0 NGrid=           0
         NMat0=    1 NMatS0=      1 NMatT0=    0 NMatD0=    1 NMtDS0=    0 NMtDT0=    0
 Petite list used in FoFCou.
 Leave Link  703 at Wed Aug  3 22:58:13 2016, MaxMem=    33554432 cpu:        54.0
 (Enter /home/proyectos/fulerenos/M3C-v2.0/M3C-deps_CCC/g09-AM64L-G09RevC.01/l716.exe)
 Dipole        =-8.93418067D-17-1.64936534D-15-4.79939603D-01
 Polarizability= 3.17643180D+01 3.80651112D-08 1.01392595D+02
                -5.05552561D-09-1.71243356D-07 4.28041107D+01
 Full mass-weighted force constant matrix:
 Low frequencies ---  -20.2583  -20.1584  -18.0173    0.0012    0.0040    0.0049
 Low frequencies ---  351.9777  529.1918  594.4924
 Diagonal vibrational polarizability:
        2.0970529      55.5534343       4.0754422
 Harmonic frequencies (cm**-1), IR intensities (KM/Mole), Raman scattering
 activities (A**4/AMU), depolarization ratios for plane and unpolarized
 incident light, reduced masses (AMU), force constants (mDyne/A),
 and normal coordinates:
                      1                      2                      3
                     A1                     A2                     B2
 Frequencies --    351.9777               529.1918               594.4923
 Red. masses --      2.9471                 1.0786                 1.2682
 Frc consts  --      0.2151                 0.1780                 0.2641
 IR Inten    --     18.1186                 0.0000               686.5101
  Atom  AN      X      Y      Z        X      Y      Z        X      Y      Z
     1  16    -0.00  -0.00   0.13     0.00  -0.00   0.00    -0.00   0.03   0.00
     2   6     0.00  -0.20  -0.16    -0.06  -0.00  -0.00     0.00  -0.10  -0.02
     3   6    -0.00   0.20  -0.16     0.06   0.00  -0.00     0.00  -0.10   0.02
     4   1    -0.00  -0.64  -0.14     0.70  -0.00  -0.00    -0.00   0.70  -0.03
     5   1     0.00   0.64  -0.14    -0.70   0.00  -0.00    -0.00   0.70   0.03
                      4                      5                      6
                     B2                     B1                     A1
 Frequencies --    709.0170               712.7517               893.1858
 Red. masses --      5.2118                 1.4422                 3.5128
 Frc consts  --      1.5437                 0.4317                 1.6512
 IR Inten    --     59.6002                39.5870                 3.2962
  Atom  AN      X      Y      Z        X      Y      Z        X      Y      Z
     1  16     0.00   0.23   0.00     0.05  -0.00   0.00    -0.00   0.00   0.08
     2   6    -0.00  -0.26   0.22    -0.13   0.00  -0.00     0.00   0.31  -0.10
     3   6    -0.00  -0.26  -0.22    -0.13   0.00   0.00    -0.00  -0.31  -0.10
     4   1     0.00  -0.54   0.25     0.69   0.00  -0.00    -0.00  -0.62  -0.10
     5   1     0.00  -0.54  -0.25     0.69   0.00   0.00     0.00   0.62  -0.10
                      7                      8                      9
                     A1                     B2                     A1
 Frequencies --    996.3072              3085.4441              3088.5171
 Red. masses --      1.8095                 1.0861                 1.0875
 Frc consts  --      1.0582                 6.0920                 6.1119
 IR Inten    --      0.4254                31.3584                 6.0162
  Atom  AN      X      Y      Z        X      Y      Z        X      Y      Z
     1  16     0.00   0.00   0.11    -0.00  -0.00  -0.00     0.00  -0.00   0.00
     2   6     0.00   0.03  -0.14     0.00   0.00  -0.06    -0.00   0.00  -0.06
     3   6    -0.00  -0.03  -0.14     0.00   0.00   0.06     0.00  -0.00  -0.06
     4   1    -0.00   0.67  -0.16    -0.00   0.02   0.70     0.00   0.02   0.70
     5   1     0.00  -0.67  -0.16    -0.00   0.02  -0.70    -0.00  -0.02   0.70

 -------------------
 - Thermochemistry -
 -------------------
 Temperature   298.150 Kelvin.  Pressure   1.00000 Atm.
 Atom     1 has atomic number 16 and mass  31.97207
 Atom     2 has atomic number  6 and mass  12.00000
 Atom     3 has atomic number  6 and mass  12.00000
 Atom     4 has atomic number  1 and mass   1.00783
 Atom     5 has atomic number  1 and mass   1.00783
 Molecular mass:    57.98772 amu.
 Principal axes and moments of inertia in atomic units:
                           1         2         3
     Eigenvalues --    60.73053 171.98501 232.71554
           X           -0.00000   0.00000   1.00000
           Y            1.00000   0.00000   0.00000
           Z           -0.00000   1.00000  -0.00000
 This molecule is an asymmetric top.
 Rotational symmetry number  2.
 Rotational temperatures (Kelvin)      1.42620     0.50361     0.37219
 Rotational constants (GHZ):          29.71720    10.49360     7.75514
 Zero-point vibrational energy      65560.6 (Joules/Mol)
                                   15.66937 (Kcal/Mol)
 Warning -- explicit consideration of   3 degrees of freedom as
           vibrations may cause significant error
 Vibrational temperatures:    506.42   761.39   855.34  1020.12  1025.49
          (Kelvin)           1285.09  1433.46  4439.26  4443.68
 
 Zero-point correction=                           0.024971 (Hartree/Particle)
 Thermal correction to Energy=                    0.028838
 Thermal correction to Enthalpy=                  0.029782
 Thermal correction to Gibbs Free Energy=        -0.000789
 Sum of electronic and zero-point Energies=           -475.412940
 Sum of electronic and thermal Energies=              -475.409072
 Sum of electronic and thermal Enthalpies=            -475.408128
 Sum of electronic and thermal Free Energies=         -475.438699
 
                     E (Thermal)             CV                S
                      KCal/Mol        Cal/Mol-Kelvin    Cal/Mol-Kelvin
 Total                   18.096             12.270             64.343
 Electronic               0.000              0.000              2.183
 Translational            0.889              2.981             38.094
 Rotational               0.889              2.981             21.035
 Vibrational             16.319              6.308              3.031
 Vibration     1          0.729              1.571              1.157
 Vibration     2          0.884              1.185              0.589
 Vibration     3          0.952              1.044              0.459
                       Q            Log10(Q)             Ln(Q)
 Total Bot       0.230603D+01          0.362864          0.835526
 Total V=0       0.705634D+12         11.848579         27.282362
 Vib (Bot)       0.501887D-11        -11.299394        -26.017816
 Vib (Bot)    1  0.523506D+00         -0.281079         -0.647207
 Vib (Bot)    2  0.302441D+00         -0.519359         -1.195869
 Vib (Bot)    3  0.252594D+00         -0.597578         -1.375973
 Vib (V=0)       0.153575D+01          0.186321          0.429020
 Vib (V=0)    1  0.122392D+01          0.087753          0.202058
 Vib (V=0)    2  0.108435D+01          0.035171          0.080985
 Vib (V=0)    3  0.106018D+01          0.025380          0.058440
 Electronic      0.300000D+01          0.477121          1.098612
 Translational   0.173564D+08          7.239459         16.669471
 Rotational      0.882425D+04          3.945678          9.085259
 
                                                              b3lyp opt
                                                             IR Spectrum
 
     33                                                                                                                              
     00                                                                                     9   8     77    5  5      3              
     88                                                                                     9   9     10    9  2      5              
     95                                                                                     6   3     39    4  9      2              
 
     XX                                                                                     X   X     XX    X         X              
                                                                                                       X    X                        
                                                                                                            X                        
                                                                                                            X                        
                                                                                                            X                        
                                                                                                            X                        
                                                                                                            X                        
                                                                                                            X                        
                                                                                                            X                        
                                                                                                            X                        
                                                                                                            X                        
                                                                                                            X                        
                                                                                                            X                        
                                                                                                            X                        
                                                                                                            X                        
                                                                                                            X                        
                                                                                                            X                        
                                                                                                            X                        
                                                                                                            X                        
                                                                                                            X                        
 
 ***** Axes restored to original set *****
 -------------------------------------------------------------------
 Center     Atomic                   Forces (Hartrees/Bohr)
 Number     Number              X              Y              Z
 -------------------------------------------------------------------
      1       16           0.000007097   -0.000004807    0.000006350
      2        6          -0.000002073    0.000011088   -0.000007606
      3        6          -0.000012434   -0.000001262   -0.000005375
      4        1           0.000007082    0.000001516    0.000002588
      5        1           0.000000328   -0.000006535    0.000004043
 -------------------------------------------------------------------
 Cartesian Forces:  Max     0.000012434 RMS     0.000006337
 Z-matrix is all fixed cartesians, so copy forces.
 Force constants in Cartesian coordinates: 
                1             2             3             4             5 
      1  0.242291D+00
      2 -0.957466D-02  0.197524D+00
      3  0.107537D+00 -0.100935D+00  0.148418D+00
      4 -0.420992D-01  0.257108D-01 -0.197224D-01  0.206390D+00
      5  0.293731D-01 -0.156101D+00  0.875407D-01 -0.687393D-01  0.256218D+00
      6 -0.218974D-01  0.857368D-01 -0.947612D-01  0.125156D+00 -0.165133D+00
      7 -0.190824D+00 -0.889208D-02 -0.724265D-01 -0.649409D-02 -0.696258D-01
      8 -0.125544D-01 -0.360301D-01 -0.441863D-02 -0.455244D-01 -0.298085D-01
      9 -0.702515D-01 -0.261476D-02 -0.661075D-01  0.108980D-01 -0.989888D-03
     10  0.516429D-02 -0.174809D-01  0.538718D-02 -0.165495D+00  0.105303D+00
     11  0.153045D-01 -0.106476D-01  0.229505D-01  0.787217D-01 -0.711715D-01
     12 -0.140834D-01  0.680210D-02  0.432772D-02 -0.118936D+00  0.828848D-01
     13 -0.145321D-01  0.102368D-01 -0.207753D-01  0.769786D-02  0.368907D-02
     14 -0.225485D-01  0.525404D-02 -0.513768D-02  0.983110D-02  0.862977D-03
     15 -0.130467D-02  0.110107D-01  0.812249D-02  0.260376D-02 -0.430295D-02
                6             7             8             9            10 
      6  0.194887D+00
      7  0.252114D-01  0.341687D+00
      8  0.108813D-01 -0.339288D-01  0.146988D+00
      9  0.322261D-01  0.171124D+00 -0.831169D-01  0.168821D+00
     10 -0.134722D+00 -0.328433D-03  0.776602D-02 -0.123170D-03  0.163144D+00
     11  0.697923D-01  0.162399D-02  0.734290D-02 -0.916842D-02 -0.917099D-01
     12 -0.126748D+00  0.352447D-02 -0.614317D-02 -0.405781D-02  0.129157D+00
     13  0.625140D-02 -0.144041D+00  0.842416D-01 -0.111647D+00 -0.248481D-02
     14 -0.127770D-02  0.110823D+00 -0.884920D-01  0.958899D-01 -0.387820D-02
     15 -0.560417D-02 -0.127433D+00  0.827974D-01 -0.130881D+00  0.300420D-03
               11            12            13            14            15 
     11  0.781892D-01
     12 -0.847778D-01  0.125463D+00
     13 -0.394032D-02  0.337312D-03  0.153360D+00
     14 -0.371304D-02  0.123403D-02 -0.942271D-01  0.860880D-01
     15  0.120343D-02  0.101460D-02  0.125833D+00 -0.907086D-01  0.127348D+00
 Leave Link  716 at Wed Aug  3 22:58:13 2016, MaxMem=    33554432 cpu:         0.1
 (Enter /home/proyectos/fulerenos/M3C-v2.0/M3C-deps_CCC/g09-AM64L-G09RevC.01/l103.exe)

 GradGradGradGradGradGradGradGradGradGradGradGradGradGradGradGradGradGrad
 Berny optimization.
 Search for a local minimum.
 Step number   1 out of a maximum of    2
 All quantities printed in internal units (Hartrees-Bohrs-Radians)
 Second derivative matrix not updated -- analytic derivatives used.
 The second derivative matrix:
                          X1        Y1        Z1        X2        Y2
           X1           0.24229
           Y1          -0.00957   0.19752
           Z1           0.10754  -0.10093   0.14842
           X2          -0.04210   0.02571  -0.01972   0.20639
           Y2           0.02937  -0.15610   0.08754  -0.06874   0.25622
           Z2          -0.02190   0.08574  -0.09476   0.12516  -0.16513
           X3          -0.19082  -0.00889  -0.07243  -0.00649  -0.06963
           Y3          -0.01255  -0.03603  -0.00442  -0.04552  -0.02981
           Z3          -0.07025  -0.00261  -0.06611   0.01090  -0.00099
           X4           0.00516  -0.01748   0.00539  -0.16549   0.10530
           Y4           0.01530  -0.01065   0.02295   0.07872  -0.07117
           Z4          -0.01408   0.00680   0.00433  -0.11894   0.08288
           X5          -0.01453   0.01024  -0.02078   0.00770   0.00369
           Y5          -0.02255   0.00525  -0.00514   0.00983   0.00086
           Z5          -0.00130   0.01101   0.00812   0.00260  -0.00430
                          Z2        X3        Y3        Z3        X4
           Z2           0.19489
           X3           0.02521   0.34169
           Y3           0.01088  -0.03393   0.14699
           Z3           0.03223   0.17112  -0.08312   0.16882
           X4          -0.13472  -0.00033   0.00777  -0.00012   0.16314
           Y4           0.06979   0.00162   0.00734  -0.00917  -0.09171
           Z4          -0.12675   0.00352  -0.00614  -0.00406   0.12916
           X5           0.00625  -0.14404   0.08424  -0.11165  -0.00248
           Y5          -0.00128   0.11082  -0.08849   0.09589  -0.00388
           Z5          -0.00560  -0.12743   0.08280  -0.13088   0.00030
                          Y4        Z4        X5        Y5        Z5
           Y4           0.07819
           Z4          -0.08478   0.12546
           X5          -0.00394   0.00034   0.15336
           Y5          -0.00371   0.00123  -0.09423   0.08609
           Z5           0.00120   0.00101   0.12583  -0.09071   0.12735
 ITU=  0
     Eigenvalues ---    0.01164   0.01623   0.02306   0.08687   0.18084
     Eigenvalues ---    0.26114   0.34539   0.67294   0.84267
 Angle between quadratic step and forces=  70.20 degrees.
 ClnCor:  largest displacement from symmetrization is 5.89D-12 for atom     3.
 Linear search not attempted -- first point.
 ClnCor:  largest displacement from symmetrization is 1.33D-15 for atom     4.
 B after Tr=    -0.000012    0.000008   -0.000011
         Rot=    1.000000    0.000000    0.000000    0.000000 Ang=   0.00 deg.
 Variable       Old X    -DE/DX   Delta X   Delta X   Delta X     New X
                                 (Linear)    (Quad)   (Total)
    X1       -0.17062   0.00001   0.00000  -0.00004  -0.00006  -0.17067
    Y1       -0.21946  -0.00000   0.00000   0.00003   0.00004  -0.21942
    Z1        1.09613   0.00001   0.00000  -0.00004  -0.00005   1.09608
    X2        0.30105  -0.00000   0.00000   0.00009   0.00008   0.30113
    Y2        2.53073   0.00001   0.00000   0.00006   0.00007   2.53080
    Z2       -0.30484  -0.00001   0.00000   0.00001  -0.00000  -0.30485
    X3       -2.98331  -0.00001   0.00000  -0.00004  -0.00006  -2.98337
    Y3       -1.38397  -0.00000   0.00000  -0.00010  -0.00009  -1.38406
    Z3        0.40232  -0.00001   0.00000   0.00004   0.00003   0.40234
    X4       -1.13870   0.00001   0.00000   0.00029   0.00028  -1.13842
    Y4        3.37775   0.00000   0.00000   0.00029   0.00030   3.37805
    Z4       -1.51702   0.00000   0.00000  -0.00003  -0.00004  -1.51706
    X5       -4.28591   0.00000   0.00000  -0.00024  -0.00025  -4.28616
    Y5       -0.37348  -0.00001   0.00000  -0.00033  -0.00032  -0.37381
    Z5       -0.83939   0.00000   0.00000   0.00008   0.00007  -0.83932
         Item               Value     Threshold  Converged?
 Maximum Force            0.000012     0.000450     YES
 RMS     Force            0.000006     0.000300     YES
 Maximum Displacement     0.000324     0.001800     YES
 RMS     Displacement     0.000158     0.001200     YES
 Predicted change in Energy=-2.545101D-09
 Optimization completed.
    -- Stationary point found.
 GradGradGradGradGradGradGradGradGradGradGradGradGradGradGradGradGradGrad

 Leave Link  103 at Wed Aug  3 22:58:13 2016, MaxMem=    33554432 cpu:         0.1
 (Enter /home/proyectos/fulerenos/M3C-v2.0/M3C-deps_CCC/g09-AM64L-G09RevC.01/l9999.exe)
 1\1\GINC-DEPAZ28\Freq\UB3LYP\6-311++G(3df,2p)\C2H2S1(3)\NAGUIRRE\03-Au
 g-2016\0\\#p b3lyp/6-311++G(3df,2p) freq\\b3lyp opt\\0,3\S,-0.09028660
 39,-0.1161334469,0.580045413\C,0.159306305,1.339202819,-0.161316089\C,
 -1.578701332,-0.7323639582,0.2128959912\H,-0.6025733951,1.7874267161,-
 0.8027716758\H,-2.2680079679,-0.1976387445,-0.4441853712\\Version=EM64
 L-G09RevE.01\State=3-B1\HF=-475.4379104\S2=2.050087\S2-1=0.\S2A=2.0008
 48\RMSD=2.977e-09\RMSF=6.337e-06\ZeroPoint=0.0249707\Thermal=0.0288383
 \Dipole=-0.319288,0.2162671,-0.2857023\DipoleDeriv=0.1166764,-0.164171
 5,0.1267888,-0.1641716,0.0207402,-0.0592039,0.1267888,-0.0592039,0.154
 8197,-0.5364339,-0.4215913,0.0697477,-0.1001518,-0.171678,-0.0481631,-
 0.1211495,-0.2064879,-0.1067562,-0.0460798,0.0260111,0.0454482,-0.2954
 284,-0.5675592,0.0907604,0.2363454,0.2490852,-0.201229,0.2315636,0.343
 4608,-0.1594217,0.2155937,0.3603425,-0.0240085,-0.0834837,0.0389723,0.
 0768438,0.2342737,0.2162909,-0.082563,0.3441581,0.3581546,0.0406152,-0
 .158501,-0.0223658,0.0763217\Polar=64.873798,30.3306637,74.1023541,-1.
 7047878,-10.2044571,36.9848715\PG=C02V [C2(S1),SGV(C2H2)]\NImag=0\\0.2
 4229074,-0.00957466,0.19752447,0.10753705,-0.10093484,0.14841848,-0.04
 209924,0.02571082,-0.01972243,0.20639037,0.02937312,-0.15610086,0.0875
 4065,-0.06873926,0.25621789,-0.02189741,0.08573679,-0.09476116,0.12515
 646,-0.16513263,0.19488720,-0.19082366,-0.00889208,-0.07242651,-0.0064
 9409,-0.06962584,0.02521142,0.34168728,-0.01255439,-0.03603006,-0.0044
 1863,-0.04552439,-0.02980852,0.01088127,-0.03392881,0.14698763,-0.0702
 5153,-0.00261476,-0.06610753,0.01089800,-0.00098989,0.03222608,0.17112
 357,-0.08311686,0.16882055,0.00516429,-0.01748086,0.00538718,-0.165494
 90,0.10530290,-0.13472188,-0.00032843,0.00776602,-0.00012317,0.1631438
 5,0.01530446,-0.01064760,0.02295050,0.07872173,-0.07117149,0.06979228,
 0.00162399,0.00734290,-0.00916842,-0.09170986,0.07818924,-0.01408344,0
 .00680210,0.00432772,-0.11893579,0.08288482,-0.12674795,0.00352447,-0.
 00614317,-0.00405781,0.12915744,-0.08477779,0.12546343,-0.01453211,0.0
 1023678,-0.02077528,0.00769786,0.00368907,0.00625140,-0.14404109,0.084
 24156,-0.11164686,-0.00248481,-0.00394032,0.00033731,0.15336016,-0.022
 54853,0.00525404,-0.00513768,0.00983110,0.00086298,-0.00127770,0.11082
 274,-0.08849195,0.09588993,-0.00387820,-0.00371304,0.00123403,-0.09422
 710,0.08608797,-0.00130467,0.01101071,0.00812249,0.00260376,-0.0043029
 5,-0.00560417,-0.12743295,0.08279739,-0.13088130,0.00030042,0.00120343
 ,0.00101460,0.12583343,-0.09070857,0.12734838\\-0.00000710,0.00000481,
 -0.00000635,0.00000207,-0.00001109,0.00000761,0.00001243,0.00000126,0.
 00000537,-0.00000708,-0.00000152,-0.00000259,-0.00000033,0.00000654,-0
 .00000404\\\@


 THE WORLD OF CHEMICAL REACTIONS IS LIKE A STAGE,
 ON WHICH SCENE AFTER SCENE IS CEASELESSLY PLAYED.
 THE ACTORS ON IT ARE THE ELEMENTS.
   -- CLEMENS WINKLER   BER. 30,13(1897)
 (DISCOVERER OF GERMANIUM, FEB 6, 1886)
 Job cpu time:       0 days  0 hours  5 minutes 56.7 seconds.
 File lengths (MBytes):  RWF=     22 Int=      0 D2E=      0 Chk=      3 Scr=      1
 Normal termination of Gaussian 09 at Wed Aug  3 22:58:13 2016.
