 Entering Gaussian System, Link 0=/home/proyectos/fulerenos/M3C-v2.0/M3C-deps_CCC/g09-AM64L-G09RevC.01/g09
 Initial command:
 /home/proyectos/fulerenos/M3C-v2.0/M3C-deps_CCC/g09-AM64L-G09RevC.01/l1.exe "/scratch/naguirre/gaussian/Gau-25350.inp" -scrdir="/scratch/naguirre/gaussian/"
 Entering Link 1 = /home/proyectos/fulerenos/M3C-v2.0/M3C-deps_CCC/g09-AM64L-G09RevC.01/l1.exe PID=     25358.
  
 Copyright (c) 1988,1990,1992,1993,1995,1998,2003,2009,2015,
            Gaussian, Inc.  All Rights Reserved.
  
 This is part of the Gaussian(R) 09 program.  It is based on
 the Gaussian(R) 03 system (copyright 2003, Gaussian, Inc.),
 the Gaussian(R) 98 system (copyright 1998, Gaussian, Inc.),
 the Gaussian(R) 94 system (copyright 1995, Gaussian, Inc.),
 the Gaussian 92(TM) system (copyright 1992, Gaussian, Inc.),
 the Gaussian 90(TM) system (copyright 1990, Gaussian, Inc.),
 the Gaussian 88(TM) system (copyright 1988, Gaussian, Inc.),
 the Gaussian 86(TM) system (copyright 1986, Carnegie Mellon
 University), and the Gaussian 82(TM) system (copyright 1983,
 Carnegie Mellon University). Gaussian is a federally registered
 trademark of Gaussian, Inc.
  
 This software contains proprietary and confidential information,
 including trade secrets, belonging to Gaussian, Inc.
  
 This software is provided under written license and may be
 used, copied, transmitted, or stored only in accord with that
 written license.
  
 The following legend is applicable only to US Government
 contracts under FAR:
  
                    RESTRICTED RIGHTS LEGEND
  
 Use, reproduction and disclosure by the US Government is
 subject to restrictions as set forth in subparagraphs (a)
 and (c) of the Commercial Computer Software - Restricted
 Rights clause in FAR 52.227-19.
  
 Gaussian, Inc.
 340 Quinnipiac St., Bldg. 40, Wallingford CT 06492
  
  
 ---------------------------------------------------------------
 Warning -- This program may not be used in any manner that
 competes with the business of Gaussian, Inc. or will provide
 assistance to any competitor of Gaussian, Inc.  The licensee
 of this program is prohibited from giving any competitor of
 Gaussian, Inc. access to this program.  By using this program,
 the user acknowledges that Gaussian, Inc. is engaged in the
 business of creating and licensing software in the field of
 computational chemistry and represents and warrants to the
 licensee that it is not a competitor of Gaussian, Inc. and that
 it will not use this program in any manner prohibited above.
 ---------------------------------------------------------------
  

 Cite this work as:
 Gaussian 09, Revision E.01,
 M. J. Frisch, G. W. Trucks, H. B. Schlegel, G. E. Scuseria, 
 M. A. Robb, J. R. Cheeseman, G. Scalmani, V. Barone, B. Mennucci, 
 G. A. Petersson, H. Nakatsuji, M. Caricato, X. Li, H. P. Hratchian, 
 A. F. Izmaylov, J. Bloino, G. Zheng, J. L. Sonnenberg, M. Hada, 
 M. Ehara, K. Toyota, R. Fukuda, J. Hasegawa, M. Ishida, T. Nakajima, 
 Y. Honda, O. Kitao, H. Nakai, T. Vreven, J. A. Montgomery, Jr., 
 J. E. Peralta, F. Ogliaro, M. Bearpark, J. J. Heyd, E. Brothers, 
 K. N. Kudin, V. N. Staroverov, T. Keith, R. Kobayashi, J. Normand, 
 K. Raghavachari, A. Rendell, J. C. Burant, S. S. Iyengar, J. Tomasi, 
 M. Cossi, N. Rega, J. M. Millam, M. Klene, J. E. Knox, J. B. Cross, 
 V. Bakken, C. Adamo, J. Jaramillo, R. Gomperts, R. E. Stratmann, 
 O. Yazyev, A. J. Austin, R. Cammi, C. Pomelli, J. W. Ochterski, 
 R. L. Martin, K. Morokuma, V. G. Zakrzewski, G. A. Voth, 
 P. Salvador, J. J. Dannenberg, S. Dapprich, A. D. Daniels, 
 O. Farkas, J. B. Foresman, J. V. Ortiz, J. Cioslowski, 
 and D. J. Fox, Gaussian, Inc., Wallingford CT, 2013.
 
 ******************************************
 Gaussian 09:  EM64L-G09RevE.01 30-Nov-2015
                 3-Aug-2016 
 ******************************************
 %NProcShared=4
 Will use up to    4 processors via shared memory.
 ------------------------------
 #p b3lyp/6-311++G(3df,2p) freq
 ------------------------------
 1/10=4,30=1,38=1/1,3;
 2/12=2,17=6,18=5,40=1/2;
 3/5=4,6=6,7=1216,11=2,16=1,25=1,30=1,71=2,74=-5,140=1/1,2,3;
 4//1;
 5/5=2,38=5,98=1/2;
 8/6=4,10=90,11=11/1;
 11/6=1,8=1,9=11,15=111,16=1/1,2,10;
 10/6=1/2;
 6/7=2,8=2,9=2,10=2,18=1,28=1/1;
 7/8=1,10=1,25=1/1,2,3,16;
 1/10=4,30=1/3;
 99//99;
 Leave Link    1 at Wed Aug  3 23:03:13 2016, MaxMem=           0 cpu:         0.3
 (Enter /home/proyectos/fulerenos/M3C-v2.0/M3C-deps_CCC/g09-AM64L-G09RevC.01/l101.exe)
 ---------
 b3lyp opt
 ---------
 Symbolic Z-matrix:
 Charge =  2 Multiplicity = 3
 S                    -0.28368  -0.87057  -1.31764 
 C                    -1.43369  -0.09013  -0.29982 
 C                    -2.16074  -0.48644   0.7052 
 H                    -1.73136   1.00264  -0.39834 
 H                    -0.01591   0.24309  -2.08102 
 
 NAtoms=      5 NQM=        5 NQMF=       0 NMMI=      0 NMMIF=      0
                NMic=       0 NMicF=      0.
                    Isotopes and Nuclear Properties:
 (Nuclear quadrupole moments (NQMom) in fm**2, nuclear magnetic moments (NMagM)
  in nuclear magnetons)

  Atom         1           2           3           4           5
 IAtWgt=          32          12          12           1           1
 AtmWgt=  31.9720718  12.0000000  12.0000000   1.0078250   1.0078250
 NucSpn=           0           0           0           1           1
 AtZEff=   0.0000000   0.0000000   0.0000000   0.0000000   0.0000000
 NQMom=    0.0000000   0.0000000   0.0000000   0.0000000   0.0000000
 NMagM=    0.0000000   0.0000000   0.0000000   2.7928460   2.7928460
 AtZNuc=  16.0000000   6.0000000   6.0000000   1.0000000   1.0000000
 Leave Link  101 at Wed Aug  3 23:03:14 2016, MaxMem=    33554432 cpu:         0.2
 (Enter /home/proyectos/fulerenos/M3C-v2.0/M3C-deps_CCC/g09-AM64L-G09RevC.01/l103.exe)

 GradGradGradGradGradGradGradGradGradGradGradGradGradGradGradGradGradGrad
 Berny optimization.
 Initialization pass.
 Trust Radius=3.00D-01 FncErr=1.00D-07 GrdErr=1.00D-07
 Number of steps in this run=      2 maximum allowed number of steps=      2.
 GradGradGradGradGradGradGradGradGradGradGradGradGradGradGradGradGradGrad

 Leave Link  103 at Wed Aug  3 23:03:14 2016, MaxMem=    33554432 cpu:         0.1
 (Enter /home/proyectos/fulerenos/M3C-v2.0/M3C-deps_CCC/g09-AM64L-G09RevC.01/l202.exe)
                          Input orientation:                          
 ---------------------------------------------------------------------
 Center     Atomic      Atomic             Coordinates (Angstroms)
 Number     Number       Type             X           Y           Z
 ---------------------------------------------------------------------
      1         16           0       -0.283678   -0.870567   -1.317639
      2          6           0       -1.433690   -0.090128   -0.299818
      3          6           0       -2.160738   -0.486444    0.705202
      4          1           0       -1.731356    1.002642   -0.398338
      5          1           0       -0.015908    0.243088   -2.081016
 ---------------------------------------------------------------------
                    Distance matrix (angstroms):
                    1          2          3          4          5
     1  S    0.000000
     2  C    1.722664   0.000000
     3  C    2.786178   1.302202   0.000000
     4  H    2.539646   1.136863   1.902510   0.000000
     5  H    1.376471   2.300827   3.591034   2.520137   0.000000
 Stoichiometry    C2H2S(2+,3)
 Framework group  CS[SG(C2H2S)]
 Deg. of freedom     7
 Full point group                 CS      NOp   2
 Largest Abelian subgroup         CS      NOp   2
 Largest concise Abelian subgroup C1      NOp   1
                         Standard orientation:                         
 ---------------------------------------------------------------------
 Center     Atomic      Atomic             Coordinates (Angstroms)
 Number     Number       Type             X           Y           Z
 ---------------------------------------------------------------------
      1         16           0       -0.243335   -0.918257   -0.000000
      2          6           0       -0.000000    0.787134    0.000000
      3          6           0        1.059131    1.544743    0.000000
      4          1           0       -0.843374    1.549485   -0.000000
      5          1           0       -1.618045   -0.848634   -0.000000
 ---------------------------------------------------------------------
 Rotational constants (GHZ):     77.7139606      6.4569184      5.9615951
 Leave Link  202 at Wed Aug  3 23:03:14 2016, MaxMem=    33554432 cpu:         0.0
 (Enter /home/proyectos/fulerenos/M3C-v2.0/M3C-deps_CCC/g09-AM64L-G09RevC.01/l301.exe)
 Standard basis: 6-311++G(3df,2p) (5D, 7F)
 Ernie: Thresh=  0.10000D-02 Tol=  0.10000D-05 Strict=F.
 There are   115 symmetry adapted cartesian basis functions of A'  symmetry.
 There are    48 symmetry adapted cartesian basis functions of A"  symmetry.
 There are   100 symmetry adapted basis functions of A'  symmetry.
 There are    45 symmetry adapted basis functions of A"  symmetry.
   145 basis functions,   212 primitive gaussians,   163 cartesian basis functions
    15 alpha electrons       13 beta electrons
       nuclear repulsion energy        78.7731796075 Hartrees.
 IExCor=  402 DFT=T Ex+Corr=B3LYP ExCW=0 ScaHFX=  0.200000
 ScaDFX=  0.800000  0.720000  1.000000  0.810000 ScalE2=  1.000000  1.000000
 IRadAn=      0 IRanWt=     -1 IRanGd=            0 ICorTp=0 IEmpDi=  4
 NAtoms=    5 NActive=    5 NUniq=    5 SFac= 1.00D+00 NAtFMM=   60 NAOKFM=F Big=F
 Integral buffers will be    131072 words long.
 Raffenetti 2 integral format.
 Two-electron integral symmetry is turned on.
 Leave Link  301 at Wed Aug  3 23:03:14 2016, MaxMem=    33554432 cpu:         0.2
 (Enter /home/proyectos/fulerenos/M3C-v2.0/M3C-deps_CCC/g09-AM64L-G09RevC.01/l302.exe)
 NPDir=0 NMtPBC=     1 NCelOv=     1 NCel=       1 NClECP=     1 NCelD=      1
         NCelK=      1 NCelE2=     1 NClLst=     1 CellRange=     0.0.
 One-electron integrals computed using PRISM.
 NBasis=   145 RedAO= T EigKep=  5.41D-05  NBF=   100    45
 NBsUse=   145 1.00D-06 EigRej= -1.00D+00 NBFU=   100    45
 Precomputing XC quadrature grid using
 IXCGrd= 4 IRadAn=           0 IRanWt=          -1 IRanGd=           0 AccXCQ= 0.00D+00.
 Generated NRdTot=       0 NPtTot=           0 NUsed=           0 NTot=          32
 NSgBfM=   163   163   163   163   163 MxSgAt=     5 MxSgA2=     5.
 Leave Link  302 at Wed Aug  3 23:03:14 2016, MaxMem=    33554432 cpu:         1.0
 (Enter /home/proyectos/fulerenos/M3C-v2.0/M3C-deps_CCC/g09-AM64L-G09RevC.01/l303.exe)
 DipDrv:  MaxL=1.
 Leave Link  303 at Wed Aug  3 23:03:14 2016, MaxMem=    33554432 cpu:         0.1
 (Enter /home/proyectos/fulerenos/M3C-v2.0/M3C-deps_CCC/g09-AM64L-G09RevC.01/l401.exe)
 ExpMin= 3.60D-02 ExpMax= 9.34D+04 ExpMxC= 3.17D+03 IAcc=3 IRadAn=         5 AccDes= 0.00D+00
 Harris functional with IExCor=  402 and IRadAn=       5 diagonalized for initial guess.
 HarFok:  IExCor=  402 AccDes= 0.00D+00 IRadAn=         5 IDoV= 1 UseB2=F ITyADJ=14
 ICtDFT=  3500011 ScaDFX=  1.000000  1.000000  1.000000  1.000000
 FoFCou: FMM=F IPFlag=           0 FMFlag=      100000 FMFlg1=           0
         NFxFlg=           0 DoJE=T BraDBF=F KetDBF=T FulRan=T
         wScrn=  0.000000 ICntrl=     500 IOpCl=  0 I1Cent=   200000004 NGrid=           0
         NMat0=    1 NMatS0=      1 NMatT0=    0 NMatD0=    1 NMtDS0=    0 NMtDT0=    0
 Petite list used in FoFCou.
 Harris En= -474.881236937653    
 JPrj=0 DoOrth=F DoCkMO=F.
 Initial guess orbital symmetries:
 Alpha Orbitals:
       Occupied  (A') (A') (A') (A') (A') (A') (A") (A') (A') (A')
                 (A') (A") (A') (A') (A")
       Virtual   (A') (A") (A') (A') (A') (A') (A") (A') (A') (A')
                 (A") (A') (A') (A") (A') (A') (A') (A") (A') (A')
                 (A') (A") (A') (A') (A") (A') (A') (A") (A') (A')
                 (A') (A') (A") (A') (A") (A') (A") (A') (A') (A')
                 (A') (A") (A") (A') (A') (A') (A") (A') (A') (A")
                 (A') (A") (A") (A') (A') (A') (A') (A') (A') (A")
                 (A') (A") (A') (A') (A") (A') (A") (A') (A") (A')
                 (A") (A") (A') (A') (A') (A") (A') (A') (A') (A')
                 (A") (A') (A') (A") (A') (A') (A") (A") (A') (A')
                 (A") (A') (A") (A') (A') (A') (A") (A') (A") (A')
                 (A') (A') (A') (A") (A') (A") (A") (A') (A") (A')
                 (A') (A') (A') (A") (A') (A') (A") (A") (A') (A")
                 (A') (A') (A') (A') (A") (A') (A') (A') (A') (A')
 Beta  Orbitals:
       Occupied  (A') (A') (A') (A') (A') (A') (A") (A') (A') (A')
                 (A') (A") (A')
       Virtual   (A') (A") (A') (A") (A') (A') (A') (A') (A") (A')
                 (A') (A') (A") (A') (A') (A") (A') (A') (A') (A")
                 (A') (A') (A') (A") (A') (A') (A") (A') (A') (A")
                 (A') (A') (A') (A') (A") (A') (A") (A') (A") (A')
                 (A') (A') (A') (A") (A") (A') (A') (A') (A") (A')
                 (A') (A") (A') (A") (A") (A') (A') (A') (A') (A')
                 (A') (A") (A') (A") (A') (A') (A") (A') (A") (A')
                 (A") (A') (A") (A") (A') (A') (A') (A") (A') (A')
                 (A') (A') (A") (A') (A') (A") (A') (A') (A") (A")
                 (A') (A') (A") (A') (A") (A') (A') (A') (A") (A')
                 (A") (A') (A') (A') (A') (A") (A') (A") (A") (A')
                 (A") (A') (A') (A') (A') (A") (A') (A') (A") (A")
                 (A') (A") (A') (A') (A') (A') (A") (A') (A') (A')
                 (A') (A')
 The electronic state of the initial guess is 3-A".
 Initial guess <Sx>= 0.0000 <Sy>= 0.0000 <Sz>= 1.0000 <S**2>= 2.0000 S= 1.0000
 Leave Link  401 at Wed Aug  3 23:03:15 2016, MaxMem=    33554432 cpu:         2.4
 (Enter /home/proyectos/fulerenos/M3C-v2.0/M3C-deps_CCC/g09-AM64L-G09RevC.01/l502.exe)
 UHF open shell SCF:
 Using DIIS extrapolation, IDIIS=  1040.
 Integral symmetry usage will be decided dynamically.
 IVT=      100464 IEndB=      100464 NGot=    33554432 MDV=    33497341
 LenX=    33497341 LenY=    33470331
 Requested convergence on RMS density matrix=1.00D-08 within 128 cycles.
 Requested convergence on MAX density matrix=1.00D-06.
 Requested convergence on             energy=1.00D-06.
 No special actions if energy rises.
 Fock matrices will be formed incrementally for  20 cycles.

 Cycle   1  Pass 1  IDiag  1:
 FoFJK:  IHMeth= 1 ICntrl=       0 DoSepK=F KAlg= 0 I1Cent=   0 FoldK=F
 IRaf= 990000000 NMat=   1 IRICut=       1 DoRegI=T DoRafI=F ISym2E= 1.
 FoFCou: FMM=F IPFlag=           0 FMFlag=      100000 FMFlg1=           0
         NFxFlg=           0 DoJE=F BraDBF=F KetDBF=F FulRan=T
         wScrn=  0.000000 ICntrl=       0 IOpCl=  1 I1Cent=           0 NGrid=           0
         NMat0=    1 NMatS0=      1 NMatT0=    0 NMatD0=    1 NMtDS0=    0 NMtDT0=    0
 Petite list used in FoFCou.
 E= -474.413672040191    
 DIIS: error= 2.83D-02 at cycle   1 NSaved=   1.
 NSaved= 1 IEnMin= 1 EnMin= -474.413672040191     IErMin= 1 ErrMin= 2.83D-02
 ErrMax= 2.83D-02  0.00D+00 EMaxC= 1.00D-01 BMatC= 4.16D-01 BMatP= 4.16D-01
 IDIUse=3 WtCom= 7.17D-01 WtEn= 2.83D-01
 Coeff-Com:  0.100D+01
 Coeff-En:   0.100D+01
 Coeff:      0.100D+01
 Gap=     0.144 Goal=   None    Shift=    0.000
 Gap=     0.057 Goal=   None    Shift=    0.000
 GapD=    0.057 DampG=0.500 DampE=0.500 DampFc=0.2500 IDamp=-1.
 Damping current iteration by 2.50D-01
 RMSDP=5.78D-03 MaxDP=2.76D-01              OVMax= 2.48D-01

 Cycle   2  Pass 1  IDiag  1:
 RMSU=  1.44D-03    CP:  1.00D+00
 E= -474.446123732795     Delta-E=       -0.032451692604 Rises=F Damp=T
 DIIS: error= 1.71D-02 at cycle   2 NSaved=   2.
 NSaved= 2 IEnMin= 2 EnMin= -474.446123732795     IErMin= 2 ErrMin= 1.71D-02
 ErrMax= 1.71D-02  0.00D+00 EMaxC= 1.00D-01 BMatC= 1.16D-01 BMatP= 4.16D-01
 IDIUse=3 WtCom= 8.29D-01 WtEn= 1.71D-01
 Coeff-Com: -0.750D+00 0.175D+01
 Coeff-En:   0.000D+00 0.100D+01
 Coeff:     -0.621D+00 0.162D+01
 Gap=     0.135 Goal=   None    Shift=    0.000
 Gap=     0.127 Goal=   None    Shift=    0.000
 RMSDP=3.58D-03 MaxDP=1.56D-01 DE=-3.25D-02 OVMax= 1.95D-01

 Cycle   3  Pass 1  IDiag  1:
 RMSU=  2.66D-03    CP:  1.06D+00  2.45D+00
 E= -474.505666375730     Delta-E=       -0.059542642935 Rises=F Damp=F
 DIIS: error= 1.37D-02 at cycle   3 NSaved=   3.
 NSaved= 3 IEnMin= 3 EnMin= -474.505666375730     IErMin= 3 ErrMin= 1.37D-02
 ErrMax= 1.37D-02  0.00D+00 EMaxC= 1.00D-01 BMatC= 4.04D-02 BMatP= 1.16D-01
 IDIUse=3 WtCom= 8.63D-01 WtEn= 1.37D-01
 Coeff-Com: -0.466D+00 0.905D+00 0.562D+00
 Coeff-En:   0.000D+00 0.000D+00 0.100D+01
 Coeff:     -0.402D+00 0.781D+00 0.622D+00
 Gap=     0.125 Goal=   None    Shift=    0.000
 Gap=     0.116 Goal=   None    Shift=    0.000
 RMSDP=9.92D-04 MaxDP=4.09D-02 DE=-5.95D-02 OVMax= 7.26D-02

 Cycle   4  Pass 1  IDiag  1:
 RMSU=  7.90D-04    CP:  1.05D+00  2.69D+00  8.27D-01
 E= -474.512631917893     Delta-E=       -0.006965542163 Rises=F Damp=F
 DIIS: error= 7.19D-03 at cycle   4 NSaved=   4.
 NSaved= 4 IEnMin= 4 EnMin= -474.512631917893     IErMin= 4 ErrMin= 7.19D-03
 ErrMax= 7.19D-03  0.00D+00 EMaxC= 1.00D-01 BMatC= 1.44D-02 BMatP= 4.04D-02
 IDIUse=3 WtCom= 9.28D-01 WtEn= 7.19D-02
 Coeff-Com: -0.107D+00 0.172D+00 0.384D+00 0.550D+00
 Coeff-En:   0.000D+00 0.000D+00 0.291D+00 0.709D+00
 Coeff:     -0.990D-01 0.160D+00 0.377D+00 0.562D+00
 Gap=     0.146 Goal=   None    Shift=    0.000
 Gap=     0.138 Goal=   None    Shift=    0.000
 RMSDP=6.31D-04 MaxDP=3.20D-02 DE=-6.97D-03 OVMax= 6.00D-02

 Cycle   5  Pass 1  IDiag  1:
 RMSU=  4.51D-04    CP:  1.05D+00  2.61D+00  9.25D-01  5.74D-01
 E= -474.516334634662     Delta-E=       -0.003702716770 Rises=F Damp=F
 DIIS: error= 3.33D-03 at cycle   5 NSaved=   5.
 NSaved= 5 IEnMin= 5 EnMin= -474.516334634662     IErMin= 5 ErrMin= 3.33D-03
 ErrMax= 3.33D-03  0.00D+00 EMaxC= 1.00D-01 BMatC= 1.92D-03 BMatP= 1.44D-02
 IDIUse=3 WtCom= 9.67D-01 WtEn= 3.33D-02
 Coeff-Com:  0.854D-02-0.251D-01 0.137D+00 0.340D+00 0.539D+00
 Coeff-En:   0.000D+00 0.000D+00 0.000D+00 0.110D+00 0.890D+00
 Coeff:      0.826D-02-0.243D-01 0.133D+00 0.332D+00 0.551D+00
 Gap=     0.139 Goal=   None    Shift=    0.000
 Gap=     0.137 Goal=   None    Shift=    0.000
 RMSDP=2.30D-04 MaxDP=1.11D-02 DE=-3.70D-03 OVMax= 2.29D-02

 Cycle   6  Pass 1  IDiag  1:
 RMSU=  1.37D-04    CP:  1.05D+00  2.62D+00  9.37D-01  7.05D-01  6.69D-01
 E= -474.517094018112     Delta-E=       -0.000759383449 Rises=F Damp=F
 DIIS: error= 8.22D-04 at cycle   6 NSaved=   6.
 NSaved= 6 IEnMin= 6 EnMin= -474.517094018112     IErMin= 6 ErrMin= 8.22D-04
 ErrMax= 8.22D-04  0.00D+00 EMaxC= 1.00D-01 BMatC= 1.63D-04 BMatP= 1.92D-03
 IDIUse=3 WtCom= 9.92D-01 WtEn= 8.22D-03
 Coeff-Com:  0.157D-01-0.293D-01-0.140D-01-0.348D-02 0.186D+00 0.845D+00
 Coeff-En:   0.000D+00 0.000D+00 0.000D+00 0.000D+00 0.000D+00 0.100D+01
 Coeff:      0.156D-01-0.290D-01-0.139D-01-0.345D-02 0.184D+00 0.846D+00
 Gap=     0.140 Goal=   None    Shift=    0.000
 Gap=     0.140 Goal=   None    Shift=    0.000
 RMSDP=9.97D-05 MaxDP=5.58D-03 DE=-7.59D-04 OVMax= 7.71D-03

 Cycle   7  Pass 1  IDiag  1:
 RMSU=  6.43D-05    CP:  1.05D+00  2.60D+00  9.50D-01  6.90D-01  7.81D-01
                    CP:  1.22D+00
 E= -474.517208589786     Delta-E=       -0.000114571674 Rises=F Damp=F
 DIIS: error= 4.17D-04 at cycle   7 NSaved=   7.
 NSaved= 7 IEnMin= 7 EnMin= -474.517208589786     IErMin= 7 ErrMin= 4.17D-04
 ErrMax= 4.17D-04  0.00D+00 EMaxC= 1.00D-01 BMatC= 3.03D-05 BMatP= 1.63D-04
 IDIUse=3 WtCom= 9.96D-01 WtEn= 4.17D-03
 Coeff-Com:  0.124D-02-0.514D-04-0.412D-01-0.952D-01-0.756D-01 0.225D+00
 Coeff-Com:  0.986D+00
 Coeff-En:   0.000D+00 0.000D+00 0.000D+00 0.000D+00 0.000D+00 0.000D+00
 Coeff-En:   0.100D+01
 Coeff:      0.123D-02-0.512D-04-0.410D-01-0.948D-01-0.753D-01 0.224D+00
 Coeff:      0.986D+00
 Gap=     0.140 Goal=   None    Shift=    0.000
 Gap=     0.142 Goal=   None    Shift=    0.000
 RMSDP=6.54D-05 MaxDP=3.92D-03 DE=-1.15D-04 OVMax= 5.39D-03

 Cycle   8  Pass 1  IDiag  1:
 RMSU=  2.33D-05    CP:  1.05D+00  2.59D+00  9.57D-01  6.83D-01  8.54D-01
                    CP:  1.54D+00  1.18D+00
 E= -474.517242944887     Delta-E=       -0.000034355101 Rises=F Damp=F
 DIIS: error= 1.46D-04 at cycle   8 NSaved=   8.
 NSaved= 8 IEnMin= 8 EnMin= -474.517242944887     IErMin= 8 ErrMin= 1.46D-04
 ErrMax= 1.46D-04  0.00D+00 EMaxC= 1.00D-01 BMatC= 3.37D-06 BMatP= 3.03D-05
 IDIUse=3 WtCom= 9.99D-01 WtEn= 1.46D-03
 Coeff-Com: -0.749D-03 0.217D-02-0.201D-02 0.242D-02-0.226D-01-0.158D+00
 Coeff-Com:  0.144D-01 0.116D+01
 Coeff-En:   0.000D+00 0.000D+00 0.000D+00 0.000D+00 0.000D+00 0.000D+00
 Coeff-En:   0.000D+00 0.100D+01
 Coeff:     -0.748D-03 0.217D-02-0.200D-02 0.242D-02-0.226D-01-0.158D+00
 Coeff:      0.143D-01 0.116D+01
 Gap=     0.140 Goal=   None    Shift=    0.000
 Gap=     0.142 Goal=   None    Shift=    0.000
 RMSDP=2.64D-05 MaxDP=1.48D-03 DE=-3.44D-05 OVMax= 2.56D-03

 Cycle   9  Pass 1  IDiag  1:
 RMSU=  8.39D-06    CP:  1.05D+00  2.59D+00  9.60D-01  6.84D-01  8.81D-01
                    CP:  1.62D+00  1.36D+00  1.38D+00
 E= -474.517247568479     Delta-E=       -0.000004623593 Rises=F Damp=F
 DIIS: error= 2.33D-05 at cycle   9 NSaved=   9.
 NSaved= 9 IEnMin= 9 EnMin= -474.517247568479     IErMin= 9 ErrMin= 2.33D-05
 ErrMax= 2.33D-05  0.00D+00 EMaxC= 1.00D-01 BMatC= 2.51D-07 BMatP= 3.37D-06
 IDIUse=1 WtCom= 1.00D+00 WtEn= 0.00D+00
 Coeff-Com:  0.107D-03-0.768D-04 0.392D-02 0.858D-02 0.190D-02-0.265D-01
 Coeff-Com: -0.702D-01 0.839D-01 0.998D+00
 Coeff:      0.107D-03-0.768D-04 0.392D-02 0.858D-02 0.190D-02-0.265D-01
 Coeff:     -0.702D-01 0.839D-01 0.998D+00
 Gap=     0.140 Goal=   None    Shift=    0.000
 Gap=     0.142 Goal=   None    Shift=    0.000
 RMSDP=4.81D-06 MaxDP=2.22D-04 DE=-4.62D-06 OVMax= 5.48D-04

 Cycle  10  Pass 1  IDiag  1:
 RMSU=  2.54D-06    CP:  1.05D+00  2.59D+00  9.60D-01  6.84D-01  8.84D-01
                    CP:  1.63D+00  1.37D+00  1.53D+00  1.10D+00
 E= -474.517247782417     Delta-E=       -0.000000213938 Rises=F Damp=F
 DIIS: error= 8.84D-06 at cycle  10 NSaved=  10.
 NSaved=10 IEnMin=10 EnMin= -474.517247782417     IErMin=10 ErrMin= 8.84D-06
 ErrMax= 8.84D-06  0.00D+00 EMaxC= 1.00D-01 BMatC= 3.95D-08 BMatP= 2.51D-07
 IDIUse=1 WtCom= 1.00D+00 WtEn= 0.00D+00
 Coeff-Com:  0.285D-03-0.483D-03 0.103D-02 0.128D-02 0.115D-02 0.153D-01
 Coeff-Com: -0.126D-01-0.119D+00 0.179D+00 0.934D+00
 Coeff:      0.285D-03-0.483D-03 0.103D-02 0.128D-02 0.115D-02 0.153D-01
 Coeff:     -0.126D-01-0.119D+00 0.179D+00 0.934D+00
 Gap=     0.140 Goal=   None    Shift=    0.000
 Gap=     0.142 Goal=   None    Shift=    0.000
 RMSDP=1.57D-06 MaxDP=5.49D-05 DE=-2.14D-07 OVMax= 2.38D-04

 Cycle  11  Pass 1  IDiag  1:
 RMSU=  7.06D-07    CP:  1.05D+00  2.59D+00  9.61D-01  6.84D-01  8.83D-01
                    CP:  1.63D+00  1.37D+00  1.55D+00  1.23D+00  1.11D+00
 E= -474.517247811199     Delta-E=       -0.000000028781 Rises=F Damp=F
 DIIS: error= 4.34D-06 at cycle  11 NSaved=  11.
 NSaved=11 IEnMin=11 EnMin= -474.517247811199     IErMin=11 ErrMin= 4.34D-06
 ErrMax= 4.34D-06  0.00D+00 EMaxC= 1.00D-01 BMatC= 5.80D-09 BMatP= 3.95D-08
 IDIUse=1 WtCom= 1.00D+00 WtEn= 0.00D+00
 Coeff-Com:  0.136D-03-0.186D-03-0.403D-03-0.570D-03-0.695D-03 0.338D-02
 Coeff-Com:  0.533D-02-0.784D-02-0.117D+00-0.122D-01 0.113D+01
 Coeff:      0.136D-03-0.186D-03-0.403D-03-0.570D-03-0.695D-03 0.338D-02
 Coeff:      0.533D-02-0.784D-02-0.117D+00-0.122D-01 0.113D+01
 Gap=     0.140 Goal=   None    Shift=    0.000
 Gap=     0.142 Goal=   None    Shift=    0.000
 RMSDP=6.31D-07 MaxDP=2.50D-05 DE=-2.88D-08 OVMax= 8.38D-05

 Cycle  12  Pass 1  IDiag  1:
 RMSU=  1.70D-07    CP:  1.05D+00  2.59D+00  9.61D-01  6.85D-01  8.83D-01
                    CP:  1.63D+00  1.37D+00  1.56D+00  1.25D+00  1.23D+00
                    CP:  1.45D+00
 E= -474.517247815286     Delta-E=       -0.000000004088 Rises=F Damp=F
 DIIS: error= 7.28D-07 at cycle  12 NSaved=  12.
 NSaved=12 IEnMin=12 EnMin= -474.517247815286     IErMin=12 ErrMin= 7.28D-07
 ErrMax= 7.28D-07  0.00D+00 EMaxC= 1.00D-01 BMatC= 1.04D-10 BMatP= 5.80D-09
 IDIUse=1 WtCom= 1.00D+00 WtEn= 0.00D+00
 Coeff-Com: -0.870D-05 0.145D-04-0.399D-04-0.158D-04-0.655D-04-0.801D-03
 Coeff-Com:  0.299D-03 0.536D-02-0.989D-02-0.207D-01-0.458D-01 0.107D+01
 Coeff:     -0.870D-05 0.145D-04-0.399D-04-0.158D-04-0.655D-04-0.801D-03
 Coeff:      0.299D-03 0.536D-02-0.989D-02-0.207D-01-0.458D-01 0.107D+01
 Gap=     0.140 Goal=   None    Shift=    0.000
 Gap=     0.142 Goal=   None    Shift=    0.000
 RMSDP=1.30D-07 MaxDP=6.41D-06 DE=-4.09D-09 OVMax= 1.61D-05

 Cycle  13  Pass 1  IDiag  1:
 RMSU=  4.44D-08    CP:  1.05D+00  2.59D+00  9.61D-01  6.85D-01  8.83D-01
                    CP:  1.63D+00  1.37D+00  1.56D+00  1.25D+00  1.25D+00
                    CP:  1.54D+00  1.27D+00
 E= -474.517247815413     Delta-E=       -0.000000000127 Rises=F Damp=F
 DIIS: error= 1.48D-07 at cycle  13 NSaved=  13.
 NSaved=13 IEnMin=13 EnMin= -474.517247815413     IErMin=13 ErrMin= 1.48D-07
 ErrMax= 1.48D-07  0.00D+00 EMaxC= 1.00D-01 BMatC= 1.25D-11 BMatP= 1.04D-10
 IDIUse=1 WtCom= 1.00D+00 WtEn= 0.00D+00
 Coeff-Com: -0.879D-05 0.126D-04 0.321D-04 0.460D-04 0.441D-04-0.307D-03
 Coeff-Com: -0.280D-03 0.609D-03 0.861D-02 0.776D-03-0.100D+00 0.228D-01
 Coeff-Com:  0.107D+01
 Coeff:     -0.879D-05 0.126D-04 0.321D-04 0.460D-04 0.441D-04-0.307D-03
 Coeff:     -0.280D-03 0.609D-03 0.861D-02 0.776D-03-0.100D+00 0.228D-01
 Coeff:      0.107D+01
 Gap=     0.140 Goal=   None    Shift=    0.000
 Gap=     0.142 Goal=   None    Shift=    0.000
 RMSDP=3.84D-08 MaxDP=1.30D-06 DE=-1.27D-10 OVMax= 4.26D-06

 Cycle  14  Pass 1  IDiag  1:
 RMSU=  1.92D-08    CP:  1.05D+00  2.59D+00  9.61D-01  6.85D-01  8.83D-01
                    CP:  1.63D+00  1.37D+00  1.56D+00  1.25D+00  1.25D+00
                    CP:  1.56D+00  1.38D+00  1.24D+00
 E= -474.517247815423     Delta-E=       -0.000000000010 Rises=F Damp=F
 DIIS: error= 5.24D-08 at cycle  14 NSaved=  14.
 NSaved=14 IEnMin=14 EnMin= -474.517247815423     IErMin=14 ErrMin= 5.24D-08
 ErrMax= 5.24D-08  0.00D+00 EMaxC= 1.00D-01 BMatC= 1.29D-12 BMatP= 1.25D-11
 IDIUse=1 WtCom= 1.00D+00 WtEn= 0.00D+00
 Coeff-Com:  0.100D-05-0.164D-05 0.107D-04 0.111D-04 0.124D-04 0.446D-04
 Coeff-Com: -0.758D-04-0.538D-03 0.250D-02 0.279D-02-0.934D-02-0.104D+00
 Coeff-Com:  0.217D+00 0.892D+00
 Coeff:      0.100D-05-0.164D-05 0.107D-04 0.111D-04 0.124D-04 0.446D-04
 Coeff:     -0.758D-04-0.538D-03 0.250D-02 0.279D-02-0.934D-02-0.104D+00
 Coeff:      0.217D+00 0.892D+00
 Gap=     0.140 Goal=   None    Shift=    0.000
 Gap=     0.142 Goal=   None    Shift=    0.000
 RMSDP=9.56D-09 MaxDP=4.77D-07 DE=-1.02D-11 OVMax= 3.99D-07

 SCF Done:  E(UB3LYP) =  -474.517247815     A.U. after   14 cycles
            NFock= 14  Conv=0.96D-08     -V/T= 2.0018
 <Sx>= 0.0000 <Sy>= 0.0000 <Sz>= 1.0000 <S**2>= 2.0485 S= 1.0161
 <L.S>= 0.000000000000E+00
 KE= 4.736534624057D+02 PE=-1.265991847698D+03 EE= 2.390479578692D+02
 Annihilation of the first spin contaminant:
 S**2 before annihilation     2.0485,   after     2.0005
 Leave Link  502 at Wed Aug  3 23:03:45 2016, MaxMem=    33554432 cpu:       119.8
 (Enter /home/proyectos/fulerenos/M3C-v2.0/M3C-deps_CCC/g09-AM64L-G09RevC.01/l801.exe)
 DoSCS=F DFT=T ScalE2(SS,OS)=  1.000000  1.000000
 Range of M.O.s used for correlation:     1   145
 NBasis=   145 NAE=    15 NBE=    13 NFC=     0 NFV=     0
 NROrb=    145 NOA=    15 NOB=    13 NVA=   130 NVB=   132

 **** Warning!!: The largest alpha MO coefficient is  0.42691080D+02


 **** Warning!!: The largest beta MO coefficient is  0.42167076D+02

 Leave Link  801 at Wed Aug  3 23:03:45 2016, MaxMem=    33554432 cpu:         0.1
 (Enter /home/proyectos/fulerenos/M3C-v2.0/M3C-deps_CCC/g09-AM64L-G09RevC.01/l1101.exe)
 Using compressed storage, NAtomX=     5.
 Will process      6 centers per pass.
 Leave Link 1101 at Wed Aug  3 23:03:46 2016, MaxMem=    33554432 cpu:         1.3
 (Enter /home/proyectos/fulerenos/M3C-v2.0/M3C-deps_CCC/g09-AM64L-G09RevC.01/l1102.exe)
 Symmetrizing basis deriv contribution to polar:
 IMax=3 JMax=2 DiffMx= 0.00D+00
 Leave Link 1102 at Wed Aug  3 23:03:46 2016, MaxMem=    33554432 cpu:         0.2
 (Enter /home/proyectos/fulerenos/M3C-v2.0/M3C-deps_CCC/g09-AM64L-G09RevC.01/l1110.exe)
 Forming Gx(P) for the SCF density, NAtomX=     5.
 Integral derivatives from FoFJK, PRISM(SPDF).
 Do as many integral derivatives as possible in FoFJK.
 G2DrvN: MDV=      33554288.
 G2DrvN: will do     6 centers at a time, making    1 passes.
 Calling FoFCou, ICntrl=  3107 FMM=F I1Cent=   0 AccDes= 0.00D+00.
 FoFJK:  IHMeth= 1 ICntrl=    3107 DoSepK=F KAlg= 0 I1Cent=   0 FoldK=F
 IRaf=         0 NMat=   1 IRICut=       1 DoRegI=T DoRafI=F ISym2E= 1.
 FoFCou: FMM=F IPFlag=           0 FMFlag=      100000 FMFlg1=           0
         NFxFlg=           0 DoJE=F BraDBF=F KetDBF=F FulRan=T
         wScrn=  0.000000 ICntrl=    3107 IOpCl=  1 I1Cent=           0 NGrid=           0
         NMat0=    1 NMatS0=      1 NMatT0=    0 NMatD0=    1 NMtDS0=    0 NMtDT0=    0
 Petite list used in FoFCou.
 End of G2Drv F.D. properties file   721 does not exist.
 End of G2Drv F.D. properties file   722 does not exist.
 End of G2Drv F.D. properties file   788 does not exist.
 Leave Link 1110 at Wed Aug  3 23:04:03 2016, MaxMem=    33554432 cpu:        65.9
 (Enter /home/proyectos/fulerenos/M3C-v2.0/M3C-deps_CCC/g09-AM64L-G09RevC.01/l1002.exe)
 Minotr:  UHF open shell wavefunction.
          IDoAtm=11111
          Direct CPHF calculation.
          Differentiating once with respect to electric field.
                with respect to dipole field.
          Differentiating once with respect to nuclear coordinates.
          Using symmetry in CPHF.
          Requested convergence is 1.0D-08 RMS, and 1.0D-07 maximum.
          Secondary convergence is 1.0D-12 RMS, and 1.0D-12 maximum.
          NewPWx=T KeepS1=F KeepF1=F KeepIn=T MapXYZ=F SortEE=F KeepMc=T.
          MDV=      33554088 using IRadAn=       2.
 Generate precomputed XC quadrature information.
          Solving linear equations simultaneously, MaxMat=       0.
 FoFJK:  IHMeth= 1 ICntrl=       0 DoSepK=F KAlg= 0 I1Cent=   0 FoldK=F
 IRaf= 990000000 NMat=  18 IRICut=      45 DoRegI=T DoRafI=T ISym2E= 2.
 FoFCou: FMM=F IPFlag=           0 FMFlag=      100000 FMFlg1=           0
         NFxFlg=           0 DoJE=F BraDBF=F KetDBF=F FulRan=T
         wScrn=  0.000000 ICntrl=       0 IOpCl=  1 I1Cent=           0 NGrid=           0
         NMat0=   18 NMatS0=     18 NMatT0=    0 NMatD0=   18 NMtDS0=    0 NMtDT0=    0
 Integrals replicated using symmetry in FoFCou.
          There are    18 degrees of freedom in the 1st order CPHF.  IDoFFX=6 NUNeed=     3.
     15 vectors produced by pass  0 Test12= 2.04D-14 5.56D-09 XBig12= 1.02D+02 5.63D+00.
 AX will form    15 AO Fock derivatives at one time.
     15 vectors produced by pass  1 Test12= 2.04D-14 5.56D-09 XBig12= 1.82D+01 1.28D+00.
     15 vectors produced by pass  2 Test12= 2.04D-14 5.56D-09 XBig12= 8.05D-01 2.17D-01.
     15 vectors produced by pass  3 Test12= 2.04D-14 5.56D-09 XBig12= 1.01D-02 3.70D-02.
     15 vectors produced by pass  4 Test12= 2.04D-14 5.56D-09 XBig12= 1.49D-04 3.48D-03.
     15 vectors produced by pass  5 Test12= 2.04D-14 5.56D-09 XBig12= 2.09D-06 4.56D-04.
     15 vectors produced by pass  6 Test12= 2.04D-14 5.56D-09 XBig12= 1.36D-08 3.30D-05.
      9 vectors produced by pass  7 Test12= 2.04D-14 5.56D-09 XBig12= 8.16D-11 1.98D-06.
      3 vectors produced by pass  8 Test12= 2.04D-14 5.56D-09 XBig12= 2.16D-13 9.22D-08.
      3 vectors produced by pass  9 Test12= 2.04D-14 5.56D-09 XBig12= 4.65D-15 1.74D-08.
 InvSVY:  IOpt=1 It=  1 EMax= 1.11D-15
 Solved reduced A of dimension   120 with    15 vectors.
 FullF1:  Do perturbations    1 to     3.
 Isotropic polarizability for W=    0.000000       32.52 Bohr**3.
 End of Minotr F.D. properties file   721 does not exist.
 End of Minotr F.D. properties file   722 does not exist.
 End of Minotr F.D. properties file   788 does not exist.
 Leave Link 1002 at Wed Aug  3 23:04:52 2016, MaxMem=    33554432 cpu:       190.6
 (Enter /home/proyectos/fulerenos/M3C-v2.0/M3C-deps_CCC/g09-AM64L-G09RevC.01/l601.exe)
 Copying SCF densities to generalized density rwf, IOpCl= 1 IROHF=0.

 **********************************************************************

            Population analysis using the SCF density.

 **********************************************************************

 Orbital symmetries:
 Alpha Orbitals:
       Occupied  (A') (A') (A') (A') (A") (A') (A') (A') (A') (A')
                 (A') (A') (A") (A') (A")
       Virtual   (A') (A") (A') (A') (A') (A') (A") (A') (A') (A")
                 (A') (A") (A') (A') (A") (A') (A") (A') (A') (A')
                 (A') (A') (A') (A") (A') (A') (A') (A") (A') (A')
                 (A") (A') (A') (A') (A") (A") (A') (A') (A') (A')
                 (A') (A") (A") (A') (A') (A") (A') (A') (A") (A')
                 (A") (A') (A") (A') (A') (A') (A') (A') (A') (A")
                 (A") (A') (A') (A') (A") (A') (A") (A') (A") (A')
                 (A") (A") (A') (A') (A') (A") (A') (A') (A') (A')
                 (A") (A') (A') (A") (A') (A") (A') (A') (A") (A')
                 (A") (A') (A") (A') (A') (A') (A") (A') (A") (A')
                 (A') (A') (A') (A") (A') (A") (A") (A') (A") (A')
                 (A') (A') (A') (A") (A') (A') (A") (A") (A') (A")
                 (A') (A') (A') (A') (A") (A') (A') (A') (A') (A')
 Beta  Orbitals:
       Occupied  (A') (A') (A') (A') (A') (A') (A") (A') (A') (A')
                 (A') (A') (A")
       Virtual   (A') (A") (A') (A") (A') (A') (A') (A') (A') (A")
                 (A") (A') (A') (A") (A') (A') (A") (A') (A") (A')
                 (A') (A') (A') (A') (A') (A") (A') (A') (A') (A")
                 (A') (A") (A') (A') (A') (A') (A") (A") (A') (A')
                 (A') (A') (A') (A") (A") (A') (A') (A") (A') (A')
                 (A') (A") (A") (A') (A") (A') (A') (A') (A') (A')
                 (A') (A") (A') (A") (A') (A") (A') (A') (A") (A')
                 (A") (A') (A") (A") (A') (A') (A') (A") (A') (A')
                 (A') (A') (A") (A') (A') (A") (A') (A') (A") (A")
                 (A') (A') (A") (A') (A") (A') (A') (A') (A") (A')
                 (A") (A') (A') (A') (A') (A") (A') (A") (A") (A')
                 (A") (A') (A') (A') (A') (A") (A') (A') (A") (A")
                 (A') (A") (A') (A') (A') (A') (A") (A') (A') (A')
                 (A') (A')
 The electronic state is 3-A".
 Alpha  occ. eigenvalues --  -89.47138 -10.91030 -10.78827  -8.54874  -6.51460
 Alpha  occ. eigenvalues --   -6.51044  -6.50426  -1.40064  -1.30118  -1.05649
 Alpha  occ. eigenvalues --   -1.01841  -0.94973  -0.91052  -0.89262  -0.82061
 Alpha virt. eigenvalues --   -0.68056  -0.54792  -0.48585  -0.42427  -0.35602
 Alpha virt. eigenvalues --   -0.33501  -0.30146  -0.29906  -0.27344  -0.26950
 Alpha virt. eigenvalues --   -0.23873  -0.22913  -0.22203  -0.20403  -0.19523
 Alpha virt. eigenvalues --   -0.18803  -0.16870  -0.15697  -0.14289  -0.13004
 Alpha virt. eigenvalues --   -0.11926  -0.09387  -0.07202  -0.06710  -0.04651
 Alpha virt. eigenvalues --   -0.04043  -0.03667  -0.03375   0.00812   0.02178
 Alpha virt. eigenvalues --    0.02551   0.04859   0.06738   0.08174   0.09606
 Alpha virt. eigenvalues --    0.10742   0.11646   0.15783   0.17800   0.20591
 Alpha virt. eigenvalues --    0.22458   0.24793   0.28962   0.32010   0.34158
 Alpha virt. eigenvalues --    0.39256   0.39605   0.44282   0.45332   0.47068
 Alpha virt. eigenvalues --    0.48363   0.49124   0.56509   0.57219   0.58380
 Alpha virt. eigenvalues --    0.69765   0.75310   0.83751   0.86577   0.88054
 Alpha virt. eigenvalues --    0.93876   0.94182   0.99375   1.05433   1.06583
 Alpha virt. eigenvalues --    1.13257   1.14631   1.16146   1.21078   1.28800
 Alpha virt. eigenvalues --    1.31420   1.39702   1.47471   1.51321   1.51917
 Alpha virt. eigenvalues --    1.63063   1.64022   1.70627   1.86262   1.90607
 Alpha virt. eigenvalues --    2.10295   2.16997   2.18069   2.18212   2.21090
 Alpha virt. eigenvalues --    2.24938   2.25383   2.31578   2.31662   2.43943
 Alpha virt. eigenvalues --    2.54192   2.61485   2.62308   2.72158   2.91853
 Alpha virt. eigenvalues --    2.93506   3.06899   3.12961   3.31499   3.35964
 Alpha virt. eigenvalues --    3.43624   3.52983   3.58159   3.64110   3.86939
 Alpha virt. eigenvalues --    3.95430   4.07499   4.11133   4.24131   4.37371
 Alpha virt. eigenvalues --    4.43838   4.86316   5.11869   6.30198   6.33565
 Alpha virt. eigenvalues --    6.44413   6.49907   6.55814   6.60638   6.88107
 Alpha virt. eigenvalues --    6.91355   7.09187   7.53424   7.85216  16.73799
 Alpha virt. eigenvalues --   16.96964  17.27087  23.00743  25.28893 188.72924
  Beta  occ. eigenvalues --  -89.46608 -10.88091 -10.78860  -8.54387  -6.50724
  Beta  occ. eigenvalues --   -6.50141  -6.49825  -1.37835  -1.26352  -1.03266
  Beta  occ. eigenvalues --   -1.00860  -0.88222  -0.86922
  Beta virt. eigenvalues --   -0.72736  -0.68863  -0.63708  -0.50172  -0.48240
  Beta virt. eigenvalues --   -0.40183  -0.35449  -0.32731  -0.29717  -0.28672
  Beta virt. eigenvalues --   -0.26184  -0.26169  -0.23734  -0.21862  -0.21167
  Beta virt. eigenvalues --   -0.19919  -0.18019  -0.17761  -0.16238  -0.15451
  Beta virt. eigenvalues --   -0.13811  -0.12719  -0.11366  -0.08651  -0.06808
  Beta virt. eigenvalues --   -0.05258  -0.04348  -0.03496  -0.02537  -0.02378
  Beta virt. eigenvalues --    0.01404   0.03511   0.03610   0.05713   0.06840
  Beta virt. eigenvalues --    0.09830   0.10941   0.12706   0.13323   0.17024
  Beta virt. eigenvalues --    0.18150   0.21903   0.23827   0.25042   0.29641
  Beta virt. eigenvalues --    0.32783   0.35128   0.40184   0.40578   0.45078
  Beta virt. eigenvalues --    0.47279   0.48131   0.50447   0.51705   0.56679
  Beta virt. eigenvalues --    0.57760   0.58886   0.70806   0.75943   0.84805
  Beta virt. eigenvalues --    0.88325   0.92060   0.95728   0.95776   1.02394
  Beta virt. eigenvalues --    1.10236   1.10331   1.15791   1.18253   1.19541
  Beta virt. eigenvalues --    1.23577   1.31115   1.34635   1.43724   1.48758
  Beta virt. eigenvalues --    1.52705   1.56107   1.66799   1.67964   1.72097
  Beta virt. eigenvalues --    1.88243   1.91888   2.14042   2.18649   2.20195
  Beta virt. eigenvalues --    2.22224   2.23212   2.28607   2.28770   2.32437
  Beta virt. eigenvalues --    2.34080   2.46395   2.55874   2.62495   2.65485
  Beta virt. eigenvalues --    2.75136   2.93049   2.95344   3.09389   3.14808
  Beta virt. eigenvalues --    3.31522   3.40925   3.43644   3.52964   3.60546
  Beta virt. eigenvalues --    3.63862   3.87785   3.98457   4.09152   4.13131
  Beta virt. eigenvalues --    4.25641   4.37898   4.45787   4.86459   5.12497
  Beta virt. eigenvalues --    6.35785   6.38767   6.49462   6.52715   6.59313
  Beta virt. eigenvalues --    6.67176   6.91001   6.91781   7.10988   7.56673
  Beta virt. eigenvalues --    7.86082  16.75946  16.97413  17.27508  23.02394
  Beta virt. eigenvalues --   25.30746 188.73408
          Condensed to atoms (all electrons):
               1          2          3          4          5
     1  S   14.897157   0.404540  -0.100021  -0.054608   0.296102
     2  C    0.404540   6.704294  -1.906331   0.420008   0.020261
     3  C   -0.100021  -1.906331   7.591240  -0.069014  -0.006331
     4  H   -0.054608   0.420008  -0.069014   0.406860  -0.001727
     5  H    0.296102   0.020261  -0.006331  -0.001727   0.394693
          Atomic-Atomic Spin Densities.
               1          2          3          4          5
     1  S    0.792178  -0.082695   0.055940   0.000631   0.005772
     2  C   -0.082695   0.534046  -0.598520  -0.023626  -0.000772
     3  C    0.055940  -0.598520   1.941215   0.018857  -0.000055
     4  H    0.000631  -0.023626   0.018857  -0.004754  -0.000371
     5  H    0.005772  -0.000772  -0.000055  -0.000371  -0.013007
 Mulliken charges and spin densities:
               1          2
     1  S    0.556829   0.771826
     2  C    0.357229  -0.171567
     3  C    0.490458   1.417438
     4  H    0.298481  -0.009262
     5  H    0.297003  -0.008434
 Sum of Mulliken charges =   2.00000   2.00000
 Mulliken charges and spin densities with hydrogens summed into heavy atoms:
               1          2
     1  S    0.853832   0.763392
     2  C    0.655710  -0.180830
     3  C    0.490458   1.417438
 APT charges:
               1
     1  S    0.853465
     2  C   -0.282139
     3  C    0.823910
     4  H    0.318128
     5  H    0.286637
 Sum of APT charges =   2.00000
 APT charges with hydrogens summed into heavy atoms:
               1
     1  S    1.140101
     2  C    0.035989
     3  C    0.823910
 Electronic spatial extent (au):  <R**2>=            185.8816
 Charge=              2.0000 electrons
 Dipole moment (field-independent basis, Debye):
    X=             -0.2711    Y=              3.1913    Z=             -0.0000  Tot=              3.2028
 Quadrupole moment (field-independent basis, Debye-Ang):
   XX=             -9.2602   YY=             -1.2062   ZZ=            -20.2633
   XY=              7.2524   XZ=              0.0000   YZ=              0.0000
 Traceless Quadrupole moment (field-independent basis, Debye-Ang):
   XX=              0.9831   YY=              9.0370   ZZ=            -10.0201
   XY=              7.2524   XZ=              0.0000   YZ=              0.0000
 Octapole moment (field-independent basis, Debye-Ang**2):
  XXX=             -3.0741  YYY=             13.0431  ZZZ=             -0.0000  XYY=              3.0094
  XXY=              4.9277  XXZ=             -0.0000  XZZ=             -0.9104  YZZ=             -2.2972
  YYZ=             -0.0000  XYZ=              0.0000
 Hexadecapole moment (field-independent basis, Debye-Ang**3):
 XXXX=            -34.6652 YYYY=           -101.4357 ZZZZ=            -19.9539 XXXY=            -12.5227
 XXXZ=             -0.0000 YYYX=            -10.5754 YYYZ=             -0.0000 ZZZX=             -0.0000
 ZZZY=             -0.0000 XXYY=            -15.4081 XXZZ=            -13.2033 YYZZ=            -28.7591
 XXYZ=             -0.0000 YYXZ=              0.0000 ZZXY=             -8.9259
 N-N= 7.877317960749D+01 E-N=-1.265991844689D+03  KE= 4.736534624057D+02
 Symmetry A'   KE= 4.337203417968D+02
 Symmetry A"   KE= 3.993312060888D+01
  Exact polarizability:  33.053  10.300  43.867  -0.000  -0.000  20.643
 Approx polarizability:  62.671  25.643  82.044   0.000   0.000  29.738
                          Isotropic Fermi Contact Couplings
        Atom                 a.u.       MegaHertz       Gauss      10(-4) cm-1
     1  S(33)              0.09642      16.55815       5.90836       5.52321
     2  C(13)              0.08140      45.75437      16.32630      15.26201
     3  C(13)              1.09034     612.87378     218.68860     204.43269
     4  H(1)              -0.00699     -15.62751      -5.57629      -5.21278
     5  H(1)              -0.00404      -9.03218      -3.22291      -3.01281
 --------------------------------------------------------
       Center         ----  Spin Dipole Couplings  ----
                      3XX-RR        3YY-RR        3ZZ-RR
 --------------------------------------------------------
     1   Atom       -1.864600     -1.988616      3.853216
     2   Atom        0.303426      0.077295     -0.380721
     3   Atom       -0.082312     -0.146228      0.228541
     4   Atom        0.036878     -0.011259     -0.025618
     5   Atom        0.035145     -0.032475     -0.002670
 --------------------------------------------------------
                        XY            XZ            YZ
 --------------------------------------------------------
     1   Atom        0.174864      0.000000     -0.000000
     2   Atom        0.214667      0.000000      0.000000
     3   Atom        0.726113      0.000000      0.000000
     4   Atom        0.013564      0.000000     -0.000000
     5   Atom       -0.000346     -0.000000      0.000000
 --------------------------------------------------------


 ---------------------------------------------------------------------------------
              Anisotropic Spin Dipole Couplings in Principal Axis System
 ---------------------------------------------------------------------------------

       Atom             a.u.   MegaHertz   Gauss  10(-4) cm-1        Axes

              Baa    -2.1121   -86.596   -30.900   -28.885 -0.5770  0.8168 -0.0000
     1 S(33)  Bbb    -1.7411   -71.382   -25.471   -23.811  0.8168  0.5770  0.0000
              Bcc     3.8532   157.978    56.371    52.696  0.0000  0.0000  1.0000
 
              Baa    -0.3807   -51.089   -18.230   -17.041  0.0000  0.0000  1.0000
     2 C(13)  Bbb    -0.0523    -7.013    -2.502    -2.339 -0.5167  0.8562  0.0000
              Bcc     0.4330    58.102    20.732    19.381  0.8562  0.5167 -0.0000
 
              Baa    -0.8411  -112.866   -40.273   -37.648 -0.6914  0.7225 -0.0000
     3 C(13)  Bbb     0.2285    30.668    10.943    10.230  0.0000  0.0000  1.0000
              Bcc     0.6125    82.198    29.330    27.418  0.7225  0.6914  0.0000
 
              Baa    -0.0256   -13.669    -4.877    -4.559  0.0000  0.0000  1.0000
     4 H(1)   Bbb    -0.0148    -7.906    -2.821    -2.637 -0.2538  0.9673 -0.0000
              Bcc     0.0404    21.575     7.698     7.197  0.9673  0.2538  0.0000
 
              Baa    -0.0325   -17.328    -6.183    -5.780  0.0051  1.0000 -0.0000
     5 H(1)   Bbb    -0.0027    -1.425    -0.508    -0.475  0.0000  0.0000  1.0000
              Bcc     0.0351    18.753     6.691     6.255  1.0000 -0.0051 -0.0000
 

 ---------------------------------------------------------------------------------

 No NMR shielding tensors so no spin-rotation constants.
 Leave Link  601 at Wed Aug  3 23:04:53 2016, MaxMem=    33554432 cpu:         1.5
 (Enter /home/proyectos/fulerenos/M3C-v2.0/M3C-deps_CCC/g09-AM64L-G09RevC.01/l701.exe)
 Compute integral second derivatives.
 ... and contract with generalized density number  0.
 Leave Link  701 at Wed Aug  3 23:04:53 2016, MaxMem=    33554432 cpu:         1.3
 (Enter /home/proyectos/fulerenos/M3C-v2.0/M3C-deps_CCC/g09-AM64L-G09RevC.01/l702.exe)
 L702 exits ... SP integral derivatives will be done elsewhere.
 Leave Link  702 at Wed Aug  3 23:04:53 2016, MaxMem=    33554432 cpu:         0.1
 (Enter /home/proyectos/fulerenos/M3C-v2.0/M3C-deps_CCC/g09-AM64L-G09RevC.01/l703.exe)
 Compute integral second derivatives, UseDBF=F ICtDFT=           0.
 Integral derivatives from FoFJK, PRISM(SPDF).
 Calling FoFJK, ICntrl=    100127 FMM=F ISym2X=1 I1Cent= 0 IOpClX= 1 NMat=1 NMatS=1 NMatT=0.
 FoFJK:  IHMeth= 1 ICntrl=  100127 DoSepK=F KAlg= 0 I1Cent=   0 FoldK=F
 IRaf=         0 NMat=   1 IRICut=       1 DoRegI=T DoRafI=F ISym2E= 1.
 FoFCou: FMM=F IPFlag=           0 FMFlag=      100000 FMFlg1=         800
         NFxFlg=           0 DoJE=F BraDBF=F KetDBF=F FulRan=T
         wScrn=  0.000000 ICntrl=  100127 IOpCl=  1 I1Cent=           0 NGrid=           0
         NMat0=    1 NMatS0=      1 NMatT0=    0 NMatD0=    1 NMtDS0=    0 NMtDT0=    0
 Petite list used in FoFCou.
 Leave Link  703 at Wed Aug  3 23:05:11 2016, MaxMem=    33554432 cpu:        73.0
 (Enter /home/proyectos/fulerenos/M3C-v2.0/M3C-deps_CCC/g09-AM64L-G09RevC.01/l716.exe)
 Dipole        =-1.06652203D-01 1.25555261D+00-5.77905263D-17
 Polarizability= 3.30526084D+01 1.02996507D+01 4.38666901D+01
                -1.63023647D-09-1.97899380D-08 2.06431143D+01
 Full mass-weighted force constant matrix:
 Low frequencies ---   -7.9532    0.0015    0.0032    0.0039    4.7662   13.8132
 Low frequencies ---  286.7726  398.4003  596.2031
 Diagonal vibrational polarizability:
        3.3452904       3.4965353       9.3016301
 Harmonic frequencies (cm**-1), IR intensities (KM/Mole), Raman scattering
 activities (A**4/AMU), depolarization ratios for plane and unpolarized
 incident light, reduced masses (AMU), force constants (mDyne/A),
 and normal coordinates:
                      1                      2                      3
                     A'                     A"                     A"
 Frequencies --    286.7721               398.3920               596.2028
 Red. masses --      7.8828                 1.3073                 1.5135
 Frc consts  --      0.3819                 0.1222                 0.3170
 IR Inten    --      4.4602                41.8891                29.0469
  Atom  AN      X      Y      Z        X      Y      Z        X      Y      Z
     1  16    -0.14  -0.11   0.00    -0.00  -0.00  -0.01    -0.00  -0.00   0.03
     2   6     0.46  -0.23   0.00     0.00  -0.00  -0.13     0.00   0.00  -0.20
     3   6    -0.13   0.51  -0.00    -0.00   0.00   0.10     0.00   0.00   0.06
     4   1     0.52  -0.05   0.00     0.00  -0.00  -0.19     0.00   0.00   0.96
     5   1    -0.11   0.38  -0.00    -0.00   0.00   0.97    -0.00   0.00  -0.18
                      4                      5                      6
                     A'                     A'                     A'
 Frequencies --    691.2201               874.4525               984.1438
 Red. masses --     11.4132                 1.0458                 1.1267
 Frc consts  --      3.2129                 0.4712                 0.6430
 IR Inten    --     10.9397                 5.7501                16.9298
  Atom  AN      X      Y      Z        X      Y      Z        X      Y      Z
     1  16    -0.06  -0.35  -0.00     0.01  -0.00  -0.00     0.03  -0.03  -0.00
     2   6    -0.09   0.67   0.00    -0.01   0.00  -0.00    -0.04   0.02   0.00
     3   6     0.29   0.25  -0.00    -0.05  -0.02   0.00    -0.05  -0.04  -0.00
     4   1    -0.30   0.33  -0.00     0.56   0.75  -0.00     0.15   0.26  -0.00
     5   1    -0.06  -0.27  -0.00    -0.03  -0.36   0.00     0.10   0.94  -0.00
                      7                      8                      9
                     A'                     A'                     A'
 Frequencies --   1460.5541              2459.2969              2688.0104
 Red. masses --      9.6125                 1.0398                 1.0745
 Frc consts  --     12.0816                 3.7052                 4.5743
 IR Inten    --    143.2787               195.4755               380.2010
  Atom  AN      X      Y      Z        X      Y      Z        X      Y      Z
     1  16    -0.00   0.00   0.00    -0.03   0.00   0.00    -0.00   0.00  -0.00
     2   6     0.50   0.41   0.00     0.00  -0.00  -0.00    -0.06   0.05   0.00
     3   6    -0.47  -0.37  -0.00     0.00   0.00  -0.00    -0.01   0.00  -0.00
     4   1    -0.21  -0.39   0.00    -0.03   0.03   0.00     0.79  -0.61  -0.00
     5   1    -0.01  -0.14  -0.00     1.00  -0.07  -0.00     0.05  -0.01   0.00

 -------------------
 - Thermochemistry -
 -------------------
 Temperature   298.150 Kelvin.  Pressure   1.00000 Atm.
 Atom     1 has atomic number 16 and mass  31.97207
 Atom     2 has atomic number  6 and mass  12.00000
 Atom     3 has atomic number  6 and mass  12.00000
 Atom     4 has atomic number  1 and mass   1.00783
 Atom     5 has atomic number  1 and mass   1.00783
 Molecular mass:    57.98772 amu.
 Principal axes and moments of inertia in atomic units:
                           1         2         3
     Eigenvalues --    23.22287 279.50504 302.72791
           X            0.41067   0.91179   0.00000
           Y            0.91179  -0.41067   0.00000
           Z           -0.00000  -0.00000   1.00000
 This molecule is an asymmetric top.
 Rotational symmetry number  1.
 Rotational temperatures (Kelvin)      3.72968     0.30988     0.28611
 Rotational constants (GHZ):          77.71396     6.45692     5.96160
 Zero-point vibrational energy      62439.4 (Joules/Mol)
                                   14.92336 (Kcal/Mol)
 Warning -- explicit consideration of   3 degrees of freedom as
           vibrations may cause significant error
 Vibrational temperatures:    412.60   573.20   857.80   994.51  1258.14
          (Kelvin)           1415.96  2101.41  3538.38  3867.44
 
 Zero-point correction=                           0.023782 (Hartree/Particle)
 Thermal correction to Energy=                    0.027745
 Thermal correction to Enthalpy=                  0.028689
 Thermal correction to Gibbs Free Energy=        -0.002660
 Sum of electronic and zero-point Energies=           -474.493466
 Sum of electronic and thermal Energies=              -474.489503
 Sum of electronic and thermal Enthalpies=            -474.488558
 Sum of electronic and thermal Free Energies=         -474.519908
 
                     E (Thermal)             CV                S
                      KCal/Mol        Cal/Mol-Kelvin    Cal/Mol-Kelvin
 Total                   17.410             12.039             65.981
 Electronic               0.000              0.000              2.183
 Translational            0.889              2.981             38.094
 Rotational               0.889              2.981             22.201
 Vibrational             15.633              6.077              3.503
 Vibration     1          0.684              1.698              1.493
 Vibration     2          0.765              1.474              0.969
 Vibration     3          0.954              1.040              0.456
                       Q            Log10(Q)             Ln(Q)
 Total Bot       0.167366D+02          1.223668          2.817599
 Total V=0       0.145397D+13         12.162556         28.005320
 Vib (Bot)       0.202564D-10        -10.693438        -24.622552
 Vib (Bot)    1  0.668016D+00         -0.175213         -0.403443
 Vib (Bot)    2  0.447915D+00         -0.348804         -0.803151
 Vib (Bot)    3  0.251429D+00         -0.599585         -1.380595
 Vib (V=0)       0.175975D+01          0.245450          0.565170
 Vib (V=0)    1  0.133441D+01          0.125290          0.288492
 Vib (V=0)    2  0.117129D+01          0.068664          0.158104
 Vib (V=0)    3  0.105966D+01          0.025166          0.057946
 Electronic      0.300000D+01          0.477121          1.098612
 Translational   0.173564D+08          7.239459         16.669471
 Rotational      0.158681D+05          4.200525          9.672067
 
                                                              b3lyp opt
                                                             IR Spectrum
 
     2          2                                              1                                                                     
     6          4                                              4                      9    8        6   5         3    2             
     8          5                                              6                      8    7        9   9         9    8             
     8          9                                              1                      4    4        1   6         8    7             
 
     X          X                                              X                      X    X        X   X         X    X             
     X          X                                              X                                        X         X                  
     X          X                                              X                                                                     
     X          X                                              X                                                                     
     X          X                                              X                                                                     
     X          X                                              X                                                                     
     X          X                                              X                                                                     
     X          X                                              X                                                                     
     X          X                                                                                                                    
     X          X                                                                                                                    
     X                                                                                                                               
     X                                                                                                                               
     X                                                                                                                               
     X                                                                                                                               
     X                                                                                                                               
     X                                                                                                                               
     X                                                                                                                               
     X                                                                                                                               
     X                                                                                                                               
     X                                                                                                                               
 
 ***** Axes restored to original set *****
 -------------------------------------------------------------------
 Center     Atomic                   Forces (Hartrees/Bohr)
 Number     Number              X              Y              Z
 -------------------------------------------------------------------
      1       16          -0.000057009    0.000142060    0.000008450
      2        6           0.000084450   -0.000076077   -0.000067117
      3        6          -0.000064541   -0.000027833    0.000086231
      4        1           0.000038402    0.000008327   -0.000047962
      5        1          -0.000001303   -0.000046477    0.000020399
 -------------------------------------------------------------------
 Cartesian Forces:  Max     0.000142060 RMS     0.000063100
 Z-matrix is all fixed cartesians, so copy forces.
 Force constants in Cartesian coordinates: 
                1             2             3             4             5 
      1  0.114654D+00
      2 -0.367223D-01  0.242329D+00
      3 -0.108140D+00 -0.523332D-01  0.155438D+00
      4 -0.677431D-01  0.291306D-01  0.477806D-01  0.258182D+00
      5  0.614522D-01 -0.680621D-01 -0.503355D-01 -0.106689D-01  0.308308D+00
      6  0.346464D-01 -0.128158D-01 -0.513951D-01 -0.223203D+00 -0.876366D-01
      7 -0.285707D-01  0.385027D-02  0.352012D-01 -0.151574D+00 -0.755593D-01
      8 -0.134207D-02  0.117666D-02  0.234009D-02 -0.720030D-01 -0.293110D-01
      9  0.373112D-01 -0.368729D-02 -0.387117D-01  0.177888D+00  0.900572D-01
     10 -0.150563D-02  0.149169D-01  0.536298D-02 -0.327198D-01  0.340911D-01
     11  0.632818D-02 -0.620929D-02 -0.143520D-02  0.504885D-01 -0.216938D+00
     12  0.885310D-02 -0.114052D-01  0.269394D-02 -0.502749D-02  0.407073D-01
     13 -0.168345D-01 -0.111755D-01  0.197955D-01 -0.614512D-02 -0.931504D-02
     14 -0.297160D-01 -0.169234D+00  0.101764D+00  0.305278D-02  0.600384D-02
     15  0.273296D-01  0.802416D-01 -0.680253D-01  0.256264D-02  0.720761D-02
                6             7             8             9            10 
      6  0.356879D+00
      7  0.179333D+00  0.174896D+00
      8  0.859290D-01  0.715495D-01  0.469598D-01
      9 -0.266628D+00 -0.219160D+00 -0.976097D-01  0.305216D+00
     10  0.163578D-02  0.615366D-02  0.274155D-02 -0.246199D-02  0.286414D-01
     11  0.216727D-01 -0.392690D-02 -0.203449D-01  0.148545D-01 -0.513374D-01
     12 -0.300825D-01  0.247796D-03  0.711361D-02  0.181414D-02 -0.253710D-02
     13  0.758842D-02 -0.904579D-03 -0.946041D-03  0.642303D-02 -0.569563D-03
     14 -0.714924D-02  0.408636D-02  0.151941D-02 -0.361467D-02 -0.412137D-03
     15 -0.877250D-02  0.437806D-02  0.222705D-02 -0.168972D-02 -0.199968D-02
               11            12            13            14            15 
     11  0.240690D+00
     12 -0.347651D-01  0.255568D-01
     13 -0.155242D-02 -0.153631D-02  0.244537D-01
     14  0.280279D-02 -0.165061D-02  0.229890D-01  0.158908D+00
     15 -0.326945D-03  0.176518D-04 -0.322707D-01 -0.893493D-01  0.784699D-01
 Leave Link  716 at Wed Aug  3 23:05:12 2016, MaxMem=    33554432 cpu:         0.1
 (Enter /home/proyectos/fulerenos/M3C-v2.0/M3C-deps_CCC/g09-AM64L-G09RevC.01/l103.exe)

 GradGradGradGradGradGradGradGradGradGradGradGradGradGradGradGradGradGrad
 Berny optimization.
 Search for a local minimum.
 Step number   1 out of a maximum of    2
 All quantities printed in internal units (Hartrees-Bohrs-Radians)
 Second derivative matrix not updated -- analytic derivatives used.
 The second derivative matrix:
                          X1        Y1        Z1        X2        Y2
           X1           0.11465
           Y1          -0.03672   0.24233
           Z1          -0.10814  -0.05233   0.15544
           X2          -0.06774   0.02913   0.04778   0.25818
           Y2           0.06145  -0.06806  -0.05034  -0.01067   0.30831
           Z2           0.03465  -0.01282  -0.05140  -0.22320  -0.08764
           X3          -0.02857   0.00385   0.03520  -0.15157  -0.07556
           Y3          -0.00134   0.00118   0.00234  -0.07200  -0.02931
           Z3           0.03731  -0.00369  -0.03871   0.17789   0.09006
           X4          -0.00151   0.01492   0.00536  -0.03272   0.03409
           Y4           0.00633  -0.00621  -0.00144   0.05049  -0.21694
           Z4           0.00885  -0.01141   0.00269  -0.00503   0.04071
           X5          -0.01683  -0.01118   0.01980  -0.00615  -0.00932
           Y5          -0.02972  -0.16923   0.10176   0.00305   0.00600
           Z5           0.02733   0.08024  -0.06803   0.00256   0.00721
                          Z2        X3        Y3        Z3        X4
           Z2           0.35688
           X3           0.17933   0.17490
           Y3           0.08593   0.07155   0.04696
           Z3          -0.26663  -0.21916  -0.09761   0.30522
           X4           0.00164   0.00615   0.00274  -0.00246   0.02864
           Y4           0.02167  -0.00393  -0.02034   0.01485  -0.05134
           Z4          -0.03008   0.00025   0.00711   0.00181  -0.00254
           X5           0.00759  -0.00090  -0.00095   0.00642  -0.00057
           Y5          -0.00715   0.00409   0.00152  -0.00361  -0.00041
           Z5          -0.00877   0.00438   0.00223  -0.00169  -0.00200
                          Y4        Z4        X5        Y5        Z5
           Y4           0.24069
           Z4          -0.03477   0.02556
           X5          -0.00155  -0.00154   0.02445
           Y5           0.00280  -0.00165   0.02299   0.15891
           Z5          -0.00033   0.00002  -0.03227  -0.08935   0.07847
 ITU=  0
     Eigenvalues ---    0.01061   0.02602   0.03142   0.07308   0.07567
     Eigenvalues ---    0.26361   0.36490   0.52494   0.95797
 Angle between quadratic step and forces=  60.27 degrees.
 ClnCor:  largest displacement from symmetrization is 1.01D-12 for atom     2.
 Linear search not attempted -- first point.
 ClnCor:  largest displacement from symmetrization is 3.61D-15 for atom     3.
 B after Tr=    -0.000107    0.000084    0.000090
         Rot=    1.000000   -0.000014   -0.000005   -0.000012 Ang=  -0.00 deg.
 Variable       Old X    -DE/DX   Delta X   Delta X   Delta X     New X
                                 (Linear)    (Quad)   (Total)
    X1       -0.53607  -0.00006   0.00000  -0.00010  -0.00019  -0.53626
    Y1       -1.64513   0.00014   0.00000   0.00034   0.00048  -1.64465
    Z1       -2.48998   0.00001   0.00000  -0.00003   0.00002  -2.48995
    X2       -2.70928   0.00008   0.00000   0.00015   0.00004  -2.70924
    Y2       -0.17032  -0.00008   0.00000  -0.00064  -0.00061  -0.17092
    Z2       -0.56657  -0.00007   0.00000   0.00009   0.00020  -0.56637
    X3       -4.08320  -0.00006   0.00000  -0.00035  -0.00042  -4.08362
    Y3       -0.91925  -0.00003   0.00000   0.00017   0.00012  -0.91912
    Z3        1.33264   0.00009   0.00000   0.00034   0.00044   1.33308
    X4       -3.27179   0.00004   0.00000   0.00119   0.00103  -3.27076
    Y4        1.89472   0.00001   0.00000  -0.00050  -0.00048   1.89424
    Z4       -0.75275  -0.00005   0.00000  -0.00117  -0.00100  -0.75375
    X5       -0.03006  -0.00000   0.00000  -0.00030  -0.00046  -0.03052
    Y5        0.45937  -0.00005   0.00000   0.00029   0.00048   0.45985
    Z5       -3.93255   0.00002   0.00000   0.00023   0.00034  -3.93221
         Item               Value     Threshold  Converged?
 Maximum Force            0.000142     0.000450     YES
 RMS     Force            0.000063     0.000300     YES
 Maximum Displacement     0.001030     0.001800     YES
 RMS     Displacement     0.000510     0.001200     YES
 Predicted change in Energy=-1.232215D-07
 Optimization completed.
    -- Stationary point found.
 GradGradGradGradGradGradGradGradGradGradGradGradGradGradGradGradGradGrad

 Leave Link  103 at Wed Aug  3 23:05:12 2016, MaxMem=    33554432 cpu:         0.1
 (Enter /home/proyectos/fulerenos/M3C-v2.0/M3C-deps_CCC/g09-AM64L-G09RevC.01/l9999.exe)
 1\1\GINC-DEPAZ28\Freq\UB3LYP\6-311++G(3df,2p)\C2H2S1(2+,3)\NAGUIRRE\03
 -Aug-2016\0\\#p b3lyp/6-311++G(3df,2p) freq\\b3lyp opt\\2,3\S,-0.28367
 8,-0.870567,-1.317639\C,-1.43369,-0.090128,-0.299818\C,-2.160737673,-0
 .48644369,0.705201702\H,-1.731356019,1.00264246,-0.398338007\H,-0.0159
 07902,0.243087818,-2.081016421\\Version=EM64L-G09RevE.01\State=3-A"\HF
 =-474.5172478\S2=2.048487\S2-1=0.\S2A=2.000507\RMSD=9.556e-09\RMSF=6.3
 10e-05\ZeroPoint=0.0237819\Thermal=0.0277451\Dipole=-0.7817073,0.79787
 01,0.5832014\DipoleDeriv=0.9291251,-0.2112259,-0.1806758,-0.3157169,0.
 8466361,0.3067167,-0.1382149,0.1854212,0.7846337,-0.2121556,0.175451,0
 .3364254,0.0445647,-0.3268874,0.1376182,0.3896123,-0.0143175,-0.307373
 ,0.829368,0.0372966,-0.1926812,0.1914137,0.6554316,-0.2136615,-0.25530
 81,-0.0347589,0.9869292,0.2030148,-0.1111145,0.0825908,-0.066687,0.585
 5845,-0.0649432,0.0645373,-0.0133707,0.1657835,0.2506477,0.1095929,-0.
 0456593,0.1464255,0.2392351,-0.1657302,-0.0606265,-0.1229741,0.3700267
 \Polar=33.8588379,-2.4471806,26.5804633,-14.3466724,0.4280453,37.12311
 16\PG=CS [SG(C2H2S1)]\NImag=0\\0.11465385,-0.03672233,0.24232862,-0.10
 814027,-0.05233325,0.15543819,-0.06774310,0.02913059,0.04778056,0.2581
 8236,0.06145220,-0.06806206,-0.05033549,-0.01066894,0.30830755,0.03464
 637,-0.01281585,-0.05139509,-0.22320331,-0.08763665,0.35687858,-0.0285
 7067,0.00385027,0.03520121,-0.15157429,-0.07555928,0.17933273,0.174895
 88,-0.00134207,0.00117666,0.00234009,-0.07200298,-0.02931101,0.0859289
 9,0.07154954,0.04695981,0.03731116,-0.00368729,-0.03871173,0.17788760,
 0.09005722,-0.26662850,-0.21915980,-0.09760974,0.30521580,-0.00150563,
 0.01491694,0.00536298,-0.03271985,0.03409106,0.00163578,0.00615366,0.0
 0274155,-0.00246199,0.02864139,0.00632818,-0.00620929,-0.00143520,0.05
 048854,-0.21693832,0.02167275,-0.00392690,-0.02034487,0.01485449,-0.05
 133741,0.24068968,0.00885310,-0.01140523,0.00269394,-0.00502749,0.0407
 0732,-0.03008250,0.00024780,0.00711361,0.00181414,-0.00253710,-0.03476
 510,0.02555677,-0.01683445,-0.01117548,0.01979553,-0.00614512,-0.00931
 504,0.00758842,-0.00090458,-0.00094604,0.00642303,-0.00056956,-0.00155
 242,-0.00153631,0.02445371,-0.02971599,-0.16923393,0.10176385,0.003052
 78,0.00600384,-0.00714924,0.00408636,0.00151941,-0.00361467,-0.0004121
 4,0.00280279,-0.00165061,0.02298898,0.15890788,0.02732964,0.08024162,-
 0.06802531,0.00256264,0.00720761,-0.00877250,0.00437806,0.00222705,-0.
 00168972,-0.00199968,-0.00032694,0.00001765,-0.03227066,-0.08934933,0.
 07846987\\0.00005701,-0.00014206,-0.00000845,-0.00008445,0.00007608,0.
 00006712,0.00006454,0.00002783,-0.00008623,-0.00003840,-0.00000833,0.0
 0004796,0.00000130,0.00004648,-0.00002040\\\@


 THE 2ND LAW OF THERMODYNAMICS HAS THE SAME
 DEGREE OF TRUTH AS THE STATEMENT THAT IF YOU THROW
 A TUMBLERFULL OF WATER INTO THE SEA, YOU CANNOT GET
 THE SAME TUMBLERFULL OF WATER OUT AGAIN.
          - J.C. MAXWELL, LETTER TO LORD RAYLEIGH, DECEMBER 6,1870
 Job cpu time:       0 days  0 hours  7 minutes 39.4 seconds.
 File lengths (MBytes):  RWF=     26 Int=      0 D2E=      0 Chk=      3 Scr=      1
 Normal termination of Gaussian 09 at Wed Aug  3 23:05:12 2016.
