 Entering Gaussian System, Link 0=/home/proyectos/fulerenos/M3C-v2.0/M3C-deps_CCC/g09-AM64L-G09RevC.01/g09
 Initial command:
 /home/proyectos/fulerenos/M3C-v2.0/M3C-deps_CCC/g09-AM64L-G09RevC.01/l1.exe "/scratch/naguirre/gaussian/Gau-22897.inp" -scrdir="/scratch/naguirre/gaussian/"
 Entering Link 1 = /home/proyectos/fulerenos/M3C-v2.0/M3C-deps_CCC/g09-AM64L-G09RevC.01/l1.exe PID=     22905.
  
 Copyright (c) 1988,1990,1992,1993,1995,1998,2003,2009,2015,
            Gaussian, Inc.  All Rights Reserved.
  
 This is part of the Gaussian(R) 09 program.  It is based on
 the Gaussian(R) 03 system (copyright 2003, Gaussian, Inc.),
 the Gaussian(R) 98 system (copyright 1998, Gaussian, Inc.),
 the Gaussian(R) 94 system (copyright 1995, Gaussian, Inc.),
 the Gaussian 92(TM) system (copyright 1992, Gaussian, Inc.),
 the Gaussian 90(TM) system (copyright 1990, Gaussian, Inc.),
 the Gaussian 88(TM) system (copyright 1988, Gaussian, Inc.),
 the Gaussian 86(TM) system (copyright 1986, Carnegie Mellon
 University), and the Gaussian 82(TM) system (copyright 1983,
 Carnegie Mellon University). Gaussian is a federally registered
 trademark of Gaussian, Inc.
  
 This software contains proprietary and confidential information,
 including trade secrets, belonging to Gaussian, Inc.
  
 This software is provided under written license and may be
 used, copied, transmitted, or stored only in accord with that
 written license.
  
 The following legend is applicable only to US Government
 contracts under FAR:
  
                    RESTRICTED RIGHTS LEGEND
  
 Use, reproduction and disclosure by the US Government is
 subject to restrictions as set forth in subparagraphs (a)
 and (c) of the Commercial Computer Software - Restricted
 Rights clause in FAR 52.227-19.
  
 Gaussian, Inc.
 340 Quinnipiac St., Bldg. 40, Wallingford CT 06492
  
  
 ---------------------------------------------------------------
 Warning -- This program may not be used in any manner that
 competes with the business of Gaussian, Inc. or will provide
 assistance to any competitor of Gaussian, Inc.  The licensee
 of this program is prohibited from giving any competitor of
 Gaussian, Inc. access to this program.  By using this program,
 the user acknowledges that Gaussian, Inc. is engaged in the
 business of creating and licensing software in the field of
 computational chemistry and represents and warrants to the
 licensee that it is not a competitor of Gaussian, Inc. and that
 it will not use this program in any manner prohibited above.
 ---------------------------------------------------------------
  

 Cite this work as:
 Gaussian 09, Revision E.01,
 M. J. Frisch, G. W. Trucks, H. B. Schlegel, G. E. Scuseria, 
 M. A. Robb, J. R. Cheeseman, G. Scalmani, V. Barone, B. Mennucci, 
 G. A. Petersson, H. Nakatsuji, M. Caricato, X. Li, H. P. Hratchian, 
 A. F. Izmaylov, J. Bloino, G. Zheng, J. L. Sonnenberg, M. Hada, 
 M. Ehara, K. Toyota, R. Fukuda, J. Hasegawa, M. Ishida, T. Nakajima, 
 Y. Honda, O. Kitao, H. Nakai, T. Vreven, J. A. Montgomery, Jr., 
 J. E. Peralta, F. Ogliaro, M. Bearpark, J. J. Heyd, E. Brothers, 
 K. N. Kudin, V. N. Staroverov, T. Keith, R. Kobayashi, J. Normand, 
 K. Raghavachari, A. Rendell, J. C. Burant, S. S. Iyengar, J. Tomasi, 
 M. Cossi, N. Rega, J. M. Millam, M. Klene, J. E. Knox, J. B. Cross, 
 V. Bakken, C. Adamo, J. Jaramillo, R. Gomperts, R. E. Stratmann, 
 O. Yazyev, A. J. Austin, R. Cammi, C. Pomelli, J. W. Ochterski, 
 R. L. Martin, K. Morokuma, V. G. Zakrzewski, G. A. Voth, 
 P. Salvador, J. J. Dannenberg, S. Dapprich, A. D. Daniels, 
 O. Farkas, J. B. Foresman, J. V. Ortiz, J. Cioslowski, 
 and D. J. Fox, Gaussian, Inc., Wallingford CT, 2013.
 
 ******************************************
 Gaussian 09:  EM64L-G09RevE.01 30-Nov-2015
                 3-Aug-2016 
 ******************************************
 %NProcShared=4
 Will use up to    4 processors via shared memory.
 ------------------------------
 #p b3lyp/6-311++G(3df,2p) freq
 ------------------------------
 1/10=4,30=1,38=1/1,3;
 2/12=2,17=6,18=5,40=1/2;
 3/5=4,6=6,7=1216,11=2,16=1,25=1,30=1,71=2,74=-5,140=1/1,2,3;
 4//1;
 5/5=2,38=5,98=1/2;
 8/6=4,10=90,11=11/1;
 11/6=1,8=1,9=11,15=111,16=1/1,2,10;
 10/6=1/2;
 6/7=2,8=2,9=2,10=2,18=1,28=1/1;
 7/8=1,10=1,25=1/1,2,3,16;
 1/10=4,30=1/3;
 99//99;
 Leave Link    1 at Wed Aug  3 22:56:39 2016, MaxMem=           0 cpu:         0.2
 (Enter /home/proyectos/fulerenos/M3C-v2.0/M3C-deps_CCC/g09-AM64L-G09RevC.01/l101.exe)
 ---------
 b3lyp opt
 ---------
 Symbolic Z-matrix:
 Charge =  0 Multiplicity = 3
 S                    -0.4245   -0.06218   0.33709 
 C                     2.0776    0.11846  -0.55764 
 C                     0.96039   0.76545  -0.21669 
 H                     3.06456   0.35697  -0.92403 
 H                     0.92258   1.85458  -0.29102 
 
 NAtoms=      5 NQM=        5 NQMF=       0 NMMI=      0 NMMIF=      0
                NMic=       0 NMicF=      0.
                    Isotopes and Nuclear Properties:
 (Nuclear quadrupole moments (NQMom) in fm**2, nuclear magnetic moments (NMagM)
  in nuclear magnetons)

  Atom         1           2           3           4           5
 IAtWgt=          32          12          12           1           1
 AtmWgt=  31.9720718  12.0000000  12.0000000   1.0078250   1.0078250
 NucSpn=           0           0           0           1           1
 AtZEff=   0.0000000   0.0000000   0.0000000   0.0000000   0.0000000
 NQMom=    0.0000000   0.0000000   0.0000000   0.0000000   0.0000000
 NMagM=    0.0000000   0.0000000   0.0000000   2.7928460   2.7928460
 AtZNuc=  16.0000000   6.0000000   6.0000000   1.0000000   1.0000000
 Leave Link  101 at Wed Aug  3 22:56:39 2016, MaxMem=    33554432 cpu:         0.3
 (Enter /home/proyectos/fulerenos/M3C-v2.0/M3C-deps_CCC/g09-AM64L-G09RevC.01/l103.exe)

 GradGradGradGradGradGradGradGradGradGradGradGradGradGradGradGradGradGrad
 Berny optimization.
 Initialization pass.
 Trust Radius=3.00D-01 FncErr=1.00D-07 GrdErr=1.00D-07
 Number of steps in this run=      2 maximum allowed number of steps=      2.
 GradGradGradGradGradGradGradGradGradGradGradGradGradGradGradGradGradGrad

 Leave Link  103 at Wed Aug  3 22:56:39 2016, MaxMem=    33554432 cpu:         0.1
 (Enter /home/proyectos/fulerenos/M3C-v2.0/M3C-deps_CCC/g09-AM64L-G09RevC.01/l202.exe)
                          Input orientation:                          
 ---------------------------------------------------------------------
 Center     Atomic      Atomic             Coordinates (Angstroms)
 Number     Number       Type             X           Y           Z
 ---------------------------------------------------------------------
      1         16           0       -0.424500   -0.062184    0.337093
      2          6           0        2.077604    0.118461   -0.557644
      3          6           0        0.960392    0.765451   -0.216685
      4          1           0        3.064559    0.356968   -0.924031
      5          1           0        0.922576    1.854575   -0.291017
 ---------------------------------------------------------------------
                    Distance matrix (angstroms):
                    1          2          3          4          5
     1  S    0.000000
     2  C    2.663402   0.000000
     3  C    1.705748   1.335295   0.000000
     4  H    3.733584   1.079446   2.257147   0.000000
     5  H    2.425511   2.102207   1.092313   2.689167   0.000000
 Stoichiometry    C2H2S(3)
 Framework group  CS[SG(C2H2S)]
 Deg. of freedom     7
 Full point group                 CS      NOp   2
 Largest Abelian subgroup         CS      NOp   2
 Largest concise Abelian subgroup C1      NOp   1
                         Standard orientation:                         
 ---------------------------------------------------------------------
 Center     Atomic      Atomic             Coordinates (Angstroms)
 Number     Number       Type             X           Y           Z
 ---------------------------------------------------------------------
      1         16           0       -0.563789   -0.875004   -0.000000
      2          6           0        1.303596    1.024097    0.000000
      3          6           0       -0.000000    0.734877    0.000000
      4          1           0        1.932203    1.901626    0.000000
      5          1           0       -0.733156    1.544587    0.000000
 ---------------------------------------------------------------------
 Rotational constants (GHZ):     71.5296720      6.5493272      5.9999645
 Leave Link  202 at Wed Aug  3 22:56:39 2016, MaxMem=    33554432 cpu:         0.0
 (Enter /home/proyectos/fulerenos/M3C-v2.0/M3C-deps_CCC/g09-AM64L-G09RevC.01/l301.exe)
 Standard basis: 6-311++G(3df,2p) (5D, 7F)
 Ernie: Thresh=  0.10000D-02 Tol=  0.10000D-05 Strict=F.
 There are   115 symmetry adapted cartesian basis functions of A'  symmetry.
 There are    48 symmetry adapted cartesian basis functions of A"  symmetry.
 There are   100 symmetry adapted basis functions of A'  symmetry.
 There are    45 symmetry adapted basis functions of A"  symmetry.
   145 basis functions,   212 primitive gaussians,   163 cartesian basis functions
    16 alpha electrons       14 beta electrons
       nuclear repulsion energy        77.8431916998 Hartrees.
 IExCor=  402 DFT=T Ex+Corr=B3LYP ExCW=0 ScaHFX=  0.200000
 ScaDFX=  0.800000  0.720000  1.000000  0.810000 ScalE2=  1.000000  1.000000
 IRadAn=      0 IRanWt=     -1 IRanGd=            0 ICorTp=0 IEmpDi=  4
 NAtoms=    5 NActive=    5 NUniq=    5 SFac= 1.00D+00 NAtFMM=   60 NAOKFM=F Big=F
 Integral buffers will be    131072 words long.
 Raffenetti 2 integral format.
 Two-electron integral symmetry is turned on.
 Leave Link  301 at Wed Aug  3 22:56:39 2016, MaxMem=    33554432 cpu:         0.2
 (Enter /home/proyectos/fulerenos/M3C-v2.0/M3C-deps_CCC/g09-AM64L-G09RevC.01/l302.exe)
 NPDir=0 NMtPBC=     1 NCelOv=     1 NCel=       1 NClECP=     1 NCelD=      1
         NCelK=      1 NCelE2=     1 NClLst=     1 CellRange=     0.0.
 One-electron integrals computed using PRISM.
 NBasis=   145 RedAO= T EigKep=  7.23D-05  NBF=   100    45
 NBsUse=   145 1.00D-06 EigRej= -1.00D+00 NBFU=   100    45
 Precomputing XC quadrature grid using
 IXCGrd= 4 IRadAn=           0 IRanWt=          -1 IRanGd=           0 AccXCQ= 0.00D+00.
 Generated NRdTot=       0 NPtTot=           0 NUsed=           0 NTot=          32
 NSgBfM=   163   163   163   163   163 MxSgAt=     5 MxSgA2=     5.
 Leave Link  302 at Wed Aug  3 22:56:39 2016, MaxMem=    33554432 cpu:         0.9
 (Enter /home/proyectos/fulerenos/M3C-v2.0/M3C-deps_CCC/g09-AM64L-G09RevC.01/l303.exe)
 DipDrv:  MaxL=1.
 Leave Link  303 at Wed Aug  3 22:56:39 2016, MaxMem=    33554432 cpu:         0.1
 (Enter /home/proyectos/fulerenos/M3C-v2.0/M3C-deps_CCC/g09-AM64L-G09RevC.01/l401.exe)
 ExpMin= 3.60D-02 ExpMax= 9.34D+04 ExpMxC= 3.17D+03 IAcc=3 IRadAn=         5 AccDes= 0.00D+00
 Harris functional with IExCor=  402 and IRadAn=       5 diagonalized for initial guess.
 HarFok:  IExCor=  402 AccDes= 0.00D+00 IRadAn=         5 IDoV= 1 UseB2=F ITyADJ=14
 ICtDFT=  3500011 ScaDFX=  1.000000  1.000000  1.000000  1.000000
 FoFCou: FMM=F IPFlag=           0 FMFlag=      100000 FMFlg1=           0
         NFxFlg=           0 DoJE=T BraDBF=F KetDBF=T FulRan=T
         wScrn=  0.000000 ICntrl=     500 IOpCl=  0 I1Cent=   200000004 NGrid=           0
         NMat0=    1 NMatS0=      1 NMatT0=    0 NMatD0=    1 NMtDS0=    0 NMtDT0=    0
 Petite list used in FoFCou.
 Harris En= -475.455171971474    
 JPrj=0 DoOrth=F DoCkMO=F.
 Initial guess orbital symmetries:
 Alpha Orbitals:
       Occupied  (A') (A') (A') (A') (A') (A') (A") (A') (A') (A')
                 (A') (A') (A") (A') (A") (A')
       Virtual   (A") (A') (A') (A') (A') (A") (A') (A') (A") (A')
                 (A') (A") (A') (A') (A') (A') (A') (A") (A') (A')
                 (A") (A') (A') (A') (A") (A') (A") (A') (A') (A')
                 (A") (A') (A") (A') (A") (A') (A') (A') (A') (A")
                 (A") (A') (A') (A') (A') (A") (A') (A") (A') (A")
                 (A') (A') (A') (A") (A') (A') (A') (A') (A") (A')
                 (A") (A') (A") (A') (A") (A') (A') (A") (A") (A')
                 (A') (A') (A") (A') (A') (A") (A') (A') (A') (A')
                 (A") (A') (A") (A") (A') (A") (A') (A') (A") (A')
                 (A") (A') (A') (A') (A") (A') (A') (A') (A') (A")
                 (A') (A") (A') (A") (A") (A') (A') (A") (A') (A')
                 (A') (A') (A") (A') (A") (A') (A") (A') (A') (A")
                 (A') (A') (A') (A") (A') (A') (A') (A') (A')
 Beta  Orbitals:
       Occupied  (A') (A') (A') (A') (A') (A') (A") (A') (A') (A')
                 (A') (A') (A") (A')
       Virtual   (A") (A') (A") (A') (A') (A') (A') (A") (A') (A')
                 (A") (A') (A') (A") (A') (A') (A') (A') (A') (A")
                 (A') (A') (A") (A') (A') (A') (A") (A') (A") (A')
                 (A') (A') (A") (A') (A") (A') (A") (A') (A') (A')
                 (A') (A") (A") (A') (A') (A') (A') (A") (A') (A")
                 (A') (A") (A') (A') (A') (A") (A') (A') (A') (A')
                 (A") (A') (A") (A') (A") (A') (A") (A') (A') (A")
                 (A") (A') (A') (A') (A") (A') (A') (A") (A') (A')
                 (A') (A') (A") (A') (A") (A") (A') (A") (A') (A')
                 (A") (A') (A") (A') (A') (A') (A") (A') (A') (A')
                 (A') (A") (A') (A") (A') (A") (A") (A') (A') (A")
                 (A') (A') (A') (A') (A") (A') (A") (A') (A") (A')
                 (A') (A") (A') (A') (A') (A") (A') (A') (A') (A')
                 (A')
 The electronic state of the initial guess is 3-A".
 Initial guess <Sx>= 0.0000 <Sy>= 0.0000 <Sz>= 1.0000 <S**2>= 2.0000 S= 1.0000
 Leave Link  401 at Wed Aug  3 22:56:40 2016, MaxMem=    33554432 cpu:         2.5
 (Enter /home/proyectos/fulerenos/M3C-v2.0/M3C-deps_CCC/g09-AM64L-G09RevC.01/l502.exe)
 UHF open shell SCF:
 Using DIIS extrapolation, IDIIS=  1040.
 Integral symmetry usage will be decided dynamically.
 IVT=      100464 IEndB=      100464 NGot=    33554432 MDV=    33497341
 LenX=    33497341 LenY=    33470331
 Requested convergence on RMS density matrix=1.00D-08 within 128 cycles.
 Requested convergence on MAX density matrix=1.00D-06.
 Requested convergence on             energy=1.00D-06.
 No special actions if energy rises.
 Fock matrices will be formed incrementally for  20 cycles.

 Cycle   1  Pass 1  IDiag  1:
 FoFJK:  IHMeth= 1 ICntrl=       0 DoSepK=F KAlg= 0 I1Cent=   0 FoldK=F
 IRaf= 980000000 NMat=   1 IRICut=       1 DoRegI=T DoRafI=F ISym2E= 1.
 FoFCou: FMM=F IPFlag=           0 FMFlag=      100000 FMFlg1=           0
         NFxFlg=           0 DoJE=F BraDBF=F KetDBF=F FulRan=T
         wScrn=  0.000000 ICntrl=       0 IOpCl=  1 I1Cent=           0 NGrid=           0
         NMat0=    1 NMatS0=      1 NMatT0=    0 NMatD0=    1 NMtDS0=    0 NMtDT0=    0
 Petite list used in FoFCou.
 E= -475.231105160965    
 DIIS: error= 5.47D-02 at cycle   1 NSaved=   1.
 NSaved= 1 IEnMin= 1 EnMin= -475.231105160965     IErMin= 1 ErrMin= 5.47D-02
 ErrMax= 5.47D-02  0.00D+00 EMaxC= 1.00D-01 BMatC= 9.23D-01 BMatP= 9.23D-01
 IDIUse=3 WtCom= 4.53D-01 WtEn= 5.47D-01
 Coeff-Com:  0.100D+01
 Coeff-En:   0.100D+01
 Coeff:      0.100D+01
 Gap=     0.325 Goal=   None    Shift=    0.000
 Gap=     0.134 Goal=   None    Shift=    0.000
 GapD=    0.134 DampG=1.000 DampE=0.500 DampFc=0.5000 IDamp=-1.
 Damping current iteration by 5.00D-01
 RMSDP=1.49D-02 MaxDP=8.45D-01              OVMax= 8.96D-01

 Cycle   2  Pass 1  IDiag  1:
 RMSU=  7.19D-03    CP:  9.02D-01
 E= -475.076250899520     Delta-E=        0.154854261445 Rises=F Damp=T
 DIIS: error= 3.48D-02 at cycle   2 NSaved=   2.
 NSaved= 2 IEnMin= 1 EnMin= -475.231105160965     IErMin= 2 ErrMin= 3.48D-02
 ErrMax= 3.48D-02  0.00D+00 EMaxC= 1.00D-01 BMatC= 4.58D-01 BMatP= 9.23D-01
 IDIUse=3 WtCom= 6.52D-01 WtEn= 3.48D-01
 Coeff-Com:  0.397D+00 0.603D+00
 Coeff-En:   0.621D+00 0.379D+00
 Coeff:      0.475D+00 0.525D+00
 Gap=     0.057 Goal=   None    Shift=    0.000
 Gap=     0.079 Goal=   None    Shift=    0.000
 RMSDP=6.33D-03 MaxDP=4.22D-01 DE= 1.55D-01 OVMax= 8.78D-01

 Cycle   3  Pass 1  IDiag  1:
 RMSU=  3.67D-03    CP:  9.17D-01  2.83D-01
 E= -475.500439206891     Delta-E=       -0.424188307371 Rises=F Damp=F
 DIIS: error= 1.24D-02 at cycle   3 NSaved=   3.
 NSaved= 3 IEnMin= 3 EnMin= -475.500439206891     IErMin= 3 ErrMin= 1.24D-02
 ErrMax= 1.24D-02  0.00D+00 EMaxC= 1.00D-01 BMatC= 5.38D-02 BMatP= 4.58D-01
 IDIUse=3 WtCom= 8.76D-01 WtEn= 1.24D-01
 Coeff-Com:  0.170D+00-0.107D-01 0.841D+00
 Coeff-En:   0.133D-01 0.000D+00 0.987D+00
 Coeff:      0.151D+00-0.938D-02 0.859D+00
 Gap=     0.217 Goal=   None    Shift=    0.000
 Gap=     0.064 Goal=   None    Shift=    0.000
 RMSDP=1.35D-03 MaxDP=3.63D-02 DE=-4.24D-01 OVMax= 1.23D-01

 Cycle   4  Pass 1  IDiag  1:
 RMSU=  1.32D-03    CP:  9.09D-01  2.53D-01  1.01D+00
 E= -475.520909236718     Delta-E=       -0.020470029827 Rises=F Damp=F
 DIIS: error= 2.81D-03 at cycle   4 NSaved=   4.
 NSaved= 4 IEnMin= 4 EnMin= -475.520909236718     IErMin= 4 ErrMin= 2.81D-03
 ErrMax= 2.81D-03  0.00D+00 EMaxC= 1.00D-01 BMatC= 5.16D-03 BMatP= 5.38D-02
 IDIUse=3 WtCom= 9.72D-01 WtEn= 2.81D-02
 Coeff-Com:  0.367D-01-0.459D-01 0.236D+00 0.773D+00
 Coeff-En:   0.000D+00 0.000D+00 0.000D+00 0.100D+01
 Coeff:      0.357D-01-0.446D-01 0.230D+00 0.779D+00
 Gap=     0.226 Goal=   None    Shift=    0.000
 Gap=     0.077 Goal=   None    Shift=    0.000
 RMSDP=5.86D-04 MaxDP=2.61D-02 DE=-2.05D-02 OVMax= 7.82D-02

 Cycle   5  Pass 1  IDiag  1:
 RMSU=  4.86D-04    CP:  9.14D-01  2.47D-01  1.02D+00  1.23D+00
 E= -475.524230784535     Delta-E=       -0.003321547816 Rises=F Damp=F
 DIIS: error= 1.95D-03 at cycle   5 NSaved=   5.
 NSaved= 5 IEnMin= 5 EnMin= -475.524230784535     IErMin= 5 ErrMin= 1.95D-03
 ErrMax= 1.95D-03  0.00D+00 EMaxC= 1.00D-01 BMatC= 1.14D-03 BMatP= 5.16D-03
 IDIUse=3 WtCom= 9.81D-01 WtEn= 1.95D-02
 Coeff-Com: -0.397D-02 0.343D-02-0.136D+00 0.410D-01 0.110D+01
 Coeff-En:   0.000D+00 0.000D+00 0.000D+00 0.000D+00 0.100D+01
 Coeff:     -0.389D-02 0.336D-02-0.133D+00 0.402D-01 0.109D+01
 Gap=     0.207 Goal=   None    Shift=    0.000
 Gap=     0.082 Goal=   None    Shift=    0.000
 RMSDP=4.10D-04 MaxDP=1.72D-02 DE=-3.32D-03 OVMax= 5.05D-02

 Cycle   6  Pass 1  IDiag  1:
 RMSU=  1.78D-04    CP:  9.16D-01  2.36D-01  1.02D+00  1.44D+00  1.48D+00
 E= -475.525230553838     Delta-E=       -0.000999769303 Rises=F Damp=F
 DIIS: error= 1.09D-03 at cycle   6 NSaved=   6.
 NSaved= 6 IEnMin= 6 EnMin= -475.525230553838     IErMin= 6 ErrMin= 1.09D-03
 ErrMax= 1.09D-03  0.00D+00 EMaxC= 1.00D-01 BMatC= 3.33D-04 BMatP= 1.14D-03
 IDIUse=3 WtCom= 9.89D-01 WtEn= 1.09D-02
 Coeff-Com: -0.654D-02 0.147D-01-0.432D-01-0.396D-01 0.278D+00 0.797D+00
 Coeff-En:   0.000D+00 0.000D+00 0.000D+00 0.000D+00 0.000D+00 0.100D+01
 Coeff:     -0.647D-02 0.145D-01-0.428D-01-0.391D-01 0.275D+00 0.799D+00
 Gap=     0.210 Goal=   None    Shift=    0.000
 Gap=     0.084 Goal=   None    Shift=    0.000
 RMSDP=1.13D-04 MaxDP=4.73D-03 DE=-1.00D-03 OVMax= 1.64D-02

 Cycle   7  Pass 1  IDiag  1:
 RMSU=  9.22D-05    CP:  9.16D-01  2.39D-01  1.02D+00  1.46D+00  1.59D+00
                    CP:  9.40D-01
 E= -475.525392683596     Delta-E=       -0.000162129757 Rises=F Damp=F
 DIIS: error= 4.95D-04 at cycle   7 NSaved=   7.
 NSaved= 7 IEnMin= 7 EnMin= -475.525392683596     IErMin= 7 ErrMin= 4.95D-04
 ErrMax= 4.95D-04  0.00D+00 EMaxC= 1.00D-01 BMatC= 7.09D-05 BMatP= 3.33D-04
 IDIUse=3 WtCom= 9.95D-01 WtEn= 4.95D-03
 Coeff-Com: -0.323D-02 0.509D-02 0.178D-01 0.730D-02-0.144D+00 0.212D+00
 Coeff-Com:  0.905D+00
 Coeff-En:   0.000D+00 0.000D+00 0.000D+00 0.000D+00 0.000D+00 0.000D+00
 Coeff-En:   0.100D+01
 Coeff:     -0.322D-02 0.506D-02 0.177D-01 0.726D-02-0.144D+00 0.211D+00
 Coeff:      0.906D+00
 Gap=     0.211 Goal=   None    Shift=    0.000
 Gap=     0.085 Goal=   None    Shift=    0.000
 RMSDP=6.67D-05 MaxDP=2.55D-03 DE=-1.62D-04 OVMax= 7.21D-03

 Cycle   8  Pass 1  IDiag  1:
 RMSU=  4.70D-05    CP:  9.15D-01  2.42D-01  1.03D+00  1.45D+00  1.60D+00
                    CP:  1.08D+00  1.20D+00
 E= -475.525429355402     Delta-E=       -0.000036671807 Rises=F Damp=F
 DIIS: error= 2.42D-04 at cycle   8 NSaved=   8.
 NSaved= 8 IEnMin= 8 EnMin= -475.525429355402     IErMin= 8 ErrMin= 2.42D-04
 ErrMax= 2.42D-04  0.00D+00 EMaxC= 1.00D-01 BMatC= 1.69D-05 BMatP= 7.09D-05
 IDIUse=3 WtCom= 9.98D-01 WtEn= 2.42D-03
 Coeff-Com: -0.105D-02-0.554D-03 0.112D-01 0.278D-02-0.112D+00-0.417D-01
 Coeff-Com:  0.429D+00 0.713D+00
 Coeff-En:   0.000D+00 0.000D+00 0.000D+00 0.000D+00 0.000D+00 0.000D+00
 Coeff-En:   0.000D+00 0.100D+01
 Coeff:     -0.105D-02-0.552D-03 0.112D-01 0.277D-02-0.112D+00-0.416D-01
 Coeff:      0.428D+00 0.714D+00
 Gap=     0.211 Goal=   None    Shift=    0.000
 Gap=     0.085 Goal=   None    Shift=    0.000
 RMSDP=2.98D-05 MaxDP=8.25D-04 DE=-3.67D-05 OVMax= 3.71D-03

 Cycle   9  Pass 1  IDiag  1:
 RMSU=  1.72D-05    CP:  9.14D-01  2.42D-01  1.03D+00  1.46D+00  1.62D+00
                    CP:  1.12D+00  1.32D+00  1.15D+00
 E= -475.525436882522     Delta-E=       -0.000007527120 Rises=F Damp=F
 DIIS: error= 1.35D-04 at cycle   9 NSaved=   9.
 NSaved= 9 IEnMin= 9 EnMin= -475.525436882522     IErMin= 9 ErrMin= 1.35D-04
 ErrMax= 1.35D-04  0.00D+00 EMaxC= 1.00D-01 BMatC= 6.34D-06 BMatP= 1.69D-05
 IDIUse=3 WtCom= 9.99D-01 WtEn= 1.35D-03
 Coeff-Com:  0.430D-03-0.112D-02 0.327D-02-0.324D-02-0.347D-01-0.554D-01
 Coeff-Com:  0.815D-01 0.425D+00 0.585D+00
 Coeff-En:   0.000D+00 0.000D+00 0.000D+00 0.000D+00 0.000D+00 0.000D+00
 Coeff-En:   0.000D+00 0.000D+00 0.100D+01
 Coeff:      0.430D-03-0.112D-02 0.327D-02-0.324D-02-0.347D-01-0.553D-01
 Coeff:      0.814D-01 0.424D+00 0.585D+00
 Gap=     0.211 Goal=   None    Shift=    0.000
 Gap=     0.085 Goal=   None    Shift=    0.000
 RMSDP=1.04D-05 MaxDP=4.34D-04 DE=-7.53D-06 OVMax= 1.17D-03

 Cycle  10  Pass 1  IDiag  1:
 RMSU=  6.72D-06    CP:  9.15D-01  2.42D-01  1.03D+00  1.47D+00  1.63D+00
                    CP:  1.13D+00  1.34D+00  1.19D+00  7.86D-01
 E= -475.525438862027     Delta-E=       -0.000001979505 Rises=F Damp=F
 DIIS: error= 3.03D-05 at cycle  10 NSaved=  10.
 NSaved=10 IEnMin=10 EnMin= -475.525438862027     IErMin=10 ErrMin= 3.03D-05
 ErrMax= 3.03D-05  0.00D+00 EMaxC= 1.00D-01 BMatC= 3.16D-07 BMatP= 6.34D-06
 IDIUse=1 WtCom= 1.00D+00 WtEn= 0.00D+00
 Coeff-Com:  0.149D-03-0.237D-03-0.280D-03-0.125D-03 0.330D-02 0.120D-02
 Coeff-Com: -0.366D-02-0.785D-01 0.479D-02 0.107D+01
 Coeff:      0.149D-03-0.237D-03-0.280D-03-0.125D-03 0.330D-02 0.120D-02
 Coeff:     -0.366D-02-0.785D-01 0.479D-02 0.107D+01
 Gap=     0.211 Goal=   None    Shift=    0.000
 Gap=     0.085 Goal=   None    Shift=    0.000
 RMSDP=4.50D-06 MaxDP=2.54D-04 DE=-1.98D-06 OVMax= 3.98D-04

 Cycle  11  Pass 1  IDiag  1:
 RMSU=  2.41D-06    CP:  9.15D-01  2.42D-01  1.03D+00  1.47D+00  1.64D+00
                    CP:  1.13D+00  1.34D+00  1.17D+00  8.59D-01  1.36D+00
 E= -475.525439092878     Delta-E=       -0.000000230852 Rises=F Damp=F
 DIIS: error= 9.92D-06 at cycle  11 NSaved=  11.
 NSaved=11 IEnMin=11 EnMin= -475.525439092878     IErMin=11 ErrMin= 9.92D-06
 ErrMax= 9.92D-06  0.00D+00 EMaxC= 1.00D-01 BMatC= 2.57D-08 BMatP= 3.16D-07
 IDIUse=1 WtCom= 1.00D+00 WtEn= 0.00D+00
 Coeff-Com: -0.132D-04 0.418D-04 0.584D-04 0.136D-02 0.894D-03 0.459D-02
 Coeff-Com: -0.599D-02-0.485D-01-0.724D-01 0.422D-01 0.108D+01
 Coeff:     -0.132D-04 0.418D-04 0.584D-04 0.136D-02 0.894D-03 0.459D-02
 Coeff:     -0.599D-02-0.485D-01-0.724D-01 0.422D-01 0.108D+01
 Gap=     0.211 Goal=   None    Shift=    0.000
 Gap=     0.085 Goal=   None    Shift=    0.000
 RMSDP=1.75D-06 MaxDP=4.50D-05 DE=-2.31D-07 OVMax= 2.00D-04

 Cycle  12  Pass 1  IDiag  1:
 RMSU=  8.26D-07    CP:  9.15D-01  2.42D-01  1.03D+00  1.47D+00  1.63D+00
                    CP:  1.13D+00  1.33D+00  1.17D+00  8.78D-01  1.52D+00
                    CP:  1.35D+00
 E= -475.525439122909     Delta-E=       -0.000000030031 Rises=F Damp=F
 DIIS: error= 3.53D-06 at cycle  12 NSaved=  12.
 NSaved=12 IEnMin=12 EnMin= -475.525439122909     IErMin=12 ErrMin= 3.53D-06
 ErrMax= 3.53D-06  0.00D+00 EMaxC= 1.00D-01 BMatC= 1.95D-09 BMatP= 2.57D-08
 IDIUse=1 WtCom= 1.00D+00 WtEn= 0.00D+00
 Coeff-Com: -0.729D-05-0.362D-05-0.818D-04-0.317D-03-0.143D-04-0.104D-02
 Coeff-Com: -0.525D-03 0.131D-01 0.887D-02-0.679D-01-0.134D+00 0.118D+01
 Coeff:     -0.729D-05-0.362D-05-0.818D-04-0.317D-03-0.143D-04-0.104D-02
 Coeff:     -0.525D-03 0.131D-01 0.887D-02-0.679D-01-0.134D+00 0.118D+01
 Gap=     0.211 Goal=   None    Shift=    0.000
 Gap=     0.085 Goal=   None    Shift=    0.000
 RMSDP=5.64D-07 MaxDP=1.84D-05 DE=-3.00D-08 OVMax= 6.58D-05

 Cycle  13  Pass 1  IDiag  1:
 RMSU=  3.01D-07    CP:  9.15D-01  2.42D-01  1.03D+00  1.47D+00  1.63D+00
                    CP:  1.13D+00  1.34D+00  1.17D+00  8.82D-01  1.54D+00
                    CP:  1.50D+00  1.24D+00
 E= -475.525439125642     Delta-E=       -0.000000002732 Rises=F Damp=F
 DIIS: error= 1.26D-06 at cycle  13 NSaved=  13.
 NSaved=13 IEnMin=13 EnMin= -475.525439125642     IErMin=13 ErrMin= 1.26D-06
 ErrMax= 1.26D-06  0.00D+00 EMaxC= 1.00D-01 BMatC= 3.28D-10 BMatP= 1.95D-09
 IDIUse=1 WtCom= 1.00D+00 WtEn= 0.00D+00
 Coeff-Com: -0.762D-06 0.140D-05-0.819D-05-0.102D-03-0.301D-04-0.255D-03
 Coeff-Com:  0.530D-03 0.448D-02 0.304D-02-0.195D-02-0.123D+00 0.128D+00
 Coeff-Com:  0.989D+00
 Coeff:     -0.762D-06 0.140D-05-0.819D-05-0.102D-03-0.301D-04-0.255D-03
 Coeff:      0.530D-03 0.448D-02 0.304D-02-0.195D-02-0.123D+00 0.128D+00
 Coeff:      0.989D+00
 Gap=     0.211 Goal=   None    Shift=    0.000
 Gap=     0.085 Goal=   None    Shift=    0.000
 RMSDP=1.89D-07 MaxDP=4.38D-06 DE=-2.73D-09 OVMax= 2.34D-05

 Cycle  14  Pass 1  IDiag  1:
 RMSU=  8.58D-08    CP:  9.15D-01  2.42D-01  1.03D+00  1.47D+00  1.63D+00
                    CP:  1.13D+00  1.33D+00  1.17D+00  8.82D-01  1.55D+00
                    CP:  1.53D+00  1.34D+00  1.13D+00
 E= -475.525439125947     Delta-E=       -0.000000000305 Rises=F Damp=F
 DIIS: error= 3.87D-07 at cycle  14 NSaved=  14.
 NSaved=14 IEnMin=14 EnMin= -475.525439125947     IErMin=14 ErrMin= 3.87D-07
 ErrMax= 3.87D-07  0.00D+00 EMaxC= 1.00D-01 BMatC= 2.75D-11 BMatP= 3.28D-10
 IDIUse=1 WtCom= 1.00D+00 WtEn= 0.00D+00
 Coeff-Com: -0.123D-06-0.100D-05 0.106D-04 0.262D-04-0.760D-04-0.541D-04
 Coeff-Com:  0.306D-03 0.251D-03 0.134D-03 0.374D-02-0.129D-01-0.873D-01
 Coeff-Com:  0.131D+00 0.965D+00
 Coeff:     -0.123D-06-0.100D-05 0.106D-04 0.262D-04-0.760D-04-0.541D-04
 Coeff:      0.306D-03 0.251D-03 0.134D-03 0.374D-02-0.129D-01-0.873D-01
 Coeff:      0.131D+00 0.965D+00
 Gap=     0.211 Goal=   None    Shift=    0.000
 Gap=     0.085 Goal=   None    Shift=    0.000
 RMSDP=5.75D-08 MaxDP=1.58D-06 DE=-3.05D-10 OVMax= 8.27D-06

 Cycle  15  Pass 1  IDiag  1:
 RMSU=  2.55D-08    CP:  9.15D-01  2.42D-01  1.03D+00  1.47D+00  1.63D+00
                    CP:  1.13D+00  1.33D+00  1.17D+00  8.82D-01  1.55D+00
                    CP:  1.53D+00  1.36D+00  1.23D+00  1.31D+00
 E= -475.525439125970     Delta-E=       -0.000000000023 Rises=F Damp=F
 DIIS: error= 1.25D-07 at cycle  15 NSaved=  15.
 NSaved=15 IEnMin=15 EnMin= -475.525439125970     IErMin=15 ErrMin= 1.25D-07
 ErrMax= 1.25D-07  0.00D+00 EMaxC= 1.00D-01 BMatC= 5.80D-12 BMatP= 2.75D-11
 IDIUse=1 WtCom= 1.00D+00 WtEn= 0.00D+00
 Coeff-Com:  0.393D-07-0.292D-06 0.272D-05 0.189D-04-0.262D-04 0.550D-04
 Coeff-Com:  0.690D-04-0.574D-03-0.546D-03 0.141D-02 0.102D-01-0.385D-01
 Coeff-Com: -0.459D-01 0.245D+00 0.829D+00
 Coeff:      0.393D-07-0.292D-06 0.272D-05 0.189D-04-0.262D-04 0.550D-04
 Coeff:      0.690D-04-0.574D-03-0.546D-03 0.141D-02 0.102D-01-0.385D-01
 Coeff:     -0.459D-01 0.245D+00 0.829D+00
 Gap=     0.211 Goal=   None    Shift=    0.000
 Gap=     0.085 Goal=   None    Shift=    0.000
 RMSDP=2.14D-08 MaxDP=1.10D-06 DE=-2.33D-11 OVMax= 1.38D-06

 Cycle  16  Pass 1  IDiag  1:
 RMSU=  9.88D-09    CP:  9.15D-01  2.42D-01  1.03D+00  1.47D+00  1.63D+00
                    CP:  1.13D+00  1.33D+00  1.17D+00  8.82D-01  1.55D+00
                    CP:  1.54D+00  1.36D+00  1.24D+00  1.43D+00  1.15D+00
 E= -475.525439125976     Delta-E=       -0.000000000006 Rises=F Damp=F
 DIIS: error= 3.62D-08 at cycle  16 NSaved=  16.
 NSaved=16 IEnMin=16 EnMin= -475.525439125976     IErMin=16 ErrMin= 3.62D-08
 ErrMax= 3.62D-08  0.00D+00 EMaxC= 1.00D-01 BMatC= 7.14D-13 BMatP= 5.80D-12
 IDIUse=1 WtCom= 1.00D+00 WtEn= 0.00D+00
 Coeff-Com:  0.123D-06-0.111D-06-0.947D-06-0.330D-05-0.155D-05 0.197D-04
 Coeff-Com: -0.311D-05-0.424D-04-0.407D-04-0.430D-03 0.118D-02 0.669D-02
 Coeff-Com: -0.101D-01-0.785D-01 0.659D-01 0.102D+01
 Coeff:      0.123D-06-0.111D-06-0.947D-06-0.330D-05-0.155D-05 0.197D-04
 Coeff:     -0.311D-05-0.424D-04-0.407D-04-0.430D-03 0.118D-02 0.669D-02
 Coeff:     -0.101D-01-0.785D-01 0.659D-01 0.102D+01
 Gap=     0.211 Goal=   None    Shift=    0.000
 Gap=     0.085 Goal=   None    Shift=    0.000
 RMSDP=8.31D-09 MaxDP=3.89D-07 DE=-5.68D-12 OVMax= 5.34D-07

 SCF Done:  E(UB3LYP) =  -475.525439126     A.U. after   16 cycles
            NFock= 16  Conv=0.83D-08     -V/T= 2.0019
 <Sx>= 0.0000 <Sy>= 0.0000 <Sz>= 1.0000 <S**2>= 2.0345 S= 1.0115
 <L.S>= 0.000000000000E+00
 KE= 4.746109440657D+02 PE=-1.282256284642D+03 EE= 2.542767097507D+02
 Annihilation of the first spin contaminant:
 S**2 before annihilation     2.0345,   after     2.0003
 Leave Link  502 at Wed Aug  3 22:57:20 2016, MaxMem=    33554432 cpu:       141.3
 (Enter /home/proyectos/fulerenos/M3C-v2.0/M3C-deps_CCC/g09-AM64L-G09RevC.01/l801.exe)
 DoSCS=F DFT=T ScalE2(SS,OS)=  1.000000  1.000000
 Range of M.O.s used for correlation:     1   145
 NBasis=   145 NAE=    16 NBE=    14 NFC=     0 NFV=     0
 NROrb=    145 NOA=    16 NOB=    14 NVA=   129 NVB=   131

 **** Warning!!: The largest alpha MO coefficient is  0.44102410D+02


 **** Warning!!: The largest beta MO coefficient is  0.40578480D+02


 **** Warning!!: The smallest beta delta epsilon is  0.85277583D-01

 Leave Link  801 at Wed Aug  3 22:57:20 2016, MaxMem=    33554432 cpu:         0.1
 (Enter /home/proyectos/fulerenos/M3C-v2.0/M3C-deps_CCC/g09-AM64L-G09RevC.01/l1101.exe)
 Using compressed storage, NAtomX=     5.
 Will process      6 centers per pass.
 Leave Link 1101 at Wed Aug  3 22:57:21 2016, MaxMem=    33554432 cpu:         1.9
 (Enter /home/proyectos/fulerenos/M3C-v2.0/M3C-deps_CCC/g09-AM64L-G09RevC.01/l1102.exe)
 Symmetrizing basis deriv contribution to polar:
 IMax=3 JMax=2 DiffMx= 0.00D+00
 Leave Link 1102 at Wed Aug  3 22:57:21 2016, MaxMem=    33554432 cpu:         0.1
 (Enter /home/proyectos/fulerenos/M3C-v2.0/M3C-deps_CCC/g09-AM64L-G09RevC.01/l1110.exe)
 Forming Gx(P) for the SCF density, NAtomX=     5.
 Integral derivatives from FoFJK, PRISM(SPDF).
 Do as many integral derivatives as possible in FoFJK.
 G2DrvN: MDV=      33554288.
 G2DrvN: will do     6 centers at a time, making    1 passes.
 Calling FoFCou, ICntrl=  3107 FMM=F I1Cent=   0 AccDes= 0.00D+00.
 FoFJK:  IHMeth= 1 ICntrl=    3107 DoSepK=F KAlg= 0 I1Cent=   0 FoldK=F
 IRaf=         0 NMat=   1 IRICut=       1 DoRegI=T DoRafI=F ISym2E= 1.
 FoFCou: FMM=F IPFlag=           0 FMFlag=      100000 FMFlg1=           0
         NFxFlg=           0 DoJE=F BraDBF=F KetDBF=F FulRan=T
         wScrn=  0.000000 ICntrl=    3107 IOpCl=  1 I1Cent=           0 NGrid=           0
         NMat0=    1 NMatS0=      1 NMatT0=    0 NMatD0=    1 NMtDS0=    0 NMtDT0=    0
 Petite list used in FoFCou.
 End of G2Drv F.D. properties file   721 does not exist.
 End of G2Drv F.D. properties file   722 does not exist.
 End of G2Drv F.D. properties file   788 does not exist.
 Leave Link 1110 at Wed Aug  3 22:57:38 2016, MaxMem=    33554432 cpu:        65.2
 (Enter /home/proyectos/fulerenos/M3C-v2.0/M3C-deps_CCC/g09-AM64L-G09RevC.01/l1002.exe)
 Minotr:  UHF open shell wavefunction.
          IDoAtm=11111
          Direct CPHF calculation.
          Differentiating once with respect to electric field.
                with respect to dipole field.
          Differentiating once with respect to nuclear coordinates.
          Using symmetry in CPHF.
          Requested convergence is 1.0D-08 RMS, and 1.0D-07 maximum.
          Secondary convergence is 1.0D-12 RMS, and 1.0D-12 maximum.
          NewPWx=T KeepS1=F KeepF1=F KeepIn=T MapXYZ=F SortEE=F KeepMc=T.
          MDV=      33554088 using IRadAn=       2.
 Generate precomputed XC quadrature information.
          Solving linear equations simultaneously, MaxMat=       0.
 FoFJK:  IHMeth= 1 ICntrl=       0 DoSepK=F KAlg= 0 I1Cent=   0 FoldK=F
 IRaf= 980000000 NMat=  18 IRICut=      45 DoRegI=T DoRafI=T ISym2E= 2.
 FoFCou: FMM=F IPFlag=           0 FMFlag=      100000 FMFlg1=           0
         NFxFlg=           0 DoJE=F BraDBF=F KetDBF=F FulRan=T
         wScrn=  0.000000 ICntrl=       0 IOpCl=  1 I1Cent=           0 NGrid=           0
         NMat0=   18 NMatS0=     18 NMatT0=    0 NMatD0=   18 NMtDS0=    0 NMtDT0=    0
 Integrals replicated using symmetry in FoFCou.
          There are    18 degrees of freedom in the 1st order CPHF.  IDoFFX=6 NUNeed=     3.
     15 vectors produced by pass  0 Test12= 2.17D-14 5.56D-09 XBig12= 1.36D+02 5.53D+00.
 AX will form    15 AO Fock derivatives at one time.
     15 vectors produced by pass  1 Test12= 2.17D-14 5.56D-09 XBig12= 3.41D+01 1.28D+00.
     15 vectors produced by pass  2 Test12= 2.17D-14 5.56D-09 XBig12= 1.45D+00 2.67D-01.
     15 vectors produced by pass  3 Test12= 2.17D-14 5.56D-09 XBig12= 2.90D-02 4.59D-02.
     15 vectors produced by pass  4 Test12= 2.17D-14 5.56D-09 XBig12= 5.22D-04 4.86D-03.
     15 vectors produced by pass  5 Test12= 2.17D-14 5.56D-09 XBig12= 9.02D-06 4.53D-04.
     15 vectors produced by pass  6 Test12= 2.17D-14 5.56D-09 XBig12= 6.11D-08 3.37D-05.
     12 vectors produced by pass  7 Test12= 2.17D-14 5.56D-09 XBig12= 4.57D-10 2.86D-06.
      3 vectors produced by pass  8 Test12= 2.17D-14 5.56D-09 XBig12= 2.89D-12 1.94D-07.
      2 vectors produced by pass  9 Test12= 2.17D-14 5.56D-09 XBig12= 2.58D-14 2.51D-08.
 InvSVY:  IOpt=1 It=  1 EMax= 1.11D-15
 Solved reduced A of dimension   122 with    15 vectors.
 FullF1:  Do perturbations    1 to     3.
 Isotropic polarizability for W=    0.000000       47.61 Bohr**3.
 End of Minotr F.D. properties file   721 does not exist.
 End of Minotr F.D. properties file   722 does not exist.
 End of Minotr F.D. properties file   788 does not exist.
 Leave Link 1002 at Wed Aug  3 22:58:26 2016, MaxMem=    33554432 cpu:       188.6
 (Enter /home/proyectos/fulerenos/M3C-v2.0/M3C-deps_CCC/g09-AM64L-G09RevC.01/l601.exe)
 Copying SCF densities to generalized density rwf, IOpCl= 1 IROHF=0.

 **********************************************************************

            Population analysis using the SCF density.

 **********************************************************************

 Orbital symmetries:
 Alpha Orbitals:
       Occupied  (A') (A') (A') (A') (A") (A') (A') (A') (A') (A')
                 (A') (A') (A") (A') (A") (A')
       Virtual   (A") (A') (A') (A') (A') (A") (A') (A") (A') (A')
                 (A") (A') (A') (A') (A') (A') (A') (A") (A') (A')
                 (A") (A') (A') (A") (A') (A') (A") (A') (A') (A')
                 (A") (A') (A") (A') (A") (A') (A') (A') (A") (A')
                 (A") (A') (A') (A') (A') (A") (A') (A") (A') (A")
                 (A') (A') (A") (A') (A') (A') (A') (A') (A') (A")
                 (A") (A') (A") (A") (A') (A') (A") (A') (A") (A')
                 (A') (A') (A") (A') (A') (A") (A') (A') (A') (A')
                 (A") (A') (A") (A') (A") (A") (A') (A') (A") (A')
                 (A") (A') (A') (A') (A") (A') (A') (A') (A') (A")
                 (A') (A") (A') (A") (A") (A') (A') (A") (A') (A')
                 (A') (A') (A") (A') (A") (A') (A") (A') (A') (A")
                 (A') (A') (A') (A") (A') (A') (A') (A') (A')
 Beta  Orbitals:
       Occupied  (A') (A') (A') (A') (A') (A") (A') (A') (A') (A')
                 (A') (A') (A") (A')
       Virtual   (A") (A') (A") (A') (A') (A') (A') (A") (A') (A')
                 (A") (A') (A") (A') (A') (A') (A') (A') (A') (A")
                 (A') (A') (A") (A') (A') (A") (A') (A') (A') (A")
                 (A') (A') (A") (A') (A") (A') (A") (A') (A') (A')
                 (A") (A') (A") (A') (A') (A') (A') (A") (A') (A")
                 (A') (A") (A') (A') (A") (A') (A') (A') (A') (A')
                 (A') (A") (A") (A') (A") (A') (A") (A') (A") (A')
                 (A") (A') (A') (A') (A") (A') (A') (A") (A') (A')
                 (A') (A') (A") (A") (A') (A') (A") (A") (A') (A')
                 (A") (A') (A") (A') (A') (A') (A") (A') (A') (A')
                 (A') (A") (A') (A") (A') (A") (A") (A') (A') (A")
                 (A') (A') (A') (A') (A") (A') (A") (A') (A") (A')
                 (A') (A") (A') (A') (A') (A") (A') (A') (A') (A')
                 (A')
 The electronic state is 3-A".
 Alpha  occ. eigenvalues --  -88.85921 -10.24300 -10.23510  -7.94380  -5.91141
 Alpha  occ. eigenvalues --   -5.90528  -5.89660  -0.83745  -0.71570  -0.57441
 Alpha  occ. eigenvalues --   -0.50797  -0.41183  -0.37070  -0.27779  -0.26977
 Alpha  occ. eigenvalues --   -0.25111
 Alpha virt. eigenvalues --   -0.04037  -0.00750   0.01311   0.02921   0.04211
 Alpha virt. eigenvalues --    0.05054   0.07096   0.08241   0.08355   0.09899
 Alpha virt. eigenvalues --    0.10947   0.11097   0.11630   0.13360   0.14021
 Alpha virt. eigenvalues --    0.14835   0.19663   0.22027   0.23925   0.26853
 Alpha virt. eigenvalues --    0.26931   0.29024   0.30308   0.31161   0.33170
 Alpha virt. eigenvalues --    0.35309   0.38194   0.38245   0.40388   0.41274
 Alpha virt. eigenvalues --    0.42554   0.46667   0.47933   0.49710   0.54768
 Alpha virt. eigenvalues --    0.55849   0.59874   0.64738   0.66347   0.69068
 Alpha virt. eigenvalues --    0.72264   0.74684   0.79141   0.83065   0.87387
 Alpha virt. eigenvalues --    0.94504   0.95666   0.98814   1.00186   1.01011
 Alpha virt. eigenvalues --    1.02292   1.03917   1.10845   1.11840   1.12876
 Alpha virt. eigenvalues --    1.22737   1.24071   1.30468   1.39120   1.39715
 Alpha virt. eigenvalues --    1.46105   1.54209   1.59202   1.64031   1.64680
 Alpha virt. eigenvalues --    1.65485   1.66766   1.70093   1.74000   1.84943
 Alpha virt. eigenvalues --    1.88274   1.96004   2.00549   2.02417   2.10913
 Alpha virt. eigenvalues --    2.12359   2.38341   2.41289   2.44186   2.58596
 Alpha virt. eigenvalues --    2.67459   2.77481   2.77942   2.78571   2.79253
 Alpha virt. eigenvalues --    2.84515   2.89051   3.03750   3.07377   3.08136
 Alpha virt. eigenvalues --    3.19748   3.21475   3.39096   3.43762   3.52030
 Alpha virt. eigenvalues --    3.57020   3.80381   4.02619   4.09239   4.11684
 Alpha virt. eigenvalues --    4.16613   4.36187   4.46889   4.52892   4.63287
 Alpha virt. eigenvalues --    4.63546   4.74162   4.79930   5.04264   5.32831
 Alpha virt. eigenvalues --    5.46632   6.03758   6.92357   6.95812   7.07196
 Alpha virt. eigenvalues --    7.08506   7.14089   7.35762   7.42563   7.46727
 Alpha virt. eigenvalues --    7.85994   8.08688   8.39479  17.32081  17.45615
 Alpha virt. eigenvalues --   17.85281  23.79409  25.62490 189.21020
  Beta  occ. eigenvalues --  -88.85438 -10.23787 -10.22154  -7.93937  -5.90175
  Beta  occ. eigenvalues --   -5.89742  -5.89361  -0.81750  -0.67588  -0.54874
  Beta  occ. eigenvalues --   -0.49387  -0.39291  -0.33788  -0.24014
  Beta virt. eigenvalues --   -0.15486  -0.11193  -0.01427  -0.00561   0.01508
  Beta virt. eigenvalues --    0.03269   0.04896   0.05613   0.07245   0.08829
  Beta virt. eigenvalues --    0.08887   0.10218   0.11402   0.11427   0.12129
  Beta virt. eigenvalues --    0.13801   0.14579   0.15227   0.20371   0.23479
  Beta virt. eigenvalues --    0.24495   0.27902   0.28926   0.29600   0.31610
  Beta virt. eigenvalues --    0.32863   0.33988   0.36559   0.39482   0.39948
  Beta virt. eigenvalues --    0.41113   0.43377   0.44144   0.48067   0.48750
  Beta virt. eigenvalues --    0.50742   0.57001   0.57186   0.61191   0.66812
  Beta virt. eigenvalues --    0.66831   0.70309   0.72537   0.75718   0.80019
  Beta virt. eigenvalues --    0.83887   0.88141   0.95838   0.96275   1.01125
  Beta virt. eigenvalues --    1.01743   1.02696   1.04293   1.04993   1.11862
  Beta virt. eigenvalues --    1.12699   1.13697   1.24110   1.25349   1.31721
  Beta virt. eigenvalues --    1.40810   1.41590   1.48159   1.60112   1.64730
  Beta virt. eigenvalues --    1.66250   1.67065   1.68770   1.70303   1.70663
  Beta virt. eigenvalues --    1.76376   1.87190   1.89573   1.98511   2.02521
  Beta virt. eigenvalues --    2.04158   2.13166   2.14801   2.39289   2.42545
  Beta virt. eigenvalues --    2.45882   2.60195   2.70265   2.80770   2.81801
  Beta virt. eigenvalues --    2.83985   2.84104   2.86427   2.91498   3.05795
  Beta virt. eigenvalues --    3.09168   3.11226   3.20804   3.22804   3.40883
  Beta virt. eigenvalues --    3.44234   3.53756   3.58131   3.81613   4.04023
  Beta virt. eigenvalues --    4.10382   4.12536   4.18790   4.37394   4.48534
  Beta virt. eigenvalues --    4.54768   4.64328   4.64683   4.74995   4.81088
  Beta virt. eigenvalues --    5.04992   5.34479   5.47552   6.05436   7.00085
  Beta virt. eigenvalues --    7.04725   7.08907   7.10507   7.14826   7.36100
  Beta virt. eigenvalues --    7.46242   7.48225   7.88349   8.10186   8.39993
  Beta virt. eigenvalues --   17.33928  17.46002  17.85761  23.80462  25.63648
  Beta virt. eigenvalues --  189.21462
          Condensed to atoms (all electrons):
               1          2          3          4          5
     1  S   15.975255  -0.054167   0.331607   0.020191  -0.071319
     2  C   -0.054167   6.581957  -0.649975   0.403010  -0.101348
     3  C    0.331607  -0.649975   5.909972  -0.096904   0.483808
     4  H    0.020191   0.403010  -0.096904   0.484454  -0.007627
     5  H   -0.071319  -0.101348   0.483808  -0.007627   0.533811
          Atomic-Atomic Spin Densities.
               1          2          3          4          5
     1  S    0.856098  -0.036365  -0.038136   0.006392  -0.017279
     2  C   -0.036365   1.729086  -0.194703  -0.057639  -0.004155
     3  C   -0.038136  -0.194703  -0.074558   0.019631   0.009823
     4  H    0.006392  -0.057639   0.019631   0.056659  -0.011493
     5  H   -0.017279  -0.004155   0.009823  -0.011493   0.080565
 Mulliken charges and spin densities:
               1          2
     1  S   -0.201567   0.770709
     2  C   -0.179476   1.436224
     3  C    0.021492  -0.277944
     4  H    0.196876   0.013550
     5  H    0.162675   0.057461
 Sum of Mulliken charges =  -0.00000   2.00000
 Mulliken charges and spin densities with hydrogens summed into heavy atoms:
               1          2
     1  S   -0.201567   0.770709
     2  C    0.017400   1.449774
     3  C    0.184167  -0.220483
 APT charges:
               1
     1  S   -0.085276
     2  C    0.004745
     3  C   -0.065734
     4  H    0.113978
     5  H    0.032288
 Sum of APT charges =   0.00000
 APT charges with hydrogens summed into heavy atoms:
               1
     1  S   -0.085276
     2  C    0.118722
     3  C   -0.033446
 Electronic spatial extent (au):  <R**2>=            223.9008
 Charge=             -0.0000 electrons
 Dipole moment (field-independent basis, Debye):
    X=              0.7412    Y=              2.3084    Z=              0.0000  Tot=              2.4245
 Quadrupole moment (field-independent basis, Debye-Ang):
   XX=            -25.3102   YY=            -22.6607   ZZ=            -25.8103
   XY=              1.8603   XZ=             -0.0000   YZ=             -0.0000
 Traceless Quadrupole moment (field-independent basis, Debye-Ang):
   XX=             -0.7165   YY=              1.9330   ZZ=             -1.2166
   XY=              1.8603   XZ=             -0.0000   YZ=             -0.0000
 Octapole moment (field-independent basis, Debye-Ang**2):
  XXX=              3.8087  YYY=              4.6619  ZZZ=             -0.0000  XYY=              1.6528
  XXY=              6.3130  XXZ=              0.0000  XZZ=             -1.4209  YZZ=             -1.5322
  YYZ=              0.0000  XYZ=              0.0000
 Hexadecapole moment (field-independent basis, Debye-Ang**3):
 XXXX=           -134.8496 YYYY=           -155.7631 ZZZZ=            -32.8874 XXXY=            -38.2529
 XXXZ=             -0.0000 YYYX=            -34.6317 YYYZ=             -0.0000 ZZZX=             -0.0000
 ZZZY=             -0.0000 XXYY=            -38.9160 XXZZ=            -28.8539 YYZZ=            -34.2097
 XXYZ=             -0.0000 YYXZ=             -0.0000 ZZXY=            -15.5672
 N-N= 7.784319169984D+01 E-N=-1.282256282342D+03  KE= 4.746109440657D+02
 Symmetry A'   KE= 4.353239318869D+02
 Symmetry A"   KE= 3.928701217882D+01
  Exact polarizability:  54.466  14.414  56.221  -0.000  -0.000  32.148
 Approx polarizability:  84.024  25.696  87.302   0.000   0.000  48.095
                          Isotropic Fermi Contact Couplings
        Atom                 a.u.       MegaHertz       Gauss      10(-4) cm-1
     1  S(33)              0.05492       9.43158       3.36542       3.14604
     2  C(13)              0.32372     181.96324      64.92901      60.69640
     3  C(13)             -0.03453     -19.41056      -6.92617      -6.47466
     4  H(1)               0.00526      11.74549       4.19108       3.91787
     5  H(1)               0.02712      60.60725      21.62617      20.21640
 --------------------------------------------------------
       Center         ----  Spin Dipole Couplings  ----
                      3XX-RR        3YY-RR        3ZZ-RR
 --------------------------------------------------------
     1   Atom       -1.500973     -1.585678      3.086651
     2   Atom       -0.341867      0.303048      0.038819
     3   Atom        0.161623      0.051133     -0.212756
     4   Atom        0.014740      0.047486     -0.062226
     5   Atom        0.018698     -0.000128     -0.018570
 --------------------------------------------------------
                        XY            XZ            YZ
 --------------------------------------------------------
     1   Atom        0.232532      0.000000      0.000000
     2   Atom       -0.742070      0.000000      0.000000
     3   Atom        0.019327      0.000000      0.000000
     4   Atom        0.073209      0.000000      0.000000
     5   Atom        0.000617      0.000000      0.000000
 --------------------------------------------------------


 ---------------------------------------------------------------------------------
              Anisotropic Spin Dipole Couplings in Principal Axis System
 ---------------------------------------------------------------------------------

       Atom             a.u.   MegaHertz   Gauss  10(-4) cm-1        Axes

              Baa    -1.7797   -72.965   -26.036   -24.339 -0.6406  0.7679 -0.0000
     1 S(33)  Bbb    -1.3070   -53.584   -19.120   -17.874  0.7679  0.6406  0.0000
              Bcc     3.0867   126.550    45.156    42.212  0.0000  0.0000  1.0000
 
              Baa    -0.8285  -111.178   -39.671   -37.085  0.8362  0.5484 -0.0000
     2 C(13)  Bbb     0.0388     5.209     1.859     1.738  0.0000  0.0000  1.0000
              Bcc     0.7897   105.969    37.812    35.348 -0.5484  0.8362 -0.0000
 
              Baa    -0.2128   -28.550   -10.187    -9.523  0.0000  0.0000  1.0000
     3 C(13)  Bbb     0.0478     6.421     2.291     2.142 -0.1675  0.9859 -0.0000
              Bcc     0.1649    22.129     7.896     7.381  0.9859  0.1675 -0.0000
 
              Baa    -0.0622   -33.201   -11.847   -11.075 -0.0000  0.0000  1.0000
     4 H(1)   Bbb    -0.0439   -23.425    -8.359    -7.814  0.7805 -0.6252  0.0000
              Bcc     0.1061    56.626    20.206    18.888  0.6252  0.7805  0.0000
 
              Baa    -0.0186    -9.908    -3.535    -3.305 -0.0000 -0.0000  1.0000
     5 H(1)   Bbb    -0.0001    -0.079    -0.028    -0.026 -0.0327  0.9995  0.0000
              Bcc     0.0187     9.987     3.564     3.331  0.9995  0.0327  0.0000
 

 ---------------------------------------------------------------------------------

 No NMR shielding tensors so no spin-rotation constants.
 Leave Link  601 at Wed Aug  3 22:58:26 2016, MaxMem=    33554432 cpu:         1.2
 (Enter /home/proyectos/fulerenos/M3C-v2.0/M3C-deps_CCC/g09-AM64L-G09RevC.01/l701.exe)
 Compute integral second derivatives.
 ... and contract with generalized density number  0.
 Leave Link  701 at Wed Aug  3 22:58:27 2016, MaxMem=    33554432 cpu:         1.0
 (Enter /home/proyectos/fulerenos/M3C-v2.0/M3C-deps_CCC/g09-AM64L-G09RevC.01/l702.exe)
 L702 exits ... SP integral derivatives will be done elsewhere.
 Leave Link  702 at Wed Aug  3 22:58:27 2016, MaxMem=    33554432 cpu:         0.1
 (Enter /home/proyectos/fulerenos/M3C-v2.0/M3C-deps_CCC/g09-AM64L-G09RevC.01/l703.exe)
 Compute integral second derivatives, UseDBF=F ICtDFT=           0.
 Integral derivatives from FoFJK, PRISM(SPDF).
 Calling FoFJK, ICntrl=    100127 FMM=F ISym2X=1 I1Cent= 0 IOpClX= 1 NMat=1 NMatS=1 NMatT=0.
 FoFJK:  IHMeth= 1 ICntrl=  100127 DoSepK=F KAlg= 0 I1Cent=   0 FoldK=F
 IRaf=         0 NMat=   1 IRICut=       1 DoRegI=T DoRafI=F ISym2E= 1.
 FoFCou: FMM=F IPFlag=           0 FMFlag=      100000 FMFlg1=         800
         NFxFlg=           0 DoJE=F BraDBF=F KetDBF=F FulRan=T
         wScrn=  0.000000 ICntrl=  100127 IOpCl=  1 I1Cent=           0 NGrid=           0
         NMat0=    1 NMatS0=      1 NMatT0=    0 NMatD0=    1 NMtDS0=    0 NMtDT0=    0
 Petite list used in FoFCou.
 Leave Link  703 at Wed Aug  3 22:58:43 2016, MaxMem=    33554432 cpu:        65.4
 (Enter /home/proyectos/fulerenos/M3C-v2.0/M3C-deps_CCC/g09-AM64L-G09RevC.01/l716.exe)
 Dipole        = 2.91619380D-01 9.08213106D-01 9.23730287D-17
 Polarizability= 5.44656973D+01 1.44139490D+01 5.62211433D+01
                -5.55793395D-08-2.57835348D-08 3.21475569D+01
 Full mass-weighted force constant matrix:
 Low frequencies ---   -0.6535    0.0006    0.0010    0.0047   13.0173   17.1943
 Low frequencies ---  304.6326  570.7008  706.0153
 Diagonal vibrational polarizability:
        1.2205510       0.3412481       3.0359073
 Harmonic frequencies (cm**-1), IR intensities (KM/Mole), Raman scattering
 activities (A**4/AMU), depolarization ratios for plane and unpolarized
 incident light, reduced masses (AMU), force constants (mDyne/A),
 and normal coordinates:
                      1                      2                      3
                     A'                     A"                     A'
 Frequencies --    304.6322               570.7008               706.0152
 Red. masses --      4.0167                 1.1981                 2.2891
 Frc consts  --      0.2196                 0.2299                 0.6723
 IR Inten    --      0.5201                36.4087                 7.1313
  Atom  AN      X      Y      Z        X      Y      Z        X      Y      Z
     1  16    -0.14  -0.06   0.00    -0.00  -0.00   0.02    -0.05  -0.12  -0.00
     2   6     0.15   0.31  -0.00    -0.00   0.00  -0.06     0.03   0.15   0.00
     3   6     0.24  -0.19  -0.00     0.00   0.00  -0.11     0.04   0.21   0.00
     4   1    -0.41   0.71   0.00     0.00  -0.00   0.89     0.84  -0.45  -0.00
     5   1     0.23  -0.18   0.00     0.00   0.00   0.43    -0.10   0.07  -0.00
                      4                      5                      6
                     A"                     A'                     A'
 Frequencies --    861.1212               894.1431              1234.6876
 Red. masses --      1.4434                 2.0134                 1.1826
 Frc consts  --      0.6306                 0.9484                 1.0622
 IR Inten    --      0.7606                18.7308                12.8151
  Atom  AN      X      Y      Z        X      Y      Z        X      Y      Z
     1  16     0.00  -0.00   0.01    -0.01  -0.08  -0.00     0.01  -0.00  -0.00
     2   6     0.00  -0.00   0.12     0.06  -0.10  -0.00    -0.10   0.04  -0.00
     3   6     0.00   0.00  -0.16     0.01   0.24   0.00    -0.00  -0.07   0.00
     4   1    -0.00   0.00  -0.54    -0.67   0.46   0.00     0.12  -0.14  -0.00
     5   1     0.00   0.00   0.82     0.24   0.45  -0.00     0.74   0.64  -0.00
                      7                      8                      9
                     A'                     A'                     A'
 Frequencies --   1402.1305              3034.0470              3221.7024
 Red. masses --      6.6649                 1.0832                 1.0988
 Frc consts  --      7.7201                 5.8750                 6.7198
 IR Inten    --      9.6039                12.6557                 0.3012
  Atom  AN      X      Y      Z        X      Y      Z        X      Y      Z
     1  16    -0.00   0.01  -0.00     0.00  -0.00  -0.00     0.00   0.00  -0.00
     2   6    -0.47  -0.09  -0.00     0.00   0.00   0.00    -0.06  -0.07  -0.00
     3   6     0.52   0.12   0.00     0.06  -0.06   0.00     0.01  -0.00   0.00
     4   1    -0.38  -0.30  -0.00    -0.04  -0.05  -0.00     0.60   0.80  -0.00
     5   1    -0.08  -0.49  -0.00    -0.69   0.72  -0.00    -0.04   0.04  -0.00

 -------------------
 - Thermochemistry -
 -------------------
 Temperature   298.150 Kelvin.  Pressure   1.00000 Atm.
 Atom     1 has atomic number 16 and mass  31.97207
 Atom     2 has atomic number  6 and mass  12.00000
 Atom     3 has atomic number  6 and mass  12.00000
 Atom     4 has atomic number  1 and mass   1.00783
 Atom     5 has atomic number  1 and mass   1.00783
 Molecular mass:    57.98772 amu.
 Principal axes and moments of inertia in atomic units:
                           1         2         3
     Eigenvalues --    25.23067 275.56131 300.79198
           X            0.62941   0.77708  -0.00000
           Y            0.77708  -0.62941  -0.00000
           Z            0.00000  -0.00000   1.00000
 This molecule is an asymmetric top.
 Rotational symmetry number  1.
 Rotational temperatures (Kelvin)      3.43288     0.31432     0.28795
 Rotational constants (GHZ):          71.52967     6.54933     5.99996
 Zero-point vibrational energy      73146.7 (Joules/Mol)
                                   17.48249 (Kcal/Mol)
 Warning -- explicit consideration of   2 degrees of freedom as
           vibrations may cause significant error
 Vibrational temperatures:    438.30   821.11  1015.80  1238.96  1286.47
          (Kelvin)           1776.44  2017.35  4365.31  4635.31
 
 Zero-point correction=                           0.027860 (Hartree/Particle)
 Thermal correction to Energy=                    0.031534
 Thermal correction to Enthalpy=                  0.032478
 Thermal correction to Gibbs Free Energy=         0.001550
 Sum of electronic and zero-point Energies=           -475.497579
 Sum of electronic and thermal Energies=              -475.493905
 Sum of electronic and thermal Enthalpies=            -475.492961
 Sum of electronic and thermal Free Energies=         -475.523889
 
                     E (Thermal)             CV                S
                      KCal/Mol        Cal/Mol-Kelvin    Cal/Mol-Kelvin
 Total                   19.788             10.891             65.093
 Electronic               0.000              0.000              2.183
 Translational            0.889              2.981             38.094
 Rotational               0.889              2.981             22.263
 Vibrational             18.010              4.929              2.553
 Vibration     1          0.696              1.665              1.391
 Vibration     2          0.927              1.095              0.503
                       Q            Log10(Q)             Ln(Q)
 Total Bot       0.193596D+00         -0.713105         -1.641984
 Total V=0       0.126367D+13         12.101635         27.865044
 Vib (Bot)       0.227123D-12        -12.643738        -29.113283
 Vib (Bot)    1  0.622646D+00         -0.205759         -0.473777
 Vib (Bot)    2  0.269491D+00         -0.569455         -1.311219
 Vib (V=0)       0.148252D+01          0.171001          0.393745
 Vib (V=0)    1  0.129855D+01          0.113460          0.261251
 Vib (V=0)    2  0.106800D+01          0.028572          0.065789
 Electronic      0.300000D+01          0.477121          1.098612
 Translational   0.173564D+08          7.239459         16.669471
 Rotational      0.163702D+05          4.214053          9.703216
 
                                                              b3lyp opt
                                                             IR Spectrum
 
     3       3                                                               1      1                                                
     2       0                                                               4      2            8 8     7    5         3            
     2       3                                                               0      3            9 6     0    7         0            
     2       4                                                               2      5            4 1     6    1         5            
 
     X       X                                                               X      X            X X     X    X         X            
             X                                                               X      X            X       X    X                      
             X                                                               X      X            X       X    X                      
             X                                                               X      X            X       X    X                      
             X                                                               X      X            X            X                      
             X                                                                      X            X            X                      
             X                                                                      X            X            X                      
                                                                                                 X            X                      
                                                                                                 X            X                      
                                                                                                 X            X                      
                                                                                                              X                      
                                                                                                              X                      
                                                                                                              X                      
                                                                                                              X                      
                                                                                                              X                      
                                                                                                              X                      
                                                                                                              X                      
                                                                                                              X                      
                                                                                                              X                      
                                                                                                              X                      
 
 ***** Axes restored to original set *****
 -------------------------------------------------------------------
 Center     Atomic                   Forces (Hartrees/Bohr)
 Number     Number              X              Y              Z
 -------------------------------------------------------------------
      1       16           0.000000235    0.000003231   -0.000000343
      2        6          -0.000031256    0.000016167    0.000009695
      3        6           0.000051707   -0.000034649   -0.000015402
      4        1           0.000001533   -0.000001857   -0.000000390
      5        1          -0.000022219    0.000017107    0.000006440
 -------------------------------------------------------------------
 Cartesian Forces:  Max     0.000051707 RMS     0.000020475
 Z-matrix is all fixed cartesians, so copy forces.
 Force constants in Cartesian coordinates: 
                1             2             3             4             5 
      1  0.174926D+00
      2  0.913821D-01  0.739566D-01
      3 -0.664206D-01 -0.375330D-01  0.334025D-01
      4 -0.637116D-01 -0.283375D-01  0.252042D-01  0.662147D+00
      5  0.157938D-01  0.173391D-01 -0.683423D-02 -0.114684D+00  0.203533D+00
      6  0.216532D-01  0.869046D-02 -0.686321D-02 -0.208417D+00  0.274639D-01
      7 -0.104060D+00 -0.392276D-01  0.327203D-01 -0.288251D+00  0.119767D+00
      8 -0.996533D-01 -0.820685D-01  0.400491D-01  0.215510D+00 -0.162244D+00
      9  0.375823D-01  0.187923D-01 -0.347535D-01  0.693175D-01 -0.324498D-01
     10 -0.172784D-02  0.113117D-02  0.190415D-02 -0.305990D+00 -0.497679D-01
     11  0.539878D-04 -0.103059D-02  0.381259D-03 -0.789076D-01 -0.431297D-01
     12  0.199083D-02  0.232240D-05  0.324320D-02  0.106336D+00  0.192268D-01
     13 -0.542577D-02 -0.249481D-01  0.659206D-02 -0.419437D-02  0.288914D-01
     14 -0.757653D-02 -0.819663D-02  0.393690D-02  0.641933D-02 -0.154983D-01
     15  0.519428D-02  0.100480D-01  0.497101D-02  0.755984D-02 -0.740670D-02
                6             7             8             9            10 
      6  0.114566D+00
      7  0.770214D-01  0.433620D+00
      8 -0.661307D-01 -0.118267D+00  0.535371D+00
      9 -0.636858D-01 -0.111227D+00  0.579979D-02  0.129051D+00
     10  0.103991D+00 -0.193768D-02 -0.131625D-01  0.471155D-02  0.309818D+00
     11  0.294777D-01  0.202913D-01  0.101652D-01 -0.727657D-02  0.616955D-01
     12 -0.607175D-01  0.201975D-02  0.449194D-02  0.737301D-02 -0.109011D+00
     13  0.575166D-02 -0.393711D-01  0.155730D-01 -0.384489D-03 -0.161862D-03
     14  0.498632D-03  0.174366D-01 -0.301224D+00  0.151343D-01  0.103721D-03
     15  0.167004D-01 -0.534442D-03  0.157899D-01 -0.379846D-01 -0.159543D-02
               11            12            13            14            15 
     11  0.328829D-01
     12 -0.232191D-01  0.542646D-01
     13 -0.313312D-02 -0.133498D-02  0.491531D-01
     14  0.111211D-02 -0.502009D-03 -0.163832D-01  0.323806D+00
     15  0.636663D-03 -0.416337D-02 -0.106242D-01 -0.190678D-01  0.204765D-01
 Leave Link  716 at Wed Aug  3 22:58:43 2016, MaxMem=    33554432 cpu:         0.1
 (Enter /home/proyectos/fulerenos/M3C-v2.0/M3C-deps_CCC/g09-AM64L-G09RevC.01/l103.exe)

 GradGradGradGradGradGradGradGradGradGradGradGradGradGradGradGradGradGrad
 Berny optimization.
 Search for a local minimum.
 Step number   1 out of a maximum of    2
 All quantities printed in internal units (Hartrees-Bohrs-Radians)
 Second derivative matrix not updated -- analytic derivatives used.
 The second derivative matrix:
                          X1        Y1        Z1        X2        Y2
           X1           0.17493
           Y1           0.09138   0.07396
           Z1          -0.06642  -0.03753   0.03340
           X2          -0.06371  -0.02834   0.02520   0.66215
           Y2           0.01579   0.01734  -0.00683  -0.11468   0.20353
           Z2           0.02165   0.00869  -0.00686  -0.20842   0.02746
           X3          -0.10406  -0.03923   0.03272  -0.28825   0.11977
           Y3          -0.09965  -0.08207   0.04005   0.21551  -0.16224
           Z3           0.03758   0.01879  -0.03475   0.06932  -0.03245
           X4          -0.00173   0.00113   0.00190  -0.30599  -0.04977
           Y4           0.00005  -0.00103   0.00038  -0.07891  -0.04313
           Z4           0.00199   0.00000   0.00324   0.10634   0.01923
           X5          -0.00543  -0.02495   0.00659  -0.00419   0.02889
           Y5          -0.00758  -0.00820   0.00394   0.00642  -0.01550
           Z5           0.00519   0.01005   0.00497   0.00756  -0.00741
                          Z2        X3        Y3        Z3        X4
           Z2           0.11457
           X3           0.07702   0.43362
           Y3          -0.06613  -0.11827   0.53537
           Z3          -0.06369  -0.11123   0.00580   0.12905
           X4           0.10399  -0.00194  -0.01316   0.00471   0.30982
           Y4           0.02948   0.02029   0.01017  -0.00728   0.06170
           Z4          -0.06072   0.00202   0.00449   0.00737  -0.10901
           X5           0.00575  -0.03937   0.01557  -0.00038  -0.00016
           Y5           0.00050   0.01744  -0.30122   0.01513   0.00010
           Z5           0.01670  -0.00053   0.01579  -0.03798  -0.00160
                          Y4        Z4        X5        Y5        Z5
           Y4           0.03288
           Z4          -0.02322   0.05426
           X5          -0.00313  -0.00133   0.04915
           Y5           0.00111  -0.00050  -0.01638   0.32381
           Z5           0.00064  -0.00416  -0.01062  -0.01907   0.02048
 ITU=  0
     Eigenvalues ---    0.01541   0.02755   0.05891   0.11596   0.11630
     Eigenvalues ---    0.28821   0.50628   0.68564   1.20598
 Angle between quadratic step and forces=  69.45 degrees.
 ClnCor:  largest displacement from symmetrization is 5.82D-14 for atom     4.
 Linear search not attempted -- first point.
 ClnCor:  largest displacement from symmetrization is 4.65D-15 for atom     4.
 B after Tr=     0.000059    0.000003   -0.000021
         Rot=    1.000000   -0.000002   -0.000000   -0.000005 Ang=  -0.00 deg.
 Variable       Old X    -DE/DX   Delta X   Delta X   Delta X     New X
                                 (Linear)    (Quad)   (Total)
    X1       -0.80219   0.00000   0.00000   0.00006   0.00012  -0.80206
    Y1       -0.11751   0.00000   0.00000  -0.00002  -0.00002  -0.11753
    Z1        0.63701  -0.00000   0.00000  -0.00002  -0.00004   0.63697
    X2        3.92610  -0.00003   0.00000  -0.00005   0.00001   3.92611
    Y2        0.22386   0.00002   0.00000   0.00005   0.00009   0.22395
    Z2       -1.05379   0.00001   0.00000   0.00001  -0.00001  -1.05380
    X3        1.81488   0.00005   0.00000   0.00008   0.00013   1.81500
    Y3        1.44649  -0.00003   0.00000   0.00008   0.00010   1.44660
    Z3       -0.40948  -0.00002   0.00000  -0.00004  -0.00005  -0.40953
    X4        5.79118   0.00000   0.00000   0.00005   0.00010   5.79127
    Y4        0.67457  -0.00000   0.00000  -0.00038  -0.00031   0.67426
    Z4       -1.74616  -0.00000   0.00000   0.00001  -0.00001  -1.74617
    X5        1.74342  -0.00002   0.00000  -0.00038  -0.00036   1.74306
    Y5        3.50464   0.00002   0.00000   0.00012   0.00014   3.50478
    Z5       -0.54994   0.00001   0.00000   0.00012   0.00011  -0.54983
         Item               Value     Threshold  Converged?
 Maximum Force            0.000052     0.000450     YES
 RMS     Force            0.000020     0.000300     YES
 Maximum Displacement     0.000355     0.001800     YES
 RMS     Displacement     0.000147     0.001200     YES
 Predicted change in Energy=-8.427339D-09
 Optimization completed.
    -- Stationary point found.
 GradGradGradGradGradGradGradGradGradGradGradGradGradGradGradGradGradGrad

 Leave Link  103 at Wed Aug  3 22:58:43 2016, MaxMem=    33554432 cpu:         0.1
 (Enter /home/proyectos/fulerenos/M3C-v2.0/M3C-deps_CCC/g09-AM64L-G09RevC.01/l9999.exe)
 1\1\GINC-DEPAZ28\Freq\UB3LYP\6-311++G(3df,2p)\C2H2S1(3)\NAGUIRRE\03-Au
 g-2016\0\\#p b3lyp/6-311++G(3df,2p) freq\\b3lyp opt\\0,3\S,-0.4245,-0.
 062184,0.337093\C,2.077604,0.118461,-0.557644\C,0.960391928,0.76545075
 5,-0.2166850469\H,3.064558507,0.356968462,-0.9240305471\H,0.9225763539
 ,1.85457548,-0.2910168912\\Version=EM64L-G09RevE.01\State=3-A"\HF=-475
 .5254391\S2=2.034502\S2-1=0.\S2A=2.000258\RMSD=8.310e-09\RMSF=2.047e-0
 5\ZeroPoint=0.0278601\Thermal=0.0315338\Dipole=0.7621871,0.4844084,-0.
 3071029\DipoleDeriv=-0.0226204,0.0541237,-0.0422152,0.1426408,-0.12190
 63,-0.0508497,-0.0493376,-0.0197108,-0.1113016,0.2076897,-0.0034375,-0
 .1040387,0.0303712,-0.14173,-0.0064286,-0.106759,0.0054648,-0.0517255,
 -0.2957865,0.010497,0.0756202,-0.0216621,0.2024043,-0.014976,0.0782078
 ,-0.0262891,-0.1038209,0.0641398,-0.0043342,0.0325402,-0.0883999,0.136
 2191,0.0326611,0.0393044,0.0030881,0.1415737,0.0465774,-0.056849,0.038
 0935,-0.06295,-0.0749871,0.0395932,0.0385844,0.0374469,0.1252743\Polar
 =65.3145549,2.2083397,41.0849083,-11.8453301,-1.4959904,36.4349344\PG=
 CS [SG(C2H2S1)]\NImag=0\\0.17492552,0.09138205,0.07395665,-0.06642065,
 -0.03753302,0.03340253,-0.06371165,-0.02833748,0.02520416,0.66214704,0
 .01579376,0.01733911,-0.00683423,-0.11468404,0.20353270,0.02165321,0.0
 0869046,-0.00686321,-0.20841745,0.02746390,0.11456608,-0.10406027,-0.0
 3922760,0.03272027,-0.28825083,0.11976674,0.07702136,0.43361988,-0.099
 65327,-0.08206854,0.04004908,0.21550978,-0.16224385,-0.06613070,-0.118
 26705,0.53537082,0.03758233,0.01879226,-0.03475352,0.06931755,-0.03244
 977,-0.06368580,-0.11122694,0.00579979,0.12905088,-0.00172784,0.001131
 17,0.00190415,-0.30599020,-0.04976786,0.10399121,-0.00193768,-0.013162
 50,0.00471155,0.30981757,0.00005399,-0.00103059,0.00038126,-0.07890759
 ,-0.04312966,0.02947770,0.02029126,0.01016525,-0.00727657,0.06169547,0
 .03288289,0.00199083,0.00000232,0.00324320,0.10633590,0.01922680,-0.06
 071748,0.00201975,0.00449194,0.00737301,-0.10901149,-0.02321905,0.0542
 6464,-0.00542577,-0.02494814,0.00659206,-0.00419437,0.02889140,0.00575
 166,-0.03937110,0.01557304,-0.00038449,-0.00016186,-0.00313312,-0.0013
 3498,0.04915309,-0.00757653,-0.00819663,0.00393690,0.00641933,-0.01549
 829,0.00049863,0.01743665,-0.30122367,0.01513430,0.00010372,0.00111211
 ,-0.00050201,-0.01638317,0.32380647,0.00519428,0.01004797,0.00497101,0
 .00755984,-0.00740670,0.01670042,-0.00053444,0.01578989,-0.03798456,-0
 .00159543,0.00063666,-0.00416337,-0.01062425,-0.01906782,0.02047650\\-
 0.00000024,-0.00000323,0.00000034,0.00003126,-0.00001617,-0.00000969,-
 0.00005171,0.00003465,0.00001540,-0.00000153,0.00000186,0.00000039,0.0
 0002222,-0.00001711,-0.00000644\\\@


 I WISH TO HAVE NO CONNECTION WITH ANY SHIP THAT DOES NOT SAIL FAST,
 FOR I INTEND TO GO IN HARM'S WAY.
     -- JOHN PAUL JONES, USN 1747-1792
 Job cpu time:       0 days  0 hours  7 minutes 50.5 seconds.
 File lengths (MBytes):  RWF=     27 Int=      0 D2E=      0 Chk=      3 Scr=      1
 Normal termination of Gaussian 09 at Wed Aug  3 22:58:43 2016.
