 Entering Gaussian System, Link 0=/home/proyectos/fulerenos/M3C-v2.0/M3C-deps_CCC/g09-AM64L-G09RevC.01/g09
 Initial command:
 /home/proyectos/fulerenos/M3C-v2.0/M3C-deps_CCC/g09-AM64L-G09RevC.01/l1.exe "/scratch/naguirre/gaussian/Gau-26980.inp" -scrdir="/scratch/naguirre/gaussian/"
 Entering Link 1 = /home/proyectos/fulerenos/M3C-v2.0/M3C-deps_CCC/g09-AM64L-G09RevC.01/l1.exe PID=     26988.
  
 Copyright (c) 1988,1990,1992,1993,1995,1998,2003,2009,2015,
            Gaussian, Inc.  All Rights Reserved.
  
 This is part of the Gaussian(R) 09 program.  It is based on
 the Gaussian(R) 03 system (copyright 2003, Gaussian, Inc.),
 the Gaussian(R) 98 system (copyright 1998, Gaussian, Inc.),
 the Gaussian(R) 94 system (copyright 1995, Gaussian, Inc.),
 the Gaussian 92(TM) system (copyright 1992, Gaussian, Inc.),
 the Gaussian 90(TM) system (copyright 1990, Gaussian, Inc.),
 the Gaussian 88(TM) system (copyright 1988, Gaussian, Inc.),
 the Gaussian 86(TM) system (copyright 1986, Carnegie Mellon
 University), and the Gaussian 82(TM) system (copyright 1983,
 Carnegie Mellon University). Gaussian is a federally registered
 trademark of Gaussian, Inc.
  
 This software contains proprietary and confidential information,
 including trade secrets, belonging to Gaussian, Inc.
  
 This software is provided under written license and may be
 used, copied, transmitted, or stored only in accord with that
 written license.
  
 The following legend is applicable only to US Government
 contracts under FAR:
  
                    RESTRICTED RIGHTS LEGEND
  
 Use, reproduction and disclosure by the US Government is
 subject to restrictions as set forth in subparagraphs (a)
 and (c) of the Commercial Computer Software - Restricted
 Rights clause in FAR 52.227-19.
  
 Gaussian, Inc.
 340 Quinnipiac St., Bldg. 40, Wallingford CT 06492
  
  
 ---------------------------------------------------------------
 Warning -- This program may not be used in any manner that
 competes with the business of Gaussian, Inc. or will provide
 assistance to any competitor of Gaussian, Inc.  The licensee
 of this program is prohibited from giving any competitor of
 Gaussian, Inc. access to this program.  By using this program,
 the user acknowledges that Gaussian, Inc. is engaged in the
 business of creating and licensing software in the field of
 computational chemistry and represents and warrants to the
 licensee that it is not a competitor of Gaussian, Inc. and that
 it will not use this program in any manner prohibited above.
 ---------------------------------------------------------------
  

 Cite this work as:
 Gaussian 09, Revision E.01,
 M. J. Frisch, G. W. Trucks, H. B. Schlegel, G. E. Scuseria, 
 M. A. Robb, J. R. Cheeseman, G. Scalmani, V. Barone, B. Mennucci, 
 G. A. Petersson, H. Nakatsuji, M. Caricato, X. Li, H. P. Hratchian, 
 A. F. Izmaylov, J. Bloino, G. Zheng, J. L. Sonnenberg, M. Hada, 
 M. Ehara, K. Toyota, R. Fukuda, J. Hasegawa, M. Ishida, T. Nakajima, 
 Y. Honda, O. Kitao, H. Nakai, T. Vreven, J. A. Montgomery, Jr., 
 J. E. Peralta, F. Ogliaro, M. Bearpark, J. J. Heyd, E. Brothers, 
 K. N. Kudin, V. N. Staroverov, T. Keith, R. Kobayashi, J. Normand, 
 K. Raghavachari, A. Rendell, J. C. Burant, S. S. Iyengar, J. Tomasi, 
 M. Cossi, N. Rega, J. M. Millam, M. Klene, J. E. Knox, J. B. Cross, 
 V. Bakken, C. Adamo, J. Jaramillo, R. Gomperts, R. E. Stratmann, 
 O. Yazyev, A. J. Austin, R. Cammi, C. Pomelli, J. W. Ochterski, 
 R. L. Martin, K. Morokuma, V. G. Zakrzewski, G. A. Voth, 
 P. Salvador, J. J. Dannenberg, S. Dapprich, A. D. Daniels, 
 O. Farkas, J. B. Foresman, J. V. Ortiz, J. Cioslowski, 
 and D. J. Fox, Gaussian, Inc., Wallingford CT, 2013.
 
 ******************************************
 Gaussian 09:  EM64L-G09RevE.01 30-Nov-2015
                 3-Aug-2016 
 ******************************************
 %NProcShared=4
 Will use up to    4 processors via shared memory.
 ------------------------------
 #p b3lyp/6-311++G(3df,2p) freq
 ------------------------------
 1/10=4,30=1,38=1/1,3;
 2/12=2,17=6,18=5,40=1/2;
 3/5=4,6=6,7=1216,11=2,16=1,25=1,30=1,71=2,74=-5,140=1/1,2,3;
 4//1;
 5/5=2,38=5,98=1/2;
 8/6=4,10=90,11=11/1;
 11/6=1,8=1,9=11,15=111,16=1/1,2,10;
 10/6=1/2;
 6/7=2,8=2,9=2,10=2,18=1,28=1/1;
 7/8=1,10=1,25=1/1,2,3,16;
 1/10=4,30=1/3;
 99//99;
 Leave Link    1 at Wed Aug  3 23:07:37 2016, MaxMem=           0 cpu:         0.3
 (Enter /home/proyectos/fulerenos/M3C-v2.0/M3C-deps_CCC/g09-AM64L-G09RevC.01/l101.exe)
 ---------
 b3lyp opt
 ---------
 Symbolic Z-matrix:
 Charge =  2 Multiplicity = 3
 S                    -1.25067  -0.67488   0.72436 
 S                     1.51657  -0.44871  -0.50851 
 C                     0.00403  -1.11939  -0.34393 
 H                    -0.24415  -1.96726  -1.00383 
 H                    -0.64418   0.36689   1.37787 
 
 NAtoms=      5 NQM=        5 NQMF=       0 NMMI=      0 NMMIF=      0
                NMic=       0 NMicF=      0.
                    Isotopes and Nuclear Properties:
 (Nuclear quadrupole moments (NQMom) in fm**2, nuclear magnetic moments (NMagM)
  in nuclear magnetons)

  Atom         1           2           3           4           5
 IAtWgt=          32          32          12           1           1
 AtmWgt=  31.9720718  31.9720718  12.0000000   1.0078250   1.0078250
 NucSpn=           0           0           0           1           1
 AtZEff=   0.0000000   0.0000000   0.0000000   0.0000000   0.0000000
 NQMom=    0.0000000   0.0000000   0.0000000   0.0000000   0.0000000
 NMagM=    0.0000000   0.0000000   0.0000000   2.7928460   2.7928460
 AtZNuc=  16.0000000  16.0000000   6.0000000   1.0000000   1.0000000
 Leave Link  101 at Wed Aug  3 23:07:37 2016, MaxMem=    33554432 cpu:         0.2
 (Enter /home/proyectos/fulerenos/M3C-v2.0/M3C-deps_CCC/g09-AM64L-G09RevC.01/l103.exe)

 GradGradGradGradGradGradGradGradGradGradGradGradGradGradGradGradGradGrad
 Berny optimization.
 Initialization pass.
 Trust Radius=3.00D-01 FncErr=1.00D-07 GrdErr=1.00D-07
 Number of steps in this run=      2 maximum allowed number of steps=      2.
 GradGradGradGradGradGradGradGradGradGradGradGradGradGradGradGradGradGrad

 Leave Link  103 at Wed Aug  3 23:07:37 2016, MaxMem=    33554432 cpu:         0.1
 (Enter /home/proyectos/fulerenos/M3C-v2.0/M3C-deps_CCC/g09-AM64L-G09RevC.01/l202.exe)
                          Input orientation:                          
 ---------------------------------------------------------------------
 Center     Atomic      Atomic             Coordinates (Angstroms)
 Number     Number       Type             X           Y           Z
 ---------------------------------------------------------------------
      1         16           0       -1.250673   -0.674883    0.724363
      2         16           0        1.516572   -0.448708   -0.508506
      3          6           0        0.004027   -1.119388   -0.343927
      4          1           0       -0.244147   -1.967264   -1.003827
      5          1           0       -0.644176    0.366891    1.377870
 ---------------------------------------------------------------------
                    Distance matrix (angstroms):
                    1          2          3          4          5
     1  S    0.000000
     2  S    3.037888   0.000000
     3  C    1.706781   1.662736   0.000000
     4  H    2.381173   2.377286   1.102702   0.000000
     5  H    1.371205   2.982020   2.365117   3.358688   0.000000
 Stoichiometry    CH2S2(2+,3)
 Framework group  CS[SG(CH2S2)]
 Deg. of freedom     7
 Full point group                 CS      NOp   2
 Largest Abelian subgroup         CS      NOp   2
 Largest concise Abelian subgroup C1      NOp   1
                         Standard orientation:                         
 ---------------------------------------------------------------------
 Center     Atomic      Atomic             Coordinates (Angstroms)
 Number     Number       Type             X           Y           Z
 ---------------------------------------------------------------------
      1         16           0       -1.478943   -0.243217    0.000000
      2         16           0        1.548869    0.004009   -0.000000
      3          6           0        0.000000    0.608738   -0.000000
      4          1           0       -0.111034    1.705835   -0.000000
      5          1           0       -1.007772   -1.530929    0.000000
 ---------------------------------------------------------------------
 Rotational constants (GHZ):     48.6442470      3.3941671      3.1727850
 Leave Link  202 at Wed Aug  3 23:07:37 2016, MaxMem=    33554432 cpu:         0.0
 (Enter /home/proyectos/fulerenos/M3C-v2.0/M3C-deps_CCC/g09-AM64L-G09RevC.01/l301.exe)
 Standard basis: 6-311++G(3df,2p) (5D, 7F)
 Ernie: Thresh=  0.10000D-02 Tol=  0.10000D-05 Strict=F.
 There are   121 symmetry adapted cartesian basis functions of A'  symmetry.
 There are    50 symmetry adapted cartesian basis functions of A"  symmetry.
 There are   106 symmetry adapted basis functions of A'  symmetry.
 There are    47 symmetry adapted basis functions of A"  symmetry.
   153 basis functions,   226 primitive gaussians,   171 cartesian basis functions
    20 alpha electrons       18 beta electrons
       nuclear repulsion energy       125.4208500851 Hartrees.
 IExCor=  402 DFT=T Ex+Corr=B3LYP ExCW=0 ScaHFX=  0.200000
 ScaDFX=  0.800000  0.720000  1.000000  0.810000 ScalE2=  1.000000  1.000000
 IRadAn=      0 IRanWt=     -1 IRanGd=            0 ICorTp=0 IEmpDi=  4
 NAtoms=    5 NActive=    5 NUniq=    5 SFac= 1.00D+00 NAtFMM=   60 NAOKFM=F Big=F
 Integral buffers will be    131072 words long.
 Raffenetti 2 integral format.
 Two-electron integral symmetry is turned on.
 Leave Link  301 at Wed Aug  3 23:07:37 2016, MaxMem=    33554432 cpu:         0.2
 (Enter /home/proyectos/fulerenos/M3C-v2.0/M3C-deps_CCC/g09-AM64L-G09RevC.01/l302.exe)
 NPDir=0 NMtPBC=     1 NCelOv=     1 NCel=       1 NClECP=     1 NCelD=      1
         NCelK=      1 NCelE2=     1 NClLst=     1 CellRange=     0.0.
 One-electron integrals computed using PRISM.
 NBasis=   153 RedAO= T EigKep=  2.38D-04  NBF=   106    47
 NBsUse=   153 1.00D-06 EigRej= -1.00D+00 NBFU=   106    47
 Precomputing XC quadrature grid using
 IXCGrd= 4 IRadAn=           0 IRanWt=          -1 IRanGd=           0 AccXCQ= 0.00D+00.
 Generated NRdTot=       0 NPtTot=           0 NUsed=           0 NTot=          32
 NSgBfM=   171   171   171   171   171 MxSgAt=     5 MxSgA2=     5.
 Leave Link  302 at Wed Aug  3 23:07:37 2016, MaxMem=    33554432 cpu:         0.9
 (Enter /home/proyectos/fulerenos/M3C-v2.0/M3C-deps_CCC/g09-AM64L-G09RevC.01/l303.exe)
 DipDrv:  MaxL=1.
 Leave Link  303 at Wed Aug  3 23:07:37 2016, MaxMem=    33554432 cpu:         0.1
 (Enter /home/proyectos/fulerenos/M3C-v2.0/M3C-deps_CCC/g09-AM64L-G09RevC.01/l401.exe)
 ExpMin= 3.60D-02 ExpMax= 9.34D+04 ExpMxC= 3.17D+03 IAcc=3 IRadAn=         5 AccDes= 0.00D+00
 Harris functional with IExCor=  402 and IRadAn=       5 diagonalized for initial guess.
 HarFok:  IExCor=  402 AccDes= 0.00D+00 IRadAn=         5 IDoV= 1 UseB2=F ITyADJ=14
 ICtDFT=  3500011 ScaDFX=  1.000000  1.000000  1.000000  1.000000
 FoFCou: FMM=F IPFlag=           0 FMFlag=      100000 FMFlg1=           0
         NFxFlg=           0 DoJE=T BraDBF=F KetDBF=T FulRan=T
         wScrn=  0.000000 ICntrl=     500 IOpCl=  0 I1Cent=   200000004 NGrid=           0
         NMat0=    1 NMatS0=      1 NMatT0=    0 NMatD0=    1 NMtDS0=    0 NMtDT0=    0
 Petite list used in FoFCou.
 Harris En= -835.147058550534    
 JPrj=0 DoOrth=F DoCkMO=F.
 Initial guess orbital symmetries:
 Alpha Orbitals:
       Occupied  (A') (A') (A') (A') (A') (A') (A') (A") (A') (A')
                 (A") (A') (A') (A') (A') (A') (A") (A') (A") (A')
       Virtual   (A") (A') (A') (A') (A') (A') (A") (A') (A') (A")
                 (A') (A') (A") (A') (A') (A') (A') (A') (A") (A')
                 (A") (A') (A') (A") (A') (A") (A') (A') (A') (A")
                 (A') (A") (A') (A") (A') (A') (A') (A') (A') (A')
                 (A") (A") (A') (A') (A') (A") (A') (A') (A') (A")
                 (A") (A') (A") (A') (A") (A") (A') (A') (A') (A')
                 (A') (A') (A') (A') (A") (A") (A') (A") (A') (A")
                 (A') (A") (A') (A') (A") (A") (A') (A") (A') (A')
                 (A') (A') (A") (A') (A") (A') (A') (A') (A') (A')
                 (A") (A') (A") (A') (A') (A") (A') (A") (A') (A')
                 (A') (A") (A') (A') (A") (A') (A") (A") (A') (A')
                 (A") (A") (A') (A') (A') (A') (A') (A") (A") (A')
                 (A') (A') (A') (A') (A") (A") (A') (A') (A') (A')
                 (A') (A') (A')
 Beta  Orbitals:
       Occupied  (A') (A') (A') (A') (A') (A') (A') (A") (A') (A')
                 (A") (A') (A') (A') (A') (A') (A") (A')
       Virtual   (A") (A') (A") (A') (A') (A') (A') (A') (A") (A')
                 (A') (A") (A') (A') (A") (A') (A') (A') (A') (A')
                 (A") (A') (A") (A') (A') (A") (A') (A") (A') (A')
                 (A') (A") (A') (A") (A') (A") (A') (A') (A') (A')
                 (A') (A') (A") (A") (A') (A') (A') (A") (A') (A')
                 (A') (A") (A") (A') (A") (A') (A") (A") (A') (A')
                 (A') (A') (A') (A') (A') (A') (A") (A") (A') (A")
                 (A') (A") (A') (A") (A') (A') (A") (A") (A') (A")
                 (A') (A') (A') (A') (A") (A') (A") (A') (A') (A')
                 (A') (A') (A") (A') (A") (A') (A') (A") (A') (A")
                 (A') (A') (A') (A") (A') (A') (A") (A') (A") (A")
                 (A') (A') (A") (A") (A') (A') (A') (A') (A') (A")
                 (A") (A') (A') (A') (A') (A') (A") (A") (A') (A')
                 (A') (A') (A') (A') (A')
 The electronic state of the initial guess is 3-A".
 Initial guess <Sx>= 0.0000 <Sy>= 0.0000 <Sz>= 1.0000 <S**2>= 2.0000 S= 1.0000
 Leave Link  401 at Wed Aug  3 23:07:38 2016, MaxMem=    33554432 cpu:         2.4
 (Enter /home/proyectos/fulerenos/M3C-v2.0/M3C-deps_CCC/g09-AM64L-G09RevC.01/l502.exe)
 UHF open shell SCF:
 Using DIIS extrapolation, IDIIS=  1040.
 Integral symmetry usage will be decided dynamically.
 IVT=      108598 IEndB=      108598 NGot=    33554432 MDV=    33491887
 LenX=    33491887 LenY=    33462205
 Requested convergence on RMS density matrix=1.00D-08 within 128 cycles.
 Requested convergence on MAX density matrix=1.00D-06.
 Requested convergence on             energy=1.00D-06.
 No special actions if energy rises.
 Fock matrices will be formed incrementally for  20 cycles.

 Cycle   1  Pass 1  IDiag  1:
 FoFJK:  IHMeth= 1 ICntrl=       0 DoSepK=F KAlg= 0 I1Cent=   0 FoldK=F
 IRaf= 970000000 NMat=   1 IRICut=       1 DoRegI=T DoRafI=F ISym2E= 1.
 FoFCou: FMM=F IPFlag=           0 FMFlag=      100000 FMFlg1=           0
         NFxFlg=           0 DoJE=F BraDBF=F KetDBF=F FulRan=T
         wScrn=  0.000000 ICntrl=       0 IOpCl=  1 I1Cent=           0 NGrid=           0
         NMat0=    1 NMatS0=      1 NMatT0=    0 NMatD0=    1 NMtDS0=    0 NMtDT0=    0
 Petite list used in FoFCou.
 E= -834.713163467277    
 DIIS: error= 2.37D-02 at cycle   1 NSaved=   1.
 NSaved= 1 IEnMin= 1 EnMin= -834.713163467277     IErMin= 1 ErrMin= 2.37D-02
 ErrMax= 2.37D-02  0.00D+00 EMaxC= 1.00D-01 BMatC= 5.13D-01 BMatP= 5.13D-01
 IDIUse=3 WtCom= 7.63D-01 WtEn= 2.37D-01
 Coeff-Com:  0.100D+01
 Coeff-En:   0.100D+01
 Coeff:      0.100D+01
 Gap=     0.243 Goal=   None    Shift=    0.000
 Gap=     0.087 Goal=   None    Shift=    0.000
 GapD=    0.087 DampG=0.500 DampE=0.500 DampFc=0.2500 IDamp=-1.
 Damping current iteration by 2.50D-01
 RMSDP=4.10D-03 MaxDP=2.14D-01              OVMax= 3.43D-01

 Cycle   2  Pass 1  IDiag  1:
 RMSU=  1.02D-03    CP:  1.01D+00
 E= -834.749793337421     Delta-E=       -0.036629870144 Rises=F Damp=T
 DIIS: error= 1.22D-02 at cycle   2 NSaved=   2.
 NSaved= 2 IEnMin= 2 EnMin= -834.749793337421     IErMin= 2 ErrMin= 1.22D-02
 ErrMax= 1.22D-02  0.00D+00 EMaxC= 1.00D-01 BMatC= 1.52D-01 BMatP= 5.13D-01
 IDIUse=3 WtCom= 8.78D-01 WtEn= 1.22D-01
 Coeff-Com: -0.815D+00 0.181D+01
 Coeff-En:   0.000D+00 0.100D+01
 Coeff:     -0.715D+00 0.172D+01
 Gap=     0.202 Goal=   None    Shift=    0.000
 Gap=     0.132 Goal=   None    Shift=    0.000
 RMSDP=1.81D-03 MaxDP=8.35D-02 DE=-3.66D-02 OVMax= 2.96D-01

 Cycle   3  Pass 1  IDiag  1:
 RMSU=  1.39D-03    CP:  1.02D+00  2.10D+00
 E= -834.806361835376     Delta-E=       -0.056568497955 Rises=F Damp=F
 DIIS: error= 1.51D-02 at cycle   3 NSaved=   3.
 NSaved= 3 IEnMin= 3 EnMin= -834.806361835376     IErMin= 2 ErrMin= 1.22D-02
 ErrMax= 1.51D-02  0.00D+00 EMaxC= 1.00D-01 BMatC= 7.07D-02 BMatP= 1.52D-01
 IDIUse=3 WtCom= 8.49D-01 WtEn= 1.51D-01
 Coeff-Com: -0.566D+00 0.105D+01 0.512D+00
 Coeff-En:   0.000D+00 0.000D+00 0.100D+01
 Coeff:     -0.480D+00 0.895D+00 0.586D+00
 Gap=     0.213 Goal=   None    Shift=    0.000
 Gap=     0.142 Goal=   None    Shift=    0.000
 RMSDP=9.75D-04 MaxDP=4.45D-02 DE=-5.66D-02 OVMax= 1.05D-01

 Cycle   4  Pass 1  IDiag  1:
 RMSU=  6.47D-04    CP:  1.02D+00  2.29D+00  5.00D-01
 E= -834.822467887985     Delta-E=       -0.016106052608 Rises=F Damp=F
 DIIS: error= 6.24D-03 at cycle   4 NSaved=   4.
 NSaved= 4 IEnMin= 4 EnMin= -834.822467887985     IErMin= 4 ErrMin= 6.24D-03
 ErrMax= 6.24D-03  0.00D+00 EMaxC= 1.00D-01 BMatC= 1.40D-02 BMatP= 7.07D-02
 IDIUse=3 WtCom= 9.38D-01 WtEn= 6.24D-02
 Coeff-Com: -0.242D-01 0.425D-01 0.307D+00 0.675D+00
 Coeff-En:   0.000D+00 0.000D+00 0.190D+00 0.810D+00
 Coeff:     -0.227D-01 0.398D-01 0.300D+00 0.683D+00
 Gap=     0.216 Goal=   None    Shift=    0.000
 Gap=     0.149 Goal=   None    Shift=    0.000
 RMSDP=3.92D-04 MaxDP=2.27D-02 DE=-1.61D-02 OVMax= 6.85D-02

 Cycle   5  Pass 1  IDiag  1:
 RMSU=  2.34D-04    CP:  1.02D+00  2.19D+00  6.85D-01  7.68D-01
 E= -834.826297076901     Delta-E=       -0.003829188916 Rises=F Damp=F
 DIIS: error= 2.80D-03 at cycle   5 NSaved=   5.
 NSaved= 5 IEnMin= 5 EnMin= -834.826297076901     IErMin= 5 ErrMin= 2.80D-03
 ErrMax= 2.80D-03  0.00D+00 EMaxC= 1.00D-01 BMatC= 1.64D-03 BMatP= 1.40D-02
 IDIUse=3 WtCom= 9.72D-01 WtEn= 2.80D-02
 Coeff-Com:  0.263D-01-0.483D-01 0.147D+00 0.418D+00 0.457D+00
 Coeff-En:   0.000D+00 0.000D+00 0.000D+00 0.000D+00 0.100D+01
 Coeff:      0.255D-01-0.470D-01 0.143D+00 0.406D+00 0.472D+00
 Gap=     0.216 Goal=   None    Shift=    0.000
 Gap=     0.153 Goal=   None    Shift=    0.000
 RMSDP=1.53D-04 MaxDP=7.03D-03 DE=-3.83D-03 OVMax= 2.32D-02

 Cycle   6  Pass 1  IDiag  1:
 RMSU=  9.73D-05    CP:  1.02D+00  2.21D+00  6.71D-01  8.83D-01  6.29D-01
 E= -834.826863932276     Delta-E=       -0.000566855375 Rises=F Damp=F
 DIIS: error= 6.78D-04 at cycle   6 NSaved=   6.
 NSaved= 6 IEnMin= 6 EnMin= -834.826863932276     IErMin= 6 ErrMin= 6.78D-04
 ErrMax= 6.78D-04  0.00D+00 EMaxC= 1.00D-01 BMatC= 1.48D-04 BMatP= 1.64D-03
 IDIUse=3 WtCom= 9.93D-01 WtEn= 6.78D-03
 Coeff-Com: -0.497D-02 0.366D-02-0.550D-01-0.132D+00 0.134D+00 0.105D+01
 Coeff-En:   0.000D+00 0.000D+00 0.000D+00 0.000D+00 0.000D+00 0.100D+01
 Coeff:     -0.493D-02 0.363D-02-0.546D-01-0.131D+00 0.133D+00 0.105D+01
 Gap=     0.220 Goal=   None    Shift=    0.000
 Gap=     0.155 Goal=   None    Shift=    0.000
 RMSDP=8.26D-05 MaxDP=4.79D-03 DE=-5.67D-04 OVMax= 1.43D-02

 Cycle   7  Pass 1  IDiag  1:
 RMSU=  3.66D-05    CP:  1.02D+00  2.22D+00  6.88D-01  8.99D-01  8.89D-01
                    CP:  1.33D+00
 E= -834.826997112569     Delta-E=       -0.000133180293 Rises=F Damp=F
 DIIS: error= 2.55D-04 at cycle   7 NSaved=   7.
 NSaved= 7 IEnMin= 7 EnMin= -834.826997112569     IErMin= 7 ErrMin= 2.55D-04
 ErrMax= 2.55D-04  0.00D+00 EMaxC= 1.00D-01 BMatC= 2.25D-05 BMatP= 1.48D-04
 IDIUse=3 WtCom= 9.97D-01 WtEn= 2.55D-03
 Coeff-Com: -0.541D-02 0.844D-02-0.392D-01-0.882D-01-0.515D-01 0.235D+00
 Coeff-Com:  0.941D+00
 Coeff-En:   0.000D+00 0.000D+00 0.000D+00 0.000D+00 0.000D+00 0.000D+00
 Coeff-En:   0.100D+01
 Coeff:     -0.540D-02 0.842D-02-0.391D-01-0.880D-01-0.514D-01 0.234D+00
 Coeff:      0.941D+00
 Gap=     0.221 Goal=   None    Shift=    0.000
 Gap=     0.156 Goal=   None    Shift=    0.000
 RMSDP=3.58D-05 MaxDP=2.32D-03 DE=-1.33D-04 OVMax= 5.24D-03

 Cycle   8  Pass 1  IDiag  1:
 RMSU=  1.31D-05    CP:  1.02D+00  2.22D+00  6.89D-01  9.21D-01  9.47D-01
                    CP:  1.60D+00  1.12D+00
 E= -834.827018301501     Delta-E=       -0.000021188932 Rises=F Damp=F
 DIIS: error= 1.19D-04 at cycle   8 NSaved=   8.
 NSaved= 8 IEnMin= 8 EnMin= -834.827018301501     IErMin= 8 ErrMin= 1.19D-04
 ErrMax= 1.19D-04  0.00D+00 EMaxC= 1.00D-01 BMatC= 3.08D-06 BMatP= 2.25D-05
 IDIUse=3 WtCom= 9.99D-01 WtEn= 1.19D-03
 Coeff-Com:  0.114D-03 0.528D-03-0.296D-03 0.806D-02-0.350D-01-0.155D+00
 Coeff-Com:  0.207D+00 0.975D+00
 Coeff-En:   0.000D+00 0.000D+00 0.000D+00 0.000D+00 0.000D+00 0.000D+00
 Coeff-En:   0.000D+00 0.100D+01
 Coeff:      0.114D-03 0.527D-03-0.295D-03 0.805D-02-0.349D-01-0.155D+00
 Coeff:      0.207D+00 0.975D+00
 Gap=     0.222 Goal=   None    Shift=    0.000
 Gap=     0.157 Goal=   None    Shift=    0.000
 RMSDP=1.44D-05 MaxDP=8.24D-04 DE=-2.12D-05 OVMax= 2.22D-03

 Cycle   9  Pass 1  IDiag  1:
 RMSU=  4.29D-06    CP:  1.02D+00  2.22D+00  6.89D-01  9.29D-01  9.74D-01
                    CP:  1.68D+00  1.32D+00  1.15D+00
 E= -834.827020805432     Delta-E=       -0.000002503930 Rises=F Damp=F
 DIIS: error= 1.69D-05 at cycle   9 NSaved=   9.
 NSaved= 9 IEnMin= 9 EnMin= -834.827020805432     IErMin= 9 ErrMin= 1.69D-05
 ErrMax= 1.69D-05  0.00D+00 EMaxC= 1.00D-01 BMatC= 1.33D-07 BMatP= 3.08D-06
 IDIUse=1 WtCom= 1.00D+00 WtEn= 0.00D+00
 Coeff-Com: -0.895D-04 0.225D-03 0.252D-02 0.598D-02-0.927D-03-0.363D-01
 Coeff-Com: -0.244D-01 0.140D+00 0.913D+00
 Coeff:     -0.895D-04 0.225D-03 0.252D-02 0.598D-02-0.927D-03-0.363D-01
 Coeff:     -0.244D-01 0.140D+00 0.913D+00
 Gap=     0.222 Goal=   None    Shift=    0.000
 Gap=     0.157 Goal=   None    Shift=    0.000
 RMSDP=2.20D-06 MaxDP=1.03D-04 DE=-2.50D-06 OVMax= 3.26D-04

 Cycle  10  Pass 1  IDiag  1:
 RMSU=  1.19D-06    CP:  1.02D+00  2.22D+00  6.89D-01  9.29D-01  9.78D-01
                    CP:  1.69D+00  1.34D+00  1.24D+00  1.08D+00
 E= -834.827020877562     Delta-E=       -0.000000072130 Rises=F Damp=F
 DIIS: error= 4.96D-06 at cycle  10 NSaved=  10.
 NSaved=10 IEnMin=10 EnMin= -834.827020877562     IErMin=10 ErrMin= 4.96D-06
 ErrMax= 4.96D-06  0.00D+00 EMaxC= 1.00D-01 BMatC= 2.30D-08 BMatP= 1.33D-07
 IDIUse=1 WtCom= 1.00D+00 WtEn= 0.00D+00
 Coeff-Com: -0.702D-04 0.609D-04 0.111D-02 0.159D-02 0.280D-02 0.441D-02
 Coeff-Com: -0.312D-01-0.572D-01 0.258D+00 0.821D+00
 Coeff:     -0.702D-04 0.609D-04 0.111D-02 0.159D-02 0.280D-02 0.441D-02
 Coeff:     -0.312D-01-0.572D-01 0.258D+00 0.821D+00
 Gap=     0.222 Goal=   None    Shift=    0.000
 Gap=     0.157 Goal=   None    Shift=    0.000
 RMSDP=7.77D-07 MaxDP=2.35D-05 DE=-7.21D-08 OVMax= 5.50D-05

 Cycle  11  Pass 1  IDiag  1:
 RMSU=  4.90D-07    CP:  1.02D+00  2.22D+00  6.89D-01  9.29D-01  9.77D-01
                    CP:  1.69D+00  1.35D+00  1.26D+00  1.19D+00  9.72D-01
 E= -834.827020887161     Delta-E=       -0.000000009599 Rises=F Damp=F
 DIIS: error= 1.69D-06 at cycle  11 NSaved=  11.
 NSaved=11 IEnMin=11 EnMin= -834.827020887161     IErMin=11 ErrMin= 1.69D-06
 ErrMax= 1.69D-06  0.00D+00 EMaxC= 1.00D-01 BMatC= 2.33D-09 BMatP= 2.30D-08
 IDIUse=1 WtCom= 1.00D+00 WtEn= 0.00D+00
 Coeff-Com:  0.792D-05-0.216D-04-0.561D-04-0.317D-03 0.318D-03 0.474D-02
 Coeff-Com: -0.430D-02-0.243D-01-0.323D-01 0.196D+00 0.860D+00
 Coeff:      0.792D-05-0.216D-04-0.561D-04-0.317D-03 0.318D-03 0.474D-02
 Coeff:     -0.430D-02-0.243D-01-0.323D-01 0.196D+00 0.860D+00
 Gap=     0.222 Goal=   None    Shift=    0.000
 Gap=     0.157 Goal=   None    Shift=    0.000
 RMSDP=2.41D-07 MaxDP=8.03D-06 DE=-9.60D-09 OVMax= 1.72D-05

 Cycle  12  Pass 1  IDiag  1:
 RMSU=  1.26D-07    CP:  1.02D+00  2.22D+00  6.89D-01  9.29D-01  9.77D-01
                    CP:  1.69D+00  1.35D+00  1.27D+00  1.21D+00  1.10D+00
                    CP:  1.02D+00
 E= -834.827020888134     Delta-E=       -0.000000000973 Rises=F Damp=F
 DIIS: error= 4.98D-07 at cycle  12 NSaved=  12.
 NSaved=12 IEnMin=12 EnMin= -834.827020888134     IErMin=12 ErrMin= 4.98D-07
 ErrMax= 4.98D-07  0.00D+00 EMaxC= 1.00D-01 BMatC= 1.47D-10 BMatP= 2.33D-09
 IDIUse=1 WtCom= 1.00D+00 WtEn= 0.00D+00
 Coeff-Com:  0.208D-04-0.272D-04-0.117D-03-0.202D-03-0.167D-03 0.535D-03
 Coeff-Com:  0.222D-02 0.202D-03-0.256D-01-0.580D-01 0.106D+00 0.975D+00
 Coeff:      0.208D-04-0.272D-04-0.117D-03-0.202D-03-0.167D-03 0.535D-03
 Coeff:      0.222D-02 0.202D-03-0.256D-01-0.580D-01 0.106D+00 0.975D+00
 Gap=     0.222 Goal=   None    Shift=    0.000
 Gap=     0.157 Goal=   None    Shift=    0.000
 RMSDP=8.54D-08 MaxDP=3.05D-06 DE=-9.73D-10 OVMax= 9.68D-06

 Cycle  13  Pass 1  IDiag  1:
 RMSU=  3.34D-08    CP:  1.02D+00  2.22D+00  6.89D-01  9.29D-01  9.77D-01
                    CP:  1.69D+00  1.35D+00  1.27D+00  1.21D+00  1.12D+00
                    CP:  1.13D+00  1.18D+00
 E= -834.827020888228     Delta-E=       -0.000000000094 Rises=F Damp=F
 DIIS: error= 1.84D-07 at cycle  13 NSaved=  13.
 NSaved=13 IEnMin=13 EnMin= -834.827020888228     IErMin=13 ErrMin= 1.84D-07
 ErrMax= 1.84D-07  0.00D+00 EMaxC= 1.00D-01 BMatC= 1.40D-11 BMatP= 1.47D-10
 IDIUse=1 WtCom= 1.00D+00 WtEn= 0.00D+00
 Coeff-Com: -0.342D-05 0.600D-05-0.143D-04-0.135D-04-0.601D-04-0.236D-03
 Coeff-Com:  0.652D-03 0.142D-02 0.344D-03-0.223D-01-0.543D-01 0.117D+00
 Coeff-Com:  0.957D+00
 Coeff:     -0.342D-05 0.600D-05-0.143D-04-0.135D-04-0.601D-04-0.236D-03
 Coeff:      0.652D-03 0.142D-02 0.344D-03-0.223D-01-0.543D-01 0.117D+00
 Coeff:      0.957D+00
 Gap=     0.222 Goal=   None    Shift=    0.000
 Gap=     0.157 Goal=   None    Shift=    0.000
 RMSDP=2.62D-08 MaxDP=1.02D-06 DE=-9.37D-11 OVMax= 3.59D-06

 Cycle  14  Pass 1  IDiag  1:
 RMSU=  1.18D-08    CP:  1.02D+00  2.22D+00  6.89D-01  9.29D-01  9.77D-01
                    CP:  1.69D+00  1.35D+00  1.27D+00  1.21D+00  1.13D+00
                    CP:  1.15D+00  1.32D+00  1.19D+00
 E= -834.827020888241     Delta-E=       -0.000000000013 Rises=F Damp=F
 DIIS: error= 8.96D-08 at cycle  14 NSaved=  14.
 NSaved=14 IEnMin=14 EnMin= -834.827020888241     IErMin=14 ErrMin= 8.96D-08
 ErrMax= 8.96D-08  0.00D+00 EMaxC= 1.00D-01 BMatC= 2.28D-12 BMatP= 1.40D-11
 IDIUse=1 WtCom= 1.00D+00 WtEn= 0.00D+00
 Coeff-Com: -0.359D-05 0.497D-05 0.105D-04 0.220D-04-0.254D-05-0.551D-04
 Coeff-Com: -0.156D-03 0.625D-04 0.281D-02 0.331D-02-0.196D-01-0.720D-01
 Coeff-Com:  0.117D+00 0.969D+00
 Coeff:     -0.359D-05 0.497D-05 0.105D-04 0.220D-04-0.254D-05-0.551D-04
 Coeff:     -0.156D-03 0.625D-04 0.281D-02 0.331D-02-0.196D-01-0.720D-01
 Coeff:      0.117D+00 0.969D+00
 Gap=     0.222 Goal=   None    Shift=    0.000
 Gap=     0.157 Goal=   None    Shift=    0.000
 RMSDP=9.92D-09 MaxDP=5.82D-07 DE=-1.28D-11 OVMax= 1.45D-06

 SCF Done:  E(UB3LYP) =  -834.827020888     A.U. after   14 cycles
            NFock= 14  Conv=0.99D-08     -V/T= 2.0015
 <Sx>= 0.0000 <Sy>= 0.0000 <Sz>= 1.0000 <S**2>= 2.0632 S= 1.0209
 <L.S>= 0.000000000000E+00
 KE= 8.335710894225D+02 PE=-2.213955018493D+03 EE= 4.201360580970D+02
 Annihilation of the first spin contaminant:
 S**2 before annihilation     2.0632,   after     2.0006
 Leave Link  502 at Wed Aug  3 23:08:10 2016, MaxMem=    33554432 cpu:       126.4
 (Enter /home/proyectos/fulerenos/M3C-v2.0/M3C-deps_CCC/g09-AM64L-G09RevC.01/l801.exe)
 DoSCS=F DFT=T ScalE2(SS,OS)=  1.000000  1.000000
 Range of M.O.s used for correlation:     1   153
 NBasis=   153 NAE=    20 NBE=    18 NFC=     0 NFV=     0
 NROrb=    153 NOA=    20 NOB=    18 NVA=   133 NVB=   135

 **** Warning!!: The largest alpha MO coefficient is  0.25336800D+02


 **** Warning!!: The largest beta MO coefficient is  0.24625676D+02

 Leave Link  801 at Wed Aug  3 23:08:10 2016, MaxMem=    33554432 cpu:         0.1
 (Enter /home/proyectos/fulerenos/M3C-v2.0/M3C-deps_CCC/g09-AM64L-G09RevC.01/l1101.exe)
 Using compressed storage, NAtomX=     5.
 Will process      6 centers per pass.
 Leave Link 1101 at Wed Aug  3 23:08:10 2016, MaxMem=    33554432 cpu:         1.0
 (Enter /home/proyectos/fulerenos/M3C-v2.0/M3C-deps_CCC/g09-AM64L-G09RevC.01/l1102.exe)
 Symmetrizing basis deriv contribution to polar:
 IMax=3 JMax=2 DiffMx= 0.00D+00
 Leave Link 1102 at Wed Aug  3 23:08:10 2016, MaxMem=    33554432 cpu:         0.1
 (Enter /home/proyectos/fulerenos/M3C-v2.0/M3C-deps_CCC/g09-AM64L-G09RevC.01/l1110.exe)
 Forming Gx(P) for the SCF density, NAtomX=     5.
 Integral derivatives from FoFJK, PRISM(SPDF).
 Do as many integral derivatives as possible in FoFJK.
 G2DrvN: MDV=      33554288.
 G2DrvN: will do     6 centers at a time, making    1 passes.
 Calling FoFCou, ICntrl=  3107 FMM=F I1Cent=   0 AccDes= 0.00D+00.
 FoFJK:  IHMeth= 1 ICntrl=    3107 DoSepK=F KAlg= 0 I1Cent=   0 FoldK=F
 IRaf=         0 NMat=   1 IRICut=       1 DoRegI=T DoRafI=F ISym2E= 1.
 FoFCou: FMM=F IPFlag=           0 FMFlag=      100000 FMFlg1=           0
         NFxFlg=           0 DoJE=F BraDBF=F KetDBF=F FulRan=T
         wScrn=  0.000000 ICntrl=    3107 IOpCl=  1 I1Cent=           0 NGrid=           0
         NMat0=    1 NMatS0=      1 NMatT0=    0 NMatD0=    1 NMtDS0=    0 NMtDT0=    0
 Petite list used in FoFCou.
 End of G2Drv F.D. properties file   721 does not exist.
 End of G2Drv F.D. properties file   722 does not exist.
 End of G2Drv F.D. properties file   788 does not exist.
 Leave Link 1110 at Wed Aug  3 23:08:27 2016, MaxMem=    33554432 cpu:        67.9
 (Enter /home/proyectos/fulerenos/M3C-v2.0/M3C-deps_CCC/g09-AM64L-G09RevC.01/l1002.exe)
 Minotr:  UHF open shell wavefunction.
          IDoAtm=11111
          Direct CPHF calculation.
          Differentiating once with respect to electric field.
                with respect to dipole field.
          Differentiating once with respect to nuclear coordinates.
          Using symmetry in CPHF.
          Requested convergence is 1.0D-08 RMS, and 1.0D-07 maximum.
          Secondary convergence is 1.0D-12 RMS, and 1.0D-12 maximum.
          NewPWx=T KeepS1=F KeepF1=F KeepIn=T MapXYZ=F SortEE=F KeepMc=T.
          MDV=      33554072 using IRadAn=       2.
 Generate precomputed XC quadrature information.
          Solving linear equations simultaneously, MaxMat=       0.
 FoFJK:  IHMeth= 1 ICntrl=       0 DoSepK=F KAlg= 0 I1Cent=   0 FoldK=F
 IRaf= 970000000 NMat=  18 IRICut=      45 DoRegI=T DoRafI=T ISym2E= 2.
 FoFCou: FMM=F IPFlag=           0 FMFlag=      100000 FMFlg1=           0
         NFxFlg=           0 DoJE=F BraDBF=F KetDBF=F FulRan=T
         wScrn=  0.000000 ICntrl=       0 IOpCl=  1 I1Cent=           0 NGrid=           0
         NMat0=   18 NMatS0=     18 NMatT0=    0 NMatD0=   18 NMtDS0=    0 NMtDT0=    0
 Integrals replicated using symmetry in FoFCou.
          There are    18 degrees of freedom in the 1st order CPHF.  IDoFFX=6 NUNeed=     3.
     17 vectors produced by pass  0 Test12= 2.83D-14 5.56D-09 XBig12= 2.63D+02 1.18D+01.
 AX will form    17 AO Fock derivatives at one time.
     15 vectors produced by pass  1 Test12= 2.83D-14 5.56D-09 XBig12= 4.43D+01 1.48D+00.
     15 vectors produced by pass  2 Test12= 2.83D-14 5.56D-09 XBig12= 2.80D+00 4.13D-01.
     15 vectors produced by pass  3 Test12= 2.83D-14 5.56D-09 XBig12= 7.63D-02 8.25D-02.
     15 vectors produced by pass  4 Test12= 2.83D-14 5.56D-09 XBig12= 1.17D-03 5.89D-03.
     15 vectors produced by pass  5 Test12= 2.83D-14 5.56D-09 XBig12= 1.41D-05 1.10D-03.
     15 vectors produced by pass  6 Test12= 2.83D-14 5.56D-09 XBig12= 2.07D-07 8.54D-05.
     11 vectors produced by pass  7 Test12= 2.83D-14 5.56D-09 XBig12= 1.75D-09 6.35D-06.
      3 vectors produced by pass  8 Test12= 2.83D-14 5.56D-09 XBig12= 9.66D-12 4.65D-07.
      2 vectors produced by pass  9 Test12= 2.83D-14 5.56D-09 XBig12= 4.01D-14 2.46D-08.
 InvSVY:  IOpt=1 It=  1 EMax= 7.11D-15
 Solved reduced A of dimension   123 with    18 vectors.
 FullF1:  Do perturbations    1 to     3.
 Isotropic polarizability for W=    0.000000       40.96 Bohr**3.
 End of Minotr F.D. properties file   721 does not exist.
 End of Minotr F.D. properties file   722 does not exist.
 End of Minotr F.D. properties file   788 does not exist.
 Leave Link 1002 at Wed Aug  3 23:09:11 2016, MaxMem=    33554432 cpu:       177.4
 (Enter /home/proyectos/fulerenos/M3C-v2.0/M3C-deps_CCC/g09-AM64L-G09RevC.01/l601.exe)
 Copying SCF densities to generalized density rwf, IOpCl= 1 IROHF=0.

 **********************************************************************

            Population analysis using the SCF density.

 **********************************************************************

 Orbital symmetries:
 Alpha Orbitals:
       Occupied  (A') (A') (A') (A') (A') (A') (A") (A') (A") (A')
                 (A') (A') (A') (A') (A') (A') (A") (A') (A') (A")
       Virtual   (A") (A') (A') (A') (A') (A') (A") (A') (A') (A")
                 (A") (A') (A") (A') (A') (A') (A') (A") (A") (A')
                 (A') (A') (A') (A") (A') (A') (A') (A") (A') (A')
                 (A") (A') (A') (A') (A") (A') (A') (A') (A') (A')
                 (A") (A') (A") (A') (A') (A") (A') (A") (A') (A")
                 (A') (A') (A') (A") (A") (A') (A") (A') (A') (A')
                 (A') (A') (A') (A') (A") (A") (A') (A") (A") (A')
                 (A') (A") (A') (A') (A") (A") (A') (A") (A') (A')
                 (A') (A") (A') (A") (A') (A') (A') (A') (A') (A')
                 (A') (A") (A") (A') (A') (A") (A') (A") (A') (A')
                 (A') (A") (A') (A') (A") (A') (A") (A') (A") (A')
                 (A") (A") (A') (A') (A') (A') (A') (A") (A") (A')
                 (A') (A') (A') (A') (A") (A") (A') (A') (A') (A')
                 (A') (A') (A')
 Beta  Orbitals:
       Occupied  (A') (A') (A') (A') (A') (A') (A") (A') (A') (A')
                 (A") (A') (A') (A') (A') (A') (A') (A")
       Virtual   (A") (A') (A") (A') (A') (A') (A') (A') (A') (A")
                 (A") (A') (A') (A") (A') (A") (A') (A') (A") (A')
                 (A') (A") (A') (A') (A') (A") (A') (A') (A') (A")
                 (A') (A') (A") (A') (A') (A') (A") (A') (A') (A')
                 (A') (A') (A") (A") (A') (A') (A") (A') (A') (A')
                 (A") (A") (A') (A') (A") (A') (A") (A') (A") (A')
                 (A') (A') (A') (A') (A') (A') (A") (A") (A') (A")
                 (A") (A') (A') (A") (A') (A') (A") (A") (A') (A")
                 (A') (A') (A') (A') (A") (A") (A') (A') (A') (A')
                 (A') (A') (A') (A") (A") (A') (A') (A") (A") (A')
                 (A') (A') (A') (A") (A') (A') (A") (A') (A") (A')
                 (A") (A') (A") (A") (A') (A') (A') (A') (A') (A")
                 (A") (A') (A') (A') (A') (A') (A") (A") (A') (A')
                 (A') (A') (A') (A') (A')
 The electronic state is 3-A".
 Alpha  occ. eigenvalues --  -89.45924 -89.44059 -10.76584  -8.53571  -8.51926
 Alpha  occ. eigenvalues --   -6.50238  -6.49939  -6.49263  -6.48520  -6.48005
 Alpha  occ. eigenvalues --   -6.47528  -1.37028  -1.28333  -1.09603  -0.95567
 Alpha  occ. eigenvalues --   -0.95371  -0.87830  -0.86167  -0.80740  -0.80626
 Alpha virt. eigenvalues --   -0.58433  -0.47556  -0.41421  -0.38488  -0.35578
 Alpha virt. eigenvalues --   -0.32809  -0.30159  -0.29305  -0.26530  -0.26472
 Alpha virt. eigenvalues --   -0.25210  -0.24975  -0.22787  -0.22528  -0.21305
 Alpha virt. eigenvalues --   -0.20732  -0.19276  -0.18108  -0.15387  -0.14549
 Alpha virt. eigenvalues --   -0.13002  -0.11485  -0.11178  -0.11042  -0.07512
 Alpha virt. eigenvalues --   -0.07074  -0.04649  -0.04243  -0.02291  -0.01640
 Alpha virt. eigenvalues --   -0.00608   0.00689   0.01102   0.03959   0.04948
 Alpha virt. eigenvalues --    0.07869   0.10510   0.13689   0.17157   0.19712
 Alpha virt. eigenvalues --    0.23538   0.24999   0.25494   0.30751   0.38914
 Alpha virt. eigenvalues --    0.39141   0.41512   0.43360   0.43937   0.45978
 Alpha virt. eigenvalues --    0.47065   0.49754   0.50720   0.51274   0.51430
 Alpha virt. eigenvalues --    0.56720   0.57457   0.57709   0.58257   0.61257
 Alpha virt. eigenvalues --    0.62528   0.82416   0.86895   0.96944   0.99628
 Alpha virt. eigenvalues --    1.01078   1.06631   1.08194   1.10586   1.13000
 Alpha virt. eigenvalues --    1.14108   1.15186   1.18152   1.21625   1.22226
 Alpha virt. eigenvalues --    1.23566   1.28656   1.33442   1.42007   1.43563
 Alpha virt. eigenvalues --    1.53106   1.55102   1.55167   1.71485   1.72402
 Alpha virt. eigenvalues --    1.75226   1.89363   1.91859   1.95691   2.18365
 Alpha virt. eigenvalues --    2.28861   2.31229   2.49935   2.57464   2.61183
 Alpha virt. eigenvalues --    2.69447   2.82561   2.83324   2.99076   3.07463
 Alpha virt. eigenvalues --    3.21870   3.33456   3.46812   3.54760   3.72691
 Alpha virt. eigenvalues --    3.87814   4.03497   4.05858   4.07485   4.22645
 Alpha virt. eigenvalues --    4.22750   4.28651   4.33027   4.49835   4.72675
 Alpha virt. eigenvalues --    4.96936   5.08935   6.53619   6.67487   6.71208
 Alpha virt. eigenvalues --    6.81128   7.03314   7.80331   7.86880  16.73296
 Alpha virt. eigenvalues --   16.75851  16.80181  17.02851  17.26724  17.30020
 Alpha virt. eigenvalues --   23.35796 188.64170 188.73344
  Beta  occ. eigenvalues --  -89.44863 -89.43560 -10.77044  -8.52607  -8.51469
  Beta  occ. eigenvalues --   -6.48673  -6.48280  -6.47989  -6.47640  -6.47189
  Beta  occ. eigenvalues --   -6.47104  -1.34879  -1.23854  -1.07670  -0.93981
  Beta  occ. eigenvalues --   -0.93388  -0.84696  -0.84400
  Beta virt. eigenvalues --   -0.68710  -0.66091  -0.56687  -0.46685  -0.39778
  Beta virt. eigenvalues --   -0.36798  -0.34936  -0.31898  -0.28088  -0.27943
  Beta virt. eigenvalues --   -0.26134  -0.25187  -0.24198  -0.22662  -0.21473
  Beta virt. eigenvalues --   -0.20803  -0.20721  -0.20138  -0.17984  -0.17312
  Beta virt. eigenvalues --   -0.14472  -0.13219  -0.12797  -0.11374  -0.10506
  Beta virt. eigenvalues --   -0.09133  -0.06716  -0.06194  -0.04221  -0.03387
  Beta virt. eigenvalues --   -0.01683  -0.01250   0.00381   0.00903   0.01812
  Beta virt. eigenvalues --    0.05092   0.05165   0.08579   0.10696   0.14318
  Beta virt. eigenvalues --    0.17455   0.20278   0.24107   0.24884   0.25643
  Beta virt. eigenvalues --    0.30932   0.39915   0.39918   0.43095   0.45456
  Beta virt. eigenvalues --    0.46620   0.49025   0.49466   0.51965   0.53323
  Beta virt. eigenvalues --    0.53737   0.54790   0.57741   0.58190   0.58530
  Beta virt. eigenvalues --    0.59145   0.62423   0.63756   0.83370   0.87152
  Beta virt. eigenvalues --    0.97405   1.00796   1.01565   1.11835   1.13941
  Beta virt. eigenvalues --    1.15492   1.15992   1.17807   1.18261   1.21196
  Beta virt. eigenvalues --    1.23526   1.25130   1.26638   1.31350   1.36062
  Beta virt. eigenvalues --    1.42964   1.45381   1.55255   1.56716   1.56914
  Beta virt. eigenvalues --    1.72629   1.73313   1.76218   1.89919   1.93237
  Beta virt. eigenvalues --    1.96297   2.18421   2.28715   2.29098   2.49117
  Beta virt. eigenvalues --    2.56268   2.60367   2.69074   2.82737   2.82884
  Beta virt. eigenvalues --    2.99192   3.07363   3.22160   3.33262   3.46511
  Beta virt. eigenvalues --    3.54604   3.73413   3.88715   4.05914   4.08330
  Beta virt. eigenvalues --    4.08550   4.23497   4.23889   4.29831   4.34543
  Beta virt. eigenvalues --    4.51191   4.73815   4.98149   5.09549   6.51769
  Beta virt. eigenvalues --    6.65600   6.68937   6.81159   7.03255   7.80907
  Beta virt. eigenvalues --    7.87776  16.75405  16.77792  16.82715  17.03714
  Beta virt. eigenvalues --   17.27365  17.30759  23.35308 188.64996 188.73939
          Condensed to atoms (all electrons):
               1          2          3          4          5
     1  S   14.861858   0.084022   0.290412  -0.055783   0.302903
     2  S    0.084022  15.073333   0.246733  -0.063854  -0.014632
     3  C    0.290412   0.246733   4.762944   0.422490   0.024044
     4  H   -0.055783  -0.063854   0.422490   0.400031   0.001515
     5  H    0.302903  -0.014632   0.024044   0.001515   0.426137
          Atomic-Atomic Spin Densities.
               1          2          3          4          5
     1  S    0.743716  -0.005473  -0.010556  -0.004519   0.003644
     2  S   -0.005473   1.599493  -0.043156  -0.009759   0.002136
     3  C   -0.010556  -0.043156  -0.258363   0.018299   0.000300
     4  H   -0.004519  -0.009759   0.018299   0.031384   0.000142
     5  H    0.003644   0.002136   0.000300   0.000142  -0.018348
 Mulliken charges and spin densities:
               1          2
     1  S    0.516589   0.726812
     2  S    0.674398   1.543241
     3  C    0.253378  -0.293475
     4  H    0.295601   0.035547
     5  H    0.260034  -0.012125
 Sum of Mulliken charges =   2.00000   2.00000
 Mulliken charges and spin densities with hydrogens summed into heavy atoms:
               1          2
     1  S    0.776623   0.714687
     2  S    0.674398   1.543241
     3  C    0.548980  -0.257928
 APT charges:
               1
     1  S    0.791314
     2  S    0.907614
     3  C   -0.150029
     4  H    0.237842
     5  H    0.213260
 Sum of APT charges =   2.00000
 APT charges with hydrogens summed into heavy atoms:
               1
     1  S    1.004574
     2  S    0.907614
     3  C    0.087812
 Electronic spatial extent (au):  <R**2>=            331.6329
 Charge=              2.0000 electrons
 Dipole moment (field-independent basis, Debye):
    X=              0.0904    Y=             -0.3186    Z=              0.0000  Tot=              0.3312
 Quadrupole moment (field-independent basis, Debye-Ang):
   XX=             -4.6966   YY=            -17.9226   ZZ=            -25.5797
   XY=              3.2308   XZ=             -0.0000   YZ=             -0.0000
 Traceless Quadrupole moment (field-independent basis, Debye-Ang):
   XX=             11.3697   YY=             -1.8563   ZZ=             -9.5134
   XY=              3.2308   XZ=             -0.0000   YZ=             -0.0000
 Octapole moment (field-independent basis, Debye-Ang**2):
  XXX=              5.6558  YYY=              0.3722  ZZZ=              0.0000  XYY=             -3.9861
  XXY=             -5.6700  XXZ=              0.0000  XZZ=              0.2352  YZZ=             -0.7350
  YYZ=              0.0000  XYZ=              0.0000
 Hexadecapole moment (field-independent basis, Debye-Ang**3):
 XXXX=           -237.1875 YYYY=            -31.5664 ZZZZ=            -25.9740 XXXY=             -5.1281
 XXXZ=              0.0000 YYYX=             -8.1743 YYYZ=              0.0000 ZZZX=              0.0000
 ZZZY=              0.0000 XXYY=            -52.7755 XXZZ=            -51.7024 YYZZ=            -13.6054
 XXYZ=              0.0000 YYXZ=              0.0000 ZZXY=             -4.0708
 N-N= 1.254208500851D+02 E-N=-2.213955019341D+03  KE= 8.335710894225D+02
 Symmetry A'   KE= 7.577971534512D+02
 Symmetry A"   KE= 7.577393597125D+01
  Exact polarizability:  63.174   3.630  34.101   0.000  -0.000  25.593
 Approx polarizability: 124.770   5.451  57.354  -0.000  -0.000  40.904
                          Isotropic Fermi Contact Couplings
        Atom                 a.u.       MegaHertz       Gauss      10(-4) cm-1
     1  S(33)              0.05110       8.77555       3.13134       2.92721
     2  S(33)              0.05252       9.01901       3.21821       3.00842
     3  C(13)             -0.05625     -31.62042     -11.28295     -10.54744
     4  H(1)               0.02528      56.50904      20.16383      18.84939
     5  H(1)              -0.00758     -16.93107      -6.04143      -5.64760
 --------------------------------------------------------
       Center         ----  Spin Dipole Couplings  ----
                      3XX-RR        3YY-RR        3ZZ-RR
 --------------------------------------------------------
     1   Atom       -1.301846     -1.767922      3.069769
     2   Atom       -3.106824      2.404681      0.702144
     3   Atom        0.174166      0.159106     -0.333272
     4   Atom        0.020156     -0.002818     -0.017338
     5   Atom       -0.011291      0.020663     -0.009372
 --------------------------------------------------------
                        XY            XZ            YZ
 --------------------------------------------------------
     1   Atom        0.120148      0.000000     -0.000000
     2   Atom        2.340467      0.000000      0.000000
     3   Atom       -0.005328     -0.000000     -0.000000
     4   Atom       -0.005801      0.000000     -0.000000
     5   Atom       -0.009352     -0.000000      0.000000
 --------------------------------------------------------


 ---------------------------------------------------------------------------------
              Anisotropic Spin Dipole Couplings in Principal Axis System
 ---------------------------------------------------------------------------------

       Atom             a.u.   MegaHertz   Gauss  10(-4) cm-1        Axes

              Baa    -1.7971   -73.678   -26.290   -24.576 -0.2358  0.9718 -0.0000
     1 S(33)  Bbb    -1.2727   -52.179   -18.619   -17.405  0.9718  0.2358  0.0000
              Bcc     3.0698   125.858    44.909    41.982  0.0000  0.0000  1.0000
 
              Baa    -3.9666  -162.626   -58.029   -54.246  0.9387 -0.3448  0.0000
     2 S(33)  Bbb     0.7021    28.787    10.272     9.602  0.0000  0.0000  1.0000
              Bcc     3.2644   133.839    47.757    44.644  0.3448  0.9387  0.0000
 
              Baa    -0.3333   -44.722   -15.958   -14.918  0.0000  0.0000  1.0000
     3 C(13)  Bbb     0.1574    21.123     7.537     7.046  0.3031  0.9530 -0.0000
              Bcc     0.1759    23.599     8.421     7.872  0.9530 -0.3031 -0.0000
 
              Baa    -0.0173    -9.251    -3.301    -3.086  0.0000  0.0000  1.0000
     4 H(1)   Bbb    -0.0042    -2.241    -0.799    -0.747  0.2317  0.9728 -0.0000
              Bcc     0.0215    11.491     4.100     3.833  0.9728 -0.2317  0.0000
 
              Baa    -0.0138    -7.377    -2.632    -2.461  0.9651  0.2617  0.0000
     5 H(1)   Bbb    -0.0094    -5.001    -1.784    -1.668 -0.0000 -0.0000  1.0000
              Bcc     0.0232    12.378     4.417     4.129 -0.2617  0.9651  0.0000
 

 ---------------------------------------------------------------------------------

 No NMR shielding tensors so no spin-rotation constants.
 Leave Link  601 at Wed Aug  3 23:09:12 2016, MaxMem=    33554432 cpu:         1.5
 (Enter /home/proyectos/fulerenos/M3C-v2.0/M3C-deps_CCC/g09-AM64L-G09RevC.01/l701.exe)
 Compute integral second derivatives.
 ... and contract with generalized density number  0.
 Leave Link  701 at Wed Aug  3 23:09:12 2016, MaxMem=    33554432 cpu:         1.0
 (Enter /home/proyectos/fulerenos/M3C-v2.0/M3C-deps_CCC/g09-AM64L-G09RevC.01/l702.exe)
 L702 exits ... SP integral derivatives will be done elsewhere.
 Leave Link  702 at Wed Aug  3 23:09:12 2016, MaxMem=    33554432 cpu:         0.1
 (Enter /home/proyectos/fulerenos/M3C-v2.0/M3C-deps_CCC/g09-AM64L-G09RevC.01/l703.exe)
 Compute integral second derivatives, UseDBF=F ICtDFT=           0.
 Integral derivatives from FoFJK, PRISM(SPDF).
 Calling FoFJK, ICntrl=    100127 FMM=F ISym2X=1 I1Cent= 0 IOpClX= 1 NMat=1 NMatS=1 NMatT=0.
 FoFJK:  IHMeth= 1 ICntrl=  100127 DoSepK=F KAlg= 0 I1Cent=   0 FoldK=F
 IRaf=         0 NMat=   1 IRICut=       1 DoRegI=T DoRafI=F ISym2E= 1.
 FoFCou: FMM=F IPFlag=           0 FMFlag=      100000 FMFlg1=         800
         NFxFlg=           0 DoJE=F BraDBF=F KetDBF=F FulRan=T
         wScrn=  0.000000 ICntrl=  100127 IOpCl=  1 I1Cent=           0 NGrid=           0
         NMat0=    1 NMatS0=      1 NMatT0=    0 NMatD0=    1 NMtDS0=    0 NMtDT0=    0
 Petite list used in FoFCou.
 Leave Link  703 at Wed Aug  3 23:09:29 2016, MaxMem=    33554432 cpu:        68.4
 (Enter /home/proyectos/fulerenos/M3C-v2.0/M3C-deps_CCC/g09-AM64L-G09RevC.01/l716.exe)
 Dipole        = 3.55634702D-02-1.25350683D-01 6.26191545D-18
 Polarizability= 6.31736445D+01 3.62984639D+00 3.41006218D+01
                 9.44951406D-06-1.74245127D-05 2.55931582D+01
 Full mass-weighted force constant matrix:
 Low frequencies ---  -13.5855   -0.0025   -0.0021   -0.0020    7.6858    9.5229
 Low frequencies ---  259.4266  386.8429  679.5297
 Diagonal vibrational polarizability:
        4.1880996       3.0109570       5.1109791
 Harmonic frequencies (cm**-1), IR intensities (KM/Mole), Raman scattering
 activities (A**4/AMU), depolarization ratios for plane and unpolarized
 incident light, reduced masses (AMU), force constants (mDyne/A),
 and normal coordinates:
                      1                      2                      3
                     A'                     A"                     A'
 Frequencies --    259.4265               386.8389               679.5297
 Red. masses --      7.6031                 1.4244                 8.2428
 Frc consts  --      0.3015                 0.1256                 2.2425
 IR Inten    --      3.8067                19.3469                 8.5938
  Atom  AN      X      Y      Z        X      Y      Z        X      Y      Z
     1  16    -0.26   0.05  -0.00     0.00  -0.00  -0.06    -0.26  -0.15   0.00
     2  16     0.27   0.11  -0.00    -0.00  -0.00  -0.03     0.15  -0.07   0.00
     3   6     0.03  -0.39   0.00    -0.00   0.00   0.16     0.23   0.53  -0.00
     4   1     0.08  -0.38  -0.00    -0.00   0.00  -0.05     0.21   0.53  -0.00
     5   1    -0.72  -0.12   0.00     0.00   0.00   0.98     0.46   0.13  -0.00
                      4                      5                      6
                     A'                     A"                     A'
 Frequencies --    767.6319               844.2018               965.8535
 Red. masses --      6.2157                 1.2378                 1.1313
 Frc consts  --      2.1580                 0.5197                 0.6218
 IR Inten    --     73.5325                43.2127                19.0461
  Atom  AN      X      Y      Z        X      Y      Z        X      Y      Z
     1  16    -0.03  -0.03  -0.00    -0.00  -0.00   0.00    -0.03   0.01   0.00
     2  16    -0.19   0.09  -0.00    -0.00   0.00   0.01    -0.01   0.01   0.00
     3   6     0.58  -0.11   0.00     0.00   0.00  -0.14    -0.00  -0.09  -0.00
     4   1     0.58  -0.10  -0.00     0.00  -0.00   0.93     0.39  -0.05   0.00
     5   1    -0.46  -0.21   0.00    -0.00  -0.00   0.34     0.84   0.36  -0.00
                      7                      8                      9
                     A'                     A'                     A'
 Frequencies --   1243.8513              2499.5214              2981.9801
 Red. masses --      1.1356                 1.0404                 1.0848
 Frc consts  --      1.0351                 3.8295                 5.6834
 IR Inten    --     21.6875                95.8357               158.0800
  Atom  AN      X      Y      Z        X      Y      Z        X      Y      Z
     1  16     0.01  -0.02  -0.00     0.01  -0.03  -0.00     0.00   0.00   0.00
     2  16     0.00   0.01  -0.00    -0.00   0.00  -0.00    -0.00  -0.00   0.00
     3   6    -0.10   0.03   0.00    -0.00   0.00   0.00     0.01  -0.08  -0.00
     4   1     0.92   0.14  -0.00     0.01   0.00   0.00    -0.11   0.99   0.00
     5   1    -0.30  -0.15   0.00    -0.37   0.93   0.00     0.01   0.00  -0.00

 -------------------
 - Thermochemistry -
 -------------------
 Temperature   298.150 Kelvin.  Pressure   1.00000 Atm.
 Atom     1 has atomic number 16 and mass  31.97207
 Atom     2 has atomic number 16 and mass  31.97207
 Atom     3 has atomic number  6 and mass  12.00000
 Atom     4 has atomic number  1 and mass   1.00783
 Atom     5 has atomic number  1 and mass   1.00783
 Molecular mass:    77.95979 amu.
 Principal axes and moments of inertia in atomic units:
                           1         2         3
     Eigenvalues --    37.10081 531.71844 568.81925
           X            0.99550  -0.09476   0.00000
           Y            0.09476   0.99550   0.00000
           Z           -0.00000  -0.00000   1.00000
 This molecule is an asymmetric top.
 Rotational symmetry number  1.
 Rotational temperatures (Kelvin)      2.33455     0.16289     0.15227
 Rotational constants (GHZ):          48.64425     3.39417     3.17279
 Zero-point vibrational energy      63574.6 (Joules/Mol)
                                   15.19468 (Kcal/Mol)
 Warning -- explicit consideration of   2 degrees of freedom as
           vibrations may cause significant error
 Vibrational temperatures:    373.26   556.57   977.69  1104.45  1214.62
          (Kelvin)           1389.65  1789.62  3596.25  4290.40
 
 Zero-point correction=                           0.024214 (Hartree/Particle)
 Thermal correction to Energy=                    0.028175
 Thermal correction to Enthalpy=                  0.029119
 Thermal correction to Gibbs Free Energy=        -0.003500
 Sum of electronic and zero-point Energies=           -834.802807
 Sum of electronic and thermal Energies=              -834.798846
 Sum of electronic and thermal Enthalpies=            -834.797902
 Sum of electronic and thermal Free Energies=         -834.830521
 
                     E (Thermal)             CV                S
                      KCal/Mol        Cal/Mol-Kelvin    Cal/Mol-Kelvin
 Total                   17.680             11.958             68.652
 Electronic               0.000              0.000              2.183
 Translational            0.889              2.981             38.976
 Rotational               0.889              2.981             23.932
 Vibrational             15.902              5.996              3.561
 Vibration     1          0.668              1.747              1.666
 Vibration     2          0.755              1.498              1.012
                       Q            Log10(Q)             Ln(Q)
 Total Bot       0.407250D+02          1.609861          3.706842
 Total V=0       0.559278D+13         12.747628         29.352497
 Vib (Bot)       0.132316D-10        -10.878387        -25.048413
 Vib (Bot)    1  0.748908D+00         -0.125572         -0.289140
 Vib (Bot)    2  0.465145D+00         -0.332412         -0.765406
 Vib (V=0)       0.181710D+01          0.259379          0.597242
 Vib (V=0)    1  0.140048D+01          0.146277          0.336814
 Vib (V=0)    2  0.118291D+01          0.072950          0.167974
 Electronic      0.300000D+01          0.477121          1.098612
 Translational   0.270559D+08          7.432261         17.113414
 Rotational      0.379198D+05          4.578866         10.543229
 
                                                              b3lyp opt
                                                             IR Spectrum
 
      2                   2                                                     1                                                    
      9                   5                                                     2          9     8  7   6           3    2           
      8                   0                                                     4          6     4  6   8           8    5           
      2                   0                                                     4          6     4  8   0           7    9           
 
      X                   X                                                     X          X     X  X   X           X    X           
      X                   X                                                     X          X     X  X               X                
      X                   X                                                     X                X  X                                
      X                   X                                                                      X  X                                
      X                   X                                                                      X  X                                
      X                   X                                                                         X                                
      X                   X                                                                         X                                
      X                   X                                                                         X                                
      X                   X                                                                         X                                
      X                   X                                                                                                          
      X                   X                                                                                                          
      X                   X                                                                                                          
      X                                                                                                                              
      X                                                                                                                              
      X                                                                                                                              
      X                                                                                                                              
      X                                                                                                                              
      X                                                                                                                              
      X                                                                                                                              
      X                                                                                                                              
 
 ***** Axes restored to original set *****
 -------------------------------------------------------------------
 Center     Atomic                   Forces (Hartrees/Bohr)
 Number     Number              X              Y              Z
 -------------------------------------------------------------------
      1       16           0.000019965    0.000038066    0.000025024
      2       16          -0.000067754   -0.000042799   -0.000004503
      3        6           0.000082278    0.000025173   -0.000019482
      4        1          -0.000008942    0.000007004    0.000011184
      5        1          -0.000025547   -0.000027444   -0.000012224
 -------------------------------------------------------------------
 Cartesian Forces:  Max     0.000082278 RMS     0.000035127
 Z-matrix is all fixed cartesians, so copy forces.
 Force constants in Cartesian coordinates: 
                1             2             3             4             5 
      1  0.213613D+00
      2  0.726555D-01  0.177990D+00
      3 -0.370340D-01  0.115760D+00  0.140026D+00
      4 -0.632183D-01  0.653613D-02  0.433847D-01  0.203556D+00
      5 -0.209343D-01  0.932440D-02  0.118821D-01  0.848895D-01  0.507999D-01
      6  0.178107D-01 -0.244675D-02 -0.327767D-02 -0.231731D-01 -0.407978D-02
      7 -0.765983D-01 -0.798432D-03  0.305636D-01 -0.131264D+00 -0.488084D-01
      8  0.228431D-01 -0.525532D-01 -0.454062D-01 -0.842469D-01 -0.570682D-01
      9  0.525731D-01 -0.330744D-01 -0.747935D-01 -0.214551D-01 -0.715802D-02
     10  0.737629D-02  0.182901D-01  0.141529D-01 -0.111772D-01 -0.172953D-01
     11  0.808409D-03 -0.846531D-03 -0.294598D-02 -0.949681D-02 -0.345507D-02
     12 -0.212211D-02 -0.120648D-01 -0.825990D-02  0.966955D-03 -0.129519D-02
     13 -0.811731D-01 -0.966832D-01 -0.510672D-01  0.210359D-02  0.214845D-02
     14 -0.753727D-01 -0.133915D+00 -0.792899D-01  0.231809D-02  0.399058D-03
     15 -0.312276D-01 -0.681740D-01 -0.536950D-01  0.276496D-03  0.650872D-03
                6             7             8             9            10 
      6  0.159088D-01
      7  0.115371D-01  0.251679D+00
      8  0.113271D-01  0.942152D-01  0.306772D+00
      9 -0.175054D-01 -0.214540D-02  0.162523D+00  0.231835D+00
     10 -0.629317D-02 -0.539428D-01 -0.538935D-01 -0.405149D-01  0.614594D-01
     11 -0.536293D-02 -0.434273D-01 -0.192344D+00 -0.123434D+00  0.537730D-01
     12  0.591634D-02 -0.307712D-01 -0.117975D+00 -0.129207D+00  0.279425D-01
     13  0.118484D-03  0.101261D-01  0.210821D-01  0.115423D-01 -0.371567D-02
     14  0.562358D-03 -0.118111D-02 -0.480655D-02  0.114345D-02 -0.874265D-03
     15 -0.104208D-02 -0.918414D-02 -0.104693D-01 -0.103291D-01  0.471273D-02
               11            12            13            14            15 
     11  0.193627D+00
     12  0.134473D+00  0.129670D+00
     13 -0.165728D-02  0.398379D-02  0.726591D-01
     14  0.301896D-02 -0.313818D-02  0.751100D-01  0.135303D+00
     15 -0.272982D-02  0.188005D-02  0.354225D-01  0.807223D-01  0.631861D-01
 Leave Link  716 at Wed Aug  3 23:09:29 2016, MaxMem=    33554432 cpu:         0.1
 (Enter /home/proyectos/fulerenos/M3C-v2.0/M3C-deps_CCC/g09-AM64L-G09RevC.01/l103.exe)

 GradGradGradGradGradGradGradGradGradGradGradGradGradGradGradGradGradGrad
 Berny optimization.
 Search for a local minimum.
 Step number   1 out of a maximum of    2
 All quantities printed in internal units (Hartrees-Bohrs-Radians)
 Second derivative matrix not updated -- analytic derivatives used.
 The second derivative matrix:
                          X1        Y1        Z1        X2        Y2
           X1           0.21361
           Y1           0.07266   0.17799
           Z1          -0.03703   0.11576   0.14003
           X2          -0.06322   0.00654   0.04338   0.20356
           Y2          -0.02093   0.00932   0.01188   0.08489   0.05080
           Z2           0.01781  -0.00245  -0.00328  -0.02317  -0.00408
           X3          -0.07660  -0.00080   0.03056  -0.13126  -0.04881
           Y3           0.02284  -0.05255  -0.04541  -0.08425  -0.05707
           Z3           0.05257  -0.03307  -0.07479  -0.02146  -0.00716
           X4           0.00738   0.01829   0.01415  -0.01118  -0.01730
           Y4           0.00081  -0.00085  -0.00295  -0.00950  -0.00346
           Z4          -0.00212  -0.01206  -0.00826   0.00097  -0.00130
           X5          -0.08117  -0.09668  -0.05107   0.00210   0.00215
           Y5          -0.07537  -0.13391  -0.07929   0.00232   0.00040
           Z5          -0.03123  -0.06817  -0.05370   0.00028   0.00065
                          Z2        X3        Y3        Z3        X4
           Z2           0.01591
           X3           0.01154   0.25168
           Y3           0.01133   0.09422   0.30677
           Z3          -0.01751  -0.00215   0.16252   0.23183
           X4          -0.00629  -0.05394  -0.05389  -0.04051   0.06146
           Y4          -0.00536  -0.04343  -0.19234  -0.12343   0.05377
           Z4           0.00592  -0.03077  -0.11797  -0.12921   0.02794
           X5           0.00012   0.01013   0.02108   0.01154  -0.00372
           Y5           0.00056  -0.00118  -0.00481   0.00114  -0.00087
           Z5          -0.00104  -0.00918  -0.01047  -0.01033   0.00471
                          Y4        Z4        X5        Y5        Z5
           Y4           0.19363
           Z4           0.13447   0.12967
           X5          -0.00166   0.00398   0.07266
           Y5           0.00302  -0.00314   0.07511   0.13530
           Z5          -0.00273   0.00188   0.03542   0.08072   0.06319
 ITU=  0
     Eigenvalues ---    0.01503   0.01869   0.06691   0.08243   0.09331
     Eigenvalues ---    0.29923   0.36133   0.38460   0.72967
 Angle between quadratic step and forces=  62.25 degrees.
 ClnCor:  largest displacement from symmetrization is 2.07D-09 for atom     5.
 Linear search not attempted -- first point.
 ClnCor:  largest displacement from symmetrization is 4.97D-15 for atom     5.
 B after Tr=     0.000108   -0.000046   -0.000099
         Rot=    1.000000    0.000007   -0.000013    0.000014 Ang=   0.00 deg.
 Variable       Old X    -DE/DX   Delta X   Delta X   Delta X     New X
                                 (Linear)    (Quad)   (Total)
    X1       -2.36343   0.00002   0.00000  -0.00004   0.00007  -2.36336
    Y1       -1.27534   0.00004   0.00000  -0.00000   0.00004  -1.27530
    Z1        1.36885   0.00003   0.00000   0.00002   0.00000   1.36885
    X2        2.86591  -0.00007   0.00000   0.00001   0.00007   2.86597
    Y2       -0.84794  -0.00004   0.00000  -0.00016  -0.00030  -0.84823
    Z2       -0.96094  -0.00000   0.00000  -0.00015  -0.00031  -0.96125
    X3        0.00761   0.00008   0.00000   0.00031   0.00035   0.00796
    Y3       -2.11534   0.00003   0.00000   0.00020   0.00014  -2.11519
    Z3       -0.64993  -0.00002   0.00000   0.00002  -0.00005  -0.64998
    X4       -0.46137  -0.00001   0.00000  -0.00001  -0.00005  -0.46142
    Y4       -3.71759   0.00001   0.00000   0.00019   0.00013  -3.71746
    Z4       -1.89696   0.00001   0.00000   0.00018   0.00015  -1.89681
    X5       -1.21732  -0.00003   0.00000  -0.00062  -0.00043  -1.21775
    Y5        0.69332  -0.00003   0.00000  -0.00004  -0.00001   0.69331
    Z5        2.60380  -0.00001   0.00000   0.00029   0.00021   2.60401
         Item               Value     Threshold  Converged?
 Maximum Force            0.000082     0.000450     YES
 RMS     Force            0.000035     0.000300     YES
 Maximum Displacement     0.000430     0.001800     YES
 RMS     Displacement     0.000201     0.001200     YES
 Predicted change in Energy=-3.036198D-08
 Optimization completed.
    -- Stationary point found.
 GradGradGradGradGradGradGradGradGradGradGradGradGradGradGradGradGradGrad

 Leave Link  103 at Wed Aug  3 23:09:29 2016, MaxMem=    33554432 cpu:         0.1
 (Enter /home/proyectos/fulerenos/M3C-v2.0/M3C-deps_CCC/g09-AM64L-G09RevC.01/l9999.exe)
 1\1\GINC-DEPAZ28\Freq\UB3LYP\6-311++G(3df,2p)\C1H2S2(2+,3)\NAGUIRRE\03
 -Aug-2016\0\\#p b3lyp/6-311++G(3df,2p) freq\\b3lyp opt\\2,3\S,-1.25067
 3,-0.674883,0.724363\S,1.516572,-0.448708,-0.508506\C,0.004026823,-1.1
 19387899,-0.343927256\H,-0.244147218,-1.9672644229,-1.0038266331\H,-0.
 6441756581,0.3668912142,1.3778697108\\Version=EM64L-G09RevE.01\State=3
 -A"\HF=-834.8270209\S2=2.063212\S2-1=0.\S2A=2.000599\RMSD=9.922e-09\RM
 SF=3.513e-05\ZeroPoint=0.0242143\Thermal=0.0281747\Dipole=0.0495116,0.
 1000022,0.0672734\DipoleDeriv=1.1232463,0.0381898,-0.2134985,-0.007434
 4,0.5622976,-0.0738434,-0.2559704,-0.09764,0.6883979,1.2298145,0.05114
 64,-0.1852382,0.1903601,0.7416391,-0.1381754,-0.0556326,-0.0655593,0.7
 513885,-0.5564044,-0.1031608,0.2814226,-0.1594804,0.0821626,0.0039818,
 0.2289878,-0.0253967,0.0241539,0.1367877,0.0473873,0.070047,0.0443152,
 0.3267439,0.1074472,0.0671879,0.1058455,0.2499937,0.0665558,-0.0335627
 ,0.0472671,-0.0677605,0.2871568,0.1005898,0.0154274,0.0827505,0.286066
 \Polar=56.9912979,2.9925856,30.4431107,-13.5916873,2.9541818,35.433015
 8\PG=CS [SG(C1H2S2)]\NImag=0\\0.21361344,0.07265547,0.17799013,-0.0370
 3403,0.11575996,0.14002607,-0.06321830,0.00653613,0.04338474,0.2035556
 9,-0.02093428,0.00932440,0.01188212,0.08488946,0.05079986,0.01781069,-
 0.00244675,-0.00327767,-0.02317312,-0.00407978,0.01590881,-0.07659833,
 -0.00079843,0.03056360,-0.13126379,-0.04880837,0.01153711,0.25167886,0
 .02284308,-0.05255317,-0.04540622,-0.08424687,-0.05706824,0.01132710,0
 .09421523,0.30677185,0.05257307,-0.03307443,-0.07479347,-0.02145507,-0
 .00715802,-0.01750541,-0.00214540,0.16252299,0.23183473,0.00737629,0.0
 1829006,0.01415285,-0.01117718,-0.01729526,-0.00629317,-0.05394280,-0.
 05389353,-0.04051495,0.06145936,0.00080841,-0.00084653,-0.00294598,-0.
 00949681,-0.00345507,-0.00536293,-0.04342732,-0.19234389,-0.12343398,0
 .05377300,0.19362653,-0.00212211,-0.01206475,-0.00825990,0.00096696,-0
 .00129519,0.00591634,-0.03077117,-0.11797459,-0.12920679,0.02794254,0.
 13447272,0.12967029,-0.08117311,-0.09668322,-0.05106715,0.00210359,0.0
 0214845,0.00011848,0.01012606,0.02108208,0.01154235,-0.00371567,-0.001
 65728,0.00398379,0.07265914,-0.07537268,-0.13391483,-0.07928988,0.0023
 1809,0.00039906,0.00056236,-0.00118111,-0.00480655,0.00114345,-0.00087
 427,0.00301896,-0.00313818,0.07510996,0.13530336,-0.03122762,-0.068174
 03,-0.05369503,0.00027650,0.00065087,-0.00104208,-0.00918414,-0.010469
 28,-0.01032907,0.00471273,-0.00272982,0.00188005,0.03542253,0.08072226
 ,0.06318612\\-0.00001997,-0.00003807,-0.00002502,0.00006775,0.00004280
 ,0.00000450,-0.00008228,-0.00002517,0.00001948,0.00000894,-0.00000700,
 -0.00001118,0.00002555,0.00002744,0.00001222\\\@


 THIS CURIOUS WORLD WHICH WE INHABIT IS MORE WONDERFUL THAN IT IS CONVENIENT;
 MORE BEAUTIFUL THAN IT IS USEFUL;
 IT IS MORE TO BE ADMIRED THAN IT IS TO BE USED.

                                                                 -- THOREAU
 Job cpu time:       0 days  0 hours  7 minutes 28.8 seconds.
 File lengths (MBytes):  RWF=     30 Int=      0 D2E=      0 Chk=      3 Scr=      1
 Normal termination of Gaussian 09 at Wed Aug  3 23:09:29 2016.
